Title
82320
    1SAPS     N    1   5.339   2.388  10.811  0.3252 -0.0488 -0.0608
    1SAPS   HN1    2   5.428   2.384  10.757  0.4401  1.0691  0.0240
    1SAPS   HN2    3   5.284   2.315  10.761  0.3010  0.6380 -1.0627
    1SAPS   HN3    4   5.296   2.480  10.788  0.9231  0.2222 -0.1193
    1SAPS   C12    5   5.359   2.376  10.954  0.3908  0.2778 -1.1580
    1SAPS  H12A    6   5.400   2.280  10.981 -1.6714  0.4326  3.4934
    1SAPS   C13    7   5.459   2.477  11.017  0.6586 -0.1420  0.2452
    1SAPS  O13A    8   5.537   2.549  10.951  0.0436  1.0233  0.2105
    1SAPS  O13B    9   5.460   2.485  11.145  0.0508  0.2885  0.3885
    1SAPS   C11   10   5.224   2.394  11.031  0.3890 -0.3466  0.5353
    1SAPS  H11A   11   5.195   2.500  11.021 -1.9758 -0.7705  2.1556
    1SAPS  H11B   12   5.225   2.372  11.140  0.4461  0.0303  0.6118
    1SAPS     P   13   4.983   2.288  11.023 -0.0459 -0.2031  0.1094
    1SAPS   O13   14   4.968   2.146  11.044  0.1023  0.8221  0.4558
    1SAPS   O14   15   4.951   2.382  11.132 -0.4906  0.0373  0.5985
    1SAPS   O12   16   5.125   2.310  10.969  0.1523 -0.0168  0.5726
    1SAPS   O11   17   4.884   2.321  10.900 -0.2159 -0.2554 -0.0958
    1SAPS    C1   18   4.859   2.457  10.881  0.0932  0.3121 -0.0146
    1SAPS    HA   19   4.765   2.479  10.936  0.6585 -2.5825  2.3385
    1SAPS    HB   20   4.937   2.525  10.922  0.6105  0.5055 -1.2710
    1SAPS    C2   21   4.834   2.485  10.729  0.1135 -1.2776 -0.0547
    1SAPS    HS   22   4.762   2.407  10.693 -2.0333  0.0020  1.2438
    1SAPS   O21   23   4.959   2.480  10.663  0.5692 -0.3025  0.2181
    1SAPS   C21   24   4.946   2.440  10.537 -0.8530  0.7430 -0.1415
    1SAPS   O22   25   4.852   2.383  10.487  0.3629  0.2598  0.3280
    1SAPS   C22   26   5.073   2.478  10.455  0.0928 -0.0783 -0.3778
    1SAPS   H2R   27   5.132   2.548  10.519 -0.1630  0.4232 -0.6831
    1SAPS   H2S   28   5.124   2.382  10.432  1.2874  1.0255 -2.6382
    1SAPS    C3   29   4.769   2.621  10.717  0.2669 -0.8632 -0.3353
    1SAPS    HX   30   4.848   2.696  10.737  3.4057 -3.6692 -1.1855
    1SAPS    HY   31   4.684   2.621  10.789 -1.0799 -4.7675 -1.6365
    1SAPS   O31   32   4.721   2.635  10.585  0.7589 -0.2378  0.3038
    1SAPS   C31   33   4.599   2.594  10.562  0.3821 -0.1968  1.2731
    1SAPS   O32   34   4.522   2.533  10.634 -0.0318  0.5810 -0.2360
    1SAPS   C32   35   4.562   2.653  10.429 -0.2888 -0.1533 -0.1013
    1SAPS   H2X   36   4.569   2.763  10.419  1.4874 -0.0867  1.4299
    1SAPS   H2Y   37   4.464   2.607  10.401  0.2015 -1.2724 -0.0321
    1SAPS   C23   38   5.038   2.563  10.331  0.7360  0.1229  0.2147
    1SAPS   H3R   39   4.966   2.645  10.351 -0.2649 -1.1609  2.2060
    1SAPS   H3S   40   4.986   2.498  10.258 -0.8447  1.4675  0.0875
    1SAPS   C24   41   5.160   2.617  10.260 -0.4597  0.0844  0.9109
    1SAPS   H4R   42   5.214   2.700  10.310  1.8280  0.3086 -1.6834
    1SAPS   H4S   43   5.116   2.668  10.171  0.6541  2.9263  1.8846
    1SAPS   C25   44   5.266   2.517  10.218  0.1156  0.1048  0.0960
    1SAPS   H5R   45   5.356   2.502  10.280  1.4994 -1.1399 -2.0850
    1SAPS   C26   46   5.252   2.428  10.121  1.2654  0.4056  0.0278
    1SAPS   H6R   47   5.336   2.359  10.099 -0.0502 -0.7732 -1.5605
    1SAPS   C27   48   5.147   2.412  10.017  0.3360  0.5310 -0.1136
    1SAPS   H7R   49   5.182   2.450   9.918 -1.5659 -2.1157 -1.9133
    1SAPS   H7S   50   5.065   2.483  10.042  0.2961  0.3622  0.2447
    1SAPS   C28   51   5.089   2.274   9.992  0.1810 -0.1766  0.2756
    1SAPS   H8R   52   5.028   2.241  10.078 -1.9252 -0.2288 -1.1640
    1SAPS   C29   53   5.090   2.202   9.874  0.1282  0.0332 -0.4864
    1SAPS   H9R   54   5.032   2.109   9.879 -0.0745  0.2201  1.4325
    1SAPS  C210   55   5.152   2.242   9.742  0.0475  0.8116 -0.4336
    1SAPS  H10R   56   5.207   2.161   9.690  2.2711  1.0786  1.3511
    1SAPS  H10S   57   5.227   2.319   9.770  0.1416  0.1065  1.3827
    1SAPS  C211   58   5.042   2.307   9.665  0.0309  0.1810  0.6640
    1SAPS  H11R   59   4.967   2.363   9.724 -2.3585 -1.2652 -0.8020
    1SAPS  C212   60   5.025   2.309   9.533 -0.2625 -0.2337  0.1940
    1SAPS  H12R   61   4.940   2.360   9.486 -1.6648 -1.9998  0.7259
    1SAPS  C213   62   5.121   2.256   9.427  0.1927  0.0051  0.1519
    1SAPS  H13R   63   5.082   2.157   9.394  2.4805  0.0360 -3.1362
    1SAPS  H13S   64   5.222   2.233   9.469  0.9219  1.5865 -0.6467
    1SAPS  C214   65   5.128   2.348   9.306  0.3733 -0.1752  0.5330
    1SAPS  H14R   66   5.176   2.443   9.332 -1.8440  0.9534  0.7032
    1SAPS  C215   67   5.097   2.323   9.176 -0.2381 -0.1759 -0.0941
    1SAPS  H15R   68   5.130   2.394   9.099  2.5914 -1.4157 -0.1762
    1SAPS  C216   69   5.055   2.195   9.114  0.0124  0.3188  0.1056
    1SAPS  H16R   70   4.945   2.186   9.108 -0.1194 -0.0304  2.1309
    1SAPS  H16S   71   5.091   2.114   9.181  1.5594  0.3409 -0.6554
    1SAPS  C217   72   5.122   2.162   8.982  0.6557  0.8634  0.5904
    1SAPS  H17R   73   5.084   2.062   8.951  1.0560  1.3092 -1.4888
    1SAPS  H17S   74   5.231   2.157   9.003  0.5214  2.5979  2.0293
    1SAPS  C218   75   5.080   2.262   8.866  0.1593 -0.1408  0.0494
    1SAPS  H18R   76   5.097   2.370   8.884  2.8035 -0.5152  0.1990
    1SAPS  H18S   77   4.970   2.248   8.858  0.0455  0.0963  1.1080
    1SAPS  C219   78   5.154   2.240   8.737  0.1044 -0.2040  0.3233
    1SAPS  H19R   79   5.260   2.271   8.749  0.8562 -3.1053  2.5876
    1SAPS  H19S   80   5.097   2.282   8.652 -0.2250 -1.6215 -0.1868
    1SAPS  C220   81   5.163   2.083   8.703 -0.3844 -0.9937 -0.3343
    1SAPS  H20R   82   5.234   2.037   8.774 -1.9318 -0.6580  1.4923
    1SAPS  H20S   83   5.210   2.075   8.602 -0.2954  1.9578 -0.6260
    1SAPS  H20T   84   5.063   2.035   8.711 -0.3955 -1.0994 -1.0241
    1SAPS   C33   85   4.650   2.607  10.304 -0.3314 -0.5326  0.8895
    1SAPS   H3X   86   4.640   2.499  10.278 -2.5616  0.1372 -1.5291
    1SAPS   H3Y   87   4.756   2.625  10.331 -0.2918  1.2077 -0.2621
    1SAPS   C34   88   4.624   2.693  10.170  0.9219  0.1359  0.7919
    1SAPS   H4X   89   4.623   2.804  10.167 -2.6921  0.2131 -2.0422
    1SAPS   H4Y   90   4.526   2.678  10.121 -0.0013 -0.1359  2.6444
    1SAPS   C35   91   4.716   2.638  10.057 -0.2768 -0.3873  0.0348
    1SAPS   H5X   92   4.737   2.529  10.069  0.3426 -0.5109 -1.7696
    1SAPS   H5Y   93   4.814   2.686  10.078 -1.1303  1.6888 -0.5553
    1SAPS   C36   94   4.677   2.683   9.913 -0.0856  0.3046 -0.2353
    1SAPS   H6X   95   4.676   2.794   9.909 -1.2551  0.2609 -1.7897
    1SAPS   H6Y   96   4.575   2.658   9.878 -0.6772  2.5419 -0.2257
    1SAPS   C37   97   4.780   2.635   9.810 -0.2151  0.1503  0.1230
    1SAPS   H7X   98   4.785   2.525   9.825 -0.8856  0.1591  0.4878
    1SAPS   H7Y   99   4.880   2.678   9.832 -0.0269 -0.8011  1.2036
    1SAPS   C38  100   4.730   2.678   9.676  0.4756  0.4693 -0.2316
    1SAPS   H8X  101   4.742   2.786   9.653  1.5575  0.4590  0.1983
    1SAPS   H8Y  102   4.624   2.646   9.674  0.5640  0.2174 -1.7311
    1SAPS   C39  103   4.805   2.608   9.561 -0.7055  0.6555 -0.4765
    1SAPS   H9X  104   4.780   2.500   9.559  0.0950  0.4294  0.8207
    1SAPS   H9Y  105   4.913   2.608   9.588 -1.2685  0.5487  2.0214
    1SAPS  C310  106   4.796   2.675   9.427 -0.5490  0.8883  0.5819
    1SAPS  H10X  107   4.845   2.774   9.441  0.5493  0.3712  0.4946
    1SAPS  H10Y  108   4.690   2.692   9.399 -0.6250 -0.4660 -0.0341
    1SAPS  C311  109   4.876   2.611   9.313 -0.4063  0.1219  0.1254
    1SAPS  H11X  110   4.864   2.502   9.296  1.8777 -0.3588  1.1557
    1SAPS  H11Y  111   4.981   2.616   9.350 -0.0454 -0.7228 -0.7407
    1SAPS  C312  112   4.867   2.692   9.181 -0.8107 -0.1328 -0.0418
    1SAPS  H12X  113   4.896   2.798   9.199  0.8385 -0.7151  0.9162
    1SAPS  H12Y  114   4.761   2.684   9.150 -1.2001  0.3951  1.0629
    1SAPS  C313  115   4.959   2.640   9.071 -0.4936 -0.1562  0.4393
    1SAPS  H13X  116   4.932   2.534   9.053 -0.6092  0.3310 -2.6719
    1SAPS  H13Y  117   5.066   2.647   9.099  0.2920  1.1472 -2.4932
    1SAPS  C314  118   4.925   2.708   8.931 -0.4635 -0.5015 -0.2894
    1SAPS  H14X  119   4.816   2.715   8.914 -0.7309  2.0372  1.9302
    1SAPS  H14Y  120   4.980   2.643   8.858 -1.2548 -1.7306  0.1757
    1SAPS  C315  121   4.995   2.851   8.921  0.2801  0.1654 -0.3694
    1SAPS  H15X  122   5.104   2.837   8.932  0.1066 -0.3491  0.8805
    1SAPS  H15Y  123   4.959   2.916   9.004  2.0324  1.3640 -0.4945
    1SAPS  C316  124   4.995   2.928   8.794 -0.3671 -0.1154 -1.0494
    1SAPS  H16X  125   5.012   3.035   8.819 -3.0845  0.7114 -2.3536
    1SAPS  H16Y  126   4.894   2.932   8.748  0.6666 -0.1918 -3.4665
    1SAPS  C317  127   5.109   2.890   8.688  0.4401 -0.2704 -0.2717
    1SAPS  H17X  128   5.098   2.781   8.672  0.2318  0.0919 -3.2787
    1SAPS  H17Y  129   5.214   2.904   8.721  1.0399 -0.1398 -2.0732
    1SAPS  C318  130   5.110   2.956   8.550 -0.5721 -0.3761  0.5477
    1SAPS  H18X  131   5.136   3.064   8.556  0.9398 -0.6915  0.0918
    1SAPS  H18Y  132   5.005   2.952   8.515  0.2710 -2.3638 -2.0703
    1SAPS  H18Z  133   5.186   2.904   8.488  0.2443  2.0189 -0.5952
    2SAPS     N  134   5.210   3.903  11.010  0.5896  0.0617 -0.3408
    2SAPS   HN1  135   5.293   3.884  11.069 -2.4923 -1.1854  4.1640
    2SAPS   HN2  136   5.138   3.909  11.085  0.6664 -2.0996 -0.0250
    2SAPS   HN3  137   5.194   3.807  10.973 -0.3306 -0.8095  2.0990
    2SAPS   C12  138   5.210   4.009  10.905 -0.0941 -0.8812  0.3477
    2SAPS  H12A  139   5.106   4.015  10.875  0.2215  1.7798 -0.5235
    2SAPS   C13  140   5.241   4.148  10.962  0.7484 -0.3873  0.1796
    2SAPS  O13A  141   5.264   4.164  11.089 -0.2764  0.0542 -0.1463
    2SAPS  O13B  142   5.211   4.247  10.891  0.0466  0.3977  0.1123
    2SAPS   C11  143   5.309   3.959  10.792  0.2427 -0.0840 -0.7646
    2SAPS  H11A  144   5.283   4.021  10.704  2.8045  1.8358 -0.2767
    2SAPS  H11B  145   5.279   3.856  10.761  0.4607 -0.4036  0.0549
    2SAPS     P  146   5.564   3.945  10.733 -0.2484 -0.5999 -0.3361
    2SAPS   O13  147   5.571   4.060  10.638 -0.3942  0.1282 -0.8908
    2SAPS   O14  148   5.671   3.932  10.830 -0.1394  0.3081  0.3211
    2SAPS   O12  149   5.447   3.970  10.827 -0.6862  0.2986  0.1540
    2SAPS   O11  150   5.518   3.808  10.663 -0.0623 -0.2874  0.5828
    2SAPS    C1  151   5.591   3.754  10.553  0.1355 -0.5217 -0.8228
    2SAPS    HA  152   5.629   3.835  10.486  0.0701  1.4832  1.4457
    2SAPS    HB  153   5.672   3.695  10.599  0.0911  2.5627  3.9451
    2SAPS    C2  154   5.496   3.675  10.462 -0.0133  0.3640 -0.4377
    2SAPS    HS  155   5.561   3.611  10.397  2.6699  2.3973  0.0710
    2SAPS   O21  156   5.400   3.766  10.396 -0.4083  0.5638 -0.1257
    2SAPS   C21  157   5.425   3.773  10.266 -0.1887  0.7495 -0.0382
    2SAPS   O22  158   5.512   3.705  10.205 -0.0912  0.3412  0.0077
    2SAPS   C22  159   5.336   3.866  10.195  0.9792  0.0958  0.4370
    2SAPS   H2R  160   5.239   3.862  10.249  0.7546  0.3300  0.0638
    2SAPS   H2S  161   5.374   3.970  10.204  1.2344 -0.0589  1.2105
    2SAPS    C3  162   5.411   3.579  10.550  0.5422  1.3801 -0.2950
    2SAPS    HX  163   5.359   3.640  10.627  1.9355 -2.7393  4.4233
    2SAPS    HY  164   5.478   3.516  10.612 -2.5286 -0.1452  1.7634
    2SAPS   O31  165   5.301   3.506  10.489 -0.2750 -0.9418  1.2416
    2SAPS   C31  166   5.340   3.397  10.423 -0.1073 -0.3323  0.1473
    2SAPS   O32  167   5.451   3.352  10.419 -0.5921 -0.2284  0.6786
    2SAPS   C32  168   5.223   3.339  10.355 -0.5603  0.6669 -0.3338
    2SAPS   H2X  169   5.143   3.356  10.429  0.3353  2.2721  0.3271
    2SAPS   H2Y  170   5.229   3.230  10.338 -1.7936  0.5868 -0.3096
    2SAPS   C23  171   5.292   3.836  10.044 -0.4984 -0.0815  0.5497
    2SAPS   H3R  172   5.184   3.857  10.029 -0.0402  0.3082 -3.0644
    2SAPS   H3S  173   5.313   3.731  10.016  0.6729  0.8304 -2.3644
    2SAPS   C24  174   5.369   3.920   9.925 -0.6052  0.6795  0.6696
    2SAPS   H4R  175   5.312   3.889   9.835  3.0194 -2.9581 -0.6805
    2SAPS   H4S  176   5.474   3.887   9.918 -0.6673  0.1077  2.1990
    2SAPS   C25  177   5.375   4.071   9.947  1.0469 -0.5946  0.4595
    2SAPS   H5R  178   5.440   4.100  10.031  0.2705  1.4253  0.4209
    2SAPS   C26  179   5.301   4.167   9.885  0.1142 -0.2955  0.1620
    2SAPS   H6R  180   5.307   4.272   9.916 -2.3474 -0.4238  1.3154
    2SAPS   C27  181   5.196   4.129   9.781  0.1075 -0.1674  0.1638
    2SAPS   H7R  182   5.216   4.025   9.749  3.2897  0.4930 -0.3563
    2SAPS   H7S  183   5.232   4.180   9.689 -0.7034 -3.8441 -2.4086
    2SAPS   C28  184   5.058   4.162   9.835 -0.2162  0.1483 -0.7126
    2SAPS   H8R  185   5.046   4.143   9.943  0.4157  2.6464 -0.1327
    2SAPS   C29  186   4.946   4.184   9.769 -0.0521  0.0919  0.2260
    2SAPS   H9R  187   4.853   4.194   9.827  0.4999 -0.2595  1.1815
    2SAPS  C210  188   4.941   4.179   9.617 -0.3624 -0.4074 -0.1509
    2SAPS  H10R  189   4.835   4.195   9.587 -0.3913 -2.0970 -1.0540
    2SAPS  H10S  190   4.957   4.074   9.586  0.8294 -0.4025  0.4012
    2SAPS  C211  191   5.021   4.281   9.537 -0.1410  0.7350  0.0388
    2SAPS  H11R  192   5.073   4.357   9.597 -0.3458 -0.0400  1.2280
    2SAPS  C212  193   5.024   4.294   9.400 -0.6342  0.0689  0.0014
    2SAPS  H12R  194   5.081   4.387   9.382 -0.9143  0.1335 -0.5432
    2SAPS  C213  195   4.963   4.196   9.308 -0.3287  0.9548 -0.1003
    2SAPS  H13R  196   4.872   4.243   9.265 -0.4594 -1.4359 -2.8013
    2SAPS  H13S  197   4.929   4.115   9.377 -0.2398  1.9116  1.0943
    2SAPS  C214  198   5.047   4.152   9.194 -0.4185  0.1363  0.0793
    2SAPS  H14R  199   5.065   4.231   9.120  0.5408 -1.2012 -1.1594
    2SAPS  C215  200   5.111   4.032   9.183  0.0276 -0.7708 -0.4153
    2SAPS  H15R  201   5.165   4.003   9.092  1.0647  1.5827 -0.6308
    2SAPS  C216  202   5.103   3.929   9.294  0.9207 -0.6788  0.1178
    2SAPS  H16R  203   5.047   3.839   9.259  1.0504 -0.3910 -0.8404
    2SAPS  H16S  204   5.050   3.958   9.388 -1.4778  0.7392 -1.5522
    2SAPS  C217  205   5.246   3.880   9.338 -0.4066 -0.3414 -0.0844
    2SAPS  H17R  206   5.295   3.835   9.249 -2.4338  0.0488 -1.4491
    2SAPS  H17S  207   5.229   3.796   9.410  0.9484 -2.3835 -1.9931
    2SAPS  C218  208   5.325   3.985   9.414 -0.4578 -0.7171  0.3341
    2SAPS  H18R  209   5.260   4.039   9.486 -0.8101 -1.5048  0.6171
    2SAPS  H18S  210   5.358   4.057   9.336  0.7130 -0.7540  0.7706
    2SAPS  C219  211   5.451   3.930   9.494  0.4360 -0.7487  0.1879
    2SAPS  H19R  212   5.525   3.891   9.422  2.2207  1.9876  0.3797
    2SAPS  H19S  213   5.429   3.843   9.559  0.8982 -0.2347  1.0526
    2SAPS  C220  214   5.519   4.042   9.575  0.1000 -0.0972  0.1622
    2SAPS  H20R  215   5.460   4.098   9.650 -0.8825 -0.4087 -0.3647
    2SAPS  H20S  216   5.559   4.121   9.509 -0.0457 -0.0735  0.1009
    2SAPS  H20T  217   5.608   4.011   9.633  0.8067 -0.7070 -1.1849
    2SAPS   C33  218   5.184   3.403  10.223  0.0349 -0.0823 -1.0479
    2SAPS   H3X  219   5.177   3.514  10.225 -0.9802 -0.1403  0.6136
    2SAPS   H3Y  220   5.082   3.373  10.193 -0.0690 -0.9425  0.1127
    2SAPS   C34  221   5.290   3.374  10.116 -0.5783 -0.0751 -0.4144
    2SAPS   H4X  222   5.340   3.279  10.142 -0.7010  0.0294  0.2166
    2SAPS   H4Y  223   5.357   3.463  10.118 -0.0421 -0.4746 -0.5238
    2SAPS   C35  224   5.230   3.355   9.970 -0.7638 -0.1007 -0.1704
    2SAPS   H5X  225   5.185   3.452   9.941  2.6580  2.0985  1.1258
    2SAPS   H5Y  226   5.149   3.280   9.978 -0.4426 -0.6708 -1.9934
    2SAPS   C36  227   5.345   3.329   9.870  0.2733 -0.0282 -0.2282
    2SAPS   H6X  228   5.385   3.226   9.883 -0.9584 -0.5803 -0.6351
    2SAPS   H6Y  229   5.429   3.401   9.869 -0.6716  1.1036  0.1286
    2SAPS   C37  230   5.298   3.340   9.725 -0.3872  0.7286  0.2962
    2SAPS   H7X  231   5.267   3.445   9.709  2.2453  1.3354 -1.6985
    2SAPS   H7Y  232   5.220   3.266   9.698 -0.2292 -0.4018  2.6921
    2SAPS   C38  233   5.417   3.330   9.624  0.5169  0.0516 -0.3610
    2SAPS   H8X  234   5.459   3.228   9.621 -0.1884 -0.2391 -0.5289
    2SAPS   H8Y  235   5.498   3.398   9.657  1.3614 -1.9485  1.9835
    2SAPS   C39  236   5.363   3.366   9.474 -0.0623  0.6746 -0.7665
    2SAPS   H9X  237   5.312   3.465   9.477 -1.4932 -0.0495 -0.1606
    2SAPS   H9Y  238   5.297   3.282   9.441  0.0577  0.2114  0.1397
    2SAPS  C310  239   5.484   3.366   9.385  0.0124 -0.4473  1.0320
    2SAPS  H10X  240   5.519   3.263   9.364  0.8314 -0.0125  0.2250
    2SAPS  H10Y  241   5.569   3.416   9.438 -0.3852 -0.0325  1.2851
    2SAPS  C311  242   5.449   3.442   9.257 -0.2934 -0.0693  0.9793
    2SAPS  H11X  243   5.428   3.549   9.275 -0.5852 -0.4171  2.9272
    2SAPS  H11Y  244   5.347   3.405   9.232 -1.5005  2.2573  2.1341
    2SAPS  C312  245   5.558   3.424   9.147  0.4464 -0.5493 -0.3465
    2SAPS  H12X  246   5.569   3.314   9.144  0.3793 -0.5431 -1.2245
    2SAPS  H12Y  247   5.658   3.462   9.178  0.8345 -3.6819  2.7631
    2SAPS  C313  248   5.518   3.488   9.009  0.0154  0.9039 -0.1562
    2SAPS  H13X  249   5.408   3.479   8.999 -0.2017  3.5137 -0.9040
    2SAPS  H13Y  250   5.560   3.422   8.930 -0.3067 -1.1491  1.2946
    2SAPS  C314  251   5.552   3.636   8.975 -0.2034  0.4885 -0.1307
    2SAPS  H14X  252   5.663   3.644   8.968  0.0841 -1.4095  1.3987
    2SAPS  H14Y  253   5.511   3.696   9.059 -3.2303 -1.5479  0.0179
    2SAPS  C315  254   5.507   3.663   8.832 -0.3133  0.5942 -0.6731
    2SAPS  H15X  255   5.555   3.584   8.770  0.5233 -1.8919  2.8839
    2SAPS  H15Y  256   5.545   3.763   8.802 -0.3117  1.0150  0.6805
    2SAPS  C316  257   5.358   3.678   8.821  0.3755  0.6314  0.2969
    2SAPS  H16X  258   5.316   3.725   8.912 -1.8981 -1.7270  0.5805
    2SAPS  H16Y  259   5.317   3.575   8.830  2.0940  0.0467  2.5156
    2SAPS  C317  260   5.327   3.749   8.695 -0.3741  0.0317  0.4800
    2SAPS  H17X  261   5.379   3.697   8.612  0.5535 -0.1374  1.1513
    2SAPS  H17Y  262   5.353   3.857   8.701  0.8586 -0.1670 -0.7786
    2SAPS  C318  263   5.177   3.739   8.664 -1.1607  0.4833  0.1534
    2SAPS  H18X  264   5.116   3.779   8.747 -2.4598 -0.9379 -0.0735
    2SAPS  H18Y  265   5.151   3.631   8.659  2.6801 -0.6523  1.2535
    2SAPS  H18Z  266   5.153   3.783   8.565 -0.9507 -1.8507 -1.0084
    3SAPS     N  267   6.350   4.070  11.059 -0.1057  0.2541  0.0321
    3SAPS   HN1  268   6.374   4.103  11.155 -1.2838 -3.4302  1.7845
    3SAPS   HN2  269   6.438   4.034  11.017 -0.6362 -0.4859 -0.4643
    3SAPS   HN3  270   6.316   4.150  11.002 -2.6409 -1.6815 -1.4144
    3SAPS   C12  271   6.247   3.962  11.066  1.4678 -0.0090  0.8818
    3SAPS  H12A  272   6.274   3.887  11.139  0.6793 -2.5823 -1.2925
    3SAPS   C13  273   6.101   4.013  11.096 -0.4544 -0.9083 -0.4707
    3SAPS  O13A  274   6.091   4.127  11.142 -0.1825  0.0002  0.2934
    3SAPS  O13B  275   6.004   3.928  11.109  0.0905 -0.9943  0.1520
    3SAPS   C11  276   6.251   3.897  10.921 -0.0269  0.1745 -0.1549
    3SAPS  H11A  277   6.235   3.981  10.849 -0.4347  1.2499  1.1416
    3SAPS  H11B  278   6.156   3.841  10.910 -0.6677  1.4231 -1.2061
    3SAPS     P  279   6.501   3.856  10.826 -0.2508  0.1790 -0.0610
    3SAPS   O13  280   6.551   3.990  10.863  0.2459 -0.0559  0.5469
    3SAPS   O14  281   6.594   3.746  10.871  0.8806 -0.3497  0.1824
    3SAPS   O12  282   6.368   3.818  10.893  0.2971  0.7386 -0.1486
    3SAPS   O11  283   6.461   3.835  10.672 -0.1651  0.2221 -0.6294
    3SAPS    C1  284   6.445   3.949  10.584 -0.1099 -0.1196 -0.1651
    3SAPS    HA  285   6.379   3.927  10.497 -0.7244  1.4303 -0.1226
    3SAPS    HB  286   6.398   4.035  10.636 -1.3773 -2.7117  3.4682
    3SAPS    C2  287   6.583   3.989  10.533 -0.4738  0.0573  0.0616
    3SAPS    HS  288   6.653   4.002  10.618 -0.5492 -1.0390  0.3032
    3SAPS   O21  289   6.567   4.118  10.470  0.0306  0.4685  0.0210
    3SAPS   C21  290   6.673   4.190  10.443 -0.7648 -0.0653 -0.1320
    3SAPS   O22  291   6.778   4.178  10.509  0.2072 -0.2656 -0.3712
    3SAPS   C22  292   6.646   4.306  10.342  0.4134  0.1713 -0.7993
    3SAPS   H2R  293   6.558   4.281  10.279 -1.0452  1.8558  0.4826
    3SAPS   H2S  294   6.606   4.396  10.394 -2.5096  0.0674 -2.6169
    3SAPS    C3  295   6.643   3.892  10.432  0.2193  0.0976  0.1228
    3SAPS    HX  296   6.655   3.797  10.489  1.8238  1.2161  1.7892
    3SAPS    HY  297   6.749   3.915  10.407  0.6777  0.4629  2.1647
    3SAPS   O31  298   6.553   3.871  10.321 -0.4280  0.7024 -0.0687
    3SAPS   C31  299   6.587   3.945  10.220 -0.5485 -0.3799  0.3283
    3SAPS   O32  300   6.698   3.989  10.196  0.2068  0.0580  0.0102
    3SAPS   C32  301   6.464   3.951  10.122 -0.4549  0.6413  0.9673
    3SAPS   H2X  302   6.385   4.007  10.176 -1.2807  0.3874  0.0487
    3SAPS   H2Y  303   6.429   3.847  10.102  1.3009  0.0853  0.5911
    3SAPS   C23  304   6.772   4.339  10.261  0.2233 -0.3330  0.2650
    3SAPS   H3R  305   6.793   4.254  10.193  1.6472  1.6897 -1.9768
    3SAPS   H3S  306   6.865   4.347  10.322  0.1844  0.4782  0.2308
    3SAPS   C24  307   6.760   4.470  10.176  0.1352  0.3241 -0.5553
    3SAPS   H4R  308   6.729   4.552  10.245  0.2196 -1.4596  1.7321
    3SAPS   H4S  309   6.680   4.466  10.100  0.5219  0.6282 -0.9804
    3SAPS   C25  310   6.888   4.499  10.106 -0.3178  0.2017 -0.1279
    3SAPS   H5R  311   6.974   4.530  10.167 -1.0207 -1.9458  2.1184
    3SAPS   C26  312   6.924   4.462   9.981  0.6706 -0.4182  0.4623
    3SAPS   H6R  313   7.024   4.498   9.951  0.9965 -1.5521  0.1317
    3SAPS   C27  314   6.834   4.395   9.872  0.1348 -0.4117 -0.4765
    3SAPS   H7R  315   6.727   4.422   9.889 -0.6836 -4.1281  1.4542
    3SAPS   H7S  316   6.839   4.286   9.892 -1.3948 -0.2689  0.9672
    3SAPS   C28  317   6.857   4.423   9.730  1.0819  0.5231  0.3461
    3SAPS   H8R  318   6.902   4.520   9.705  0.0521  0.9583  0.1610
    3SAPS   C29  319   6.847   4.333   9.628  0.0051  0.0873  0.4518
    3SAPS   H9R  320   6.875   4.360   9.525  0.8950 -2.7232 -0.1351
    3SAPS  C210  321   6.806   4.189   9.631 -0.1482  0.3519 -1.1429
    3SAPS  H10R  322   6.711   4.181   9.575 -0.2083 -0.2500 -0.9579
    3SAPS  H10S  323   6.789   4.158   9.736 -2.1007  1.8023 -0.9772
    3SAPS  C211  324   6.909   4.091   9.585  0.3367 -0.1393 -0.4403
    3SAPS  H11R  325   6.993   4.073   9.654  0.1388 -1.3844 -0.5102
    3SAPS  C212  326   6.901   4.015   9.477  0.3178  0.0606 -0.1000
    3SAPS  H12R  327   6.978   3.939   9.455 -0.4241 -0.3865 -1.2385
    3SAPS  C213  328   6.788   4.021   9.375 -0.2251  0.0314  1.0770
    3SAPS  H13R  329   6.765   4.125   9.344 -1.2878 -0.3821  0.4536
    3SAPS  H13S  330   6.693   3.990   9.423 -0.2976  0.4135  1.1817
    3SAPS  C214  331   6.805   3.936   9.251  0.1037  0.6145 -0.0859
    3SAPS  H14R  332   6.875   3.977   9.176 -2.0575  1.8461 -1.5298
    3SAPS  C215  333   6.720   3.841   9.207  0.2302  0.8120  0.3705
    3SAPS  H15R  334   6.751   3.775   9.125 -0.5426  0.5182  0.3044
    3SAPS  C216  335   6.610   3.782   9.297 -0.3402 -0.0169 -0.0571
    3SAPS  H16R  336   6.557   3.861   9.354 -0.2151 -0.3215  0.4870
    3SAPS  H16S  337   6.669   3.716   9.363 -1.4171 -0.9528 -0.0067
    3SAPS  C217  338   6.497   3.700   9.239 -0.5020  0.0271 -0.3948
    3SAPS  H17R  339   6.448   3.772   9.170  1.4862  1.6017 -0.2897
    3SAPS  H17S  340   6.413   3.679   9.309 -0.2602  1.6902  0.4644
    3SAPS  C218  341   6.545   3.571   9.161  0.0847 -0.2633 -0.2203
    3SAPS  H18R  342   6.547   3.489   9.235 -0.1227 -1.0816 -1.1039
    3SAPS  H18S  343   6.648   3.597   9.129 -0.1061  1.2216  0.2904
    3SAPS  C219  344   6.458   3.535   9.043 -0.1196 -0.3232 -1.3517
    3SAPS  H19R  345   6.452   3.624   8.976 -1.8025  2.0758  1.6973
    3SAPS  H19S  346   6.357   3.518   9.086  0.3401 -1.5186 -0.6983
    3SAPS  C220  347   6.504   3.411   8.969 -0.3834  0.5334 -0.1221
    3SAPS  H20R  348   6.457   3.405   8.869  0.0707  1.4819 -0.3981
    3SAPS  H20S  349   6.476   3.318   9.024 -2.3707  0.4258 -1.2346
    3SAPS  H20T  350   6.614   3.409   8.956 -0.2265 -1.6388  1.0322
    3SAPS   C33  351   6.492   4.023   9.990  0.7130  0.3949  0.6195
    3SAPS   H3X  352   6.406   3.992   9.927  0.2438  0.0689  1.4078
    3SAPS   H3Y  353   6.583   3.990   9.935  1.4990  3.4708 -0.1133
    3SAPS   C34  354   6.500   4.175   9.989  0.4705 -0.6438 -0.0179
    3SAPS   H4X  355   6.596   4.208  10.033  0.1822 -2.0879  1.7812
    3SAPS   H4Y  356   6.426   4.223  10.057  0.4192  0.7298 -1.0081
    3SAPS   C35  357   6.502   4.240   9.848 -0.2857 -0.3949  0.0295
    3SAPS   H5X  358   6.605   4.235   9.806 -0.9896 -2.1116 -1.6711
    3SAPS   H5Y  359   6.481   4.349   9.858 -0.0263 -0.5843  3.9824
    3SAPS   C36  360   6.397   4.181   9.753  0.2367 -0.2594  0.3712
    3SAPS   H6X  361   6.302   4.156   9.805  0.4850 -1.7125  0.1519
    3SAPS   H6Y  362   6.459   4.096   9.719  1.5201  1.2941 -1.3808
    3SAPS   C37  363   6.349   4.279   9.641  0.3482  0.2699 -0.0688
    3SAPS   H7X  364   6.319   4.376   9.686  2.0125  0.1022  1.5130
    3SAPS   H7Y  365   6.267   4.229   9.584 -1.4597  1.5143  1.3132
    3SAPS   C38  366   6.448   4.311   9.531  0.2677  0.0759 -0.1812
    3SAPS   H8X  367   6.548   4.346   9.565 -0.0561  1.2818 -0.4211
    3SAPS   H8Y  368   6.417   4.399   9.470  2.2853  1.8629  1.2393
    3SAPS   C39  369   6.462   4.198   9.420  0.3687  0.2170  0.0590
    3SAPS   H9X  370   6.473   4.097   9.465 -0.0104  0.0701 -0.1668
    3SAPS   H9Y  371   6.557   4.206   9.364  0.9176  2.0776  1.1590
    3SAPS  C310  372   6.355   4.202   9.308  0.6775 -0.2042  0.5399
    3SAPS  H10X  373   6.348   4.297   9.251  1.9490 -1.0305 -1.0602
    3SAPS  H10Y  374   6.254   4.188   9.352  0.7528 -1.0134  0.4703
    3SAPS  C311  375   6.364   4.078   9.215  0.0840  0.4993  0.9453
    3SAPS  H11X  376   6.356   3.995   9.289  3.0656  0.5099  1.4046
    3SAPS  H11Y  377   6.460   4.048   9.168 -0.2748 -1.5673  1.4105
    3SAPS  C312  378   6.248   4.075   9.118 -0.7033  0.2375  0.0670
    3SAPS  H12X  379   6.154   4.111   9.165 -2.4042 -0.7545 -2.3392
    3SAPS  H12Y  380   6.240   3.968   9.086 -0.1993  0.2819 -0.2060
    3SAPS  C313  381   6.280   4.148   8.984 -0.3737  0.0531 -0.2321
    3SAPS  H13X  382   6.325   4.248   9.002  0.0327 -0.3880  1.3050
    3SAPS  H13Y  383   6.179   4.180   8.949 -0.6206  0.0052  0.4153
    3SAPS  C314  384   6.367   4.079   8.884  0.0001  0.4717 -0.0713
    3SAPS  H14X  385   6.466   4.045   8.922  0.5873 -0.6814 -2.4500
    3SAPS  H14Y  386   6.404   4.153   8.810  2.1895 -0.9223 -0.4664
    3SAPS  C315  387   6.290   3.963   8.816 -0.0481 -1.0645  0.1402
    3SAPS  H15X  388   6.207   4.008   8.758 -0.1493 -0.9745  0.3520
    3SAPS  H15Y  389   6.234   3.903   8.891 -0.3786 -0.0672  0.7107
    3SAPS  C316  390   6.389   3.874   8.736 -0.4080  0.6317 -0.2716
    3SAPS  H16X  391   6.461   3.846   8.815 -2.2467  0.4647  1.4320
    3SAPS  H16Y  392   6.447   3.937   8.665  0.4052  0.2447  0.0383
    3SAPS  C317  393   6.341   3.746   8.664 -0.3047  0.0779 -0.2055
    3SAPS  H17X  394   6.254   3.775   8.602 -0.2731  1.9770  0.5791
    3SAPS  H17Y  395   6.322   3.670   8.743 -2.1021  1.8961  1.2094
    3SAPS  C318  396   6.455   3.690   8.577 -0.0774  0.0678 -0.3555
    3SAPS  H18X  397   6.428   3.598   8.522  0.8187 -0.6390  0.3475
    3SAPS  H18Y  398   6.541   3.677   8.647  0.9350 -0.0013 -1.5687
    3SAPS  H18Z  399   6.500   3.771   8.515  0.4194  1.1456  1.3224
    4SAPS     N  400   3.566   6.774  11.014 -0.6515 -0.1922 -0.1825
    4SAPS   HN1  401   3.493   6.816  10.953  0.9953 -0.3449 -2.3914
    4SAPS   HN2  402   3.543   6.783  11.115  0.2427 -1.2477  0.1407
    4SAPS   HN3  403   3.658   6.818  10.991 -0.9887  0.6554  0.0658
    4SAPS   C12  404   3.556   6.636  10.958  0.4472 -0.2092  0.5746
    4SAPS  H12A  405   3.624   6.576  11.017 -1.6619  0.4033  3.8328
    4SAPS   C13  406   3.410   6.587  10.963 -0.1948  0.5394 -0.2386
    4SAPS  O13A  407   3.317   6.642  11.032 -0.4424  0.1295 -0.0833
    4SAPS  O13B  408   3.383   6.471  10.909  0.0553 -0.0736 -0.0294
    4SAPS   C11  409   3.585   6.648  10.810 -0.2859 -0.0708  0.1377
    4SAPS  H11A  410   3.504   6.704  10.757 -1.4935 -1.3601  0.5868
    4SAPS  H11B  411   3.593   6.545  10.771  1.3334  0.4714 -1.0963
    4SAPS     P  412   3.758   6.806  10.674  0.2339  0.0757 -0.1128
    4SAPS   O13  413   3.709   6.941  10.707 -0.1685  0.5785  0.2232
    4SAPS   O14  414   3.901   6.795  10.636  0.0974 -0.0863  0.0317
    4SAPS   O12  415   3.717   6.704  10.789  0.1034 -0.0836 -0.2399
    4SAPS   O11  416   3.673   6.747  10.556  0.0440  0.0011  0.6365
    4SAPS    C1  417   3.698   6.627  10.489  0.1256  0.3704  0.4815
    4SAPS    HA  418   3.806   6.602  10.477 -0.2219  0.2485 -3.5377
    4SAPS    HB  419   3.668   6.538  10.549  1.4623 -0.1002  0.4932
    4SAPS    C2  420   3.629   6.619  10.346 -1.0078  0.0341 -0.1470
    4SAPS    HS  421   3.606   6.511  10.329  0.9694 -0.1306 -2.2641
    4SAPS   O21  422   3.714   6.672  10.244 -0.0402 -0.5232  0.0953
    4SAPS   C21  423   3.739   6.598  10.142  0.4643  0.1945  0.0694
    4SAPS   O22  424   3.679   6.493  10.113  0.2813 -0.1480  0.1517
    4SAPS   C22  425   3.850   6.668  10.061 -0.0951  0.8515 -0.4266
    4SAPS   H2R  426   3.792   6.739   9.998 -2.2119  1.2380  1.8038
    4SAPS   H2S  427   3.912   6.724  10.134  0.0687  1.8459 -1.3036
    4SAPS    C3  428   3.496   6.686  10.339 -0.4362 -0.3311 -0.5536
    4SAPS    HX  429   3.503   6.795  10.360 -2.9275  0.0328 -1.1985
    4SAPS    HY  430   3.434   6.656  10.427  0.7514 -0.8220  0.1388
    4SAPS   O31  431   3.434   6.674  10.207  0.5767  0.2281 -0.0853
    4SAPS   C31  432   3.361   6.568  10.188 -0.4524  0.7531  0.1688
    4SAPS   O32  433   3.343   6.479  10.269  0.3259 -0.3199 -0.3414
    4SAPS   C32  434   3.307   6.567  10.039 -0.2121 -0.1316 -0.9618
    4SAPS   H2X  435   3.398   6.558   9.974  0.2574 -0.6970 -0.2387
    4SAPS   H2Y  436   3.269   6.669  10.021  2.7060  1.3957  0.8870
    4SAPS   C23  437   3.948   6.581   9.983 -0.0397  0.5995  0.2244
    4SAPS   H3R  438   3.998   6.508  10.050  0.4763  0.6472 -0.1045
    4SAPS   H3S  439   4.033   6.649   9.958 -1.0061  2.4055  1.6110
    4SAPS   C24  440   3.881   6.519   9.861 -0.3451  0.2785  0.2332
    4SAPS   H4R  441   3.798   6.449   9.885 -0.4071  0.7426  1.4406
    4SAPS   H4S  442   3.953   6.449   9.813 -0.4782  0.0236  0.3990
    4SAPS   C25  443   3.835   6.625   9.763 -0.0833  0.9418 -0.5500
    4SAPS   H5R  444   3.836   6.732   9.789 -0.0594  1.0878 -1.1329
    4SAPS   C26  445   3.796   6.606   9.634  0.3381  0.8000 -0.2447
    4SAPS   H6R  446   3.762   6.693   9.577 -0.2375  0.8056  0.0969
    4SAPS   C27  447   3.802   6.467   9.570  0.2705 -0.5386 -0.1214
    4SAPS   H7R  448   3.841   6.384   9.632  1.5293 -0.2301 -0.4760
    4SAPS   H7S  449   3.869   6.480   9.483 -1.0355  0.7552 -0.9832
    4SAPS   C28  450   3.668   6.414   9.530  0.0578  0.3390  0.3329
    4SAPS   H8R  451   3.598   6.382   9.609 -0.2167 -1.9315 -0.7338
    4SAPS   C29  452   3.631   6.402   9.403 -0.2511 -0.9053  0.4763
    4SAPS   H9R  453   3.534   6.358   9.377 -1.0253  0.0613  1.5901
    4SAPS  C210  454   3.702   6.449   9.277  0.6370  0.5747 -1.3987
    4SAPS  H10R  455   3.809   6.474   9.292  0.4465  0.9804 -0.6329
    4SAPS  H10S  456   3.669   6.551   9.247 -2.0609  0.7020  1.4843
    4SAPS  C211  457   3.685   6.343   9.171 -0.3402 -0.1872 -0.1263
    4SAPS  H11R  458   3.746   6.252   9.183 -0.8934 -0.5378  0.0818
    4SAPS  C212  459   3.601   6.350   9.065 -0.6569 -1.1643 -0.1888
    4SAPS  H12R  460   3.595   6.264   8.996 -1.4911 -1.2145 -0.0588
    4SAPS  C213  461   3.498   6.466   9.038  0.2926  0.5010  0.1126
    4SAPS  H13R  462   3.551   6.561   9.019  0.8981  0.1273 -0.0951
    4SAPS  H13S  463   3.447   6.471   9.137  0.2378  1.4326  0.0453
    4SAPS  C214  464   3.389   6.438   8.940 -0.4155  0.4467  0.2869
    4SAPS  H14R  465   3.303   6.403   8.999 -0.1410  1.1512  1.1316
    4SAPS  C215  466   3.391   6.436   8.805 -0.4103  0.0370  0.0798
    4SAPS  H15R  467   3.300   6.401   8.755  0.3742 -1.7877 -0.1592
    4SAPS  C216  468   3.511   6.465   8.714  0.3738 -0.4589 -0.3337
    4SAPS  H16R  469   3.548   6.379   8.653  1.0510 -0.8972  0.6734
    4SAPS  H16S  470   3.601   6.498   8.769 -1.3064  1.4835  1.4003
    4SAPS  C217  471   3.470   6.583   8.619  0.4015 -0.3433 -0.3495
    4SAPS  H17R  472   3.447   6.662   8.693 -3.3120 -1.3707 -0.2490
    4SAPS  H17S  473   3.379   6.547   8.567  2.2033 -0.8949 -3.3726
    4SAPS  C218  474   3.575   6.629   8.513 -0.7136  0.2456  0.0783
    4SAPS  H18R  475   3.666   6.644   8.574  0.5680  2.4128 -2.1306
    4SAPS  H18S  476   3.559   6.732   8.473  2.0267  0.3434 -0.9497
    4SAPS  C219  477   3.587   6.536   8.393 -1.0870  0.3368 -0.0874
    4SAPS  H19R  478   3.503   6.530   8.321  0.3036  1.5741 -1.8943
    4SAPS  H19S  479   3.611   6.434   8.431 -0.4365  0.0047 -1.3341
    4SAPS  C220  480   3.712   6.567   8.302  0.0528 -0.0187 -0.2378
    4SAPS  H20R  481   3.698   6.668   8.258 -0.9825  0.1981  0.5631
    4SAPS  H20S  482   3.694   6.489   8.225  1.9954 -1.5980  0.7958
    4SAPS  H20T  483   3.809   6.551   8.355 -0.7606 -0.1961  1.2454
    4SAPS   C33  484   3.215   6.450   9.998  0.0366  0.1231  0.1772
    4SAPS   H3X  485   3.109   6.482  10.005 -0.2898 -0.5020 -1.4329
    4SAPS   H3Y  486   3.211   6.365  10.071  2.2780  2.4470  3.2746
    4SAPS   C34  487   3.228   6.431   9.847  0.0944  0.6195 -0.4165
    4SAPS   H4X  488   3.325   6.395   9.807 -0.2347 -0.0487 -0.6206
    4SAPS   H4Y  489   3.203   6.523   9.790 -1.5583  0.5859  0.1990
    4SAPS   C35  490   3.119   6.331   9.800 -0.4414 -0.3842 -0.4510
    4SAPS   H5X  491   3.018   6.333   9.846 -0.6764 -4.0148 -0.5154
    4SAPS   H5Y  492   3.158   6.228   9.812  3.0851  0.7143 -1.4207
    4SAPS   C36  493   3.107   6.335   9.650 -0.0057 -0.3124  0.1663
    4SAPS   H6X  494   3.036   6.415   9.618  0.1550  0.3443  1.3925
    4SAPS   H6Y  495   3.059   6.240   9.617  2.2469 -0.9461 -1.5552
    4SAPS   C37  496   3.238   6.353   9.565  0.3920 -0.1509  0.0615
    4SAPS   H7X  497   3.302   6.264   9.585 -0.3465 -0.4151  1.3540
    4SAPS   H7Y  498   3.298   6.445   9.583  1.5999 -0.4448 -2.0731
    4SAPS   C38  499   3.203   6.341   9.414  0.0513 -0.0245  0.4327
    4SAPS   H8X  500   3.297   6.349   9.355 -1.5313 -2.7153 -2.7790
    4SAPS   H8Y  501   3.139   6.426   9.381  0.5268  0.3809  0.5386
    4SAPS   C39  502   3.155   6.206   9.364 -0.8073 -0.4481 -0.0034
    4SAPS   H9X  503   3.046   6.190   9.380 -0.5591  0.2068  2.7726
    4SAPS   H9Y  504   3.205   6.123   9.418 -2.3027 -1.0400  0.5307
    4SAPS  C310  505   3.184   6.188   9.211 -0.1049 -0.2241 -1.2279
    4SAPS  H10X  506   3.294   6.200   9.199  0.0313 -0.5010 -0.3609
    4SAPS  H10Y  507   3.135   6.260   9.142  0.2333 -2.3921 -3.8731
    4SAPS  C311  508   3.133   6.052   9.164  1.0803  0.2510  0.3386
    4SAPS  H11X  509   3.022   6.051   9.175  1.0583  1.0166  0.2208
    4SAPS  H11Y  510   3.176   5.986   9.242 -0.4714 -0.4154  0.6647
    4SAPS  C312  511   3.181   6.010   9.023  0.2147 -0.1172  0.7083
    4SAPS  H12X  512   3.128   5.917   8.994  1.8303 -1.3677  1.5880
    4SAPS  H12Y  513   3.284   5.971   9.036  0.4800 -0.7262 -2.4431
    4SAPS  C313  514   3.175   6.114   8.911  0.3420  0.8894  0.1593
    4SAPS  H13X  515   3.213   6.210   8.951  1.8110 -0.5406  2.4088
    4SAPS  H13Y  516   3.067   6.135   8.900  0.2223 -0.3624 -1.3512
    4SAPS  C314  517   3.254   6.060   8.784 -0.0193 -0.5359  0.2059
    4SAPS  H14X  518   3.345   6.020   8.834  0.8280  1.1934  0.1560
    4SAPS  H14Y  519   3.284   6.147   8.721  0.5737 -0.7429  0.1921
    4SAPS  C315  520   3.176   5.969   8.687  0.1771  0.0140 -0.5395
    4SAPS  H15X  521   3.132   5.888   8.749  0.3461 -0.1591 -0.6433
    4SAPS  H15Y  522   3.247   5.923   8.615 -0.2521 -3.4676  1.0436
    4SAPS  C316  523   3.051   6.042   8.615 -0.0513 -0.1759  0.6472
    4SAPS  H16X  524   3.084   6.116   8.540  0.0283 -2.8374 -2.1344
    4SAPS  H16Y  525   3.002   6.099   8.697 -0.4359  0.2616  0.1154
    4SAPS  C317  526   2.957   5.961   8.527  0.6377  0.0390 -0.3122
    4SAPS  H17X  527   2.855   6.005   8.521 -0.4905 -2.5681 -1.8454
    4SAPS  H17Y  528   2.937   5.862   8.574 -0.4135  0.6746  0.6258
    4SAPS  C318  529   3.007   5.917   8.393  0.4262  0.1533 -0.5016
    4SAPS  H18X  530   2.942   5.836   8.352  3.2636 -2.5097 -0.1407
    4SAPS  H18Y  531   3.108   5.871   8.391  0.1655 -0.5479  1.1618
    4SAPS  H18Z  532   3.010   5.991   8.310  0.9625 -3.4300 -4.0301
    5SAPS     N  533   4.966   4.845  10.952  0.0047  0.3877  0.6461
    5SAPS   HN1  534   4.979   4.825  10.851  2.3093 -0.3424  1.0138
    5SAPS   HN2  535   4.912   4.771  11.002 -2.0807  1.9621  0.8064
    5SAPS   HN3  536   4.910   4.932  10.946 -1.4122 -0.5461 -0.2461
    5SAPS   C12  537   5.097   4.883  11.011 -0.0878  1.1137  0.1513
    5SAPS  H12A  538   5.071   4.909  11.112  0.4499  3.4329 -0.2631
    5SAPS   C13  539   5.214   4.784  11.032  0.9524 -0.3193  0.8752
    5SAPS  O13A  540   5.204   4.661  10.991 -0.1570  0.3249  0.1622
    5SAPS  O13B  541   5.299   4.808  11.120 -0.2784 -0.5359 -0.0821
    5SAPS   C11  542   5.137   5.001  10.919  0.0798 -1.1025  0.7747
    5SAPS  H11A  543   5.175   4.962  10.822 -1.6172 -0.2598 -0.2781
    5SAPS  H11B  544   5.218   5.053  10.974 -0.8998 -0.3490  1.5556
    5SAPS     P  545   5.063   5.229  10.821  0.0365  0.1837  0.0561
    5SAPS   O13  546   4.939   5.308  10.824  0.0622 -0.6092  0.1015
    5SAPS   O14  547   5.186   5.284  10.878 -0.3549 -0.7113  0.1341
    5SAPS   O12  548   5.035   5.094  10.899  0.6904 -0.0778 -0.4252
    5SAPS   O11  549   5.086   5.167  10.674  0.2548 -0.0825 -0.6002
    5SAPS    C1  550   4.970   5.149  10.590  1.0154  0.6084 -0.0950
    5SAPS    HA  551   4.886   5.082  10.620 -1.8546  1.9691 -4.1319
    5SAPS    HB  552   4.931   5.250  10.563 -1.8255 -0.6077 -0.8869
    5SAPS    C2  553   5.011   5.087  10.457 -0.4756 -0.2233 -0.0556
    5SAPS    HS  554   5.041   4.981  10.474 -1.8421 -0.4345  1.1827
    5SAPS   O21  555   5.123   5.157  10.406 -0.0104  0.2666 -0.2837
    5SAPS   C21  556   5.198   5.091  10.314 -0.4951  0.1161  0.5766
    5SAPS   O22  557   5.198   4.974  10.285  0.0165 -0.1614  0.2897
    5SAPS   C22  558   5.276   5.197  10.228 -0.0817  0.5960  0.8179
    5SAPS   H2R  559   5.208   5.268  10.175  1.8438 -0.2467 -3.1598
    5SAPS   H2S  560   5.337   5.252  10.303  4.7120 -1.1638 -1.3645
    5SAPS    C3  561   4.901   5.095  10.348 -0.4453 -0.6392 -0.2304
    5SAPS    HX  562   4.901   5.202  10.317 -5.3683 -0.6420 -1.0611
    5SAPS    HY  563   4.799   5.083  10.390  0.8008  1.3294  3.8386
    5SAPS   O31  564   4.923   5.000  10.244 -0.0040  0.5629  0.1465
    5SAPS   C31  565   4.885   5.033  10.123 -0.5060 -0.6744  0.3588
    5SAPS   O32  566   4.828   5.137  10.094  0.4785  0.1165  0.1623
    5SAPS   C32  567   4.941   4.923  10.020 -0.1480  0.1936  0.8011
    5SAPS   H2X  568   4.890   4.827  10.041  0.1139  0.2528  1.7632
    5SAPS   H2Y  569   5.050   4.919  10.042  0.2803  1.2105 -0.9132
    5SAPS   C23  570   5.385   5.127  10.141 -0.2650  0.0090 -0.4463
    5SAPS   H3R  571   5.333   5.040  10.096 -0.8179 -0.2916  0.7335
    5SAPS   H3S  572   5.465   5.076  10.199  1.3451  1.2754 -1.4476
    5SAPS   C24  573   5.447   5.217  10.035 -0.2717 -0.2194  0.0215
    5SAPS   H4R  574   5.523   5.156   9.980  0.4672  0.3208  0.4340
    5SAPS   H4S  575   5.506   5.302  10.074  0.6096 -0.5430 -0.5745
    5SAPS   C25  576   5.358   5.270   9.925 -0.8080 -0.3969  0.3371
    5SAPS   H5R  577   5.286   5.345   9.959  1.3862  1.5798  0.9013
    5SAPS   C26  578   5.376   5.264   9.791  0.3232  0.7487 -0.4382
    5SAPS   H6R  579   5.292   5.301   9.729  1.6814  0.8327 -2.3116
    5SAPS   C27  580   5.483   5.190   9.714  0.2523  0.1208 -0.2225
    5SAPS   H7R  581   5.440   5.138   9.625 -0.8549  1.1376 -0.3153
    5SAPS   H7S  582   5.526   5.106   9.772 -0.3118  0.7031  1.0616
    5SAPS   C28  583   5.596   5.276   9.676  0.0172 -0.3093 -0.4407
    5SAPS   H8R  584   5.635   5.329   9.763  0.3302 -1.7676  0.3460
    5SAPS   C29  585   5.654   5.291   9.560  0.5314 -0.8421  1.0892
    5SAPS   H9R  586   5.737   5.363   9.559  0.4703 -0.7535 -0.4285
    5SAPS  C210  587   5.622   5.227   9.429 -0.0614 -0.6535  0.1472
    5SAPS  H10R  588   5.517   5.191   9.429 -0.5227  0.5594 -1.4009
    5SAPS  H10S  589   5.695   5.147   9.405  2.8371  2.0586 -0.7443
    5SAPS  C211  590   5.636   5.331   9.328  0.2719  0.0931  0.1701
    5SAPS  H11R  591   5.623   5.435   9.362  0.1353 -0.5041  2.0258
    5SAPS  C212  592   5.638   5.299   9.199  0.5780 -0.4973  0.4647
    5SAPS  H12R  593   5.645   5.382   9.127 -1.2637  1.0043  1.8938
    5SAPS  C213  594   5.630   5.163   9.136  0.4201 -0.1012  0.8236
    5SAPS  H13R  595   5.669   5.085   9.205  0.1952 -1.9078 -0.9966
    5SAPS  H13S  596   5.699   5.159   9.048 -1.5238 -0.8423 -0.7379
    5SAPS  C214  597   5.487   5.137   9.100 -0.1504 -0.5341  0.2356
    5SAPS  H14R  598   5.425   5.096   9.181  0.5783  0.7316  1.4772
    5SAPS  C215  599   5.430   5.116   8.979 -0.0587 -0.6384  0.1884
    5SAPS  H15R  600   5.321   5.100   8.978 -0.0763 -0.6373  1.1355
    5SAPS  C216  601   5.498   5.122   8.847 -0.9352 -0.7161 -0.4029
    5SAPS  H16R  602   5.609   5.124   8.849 -0.9406  0.9456  1.6513
    5SAPS  H16S  603   5.472   5.219   8.800 -0.9981 -0.1872  0.6961
    5SAPS  C217  604   5.466   4.991   8.760 -0.0373 -0.2516 -0.1771
    5SAPS  H17R  605   5.356   4.988   8.749  0.0697  1.0399 -2.0272
    5SAPS  H17S  606   5.499   4.903   8.819  1.8069  0.3659 -0.2205
    5SAPS  C218  607   5.537   4.996   8.620 -0.1907 -0.2495 -0.0475
    5SAPS  H18R  608   5.499   5.088   8.571  0.2938 -0.3231 -0.5629
    5SAPS  H18S  609   5.647   5.004   8.637 -0.3976  0.9942  0.8596
    5SAPS  C219  610   5.508   4.868   8.541  0.1394  0.4085 -0.0568
    5SAPS  H19R  611   5.405   4.854   8.505  0.8259  0.1522 -2.0187
    5SAPS  H19S  612   5.542   4.788   8.611  0.0150  0.2190 -0.2127
    5SAPS  C220  613   5.587   4.861   8.414  0.2748 -0.3318  0.1736
    5SAPS  H20R  614   5.552   4.943   8.348  0.4098 -1.2192 -1.0371
    5SAPS  H20S  615   5.571   4.776   8.344  0.6632  0.8307 -1.3929
    5SAPS  H20T  616   5.695   4.869   8.436  0.6670  3.2348 -2.2211
    5SAPS   C33  617   4.931   4.977   9.876 -0.0200  0.3631 -0.6180
    5SAPS   H3X  618   4.828   5.012   9.852 -0.1243  0.6125  0.1857
    5SAPS   H3Y  619   4.958   4.892   9.809  0.2028 -0.3843  0.4091
    5SAPS   C34  620   5.017   5.097   9.835  0.7029  0.2381  0.0255
    5SAPS   H4X  621   5.124   5.072   9.844  0.6096  0.1260  0.9552
    5SAPS   H4Y  622   4.993   5.190   9.891 -0.7834 -0.1410  0.0847
    5SAPS   C35  623   4.996   5.134   9.683  0.5472 -0.6205 -0.1202
    5SAPS   H5X  624   5.074   5.211   9.667  1.7768 -1.2174  2.4909
    5SAPS   H5Y  625   4.895   5.178   9.666  0.3648 -0.5943  0.9578
    5SAPS   C36  626   5.017   5.012   9.590 -0.5894 -0.0443 -0.0799
    5SAPS   H6X  627   4.933   4.940   9.595 -1.1501  0.6235  0.3012
    5SAPS   H6Y  628   5.108   4.959   9.626  0.3637  0.6171 -1.4162
    5SAPS   C37  629   5.030   5.054   9.446  0.6920 -0.4094 -0.4386
    5SAPS   H7X  630   5.125   5.107   9.427  1.4338 -1.7503 -0.6263
    5SAPS   H7Y  631   4.946   5.124   9.427  1.9662  1.4953  0.6686
    5SAPS   C38  632   5.014   4.943   9.345 -0.3725  0.5732  0.4405
    5SAPS   H8X  633   4.913   4.897   9.348 -0.1877  0.1367 -0.0519
    5SAPS   H8Y  634   5.090   4.863   9.355 -0.1063  0.7181 -0.3534
    5SAPS   C39  635   5.021   5.000   9.199  0.0797  0.1741  0.8447
    5SAPS   H9X  636   5.124   5.039   9.180 -0.4304  2.6641  2.6699
    5SAPS   H9Y  637   4.947   5.083   9.188  1.6720  1.6777  0.9489
    5SAPS  C310  638   5.004   4.895   9.080  0.1684 -0.2090  0.4299
    5SAPS  H10X  639   4.900   4.856   9.081  0.5132 -1.1443  0.7409
    5SAPS  H10Y  640   5.069   4.810   9.110  0.3092  0.4972  2.2537
    5SAPS  C311  641   5.035   4.951   8.948 -0.1416 -0.2768  0.5563
    5SAPS  H11X  642   5.144   4.971   8.937 -0.2223 -0.2347 -0.2306
    5SAPS  H11Y  643   4.972   5.042   8.940 -1.0258 -0.5082  3.5775
    5SAPS  C312  644   4.993   4.862   8.832  0.0571  0.0188 -0.5773
    5SAPS  H12X  645   4.883   4.849   8.836 -0.1558  1.2155 -1.9144
    5SAPS  H12Y  646   5.046   4.765   8.843  2.6989  1.4128 -0.0783
    5SAPS  C313  647   5.031   4.913   8.699  0.8488 -0.1244  0.2469
    5SAPS  H13X  648   5.124   4.973   8.691  0.8065  0.5302  3.4758
    5SAPS  H13Y  649   4.961   4.993   8.665  0.4992  0.4047  2.1288
    5SAPS  C314  650   5.029   4.801   8.601  0.4776 -0.3219  0.5855
    5SAPS  H14X  651   4.931   4.759   8.573  1.3400 -0.0512 -3.4300
    5SAPS  H14Y  652   5.081   4.713   8.645 -0.6036 -1.3722 -0.1782
    5SAPS  C315  653   5.079   4.835   8.465 -0.8350  0.1802 -1.0946
    5SAPS  H15X  654   5.184   4.864   8.482 -0.5315 -0.4952 -1.7851
    5SAPS  H15Y  655   5.033   4.921   8.411 -0.2334  2.2830  1.5598
    5SAPS  C316  656   5.087   4.700   8.385 -0.4159  0.1178 -0.1561
    5SAPS  H16X  657   4.982   4.673   8.359 -1.3886  3.4916 -0.2159
    5SAPS  H16Y  658   5.138   4.629   8.454  0.1433  0.1152 -0.5623
    5SAPS  C317  659   5.162   4.703   8.246  0.0267  0.2985 -0.6448
    5SAPS  H17X  660   5.269   4.714   8.273 -0.1708  0.2561  0.1947
    5SAPS  H17Y  661   5.120   4.787   8.187 -1.5282  1.6983  2.2501
    5SAPS  C318  662   5.146   4.573   8.171  0.3967  1.4118 -0.3981
    5SAPS  H18X  663   5.193   4.491   8.228  2.2088  1.9252 -1.0869
    5SAPS  H18Y  664   5.194   4.585   8.071  0.5328 -1.4152 -0.7517
    5SAPS  H18Z  665   5.042   4.542   8.145  2.0509 -2.2350 -3.7240
    6SAPS     N  666   5.040   4.440  10.890  0.4379 -0.7212 -0.1546
    6SAPS   HN1  667   5.031   4.481  10.795  1.5471  0.3464  0.1760
    6SAPS   HN2  668   5.081   4.519  10.944 -1.5351  1.1263 -1.2313
    6SAPS   HN3  669   5.107   4.361  10.881  0.4577 -0.6832 -0.3414
    6SAPS   C12  670   4.909   4.396  10.944  0.5153 -0.2122 -0.3260
    6SAPS  H12A  671   4.932   4.311  11.006 -0.5113 -0.8301 -0.7835
    6SAPS   C13  672   4.831   4.497  11.036 -0.5620 -0.4307 -0.4642
    6SAPS  O13A  673   4.881   4.612  11.060 -0.3909 -0.2006 -0.2421
    6SAPS  O13B  674   4.729   4.461  11.101  0.0237  0.5004  0.4970
    6SAPS   C11  675   4.825   4.351  10.828 -0.3137  0.1681  0.3270
    6SAPS  H11A  676   4.781   4.430  10.763  1.3045 -0.3138 -1.4414
    6SAPS  H11B  677   4.736   4.301  10.873 -0.1108 -2.8511 -2.2778
    6SAPS     P  678   4.863   4.101  10.752  0.2385  0.3192  0.1870
    6SAPS   O13  679   4.963   4.036  10.660 -0.0086 -0.0283 -0.7829
    6SAPS   O14  680   4.860   4.053  10.895  0.1453 -0.0378  0.1685
    6SAPS   O12  681   4.884   4.258  10.734 -0.9971  0.1751  0.5393
    6SAPS   O11  682   4.718   4.088  10.691 -0.1216  0.3184 -0.0382
    6SAPS    C1  683   4.644   4.193  10.621  0.1909 -0.7080  0.4280
    6SAPS    HA  684   4.588   4.247  10.700 -1.5472 -1.7400 -0.0447
    6SAPS    HB  685   4.715   4.259  10.567  1.5064 -0.5877  2.2144
    6SAPS    C2  686   4.553   4.141  10.510  0.0273  0.5419 -0.2636
    6SAPS    HS  687   4.497   4.051  10.542  0.3677 -0.4079 -2.1895
    6SAPS   O21  688   4.629   4.101  10.400  0.0247 -0.3103 -0.3523
    6SAPS   C21  689   4.720   4.004  10.409 -0.6375 -0.3079 -0.2245
    6SAPS   O22  690   4.709   3.904  10.475  0.7771 -0.3310 -0.3814
    6SAPS   C22  691   4.822   4.026  10.295  0.1144  0.9804 -0.4234
    6SAPS   H2R  692   4.773   4.065  10.203  1.1775 -1.8822 -2.3474
    6SAPS   H2S  693   4.898   4.085  10.351 -0.4614  0.3480  1.0824
    6SAPS    C3  694   4.446   4.247  10.466 -0.4202  0.1074  0.4381
    6SAPS    HX  695   4.518   4.331  10.457  1.1974 -1.4052 -2.5114
    6SAPS    HY  696   4.379   4.255  10.554 -1.9448 -0.9143 -0.5734
    6SAPS   O31  697   4.382   4.210  10.339  0.6729 -0.4540 -0.7980
    6SAPS   C31  698   4.401   4.296  10.237 -0.7007  0.2512 -0.5791
    6SAPS   O32  699   4.470   4.394  10.247  0.3639 -0.3501 -0.4333
    6SAPS   C32  700   4.322   4.247  10.113 -0.4041  0.3245 -0.0300
    6SAPS   H2X  701   4.218   4.271  10.143 -1.5372 -3.9475  0.1418
    6SAPS   H2Y  702   4.342   4.138  10.103 -0.1118  0.2709  0.9939
    6SAPS   C23  703   4.893   3.896  10.250  0.0677 -0.6380 -0.3441
    6SAPS   H3R  704   4.914   3.833  10.339  0.0405 -0.8787 -0.5064
    6SAPS   H3S  705   4.990   3.914  10.200 -0.6285  0.4592 -1.3603
    6SAPS   C24  706   4.807   3.819  10.158  0.8277 -0.2728 -0.7492
    6SAPS   H4R  707   4.783   3.890  10.075  1.5674 -0.2431 -0.9475
    6SAPS   H4S  708   4.711   3.794  10.208  0.5645 -0.5508 -1.3741
    6SAPS   C25  709   4.874   3.694  10.107  0.0822  0.0152  0.1615
    6SAPS   H5R  710   4.917   3.638  10.192 -1.7738 -1.0527  0.4498
    6SAPS   C26  711   4.894   3.661   9.973 -0.1998 -0.1942 -0.4041
    6SAPS   H6R  712   4.935   3.560   9.964  0.0873 -0.0623 -0.5974
    6SAPS   C27  713   4.862   3.733   9.850 -0.1409 -0.5157  0.3044
    6SAPS   H7R  714   4.777   3.804   9.865  0.7940  0.7230 -0.0479
    6SAPS   H7S  715   4.806   3.667   9.780  0.2457  0.9059 -1.4188
    6SAPS   C28  716   4.971   3.808   9.781 -0.4835 -0.1798  0.5795
    6SAPS   H8R  717   5.003   3.906   9.820  0.2272 -0.2379  0.1582
    6SAPS   C29  718   5.048   3.758   9.678 -0.5518  0.2408  0.4107
    6SAPS   H9R  719   5.129   3.822   9.640  0.4172 -0.8714  0.5596
    6SAPS  C210  720   5.024   3.628   9.614 -0.3572  0.6507  0.6361
    6SAPS  H10R  721   4.995   3.558   9.696  0.7821 -1.5126 -0.7169
    6SAPS  H10S  722   5.115   3.591   9.563 -0.8519  0.6357 -0.2479
    6SAPS  C211  723   4.913   3.641   9.509  0.3727 -0.6746 -0.0110
    6SAPS  H11R  724   4.829   3.696   9.554  1.4273 -0.0847  1.3013
    6SAPS  C212  725   4.907   3.601   9.380 -0.1052  0.5745 -0.1124
    6SAPS  H12R  726   4.816   3.617   9.321 -1.8030 -1.7861  1.6421
    6SAPS  C213  727   5.018   3.523   9.313 -0.7498  0.5043 -0.1939
    6SAPS  H13R  728   4.976   3.420   9.308 -1.1776  0.7014 -0.7330
    6SAPS  H13S  729   5.115   3.517   9.366  0.2431  1.5604 -1.8201
    6SAPS  C214  730   5.042   3.581   9.178  0.3430 -0.4312 -0.0696
    6SAPS  H14R  731   5.114   3.664   9.177 -0.2697  0.1111 -0.1269
    6SAPS  C215  732   4.994   3.547   9.050 -0.1098  0.0472 -0.3383
    6SAPS  H15R  733   5.018   3.617   8.969 -1.2100 -0.6811 -1.3127
    6SAPS  C216  734   4.896   3.437   9.016 -1.6179 -0.8703 -0.2475
    6SAPS  H16R  735   4.792   3.471   8.998 -0.9112  0.8581 -1.3292
    6SAPS  H16S  736   4.895   3.376   9.108  1.3770 -0.7136 -0.0123
    6SAPS  C217  737   4.965   3.363   8.899 -0.2508 -0.2344  0.2633
    6SAPS  H17R  738   4.922   3.261   8.891  3.7535 -2.2411  1.7634
    6SAPS  H17S  739   5.074   3.346   8.913 -0.1071 -0.0906 -0.5774
    6SAPS  C218  740   4.947   3.426   8.755 -0.2404  0.2357  0.0509
    6SAPS  H18R  741   4.992   3.528   8.754 -1.6205  0.8925  1.0467
    6SAPS  H18S  742   4.840   3.448   8.732 -0.2401  0.3222  0.1355
    6SAPS  C219  743   5.004   3.349   8.631 -0.1079 -0.2323 -0.1228
    6SAPS  H19R  744   4.971   3.413   8.547  0.6120  0.3189  0.0029
    6SAPS  H19S  745   4.963   3.247   8.616  1.5427 -0.6973 -1.7924
    6SAPS  C220  746   5.158   3.335   8.631  0.1615 -0.6907 -0.5602
    6SAPS  H20R  747   5.211   3.432   8.626  1.6717 -1.4902 -0.4790
    6SAPS  H20S  748   5.194   3.289   8.537  0.1092 -0.1348 -0.8539
    6SAPS  H20T  749   5.197   3.270   8.713  0.0178 -0.2349 -0.1265
    6SAPS   C33  750   4.362   4.335   9.996 -0.0629  0.4118 -0.0101
    6SAPS   H3X  751   4.472   4.331   9.976 -0.0354 -0.3419  0.2709
    6SAPS   H3Y  752   4.355   4.442  10.025  1.9714  0.2824  1.1899
    6SAPS   C34  753   4.281   4.302   9.864 -0.0812 -0.3037  0.1457
    6SAPS   H4X  754   4.177   4.338   9.880 -0.2855 -1.8209  2.7585
    6SAPS   H4Y  755   4.299   4.193   9.858  0.5586 -0.2699  1.2379
    6SAPS   C35  756   4.355   4.370   9.753 -0.0538  0.0165 -0.0882
    6SAPS   H5X  757   4.462   4.342   9.745  0.1562  1.2883 -3.8254
    6SAPS   H5Y  758   4.353   4.481   9.767 -0.3860 -0.2614  2.5010
    6SAPS   C36  759   4.302   4.329   9.611 -0.2305 -0.4841 -0.6702
    6SAPS   H6X  760   4.196   4.354   9.591  0.2594  1.0383 -1.5559
    6SAPS   H6Y  761   4.310   4.218   9.610  0.7021 -0.4255 -1.9839
    6SAPS   C37  762   4.386   4.377   9.496 -0.6311 -0.4285  0.0131
    6SAPS   H7X  763   4.493   4.352   9.504 -0.6251  0.2405  3.4334
    6SAPS   H7Y  764   4.384   4.488   9.496  1.4091 -0.3410  1.3754
    6SAPS   C38  765   4.321   4.318   9.361 -0.5380 -0.1975 -0.1435
    6SAPS   H8X  766   4.221   4.365   9.350 -0.8702 -0.9811 -0.6313
    6SAPS   H8Y  767   4.295   4.213   9.385 -1.1990  0.2568  1.2154
    6SAPS   C39  768   4.407   4.330   9.239  0.6425 -0.2055 -0.6458
    6SAPS   H9X  769   4.494   4.263   9.257 -0.1475 -0.6618  2.0546
    6SAPS   H9Y  770   4.443   4.434   9.232 -2.0402  0.7533 -1.5491
    6SAPS  C310  771   4.337   4.293   9.110  0.2393  0.2683  0.2234
    6SAPS  H10X  772   4.242   4.349   9.097 -0.3869 -0.3908  1.7515
    6SAPS  H10Y  773   4.315   4.184   9.120  0.2884  0.3062  0.7833
    6SAPS  C311  774   4.416   4.313   8.981 -0.3744 -0.4067 -0.2628
    6SAPS  H11X  775   4.523   4.293   9.003 -0.7108 -0.9030  0.9979
    6SAPS  H11Y  776   4.409   4.422   8.963  1.2803 -0.0752  0.8418
    6SAPS  C312  777   4.351   4.233   8.863  0.2699 -0.8338 -0.0889
    6SAPS  H12X  778   4.257   4.274   8.821 -1.4618 -2.2573  2.1901
    6SAPS  H12Y  779   4.307   4.147   8.918 -0.6419 -1.3158 -1.5058
    6SAPS  C313  780   4.453   4.189   8.759 -0.2550 -0.0236  0.7219
    6SAPS  H13X  781   4.523   4.122   8.814  1.1229  1.0979  0.3799
    6SAPS  H13Y  782   4.526   4.265   8.724 -0.6284  1.3719  2.8335
    6SAPS  C314  783   4.394   4.115   8.639 -0.4283  0.9339 -0.7540
    6SAPS  H14X  784   4.355   4.191   8.568 -0.4812  1.5791 -0.0474
    6SAPS  H14Y  785   4.307   4.065   8.686 -0.8732 -0.2858 -2.7395
    6SAPS  C315  786   4.487   4.015   8.572  0.2460 -0.2815  0.4422
    6SAPS  H15X  787   4.536   3.957   8.654 -0.5087  2.6450  3.1614
    6SAPS  H15Y  788   4.571   4.067   8.520 -0.0934 -2.6198 -2.7225
    6SAPS  C316  789   4.437   3.917   8.466  0.0464  0.8014  0.2566
    6SAPS  H16X  790   4.402   3.975   8.378  0.5373  0.8359  0.0780
    6SAPS  H16Y  791   4.351   3.860   8.506  1.9690 -2.0364  0.6466
    6SAPS  C317  792   4.554   3.828   8.410  0.6335 -0.0811 -0.2779
    6SAPS  H17X  793   4.593   3.762   8.490 -3.7143 -0.4571  1.8229
    6SAPS  H17Y  794   4.634   3.901   8.383 -0.6205  1.2091 -0.6373
    6SAPS  C318  795   4.506   3.740   8.292 -0.4504  0.2900 -0.0504
    6SAPS  H18X  796   4.596   3.690   8.249  0.2685  0.9179  0.6891
    6SAPS  H18Y  797   4.465   3.800   8.208 -0.2423 -0.1259 -0.4571
    6SAPS  H18Z  798   4.425   3.669   8.320  0.8450 -0.5543  1.7652
    7SAPS     N  799   1.361   4.956  10.698 -0.2466  0.6064  0.0857
    7SAPS   HN1  800   1.455   4.914  10.686 -0.4612 -0.5217  1.8646
    7SAPS   HN2  801   1.289   4.884  10.678 -2.0618  3.0970 -3.2196
    7SAPS   HN3  802   1.347   5.035  10.632 -0.4767 -1.2909 -2.2454
    7SAPS   C12  803   1.343   5.020  10.823  0.3136  0.5718  0.5840
    7SAPS  H12A  804   1.352   4.935  10.889 -0.9460 -0.1417 -0.1336
    7SAPS   C13  805   1.467   5.113  10.857  0.5087 -0.1964 -0.1185
    7SAPS  O13A  806   1.560   5.131  10.773  0.6916 -0.6069 -0.0830
    7SAPS  O13B  807   1.463   5.173  10.970  0.1316  0.2097  0.2071
    7SAPS   C11  808   1.206   5.101  10.834  0.1238  0.0936 -0.6103
    7SAPS  H11A  809   1.191   5.137  10.938 -3.8272  0.8683 -1.3134
    7SAPS  H11B  810   1.121   5.035  10.808  0.4609 -0.0233 -1.4381
    7SAPS     P  811   1.076   5.293  10.730  0.3068 -0.5921 -0.2950
    7SAPS   O13  812   0.967   5.234  10.815 -0.2170 -0.4027  0.1076
    7SAPS   O14  813   1.114   5.432  10.764  0.6546 -0.1100 -0.6862
    7SAPS   O12  814   1.206   5.207  10.741 -0.4474 -0.6471  0.2514
    7SAPS   O11  815   1.040   5.280  10.578  0.3668 -0.0906 -0.2759
    7SAPS    C1  816   1.163   5.309  10.493  0.2931 -0.4125  0.3709
    7SAPS    HA  817   1.209   5.401  10.534 -0.0770  0.4478 -1.0999
    7SAPS    HB  818   1.229   5.220  10.494 -0.7106 -1.2682 -2.1740
    7SAPS    C2  819   1.134   5.341  10.343 -0.4340 -0.0752  0.0276
    7SAPS    HS  820   1.229   5.350  10.286 -0.4467 -0.4377 -0.0590
    7SAPS   O21  821   1.058   5.460  10.335  0.3262 -0.3857 -0.3513
    7SAPS   C21  822   1.127   5.572  10.359 -0.5614  0.4050  0.8237
    7SAPS   O22  823   1.248   5.584  10.379 -0.0013 -0.0919 -0.5393
    7SAPS   C22  824   1.027   5.688  10.355 -0.2095 -0.8568 -0.1470
    7SAPS   H2R  825   0.957   5.665  10.272  0.4920 -0.1776 -0.9366
    7SAPS   H2S  826   0.958   5.676  10.441  0.2787 -1.4489  0.1732
    7SAPS    C3  827   1.065   5.227  10.258 -0.4878 -0.2649 -0.5876
    7SAPS    HX  828   0.987   5.180  10.320  1.0766  0.6621  2.2675
    7SAPS    HY  829   1.147   5.152  10.252  1.5028  1.5245  1.8993
    7SAPS   O31  830   1.026   5.270  10.126 -0.4766  0.4585  0.0702
    7SAPS   C31  831   0.903   5.309  10.115  0.5988 -0.7772  0.3839
    7SAPS   O32  832   0.827   5.324  10.210  0.4009  0.2836 -0.4459
    7SAPS   C32  833   0.861   5.347   9.970 -0.4016  0.1096 -0.9992
    7SAPS   H2X  834   0.937   5.418   9.931 -0.0732 -0.0631 -0.6767
    7SAPS   H2Y  835   0.769   5.409   9.982 -0.3685  0.1040 -0.7078
    7SAPS   C23  836   1.085   5.832  10.357  0.1844  0.6776  0.1840
    7SAPS   H3R  837   1.155   5.842  10.272  1.2972 -1.4394  0.7935
    7SAPS   H3S  838   1.137   5.840  10.454  0.1809  4.3080  0.0342
    7SAPS   C24  839   0.972   5.932  10.344  0.0150 -0.2387  0.6208
    7SAPS   H4R  840   0.956   5.957  10.237  0.6385 -0.7455  0.4061
    7SAPS   H4S  841   1.016   6.028  10.378 -0.5446  0.7427 -1.2622
    7SAPS   C25  842   0.842   5.915  10.410  0.2057  0.2323  0.0476
    7SAPS   H5R  843   0.850   5.896  10.518  3.0506 -0.5874 -0.2314
    7SAPS   C26  844   0.725   5.899  10.345  0.8433  0.1644  0.2964
    7SAPS   H6R  845   0.633   5.892  10.405  0.5438 -0.3737 -0.2181
    7SAPS   C27  846   0.702   5.898  10.193 -0.3204 -0.0791  0.0681
    7SAPS   H7R  847   0.604   5.852  10.169 -1.2391  1.5345  0.5426
    7SAPS   H7S  848   0.773   5.828  10.144 -1.2170 -0.9161 -0.0718
    7SAPS   C28  849   0.711   6.037  10.136  0.3785  0.8942  0.4336
    7SAPS   H8R  850   0.751   6.114  10.203 -1.1685  1.4130  0.7755
    7SAPS   C29  851   0.655   6.078  10.021 -0.1696 -0.2359  0.0068
    7SAPS   H9R  852   0.655   6.186  10.003  0.9998 -0.1030  0.7582
    7SAPS  C210  853   0.582   5.995   9.916 -0.0206 -0.0621  0.6169
    7SAPS  H10R  854   0.480   6.038   9.914 -0.2003 -0.4761  0.6744
    7SAPS  H10S  855   0.559   5.893   9.954 -3.3510  0.2913 -0.1152
    7SAPS  C211  856   0.639   5.996   9.776  0.1591  0.6860 -0.5552
    7SAPS  H11R  857   0.575   6.042   9.700  0.4821  0.9080 -0.6908
    7SAPS  C212  858   0.749   5.940   9.736 -0.3758 -0.1113 -0.2526
    7SAPS  H12R  859   0.769   5.929   9.628 -0.0441  1.1883 -0.3406
    7SAPS  C213  860   0.844   5.853   9.813 -0.4119 -0.1751  0.3827
    7SAPS  H13R  861   0.794   5.836   9.910 -0.3020  3.9147  1.3255
    7SAPS  H13S  862   0.927   5.915   9.854 -1.4483  0.7963  1.0433
    7SAPS  C214  863   0.889   5.723   9.735 -0.4467 -1.3227 -0.1684
    7SAPS  H14R  864   0.839   5.711   9.638  1.6387  0.6973 -1.5910
    7SAPS  C215  865   0.991   5.649   9.776 -1.1006  0.0856  0.1710
    7SAPS  H15R  866   1.026   5.558   9.725 -0.5600  0.3659  0.0378
    7SAPS  C216  867   1.068   5.667   9.908  0.9012  0.3726 -0.1131
    7SAPS  H16R  868   1.015   5.594   9.973 -3.3942  1.4797 -1.9798
    7SAPS  H16S  869   1.048   5.761   9.964  3.5672 -1.0368  3.6488
    7SAPS  C217  870   1.221   5.654   9.895 -0.6213  0.4885 -0.7819
    7SAPS  H17R  871   1.257   5.744   9.840 -0.8917  2.2404  1.7245
    7SAPS  H17S  872   1.261   5.560   9.854 -1.1205  0.5575 -1.4369
    7SAPS  C218  873   1.281   5.661  10.038  0.5429 -0.2546  0.0604
    7SAPS  H18R  874   1.270   5.561  10.083 -0.4169 -1.5546 -2.7992
    7SAPS  H18S  875   1.225   5.731  10.104 -1.6739 -1.0549 -0.8878
    7SAPS  C219  876   1.435   5.680  10.039  0.4066 -0.3816 -0.2460
    7SAPS  H19R  877   1.468   5.784  10.015 -1.6108  0.5885  0.9098
    7SAPS  H19S  878   1.482   5.614   9.962  1.0547  1.3367 -1.4106
    7SAPS  C220  879   1.489   5.641  10.184 -0.0028 -0.4459  0.2886
    7SAPS  H20R  880   1.597   5.617  10.191  0.4344  1.2383 -0.1103
    7SAPS  H20S  881   1.435   5.548  10.212 -2.6718  0.8175 -0.2841
    7SAPS  H20T  882   1.465   5.725  10.254 -3.1752 -0.4957 -0.5797
    7SAPS   C33  883   0.833   5.230   9.872 -0.1763  0.3970  0.4940
    7SAPS   H3X  884   0.761   5.159   9.918  0.6323 -1.2123 -0.6636
    7SAPS   H3Y  885   0.928   5.174   9.858  1.0260  1.9706  1.8413
    7SAPS   C34  886   0.783   5.285   9.738 -0.4498 -0.0230 -0.3399
    7SAPS   H4X  887   0.869   5.344   9.698 -0.5563 -0.3455 -1.0495
    7SAPS   H4Y  888   0.703   5.362   9.741  0.2511  0.7180 -0.0056
    7SAPS   C35  889   0.753   5.172   9.634  0.2211 -0.2272  0.0136
    7SAPS   H5X  890   0.668   5.115   9.679 -1.5813  0.8340 -1.8444
    7SAPS   H5Y  891   0.841   5.105   9.627  1.0402  0.5653  2.0902
    7SAPS   C36  892   0.684   5.207   9.500  1.1005  0.2021 -0.6101
    7SAPS   H6X  893   0.615   5.293   9.511  1.5210  0.4682 -0.0246
    7SAPS   H6Y  894   0.621   5.125   9.459  0.5681  0.4489 -0.2959
    7SAPS   C37  895   0.783   5.239   9.383 -0.5038  0.5253  0.1223
    7SAPS   H7X  896   0.842   5.148   9.357 -0.7677  0.3824  0.0201
    7SAPS   H7Y  897   0.850   5.318   9.424 -2.1169  2.0476 -0.0914
    7SAPS   C38  898   0.712   5.289   9.256 -1.1962 -0.3056 -0.0606
    7SAPS   H8X  899   0.637   5.367   9.281 -1.5311 -1.3761  2.5498
    7SAPS   H8Y  900   0.664   5.200   9.210 -2.4901 -0.7213  1.9653
    7SAPS   C39  901   0.806   5.342   9.152 -0.2945 -0.0096  0.9078
    7SAPS   H9X  902   0.866   5.255   9.117 -1.3158  0.3542 -2.0630
    7SAPS   H9Y  903   0.874   5.422   9.187  1.1175  0.6479 -2.8775
    7SAPS  C310  904   0.741   5.398   9.020  0.6476  0.0649 -0.2875
    7SAPS  H10X  905   0.678   5.482   9.056  1.9841  0.3759  1.5011
    7SAPS  H10Y  906   0.674   5.320   8.979 -0.7020  0.3878  1.2031
    7SAPS  C311  907   0.840   5.456   8.928 -0.5021 -0.4728 -0.2769
    7SAPS  H11X  908   0.902   5.374   8.886 -0.4348 -1.2899  1.3251
    7SAPS  H11Y  909   0.897   5.537   8.979  0.0836 -1.9630  1.5748
    7SAPS  C312  910   0.769   5.517   8.810  0.4855 -0.4865 -0.3257
    7SAPS  H12X  911   0.699   5.443   8.765  0.2115 -0.4623  0.0645
    7SAPS  H12Y  912   0.845   5.541   8.732  2.6050 -2.4212  1.0316
    7SAPS  C313  913   0.686   5.648   8.835 -0.1516  0.2782  0.5911
    7SAPS  H13X  914   0.757   5.710   8.894  0.9069 -0.3761  0.0383
    7SAPS  H13Y  915   0.596   5.626   8.897 -1.5429  1.0641 -1.0501
    7SAPS  C314  916   0.644   5.722   8.709  0.5467 -0.2970 -0.3019
    7SAPS  H14X  917   0.575   5.647   8.665  2.0239 -1.6108 -0.4814
    7SAPS  H14Y  918   0.730   5.722   8.639  0.4579 -0.4152 -0.4123
    7SAPS  C315  919   0.584   5.862   8.733  0.4334  0.5529 -0.2383
    7SAPS  H15X  920   0.487   5.851   8.787  1.2566  2.5963  1.8068
    7SAPS  H15Y  921   0.564   5.913   8.637 -0.3877  0.6347 -0.0355
    7SAPS  C316  922   0.681   5.946   8.814 -0.3938 -0.2393 -0.3601
    7SAPS  H16X  923   0.783   5.919   8.781  0.0389  0.8488  0.0428
    7SAPS  H16Y  924   0.657   5.914   8.918 -0.7471  1.1217 -0.0031
    7SAPS  C317  925   0.649   6.101   8.796  0.2642  0.3211  0.3438
    7SAPS  H17X  926   0.552   6.118   8.847  1.0293 -0.0021  1.9881
    7SAPS  H17Y  927   0.629   6.117   8.688 -0.0864  1.5163  0.5703
    7SAPS  C318  928   0.749   6.199   8.858  1.1172 -0.1079  0.0453
    7SAPS  H18X  929   0.775   6.158   8.958 -0.7875 -0.0026  0.6225
    7SAPS  H18Y  930   0.706   6.301   8.855  0.7106 -0.2582  0.6816
    7SAPS  H18Z  931   0.839   6.210   8.793  0.8846 -0.8677 -0.4126
    8SAPS     N  932   4.329   0.849  11.279  0.1627 -0.1692  0.7485
    8SAPS   HN1  933   4.306   0.929  11.216 -2.8405  0.4967  2.5029
    8SAPS   HN2  934   4.354   0.894  11.369 -1.4882  1.4932  0.4419
    8SAPS   HN3  935   4.412   0.794  11.249  0.2557  0.9443 -1.2061
    8SAPS   C12  936   4.209   0.766  11.285 -0.2469  0.0548 -0.3069
    8SAPS  H12A  937   4.227   0.697  11.367  1.9662  1.4472  0.4656
    8SAPS   C13  938   4.086   0.845  11.313 -0.4412  0.3876  0.6534
    8SAPS  O13A  939   4.101   0.966  11.342  0.2813  0.0225  0.1178
    8SAPS  O13B  940   3.978   0.791  11.298  0.5278  0.3843  0.3011
    8SAPS   C11  941   4.196   0.685  11.148 -0.3123 -0.5145  0.5659
    8SAPS  H11A  942   4.176   0.760  11.069  1.7156 -2.3674 -1.8638
    8SAPS  H11B  943   4.112   0.613  11.159 -0.7680 -0.2105 -0.7418
    8SAPS     P  944   4.431   0.653  11.016  0.3850  0.4696 -0.1544
    8SAPS   O13  945   4.503   0.760  11.086  0.6452 -0.3527 -0.2908
    8SAPS   O14  946   4.516   0.544  10.961 -0.4022  0.3110 -0.0356
    8SAPS   O12  947   4.312   0.606  11.114 -0.2513  0.6308  0.4054
    8SAPS   O11  948   4.349   0.725  10.895 -0.1557  0.3275 -0.1882
    8SAPS    C1  949   4.300   0.635  10.788 -0.8005 -0.5101 -0.4698
    8SAPS    HA  950   4.333   0.529  10.792 -0.0932 -0.2557  1.3192
    8SAPS    HB  951   4.189   0.642  10.799 -0.7083  1.3079 -0.2535
    8SAPS    C2  952   4.336   0.692  10.641 -0.4523 -0.6158 -0.5785
    8SAPS    HS  953   4.446   0.693  10.633 -0.4935 -0.5268 -1.2761
    8SAPS   O21  954   4.286   0.832  10.633  0.3498  0.0097 -0.3897
    8SAPS   C21  955   4.326   0.898  10.521 -0.3349 -0.9023  0.1620
    8SAPS   O22  956   4.427   0.874  10.456 -0.3740  0.5896 -0.4006
    8SAPS   C22  957   4.220   1.004  10.484 -0.3248  1.0361 -0.0801
    8SAPS   H2R  958   4.158   1.020  10.575  0.1312  1.5911  0.1374
    8SAPS   H2S  959   4.267   1.103  10.468  2.1807  0.8021  4.3031
    8SAPS    C3  960   4.279   0.600  10.529  0.3572 -0.1486  0.1397
    8SAPS    HX  961   4.171   0.617  10.546  0.7644  3.1929  0.0735
    8SAPS    HY  962   4.300   0.493  10.553 -2.3422 -1.0426 -1.1493
    8SAPS   O31  963   4.296   0.635  10.387 -0.6310 -0.1883  0.7861
    8SAPS   C31  964   4.410   0.580  10.333  0.2995 -0.0270  0.1520
    8SAPS   O32  965   4.489   0.514  10.398 -0.1939 -0.2123  0.0447
    8SAPS   C32  966   4.432   0.628  10.189 -0.0794 -0.1482 -0.1131
    8SAPS   H2X  967   4.432   0.739  10.192 -3.3065 -0.0623  0.8408
    8SAPS   H2Y  968   4.346   0.593  10.128  1.1719  0.4107 -2.3005
    8SAPS   C23  969   4.133   0.960  10.361 -0.2730  0.5085 -0.2215
    8SAPS   H3R  970   4.075   0.875  10.405 -0.3807  0.1844 -0.9684
    8SAPS   H3S  971   4.196   0.916  10.281 -3.4801 -1.2660 -1.9767
    8SAPS   C24  972   4.051   1.062  10.297 -0.4093  0.3686  0.2085
    8SAPS   H4R  973   4.018   1.017  10.201  0.1311 -1.7629  0.9641
    8SAPS   H4S  974   4.114   1.153  10.289  0.1045  0.0034  0.1274
    8SAPS   C25  975   3.929   1.101  10.377 -0.4712 -0.4391  0.1255
    8SAPS   H5R  976   3.951   1.175  10.456  0.6216 -1.0013  0.3606
    8SAPS   C26  977   3.808   1.049  10.354  0.5413 -0.2986  0.1666
    8SAPS   H6R  978   3.721   1.080  10.415 -0.0981 -0.4442 -0.6520
    8SAPS   C27  979   3.770   0.939  10.262 -0.0644 -0.3623 -0.4482
    8SAPS   H7R  980   3.854   0.877  10.225 -1.6852 -1.3908 -2.6816
    8SAPS   H7S  981   3.724   0.984  10.172 -2.4597 -2.9738 -0.6671
    8SAPS   C28  982   3.677   0.842  10.330  0.6944  0.3191  0.3527
    8SAPS   H8R  983   3.654   0.861  10.435 -2.1419  0.5727 -0.2276
    8SAPS   C29  984   3.609   0.737  10.283  0.3972 -0.2503  0.3105
    8SAPS   H9R  985   3.544   0.681  10.352  2.1806 -0.5148  1.8936
    8SAPS  C210  986   3.615   0.694  10.136  0.0148 -0.6748  0.0569
    8SAPS  H10R  987   3.614   0.582  10.135 -1.7243 -0.6921 -0.0591
    8SAPS  H10S  988   3.708   0.720  10.080 -1.5329 -0.2709 -2.5196
    8SAPS  C211  989   3.497   0.739  10.052 -0.2459  0.2432 -0.6190
    8SAPS  H11R  990   3.438   0.821  10.094 -1.6696 -0.9022 -0.3238
    8SAPS  C212  991   3.469   0.706   9.927  0.0513  0.0774 -0.0067
    8SAPS  H12R  992   3.383   0.751   9.876 -1.1414 -2.5839 -0.5131
    8SAPS  C213  993   3.547   0.602   9.851 -0.1604 -0.4730  0.0441
    8SAPS  H13R  994   3.490   0.593   9.756 -0.5866  0.7046  0.1628
    8SAPS  H13S  995   3.533   0.503   9.899  1.4286 -0.5266  0.4458
    8SAPS  C214  996   3.695   0.630   9.821  0.0786 -0.5847 -0.2687
    8SAPS  H14R  997   3.737   0.718   9.872 -0.7410 -2.3767  3.9923
    8SAPS  C215  998   3.772   0.550   9.751 -0.1076 -0.8996 -0.3877
    8SAPS  H15R  999   3.878   0.576   9.761 -0.5828  1.2957 -0.4317
    8SAPS  C216 1000   3.727   0.423   9.683 -1.0837 -0.2711  0.1134
    8SAPS  H16R 1001   3.630   0.445   9.634 -1.0867 -0.4803  0.0270
    8SAPS  H16S 1002   3.700   0.341   9.753  1.1546 -1.0318  0.1780
    8SAPS  C217 1003   3.834   0.361   9.587  0.4405 -0.1349 -0.0124
    8SAPS  H17R 1004   3.823   0.429   9.501 -0.9618  2.5072  2.0843
    8SAPS  H17S 1005   3.787   0.264   9.559  2.2326 -1.6800  2.0035
    8SAPS  C218 1006   3.985   0.354   9.624 -0.3100  0.1976 -0.4906
    8SAPS  H18R 1007   3.993   0.295   9.717 -0.7480  1.2507  0.2394
    8SAPS  H18S 1008   4.028   0.455   9.640 -1.1266  0.7215 -1.5019
    8SAPS  C219 1009   4.064   0.294   9.513  1.2439  0.2418  0.0455
    8SAPS  H19R 1010   4.170   0.322   9.530  1.1390  0.6982 -0.0627
    8SAPS  H19S 1011   4.036   0.344   9.419  0.2251  0.8790  0.6700
    8SAPS  C220 1012   4.061   0.143   9.493 -0.3756  0.6429 -0.0103
    8SAPS  H20R 1013   3.960   0.097   9.488 -0.8597  1.0763  3.4428
    8SAPS  H20S 1014   4.117   0.085   9.569 -0.9688 -1.2729 -0.9810
    8SAPS  H20T 1015   4.127   0.133   9.404 -0.6380  1.2005 -0.2728
    8SAPS   C33 1016   4.558   0.571  10.126  0.3001  0.6184 -0.7912
    8SAPS   H3X 1017   4.539   0.461  10.127  2.3652  0.2075  1.3408
    8SAPS   H3Y 1018   4.647   0.592  10.189  2.0762 -2.9028 -1.8909
    8SAPS   C34 1019   4.582   0.619   9.989 -0.0920  0.2001 -0.0158
    8SAPS   H4X 1020   4.682   0.584   9.955 -0.2640 -1.3905  1.0055
    8SAPS   H4Y 1021   4.580   0.730   9.995 -0.3923  0.1154  2.7331
    8SAPS   C35 1022   4.483   0.564   9.885  0.9327 -0.4153 -0.5788
    8SAPS   H5X 1023   4.389   0.616   9.915  0.5752  0.0504 -2.3888
    8SAPS   H5Y 1024   4.472   0.454   9.895  0.0798 -0.2349  0.6902
    8SAPS   C36 1025   4.517   0.602   9.744 -0.6892 -0.7185  0.7145
    8SAPS   H6X 1026   4.606   0.546   9.707 -0.4772 -0.0817  0.2488
    8SAPS   H6Y 1027   4.547   0.709   9.744  0.2816 -0.9522  1.9654
    8SAPS   C37 1028   4.402   0.565   9.654 -0.0872  0.0643 -0.1625
    8SAPS   H7X 1029   4.314   0.620   9.695 -1.1488 -0.3157 -1.8611
    8SAPS   H7Y 1030   4.377   0.458   9.662  1.5660 -0.2453  1.7081
    8SAPS   C38 1031   4.422   0.616   9.508  0.2248 -0.6186 -0.4720
    8SAPS   H8X 1032   4.525   0.593   9.472 -0.0021  0.7882 -2.0927
    8SAPS   H8Y 1033   4.426   0.726   9.521  3.6910 -0.8105  1.3020
    8SAPS   C39 1034   4.306   0.558   9.419 -0.6333  0.1641 -0.3044
    8SAPS   H9X 1035   4.290   0.451   9.445  0.1798  0.3622  1.1115
    8SAPS   H9Y 1036   4.334   0.567   9.312  0.5207 -0.0208 -0.0380
    8SAPS  C310 1037   4.168   0.626   9.441 -0.2164 -0.2998  0.4101
    8SAPS  H10X 1038   4.144   0.602   9.547 -0.8429  0.4767  0.4546
    8SAPS  H10Y 1039   4.086   0.579   9.383  2.0061 -3.3028 -0.5124
    8SAPS  C311 1040   4.164   0.776   9.415  0.1448  0.3894 -0.1560
    8SAPS  H11X 1041   4.215   0.790   9.317  0.5717 -0.8729 -0.1224
    8SAPS  H11Y 1042   4.219   0.828   9.497 -0.4654 -1.1240  1.2532
    8SAPS  C312 1043   4.028   0.843   9.400  0.7301 -0.6473  0.0816
    8SAPS  H12X 1044   3.962   0.799   9.322  0.5827 -0.1560 -0.0726
    8SAPS  H12Y 1045   4.022   0.949   9.368 -2.0145 -1.0670 -1.0794
    8SAPS  C313 1046   3.948   0.833   9.532 -0.3099 -0.8240 -0.7231
    8SAPS  H13X 1047   3.951   0.729   9.572 -1.7308 -0.6068  0.0198
    8SAPS  H13Y 1048   3.841   0.860   9.518 -0.2532 -0.5440 -0.6230
    8SAPS  C314 1049   4.011   0.917   9.650  0.0162  0.4291 -0.1143
    8SAPS  H14X 1050   4.013   1.021   9.611 -0.9059  0.2959 -0.5528
    8SAPS  H14Y 1051   4.114   0.886   9.676 -0.9783 -1.5357  1.8139
    8SAPS  C315 1052   3.923   0.902   9.778  0.2254 -0.5813 -0.7760
    8SAPS  H15X 1053   3.923   0.793   9.798  1.1716 -0.4947 -0.2512
    8SAPS  H15Y 1054   3.816   0.927   9.758  0.3933  0.9575  0.0685
    8SAPS  C316 1055   3.980   0.980   9.900 -0.2575  0.3315  0.6853
    8SAPS  H16X 1056   3.897   0.994   9.972 -2.0947  0.5270 -1.3462
    8SAPS  H16Y 1057   4.025   1.080   9.883  2.8180 -0.7632  1.6824
    8SAPS  C317 1058   4.093   0.900   9.963  0.5328 -0.0849  0.1006
    8SAPS  H17X 1059   4.142   0.961  10.042 -0.2393 -0.7087  1.0952
    8SAPS  H17Y 1060   4.175   0.870   9.895  0.6136 -1.3107  0.7114
    8SAPS  C318 1061   4.054   0.771  10.028 -0.1267 -0.1954  0.4373
    8SAPS  H18X 1062   3.995   0.701   9.964  0.7314 -2.8704  2.3724
    8SAPS  H18Y 1063   4.018   0.777  10.133  1.8757 -0.0290  1.1554
    8SAPS  H18Z 1064   4.147   0.711  10.037 -0.6402 -1.1491 -0.3574
    9SAPS     N 1065   0.282   3.871   6.218 -0.2333  0.1963  0.3090
    9SAPS   HN1 1066   0.385   3.865   6.230 -0.3436 -0.7382  0.9099
    9SAPS   HN2 1067   0.246   3.813   6.297 -0.8196  1.8468  1.3054
    9SAPS   HN3 1068   0.260   3.832   6.124 -0.2348  2.1246 -0.5339
    9SAPS   C12 1069   0.245   4.015   6.233 -0.1688 -0.0635 -0.7806
    9SAPS  H12A 1070   0.309   4.072   6.167 -2.7012  2.6438 -1.1197
    9SAPS   C13 1071   0.094   4.040   6.193 -0.7260  0.7978 -0.2601
    9SAPS  O13A 1072   0.036   3.955   6.116 -0.3057 -0.6319  0.1525
    9SAPS  O13B 1073   0.056   4.162   6.203 -0.0346  0.1291 -0.0379
    9SAPS   C11 1074   0.268   4.060   6.383  0.2281  0.3642  0.3837
    9SAPS  H11A 1075   0.349   4.008   6.439 -1.4902  0.7730  3.4938
    9SAPS  H11B 1076   0.179   4.017   6.434  1.6433 -1.9511  1.0751
    9SAPS     P 1077   0.397   4.295   6.386  0.2008  0.3108 -0.3437
    9SAPS   O13 1078   0.427   4.287   6.240  0.0095 -0.0537  0.1670
    9SAPS   O14 1079   0.373   4.430   6.445 -0.2024  0.4388 -0.3083
    9SAPS   O12 1080   0.276   4.194   6.413 -0.1617  0.5555 -0.1320
    9SAPS   O11 1081   0.517   4.225   6.457  0.1896  0.1318 -0.3096
    9SAPS    C1 1082   0.535   4.212   6.598  0.0738 -0.1641 -0.1659
    9SAPS    HA 1083   0.489   4.295   6.656  1.9497  0.4976  0.4233
    9SAPS    HB 1084   0.494   4.116   6.634  0.7381  0.0512  1.2194
    9SAPS    C2 1085   0.686   4.227   6.639  0.4176 -0.3484 -0.0672
    9SAPS    HS 1086   0.737   4.217   6.541 -1.6093  0.0940 -1.2099
    9SAPS   O21 1087   0.716   4.126   6.734 -0.4373  0.7798  0.0312
    9SAPS   C21 1088   0.831   4.075   6.716 -0.2045  0.5275  0.4579
    9SAPS   O22 1089   0.921   4.107   6.641  0.4237 -1.0714  0.4137
    9SAPS   C22 1090   0.846   3.957   6.808 -0.0386  0.1385 -0.4642
    9SAPS   H2R 1091   0.824   3.864   6.752 -2.6068  1.3346 -1.6157
    9SAPS   H2S 1092   0.954   3.954   6.834  0.3897 -1.8600 -2.2194
    9SAPS    C3 1093   0.717   4.363   6.695  0.1683  0.1245  0.6649
    9SAPS    HX 1094   0.652   4.373   6.784 -1.0091  0.4306 -0.2039
    9SAPS    HY 1095   0.680   4.431   6.616 -1.7588 -1.5784  0.0367
    9SAPS   O31 1096   0.859   4.377   6.732  0.5080  0.2537  0.1513
    9SAPS   C31 1097   0.888   4.499   6.775 -0.0789  0.4695 -0.6360
    9SAPS   O32 1098   0.808   4.586   6.799  0.6520 -0.2237  0.2003
    9SAPS   C32 1099   1.033   4.524   6.817  0.0321  0.4515  0.0860
    9SAPS   H2X 1100   1.039   4.618   6.875 -0.8435 -1.3157  3.2831
    9SAPS   H2Y 1101   1.083   4.548   6.720 -1.6902 -2.4570 -1.6996
    9SAPS   C23 1102   0.743   3.954   6.931  0.3129  0.4500 -0.7043
    9SAPS   H3R 1103   0.639   3.957   6.892  0.4049  2.4729 -0.9134
    9SAPS   H3S 1104   0.756   4.046   6.993 -0.0274 -0.0807  0.1719
    9SAPS   C24 1105   0.785   3.840   7.027 -0.6530  0.3538 -0.5923
    9SAPS   H4R 1106   0.752   3.862   7.131  2.7503 -1.2217  0.9972
    9SAPS   H4S 1107   0.895   3.838   7.048 -0.8413  1.3831  0.6523
    9SAPS   C25 1108   0.735   3.702   6.987 -0.3391 -0.0899  0.2330
    9SAPS   H5R 1109   0.786   3.651   6.904 -3.6503 -0.4607 -1.7536
    9SAPS   C26 1110   0.619   3.650   7.022 -0.6122 -0.0807 -0.5287
    9SAPS   H6R 1111   0.596   3.552   6.979 -1.8198  0.9895 -2.5320
    9SAPS   C27 1112   0.527   3.714   7.119  0.6192 -0.0954 -0.1220
    9SAPS   H7R 1113   0.568   3.793   7.186  0.9497 -0.3724  0.0080
    9SAPS   H7S 1114   0.485   3.632   7.181 -2.3079  1.3935  0.0246
    9SAPS   C28 1115   0.409   3.773   7.048 -0.5367 -0.0363  0.6785
    9SAPS   H8R 1116   0.415   3.814   6.946 -0.9707  1.6674  1.3010
    9SAPS   C29 1117   0.291   3.793   7.108  0.0302  0.2421 -0.7056
    9SAPS   H9R 1118   0.211   3.835   7.045  0.2714  1.4613 -0.2432
    9SAPS  C210 1119   0.258   3.773   7.262 -0.4262  0.1733  0.7631
    9SAPS  H10R 1120   0.332   3.714   7.320 -0.0354 -0.9082 -0.7788
    9SAPS  H10S 1121   0.163   3.717   7.275 -1.4521  1.7923  0.4646
    9SAPS  C211 1122   0.226   3.904   7.320 -0.3402 -0.5413  0.1853
    9SAPS  H11R 1123   0.162   3.970   7.259 -0.8121 -1.2210 -0.0658
    9SAPS  C212 1124   0.263   3.941   7.444  0.1052 -0.0176 -0.4532
    9SAPS  H12R 1125   0.224   4.033   7.490  0.6299 -0.2497  0.4912
    9SAPS  C213 1126   0.340   3.856   7.549 -0.3107 -0.8815  0.1839
    9SAPS  H13R 1127   0.374   3.921   7.633 -0.0117  1.1360 -1.4284
    9SAPS  H13S 1128   0.438   3.823   7.509 -0.5630 -2.1716  0.5698
    9SAPS  C214 1129   0.257   3.738   7.586 -0.4480  0.2712  0.3298
    9SAPS  H14R 1130   0.206   3.677   7.510  1.0882  0.2631 -0.7329
    9SAPS  C215 1131   0.235   3.708   7.715  0.1908 -0.0675  0.4930
    9SAPS  H15R 1132   0.168   3.623   7.739 -0.1648 -0.5009 -1.7728
    9SAPS  C216 1133   0.275   3.787   7.835  0.8886  0.3913  0.5649
    9SAPS  H16R 1134   0.194   3.780   7.911 -2.6993  2.5468 -2.7295
    9SAPS  H16S 1135   0.276   3.897   7.818  1.5912  0.0167 -2.4741
    9SAPS  C217 1136   0.410   3.753   7.902  0.1988  0.2990  0.5600
    9SAPS  H17R 1137   0.480   3.751   7.815 -0.2210  0.8467  0.2093
    9SAPS  H17S 1138   0.400   3.655   7.953 -2.0669  0.7155  1.0090
    9SAPS  C218 1139   0.453   3.863   7.998 -0.4212 -0.7826  0.1317
    9SAPS  H18R 1140   0.458   3.960   7.943  1.5433 -1.6876 -1.4079
    9SAPS  H18S 1141   0.557   3.839   8.028  0.6251 -1.3443 -3.4190
    9SAPS  C219 1142   0.374   3.889   8.132  0.5582  0.3015 -0.1068
    9SAPS  H19R 1143   0.268   3.889   8.099  0.4672 -1.7433  0.0311
    9SAPS  H19S 1144   0.406   3.991   8.160  1.7881  0.6372 -2.4551
    9SAPS  C220 1145   0.397   3.796   8.249 -0.4724  0.5547  0.3069
    9SAPS  H20R 1146   0.337   3.831   8.336  0.1830  4.5231 -0.6391
    9SAPS  H20S 1147   0.503   3.791   8.280  0.1041  2.0007 -1.2519
    9SAPS  H20T 1148   0.367   3.693   8.223 -0.2857  0.3863  0.7592
    9SAPS   C33 1149   1.091   4.393   6.883  0.3798  0.2175 -0.0246
    9SAPS   H3X 1150   1.189   4.427   6.924  1.6235 -2.4649 -0.5740
    9SAPS   H3Y 1151   1.112   4.320   6.802 -1.5220 -0.6061  0.1930
    9SAPS   C34 1152   0.998   4.330   6.993  0.0927 -0.1889  0.3101
    9SAPS   H4X 1153   1.035   4.236   7.039 -1.3902 -1.0767 -0.2593
    9SAPS   H4Y 1154   0.908   4.291   6.942 -1.0761  2.6905 -0.0259
    9SAPS   C35 1155   0.956   4.425   7.104  0.4319 -0.4634 -0.8356
    9SAPS   H5X 1156   0.888   4.371   7.174  2.0448 -0.6875  0.6179
    9SAPS   H5Y 1157   0.904   4.513   7.060  0.4410  0.5463  1.0769
    9SAPS   C36 1158   1.071   4.485   7.190  0.0122 -0.2664 -0.7515
    9SAPS   H6X 1159   1.024   4.573   7.237 -0.6431 -0.5368 -0.8890
    9SAPS   H6Y 1160   1.149   4.524   7.121 -0.2040  0.1584 -0.7532
    9SAPS   C37 1161   1.139   4.379   7.283  0.6797 -0.2562 -0.3772
    9SAPS   H7X 1162   1.190   4.326   7.200  2.2423  1.2165 -0.4099
    9SAPS   H7Y 1163   1.065   4.308   7.326  0.0016 -0.2915 -1.5699
    9SAPS   C38 1164   1.240   4.432   7.383  0.4882 -1.2321  0.1934
    9SAPS   H8X 1165   1.327   4.463   7.321 -0.4733 -0.3925 -0.7788
    9SAPS   H8Y 1166   1.276   4.354   7.454  1.4392 -0.6684  0.3546
    9SAPS   C39 1167   1.201   4.552   7.467 -0.6297  0.1522  0.7640
    9SAPS   H9X 1168   1.195   4.641   7.401  2.8915 -0.1780 -0.1539
    9SAPS   H9Y 1169   1.285   4.565   7.539 -1.3074  3.5135  1.1360
    9SAPS  C310 1170   1.079   4.528   7.558 -0.3895 -0.3969  1.0895
    9SAPS  H10X 1171   0.984   4.512   7.503 -1.0209 -0.9132  2.2781
    9SAPS  H10Y 1172   1.059   4.622   7.613 -2.4366  0.4494 -0.9564
    9SAPS  C311 1173   1.098   4.413   7.654 -0.9315 -0.2644 -0.2282
    9SAPS  H11X 1174   1.184   4.426   7.722 -0.5680 -1.3101 -0.4690
    9SAPS  H11Y 1175   1.101   4.318   7.596  4.2984  0.1364 -1.1043
    9SAPS  C312 1176   0.983   4.395   7.758 -0.1421 -0.2029 -0.7705
    9SAPS  H12X 1177   0.886   4.398   7.704 -2.0764  0.7806  2.4834
    9SAPS  H12Y 1178   0.969   4.491   7.813 -0.1351  0.2578 -1.5481
    9SAPS  C313 1179   1.001   4.269   7.838  0.8937 -0.2999  0.1953
    9SAPS  H13X 1180   1.109   4.248   7.853  0.4752 -3.6395 -0.5436
    9SAPS  H13Y 1181   0.965   4.188   7.771  2.2308 -0.1593 -0.7230
    9SAPS  C314 1182   0.917   4.276   7.969  0.7020 -0.2213 -0.2309
    9SAPS  H14X 1183   0.909   4.171   8.003  2.7044 -0.7249 -1.1751
    9SAPS  H14Y 1184   0.816   4.310   7.936  0.9463  2.3237  1.3516
    9SAPS  C315 1185   0.965   4.365   8.091  0.2059  0.2616  0.2401
    9SAPS  H15X 1186   0.987   4.467   8.051  0.9738 -0.2738 -0.7695
    9SAPS  H15Y 1187   1.065   4.318   8.106 -0.3448 -0.9831  0.0708
    9SAPS  C316 1188   0.880   4.366   8.213  0.1770 -0.3250  0.7809
    9SAPS  H16X 1189   0.809   4.451   8.222  0.1591 -0.4361  1.8401
    9SAPS  H16Y 1190   0.949   4.391   8.296  1.1208 -0.1778 -0.0288
    9SAPS  C317 1191   0.827   4.226   8.249  0.8591  0.3776 -0.1845
    9SAPS  H17X 1192   0.916   4.160   8.251  0.6497 -0.0244 -2.2239
    9SAPS  H17Y 1193   0.772   4.193   8.159 -1.1617  1.3166  0.6402
    9SAPS  C318 1194   0.757   4.227   8.387 -0.3064 -0.5929  1.0406
    9SAPS  H18X 1195   0.701   4.322   8.399 -0.7564 -0.6092 -0.6333
    9SAPS  H18Y 1196   0.826   4.206   8.471  1.2443  0.4501  0.0937
    9SAPS  H18Z 1197   0.680   4.148   8.376  1.0335 -1.7300 -0.8780
   10SAPS     N 1198   1.918   2.656   6.049 -0.1185 -0.9322 -0.5954
   10SAPS   HN1 1199   1.997   2.594   6.021  1.3871  0.3476  0.6328
   10SAPS   HN2 1200   1.941   2.751   6.012  2.2532 -0.7848  1.0259
   10SAPS   HN3 1201   1.916   2.676   6.151 -1.1510  0.6630 -0.8992
   10SAPS   C12 1202   1.794   2.595   6.008  0.4074  0.5407 -0.3464
   10SAPS  H12A 1203   1.730   2.674   6.044  2.2723  1.3431  1.3957
   10SAPS   C13 1204   1.759   2.568   5.862  0.4547  0.1940  0.0415
   10SAPS  O13A 1205   1.839   2.608   5.778  0.1980 -0.1038  0.0062
   10SAPS  O13B 1206   1.665   2.488   5.838  0.8127  0.8159  0.8674
   10SAPS   C11 1207   1.777   2.464   6.091 -0.5447  0.4450  0.3381
   10SAPS  H11A 1208   1.851   2.386   6.067 -2.4749 -2.0984  2.0830
   10SAPS  H11B 1209   1.672   2.431   6.073 -0.4551 -0.7601  1.8917
   10SAPS     P 1210   1.682   2.529   6.318 -0.6441 -0.2576 -0.1909
   10SAPS   O13 1211   1.742   2.645   6.396  0.0588 -0.0622  0.5890
   10SAPS   O14 1212   1.557   2.556   6.246  1.1747  0.0985  0.7127
   10SAPS   O12 1213   1.797   2.495   6.224  0.3129 -0.1053 -0.4391
   10SAPS   O11 1214   1.676   2.403   6.408  0.2224 -0.7619  0.4500
   10SAPS    C1 1215   1.670   2.268   6.351  0.0551  0.3641 -0.4661
   10SAPS    HA 1216   1.580   2.257   6.288 -1.5766  2.5735  1.3137
   10SAPS    HB 1217   1.764   2.243   6.297  0.6445  0.6139  0.4191
   10SAPS    C2 1218   1.659   2.168   6.467  0.6376  0.7448 -0.1156
   10SAPS    HS 1219   1.626   2.073   6.419  0.2287  1.1447 -0.6485
   10SAPS   O21 1220   1.557   2.211   6.563  0.5576  0.0976 -0.4183
   10SAPS   C21 1221   1.434   2.196   6.525  0.4076  0.8436 -0.5391
   10SAPS   O22 1222   1.390   2.128   6.432 -0.2717 -0.1011 -0.5952
   10SAPS   C22 1223   1.348   2.265   6.633  0.1085 -0.7069  0.3355
   10SAPS   H2R 1224   1.243   2.231   6.619  0.5475 -1.2564 -2.0968
   10SAPS   H2S 1225   1.372   2.229   6.735 -1.1960 -1.9530  0.2359
   10SAPS    C3 1226   1.794   2.146   6.537  0.5789 -0.0542 -0.1156
   10SAPS    HX 1227   1.853   2.240   6.548  0.4256  0.0605 -0.2749
   10SAPS    HY 1228   1.854   2.068   6.485  1.0593 -0.7365  1.4184
   10SAPS   O31 1229   1.781   2.105   6.671  0.0131  0.4468 -0.0556
   10SAPS   C31 1230   1.720   1.997   6.709 -0.3538 -0.7997 -0.4425
   10SAPS   O32 1231   1.670   1.914   6.641  0.3316 -0.3654  0.5084
   10SAPS   C32 1232   1.720   2.000   6.866  0.2726 -0.3715 -0.4664
   10SAPS   H2X 1233   1.768   2.091   6.909 -1.5207 -0.5333  2.1395
   10SAPS   H2Y 1234   1.766   1.904   6.896  1.4920  0.3740  0.1282
   10SAPS   C23 1235   1.372   2.416   6.632 -0.1105  0.2038 -0.1811
   10SAPS   H3R 1236   1.289   2.455   6.569  0.1750  0.9787 -0.0879
   10SAPS   H3S 1237   1.471   2.452   6.595  0.5456  0.5811  1.8308
   10SAPS   C24 1238   1.354   2.477   6.775  0.5270 -0.0832  0.1856
   10SAPS   H4R 1239   1.255   2.442   6.812  0.0200 -0.4628 -1.4432
   10SAPS   H4S 1240   1.353   2.585   6.749 -1.6265 -0.6782 -2.7484
   10SAPS   C25 1241   1.451   2.436   6.882 -0.2952 -0.1588 -0.1946
   10SAPS   H5R 1242   1.551   2.471   6.853 -1.1127  1.4973 -1.1757
   10SAPS   C26 1243   1.430   2.368   6.995  0.2989  0.3988  0.6113
   10SAPS   H6R 1244   1.516   2.340   7.057 -0.3685  0.1106  1.4195
   10SAPS   C27 1245   1.288   2.330   7.041  0.1284 -0.1341  0.2040
   10SAPS   H7R 1246   1.222   2.300   6.957  1.0489 -0.1777 -0.5263
   10SAPS   H7S 1247   1.236   2.416   7.088  0.5883  2.5212 -3.6608
   10SAPS   C28 1248   1.291   2.210   7.130  0.6395 -0.0900  0.2672
   10SAPS   H8R 1249   1.344   2.131   7.075  0.4786  1.0067 -1.5427
   10SAPS   C29 1250   1.258   2.202   7.259  0.1053  0.1653 -0.3365
   10SAPS   H9R 1251   1.286   2.111   7.315 -2.4941 -1.1163 -0.9847
   10SAPS  C210 1252   1.200   2.307   7.346 -0.2282  0.1256 -0.1851
   10SAPS  H10R 1253   1.108   2.255   7.380  0.3652 -1.0587 -0.3322
   10SAPS  H10S 1254   1.166   2.394   7.285 -1.5823  0.5912  1.1720
   10SAPS  C211 1255   1.287   2.351   7.452 -0.2151  0.6700 -0.2385
   10SAPS  H11R 1256   1.388   2.383   7.422 -0.0767  0.0868 -0.4005
   10SAPS  C212 1257   1.261   2.358   7.579 -0.0107  0.4683 -0.5779
   10SAPS  H12R 1258   1.335   2.413   7.639 -0.8749 -1.3417  2.3489
   10SAPS  C213 1259   1.123   2.328   7.646  0.4757 -0.0063  0.7493
   10SAPS  H13R 1260   1.042   2.306   7.573  1.9383 -0.3008 -0.8582
   10SAPS  H13S 1261   1.092   2.414   7.710 -0.7961 -0.1430  0.3437
   10SAPS  C214 1262   1.145   2.199   7.733 -0.1780  0.1318 -0.1191
   10SAPS  H14R 1263   1.236   2.137   7.719  0.2803  0.4350  1.3314
   10SAPS  C215 1264   1.057   2.160   7.827 -0.6252  0.4462 -0.0542
   10SAPS  H15R 1265   1.085   2.070   7.884 -0.2150  0.4100 -0.3048
   10SAPS  C216 1266   0.929   2.222   7.870 -0.3684 -0.0396 -0.3087
   10SAPS  H16R 1267   0.859   2.138   7.887 -3.3415  2.2875 -0.1914
   10SAPS  H16S 1268   0.875   2.281   7.792 -2.4397 -2.6924 -1.0309
   10SAPS  C217 1269   0.941   2.309   7.995 -0.3437 -0.4832 -0.3755
   10SAPS  H17R 1270   0.833   2.324   8.011 -0.1024 -1.7081  3.3423
   10SAPS  H17S 1271   0.987   2.408   7.977 -0.9346 -0.4628 -1.8931
   10SAPS  C218 1272   1.021   2.240   8.111  0.1057 -0.3422  0.1982
   10SAPS  H18R 1273   1.129   2.248   8.087  0.1534  0.6883  0.7004
   10SAPS  H18S 1274   1.001   2.131   8.108  1.5114 -0.5979 -1.0886
   10SAPS  C219 1275   1.001   2.293   8.259 -0.1079 -0.5753  0.7328
   10SAPS  H19R 1276   1.049   2.393   8.265 -0.2738 -0.3260 -1.2455
   10SAPS  H19S 1277   1.053   2.221   8.326 -0.1263 -2.4704 -1.1839
   10SAPS  C220 1278   0.854   2.309   8.288 -0.0819  0.4406  0.0411
   10SAPS  H20R 1279   0.811   2.393   8.229 -0.3577  1.7975  2.0673
   10SAPS  H20S 1280   0.840   2.339   8.394  0.8262  1.1405 -0.0194
   10SAPS  H20T 1281   0.808   2.215   8.252  0.2126  0.0771  0.5933
   10SAPS   C33 1282   1.574   1.992   6.919 -0.4471  0.3369 -0.4918
   10SAPS   H3X 1283   1.537   1.903   6.864  1.7232 -1.5808  0.9388
   10SAPS   H3Y 1284   1.514   2.083   6.901  0.1757  0.8031 -0.2525
   10SAPS   C34 1285   1.575   1.953   7.074  0.3196  0.0359 -0.2428
   10SAPS   H4X 1286   1.626   1.854   7.077  1.3371  0.5275  2.8939
   10SAPS   H4Y 1287   1.469   1.936   7.103 -0.2205  2.6323 -0.4251
   10SAPS   C35 1288   1.644   2.050   7.163  0.3112  0.2129 -0.3867
   10SAPS   H5X 1289   1.614   2.155   7.140  0.6254  0.1969 -0.8750
   10SAPS   H5Y 1290   1.753   2.043   7.146  0.1480 -2.8074 -0.7087
   10SAPS   C36 1291   1.628   2.016   7.314 -0.2975 -0.5438  0.1948
   10SAPS   H6X 1292   1.661   1.911   7.329  0.9077 -0.5669 -2.1572
   10SAPS   H6Y 1293   1.523   2.022   7.350  0.7057 -0.1616  3.3289
   10SAPS   C37 1294   1.694   2.106   7.416 -0.6064 -0.2284  0.3969
   10SAPS   H7X 1295   1.653   2.209   7.407  1.9424  0.8669  0.6453
   10SAPS   H7Y 1296   1.803   2.111   7.395 -0.6114 -0.3542  0.3436
   10SAPS   C38 1297   1.670   2.063   7.562  0.3038  0.0557 -0.4720
   10SAPS   H8X 1298   1.743   2.104   7.635 -1.2946  0.1517  1.1316
   10SAPS   H8Y 1299   1.684   1.953   7.568  0.3083  0.1118  0.8118
   10SAPS   C39 1300   1.532   2.103   7.622  0.3790 -0.3403  0.6157
   10SAPS   H9X 1301   1.452   2.032   7.593  0.2235  0.1360 -0.1404
   10SAPS   H9Y 1302   1.512   2.209   7.595 -0.3767 -1.0143 -1.6384
   10SAPS  C310 1303   1.545   2.100   7.782  0.3847 -0.3998  0.2087
   10SAPS  H10X 1304   1.483   2.183   7.821 -0.5157 -1.7587  1.7851
   10SAPS  H10Y 1305   1.635   2.141   7.832  0.1030  0.9271 -0.3387
   10SAPS  C311 1306   1.494   1.979   7.849  0.0516  0.6675  0.5167
   10SAPS  H11X 1307   1.566   1.895   7.842 -0.1084  0.4695  1.1522
   10SAPS  H11Y 1308   1.394   1.943   7.816  0.6779 -1.0536  0.3858
   10SAPS  C312 1309   1.482   2.017   8.000 -0.1013  0.4086 -0.0667
   10SAPS  H12X 1310   1.416   2.107   8.004 -1.6451 -0.5919 -1.4730
   10SAPS  H12Y 1311   1.581   2.056   8.032  0.0876  0.2129 -0.4064
   10SAPS  C313 1312   1.419   1.916   8.102  0.1381 -0.4706  0.0825
   10SAPS  H13X 1313   1.462   1.814   8.098 -0.8465 -0.8638 -0.7252
   10SAPS  H13Y 1314   1.313   1.913   8.071  0.3646 -0.5401 -0.7112
   10SAPS  C314 1315   1.420   1.960   8.248  0.8188  0.2824 -0.7910
   10SAPS  H14X 1316   1.354   2.049   8.263  0.0116 -0.2193 -1.3347
   10SAPS  H14Y 1317   1.516   1.991   8.295  0.0897 -0.2518  1.1415
   10SAPS  C315 1318   1.364   1.837   8.324 -0.3828 -0.2290  0.3715
   10SAPS  H15X 1319   1.437   1.754   8.320  0.4102  0.5088 -1.9110
   10SAPS  H15Y 1320   1.270   1.800   8.276 -0.9078  0.4531  0.8471
   10SAPS  C316 1321   1.331   1.861   8.471  0.4367 -0.6080  0.7058
   10SAPS  H16X 1322   1.245   1.931   8.488 -0.1690 -0.6761 -1.6963
   10SAPS  H16Y 1323   1.420   1.917   8.505 -1.3702  1.8833  1.7124
   10SAPS  C317 1324   1.299   1.734   8.554 -0.1185 -0.4481 -0.3020
   10SAPS  H17X 1325   1.259   1.775   8.650  0.8055 -0.4027  0.0729
   10SAPS  H17Y 1326   1.400   1.691   8.573 -0.2954 -0.9384 -0.4459
   10SAPS  C318 1327   1.202   1.628   8.500 -0.2851  0.3583 -0.4977
   10SAPS  H18X 1328   1.249   1.574   8.416  1.1535  0.6486  0.0947
   10SAPS  H18Y 1329   1.102   1.675   8.483  0.7081  3.3256  1.0549
   10SAPS  H18Z 1330   1.184   1.546   8.573 -1.0005  0.1211 -0.9241
   11SAPS     N 1331   3.335   4.675   5.845 -0.1958 -0.6523  0.5257
   11SAPS   HN1 1332   3.284   4.759   5.812  0.8832 -0.9578 -2.1383
   11SAPS   HN2 1333   3.375   4.700   5.937  0.7280 -1.4099  0.3494
   11SAPS   HN3 1334   3.422   4.670   5.789 -1.2953 -0.2647 -1.2930
   11SAPS   C12 1335   3.254   4.553   5.849 -0.8575  0.7183 -0.1409
   11SAPS  H12A 1336   3.159   4.571   5.897 -1.1481 -1.6865  0.3118
   11SAPS   C13 1337   3.222   4.511   5.702 -0.1440  0.7779  0.3241
   11SAPS  O13A 1338   3.251   4.593   5.608  0.1628 -0.2218 -0.0695
   11SAPS  O13B 1339   3.144   4.415   5.678 -0.4856 -0.1504 -0.8704
   11SAPS   C11 1340   3.320   4.433   5.918  0.6456  0.3582  0.2432
   11SAPS  H11A 1341   3.422   4.418   5.876  0.6678 -0.5685  0.6108
   11SAPS  H11B 1342   3.265   4.342   5.887  0.3060  1.6677 -3.4843
   11SAPS     P 1343   3.349   4.314   6.151 -0.4679  0.3223  0.2888
   11SAPS   O13 1344   3.292   4.361   6.280 -0.1322 -0.0586  0.1334
   11SAPS   O14 1345   3.276   4.194   6.097 -0.0837 -0.7196  0.4284
   11SAPS   O12 1346   3.321   4.437   6.060 -0.2813  0.1598 -0.2263
   11SAPS   O11 1347   3.501   4.288   6.155 -0.3507  0.4919 -0.0273
   11SAPS    C1 1348   3.578   4.290   6.271 -0.1385 -0.0109 -0.0015
   11SAPS    HA 1349   3.682   4.304   6.234 -0.5316  2.1718 -0.3974
   11SAPS    HB 1350   3.545   4.369   6.341 -1.9806 -0.2505 -0.5459
   11SAPS    C2 1351   3.580   4.159   6.355  0.0058 -0.5640 -0.5277
   11SAPS    HS 1352   3.567   4.082   6.276  0.0242 -0.4474 -0.6462
   11SAPS   O21 1353   3.462   4.153   6.437  0.2516 -0.2111 -0.5054
   11SAPS   C21 1354   3.444   4.033   6.492  0.3844  0.6289 -0.0960
   11SAPS   O22 1355   3.510   3.933   6.467  0.2257 -0.1196  0.6721
   11SAPS   C22 1356   3.329   4.015   6.584  1.1244  0.3614 -0.0361
   11SAPS   H2R 1357   3.240   4.070   6.546  0.4651 -0.4728  0.2632
   11SAPS   H2S 1358   3.311   3.906   6.589  1.6043  0.1953 -1.5076
   11SAPS    C3 1359   3.711   4.151   6.438  0.0542  0.5890  0.5644
   11SAPS    HX 1360   3.795   4.173   6.368 -0.6594  2.5767  0.2869
   11SAPS    HY 1361   3.726   4.048   6.479 -1.3391  0.7072  1.4391
   11SAPS   O31 1362   3.712   4.252   6.541 -0.4552 -0.1701 -0.5000
   11SAPS   C31 1363   3.699   4.211   6.666  0.3947  0.8595  0.7596
   11SAPS   O32 1364   3.683   4.093   6.698 -0.3898 -0.2879  0.3571
   11SAPS   C32 1365   3.709   4.325   6.764 -0.7160  0.7285  0.0083
   11SAPS   H2X 1366   3.639   4.399   6.721 -0.7215  0.1343 -1.0307
   11SAPS   H2Y 1367   3.815   4.360   6.760 -0.2367 -0.7254 -0.7824
   11SAPS   C23 1368   3.355   4.058   6.739  0.5731 -0.6944  0.6007
   11SAPS   H3R 1369   3.450   4.004   6.762 -0.8213 -3.0513  1.2026
   11SAPS   H3S 1370   3.293   3.988   6.799 -1.7414  0.0032 -0.8277
   11SAPS   C24 1371   3.329   4.199   6.780 -0.2586  0.6148 -0.2094
   11SAPS   H4R 1372   3.387   4.272   6.720  0.4606  0.9749  0.8782
   11SAPS   H4S 1373   3.373   4.187   6.882  1.4154 -1.3456 -1.0817
   11SAPS   C25 1374   3.188   4.243   6.784 -0.3292  0.3175 -0.1229
   11SAPS   H5R 1375   3.118   4.206   6.707 -1.2399 -0.7937  1.1813
   11SAPS   C26 1376   3.140   4.334   6.867 -0.7587 -0.5071  0.3422
   11SAPS   H6R 1377   3.030   4.343   6.867 -0.6125  1.6241 -0.2916
   11SAPS   C27 1378   3.212   4.411   6.973 -0.5886 -0.2496 -0.1002
   11SAPS   H7R 1379   3.302   4.456   6.926 -1.1936 -0.8881 -1.9621
   11SAPS   H7S 1380   3.256   4.342   7.048  1.2791 -0.7704 -1.5916
   11SAPS   C28 1381   3.127   4.514   7.041 -0.1476  0.1582  0.1777
   11SAPS   H8R 1382   3.109   4.608   6.986 -2.2309 -1.6153 -2.3691
   11SAPS   C29 1383   3.072   4.501   7.166  0.0975  0.5483  0.5662
   11SAPS   H9R 1384   3.045   4.596   7.213  1.7775  1.1223  0.4538
   11SAPS  C210 1385   3.091   4.374   7.254 -0.6686  0.4598  0.5293
   11SAPS  H10R 1386   3.177   4.390   7.322 -1.5995 -0.0614  1.8915
   11SAPS  H10S 1387   3.114   4.280   7.199 -3.6322 -0.2598  0.3307
   11SAPS  C211 1388   2.965   4.343   7.336  0.3684 -0.0209  0.2193
   11SAPS  H11R 1389   2.890   4.285   7.280 -1.7345  0.1516  2.6995
   11SAPS  C212 1390   2.939   4.383   7.461  0.0190  0.3360  0.4547
   11SAPS  H12R 1391   2.841   4.360   7.506  0.2082  0.0348  0.7217
   11SAPS  C213 1392   3.040   4.463   7.542  0.5329  0.1154  0.3919
   11SAPS  H13R 1393   3.055   4.561   7.491  1.2533 -0.6994 -1.0496
   11SAPS  H13S 1394   3.142   4.420   7.528  1.4382  2.0382  0.8594
   11SAPS  C214 1395   3.019   4.486   7.686 -0.2140 -0.8270 -0.6878
   11SAPS  H14R 1396   3.004   4.591   7.712  0.3371 -0.8853 -0.1179
   11SAPS  C215 1397   3.033   4.401   7.795 -0.6179 -0.0209  0.3829
   11SAPS  H15R 1398   3.002   4.430   7.896 -0.4271 -1.0126  0.7351
   11SAPS  C216 1399   3.077   4.257   7.782  0.4761  0.5069 -0.4950
   11SAPS  H16R 1400   3.188   4.255   7.784  0.4919  1.1064 -0.6034
   11SAPS  H16S 1401   3.037   4.209   7.690 -2.3468  2.1091 -0.2157
   11SAPS  C217 1402   3.030   4.185   7.902  0.5071 -0.5028 -0.1529
   11SAPS  H17R 1403   3.070   4.083   7.883 -2.8066 -1.7145 -1.2717
   11SAPS  H17S 1404   2.920   4.182   7.892  0.5388 -0.1965 -0.6147
   11SAPS  C218 1405   3.071   4.238   8.039  0.1648 -0.1712 -0.1295
   11SAPS  H18R 1406   3.007   4.322   8.071 -0.3666 -0.5408 -0.2092
   11SAPS  H18S 1407   3.172   4.283   8.037 -0.0946  0.4071 -0.3625
   11SAPS  C219 1408   3.079   4.133   8.151 -0.0473 -0.0052  0.3214
   11SAPS  H19R 1409   2.976   4.107   8.182  0.2515 -1.3499  0.2320
   11SAPS  H19S 1410   3.133   4.191   8.230  1.6163 -1.2693  0.1605
   11SAPS  C220 1411   3.152   4.001   8.123  0.3413 -0.2814 -0.2563
   11SAPS  H20R 1412   3.088   3.947   8.050 -2.3646 -0.5127  2.1006
   11SAPS  H20S 1413   3.148   3.930   8.208  0.9393  0.2305  0.2157
   11SAPS  H20T 1414   3.254   4.016   8.081 -0.9179  2.5033 -2.7022
   11SAPS   C33 1415   3.667   4.302   6.905 -0.2665  0.3465 -1.1019
   11SAPS   H3X 1416   3.708   4.204   6.937 -0.6423  0.5348 -0.0229
   11SAPS   H3Y 1417   3.557   4.301   6.918 -0.0417 -0.9394  1.0823
   11SAPS   C34 1418   3.740   4.395   7.011 -0.1424  0.0369  0.2436
   11SAPS   H4X 1419   3.699   4.496   6.988 -1.9326 -1.3610 -3.3773
   11SAPS   H4Y 1420   3.848   4.391   6.983 -0.5322 -1.2867 -1.1681
   11SAPS   C35 1421   3.711   4.368   7.160 -0.5891 -0.1997  0.2051
   11SAPS   H5X 1422   3.772   4.433   7.226 -0.3371  0.3747 -0.5792
   11SAPS   H5Y 1423   3.750   4.266   7.183 -1.6564 -0.8021 -0.5540
   11SAPS   C36 1424   3.564   4.384   7.213 -0.1283  0.0276  0.0291
   11SAPS   H6X 1425   3.497   4.332   7.141  0.6378 -1.1619  0.1405
   11SAPS   H6Y 1426   3.550   4.493   7.224  1.3286  0.1525  0.9758
   11SAPS   C37 1427   3.546   4.307   7.343 -0.0494 -0.2807 -0.3716
   11SAPS   H7X 1428   3.621   4.225   7.335  0.8485  0.6669 -2.1953
   11SAPS   H7Y 1429   3.440   4.279   7.358 -0.3706  0.2862 -1.4480
   11SAPS   C38 1430   3.598   4.380   7.466  0.4990 -0.5192 -0.9457
   11SAPS   H8X 1431   3.544   4.478   7.468  0.3340 -0.5836 -1.7000
   11SAPS   H8Y 1432   3.705   4.403   7.451  0.6569  0.1740  1.0605
   11SAPS   C39 1433   3.579   4.292   7.593 -0.4510  0.1315 -0.9554
   11SAPS   H9X 1434   3.645   4.203   7.586  0.2675  0.6193 -0.3996
   11SAPS   H9Y 1435   3.471   4.265   7.605 -0.5963  1.2973  0.6370
   11SAPS  C310 1436   3.614   4.364   7.724 -0.1776  0.3090 -0.5486
   11SAPS  H10X 1437   3.719   4.398   7.723 -0.1467  0.2596  0.5130
   11SAPS  H10Y 1438   3.617   4.275   7.791  1.0519 -0.2514 -1.3018
   11SAPS  C311 1439   3.518   4.468   7.782  0.0654 -0.4992 -0.5557
   11SAPS  H11X 1440   3.410   4.447   7.773  0.5162 -2.9617 -0.9661
   11SAPS  H11Y 1441   3.531   4.561   7.722  0.5314 -0.5395 -0.5231
   11SAPS  C312 1442   3.564   4.509   7.925  0.3815  0.7777  0.1968
   11SAPS  H12X 1443   3.565   4.620   7.928 -1.4040  0.8203  2.3580
   11SAPS  H12Y 1444   3.669   4.481   7.948 -0.8056 -3.3467  1.4217
   11SAPS  C313 1445   3.476   4.459   8.038  0.1951  0.0636  0.2629
   11SAPS  H13X 1446   3.369   4.453   8.009  0.5655  0.8766 -1.4054
   11SAPS  H13Y 1447   3.501   4.522   8.125  1.2849 -0.5975  0.4421
   11SAPS  C314 1448   3.498   4.309   8.077 -0.1722 -0.1643 -0.3987
   11SAPS  H14X 1449   3.606   4.283   8.086 -0.3366 -1.4861 -1.9333
   11SAPS  H14Y 1450   3.476   4.243   7.991 -0.6830 -0.5413  0.0168
   11SAPS  C315 1451   3.425   4.273   8.205 -0.0653  0.2103  0.3091
   11SAPS  H15X 1452   3.320   4.247   8.182 -0.5316  0.5943  1.9088
   11SAPS  H15Y 1453   3.414   4.365   8.266  3.1442  1.8528 -1.3531
   11SAPS  C316 1454   3.495   4.149   8.264 -0.0694  0.5545  0.2347
   11SAPS  H16X 1455   3.603   4.161   8.244 -0.3801 -1.8247 -3.8308
   11SAPS  H16Y 1456   3.458   4.057   8.216  1.1222  1.0961 -1.8412
   11SAPS  C317 1457   3.484   4.136   8.420  0.5538 -0.9540 -0.2610
   11SAPS  H17X 1458   3.507   4.031   8.445  0.9932 -0.4942  1.4015
   11SAPS  H17Y 1459   3.377   4.147   8.447  1.0246  1.5192  0.8777
   11SAPS  C318 1460   3.573   4.232   8.499 -0.7784 -0.4211  0.3919
   11SAPS  H18X 1461   3.562   4.226   8.609  0.8030  0.6962  0.6482
   11SAPS  H18Y 1462   3.556   4.339   8.475 -1.6782  0.1168  3.1137
   11SAPS  H18Z 1463   3.678   4.199   8.480 -0.5728 -0.4167  1.4551
   12SAPS     N 1464   3.817   4.865   5.764 -0.0842 -0.1273  0.2691
   12SAPS   HN1 1465   3.914   4.902   5.767 -0.1286 -0.0169  0.3353
   12SAPS   HN2 1466   3.806   4.808   5.677  1.2108  1.2952 -0.8682
   12SAPS   HN3 1467   3.748   4.941   5.748  0.0409 -0.0381  0.1566
   12SAPS   C12 1468   3.790   4.778   5.878  0.0713  0.8948 -0.0602
   12SAPS  H12A 1469   3.790   4.843   5.964 -2.8756 -1.0421  1.5622
   12SAPS   C13 1470   3.658   4.690   5.867 -0.0333 -0.5699  0.2112
   12SAPS  O13A 1471   3.586   4.694   5.759 -0.1048  0.2209  0.1355
   12SAPS  O13B 1472   3.611   4.632   5.966 -0.1186  0.0521  0.1206
   12SAPS   C11 1473   3.912   4.674   5.905  0.1858  0.2639  0.1097
   12SAPS  H11A 1474   3.917   4.610   5.814  1.6728  2.0130 -1.1090
   12SAPS  H11B 1475   3.886   4.605   5.988 -0.0054  0.7734  0.4697
   12SAPS     P 1476   4.075   4.800   6.067  0.0751  0.0456 -0.2594
   12SAPS   O13 1477   3.973   4.758   6.170  0.2349 -0.3043 -0.0072
   12SAPS   O14 1478   4.199   4.728   6.086  0.9896 -0.0545 -0.3170
   12SAPS   O12 1479   4.029   4.754   5.929 -0.7551 -0.0648  0.2314
   12SAPS   O11 1480   4.096   4.951   6.050 -0.1529  0.1380 -0.0350
   12SAPS    C1 1481   4.211   5.027   6.085  0.2136 -0.1457 -0.3641
   12SAPS    HA 1482   4.303   4.984   6.041  1.1383  0.2005  1.1575
   12SAPS    HB 1483   4.201   5.131   6.047  0.3826 -0.2080 -0.5823
   12SAPS    C2 1484   4.237   5.044   6.238 -0.1257 -0.0446  0.3057
   12SAPS    HS 1485   4.292   4.954   6.274  0.2650  0.2935  0.5691
   12SAPS   O21 1486   4.113   5.064   6.309  0.4052  0.1564 -0.3657
   12SAPS   C21 1487   4.108   5.002   6.425  0.0595  0.2150 -1.0737
   12SAPS   O22 1488   4.195   4.936   6.476 -0.0541  0.0095  0.0933
   12SAPS   C22 1489   3.986   5.048   6.504  0.1414 -0.0619  0.3100
   12SAPS   H2R 1490   3.988   5.158   6.518 -3.0755  0.0898  0.3601
   12SAPS   H2S 1491   3.898   5.019   6.443  0.9457  1.3542 -1.6386
   12SAPS    C3 1492   4.328   5.164   6.270 -0.2586  0.4098  0.3523
   12SAPS    HX 1493   4.277   5.256   6.233 -1.2145  0.0160  0.6499
   12SAPS    HY 1494   4.423   5.161   6.213  1.1309 -3.0240  2.5063
   12SAPS   O31 1495   4.367   5.178   6.414  0.0115 -0.3852  0.0975
   12SAPS   C31 1496   4.459   5.101   6.465  0.3727  0.1643 -0.3383
   12SAPS   O32 1497   4.525   5.019   6.407  0.2590  0.8538  0.3956
   12SAPS   C32 1498   4.486   5.127   6.617  0.2800  0.4382 -0.1653
   12SAPS   H2X 1499   4.417   5.207   6.651 -1.0953 -1.2798  1.2992
   12SAPS   H2Y 1500   4.592   5.162   6.621  1.6230 -2.5489 -3.6756
   12SAPS   C23 1501   3.973   4.958   6.636 -0.7799  0.2137 -0.2823
   12SAPS   H3R 1502   4.071   4.962   6.688 -1.4814  0.1848  1.0794
   12SAPS   H3S 1503   3.944   4.858   6.598 -2.8101  0.0188  1.6206
   12SAPS   C24 1504   3.857   5.005   6.729 -0.4086  0.7671 -0.1152
   12SAPS   H4R 1505   3.768   5.034   6.669 -1.2823  1.1552  1.3351
   12SAPS   H4S 1506   3.904   5.098   6.768  1.5950 -0.2613  0.0886
   12SAPS   C25 1507   3.797   4.917   6.827  0.3947 -0.1124 -0.1986
   12SAPS   H5R 1508   3.740   4.828   6.797  1.8577 -1.4010  0.6892
   12SAPS   C26 1509   3.807   4.933   6.955 -0.2131  0.4123  0.1247
   12SAPS   H6R 1510   3.765   4.851   7.016  2.5577 -1.2191 -0.0087
   12SAPS   C27 1511   3.886   5.040   7.024  0.1724  0.0065  0.5356
   12SAPS   H7R 1512   3.847   5.144   7.024  0.3235  0.0795  2.2288
   12SAPS   H7S 1513   3.986   5.044   6.975  1.9576 -0.3473  3.9067
   12SAPS   C28 1514   3.919   5.016   7.169 -0.1189  0.1172  0.0364
   12SAPS   H8R 1515   3.998   4.945   7.195  0.4860  0.6108 -0.4137
   12SAPS   C29 1516   3.860   5.082   7.277  0.6590  0.5137  0.1338
   12SAPS   H9R 1517   3.885   5.072   7.383  1.7340 -0.0066 -0.1528
   12SAPS  C210 1518   3.757   5.188   7.262  0.2755  0.2253  0.5555
   12SAPS  H10R 1519   3.698   5.180   7.169 -0.9802  1.4442  1.2129
   12SAPS  H10S 1520   3.810   5.285   7.246  0.2356  0.0840 -0.4915
   12SAPS  C211 1521   3.665   5.210   7.382  0.5204  0.6200  0.4495
   12SAPS  H11R 1522   3.562   5.184   7.353  2.0171 -2.5389 -2.7556
   12SAPS  C212 1523   3.688   5.277   7.497  0.3017  0.3947  0.1388
   12SAPS  H12R 1524   3.612   5.277   7.577 -0.8198  1.5325 -0.8810
   12SAPS  C213 1525   3.823   5.335   7.528 -0.0749  0.5245  0.1253
   12SAPS  H13R 1526   3.824   5.445   7.543 -1.2363  1.0080 -2.7765
   12SAPS  H13S 1527   3.884   5.326   7.435 -0.5709 -2.3727 -0.0267
   12SAPS  C214 1528   3.885   5.260   7.636 -0.5566  0.0720 -0.2668
   12SAPS  H14R 1529   3.908   5.154   7.615  0.1801  0.5859 -2.2586
   12SAPS  C215 1530   3.905   5.308   7.765 -0.2446  0.3150 -0.4090
   12SAPS  H15R 1531   3.975   5.251   7.828 -0.7092 -2.5900 -2.3521
   12SAPS  C216 1532   3.864   5.441   7.824 -0.1303  0.6904  0.7381
   12SAPS  H16R 1533   3.758   5.463   7.801  0.1717  1.0212 -0.3963
   12SAPS  H16S 1534   3.917   5.525   7.776 -0.0609 -0.4162 -1.2128
   12SAPS  C217 1535   3.864   5.462   7.980  0.2283  0.2933 -1.3147
   12SAPS  H17R 1536   3.819   5.561   8.003 -1.1672 -0.9163  1.6891
   12SAPS  H17S 1537   3.966   5.453   8.023 -0.9287  0.1900  1.6431
   12SAPS  C218 1538   3.791   5.353   8.073 -0.3694 -0.0539  0.4772
   12SAPS  H18R 1539   3.840   5.254   8.062 -1.0091 -0.0658 -3.4818
   12SAPS  H18S 1540   3.684   5.362   8.044 -0.7806  0.8096  2.1062
   12SAPS  C219 1541   3.796   5.407   8.213 -0.0991 -0.6756 -0.3033
   12SAPS  H19R 1542   3.741   5.503   8.225  1.0051 -0.1112  0.4536
   12SAPS  H19S 1543   3.896   5.441   8.247 -0.4011 -1.3242  1.3421
   12SAPS  C220 1544   3.719   5.323   8.313  0.6680  0.2952 -0.3779
   12SAPS  H20R 1545   3.708   5.371   8.413 -0.4087  1.2779 -0.9316
   12SAPS  H20S 1546   3.760   5.220   8.312  1.4136  0.5843 -0.4988
   12SAPS  H20T 1547   3.619   5.313   8.265  0.7175 -0.2396 -0.3724
   12SAPS   C33 1548   4.470   4.993   6.695 -0.4740 -0.7911 -0.2410
   12SAPS   H3X 1549   4.536   4.914   6.651 -1.8828 -1.9613 -0.3438
   12SAPS   H3Y 1550   4.364   4.960   6.685 -0.8740 -0.6967  2.8416
   12SAPS   C34 1551   4.509   4.985   6.845  0.2174 -0.5757  0.1128
   12SAPS   H4X 1552   4.618   4.994   6.863  0.4417 -2.7031  0.0730
   12SAPS   H4Y 1553   4.475   4.886   6.882 -1.3299 -0.5358 -1.1130
   12SAPS   C35 1554   4.437   5.085   6.940  0.6220 -0.0688 -0.3421
   12SAPS   H5X 1555   4.335   5.095   6.897  0.6126 -1.2845 -0.6320
   12SAPS   H5Y 1556   4.483   5.185   6.929  0.0959  0.4909  1.9588
   12SAPS   C36 1557   4.446   5.041   7.090  0.1276  0.0049  0.9082
   12SAPS   H6X 1558   4.549   5.056   7.130  1.0595 -0.7166 -1.1233
   12SAPS   H6Y 1559   4.419   4.935   7.105 -0.8772  0.4543  2.5439
   12SAPS   C37 1560   4.353   5.115   7.190  0.1040 -0.4124  0.2339
   12SAPS   H7X 1561   4.250   5.091   7.156  1.2189 -1.1766 -2.9681
   12SAPS   H7Y 1562   4.358   5.226   7.189 -1.6182 -0.2923  1.0786
   12SAPS   C38 1563   4.354   5.061   7.338  0.4811 -0.5597  0.7267
   12SAPS   H8X 1564   4.443   5.096   7.394  0.8043 -0.7420  0.3307
   12SAPS   H8Y 1565   4.338   4.951   7.341 -0.1465 -0.4486  2.2726
   12SAPS   C39 1566   4.236   5.112   7.413  1.0327 -0.1170  0.1802
   12SAPS   H9X 1567   4.141   5.083   7.364 -1.1127 -1.9171  4.8237
   12SAPS   H9Y 1568   4.234   5.223   7.417 -0.0230 -0.1495  2.6153
   12SAPS  C310 1569   4.229   5.078   7.561 -0.2419  0.1428 -0.0955
   12SAPS  H10X 1570   4.240   4.967   7.563  1.4872  0.0748 -3.9513
   12SAPS  H10Y 1571   4.136   5.111   7.611  1.2659  1.2015  2.1550
   12SAPS  C311 1572   4.348   5.137   7.640 -0.9051 -0.5553 -0.1843
   12SAPS  H11X 1573   4.359   5.233   7.584 -2.7753 -0.4750 -0.4807
   12SAPS  H11Y 1574   4.441   5.080   7.621 -1.5418 -0.9355 -2.4539
   12SAPS  C312 1575   4.344   5.171   7.790 -0.0071 -0.1232  0.3966
   12SAPS  H12X 1576   4.276   5.258   7.806 -0.8562 -0.5017 -1.0063
   12SAPS  H12Y 1577   4.446   5.211   7.810  0.6385 -1.3607 -0.3022
   12SAPS  C313 1578   4.307   5.055   7.880  0.1799  0.1206 -0.6674
   12SAPS  H13X 1579   4.252   4.982   7.817  1.9157 -0.4726 -1.5352
   12SAPS  H13Y 1580   4.232   5.082   7.958 -0.2400  1.0254 -1.3632
   12SAPS  C314 1581   4.430   4.975   7.935 -0.0456  0.3429 -0.1060
   12SAPS  H14X 1582   4.506   4.962   7.855 -0.2352  0.6547 -0.3392
   12SAPS  H14Y 1583   4.382   4.877   7.958 -0.7718  0.9230  0.9361
   12SAPS  C315 1584   4.493   5.054   8.048 -0.3520  0.5885 -0.4022
   12SAPS  H15X 1585   4.419   5.113   8.105 -1.0853 -0.9399  0.2773
   12SAPS  H15Y 1586   4.565   5.130   8.010  0.3489  1.2601  2.0831
   12SAPS  C316 1587   4.573   4.959   8.149  0.1327 -0.4213  0.3122
   12SAPS  H16X 1588   4.640   4.894   8.089  0.8430 -1.3993  2.0871
   12SAPS  H16Y 1589   4.500   4.890   8.197  0.5063 -0.7501  0.4106
   12SAPS  C317 1590   4.643   5.040   8.259  0.3389  1.0338  0.0819
   12SAPS  H17X 1591   4.572   5.106   8.314 -0.6134  0.1793 -0.0884
   12SAPS  H17Y 1592   4.723   5.105   8.217  1.6172 -1.1726 -1.1051
   12SAPS  C318 1593   4.707   4.942   8.358 -0.1796  0.0991  0.0634
   12SAPS  H18X 1594   4.789   4.888   8.305 -1.4941 -0.8491 -1.1010
   12SAPS  H18Y 1595   4.634   4.867   8.395  0.4401 -1.3697 -1.5352
   12SAPS  H18Z 1596   4.741   5.002   8.445 -0.6590 -0.1226  0.4060
   13SAPS     N 1597   4.253   1.741   6.106  0.2798 -0.3121 -0.1670
   13SAPS   HN1 1598   4.328   1.776   6.168  0.4611  0.3921 -0.7647
   13SAPS   HN2 1599   4.161   1.744   6.156  0.4670 -0.6694  0.2020
   13SAPS   HN3 1600   4.271   1.645   6.072  2.7269 -0.0447  0.2354
   13SAPS   C12 1601   4.243   1.841   5.989 -0.3629  0.5455 -0.6548
   13SAPS  H12A 1602   4.335   1.816   5.938  1.2181  1.4772  1.5321
   13SAPS   C13 1603   4.110   1.831   5.904 -0.1437  0.1352 -0.7720
   13SAPS  O13A 1604   4.022   1.743   5.936 -0.2525 -0.3404 -0.5507
   13SAPS  O13B 1605   4.086   1.912   5.818  0.2307 -0.1509  0.4801
   13SAPS   C11 1606   4.254   1.986   6.046  0.3851  0.9797 -0.2068
   13SAPS  H11A 1607   4.169   1.992   6.118  1.6646 -0.6959  1.5281
   13SAPS  H11B 1608   4.225   2.057   5.965 -2.1772  1.5049  1.0579
   13SAPS     P 1609   4.448   2.166   6.078 -0.3766  0.0774  0.4675
   13SAPS   O13 1610   4.591   2.147   6.111  0.2236  0.2724 -0.3521
   13SAPS   O14 1611   4.415   2.220   5.940 -0.0202  0.4277 -0.3096
   13SAPS   O12 1612   4.381   2.016   6.095 -0.0621 -0.6877  0.1001
   13SAPS   O11 1613   4.374   2.248   6.191  0.1132 -0.2225  0.0401
   13SAPS    C1 1614   4.322   2.174   6.305  0.1100  0.0417  0.1250
   13SAPS    HA 1615   4.220   2.136   6.283 -0.2483  0.6109  0.7652
   13SAPS    HB 1616   4.373   2.078   6.331  0.2807  0.4304  1.2816
   13SAPS    C2 1617   4.310   2.264   6.437  0.0415 -0.0839  0.3766
   13SAPS    HS 1618   4.233   2.337   6.406  0.9713 -0.1431 -2.2370
   13SAPS   O21 1619   4.437   2.317   6.452 -0.1530  0.1989 -0.5381
   13SAPS   C21 1620   4.439   2.440   6.494  0.3111  0.4029 -0.0381
   13SAPS   O22 1621   4.339   2.511   6.510 -0.3204 -0.3769  0.6247
   13SAPS   C22 1622   4.586   2.477   6.516  0.3633 -0.1182  0.3851
   13SAPS   H2R 1623   4.635   2.447   6.422 -1.5112 -1.1698 -0.3122
   13SAPS   H2S 1624   4.588   2.588   6.526 -0.2393  0.0263 -0.9398
   13SAPS    C3 1625   4.254   2.183   6.559 -0.0470  0.3148  0.1485
   13SAPS    HX 1626   4.333   2.107   6.577 -0.7562 -0.4043  0.2897
   13SAPS    HY 1627   4.164   2.138   6.512 -0.7117  2.4383 -0.7139
   13SAPS   O31 1628   4.233   2.270   6.671  0.5191  0.0970 -0.2917
   13SAPS   C31 1629   4.117   2.332   6.667  0.3672 -0.0558 -0.1164
   13SAPS   O32 1630   4.027   2.299   6.593 -0.2462  0.1127  0.4001
   13SAPS   C32 1631   4.115   2.445   6.774  0.2881  0.0977  0.1205
   13SAPS   H2X 1632   4.010   2.472   6.802  0.7050 -1.1195  3.1670
   13SAPS   H2Y 1633   4.154   2.540   6.731 -1.1392  1.6891  2.1097
   13SAPS   C23 1634   4.655   2.412   6.640  0.2746 -0.0873 -0.4324
   13SAPS   H3R 1635   4.755   2.458   6.649  0.8515 -1.6766  2.4693
   13SAPS   H3S 1636   4.668   2.302   6.633  2.2823  0.0503  0.5656
   13SAPS   C24 1637   4.571   2.440   6.763  0.0585 -0.3576 -0.3326
   13SAPS   H4R 1638   4.597   2.362   6.839 -1.9201 -1.6358 -0.8657
   13SAPS   H4S 1639   4.465   2.423   6.736 -0.4159 -0.3760  1.3846
   13SAPS   C25 1640   4.585   2.580   6.828  0.2884  0.3730  0.7721
   13SAPS   H5R 1641   4.544   2.663   6.768 -0.5089 -0.4343  0.1748
   13SAPS   C26 1642   4.633   2.611   6.949  0.0128  0.2204  0.3667
   13SAPS   H6R 1643   4.631   2.716   6.982 -2.5918 -0.4454  2.6165
   13SAPS   C27 1644   4.686   2.522   7.057 -0.2809  0.0527 -0.7325
   13SAPS   H7R 1645   4.750   2.436   7.027  0.1053  0.2895 -0.5944
   13SAPS   H7S 1646   4.596   2.472   7.097  0.9572  0.1160  2.3869
   13SAPS   C28 1647   4.766   2.601   7.164  0.0905  0.5226  0.0896
   13SAPS   H8R 1648   4.847   2.663   7.123  1.2071 -0.9036  0.0443
   13SAPS   C29 1649   4.762   2.600   7.300 -0.5240  0.9123 -1.0569
   13SAPS   H9R 1650   4.828   2.669   7.354  0.0190 -0.4615  0.0967
   13SAPS  C210 1651   4.672   2.525   7.398  0.5613 -1.1070 -0.6581
   13SAPS  H10R 1652   4.585   2.491   7.338 -0.8023  0.9749  0.0114
   13SAPS  H10S 1653   4.640   2.601   7.473  1.3979  0.6600 -2.0142
   13SAPS  C211 1654   4.737   2.410   7.464  0.3683  1.1365  0.0506
   13SAPS  H11R 1655   4.779   2.329   7.403 -2.2754  0.6239 -1.2672
   13SAPS  C212 1656   4.739   2.401   7.599 -0.5963 -0.6662  0.2585
   13SAPS  H12R 1657   4.788   2.310   7.638  1.4881 -0.5906 -1.9360
   13SAPS  C213 1658   4.697   2.506   7.708 -0.9496 -0.4429 -0.2788
   13SAPS  H13R 1659   4.686   2.452   7.804 -0.4956  0.8227  0.5032
   13SAPS  H13S 1660   4.596   2.551   7.698 -0.5100  0.6354  0.1288
   13SAPS  C214 1661   4.787   2.623   7.719 -0.3629  0.3490  0.0020
   13SAPS  H14R 1662   4.772   2.700   7.642 -1.0465  1.8758  1.6055
   13SAPS  C215 1663   4.883   2.645   7.814 -0.2056  0.8090  0.3439
   13SAPS  H15R 1664   4.940   2.740   7.816 -2.2799  2.1860 -1.4019
   13SAPS  C216 1665   4.904   2.553   7.932  0.0825  0.2283  0.0061
   13SAPS  H16R 1666   5.012   2.534   7.945  0.3492 -0.6697 -2.7647
   13SAPS  H16S 1667   4.878   2.453   7.892 -0.5240  1.2449 -2.3475
   13SAPS  C217 1668   4.843   2.587   8.067  0.0737  0.5556 -0.1138
   13SAPS  H17R 1669   4.875   2.679   8.121 -1.6944 -0.2742  2.5483
   13SAPS  H17S 1670   4.862   2.506   8.141 -0.8251 -2.3151 -2.8152
   13SAPS  C218 1671   4.687   2.585   8.074 -0.7454  0.5239  0.0029
   13SAPS  H18R 1672   4.644   2.492   8.033  0.2541  0.7611 -1.6803
   13SAPS  H18S 1673   4.640   2.669   8.019 -2.3060  1.3259  2.4035
   13SAPS  C219 1674   4.635   2.590   8.221 -0.0824 -0.0322 -0.4185
   13SAPS  H19R 1675   4.668   2.686   8.265 -0.1995 -0.2915  0.2381
   13SAPS  H19S 1676   4.676   2.503   8.276  0.5992  0.6382  0.1508
   13SAPS  C220 1677   4.480   2.594   8.226  0.5552  0.4234  0.3771
   13SAPS  H20R 1678   4.449   2.490   8.201  1.6146  0.0579  0.5399
   13SAPS  H20S 1679   4.439   2.656   8.144 -0.6105 -0.3780  0.3127
   13SAPS  H20T 1680   4.444   2.626   8.326  1.7417 -1.7935  1.5963
   13SAPS   C33 1681   4.192   2.410   6.907  0.2275 -0.6264 -0.2598
   13SAPS   H3X 1682   4.300   2.432   6.897  0.5293 -1.5900  0.6365
   13SAPS   H3Y 1683   4.166   2.303   6.922 -1.4198  0.1827  4.5071
   13SAPS   C34 1684   4.128   2.482   7.024 -0.0889 -0.3519 -0.8852
   13SAPS   H4X 1685   4.024   2.447   7.042 -0.3297  1.3305  1.3530
   13SAPS   H4Y 1686   4.128   2.592   7.008 -1.9886  0.9693  5.4821
   13SAPS   C35 1687   4.215   2.438   7.144 -0.1020 -0.0562 -0.0343
   13SAPS   H5X 1688   4.314   2.486   7.127 -0.1803 -0.8087 -3.2308
   13SAPS   H5Y 1689   4.221   2.327   7.143 -0.3765 -0.0895 -1.8010
   13SAPS   C36 1690   4.165   2.467   7.285 -0.7862 -0.1422  0.1493
   13SAPS   H6X 1691   4.067   2.417   7.296 -2.1994  2.6658  1.5466
   13SAPS   H6Y 1692   4.157   2.577   7.272 -0.2571 -0.4243 -3.7526
   13SAPS   C37 1693   4.262   2.422   7.390 -0.7609  0.5218  0.3974
   13SAPS   H7X 1694   4.350   2.490   7.388  0.7309 -1.1685  2.7925
   13SAPS   H7Y 1695   4.304   2.322   7.371  1.3544  1.8087 -2.2657
   13SAPS   C38 1696   4.216   2.440   7.533  0.1862 -0.4523  0.0395
   13SAPS   H8X 1697   4.139   2.360   7.543 -0.3366  0.0005 -0.2986
   13SAPS   H8Y 1698   4.156   2.533   7.544 -1.6702 -1.6441  0.6167
   13SAPS   C39 1699   4.338   2.436   7.621  0.0917  0.5580 -0.6696
   13SAPS   H9X 1700   4.436   2.456   7.572  0.8598 -2.0356 -0.3300
   13SAPS   H9Y 1701   4.352   2.331   7.655  1.3738  0.9719  0.1623
   13SAPS  C310 1702   4.332   2.534   7.735  0.4894 -0.6748 -0.2808
   13SAPS  H10X 1703   4.369   2.637   7.715  0.8706 -0.9853 -1.2891
   13SAPS  H10Y 1704   4.409   2.500   7.807 -0.4506 -0.5190  0.8183
   13SAPS  C311 1705   4.200   2.549   7.818 -0.2163  0.4907  0.5777
   13SAPS  H11X 1706   4.173   2.446   7.852 -1.4441 -0.3096 -2.4841
   13SAPS  H11Y 1707   4.111   2.590   7.765 -1.3138 -0.3086  1.7375
   13SAPS  C312 1708   4.214   2.640   7.935 -0.1165 -0.8804  0.0652
   13SAPS  H12X 1709   4.248   2.744   7.912 -1.4968 -0.4122  0.0682
   13SAPS  H12Y 1710   4.292   2.600   8.004 -3.1097 -3.1702  2.3558
   13SAPS  C313 1711   4.092   2.649   8.034 -0.3565  0.3015 -0.1401
   13SAPS  H13X 1712   4.058   2.551   8.073  0.6526  0.1540  0.4057
   13SAPS  H13Y 1713   3.998   2.690   7.989 -0.4686 -1.0352 -1.1896
   13SAPS  C314 1714   4.136   2.718   8.160 -0.0906 -0.4391 -0.7340
   13SAPS  H14X 1715   4.198   2.806   8.131  1.1414  0.0920  3.0232
   13SAPS  H14Y 1716   4.202   2.664   8.231 -0.1422  0.5637  0.0886
   13SAPS  C315 1717   4.015   2.761   8.244 -0.8691 -0.3834  0.0828
   13SAPS  H15X 1718   3.961   2.671   8.282 -0.9955 -0.8363 -1.1217
   13SAPS  H15Y 1719   3.948   2.816   8.174 -2.7950 -0.9985  1.3840
   13SAPS  C316 1720   4.043   2.852   8.371 -0.7598  0.3631  0.0642
   13SAPS  H16X 1721   4.086   2.791   8.453 -1.5291  0.4357  0.5317
   13SAPS  H16Y 1722   3.941   2.884   8.401 -1.1011  0.7642 -1.4289
   13SAPS  C317 1723   4.131   2.973   8.356 -0.5569  0.4798  0.1326
   13SAPS  H17X 1724   4.237   2.941   8.346 -0.6749  0.1028  0.0907
   13SAPS  H17Y 1725   4.132   3.033   8.450  0.7357 -0.9199  1.0638
   13SAPS  C318 1726   4.097   3.070   8.240  0.6034  0.0136  0.2635
   13SAPS  H18X 1727   4.176   3.148   8.237 -0.7290  1.5778  2.9079
   13SAPS  H18Y 1728   4.003   3.117   8.276 -1.6169 -2.7600 -1.4490
   13SAPS  H18Z 1729   4.092   3.010   8.147  0.1253  2.6298 -1.5049
   14SAPS     N 1730   4.993   5.185   6.047 -0.0625 -0.4523  0.0783
   14SAPS   HN1 1731   4.990   5.139   6.140 -1.9510  0.4504  0.5223
   14SAPS   HN2 1732   4.903   5.159   6.001  1.2161 -2.8996 -1.2396
   14SAPS   HN3 1733   5.064   5.140   5.986 -0.9073  0.7984 -1.9341
   14SAPS   C12 1734   5.009   5.332   6.052 -0.4558 -0.7787 -0.1757
   14SAPS  H12A 1735   5.098   5.355   6.108 -0.0456 -0.3515 -0.9999
   14SAPS   C13 1736   5.022   5.406   5.914  0.6983  0.2527  0.1216
   14SAPS  O13A 1737   5.034   5.341   5.811 -0.2390  0.1270  0.5927
   14SAPS  O13B 1738   5.043   5.532   5.916  0.7587 -0.4706 -0.1997
   14SAPS   C11 1739   4.899   5.394   6.133  0.1305  0.6214  0.2761
   14SAPS  H11A 1740   4.927   5.497   6.164 -0.8827  0.5725  1.3913
   14SAPS  H11B 1741   4.894   5.341   6.230 -1.5080 -1.1481 -0.7089
   14SAPS     P 1742   4.645   5.348   6.141  0.1276  0.0647  0.2905
   14SAPS   O13 1743   4.526   5.402   6.070  0.4620 -0.0789  0.1236
   14SAPS   O14 1744   4.661   5.199   6.151  0.4740  0.0206 -0.2747
   14SAPS   O12 1745   4.776   5.395   6.062  0.3728 -0.1648  0.0794
   14SAPS   O11 1746   4.660   5.407   6.284 -0.2085 -0.2802 -0.0958
   14SAPS    C1 1747   4.625   5.538   6.309  1.1371 -0.6507 -0.4331
   14SAPS    HA 1748   4.711   5.603   6.336  0.5297 -0.0845  0.1916
   14SAPS    HB 1749   4.580   5.589   6.221  3.3507  0.8618 -0.7665
   14SAPS    C2 1750   4.533   5.556   6.431 -0.7023  0.1545  0.1827
   14SAPS    HS 1751   4.528   5.665   6.453 -1.0057  0.3557 -0.8133
   14SAPS   O21 1752   4.592   5.479   6.540  0.1821  0.1947 -0.2021
   14SAPS   C21 1753   4.661   5.554   6.624  0.2720  0.3946  0.9043
   14SAPS   O22 1754   4.682   5.674   6.608 -0.2599  0.5085  0.0300
   14SAPS   C22 1755   4.710   5.466   6.741 -0.2416  0.0416  0.5959
   14SAPS   H2R 1756   4.631   5.389   6.754  0.6749 -0.9307  0.5644
   14SAPS   H2S 1757   4.804   5.421   6.703  0.2228  1.1208  0.4113
   14SAPS    C3 1758   4.387   5.517   6.413  0.4772  0.5410 -0.6551
   14SAPS    HX 1759   4.396   5.412   6.378 -0.5759  0.4818 -0.7904
   14SAPS    HY 1760   4.328   5.581   6.344 -0.1030  0.7720  0.0409
   14SAPS   O31 1761   4.316   5.526   6.544 -0.0731 -0.0034 -0.2165
   14SAPS   C31 1762   4.199   5.468   6.537  0.2997 -0.1780 -0.5095
   14SAPS   O32 1763   4.146   5.418   6.438  0.9673 -0.2311 -0.4098
   14SAPS   C32 1764   4.136   5.471   6.682 -0.0200  0.6883  0.7640
   14SAPS   H2X 1765   4.033   5.431   6.678 -0.6961  2.2706  1.5727
   14SAPS   H2Y 1766   4.142   5.580   6.706 -1.2634  0.6944  1.1088
   14SAPS   C23 1767   4.747   5.540   6.873 -0.1178 -0.7784 -0.2679
   14SAPS   H3R 1768   4.666   5.614   6.889 -1.3486 -1.4941 -2.7137
   14SAPS   H3S 1769   4.843   5.596   6.860 -0.2569 -0.6896 -0.9573
   14SAPS   C24 1770   4.765   5.456   6.999 -0.0198  0.0968 -0.4137
   14SAPS   H4R 1771   4.844   5.384   6.969  0.4037  0.9706 -1.4695
   14SAPS   H4S 1772   4.669   5.401   7.013  0.8200 -1.5030 -0.7416
   14SAPS   C25 1773   4.820   5.532   7.120  0.2245 -0.7100 -0.1919
   14SAPS   H5R 1774   4.889   5.612   7.090 -0.7242  0.4906  0.7586
   14SAPS   C26 1775   4.796   5.535   7.250  0.7130  1.6599 -0.0575
   14SAPS   H6R 1776   4.855   5.608   7.307  1.2561  0.7800  0.5233
   14SAPS   C27 1777   4.690   5.455   7.321  0.2046 -0.4763  0.6200
   14SAPS   H7R 1778   4.642   5.395   7.241  2.5018  3.1019 -3.8974
   14SAPS   H7S 1779   4.612   5.521   7.364 -2.2675 -0.7321 -3.0268
   14SAPS   C28 1780   4.741   5.359   7.427  0.4354  1.0559  0.2069
   14SAPS   H8R 1781   4.787   5.271   7.380 -0.2606  1.2421 -0.8709
   14SAPS   C29 1782   4.760   5.374   7.562  0.6848  0.1024  0.3437
   14SAPS   H9R 1783   4.811   5.289   7.610  0.4142  0.8779  2.0906
   14SAPS  C210 1784   4.729   5.493   7.648 -0.3680  0.4525  0.4746
   14SAPS  H10R 1785   4.700   5.586   7.596  0.1247  1.7489  2.4176
   14SAPS  H10S 1786   4.827   5.522   7.691  0.9024 -0.2307 -1.7873
   14SAPS  C211 1787   4.609   5.480   7.738  0.5243  0.0060 -0.3842
   14SAPS  H11R 1788   4.515   5.490   7.682  1.1895  2.7821 -1.1810
   14SAPS  C212 1789   4.608   5.445   7.872 -0.4884 -0.4864 -0.1424
   14SAPS  H12R 1790   4.508   5.450   7.917 -0.8067  0.0781 -0.8806
   14SAPS  C213 1791   4.729   5.434   7.968 -0.9182 -0.1757 -0.4085
   14SAPS  H13R 1792   4.814   5.391   7.912  0.8652  0.0693  1.9443
   14SAPS  H13S 1793   4.719   5.358   8.049  0.6868  0.0312  0.0116
   14SAPS  C214 1794   4.754   5.566   8.025 -0.6654 -0.5858 -0.3637
   14SAPS  H14R 1795   4.731   5.656   7.965 -1.0425  0.8755  1.8177
   14SAPS  C215 1796   4.809   5.593   8.148  0.4854  1.0540 -0.1721
   14SAPS  H15R 1797   4.818   5.697   8.183 -2.2784  2.2668 -2.6228
   14SAPS  C216 1798   4.847   5.492   8.263 -0.5148  0.0165 -0.8252
   14SAPS  H16R 1799   4.850   5.388   8.224 -0.6100 -0.2763 -0.0608
   14SAPS  H16S 1800   4.791   5.494   8.359  0.7267  1.2697 -0.0769
   14SAPS  C217 1801   5.002   5.488   8.310 -0.1088 -0.0398 -0.0261
   14SAPS  H17R 1802   5.018   5.584   8.363 -1.7575 -0.1551  0.7561
   14SAPS  H17S 1803   5.066   5.497   8.219  0.9426 -0.6363  0.6431
   14SAPS  C218 1804   5.037   5.354   8.383  0.1504  0.1704 -0.3369
   14SAPS  H18R 1805   5.013   5.265   8.321  1.9440 -0.9737  0.5076
   14SAPS  H18S 1806   4.970   5.355   8.472 -0.3819 -0.2009 -0.7249
   14SAPS  C219 1807   5.180   5.342   8.419 -0.4536  0.0526  0.1748
   14SAPS  H19R 1808   5.218   5.437   8.463 -0.2766 -0.2760  0.7492
   14SAPS  H19S 1809   5.251   5.335   8.334  0.5939 -0.7525  1.0797
   14SAPS  C220 1810   5.208   5.230   8.529 -0.0803  0.1991  0.3549
   14SAPS  H20R 1811   5.130   5.206   8.604  0.0944 -0.7274  0.2554
   14SAPS  H20S 1812   5.304   5.252   8.580  0.2664  1.2175 -0.6966
   14SAPS  H20T 1813   5.219   5.131   8.479 -0.1201  0.3437  0.0595
   14SAPS   C33 1814   4.208   5.372   6.781 -0.4467  0.0902 -0.2913
   14SAPS   H3X 1815   4.318   5.379   6.796 -0.5592 -1.6898  1.7143
   14SAPS   H3Y 1816   4.188   5.276   6.727 -2.2759 -0.1850  0.8036
   14SAPS   C34 1817   4.145   5.357   6.922  0.5960  0.6496  0.6813
   14SAPS   H4X 1818   4.186   5.266   6.971  0.3070  0.6338  0.8977
   14SAPS   H4Y 1819   4.036   5.336   6.916  1.0160 -1.7136  0.6141
   14SAPS   C35 1820   4.163   5.486   7.020 -0.4675  0.5158  0.2249
   14SAPS   H5X 1821   4.099   5.564   6.976 -0.4456  0.7130  0.5409
   14SAPS   H5Y 1822   4.271   5.510   7.008  1.0423 -4.1269  1.9327
   14SAPS   C36 1823   4.118   5.456   7.159  0.3133  0.0082 -0.8325
   14SAPS   H6X 1824   4.180   5.372   7.195  0.0953  0.8839  1.8027
   14SAPS   H6Y 1825   4.016   5.412   7.155  0.6414 -0.7637 -0.8505
   14SAPS   C37 1826   4.143   5.576   7.249 -0.0628  0.2768 -0.6057
   14SAPS   H7X 1827   4.086   5.669   7.227 -0.7465  0.5659  2.0426
   14SAPS   H7Y 1828   4.253   5.586   7.254  0.3713 -3.0578 -0.8077
   14SAPS   C38 1829   4.103   5.551   7.398 -0.1413 -0.2957 -0.0767
   14SAPS   H8X 1830   4.106   5.442   7.417 -1.1966  0.0419  2.4082
   14SAPS   H8Y 1831   4.001   5.592   7.412  0.5263  2.0136 -1.2479
   14SAPS   C39 1832   4.210   5.614   7.484  0.0763  0.0182  0.0483
   14SAPS   H9X 1833   4.213   5.722   7.455  1.0789 -0.0544 -0.1441
   14SAPS   H9Y 1834   4.311   5.579   7.457 -0.5676 -1.4935 -0.5197
   14SAPS  C310 1835   4.193   5.583   7.636 -0.7755  0.2914  0.0750
   14SAPS  H10X 1836   4.199   5.474   7.655  0.3752  0.2868 -0.2414
   14SAPS  H10Y 1837   4.085   5.604   7.652 -0.8630 -0.4717  0.5001
   14SAPS  C311 1838   4.263   5.673   7.742 -0.1524 -0.6027 -0.2911
   14SAPS  H11X 1839   4.226   5.777   7.732 -3.2601 -1.6159 -0.4137
   14SAPS  H11Y 1840   4.372   5.667   7.722  0.1574  1.0064  0.6950
   14SAPS  C312 1841   4.218   5.633   7.880  1.0593  0.2255 -0.0148
   14SAPS  H12X 1842   4.218   5.524   7.897 -1.8276  0.1378 -0.0161
   14SAPS  H12Y 1843   4.111   5.660   7.900  0.7579 -0.9715  0.0594
   14SAPS  C313 1844   4.298   5.706   7.985  0.3359  0.5377  0.2583
   14SAPS  H13X 1845   4.297   5.815   7.960  0.2606  0.6185  0.6025
   14SAPS  H13Y 1846   4.401   5.666   7.978 -0.2784 -1.0927  0.2883
   14SAPS  C314 1847   4.272   5.668   8.133  0.7668 -0.2203  0.3046
   14SAPS  H14X 1848   4.362   5.698   8.190  1.3740 -0.9211 -0.2498
   14SAPS  H14Y 1849   4.275   5.558   8.148  1.8288 -0.1996  0.2702
   14SAPS  C315 1850   4.132   5.721   8.175 -0.8359 -0.0835 -0.0172
   14SAPS  H15X 1851   4.048   5.657   8.140  0.5913 -2.0702  0.0099
   14SAPS  H15Y 1852   4.109   5.823   8.136  1.1639 -0.0232 -1.1539
   14SAPS  C316 1853   4.117   5.716   8.328 -0.6508 -0.0552 -0.6666
   14SAPS  H16X 1854   4.197   5.774   8.380 -1.3483  0.0575  0.3048
   14SAPS  H16Y 1855   4.135   5.612   8.364  0.5349  0.5251  0.5272
   14SAPS  C317 1856   3.986   5.766   8.377 -0.2497  0.2149 -0.1762
   14SAPS  H17X 1857   3.899   5.721   8.325  0.3901  1.6435 -2.6614
   14SAPS  H17Y 1858   3.989   5.874   8.352  4.2440  0.1621 -0.7233
   14SAPS  C318 1859   3.960   5.773   8.535 -0.5255  0.0500  0.0407
   14SAPS  H18X 1860   4.017   5.860   8.575  0.9801 -0.7460 -0.2924
   14SAPS  H18Y 1861   3.990   5.681   8.589 -2.1250  0.6119  1.9804
   14SAPS  H18Z 1862   3.852   5.797   8.546 -0.6080  0.2307 -1.0593
   15SAPS     N 1863   3.092   5.078   5.966  0.0548 -0.1108  0.2765
   15SAPS   HN1 1864   3.096   5.134   6.053  0.5014  1.5355 -0.7487
   15SAPS   HN2 1865   2.994   5.083   5.932 -0.5241  1.0409  1.9794
   15SAPS   HN3 1866   3.113   4.977   5.983 -1.2852 -0.3623  0.5445
   15SAPS   C12 1867   3.195   5.124   5.865  0.0819  0.4376 -0.0082
   15SAPS  H12A 1868   3.285   5.151   5.917  3.0290 -2.5408 -3.0972
   15SAPS   C13 1869   3.244   5.014   5.762 -0.0483  0.5832  0.4747
   15SAPS  O13A 1870   3.207   4.896   5.775 -0.2594  0.0074 -0.0479
   15SAPS  O13B 1871   3.346   5.041   5.693 -0.3458 -0.0702  0.0292
   15SAPS   C11 1872   3.142   5.245   5.784 -0.1016 -0.1288 -0.7796
   15SAPS  H11A 1873   3.040   5.213   5.752 -0.2306 -0.2744 -0.2282
   15SAPS  H11B 1874   3.199   5.262   5.690 -3.3905 -0.0623 -2.9403
   15SAPS     P 1875   3.263   5.461   5.880 -0.1712  0.2544 -0.0849
   15SAPS   O13 1876   3.390   5.413   5.816  0.3126  0.3842 -0.2672
   15SAPS   O14 1877   3.219   5.596   5.841 -0.2960 -0.0183  0.4826
   15SAPS   O12 1878   3.143   5.360   5.860 -0.9106  0.3677  0.4656
   15SAPS   O11 1879   3.277   5.444   6.039  0.0205 -0.3205  0.0159
   15SAPS    C1 1880   3.155   5.445   6.117  0.6487 -0.5533  0.4996
   15SAPS    HA 1881   3.095   5.534   6.088  1.6031  1.0932  3.2110
   15SAPS    HB 1882   3.097   5.351   6.111 -3.1070  1.3675  2.9493
   15SAPS    C2 1883   3.191   5.475   6.266  0.2369 -0.4414 -0.3701
   15SAPS    HS 1884   3.272   5.552   6.265 -0.6995  0.5930  0.5870
   15SAPS   O21 1885   3.236   5.359   6.328 -0.7918 -0.1518  0.0269
   15SAPS   C21 1886   3.367   5.336   6.334 -0.1300 -0.7373 -0.6608
   15SAPS   O22 1887   3.454   5.406   6.289 -0.0545 -0.5028 -0.4084
   15SAPS   C22 1888   3.379   5.192   6.388 -0.1668 -0.1279 -0.2105
   15SAPS   H2R 1889   3.293   5.179   6.457 -1.6319  1.7480 -1.6033
   15SAPS   H2S 1890   3.381   5.115   6.308  0.3624  0.7638 -1.0690
   15SAPS    C3 1891   3.071   5.539   6.338  0.2369 -0.4147 -0.7122
   15SAPS    HX 1892   2.988   5.464   6.332 -0.6731  0.5327 -0.2965
   15SAPS    HY 1893   3.042   5.634   6.288  2.5540  0.1199 -1.1218
   15SAPS   O31 1894   3.100   5.562   6.478 -0.1256  0.4792  0.9962
   15SAPS   C31 1895   3.068   5.466   6.567  0.3606  0.2378  0.1542
   15SAPS   O32 1896   3.025   5.354   6.540  0.0677 -0.7250  0.4813
   15SAPS   C32 1897   3.112   5.517   6.703 -0.5239  0.4423  0.0705
   15SAPS   H2X 1898   3.102   5.627   6.720  0.9247  0.4943  0.6708
   15SAPS   H2Y 1899   3.214   5.476   6.712 -1.7290 -3.0160 -0.3428
   15SAPS   C23 1900   3.506   5.188   6.479 -0.2890 -0.0863  0.4803
   15SAPS   H3R 1901   3.601   5.195   6.423  0.6262 -1.7290  1.7213
   15SAPS   H3S 1902   3.502   5.084   6.520 -0.7840 -0.2064  0.1402
   15SAPS   C24 1903   3.500   5.286   6.601 -0.1037 -0.0654  0.0194
   15SAPS   H4R 1904   3.401   5.270   6.649 -0.8709  2.4255 -0.5677
   15SAPS   H4S 1905   3.490   5.389   6.561  0.0559  0.4207  1.1858
   15SAPS   C25 1906   3.617   5.271   6.701 -0.3726  0.5108  0.9898
   15SAPS   H5R 1907   3.708   5.300   6.645  0.5065  0.0697  2.1498
   15SAPS   C26 1908   3.618   5.233   6.830 -0.0764  0.1223 -0.6349
   15SAPS   H6R 1909   3.715   5.235   6.880 -0.9906 -0.4221  1.2680
   15SAPS   C27 1910   3.504   5.197   6.926  0.0187 -0.1259  0.2142
   15SAPS   H7R 1911   3.418   5.255   6.885  2.1809  1.7000 -2.0739
   15SAPS   H7S 1912   3.507   5.249   7.024 -0.5880  0.3892 -0.0327
   15SAPS   C28 1913   3.481   5.045   6.918  0.1920 -0.6195  0.4846
   15SAPS   H8R 1914   3.492   4.998   6.819 -1.0963 -1.0521  0.5247
   15SAPS   C29 1915   3.447   4.953   7.008  0.2971  0.2718  0.4805
   15SAPS   H9R 1916   3.430   4.851   6.973 -2.9339  0.8672  0.0308
   15SAPS  C210 1917   3.430   4.977   7.154  0.2822 -0.7214 -0.2646
   15SAPS  H10R 1918   3.324   4.974   7.189  0.4354  3.6587  1.0653
   15SAPS  H10S 1919   3.457   5.081   7.182  0.8772 -0.4519 -1.7237
   15SAPS  C211 1920   3.520   4.874   7.231  0.0924  0.0694  0.0809
   15SAPS  H11R 1921   3.627   4.897   7.226 -0.2677  1.8817  0.0726
   15SAPS  C212 1922   3.479   4.778   7.317  0.1822  0.4340  0.4240
   15SAPS  H12R 1923   3.560   4.725   7.369 -0.1672  0.1298  0.6506
   15SAPS  C213 1924   3.333   4.750   7.362  0.0820 -0.3982  0.8376
   15SAPS  H13R 1925   3.288   4.676   7.293  2.1167  0.2650 -1.3429
   15SAPS  H13S 1926   3.268   4.839   7.348 -0.4836 -0.7448  1.2036
   15SAPS  C214 1927   3.321   4.710   7.507 -0.1040  0.2676 -0.7271
   15SAPS  H14R 1928   3.329   4.602   7.530  1.3945  0.0508 -2.1447
   15SAPS  C215 1929   3.304   4.797   7.609 -0.4414  0.4518  0.5723
   15SAPS  H15R 1930   3.315   4.755   7.710 -0.7719  0.5608  0.6543
   15SAPS  C216 1931   3.290   4.943   7.608  0.3018 -0.7662  0.0114
   15SAPS  H16R 1932   3.217   4.988   7.678 -0.6810 -1.9955 -0.1874
   15SAPS  H16S 1933   3.278   4.987   7.507  0.2601  0.5907  0.5862
   15SAPS  C217 1934   3.431   4.989   7.640 -0.1127 -0.2123  0.5539
   15SAPS  H17R 1935   3.439   5.098   7.622 -0.4101 -0.2375  0.2491
   15SAPS  H17S 1936   3.510   4.957   7.568 -0.6737  1.7700 -1.0340
   15SAPS  C218 1937   3.467   4.967   7.786 -0.0686  0.1637  0.3193
   15SAPS  H18R 1938   3.525   4.876   7.812 -1.0166 -0.8667 -1.0599
   15SAPS  H18S 1939   3.369   4.972   7.839 -0.3255 -1.7675  0.0769
   15SAPS  C219 1940   3.557   5.078   7.844 -0.5704 -0.1790 -0.4582
   15SAPS  H19R 1941   3.509   5.178   7.836  0.6479  0.3990 -0.7275
   15SAPS  H19S 1942   3.655   5.083   7.793 -1.0100  0.9167 -1.2450
   15SAPS  C220 1943   3.575   5.062   8.000 -0.1347  0.5349 -0.2200
   15SAPS  H20R 1944   3.476   5.063   8.052  0.2358  1.2835  0.4870
   15SAPS  H20S 1945   3.636   5.148   8.034 -2.9321  2.0644  1.3663
   15SAPS  H20T 1946   3.636   4.974   8.029 -0.0779  0.4575 -0.5737
   15SAPS   C33 1947   3.037   5.449   6.820  0.9673  0.2730  0.1458
   15SAPS   H3X 1948   3.000   5.347   6.795  0.8862  0.2823  0.2312
   15SAPS   H3Y 1949   2.946   5.507   6.846  0.6953  0.4234 -1.0588
   15SAPS   C34 1950   3.132   5.439   6.945  0.6802  0.3553  0.6426
   15SAPS   H4X 1951   3.152   5.548   6.957 -3.7991  1.6786 -1.4487
   15SAPS   H4Y 1952   3.220   5.378   6.916 -0.0649 -1.0810  1.3023
   15SAPS   C35 1953   3.071   5.382   7.079  0.2667  0.2298  0.2175
   15SAPS   H5X 1954   3.058   5.272   7.075  3.5934 -0.2883  0.6864
   15SAPS   H5Y 1955   2.972   5.431   7.088  0.6575  0.7100  2.2712
   15SAPS   C36 1956   3.158   5.414   7.199  0.4791 -0.5045 -1.1772
   15SAPS   H6X 1957   3.131   5.518   7.230  0.4300 -0.3202 -1.8239
   15SAPS   H6Y 1958   3.266   5.404   7.175  0.0636 -0.9960 -2.9671
   15SAPS   C37 1959   3.112   5.328   7.322 -0.0785 -0.6237  0.0360
   15SAPS   H7X 1960   3.132   5.222   7.295  1.1298 -1.3207  3.2177
   15SAPS   H7Y 1961   3.002   5.322   7.336 -0.0130 -3.7557 -0.2061
   15SAPS   C38 1962   3.184   5.367   7.454 -0.2063  0.2721 -0.0052
   15SAPS   H8X 1963   3.166   5.476   7.463 -0.6567  0.4995 -2.7386
   15SAPS   H8Y 1964   3.295   5.363   7.454  0.0408  3.8780  2.0196
   15SAPS   C39 1965   3.130   5.308   7.584  0.3887 -0.0863 -0.7948
   15SAPS   H9X 1966   3.142   5.197   7.591  2.6752  0.2252  1.8451
   15SAPS   H9Y 1967   3.023   5.337   7.586 -0.0166 -1.2930 -2.3806
   15SAPS  C310 1968   3.214   5.357   7.711 -0.1096 -0.0583  0.1264
   15SAPS  H10X 1969   3.180   5.463   7.722 -2.4581 -0.6472 -0.7712
   15SAPS  H10Y 1970   3.322   5.354   7.688 -0.1548  0.4871 -0.1840
   15SAPS  C311 1971   3.188   5.278   7.837 -0.7129 -0.4493 -0.7537
   15SAPS  H11X 1972   3.226   5.174   7.831 -0.1374 -0.2530 -0.5668
   15SAPS  H11Y 1973   3.079   5.279   7.857 -0.9423  2.5121 -1.6121
   15SAPS  C312 1974   3.254   5.341   7.965 -0.3470 -0.1998  0.1088
   15SAPS  H12X 1975   3.214   5.443   7.984 -1.5318 -0.0262 -2.7792
   15SAPS  H12Y 1976   3.365   5.345   7.953 -0.2984 -2.3479 -0.5362
   15SAPS  C313 1977   3.233   5.254   8.087  0.7305  1.1612 -0.1536
   15SAPS  H13X 1978   3.303   5.168   8.080 -1.2214 -0.4347 -0.8656
   15SAPS  H13Y 1979   3.130   5.216   8.104  1.3284 -1.1169 -1.2201
   15SAPS  C314 1980   3.272   5.330   8.206  0.4982  0.1220 -0.0952
   15SAPS  H14X 1981   3.197   5.412   8.210  1.6972  1.2082  1.7634
   15SAPS  H14Y 1982   3.371   5.379   8.198 -0.0567  1.1143 -1.3333
   15SAPS  C315 1983   3.259   5.256   8.342 -0.0236 -0.1608 -0.9583
   15SAPS  H15X 1984   3.162   5.201   8.339 -0.5544  0.4205  2.1485
   15SAPS  H15Y 1985   3.266   5.323   8.430  1.7337 -0.8279 -0.5420
   15SAPS  C316 1986   3.368   5.148   8.369 -0.9289 -0.0242  0.3779
   15SAPS  H16X 1987   3.463   5.199   8.395  0.0633 -0.8386 -1.4837
   15SAPS  H16Y 1988   3.396   5.088   8.279 -0.1692  1.4097 -0.3707
   15SAPS  C317 1989   3.343   5.048   8.481  0.5263 -0.0683  0.6679
   15SAPS  H17X 1990   3.273   5.091   8.555 -0.4895  0.3090 -0.4835
   15SAPS  H17Y 1991   3.440   5.023   8.531  1.3464 -0.4349 -1.0283
   15SAPS  C318 1992   3.266   4.926   8.430 -0.4175 -0.0337  0.1762
   15SAPS  H18X 1993   3.211   4.874   8.512 -0.1202  1.8837  1.6453
   15SAPS  H18Y 1994   3.335   4.851   8.385 -0.1695 -0.5969  1.4385
   15SAPS  H18Z 1995   3.188   4.958   8.358  1.2272  0.1621 -1.6104
   16SAPS     N 1996   6.356   5.835   6.353 -0.2136  0.1819 -0.0137
   16SAPS   HN1 1997   6.281   5.838   6.426  0.1298 -1.1257  0.4171
   16SAPS   HN2 1998   6.337   5.755   6.290  2.0914 -0.2315 -0.2746
   16SAPS   HN3 1999   6.444   5.809   6.402 -0.3688 -0.9510 -0.3242
   16SAPS   C12 2000   6.385   5.960   6.284 -0.0347 -0.1073  0.0748
   16SAPS  H12A 2001   6.489   5.964   6.258  0.2650  0.5831  1.3437
   16SAPS   C13 2002   6.304   5.967   6.147  0.3340  0.5092 -0.7444
   16SAPS  O13A 2003   6.192   5.910   6.141 -0.0614 -0.2216  0.8831
   16SAPS  O13B 2004   6.343   6.048   6.058  0.3017  0.3533  0.3800
   16SAPS   C11 2005   6.340   6.066   6.378  0.2022 -0.3230  0.3261
   16SAPS  H11A 2006   6.230   6.073   6.392 -0.0890  0.1895 -1.9057
   16SAPS  H11B 2007   6.358   6.161   6.324 -1.3203 -0.5801 -0.7054
   16SAPS     P 2008   6.497   6.176   6.564 -0.2643  0.5758  0.3614
   16SAPS   O13 2009   6.631   6.135   6.513  0.1311 -0.7844  0.0744
   16SAPS   O14 2010   6.439   6.308   6.540 -0.0749  0.0542  0.7601
   16SAPS   O12 2011   6.401   6.068   6.504  0.1056 -0.1441 -0.6129
   16SAPS   O11 2012   6.510   6.147   6.715  0.5140  0.7643 -0.3408
   16SAPS    C1 2013   6.385   6.165   6.798  0.3220 -0.4287  0.0141
   16SAPS    HA 2014   6.394   6.250   6.868  0.9041 -2.3168  2.3901
   16SAPS    HB 2015   6.294   6.186   6.739 -0.8041 -0.7928  1.5373
   16SAPS    C2 2016   6.347   6.052   6.895 -0.3438  0.2525  0.6386
   16SAPS    HS 2017   6.253   6.083   6.945 -2.1835 -0.6371 -2.0435
   16SAPS   O21 2018   6.462   6.029   6.981 -0.2410 -0.0474 -0.3195
   16SAPS   C21 2019   6.459   6.117   7.079  0.7011 -0.0179 -0.0313
   16SAPS   O22 2020   6.365   6.196   7.104  0.0367  0.4604 -0.0285
   16SAPS   C22 2021   6.585   6.103   7.177 -0.2624 -1.0684  0.1617
   16SAPS   H2R 2022   6.670   6.129   7.110 -0.5801 -0.4671 -0.0125
   16SAPS   H2S 2023   6.581   6.192   7.242  1.6188  0.5018 -1.7480
   16SAPS    C3 2024   6.309   5.923   6.826  0.0534 -0.3911  0.2860
   16SAPS    HX 2025   6.398   5.884   6.772  0.2162  0.3029  0.0530
   16SAPS    HY 2026   6.227   5.931   6.752  1.3196 -0.7879 -1.2017
   16SAPS   O31 2027   6.290   5.824   6.928 -0.4719 -0.1763  0.1140
   16SAPS   C31 2028   6.319   5.700   6.905  0.0168 -0.3241  0.6299
   16SAPS   O32 2029   6.346   5.654   6.793  0.8617 -0.0882 -0.2248
   16SAPS   C32 2030   6.338   5.618   7.031  0.3704  0.2860 -0.0138
   16SAPS   H2X 2031   6.234   5.604   7.068  0.2897  2.8513  0.9104
   16SAPS   H2Y 2032   6.401   5.672   7.105 -1.2215  0.7622  1.0332
   16SAPS   C23 2033   6.605   5.972   7.241 -0.5507  0.2715 -0.0936
   16SAPS   H3R 2034   6.693   5.976   7.308 -0.2483 -0.3455 -0.4446
   16SAPS   H3S 2035   6.637   5.905   7.158  0.5270  0.0409  0.4907
   16SAPS   C24 2036   6.469   5.905   7.296 -0.2994  0.4449  0.7754
   16SAPS   H4R 2037   6.501   5.804   7.329 -0.6904  0.0283 -0.0889
   16SAPS   H4S 2038   6.402   5.876   7.212  0.5810 -1.1724  0.5784
   16SAPS   C25 2039   6.417   5.994   7.400  0.2902  0.4114  0.1335
   16SAPS   H5R 2040   6.352   6.080   7.380 -0.3817 -0.3425 -0.9777
   16SAPS   C26 2041   6.456   5.987   7.532 -0.5375 -0.6760  0.2238
   16SAPS   H6R 2042   6.398   6.044   7.606 -0.6519 -1.0594  0.4320
   16SAPS   C27 2043   6.552   5.900   7.600 -0.3472  0.3207  0.1268
   16SAPS   H7R 2044   6.612   5.961   7.670  0.6824 -0.9686  0.3898
   16SAPS   H7S 2045   6.633   5.876   7.527 -2.1673  1.8884 -2.6385
   16SAPS   C28 2046   6.488   5.783   7.673  0.7620  0.7394  0.0283
   16SAPS   H8R 2047   6.476   5.691   7.615  0.6542  0.3388  0.6776
   16SAPS   C29 2048   6.467   5.782   7.807  0.3966 -0.4740  0.4938
   16SAPS   H9R 2049   6.415   5.697   7.853 -0.6973  0.5563  1.2302
   16SAPS  C210 2050   6.503   5.881   7.921  0.2837 -0.1726 -0.1173
   16SAPS  H10R 2051   6.422   5.956   7.910  0.4879  0.1493  0.5155
   16SAPS  H10S 2052   6.596   5.935   7.892  1.1749 -1.5612  0.0885
   16SAPS  C211 2053   6.503   5.844   8.063  0.3340  0.3277  0.1667
   16SAPS  H11R 2054   6.597   5.852   8.118  0.3211  1.7009  0.0254
   16SAPS  C212 2055   6.393   5.796   8.129  0.3787  0.2949 -0.3811
   16SAPS  H12R 2056   6.408   5.771   8.235  0.3743 -0.4045 -0.5454
   16SAPS  C213 2057   6.257   5.774   8.073  1.3338 -0.0132 -0.0393
   16SAPS  H13R 2058   6.252   5.796   7.964  0.9121 -2.3551 -0.5466
   16SAPS  H13S 2059   6.187   5.849   8.116  0.1332 -0.7020 -0.7351
   16SAPS  C214 2060   6.197   5.633   8.097 -0.5664 -0.3377  0.0190
   16SAPS  H14R 2061   6.238   5.584   8.186  2.7325  2.2207  0.0976
   16SAPS  C215 2062   6.125   5.560   8.012  0.1264 -0.7379  0.0464
   16SAPS  H15R 2063   6.090   5.461   8.046 -1.1420 -0.7552 -1.1890
   16SAPS  C216 2064   6.068   5.603   7.879 -0.3102 -0.5339 -0.0748
   16SAPS  H16R 2065   6.126   5.695   7.854 -0.2284 -0.1416  1.4394
   16SAPS  H16S 2066   5.965   5.642   7.893 -0.3515 -0.5748 -0.2642
   16SAPS  C217 2067   6.076   5.482   7.792 -0.1549  0.7582 -0.4220
   16SAPS  H17R 2068   6.033   5.391   7.840  0.3233  1.7065  1.9755
   16SAPS  H17S 2069   6.184   5.468   7.767 -0.2102 -0.9080  0.1180
   16SAPS  C218 2070   6.013   5.492   7.657  0.3090  0.1378  0.1355
   16SAPS  H18R 2071   6.049   5.582   7.601 -0.9348  1.6845  1.6924
   16SAPS  H18S 2072   5.905   5.513   7.669  0.3703  0.9003 -0.5232
   16SAPS  C219 2073   6.016   5.367   7.569 -0.4074 -0.1611 -0.5963
   16SAPS  H19R 2074   5.957   5.281   7.608  2.6061 -2.0610  0.0383
   16SAPS  H19S 2075   6.118   5.324   7.575 -0.8962 -1.1615  1.8137
   16SAPS  C220 2076   5.978   5.395   7.418  0.4435  0.7503 -0.2991
   16SAPS  H20R 2077   6.038   5.474   7.368  1.4410  1.2548  1.5912
   16SAPS  H20S 2078   5.870   5.420   7.411  0.0108 -0.5862  0.9995
   16SAPS  H20T 2079   6.003   5.299   7.369  1.0382  0.6000  0.2764
   16SAPS   C33 2080   6.371   5.467   7.001 -1.0927  0.1207  0.7983
   16SAPS   H3X 2081   6.473   5.451   6.962 -1.1723  0.7563  0.3173
   16SAPS   H3Y 2082   6.299   5.433   6.924 -0.8187  3.1347 -0.9182
   16SAPS   C34 2083   6.355   5.371   7.119 -0.1419 -0.3224 -0.0836
   16SAPS   H4X 2084   6.395   5.271   7.095  1.4286  0.3318 -0.3042
   16SAPS   H4Y 2085   6.247   5.370   7.144  0.1466 -0.7225  1.2739
   16SAPS   C35 2086   6.422   5.436   7.237 -0.3873  0.7813  0.1838
   16SAPS   H5X 2087   6.367   5.527   7.267 -0.7925 -0.2401  2.8134
   16SAPS   H5Y 2088   6.527   5.465   7.213 -0.0070 -0.5760  0.1245
   16SAPS   C36 2089   6.429   5.342   7.355  0.5721  0.3873 -0.0133
   16SAPS   H6X 2090   6.504   5.264   7.330  0.2230  0.4713 -1.3948
   16SAPS   H6Y 2091   6.330   5.304   7.387  0.6477 -1.2500 -1.5503
   16SAPS   C37 2092   6.472   5.421   7.484 -0.6970 -0.0651 -0.2488
   16SAPS   H7X 2093   6.426   5.522   7.481  0.4660  0.4882  0.1118
   16SAPS   H7Y 2094   6.582   5.433   7.485 -0.1500 -3.8291  1.1502
   16SAPS   C38 2095   6.446   5.348   7.613 -0.1359 -0.2916 -0.9362
   16SAPS   H8X 2096   6.501   5.252   7.602  0.6695 -0.2227  1.8294
   16SAPS   H8Y 2097   6.339   5.318   7.606  0.1206 -1.0453 -1.7513
   16SAPS   C39 2098   6.482   5.421   7.736  0.9115 -0.1550  0.0250
   16SAPS   H9X 2099   6.402   5.497   7.747 -1.3158 -1.9784 -2.1894
   16SAPS   H9Y 2100   6.581   5.471   7.723  0.9525  0.9416  3.6100
   16SAPS  C310 2101   6.485   5.334   7.866 -0.1199 -0.3640  0.1355
   16SAPS  H10X 2102   6.559   5.252   7.855  0.5794  0.2296  0.3607
   16SAPS  H10Y 2103   6.387   5.285   7.883 -1.5591  2.6714  1.2854
   16SAPS  C311 2104   6.514   5.409   7.994 -0.3803 -0.0854  0.8660
   16SAPS  H11X 2105   6.422   5.459   8.030  0.1914  2.5412 -0.9941
   16SAPS  H11Y 2106   6.597   5.480   7.974 -0.8062  0.2314  0.2143
   16SAPS  C312 2107   6.559   5.320   8.110 -0.3527 -0.3327 -0.0539
   16SAPS  H12X 2108   6.654   5.281   8.069  1.2711  1.8627  1.3763
   16SAPS  H12Y 2109   6.491   5.232   8.119  0.0881 -0.4899  2.9608
   16SAPS  C313 2110   6.577   5.396   8.236 -0.0613 -0.8793  0.4087
   16SAPS  H13X 2111   6.477   5.417   8.280  0.7682  0.0130  1.9721
   16SAPS  H13Y 2112   6.619   5.496   8.211  0.7778 -0.3891  3.3895
   16SAPS  C314 2113   6.680   5.325   8.325  0.5186 -0.2862 -0.7292
   16SAPS  H14X 2114   6.775   5.331   8.269  0.4012  1.1325 -0.8128
   16SAPS  H14Y 2115   6.645   5.220   8.329 -3.4220  0.8934  2.3667
   16SAPS  C315 2116   6.684   5.381   8.467 -0.0839  0.1594 -0.0600
   16SAPS  H15X 2117   6.599   5.362   8.536  1.4315  0.3303  1.9540
   16SAPS  H15Y 2118   6.698   5.491   8.470  0.7314  0.0704 -0.3574
   16SAPS  C316 2119   6.794   5.309   8.547 -0.3132 -0.1192 -0.5109
   16SAPS  H16X 2120   6.886   5.310   8.484 -1.0208 -0.3056 -1.5909
   16SAPS  H16Y 2121   6.766   5.202   8.558 -0.8738  0.1129  0.3555
   16SAPS  C317 2122   6.815   5.371   8.685 -0.4525 -0.0675 -0.3116
   16SAPS  H17X 2123   6.839   5.478   8.671  4.1980 -1.1073 -2.0262
   16SAPS  H17Y 2124   6.912   5.332   8.723 -1.2123 -1.6828  0.0487
   16SAPS  C318 2125   6.703   5.348   8.783 -0.6076 -0.2058  0.5697
   16SAPS  H18X 2126   6.715   5.417   8.869 -0.8273  1.0238 -0.3581
   16SAPS  H18Y 2127   6.690   5.242   8.812 -1.2773 -0.3377 -0.1664
   16SAPS  H18Z 2128   6.600   5.380   8.757 -1.1093 -2.3323 -0.2762
   17SAPC     N 2129   1.312   3.972  10.680  0.5559  0.3940  0.0768
   17SAPC   C12 2130   1.305   3.949  10.526 -0.6647  0.0931  0.4314
   17SAPC  H12A 2131   1.300   4.041  10.470 -0.7281 -1.0825 -1.6005
   17SAPC  H12B 2132   1.214   3.897  10.500  0.1190 -1.1793  0.1346
   17SAPC   C13 2133   1.181   4.046  10.713 -0.3494  0.1550  0.0581
   17SAPC  H13A 2134   1.150   4.122  10.643  1.4578  1.0888  0.2180
   17SAPC  H13B 2135   1.103   3.971  10.709 -1.8196  1.6056  0.6763
   17SAPC  H13C 2136   1.199   4.077  10.815 -0.6362  2.3475 -0.5009
   17SAPC   C14 2137   1.327   3.849  10.750 -0.0051  0.5081 -0.2799
   17SAPC  H14A 2138   1.409   3.792  10.711 -0.1688  0.0492  0.0444
   17SAPC  H14B 2139   1.353   3.862  10.854 -0.6777 -0.6457  0.0490
   17SAPC  H14C 2140   1.243   3.782  10.742  1.6558 -1.6451 -0.2932
   17SAPC   C15 2141   1.428   4.055  10.721 -0.1824 -0.3018 -0.2484
   17SAPC  H15A 2142   1.518   4.019  10.675  0.5529  1.0394  0.0692
   17SAPC  H15B 2143   1.416   4.155  10.683 -0.0608 -0.6309 -1.1581
   17SAPC  H15C 2144   1.432   4.056  10.829 -0.5550 -1.7095 -0.2096
   17SAPC   C11 2145   1.424   3.872  10.467 -0.9687  0.0783  0.3377
   17SAPC  H11A 2146   1.399   3.836  10.365  0.1627  0.8636 -0.2394
   17SAPC  H11B 2147   1.439   3.779  10.525  1.1715  0.1448 -0.0390
   17SAPC     P 2148   1.564   4.072  10.364 -0.0804  0.1299 -0.5171
   17SAPC   O13 2149   1.473   4.060  10.251  0.7553 -0.2162 -0.2054
   17SAPC   O14 2150   1.555   4.192  10.449  0.3034 -0.6522 -0.5416
   17SAPC   O12 2151   1.554   3.943  10.452 -0.0353 -0.4383  0.3200
   17SAPC   O11 2152   1.714   4.063  10.318  0.4074  0.1517  0.2080
   17SAPC    C1 2153   1.767   3.962  10.227 -0.0187  0.6942 -1.0141
   17SAPC    HA 2154   1.853   3.911  10.276 -1.0332 -0.1709 -0.1035
   17SAPC    HB 2155   1.688   3.890  10.197 -2.6157  2.8037  0.3218
   17SAPC    C2 2156   1.825   4.044  10.109 -0.0253  0.2953  0.5547
   17SAPC    HS 2157   1.865   4.139  10.149 -0.3806  0.4029  0.6613
   17SAPC   O21 2158   1.717   4.067  10.014 -0.1433 -0.0154 -0.2808
   17SAPC   C21 2159   1.684   4.192   9.995  0.4106 -0.9412 -0.0363
   17SAPC   O22 2160   1.751   4.284  10.032 -0.1541 -0.4804  0.7666
   17SAPC   C22 2161   1.544   4.200   9.916  0.0793 -0.9461 -0.7790
   17SAPC   H2R 2162   1.568   4.174   9.810 -0.5583 -2.9451 -0.4848
   17SAPC   H2S 2163   1.493   4.106   9.948  0.7781 -1.7691 -1.9806
   17SAPC    C3 2164   1.950   3.976  10.035  0.6159 -0.0304 -1.1643
   17SAPC    HX 2165   1.931   3.868  10.017  0.2890  0.3444 -3.2611
   17SAPC    HY 2166   2.037   3.986  10.104 -0.2769  2.4906 -0.3250
   17SAPC   O31 2167   1.968   4.040   9.907 -0.3271 -0.3134 -0.1959
   17SAPC   C31 2168   2.011   4.170   9.912 -0.6111 -0.0677  0.0679
   17SAPC   O32 2169   2.042   4.237  10.008  0.3275 -0.1123 -0.3744
   17SAPC   C32 2170   2.038   4.204   9.766 -0.9069  0.0764  0.0576
   17SAPC   H2X 2171   1.959   4.164   9.698  0.5309 -0.5661 -1.3102
   17SAPC   H2Y 2172   2.129   4.148   9.735 -0.6500  0.2321  0.5220
   17SAPC   C23 2173   1.460   4.327   9.940 -0.8365  0.1949  0.5124
   17SAPC   H3R 2174   1.527   4.413   9.918 -1.9172  0.9019 -0.0771
   17SAPC   H3S 2175   1.437   4.325  10.049 -4.2780 -1.5942 -0.0925
   17SAPC   C24 2176   1.319   4.332   9.875  0.2815  0.1990  1.3667
   17SAPC   H4R 2177   1.259   4.420   9.906 -0.2850  0.5231 -0.5573
   17SAPC   H4S 2178   1.256   4.246   9.907 -1.2079  0.6681 -0.1694
   17SAPC   C25 2179   1.351   4.340   9.724 -0.4081 -0.3829 -0.1304
   17SAPC   H5R 2180   1.412   4.431   9.707 -1.2149  0.4018  1.0354
   17SAPC   C26 2181   1.318   4.252   9.630 -0.1527 -0.1233 -0.0591
   17SAPC   H6R 2182   1.361   4.283   9.533  3.6273  0.4601  1.6149
   17SAPC   C27 2183   1.234   4.127   9.653 -0.6129  0.3858  0.5046
   17SAPC   H7R 2184   1.277   4.067   9.736  2.3911  1.9196  0.1898
   17SAPC   H7S 2185   1.244   4.062   9.563 -0.1037  0.6286  0.3820
   17SAPC   C28 2186   1.090   4.160   9.672  0.6609  0.9833 -0.4015
   17SAPC   H8R 2187   1.074   4.207   9.769  0.1920 -1.3377  0.7133
   17SAPC   C29 2188   0.983   4.117   9.598  0.2337  0.4831 -0.0457
   17SAPC   H9R 2189   0.885   4.150   9.637 -0.5071 -0.8496 -0.7129
   17SAPC  C210 2190   0.987   4.028   9.475  0.3472 -0.4395  0.1981
   17SAPC  H10R 2191   0.885   3.986   9.462 -0.0372 -0.2183  2.2087
   17SAPC  H10S 2192   1.063   3.950   9.496 -0.0003 -1.3791 -1.8113
   17SAPC  C211 2193   1.047   4.099   9.354  0.3948 -0.5339 -0.1051
   17SAPC  H11R 2194   1.104   4.187   9.387 -2.3296  2.1355 -1.9527
   17SAPC  C212 2195   1.045   4.066   9.223  0.3223 -0.1495  0.5694
   17SAPC  H12R 2196   1.083   4.134   9.145 -1.5103  0.9950  0.6094
   17SAPC  C213 2197   0.972   3.942   9.164  0.0471 -0.0275  0.1343
   17SAPC  H13R 2198   0.990   3.856   9.232  1.9888  0.6618  0.5637
   17SAPC  H13S 2199   1.018   3.925   9.064  0.7906  2.6270 -0.0556
   17SAPC  C214 2200   0.826   3.956   9.132 -0.1054 -0.1523  0.2173
   17SAPC  H14R 2201   0.757   3.896   9.193 -1.1965  0.7922 -0.0577
   17SAPC  C215 2202   0.768   4.040   9.042  0.5932  0.3305  0.4899
   17SAPC  H15R 2203   0.658   4.035   9.047  0.5448 -2.4200 -1.2560
   17SAPC  C216 2204   0.841   4.139   8.942 -0.2428  0.7597 -0.1382
   17SAPC  H16R 2205   0.790   4.126   8.843  2.0722  0.6329 -1.3745
   17SAPC  H16S 2206   0.947   4.107   8.941 -0.5456 -0.2805 -0.5661
   17SAPC  C217 2207   0.829   4.283   8.992  0.5383 -0.7386  0.1704
   17SAPC  H17R 2208   0.893   4.295   9.081 -0.4443 -0.7673  0.8910
   17SAPC  H17S 2209   0.723   4.298   9.024 -0.5544 -1.3433 -2.7545
   17SAPC  C218 2210   0.877   4.382   8.889 -0.5542 -0.2030  0.5208
   17SAPC  H18R 2211   0.983   4.365   8.859 -0.9920 -1.5324 -0.3946
   17SAPC  H18S 2212   0.860   4.478   8.942 -2.1464  1.0245 -2.0482
   17SAPC  C219 2213   0.792   4.389   8.760  0.3945  0.2424 -0.2596
   17SAPC  H19R 2214   0.687   4.394   8.796  0.6615 -0.0977  0.5862
   17SAPC  H19S 2215   0.802   4.288   8.714  0.0138 -0.7169  1.6583
   17SAPC  C220 2216   0.824   4.487   8.651  1.2269  0.2770  0.5504
   17SAPC  H20R 2217   0.927   4.471   8.611  0.6947 -3.7547  0.4237
   17SAPC  H20S 2218   0.826   4.590   8.692  1.9049  0.1806  0.7744
   17SAPC  H20T 2219   0.747   4.491   8.571  0.1781 -0.3930  1.5067
   17SAPC   C33 2220   2.062   4.354   9.740  0.2294  0.5653 -0.4588
   17SAPC   H3X 2221   2.156   4.372   9.795 -0.7456  1.5135  0.9759
   17SAPC   H3Y 2222   1.981   4.405   9.796  0.7369 -1.9175  2.8760
   17SAPC   C34 2223   2.081   4.409   9.600  0.6652 -0.0680 -0.1385
   17SAPC   H4X 2224   2.173   4.365   9.557 -0.0130 -2.6048  0.8401
   17SAPC   H4Y 2225   2.096   4.519   9.610 -0.5649  0.3111 -2.0892
   17SAPC   C35 2226   1.960   4.395   9.505 -0.6106  0.5903 -0.6026
   17SAPC   H5X 2227   1.865   4.430   9.551  0.2427  0.3942  1.4050
   17SAPC   H5Y 2228   1.947   4.286   9.486  0.6698  0.7314 -2.5217
   17SAPC   C36 2229   1.990   4.465   9.370  0.0861  0.3919  0.7136
   17SAPC   H6X 2230   2.071   4.405   9.322 -0.3782 -1.4069  2.0771
   17SAPC   H6Y 2231   2.025   4.568   9.394  0.8973  0.0685  0.9501
   17SAPC   C37 2232   1.873   4.450   9.266  0.1684  0.3453  0.4080
   17SAPC   H7X 2233   1.793   4.505   9.319  1.6535  2.8517  0.1974
   17SAPC   H7Y 2234   1.846   4.342   9.256  0.1217  0.5511 -2.3670
   17SAPC   C38 2235   1.908   4.502   9.131  1.4966  0.3069  0.2346
   17SAPC   H8X 2236   1.963   4.437   9.059 -0.0756 -0.8324  0.0013
   17SAPC   H8Y 2237   1.962   4.599   9.138 -0.9335  1.7718 -0.2418
   17SAPC   C39 2238   1.776   4.544   9.057  0.4048 -0.6037 -0.2661
   17SAPC   H9X 2239   1.717   4.598   9.135 -0.3807  0.3378 -1.4630
   17SAPC   H9Y 2240   1.703   4.463   9.036 -0.4713 -0.2659  1.2951
   17SAPC  C310 2241   1.791   4.630   8.927 -0.1398  0.5654  0.6696
   17SAPC  H10X 2242   1.835   4.566   8.847  0.0422  1.1765  0.2722
   17SAPC  H10Y 2243   1.863   4.710   8.954 -1.1399  1.4841  0.6480
   17SAPC  C311 2244   1.667   4.693   8.873  0.3764  0.2280 -0.4519
   17SAPC  H11X 2245   1.696   4.757   8.786 -0.5297  0.0133 -0.9290
   17SAPC  H11Y 2246   1.620   4.760   8.949  1.9917  1.8948 -0.8353
   17SAPC  C312 2247   1.556   4.600   8.821  0.5741  0.3026 -0.1699
   17SAPC  H12X 2248   1.468   4.663   8.796  0.4614  0.4504  0.5826
   17SAPC  H12Y 2249   1.524   4.527   8.898 -2.7081  1.3647 -0.3766
   17SAPC  C313 2250   1.591   4.518   8.694 -0.4814  0.2983  0.4421
   17SAPC  H13X 2251   1.515   4.437   8.694  0.8184 -0.9632  0.6600
   17SAPC  H13Y 2252   1.693   4.475   8.704 -0.7637 -0.5501 -0.2158
   17SAPC  C314 2253   1.585   4.607   8.564 -0.0439  0.5117 -0.5958
   17SAPC  H14X 2254   1.663   4.685   8.576  2.7030 -1.8957 -1.4526
   17SAPC  H14Y 2255   1.481   4.645   8.574 -0.2797 -0.4557  1.0133
   17SAPC  C315 2256   1.613   4.521   8.437  0.6659 -0.0979 -0.1730
   17SAPC  H15X 2257   1.527   4.451   8.436  0.5072  0.0915  0.1175
   17SAPC  H15Y 2258   1.704   4.458   8.441  0.9431  0.1876 -1.4936
   17SAPC  C316 2259   1.614   4.600   8.311  0.4127  0.6357  0.0281
   17SAPC  H16X 2260   1.517   4.654   8.310 -0.1237 -0.2658 -2.3197
   17SAPC  H16Y 2261   1.607   4.530   8.225 -1.9782 -1.9568  2.1299
   17SAPC  C317 2262   1.731   4.698   8.301 -0.1692  0.3738 -0.3602
   17SAPC  H17X 2263   1.824   4.643   8.276  0.6484  1.1821  0.7511
   17SAPC  H17Y 2264   1.746   4.744   8.401 -0.3791 -0.1339 -0.0914
   17SAPC  C318 2265   1.730   4.795   8.183 -0.6379 -0.6546  0.1461
   17SAPC  H18X 2266   1.667   4.887   8.190  1.5689  0.9635  0.0151
   17SAPC  H18Y 2267   1.832   4.828   8.152 -0.9510  0.8992  0.6687
   17SAPC  H18Z 2268   1.693   4.736   8.096 -0.2817  0.2908 -0.6755
   18SAPC     N 2269   3.172   3.626  10.506  0.0487  0.1862 -0.6237
   18SAPC   C12 2270   3.108   3.572  10.381  0.0764 -0.5238  0.1400
   18SAPC  H12A 2271   3.187   3.556  10.309  1.4588 -1.3008  1.7425
   18SAPC  H12B 2272   3.052   3.656  10.343  1.6806 -0.2262 -1.6852
   18SAPC   C13 2273   3.080   3.655  10.615 -0.1100  0.9929  0.2213
   18SAPC  H13A 2274   3.128   3.684  10.707 -1.5764  0.6662  1.1161
   18SAPC  H13B 2275   3.013   3.736  10.590 -1.9648 -0.0691  1.5443
   18SAPC  H13C 2276   3.030   3.563  10.639  1.6607  0.0228  0.3763
   18SAPC   C14 2277   3.260   3.514  10.557 -0.2074  0.2645  0.4287
   18SAPC  H14A 2278   3.202   3.423  10.557 -0.5421  0.4760  0.3794
   18SAPC  H14B 2279   3.346   3.494  10.494  0.3163  0.4384  1.0724
   18SAPC  H14C 2280   3.293   3.550  10.653  1.7271 -3.7631  1.5132
   18SAPC   C15 2281   3.254   3.746  10.472 -0.2866  0.9643 -0.0213
   18SAPC  H15A 2282   3.324   3.773  10.550 -1.3576 -2.4415  2.3178
   18SAPC  H15B 2283   3.318   3.726  10.387 -2.4242  1.3912 -1.8483
   18SAPC  H15C 2284   3.188   3.829  10.452 -1.7009 -0.6662 -2.7190
   18SAPC   C11 2285   3.015   3.447  10.379 -0.7911 -0.1261  0.3170
   18SAPC  H11A 2286   3.075   3.359  10.410  0.4220  0.0723 -1.3577
   18SAPC  H11B 2287   2.983   3.411  10.279 -2.6779 -0.3745  0.9780
   18SAPC     P 2288   2.780   3.547  10.389  0.0317  0.1600  0.4002
   18SAPC   O13 2289   2.656   3.540  10.472 -0.1407 -0.5166 -0.7679
   18SAPC   O14 2290   2.838   3.676  10.355 -0.1339 -0.5470 -0.3825
   18SAPC   O12 2291   2.895   3.460  10.464 -0.0277  0.7590 -0.3273
   18SAPC   O11 2292   2.751   3.461  10.258 -0.3868 -0.1638 -0.3636
   18SAPC    C1 2293   2.727   3.319  10.270  0.1190 -0.1193  0.3898
   18SAPC    HA 2294   2.786   3.277  10.185 -0.2122  1.6963 -0.7781
   18SAPC    HB 2295   2.769   3.271  10.362  0.6479 -2.4883 -1.0037
   18SAPC    C2 2296   2.572   3.294  10.238 -0.8658  0.3618  0.2920
   18SAPC    HS 2297   2.513   3.334  10.323  0.8923  0.4856  1.4954
   18SAPC   O21 2298   2.546   3.152  10.230 -0.1148  0.5409 -0.4024
   18SAPC   C21 2299   2.557   3.094  10.348  0.3830  0.7434  0.2292
   18SAPC   O22 2300   2.572   3.156  10.452  0.3608 -0.3647  0.2084
   18SAPC   C22 2301   2.533   2.942  10.338 -0.0856 -0.5451 -1.1551
   18SAPC   H2R 2302   2.487   2.912  10.434  2.1970  0.8559  0.5066
   18SAPC   H2S 2303   2.476   2.910  10.248 -2.1583  0.8397 -0.3904
   18SAPC    C3 2304   2.533   3.375  10.114 -0.7380  0.3875  0.2584
   18SAPC    HX 2305   2.545   3.482  10.143  1.8252  0.2065  0.0505
   18SAPC    HY 2306   2.425   3.357  10.095 -0.6850  0.7725 -0.4319
   18SAPC   O31 2307   2.619   3.357   9.998 -0.3972 -0.0579 -0.0654
   18SAPC   C31 2308   2.560   3.418   9.893 -0.1221  0.4799 -0.2438
   18SAPC   O32 2309   2.460   3.484   9.898 -0.1741  0.7242  0.3169
   18SAPC   C32 2310   2.643   3.383   9.768  0.3254 -0.4181  0.2182
   18SAPC   H2X 2311   2.659   3.273   9.768  0.5421 -0.4018 -1.0758
   18SAPC   H2Y 2312   2.744   3.429   9.781  0.2080 -0.2575  0.5579
   18SAPC   C23 2313   2.671   2.866  10.333  0.3928  0.2093  0.1670
   18SAPC   H3R 2314   2.657   2.757  10.351  1.6796  0.2078  1.3132
   18SAPC   H3S 2315   2.729   2.906  10.419 -1.3454  1.1663  0.9625
   18SAPC   C24 2316   2.757   2.879  10.205  0.3542 -0.2485  0.0104
   18SAPC   H4R 2317   2.845   2.810  10.206 -0.3233 -1.4478 -3.8524
   18SAPC   H4S 2318   2.792   2.984  10.197 -4.4520  1.6738  0.9161
   18SAPC   C25 2319   2.690   2.829  10.079  0.3118 -0.3033 -0.0607
   18SAPC   H5R 2320   2.659   2.723  10.081  0.3195 -0.3317 -1.1758
   18SAPC   C26 2321   2.692   2.887   9.957  0.3349  0.1414  0.4888
   18SAPC   H6R 2322   2.636   2.843   9.873  0.8048 -1.9211  1.1965
   18SAPC   C27 2323   2.765   3.015   9.924  0.5595  0.3284 -0.5866
   18SAPC   H7R 2324   2.813   3.056  10.016  1.1923 -0.5675 -0.5145
   18SAPC   H7S 2325   2.693   3.094   9.893  0.1711  0.3661  0.3821
   18SAPC   C28 2326   2.864   3.011   9.810 -0.0381 -0.0835 -0.1940
   18SAPC   H8R 2327   2.969   3.011   9.840 -0.4415  0.6642  1.3297
   18SAPC   C29 2328   2.837   3.014   9.680 -0.4137 -0.9667 -0.1741
   18SAPC   H9R 2329   2.915   3.007   9.603  1.0244  1.1524  0.9708
   18SAPC  C210 2330   2.700   3.014   9.624 -0.0217 -0.0787  0.2279
   18SAPC  H10R 2331   2.673   3.117   9.590 -1.6315 -0.8606 -1.0004
   18SAPC  H10S 2332   2.619   2.989   9.696 -0.4041  1.8262  0.5315
   18SAPC  C211 2333   2.671   2.915   9.517 -0.2342 -0.0169 -0.0370
   18SAPC  H11R 2334   2.605   2.828   9.532 -0.4453 -0.1005 -1.3149
   18SAPC  C212 2335   2.714   2.938   9.390  0.0871  0.1739  0.6487
   18SAPC  H12R 2336   2.686   2.870   9.308  4.0213 -0.5483 -0.2681
   18SAPC  C213 2337   2.781   3.062   9.340  0.4150  0.5079 -0.2132
   18SAPC  H13R 2338   2.823   3.116   9.427  0.0069 -0.8825  0.8780
   18SAPC  H13S 2339   2.711   3.135   9.293  1.6220  2.0246  0.2601
   18SAPC  C214 2340   2.896   3.042   9.237 -0.6560  0.1372  0.2025
   18SAPC  H14R 2341   2.982   2.988   9.281 -0.1638 -0.5726 -1.5329
   18SAPC  C215 2342   2.891   3.064   9.103  0.1944  0.0876 -0.1037
   18SAPC  H15R 2343   2.984   3.045   9.048  0.7078  2.4432 -0.1794
   18SAPC  C216 2344   2.773   3.123   9.032 -0.3249 -0.1407  0.6555
   18SAPC  H16R 2345   2.757   3.228   9.066 -2.7909 -0.1289 -0.3326
   18SAPC  H16S 2346   2.672   3.076   9.034 -1.0263  1.0381 -2.5311
   18SAPC  C217 2347   2.802   3.120   8.884  0.6397  0.3712  0.3997
   18SAPC  H17R 2348   2.784   3.019   8.842 -0.8200  1.5216 -1.9670
   18SAPC  H17S 2349   2.907   3.144   8.855 -0.1671  1.5262 -1.8402
   18SAPC  C218 2350   2.733   3.221   8.797  0.6697  0.5174 -0.1480
   18SAPC  H18R 2351   2.751   3.327   8.827  1.5326 -0.1968  2.0272
   18SAPC  H18S 2352   2.625   3.196   8.801  0.7395  0.3808  1.5613
   18SAPC  C219 2353   2.766   3.213   8.645  0.2886 -0.4110 -0.7985
   18SAPC  H19R 2354   2.722   3.114   8.620 -0.7938  0.1794 -1.3337
   18SAPC  H19S 2355   2.876   3.217   8.629  0.0073  2.4603 -2.8148
   18SAPC  C220 2356   2.707   3.321   8.562 -0.0157  0.2388  0.3847
   18SAPC  H20R 2357   2.741   3.422   8.596 -2.1278  0.6035  1.5996
   18SAPC  H20S 2358   2.597   3.314   8.557 -0.0673  1.5660 -1.2441
   18SAPC  H20T 2359   2.754   3.315   8.462 -1.7952 -0.8130 -0.4120
   18SAPC   C33 2360   2.573   3.429   9.639 -0.3819 -0.1285 -0.4996
   18SAPC   H3X 2361   2.551   3.537   9.656  0.6534  0.0493 -0.2683
   18SAPC   H3Y 2362   2.481   3.367   9.627  0.5022 -2.5266  3.2775
   18SAPC   C34 2363   2.672   3.426   9.521  0.7301  0.4874  0.5945
   18SAPC   H4X 2364   2.679   3.316   9.505 -3.4842  0.1986 -0.4588
   18SAPC   H4Y 2365   2.768   3.474   9.549  0.7298 -0.2323  1.9594
   18SAPC   C35 2366   2.613   3.507   9.406  0.2079  0.4092  0.9025
   18SAPC   H5X 2367   2.616   3.615   9.433 -0.7441  1.0502 -1.3265
   18SAPC   H5Y 2368   2.509   3.471   9.391  0.5283 -0.4452  0.6569
   18SAPC   C36 2369   2.704   3.496   9.279 -0.1857 -0.0844  0.1384
   18SAPC   H6X 2370   2.716   3.387   9.264 -1.1422  0.0861 -2.3039
   18SAPC   H6Y 2371   2.801   3.544   9.302 -0.7331  1.7353 -1.1607
   18SAPC   C37 2372   2.643   3.558   9.157  0.5932 -0.5291  0.2064
   18SAPC   H7X 2373   2.578   3.644   9.186  0.9171 -0.3081  0.2784
   18SAPC   H7Y 2374   2.574   3.479   9.119  1.0242 -0.9593  0.3184
   18SAPC   C38 2375   2.740   3.602   9.043 -0.5932 -0.0117 -0.5701
   18SAPC   H8X 2376   2.778   3.509   8.997 -1.0526  0.1112 -1.2079
   18SAPC   H8Y 2377   2.823   3.657   9.092 -0.5815  1.6774 -2.3274
   18SAPC   C39 2378   2.683   3.707   8.945 -0.3085 -0.5002 -1.2755
   18SAPC   H9X 2379   2.766   3.734   8.877 -0.8298 -0.3708 -1.8743
   18SAPC   H9Y 2380   2.649   3.788   9.012  1.3235 -1.9545  1.4968
   18SAPC  C310 2381   2.554   3.662   8.871  0.2400  0.0199  0.0910
   18SAPC  H10X 2382   2.479   3.632   8.947 -0.2937  2.7878  0.7650
   18SAPC  H10Y 2383   2.576   3.569   8.814 -0.1836 -0.9591  1.4721
   18SAPC  C311 2384   2.484   3.782   8.809  0.2727 -0.6504  0.5181
   18SAPC  H11X 2385   2.537   3.810   8.715 -1.3438  0.8438 -0.0103
   18SAPC  H11Y 2386   2.494   3.865   8.883 -0.3504  0.0227 -0.1308
   18SAPC  C312 2387   2.343   3.766   8.765 -0.0157 -0.2249  0.1089
   18SAPC  H12X 2388   2.271   3.748   8.847 -1.2518  1.5285 -0.5054
   18SAPC  H12Y 2389   2.357   3.670   8.711 -0.5952 -1.4445  2.0479
   18SAPC  C313 2390   2.298   3.875   8.672  0.2557 -0.0130 -0.2544
   18SAPC  H13X 2391   2.374   3.878   8.591  0.5657  0.2402  0.0380
   18SAPC  H13Y 2392   2.297   3.974   8.724 -1.4743 -0.3947  0.5049
   18SAPC  C314 2393   2.156   3.861   8.625  0.1726  0.8406 -0.2217
   18SAPC  H14X 2394   2.095   3.813   8.705 -1.3459  0.6975 -1.4116
   18SAPC  H14Y 2395   2.159   3.782   8.547 -1.7396  0.8857 -0.3862
   18SAPC  C315 2396   2.103   3.986   8.548  0.2533 -0.4448 -0.5612
   18SAPC  H15X 2397   2.119   4.079   8.607  2.2101 -3.0627  3.5332
   18SAPC  H15Y 2398   1.993   3.974   8.543  0.1226  0.5204 -0.2117
   18SAPC  C316 2399   2.154   3.996   8.405  0.3959 -0.6854  1.1921
   18SAPC  H16X 2400   2.265   3.991   8.407  0.6931  0.9366 -2.3951
   18SAPC  H16Y 2401   2.122   4.096   8.369  0.5044 -1.2444 -0.5855
   18SAPC  C317 2402   2.113   3.893   8.303  0.3809 -0.5093  0.6480
   18SAPC  H17X 2403   2.140   3.791   8.338 -1.0157 -1.4084 -0.7661
   18SAPC  H17Y 2404   2.167   3.921   8.210 -1.2233  1.9460  0.3704
   18SAPC  C318 2405   1.961   3.895   8.286 -0.1453  0.1503  0.6824
   18SAPC  H18X 2406   1.911   3.993   8.303  0.3159  0.3826  0.7156
   18SAPC  H18Y 2407   1.915   3.824   8.358 -0.7832  0.6402  0.7661
   18SAPC  H18Z 2408   1.940   3.865   8.181  0.8219  0.9215  0.2618
   19SAPC     N 2409   0.702   5.044  10.620 -0.0554 -0.1306 -0.1992
   19SAPC   C12 2410   0.736   5.096  10.484 -0.4595  0.8185  0.0370
   19SAPC  H12A 2411   0.823   5.160  10.489 -1.0659  1.5803  2.8609
   19SAPC  H12B 2412   0.659   5.162  10.448 -1.0471 -1.3981 -3.2823
   19SAPC   C13 2413   0.592   4.948  10.611 -0.2563  0.1562 -0.3244
   19SAPC  H13A 2414   0.571   4.898  10.705  0.7805  1.0942  0.4414
   19SAPC  H13B 2415   0.504   4.993  10.567  0.2293  0.4170 -1.0444
   19SAPC  H13C 2416   0.632   4.873  10.545  0.2293 -2.0765  2.3119
   19SAPC   C14 2417   0.834   4.977  10.669 -0.2733 -0.3857 -0.3482
   19SAPC  H14A 2418   0.824   4.930  10.765  1.5073 -1.3435 -0.5895
   19SAPC  H14B 2419   0.874   4.909  10.595 -1.2173 -2.4709  0.9788
   19SAPC  H14C 2420   0.897   5.061  10.697 -1.9033  1.2307 -1.2526
   19SAPC   C15 2421   0.674   5.156  10.711  0.6218  0.2126 -0.0428
   19SAPC  H15A 2422   0.763   5.190  10.762  0.5884 -0.7365  0.6731
   19SAPC  H15B 2423   0.650   5.243  10.652 -0.0575 -0.3661 -0.6398
   19SAPC  H15C 2424   0.600   5.137  10.788 -0.7503  0.7313 -1.1815
   19SAPC   C11 2425   0.758   5.004  10.361  0.2037 -0.2987 -0.3580
   19SAPC  H11A 2426   0.776   5.063  10.269  0.3153 -1.9773 -1.4580
   19SAPC  H11B 2427   0.669   4.938  10.351 -0.6030  0.8041 -0.6141
   19SAPC     P 2428   0.890   4.774  10.352  0.0726 -0.2500 -0.3381
   19SAPC   O13 2429   0.991   4.717  10.432 -0.6943  0.1601 -0.4167
   19SAPC   O14 2430   0.754   4.711  10.365 -0.0616 -0.1784  0.1791
   19SAPC   O12 2431   0.886   4.936  10.380 -0.0712  0.2757 -0.0026
   19SAPC   O11 2432   0.943   4.764  10.204  0.0141  0.2922 -0.0522
   19SAPC    C1 2433   0.889   4.839  10.098 -0.1009  0.1390 -0.1790
   19SAPC    HA 2434   0.794   4.783  10.079  0.3792 -0.7645  0.0431
   19SAPC    HB 2435   0.879   4.945  10.130  0.7209 -0.0829  0.8510
   19SAPC    C2 2436   0.977   4.817   9.974  0.1766 -0.6609 -0.1069
   19SAPC    HS 2437   0.935   4.888   9.900  2.2394  0.3166 -0.4266
   19SAPC   O21 2438   0.996   4.678   9.938  0.2902  0.0992  0.2465
   19SAPC   C21 2439   0.893   4.644   9.865 -0.3029  0.5627 -0.1818
   19SAPC   O22 2440   0.804   4.722   9.827 -0.1134 -0.0727 -0.1051
   19SAPC   C22 2441   0.886   4.499   9.835 -0.3663 -0.2680 -0.5325
   19SAPC   H2R 2442   0.974   4.454   9.885  1.1244  4.7121  1.9442
   19SAPC   H2S 2443   0.795   4.463   9.889  0.0840  1.1088  1.2326
   19SAPC    C3 2444   1.121   4.883   9.992 -0.1773 -0.2962 -0.0901
   19SAPC    HX 2445   1.157   4.846  10.091 -1.0234 -0.8872  0.0076
   19SAPC    HY 2446   1.104   4.991  10.011 -0.7745 -0.1411 -1.3783
   19SAPC   O31 2447   1.217   4.855   9.884  0.3269 -0.1036 -0.2087
   19SAPC   C31 2448   1.305   4.760   9.894 -0.1176  0.7994 -0.2498
   19SAPC   O32 2449   1.339   4.705   9.994 -0.5264 -0.1747 -0.2259
   19SAPC   C32 2450   1.358   4.730   9.750 -0.3339  0.0624 -0.5474
   19SAPC   H2X 2451   1.304   4.637   9.720 -1.1011 -0.4290  2.1065
   19SAPC   H2Y 2452   1.466   4.705   9.746 -0.5231 -1.0372  0.5158
   19SAPC   C23 2453   0.875   4.484   9.682 -0.1756  0.6012  0.2463
   19SAPC   H3R 2454   0.781   4.522   9.638 -0.5274  1.6136  1.7994
   19SAPC   H3S 2455   0.875   4.373   9.672  0.9850  0.7438 -1.9500
   19SAPC   C24 2456   1.001   4.535   9.610 -0.5799  0.0515 -0.4022
   19SAPC   H4R 2457   1.081   4.472   9.655 -1.1676 -1.8809 -1.9418
   19SAPC   H4S 2458   1.023   4.641   9.635  0.8751 -0.2252 -0.4299
   19SAPC   C25 2459   0.998   4.517   9.459 -0.0255  0.5402 -0.3929
   19SAPC   H5R 2460   0.973   4.418   9.416 -1.1932  0.0626  1.2864
   19SAPC   C26 2461   0.996   4.620   9.369 -0.3734  1.1579  0.1601
   19SAPC   H6R 2462   0.969   4.593   9.266  0.5197  0.2961  0.1335
   19SAPC   C27 2463   1.006   4.766   9.401 -0.7098  0.1484  0.5081
   19SAPC   H7R 2464   1.026   4.810   9.302  0.3449 -0.6264  0.3614
   19SAPC   H7S 2465   1.103   4.783   9.454  0.5450 -0.1816 -1.5596
   19SAPC   C28 2466   0.889   4.833   9.467  0.4507 -0.1981  0.3823
   19SAPC   H8R 2467   0.892   4.842   9.576 -1.6331 -0.0402  0.4692
   19SAPC   C29 2468   0.780   4.875   9.402  0.6951 -0.0511  0.1588
   19SAPC   H9R 2469   0.694   4.916   9.457  0.7427 -0.8697  0.8756
   19SAPC  C210 2470   0.753   4.872   9.252  0.4874  0.7575  0.0647
   19SAPC  H10R 2471   0.757   4.769   9.209 -1.1273 -0.2661  2.1913
   19SAPC  H10S 2472   0.827   4.930   9.193  0.7768 -0.1472 -0.4871
   19SAPC  C211 2473   0.613   4.921   9.222  0.4153  0.5612  0.1828
   19SAPC  H11R 2474   0.577   4.991   9.299 -0.1170  1.7201 -1.0938
   19SAPC  C212 2475   0.533   4.894   9.117  0.2117  1.1817 -0.0055
   19SAPC  H12R 2476   0.437   4.942   9.094 -1.0168 -1.2452 -0.3276
   19SAPC  C213 2477   0.568   4.802   8.998  0.4431 -0.8033  0.6095
   19SAPC  H13R 2478   0.484   4.730   8.982  1.3284 -1.4895 -1.2793
   19SAPC  H13S 2479   0.654   4.735   9.020  0.9388  0.0602  1.3182
   19SAPC  C214 2480   0.580   4.888   8.873  0.6067 -0.2298 -0.7913
   19SAPC  H14R 2481   0.628   4.986   8.882  1.2732 -0.5680 -0.6256
   19SAPC  C215 2482   0.542   4.855   8.746 -0.2923  1.3186 -0.3368
   19SAPC  H15R 2483   0.548   4.940   8.677 -0.9308  3.4019  1.9979
   19SAPC  C216 2484   0.466   4.728   8.703  0.9085 -0.2124  0.2204
   19SAPC  H16R 2485   0.483   4.642   8.771 -1.2691 -0.0637  1.0276
   19SAPC  H16S 2486   0.503   4.703   8.601 -0.9222  0.5864 -0.6760
   19SAPC  C217 2487   0.311   4.731   8.684 -0.6464  0.8860 -0.2529
   19SAPC  H17R 2488   0.275   4.818   8.625  1.8246  0.7398 -2.1991
   19SAPC  H17S 2489   0.268   4.742   8.785  1.4682 -1.7811  1.0741
   19SAPC  C218 2490   0.261   4.613   8.605  0.5338 -0.3079 -0.2349
   19SAPC  H18R 2491   0.290   4.523   8.664 -0.0290 -0.5488 -0.3283
   19SAPC  H18S 2492   0.309   4.606   8.505  0.4379  1.3896 -0.4329
   19SAPC  C219 2493   0.109   4.620   8.584 -0.6854 -0.2372 -0.4020
   19SAPC  H19R 2494   0.090   4.712   8.525  1.0825  1.2175  1.1684
   19SAPC  H19S 2495   0.066   4.621   8.687  1.9635 -0.6596  0.7988
   19SAPC  C220 2496   0.054   4.514   8.493 -0.1089  0.3353  0.0214
   19SAPC  H20R 2497   0.101   4.529   8.394 -1.9475 -0.8441 -1.0753
   19SAPC  H20S 2498  -0.057   4.521   8.493 -0.2900 -1.6858 -1.0590
   19SAPC  H20T 2499   0.090   4.413   8.524 -0.7697  0.2597  0.5671
   19SAPC   C33 2500   1.311   4.826   9.644  0.0974 -0.5040  0.2746
   19SAPC   H3X 2501   1.341   4.930   9.669  0.5020 -0.5633  0.0342
   19SAPC   H3Y 2502   1.201   4.809   9.634  0.1832  0.0800 -1.9857
   19SAPC   C34 2503   1.383   4.813   9.512 -0.1250  0.1111 -0.0714
   19SAPC   H4X 2504   1.477   4.872   9.512 -0.1394  0.1456  0.8596
   19SAPC   H4Y 2505   1.317   4.854   9.434 -1.1316 -0.7512  0.2993
   19SAPC   C35 2506   1.416   4.666   9.471  0.2899 -0.0359 -0.3387
   19SAPC   H5X 2507   1.335   4.594   9.496  0.3497  0.6854  2.2706
   19SAPC   H5Y 2508   1.508   4.634   9.525  0.6767  0.4128 -0.7224
   19SAPC   C36 2509   1.447   4.643   9.326  0.2764 -1.3378  0.3350
   19SAPC   H6X 2510   1.474   4.535   9.317  0.3966 -1.3045  0.2944
   19SAPC   H6Y 2511   1.525   4.712   9.287 -0.6904  1.0955  2.4518
   19SAPC   C37 2512   1.334   4.681   9.238  0.4660  0.2994  0.4744
   19SAPC   H7X 2513   1.314   4.791   9.244  0.4796  0.2212  3.1102
   19SAPC   H7Y 2514   1.236   4.635   9.263  0.9466 -1.0345 -0.0280
   19SAPC   C38 2515   1.364   4.639   9.096 -0.1054  0.2270 -0.4988
   19SAPC   H8X 2516   1.386   4.530   9.096 -0.0301  0.1515  2.5708
   19SAPC   H8Y 2517   1.459   4.684   9.061  1.0538 -1.2618  0.5826
   19SAPC   C39 2518   1.252   4.657   8.997  0.3193  0.5367  0.3875
   19SAPC   H9X 2519   1.164   4.605   9.042 -0.1769  0.1437 -0.9879
   19SAPC   H9Y 2520   1.279   4.605   8.903 -2.2415 -0.3184  0.0282
   19SAPC  C310 2521   1.221   4.802   8.965  0.2088 -0.3281 -0.0091
   19SAPC  H10X 2522   1.316   4.843   8.924  0.9650 -0.1324  1.8584
   19SAPC  H10Y 2523   1.196   4.854   9.060 -3.3398 -0.7462 -0.5806
   19SAPC  C311 2524   1.094   4.816   8.871 -0.7622  0.4371  0.8790
   19SAPC  H11X 2525   1.007   4.771   8.924 -0.0557 -1.9933  0.1169
   19SAPC  H11Y 2526   1.102   4.751   8.781  0.2922 -0.7484  1.7951
   19SAPC  C312 2527   1.065   4.961   8.825 -0.1055 -0.0290 -0.4775
   19SAPC  H12X 2528   1.157   4.997   8.774 -0.9717 -1.2967 -3.1381
   19SAPC  H12Y 2529   1.038   5.018   8.916  0.8601 -1.7382  0.9367
   19SAPC  C313 2530   0.944   4.962   8.727 -0.3172 -0.4279  0.7109
   19SAPC  H13X 2531   0.854   4.924   8.779 -1.0850  0.6159  0.1922
   19SAPC  H13Y 2532   0.971   4.892   8.645  0.8367  0.6814  0.1123
   19SAPC  C314 2533   0.907   5.102   8.688  0.2591  0.0231  0.0073
   19SAPC  H14X 2534   0.910   5.160   8.783  0.9951 -0.8644  0.5346
   19SAPC  H14Y 2535   0.805   5.096   8.644  0.5312 -1.1140 -0.5014
   19SAPC  C315 2536   0.996   5.172   8.580 -1.0317 -0.1467  0.5239
   19SAPC  H15X 2537   0.990   5.117   8.484  1.3890  1.0195 -0.3931
   19SAPC  H15Y 2538   1.106   5.172   8.600 -0.2099 -2.1272 -3.0809
   19SAPC  C316 2539   0.957   5.320   8.573 -0.5678  0.1377  0.0880
   19SAPC  H16X 2540   0.976   5.354   8.677  2.6086 -1.1432  0.0437
   19SAPC  H16Y 2541   0.853   5.330   8.536 -0.3371 -1.0453 -0.9624
   19SAPC  C317 2542   1.036   5.408   8.476  0.4874  1.0053  0.8130
   19SAPC  H17X 2543   1.034   5.362   8.375 -3.6505 -0.6354  1.4501
   19SAPC  H17Y 2544   1.146   5.411   8.495  1.0243  2.0809 -1.9721
   19SAPC  C318 2545   0.988   5.549   8.470  0.3841  0.5836  0.3797
   19SAPC  H18X 2546   0.990   5.578   8.577 -0.8197 -4.1778  1.9597
   19SAPC  H18Y 2547   0.889   5.556   8.420 -0.0735  5.0850  1.4892
   19SAPC  H18Z 2548   1.052   5.614   8.407 -2.7904  2.2133 -1.3932
   20SAPC     N 2549   0.194   4.341  10.778  0.0474  0.4814  0.0709
   20SAPC   C12 2550   0.131   4.208  10.747  0.7738 -0.8930  0.0245
   20SAPC  H12A 2551   0.039   4.218  10.692 -0.6547  0.8099  2.5168
   20SAPC  H12B 2552   0.097   4.165  10.840 -0.2260  1.4463  0.8130
   20SAPC   C13 2553   0.272   4.392  10.657  0.1348  0.2922 -0.3565
   20SAPC  H13A 2554   0.359   4.331  10.639 -0.0643  0.6983 -3.2438
   20SAPC  H13B 2555   0.206   4.378  10.572 -0.0382 -2.8293  0.2043
   20SAPC  H13C 2556   0.300   4.496  10.669 -0.1090  0.6434 -2.3735
   20SAPC   C14 2557   0.074   4.431  10.805 -0.8599  0.5247  0.6217
   20SAPC  H14A 2558   0.008   4.431  10.719 -1.6540 -1.1248  1.1974
   20SAPC  H14B 2559   0.024   4.379  10.885  1.0319 -0.7669  1.0346
   20SAPC  H14C 2560   0.102   4.529  10.840  0.4851  0.0338  1.0051
   20SAPC   C15 2561   0.290   4.345  10.892  0.7151 -0.4214 -0.0258
   20SAPC  H15A 2562   0.243   4.327  10.988 -0.4619  0.2870 -0.4475
   20SAPC  H15B 2563   0.365   4.269  10.880 -0.9910 -2.0324 -1.1598
   20SAPC  H15C 2564   0.334   4.443  10.887  1.4751 -0.7806 -4.3299
   20SAPC   C11 2565   0.210   4.095  10.676  0.7454 -0.3454 -0.1439
   20SAPC  H11A 2566   0.243   4.144  10.582 -0.5013 -1.0890 -0.9911
   20SAPC  H11B 2567   0.134   4.017  10.655 -0.5588  0.7833  0.2150
   20SAPC     P 2568   0.307   3.902  10.814  0.4029  0.0403 -0.2479
   20SAPC   O13 2569   0.440   3.885  10.870  0.8736 -0.0062 -0.7313
   20SAPC   O14 2570   0.189   3.909  10.910 -0.0946  0.6406  0.1621
   20SAPC   O12 2571   0.323   4.039  10.740  0.4448 -0.2464  0.4146
   20SAPC   O11 2572   0.295   3.787  10.709  0.9662  0.4991 -0.0821
   20SAPC    C1 2573   0.367   3.806  10.582 -0.2656  0.9404  0.0449
   20SAPC    HA 2574   0.361   3.910  10.543  0.0944  0.4824 -1.2952
   20SAPC    HB 2575   0.476   3.786  10.579 -0.4598 -0.5234  1.2932
   20SAPC    C2 2576   0.309   3.722  10.466  0.1654 -0.1706 -0.6764
   20SAPC    HS 2577   0.311   3.616  10.497 -1.2742  0.3441  1.3749
   20SAPC   O21 2578   0.377   3.751  10.341  1.1907  0.0470  0.2835
   20SAPC   C21 2579   0.494   3.697  10.336  0.3561  0.4769  1.3203
   20SAPC   O22 2580   0.540   3.605  10.406 -0.5152 -0.3153  0.2553
   20SAPC   C22 2581   0.567   3.755  10.209 -0.2614 -0.1558 -0.6432
   20SAPC   H2R 2582   0.524   3.853  10.177 -0.9710 -0.2360  0.0316
   20SAPC   H2S 2583   0.671   3.782  10.237 -0.2376  0.4716 -1.3159
   20SAPC    C3 2584   0.160   3.753  10.445 -0.3793 -0.4093  0.0885
   20SAPC    HX 2585   0.148   3.862  10.459 -0.8750 -0.5503  0.8052
   20SAPC    HY 2586   0.110   3.705  10.532  0.3358 -0.8592  0.2545
   20SAPC   O31 2587   0.106   3.703  10.322  0.4602 -0.0074  0.0254
   20SAPC   C31 2588   0.091   3.574  10.307 -0.1346  0.1757  0.7112
   20SAPC   O32 2589   0.147   3.490  10.375 -0.0796  0.3253 -0.0650
   20SAPC   C32 2590  -0.021   3.553  10.203  0.8215  0.2471 -0.2779
   20SAPC   H2X 2591  -0.039   3.644  10.142 -0.8473  0.7317  0.8550
   20SAPC   H2Y 2592  -0.114   3.528  10.258  1.4533  1.9243  1.7036
   20SAPC   C23 2593   0.571   3.661  10.087  0.3078 -0.1999 -0.0086
   20SAPC   H3R 2594   0.624   3.714  10.005 -1.3586  2.5148  0.5524
   20SAPC   H3S 2595   0.466   3.632  10.063  1.0195 -1.5931 -1.6243
   20SAPC   C24 2596   0.659   3.538  10.115 -0.5378 -0.8600  0.1612
   20SAPC   H4R 2597   0.608   3.480  10.195 -0.8657 -0.9695 -0.1234
   20SAPC   H4S 2598   0.760   3.574  10.145  0.4011 -0.0641 -3.4736
   20SAPC   C25 2599   0.650   3.450   9.989 -0.9857 -0.9134 -0.1298
   20SAPC   H5R 2600   0.554   3.440   9.935  0.2386 -1.2569 -2.3703
   20SAPC   C26 2601   0.756   3.391   9.929  0.2677 -0.4413  0.0777
   20SAPC   H6R 2602   0.729   3.330   9.842 -2.0814  1.4658 -0.6413
   20SAPC   C27 2603   0.900   3.387   9.966 -0.5947  0.1104  0.0943
   20SAPC   H7R 2604   0.932   3.440  10.059  0.6780 -1.6093  0.6970
   20SAPC   H7S 2605   0.957   3.435   9.884 -0.7383  0.7484  0.3579
   20SAPC   C28 2606   0.953   3.245   9.975  0.2730 -0.7723  0.0166
   20SAPC   H8R 2607   0.946   3.184  10.066  1.7818 -0.5878  0.2747
   20SAPC   C29 2608   1.009   3.180   9.867  1.2017  0.1941  0.3265
   20SAPC   H9R 2609   1.049   3.078   9.883 -2.6473 -1.3782  0.9173
   20SAPC  C210 2610   1.036   3.233   9.733  0.4026 -0.2398 -0.5007
   20SAPC  H10R 2611   1.143   3.261   9.740  0.5250 -0.8411  0.1524
   20SAPC  H10S 2612   0.972   3.322   9.715 -0.0150 -0.1567  1.1963
   20SAPC  C211 2613   1.028   3.139   9.613  0.4283 -0.0150 -0.0426
   20SAPC  H11R 2614   0.922   3.123   9.591 -0.0881 -0.8492  2.6503
   20SAPC  C212 2615   1.122   3.091   9.531  0.2549 -0.0561  0.8928
   20SAPC  H12R 2616   1.095   3.039   9.438  1.8048  0.0924  0.3295
   20SAPC  C213 2617   1.270   3.109   9.529 -0.1460 -0.3265 -0.0351
   20SAPC  H13R 2618   1.303   3.122   9.634  1.4532  2.7894 -0.8181
   20SAPC  H13S 2619   1.309   3.196   9.473 -0.6878  0.1948  0.3877
   20SAPC  C214 2620   1.359   3.000   9.477 -0.1970 -1.1909 -0.0463
   20SAPC  H14R 2621   1.392   2.928   9.553 -3.3261 -2.9212 -0.1587
   20SAPC  C215 2622   1.393   2.990   9.348 -0.8724 -0.0452  0.0211
   20SAPC  H15R 2623   1.448   2.899   9.319  0.7230  1.2998 -1.3768
   20SAPC  C216 2624   1.340   3.072   9.228  0.1234 -0.3047  0.5828
   20SAPC  H16R 2625   1.400   3.165   9.224  1.8163 -1.2338  2.4136
   20SAPC  H16S 2626   1.236   3.112   9.224  0.9099  2.2692 -6.0895
   20SAPC  C217 2627   1.351   2.998   9.091  0.0522  0.0471  0.2278
   20SAPC  H17R 2628   1.270   2.923   9.092  0.4733 -0.6509 -3.5168
   20SAPC  H17S 2629   1.455   2.959   9.078  0.1937  0.9082 -1.7150
   20SAPC  C218 2630   1.330   3.104   8.987 -0.2014  0.0530 -0.0325
   20SAPC  H18R 2631   1.407   3.183   8.998  0.2077 -0.4296  0.6908
   20SAPC  H18S 2632   1.237   3.161   9.003 -1.9606 -2.2943 -1.2178
   20SAPC  C219 2633   1.319   3.048   8.844 -0.5454 -0.3954  0.6083
   20SAPC  H19R 2634   1.252   2.960   8.834  1.5277 -1.9293 -0.9688
   20SAPC  H19S 2635   1.424   3.012   8.830  0.2486  2.1964 -0.8319
   20SAPC  C220 2636   1.289   3.154   8.730 -0.0353  0.2400  0.1888
   20SAPC  H20R 2637   1.288   3.116   8.626 -1.0964  0.4553  0.1074
   20SAPC  H20S 2638   1.364   3.236   8.735 -0.2180  0.3765  0.9120
   20SAPC  H20T 2639   1.189   3.192   8.759  0.8618  1.6311  1.6811
   20SAPC   C33 2640   0.025   3.442  10.109  0.0719  0.3829  0.9675
   20SAPC   H3X 2641   0.032   3.343  10.159  0.2051 -0.5188 -0.7848
   20SAPC   H3Y 2642   0.122   3.458  10.057 -0.6731 -3.6885 -2.1332
   20SAPC   C34 2643  -0.082   3.416   9.994 -0.6738 -0.6221 -0.0097
   20SAPC   H4X 2644  -0.083   3.507   9.931 -1.8260  0.0224  0.9002
   20SAPC   H4Y 2645  -0.175   3.419  10.055  1.9500  0.3257  4.4044
   20SAPC   C35 2646  -0.056   3.282   9.915  0.1477 -0.2838  0.5646
   20SAPC   H5X 2647  -0.069   3.214  10.002 -1.3012  0.9424  1.3623
   20SAPC   H5Y 2648   0.052   3.282   9.888  1.1733  2.3529  3.8534
   20SAPC   C36 2649  -0.152   3.247   9.799  0.0974 -0.8568  0.0469
   20SAPC   H6X 2650  -0.250   3.293   9.820  1.7147  2.1243  1.7453
   20SAPC   H6Y 2651  -0.160   3.136   9.790  1.7690 -0.9703 -0.4052
   20SAPC   C37 2652  -0.097   3.300   9.664 -0.0179 -0.1376 -0.1243
   20SAPC   H7X 2653   0.004   3.259   9.645  0.4328  0.9361 -0.0865
   20SAPC   H7Y 2654  -0.083   3.410   9.664  2.8615 -0.3614 -3.4778
   20SAPC   C38 2655  -0.189   3.263   9.542  0.1806  0.5862  0.3723
   20SAPC   H8X 2656  -0.198   3.152   9.548  0.1759  0.5654 -0.0244
   20SAPC   H8Y 2657  -0.141   3.284   9.445  1.4100 -1.3540  0.5019
   20SAPC   C39 2658  -0.334   3.310   9.546  0.5135  0.1448 -0.0649
   20SAPC   H9X 2659  -0.334   3.421   9.540 -0.8622  0.4299  3.3209
   20SAPC   H9Y 2660  -0.384   3.268   9.636  1.9640  0.8573  1.1243
   20SAPC  C310 2661  -0.393   3.262   9.412  0.4249  0.4357  0.7975
   20SAPC  H10X 2662  -0.401   3.151   9.417 -0.4926  0.5569  2.4362
   20SAPC  H10Y 2663  -0.319   3.290   9.334 -0.2660  0.4158  0.1273
   20SAPC  C311 2664  -0.528   3.326   9.387  0.4071  0.1579  0.9268
   20SAPC  H11X 2665  -0.533   3.437   9.389 -2.6828  0.2745 -2.6391
   20SAPC  H11Y 2666  -0.603   3.293   9.462 -2.2042  0.3068 -1.4539
   20SAPC  C312 2667  -0.577   3.269   9.250  0.0267 -0.6790  0.2384
   20SAPC  H12X 2668  -0.486   3.250   9.189 -1.2859 -2.6829 -1.2020
   20SAPC  H12Y 2669  -0.651   3.340   9.208  0.1965 -1.6756 -1.8897
   20SAPC  C313 2670  -0.656   3.135   9.260 -0.0013  0.3412  0.8122
   20SAPC  H13X 2671  -0.652   3.093   9.362  0.5106 -0.1870  0.5794
   20SAPC  H13Y 2672  -0.604   3.063   9.194 -1.3116 -0.1965  0.3274
   20SAPC  C314 2673  -0.806   3.156   9.233  0.1266  0.6085 -0.1016
   20SAPC  H14X 2674  -0.814   3.204   9.133  2.3914  0.8750 -0.2112
   20SAPC  H14Y 2675  -0.842   3.221   9.315 -0.4018 -0.1872  0.3057
   20SAPC  C315 2676  -0.891   3.028   9.217  0.4875 -0.3483 -0.3277
   20SAPC  H15X 2677  -0.878   2.972   9.312  0.6409  1.7784  0.9675
   20SAPC  H15Y 2678  -0.851   2.975   9.128  0.0009 -0.7824 -0.2918
   20SAPC  C316 2679  -1.039   3.064   9.194 -0.1921  0.4211  0.0628
   20SAPC  H16X 2680  -1.040   3.132   9.105  1.4112 -2.1053 -2.0235
   20SAPC  H16Y 2681  -1.067   3.130   9.279  0.4291 -1.2149  1.5807
   20SAPC  C317 2682  -1.134   2.947   9.177  0.1544  0.4028  0.4224
   20SAPC  H17X 2683  -1.146   2.911   9.072 -2.2529 -3.6125  1.8047
   20SAPC  H17Y 2684  -1.227   2.994   9.217  1.0733  1.0683  1.8424
   20SAPC  C318 2685  -1.123   2.818   9.254 -0.8949 -0.3763  0.1309
   20SAPC  H18X 2686  -1.029   2.768   9.224 -1.8687 -2.9906  1.0859
   20SAPC  H18Y 2687  -1.214   2.757   9.237  0.5230 -2.1317 -1.5827
   20SAPC  H18Z 2688  -1.109   2.837   9.363  1.2538 -0.7680 -0.0363
   21SAPC     N 2689   0.759   6.828  11.193 -0.6279 -0.1109  0.1850
   21SAPC   C12 2690   0.881   6.896  11.133  0.1880  0.3821 -0.2213
   21SAPC  H12A 2691   0.963   6.825  11.131 -0.6632 -0.6264 -0.1411
   21SAPC  H12B 2692   0.918   6.978  11.192  1.0255  0.0362 -0.2479
   21SAPC   C13 2693   0.785   6.790  11.338  0.2042  0.6716 -0.4267
   21SAPC  H13A 2694   0.879   6.737  11.341  0.7370  1.2400 -3.3921
   21SAPC  H13B 2695   0.801   6.875  11.402  0.7352 -0.2646  0.7219
   21SAPC  H13C 2696   0.713   6.722  11.380  2.7213 -1.3043  0.9804
   21SAPC   C14 2697   0.642   6.919  11.190 -0.2153  0.3257 -0.2822
   21SAPC  H14A 2698   0.627   6.963  11.093 -1.6714  0.2498 -0.1105
   21SAPC  H14B 2699   0.554   6.866  11.224  0.4516 -1.3226 -1.0061
   21SAPC  H14C 2700   0.674   6.993  11.262  0.9596  0.6847 -1.1440
   21SAPC   C15 2701   0.729   6.696  11.129  0.5870 -0.3181  0.2219
   21SAPC  H15A 2702   0.726   6.717  11.023  1.2707 -1.8683 -0.1324
   21SAPC  H15B 2703   0.811   6.626  11.121 -0.2344 -1.1576 -1.3802
   21SAPC  H15C 2704   0.644   6.637  11.159  0.0438 -0.8567 -2.1299
   21SAPC   C11 2705   0.858   6.946  10.985  0.3752 -0.0799  0.3903
   21SAPC  H11A 2706   0.832   6.859  10.921  0.3266  1.0542 -1.1861
   21SAPC  H11B 2707   0.961   6.975  10.953  0.1275  2.3842  1.5921
   21SAPC     P 2708   0.801   7.203  11.024 -0.0884  0.1683 -0.2844
   21SAPC   O13 2709   0.673   7.282  11.020 -0.2011  0.1571 -0.1500
   21SAPC   O14 2710   0.880   7.205  11.147  0.0511  0.6958 -0.3234
   21SAPC   O12 2711   0.760   7.055  10.983  0.3204 -0.1719 -0.0257
   21SAPC   O11 2712   0.890   7.251  10.902 -0.1265  0.1323 -0.5093
   21SAPC    C1 2713   0.825   7.282  10.784  0.3725 -0.0270 -0.0834
   21SAPC    HA 2714   0.745   7.211  10.755  0.1603  0.3916 -0.5483
   21SAPC    HB 2715   0.785   7.386  10.787  0.4420 -0.0145  1.8806
   21SAPC    C2 2716   0.933   7.263  10.679 -0.0638 -0.2776 -0.2763
   21SAPC    HS 2717   1.032   7.288  10.724 -0.4031 -1.9907  1.5609
   21SAPC   O21 2718   0.894   7.360  10.582 -0.1857 -0.2266 -0.6501
   21SAPC   C21 2719   0.986   7.401  10.506 -0.0973 -0.2406  0.2970
   21SAPC   O22 2720   1.104   7.389  10.516  0.3506 -0.6872 -0.3295
   21SAPC   C22 2721   0.920   7.463  10.385  0.3190 -1.1691 -0.0928
   21SAPC   H2R 2722   0.838   7.395  10.354  0.8676 -2.3804  1.0207
   21SAPC   H2S 2723   0.876   7.558  10.423 -1.6151 -0.4766 -3.5888
   21SAPC    C3 2724   0.942   7.116  10.617 -0.0342 -0.5242 -0.4861
   21SAPC    HX 2725   0.989   7.057  10.699 -1.5312 -1.0774  0.0029
   21SAPC    HY 2726   1.014   7.119  10.532 -0.3188  1.0110 -0.7029
   21SAPC   O31 2727   0.809   7.064  10.579 -0.8861  0.0159  0.2367
   21SAPC   C31 2728   0.800   6.931  10.580  0.1036  0.2889  0.0840
   21SAPC   O32 2729   0.890   6.859  10.608 -0.0216 -0.3241  0.1111
   21SAPC   C32 2730   0.663   6.891  10.531  0.0988  0.1048 -0.0628
   21SAPC   H2X 2731   0.598   6.981  10.533  0.3304  0.6029 -4.4330
   21SAPC   H2Y 2732   0.627   6.806  10.593 -0.1758  1.5480  1.8126
   21SAPC   C23 2733   1.022   7.500  10.271 -0.0371  0.3976 -0.0719
   21SAPC   H3R 2734   1.091   7.413  10.264  1.7344  1.7947 -0.8962
   21SAPC   H3S 2735   1.089   7.579  10.311 -0.8676  1.1070 -0.0583
   21SAPC   C24 2736   0.968   7.555  10.143 -0.0087 -0.1151 -0.0633
   21SAPC   H4R 2737   1.050   7.588  10.075 -0.3549  0.2849 -0.2940
   21SAPC   H4S 2738   0.905   7.645  10.158 -0.8633 -0.7290  0.0672
   21SAPC   C25 2739   0.889   7.442  10.078  0.2807  0.8232  0.2028
   21SAPC   H5R 2740   0.808   7.399  10.139 -0.6664  1.0859 -0.8562
   21SAPC   C26 2741   0.905   7.388   9.952 -0.4197 -0.2245  0.3783
   21SAPC   H6R 2742   0.847   7.298   9.924 -0.7755  0.4000 -0.9354
   21SAPC   C27 2743   1.001   7.420   9.845 -0.7088 -0.9744  0.1575
   21SAPC   H7R 2744   1.094   7.476   9.872  0.4615 -1.8761 -1.7267
   21SAPC   H7S 2745   0.946   7.482   9.771 -2.2544 -3.5881 -1.0255
   21SAPC   C28 2746   1.067   7.296   9.795 -0.0691  0.0078  0.5565
   21SAPC   H8R 2747   1.157   7.267   9.851 -1.2131 -0.8666  2.0230
   21SAPC   C29 2748   1.039   7.212   9.691  0.1515 -0.3077  0.3707
   21SAPC   H9R 2749   1.097   7.119   9.678  0.0073 -0.5859  1.5861
   21SAPC  C210 2750   0.927   7.225   9.585 -0.1536 -0.1820  0.3480
   21SAPC  H10R 2751   0.829   7.253   9.628 -0.9813 -0.4573 -1.3051
   21SAPC  H10S 2752   0.897   7.131   9.534 -0.9058  1.0635 -1.5956
   21SAPC  C211 2753   0.976   7.321   9.476  0.4476 -0.1981 -0.2220
   21SAPC  H11R 2754   1.031   7.408   9.514 -2.2298  1.4239  0.2042
   21SAPC  C212 2755   0.989   7.304   9.342  0.1524  0.4697  0.6951
   21SAPC  H12R 2756   1.039   7.385   9.286 -0.9799  0.7796  0.1072
   21SAPC  C213 2757   0.963   7.186   9.252  0.5757  0.4243  0.4985
   21SAPC  H13R 2758   0.861   7.206   9.211  0.1673  1.1928  1.8454
   21SAPC  H13S 2759   0.952   7.090   9.307 -0.0222  0.1692 -0.0472
   21SAPC  C214 2760   1.071   7.174   9.146 -0.5358  0.2667  0.7008
   21SAPC  H14R 2761   1.164   7.119   9.164 -0.8180 -0.0022  1.3424
   21SAPC  C215 2762   1.054   7.209   9.021  0.7499  0.9542 -0.2905
   21SAPC  H15R 2763   1.144   7.217   8.959  0.5281 -0.4097 -0.8366
   21SAPC  C216 2764   0.928   7.265   8.955 -0.5660 -0.9116 -0.1588
   21SAPC  H16R 2765   0.854   7.289   9.034  0.7002 -1.4820  1.2379
   21SAPC  H16S 2766   0.884   7.201   8.876 -1.2135 -0.5340 -0.1077
   21SAPC  C217 2767   0.976   7.391   8.879  0.0251 -0.3675 -0.5479
   21SAPC  H17R 2768   1.027   7.360   8.785 -1.7475 -0.1162 -1.6363
   21SAPC  H17S 2769   1.047   7.447   8.944  1.9689 -1.8858 -1.2430
   21SAPC  C218 2770   0.854   7.479   8.855 -0.0729  0.1607  0.2545
   21SAPC  H18R 2771   0.881   7.580   8.816 -0.0696  1.3975  3.2175
   21SAPC  H18S 2772   0.799   7.495   8.950 -2.0888 -0.4705 -0.7406
   21SAPC  C219 2773   0.744   7.414   8.761  0.1545  0.3728  0.1176
   21SAPC  H19R 2774   0.656   7.481   8.767 -0.1045  0.1024 -0.5272
   21SAPC  H19S 2775   0.705   7.316   8.795 -0.8317  0.3441 -1.0148
   21SAPC  C220 2776   0.781   7.392   8.608  0.2942  1.0647  0.6437
   21SAPC  H20R 2777   0.851   7.306   8.602 -2.2349 -1.1182  0.3527
   21SAPC  H20S 2778   0.816   7.489   8.566 -1.1166  1.1880 -0.3192
   21SAPC  H20T 2779   0.689   7.357   8.556  0.3039 -0.7533  1.7456
   21SAPC   C33 2780   0.661   6.818  10.393 -0.2081  0.0181  0.2066
   21SAPC   H3X 2781   0.562   6.769  10.379 -0.6988  1.3202 -1.1380
   21SAPC   H3Y 2782   0.738   6.739  10.384 -0.6176 -0.3511 -0.1087
   21SAPC   C34 2783   0.674   6.918  10.283 -0.4018  0.0179  0.5471
   21SAPC   H4X 2784   0.767   6.977  10.282  1.3911 -2.6405  0.4798
   21SAPC   H4Y 2785   0.597   6.998  10.283 -0.5605 -0.1337  0.7898
   21SAPC   C35 2786   0.663   6.855  10.142  0.4533  0.5963  0.1746
   21SAPC   H5X 2787   0.572   6.791  10.135  2.8237 -2.9357 -0.8586
   21SAPC   H5Y 2788   0.751   6.791  10.123 -0.5588 -0.0539 -2.8521
   21SAPC   C36 2789   0.654   6.962  10.028  0.4125  0.5260  0.1177
   21SAPC   H6X 2790   0.726   7.042  10.052  2.6298 -2.0381  2.6882
   21SAPC   H6Y 2791   0.563   7.021  10.050 -0.3853 -0.3239 -0.7879
   21SAPC   C37 2792   0.645   6.905   9.886 -0.5266  0.7602 -0.0064
   21SAPC   H7X 2793   0.559   6.834   9.889  1.8502 -2.3838 -0.8103
   21SAPC   H7Y 2794   0.736   6.850   9.854 -1.4528 -0.1771 -1.0714
   21SAPC   C38 2795   0.630   7.007   9.775  0.4446 -0.0518 -0.3967
   21SAPC   H8X 2796   0.727   7.060   9.764  1.1744 -1.1712  0.4244
   21SAPC   H8Y 2797   0.556   7.076   9.819  0.4819 -0.9207  1.1280
   21SAPC   C39 2798   0.577   6.956   9.640 -0.6937  0.3767  0.5597
   21SAPC   H9X 2799   0.508   7.033   9.598  0.7365  2.8201  2.4223
   21SAPC   H9Y 2800   0.521   6.862   9.657  1.0188 -0.4458  1.7940
   21SAPC  C310 2801   0.687   6.918   9.539  0.2743 -0.3787  0.0219
   21SAPC  H10X 2802   0.689   6.808   9.532 -2.2540 -0.4009 -1.9582
   21SAPC  H10Y 2803   0.787   6.957   9.567 -0.7170  2.3771  0.1039
   21SAPC  C311 2804   0.662   6.972   9.397 -0.1919  0.4790 -0.3571
   21SAPC  H11X 2805   0.711   7.071   9.388  0.4281  0.3414  1.2356
   21SAPC  H11Y 2806   0.554   6.978   9.372  0.0537  0.4025 -1.5139
   21SAPC  C312 2807   0.719   6.870   9.298  0.5118  0.1135 -0.2910
   21SAPC  H12X 2808   0.695   6.763   9.317 -1.5468  0.5633 -0.0889
   21SAPC  H12Y 2809   0.830   6.873   9.295  0.5410  1.3492  0.8829
   21SAPC  C313 2810   0.675   6.910   9.159 -0.1206  0.1516 -0.7293
   21SAPC  H13X 2811   0.713   7.013   9.144  0.6530  0.3360  1.9972
   21SAPC  H13Y 2812   0.566   6.895   9.145  0.1618 -2.1864 -0.8866
   21SAPC  C314 2813   0.741   6.818   9.052 -0.2368  0.9213  0.3853
   21SAPC  H14X 2814   0.711   6.714   9.077  1.4948  0.2870 -0.0459
   21SAPC  H14Y 2815   0.851   6.819   9.065 -0.1890  0.7397 -0.0015
   21SAPC  C315 2816   0.715   6.841   8.905 -0.1860 -0.0319  0.4290
   21SAPC  H15X 2817   0.610   6.812   8.881 -0.6295 -1.2164  3.3268
   21SAPC  H15Y 2818   0.784   6.778   8.845  0.9509  0.7185  0.9261
   21SAPC  C316 2819   0.737   6.985   8.866 -0.8218  0.1637  0.0690
   21SAPC  H16X 2820   0.845   7.005   8.882 -0.7729 -0.3146  0.3435
   21SAPC  H16Y 2821   0.667   7.047   8.926 -2.3273 -0.4654 -0.9606
   21SAPC  C317 2822   0.708   7.010   8.718  0.4752  0.0685  0.7909
   21SAPC  H17X 2823   0.735   6.918   8.662  1.8786  1.2852 -0.6239
   21SAPC  H17Y 2824   0.779   7.085   8.677 -0.0112  0.1852  0.1540
   21SAPC  C318 2825   0.559   7.043   8.678 -0.5653  0.6653  0.6684
   21SAPC  H18X 2826   0.545   7.046   8.568 -1.2388 -1.7118  0.6340
   21SAPC  H18Y 2827   0.534   7.143   8.720 -1.5182  0.7493 -0.0734
   21SAPC  H18Z 2828   0.483   6.971   8.716 -0.4452 -0.1229 -0.5264
   22SAPC     N 2829   3.281   5.586  10.732  0.0812 -0.0587  0.5642
   22SAPC   C12 2830   3.246   5.706  10.645 -0.1422 -0.8722 -0.3906
   22SAPC  H12A 2831   3.304   5.782  10.695  0.6061 -1.8392  0.2633
   22SAPC  H12B 2832   3.142   5.731  10.656 -0.0920  0.3267 -2.1467
   22SAPC   C13 2833   3.300   5.629  10.869 -0.1787 -0.1051  0.0568
   22SAPC  H13A 2834   3.387   5.693  10.874 -1.3237  1.6506 -1.3237
   22SAPC  H13B 2835   3.211   5.679  10.902 -1.8595 -1.8395 -1.5737
   22SAPC  H13C 2836   3.313   5.548  10.940  1.1925 -0.5684 -0.6711
   22SAPC   C14 2837   3.178   5.480  10.735 -0.0303  0.2086  0.4800
   22SAPC  H14A 2838   3.076   5.508  10.759 -0.9529 -1.2383 -1.4510
   22SAPC  H14B 2839   3.169   5.434  10.638  1.8223 -0.3974  0.5634
   22SAPC  H14C 2840   3.191   5.401  10.806  0.4442  0.2704  0.4626
   22SAPC   C15 2841   3.411   5.520  10.695 -0.1768 -0.1947  0.7947
   22SAPC  H15A 2842   3.409   5.431  10.755 -2.6031 -0.2437  0.7569
   22SAPC  H15B 2843   3.423   5.495  10.590 -0.8601 -3.1257  1.3416
   22SAPC  H15C 2844   3.495   5.583  10.720  0.8868 -1.3654  0.2856
   22SAPC   C11 2845   3.278   5.701  10.492 -0.8740 -1.0051 -0.9060
   22SAPC  H11A 2846   3.225   5.776  10.429  0.2661  0.0466 -0.6432
   22SAPC  H11B 2847   3.235   5.602  10.462 -2.0832 -0.6084 -0.5409
   22SAPC     P 2848   3.505   5.828  10.452  0.0800 -0.2557  0.5162
   22SAPC   O13 2849   3.447   5.937  10.536 -0.0174  0.5283 -0.0445
   22SAPC   O14 2850   3.644   5.794  10.483 -0.3162 -0.2618 -0.1803
   22SAPC   O12 2851   3.411   5.708  10.462 -0.0759  0.7734  0.6309
   22SAPC   O11 2852   3.505   5.869  10.297 -0.2185  0.2679  0.5065
   22SAPC    C1 2853   3.412   5.807  10.207 -0.5628  0.7333 -0.1389
   22SAPC    HA 2854   3.457   5.709  10.179 -0.2991  0.5938  0.7567
   22SAPC    HB 2855   3.313   5.794  10.255  0.0762  0.7258  1.2148
   22SAPC    C2 2856   3.398   5.884  10.079 -0.4580  0.5202  0.6147
   22SAPC    HS 2857   3.352   5.820  10.001  1.7411 -0.7267  0.2667
   22SAPC   O21 2858   3.521   5.937  10.028  0.2081  0.3119 -0.1562
   22SAPC   C21 2859   3.604   5.845   9.976 -0.3190 -0.1028  0.3741
   22SAPC   O22 2860   3.578   5.726   9.964  0.2484  0.2600 -0.1262
   22SAPC   C22 2861   3.742   5.903   9.929  0.0540  0.3098  0.1716
   22SAPC   H2R 2862   3.751   6.005   9.972 -0.2216  0.5343 -0.2882
   22SAPC   H2S 2863   3.819   5.844   9.983  0.0819  0.5541  0.4014
   22SAPC    C3 2864   3.294   6.000  10.104 -1.0099  0.1685 -0.0040
   22SAPC    HX 2865   3.293   6.068  10.016 -1.0649 -0.8399 -0.7993
   22SAPC    HY 2866   3.342   6.051  10.190  3.6514 -0.1933 -2.0918
   22SAPC   O31 2867   3.162   5.952  10.126 -0.0034  0.2793 -0.1179
   22SAPC   C31 2868   3.083   6.042  10.173 -0.1200  0.0785  0.2617
   22SAPC   O32 2869   3.118   6.159  10.188  0.0606 -0.2644  0.2435
   22SAPC   C32 2870   2.943   5.974  10.189  0.0179  0.0856  0.5515
   22SAPC   H2X 2871   2.953   5.925  10.288 -0.3458  1.8372  1.5115
   22SAPC   H2Y 2872   2.935   5.890  10.118 -0.0256 -1.0003  1.8040
   22SAPC   C23 2873   3.766   5.897   9.779 -0.2841  0.6308  0.7491
   22SAPC   H3R 2874   3.749   5.796   9.737  2.0686  0.5410 -0.1657
   22SAPC   H3S 2875   3.876   5.907   9.762 -0.4773  0.1725 -0.9446
   22SAPC   C24 2876   3.696   6.009   9.697 -0.3753  0.2144  0.1840
   22SAPC   H4R 2877   3.734   6.008   9.593  0.9796 -1.4898  0.6434
   22SAPC   H4S 2878   3.720   6.107   9.743  0.4204  0.0055  0.2265
   22SAPC   C25 2879   3.544   6.030   9.694 -0.0730  0.5390 -0.3717
   22SAPC   H5R 2880   3.505   6.119   9.744 -0.0266 -0.5007  1.6019
   22SAPC   C26 2881   3.445   5.946   9.652 -0.2202  0.3295 -0.4337
   22SAPC   H6R 2882   3.342   5.980   9.671 -0.0762  0.2959  0.4173
   22SAPC   C27 2883   3.462   5.813   9.580  0.2262 -0.0809 -0.0165
   22SAPC   H7R 2884   3.395   5.741   9.632 -2.1418  0.5413 -2.0275
   22SAPC   H7S 2885   3.565   5.772   9.582  0.0893 -0.4068  1.3099
   22SAPC   C28 2886   3.409   5.824   9.444 -0.6951 -0.2347 -0.4560
   22SAPC   H8R 2887   3.388   5.926   9.410  4.7723  1.6884  0.8326
   22SAPC   C29 2888   3.410   5.722   9.352  0.0818  0.2355 -0.4090
   22SAPC   H9R 2889   3.363   5.746   9.255  0.3774 -0.6049 -0.7630
   22SAPC  C210 2890   3.461   5.581   9.382  0.0341  0.1436  0.0697
   22SAPC  H10R 2891   3.460   5.563   9.491  1.3781 -0.6882 -0.0291
   22SAPC  H10S 2892   3.568   5.572   9.352  0.2336 -2.5869  1.3120
   22SAPC  C211 2893   3.380   5.470   9.315 -0.3604  0.0314 -0.4542
   22SAPC  H11R 2894   3.343   5.400   9.391  0.9980 -0.0534  0.1543
   22SAPC  C212 2895   3.375   5.436   9.185  0.3499  0.1725 -0.1767
   22SAPC  H12R 2896   3.322   5.343   9.158  0.5042  0.0411 -0.0273
   22SAPC  C213 2897   3.441   5.500   9.064  0.6265  0.8410 -0.3492
   22SAPC  H13R 2898   3.497   5.422   9.008 -0.2648 -0.5882  0.6953
   22SAPC  H13S 2899   3.516   5.573   9.101 -0.2424  0.3180  2.7167
   22SAPC  C214 2900   3.355   5.576   8.964 -0.1198  0.1191 -0.2950
   22SAPC  H14R 2901   3.268   5.626   9.009 -1.0978 -0.5043 -1.4575
   22SAPC  C215 2902   3.341   5.544   8.835  0.3045 -0.6175 -0.1416
   22SAPC  H15R 2903   3.268   5.613   8.789  1.0686 -0.1240 -0.6425
   22SAPC  C216 2904   3.416   5.440   8.754  0.5483 -0.2718  0.1937
   22SAPC  H16R 2905   3.351   5.360   8.714 -0.0326  0.0501  0.4758
   22SAPC  H16S 2906   3.497   5.393   8.814  2.1589  3.0892  0.9063
   22SAPC  C217 2907   3.485   5.519   8.638 -0.2268 -0.1169  0.0592
   22SAPC  H17R 2908   3.552   5.446   8.587 -2.3993 -0.5586 -2.3483
   22SAPC  H17S 2909   3.553   5.597   8.680 -0.4951 -0.3265  0.9011
   22SAPC  C218 2910   3.400   5.586   8.526 -0.4602 -0.4566 -0.0036
   22SAPC  H18R 2911   3.320   5.632   8.588  0.7115  0.9895  0.4944
   22SAPC  H18S 2912   3.343   5.521   8.456 -1.5933  3.0320 -2.5775
   22SAPC  C219 2913   3.469   5.712   8.471  0.6370 -0.0346 -0.4133
   22SAPC  H19R 2914   3.491   5.782   8.554 -1.6393  0.4085 -0.1008
   22SAPC  H19S 2915   3.402   5.764   8.400 -0.2582  0.6726  0.8913
   22SAPC  C220 2916   3.594   5.684   8.391  0.0410 -0.3026  0.0243
   22SAPC  H20R 2917   3.664   5.630   8.457 -0.0844  0.4872  0.8323
   22SAPC  H20S 2918   3.627   5.790   8.380 -2.1995  0.9400  3.3496
   22SAPC  H20T 2919   3.583   5.641   8.289  0.4717  0.0977 -0.1941
   22SAPC   C33 2920   2.812   6.064  10.177  0.2025 -0.0350  0.5443
   22SAPC   H3X 2921   2.802   6.122  10.271 -0.3068  0.4713  0.1845
   22SAPC   H3Y 2922   2.729   5.990  10.178  0.5463 -0.5456 -2.0110
   22SAPC   C34 2923   2.795   6.146  10.050  0.2003  0.5848  0.7952
   22SAPC   H4X 2924   2.872   6.226  10.042  0.3958  0.2991 -0.2692
   22SAPC   H4Y 2925   2.700   6.203  10.048 -0.0306  0.1941  0.1758
   22SAPC   C35 2926   2.792   6.058   9.925  0.2252  0.0003 -0.2165
   22SAPC   H5X 2927   2.722   5.972   9.937  0.0297 -0.3179 -2.8734
   22SAPC   H5Y 2928   2.892   6.011   9.912 -0.0655 -0.2829 -1.6699
   22SAPC   C36 2929   2.764   6.144   9.801 -0.2574 -0.6541 -0.0044
   22SAPC   H6X 2930   2.795   6.250   9.808  2.0332 -1.3744  1.9990
   22SAPC   H6Y 2931   2.655   6.168   9.804  0.4072  2.6637  2.3483
   22SAPC   C37 2932   2.805   6.074   9.671  0.3123  0.1704 -0.2676
   22SAPC   H7X 2933   2.755   5.975   9.663 -0.6206  0.5696  0.4848
   22SAPC   H7Y 2934   2.914   6.049   9.666  0.9225  2.5240  0.0960
   22SAPC   C38 2935   2.764   6.153   9.544 -0.8365  0.0446 -0.0867
   22SAPC   H8X 2936   2.839   6.235   9.541 -1.2853  0.4492 -2.7061
   22SAPC   H8Y 2937   2.658   6.186   9.547 -0.9414 -0.1210 -1.4035
   22SAPC   C39 2938   2.768   6.063   9.416  0.1158  0.3580 -0.0222
   22SAPC   H9X 2939   2.707   5.972   9.435  1.0830 -0.1289  0.8645
   22SAPC   H9Y 2940   2.870   6.020   9.406  0.2671 -0.3132  3.1867
   22SAPC  C310 2941   2.728   6.131   9.282 -0.5254 -0.4108  0.2539
   22SAPC  H10X 2942   2.818   6.192   9.259 -0.1323 -1.0247  0.1382
   22SAPC  H10Y 2943   2.649   6.208   9.295 -1.5581 -0.3748 -4.4560
   22SAPC  C311 2944   2.681   6.034   9.173 -0.0964 -0.3704 -0.1485
   22SAPC  H11X 2945   2.590   5.989   9.218 -0.6273  1.4234  0.6760
   22SAPC  H11Y 2946   2.755   5.952   9.161  2.6094  1.7909  0.5806
   22SAPC  C312 2947   2.652   6.102   9.037  0.1290  0.2635 -0.6182
   22SAPC  H12X 2948   2.574   6.179   9.057  0.4405  0.1733  1.1248
   22SAPC  H12Y 2949   2.598   6.038   8.964 -2.3529 -1.2379  2.3051
   22SAPC  C313 2950   2.767   6.183   8.975  0.3439 -0.3755  0.3136
   22SAPC  H13X 2951   2.856   6.117   8.965  0.3439 -0.6667  1.9435
   22SAPC  H13Y 2952   2.794   6.268   9.042  0.3638  0.0261 -0.1962
   22SAPC  C314 2953   2.739   6.254   8.841 -0.5667 -0.3358  0.5693
   22SAPC  H14X 2954   2.637   6.298   8.844 -1.8742 -3.1514  3.2187
   22SAPC  H14Y 2955   2.724   6.189   8.752  1.5119  1.1206 -0.9342
   22SAPC  C315 2956   2.840   6.365   8.804 -0.6135  0.4719 -0.2628
   22SAPC  H15X 2957   2.943   6.333   8.829 -0.8854 -0.1973  0.0114
   22SAPC  H15Y 2958   2.818   6.452   8.869  0.5660  1.0888 -0.6542
   22SAPC  C316 2959   2.848   6.412   8.659 -0.4281  0.0195  0.1444
   22SAPC  H16X 2960   2.750   6.463   8.648 -0.5088  0.4050  2.2158
   22SAPC  H16Y 2961   2.864   6.328   8.587 -0.0712 -0.8485  1.2019
   22SAPC  C317 2962   2.961   6.511   8.636  0.1773  0.3805 -0.6091
   22SAPC  H17X 2963   2.988   6.559   8.733  2.3148  3.1249 -2.4024
   22SAPC  H17Y 2964   2.930   6.591   8.565  1.4633  0.1750 -1.4367
   22SAPC  C318 2965   3.086   6.438   8.591  0.6217 -0.3747 -0.0713
   22SAPC  H18X 2966   3.124   6.372   8.671  0.5191 -2.9722 -2.0202
   22SAPC  H18Y 2967   3.167   6.511   8.571  0.7669 -0.6665 -0.5736
   22SAPC  H18Z 2968   3.068   6.375   8.500  3.7884 -1.0849 -0.2995
   23SAPC     N 2969   4.714   1.016  10.849 -0.0438  0.8919 -0.7744
   23SAPC   C12 2970   4.836   1.088  10.802 -0.3827  0.2367 -0.2348
   23SAPC  H12A 2971   4.886   1.036  10.721 -1.4218 -0.2634 -0.5669
   23SAPC  H12B 2972   4.903   1.104  10.885  1.9000  0.1577 -1.9534
   23SAPC   C13 2973   4.642   1.090  10.958  0.0922  0.0819 -0.5829
   23SAPC  H13A 2974   4.566   1.034  11.008  0.9865 -0.6416 -0.0021
   23SAPC  H13B 2975   4.707   1.133  11.033  0.0875 -2.0032  0.6805
   23SAPC  H13C 2976   4.595   1.175  10.910 -0.4312  0.3560  0.3962
   23SAPC   C14 2977   4.631   0.997  10.739 -0.4176 -0.3967  0.5359
   23SAPC  H14A 2978   4.548   0.928  10.742 -2.0345  1.2101 -2.2755
   23SAPC  H14B 2979   4.581   1.089  10.712  2.2740  0.6987 -1.2732
   23SAPC  H14C 2980   4.688   0.979  10.648 -1.9943  0.7151 -0.7271
   23SAPC   C15 2981   4.754   0.878  10.899  0.2220 -0.0791 -0.3107
   23SAPC  H15A 2982   4.662   0.848  10.945  0.6847 -2.0365 -0.5996
   23SAPC  H15B 2983   4.790   0.812  10.821 -0.5368 -0.3683 -0.4213
   23SAPC  H15C 2984   4.826   0.892  10.979 -1.6514  2.4558  1.0856
   23SAPC   C11 2985   4.810   1.231  10.734 -0.0503 -0.0624  0.7171
   23SAPC  H11A 2986   4.754   1.207  10.641  1.4812  1.4559 -0.6816
   23SAPC  H11B 2987   4.906   1.270  10.693  0.2563  0.0387  1.5075
   23SAPC     P 2988   4.634   1.418  10.792  0.3240  0.1684 -0.0467
   23SAPC   O13 2989   4.511   1.345  10.820 -0.8120 -0.3425  0.1734
   23SAPC   O14 2990   4.654   1.540  10.872 -0.1844 -0.0846 -0.5901
   23SAPC   O12 2991   4.755   1.326  10.824  0.0228 -0.0181  0.4703
   23SAPC   O11 2992   4.650   1.457  10.636 -0.5646 -0.7330 -0.2924
   23SAPC    C1 2993   4.710   1.574  10.598  0.0996  0.1568  0.6377
   23SAPC    HA 2994   4.636   1.656  10.594  0.6440  0.7098  1.7159
   23SAPC    HB 2995   4.793   1.606  10.665 -0.0099  1.8622 -0.0046
   23SAPC    C2 2996   4.769   1.564  10.453 -0.5547  0.0973 -0.7319
   23SAPC    HS 2997   4.823   1.661  10.446 -0.8194  0.5136  2.1204
   23SAPC   O21 2998   4.667   1.565  10.355  0.1598 -0.1907 -0.3294
   23SAPC   C21 2999   4.607   1.678  10.320 -0.1978  0.0528 -0.7398
   23SAPC   O22 3000   4.608   1.784  10.381  0.3534 -0.1250  0.0111
   23SAPC   C22 3001   4.559   1.658  10.183 -0.1375  0.3018 -0.0694
   23SAPC   H2R 3002   4.638   1.610  10.122 -0.8716  0.1970 -0.9639
   23SAPC   H2S 3003   4.480   1.581  10.190 -0.1059  0.2452 -0.3250
   23SAPC    C3 3004   4.866   1.435  10.432  0.1120 -0.8966 -0.1484
   23SAPC    HX 3005   4.791   1.354  10.433 -0.5379 -0.3032  0.3206
   23SAPC    HY 3006   4.943   1.417  10.510  0.6754 -1.0472 -0.7318
   23SAPC   O31 3007   4.948   1.454  10.311 -0.4859  0.1581 -0.1184
   23SAPC   C31 3008   5.006   1.344  10.262 -0.5280  0.1205 -0.2931
   23SAPC   O32 3009   4.997   1.228  10.300  0.2832  0.1800  0.2553
   23SAPC   C32 3010   5.066   1.402  10.129 -0.4308  0.8308 -0.5848
   23SAPC   H2X 3011   5.118   1.500  10.136  3.7619 -1.0875 -1.8839
   23SAPC   H2Y 3012   4.978   1.416  10.062 -0.7370  0.9763 -0.1618
   23SAPC   C23 3013   4.516   1.795  10.119 -0.2371 -0.1992  0.2844
   23SAPC   H3R 3014   4.603   1.864  10.128 -0.7852  0.5049  0.2560
   23SAPC   H3S 3015   4.423   1.837  10.164 -1.7981 -1.8421 -1.2274
   23SAPC   C24 3016   4.492   1.774   9.961 -0.1900 -0.3842 -0.7739
   23SAPC   H4R 3017   4.578   1.718   9.919 -0.9066 -1.0057 -1.4438
   23SAPC   H4S 3018   4.491   1.872   9.910 -1.0046  0.3152  0.5273
   23SAPC   C25 3019   4.367   1.695   9.944  0.0676  0.2498  0.5877
   23SAPC   H5R 3020   4.342   1.619  10.020 -2.4212  0.8714  0.4675
   23SAPC   C26 3021   4.268   1.710   9.855  0.8708 -0.1853  0.3290
   23SAPC   H6R 3022   4.187   1.635   9.861  0.1966  0.6153  2.1391
   23SAPC   C27 3023   4.266   1.827   9.751  0.8785  0.9868 -0.7001
   23SAPC   H7R 3024   4.259   1.922   9.808  2.2269  1.1403 -0.7481
   23SAPC   H7S 3025   4.169   1.821   9.698 -0.5077 -0.6389  1.7877
   23SAPC   C28 3026   4.382   1.828   9.654  0.1737  0.3646  1.6007
   23SAPC   H8R 3027   4.474   1.804   9.709  0.5816 -0.5840  0.5400
   23SAPC   C29 3028   4.383   1.846   9.521 -0.1762  0.1217  0.8828
   23SAPC   H9R 3029   4.476   1.833   9.463 -0.4831 -0.6347  0.5483
   23SAPC  C210 3030   4.263   1.874   9.446  0.7646 -0.5359  0.3437
   23SAPC  H10R 3031   4.212   1.971   9.462 -0.2009 -0.3879 -3.0152
   23SAPC  H10S 3032   4.185   1.800   9.477  0.4761 -1.1871 -1.7864
   23SAPC  C211 3033   4.280   1.837   9.298  1.0427 -0.5261 -0.4466
   23SAPC  H11R 3034   4.322   1.738   9.274 -0.8732 -1.2415 -0.9772
   23SAPC  C212 3035   4.262   1.927   9.199 -0.1172  1.2435 -0.0644
   23SAPC  H12R 3036   4.289   1.897   9.096 -2.0955 -2.1836  0.2747
   23SAPC  C213 3037   4.230   2.077   9.212  0.0468 -0.4387  0.0918
   23SAPC  H13R 3038   4.311   2.134   9.164  1.0313 -1.0967  0.9172
   23SAPC  H13S 3039   4.226   2.117   9.316 -0.1913 -0.7078  0.1884
   23SAPC  C214 3040   4.101   2.118   9.127 -1.0289  0.1791  0.0450
   23SAPC  H14R 3041   4.010   2.141   9.185 -2.7434 -2.5917 -1.3573
   23SAPC  C215 3042   4.103   2.126   8.992 -0.0351 -0.9481 -0.4650
   23SAPC  H15R 3043   4.019   2.169   8.935 -0.6707  1.9115  2.3215
   23SAPC  C216 3044   4.214   2.089   8.903 -0.5845  0.0599  0.6518
   23SAPC  H16R 3045   4.255   1.987   8.917 -2.2999 -0.8614 -0.7697
   23SAPC  H16S 3046   4.307   2.148   8.921  0.4650 -1.2637 -0.1825
   23SAPC  C217 3047   4.174   2.079   8.751  0.4028 -0.3102  0.1919
   23SAPC  H17R 3048   4.269   2.049   8.700  0.1054 -0.8070 -0.0748
   23SAPC  H17S 3049   4.147   2.176   8.705  2.4323 -0.0256 -0.5263
   23SAPC  C218 3050   4.065   1.979   8.713 -0.1840 -0.0647 -0.0553
   23SAPC  H18R 3051   3.965   2.009   8.749  0.2944  0.6450  0.7322
   23SAPC  H18S 3052   4.086   1.885   8.767 -1.7091 -1.4583 -1.7514
   23SAPC  C219 3053   4.062   1.943   8.570 -0.0404  0.9514 -0.6356
   23SAPC  H19R 3054   4.158   1.893   8.545 -1.0157 -1.6191  0.4038
   23SAPC  H19S 3055   4.048   2.036   8.512 -1.2673  1.8364  1.0013
   23SAPC  C220 3056   3.952   1.844   8.536  0.3153 -0.0353  0.2168
   23SAPC  H20R 3057   3.968   1.742   8.577 -0.1289  0.2555  1.1355
   23SAPC  H20S 3058   3.941   1.832   8.426 -1.1659  0.0487  0.3342
   23SAPC  H20T 3059   3.852   1.870   8.575  0.0253  1.2809 -1.3056
   23SAPC   C33 3060   5.174   1.316  10.063  0.3382 -0.3205 -0.2136
   23SAPC   H3X 3061   5.161   1.208  10.088 -2.2380  0.1396  0.7599
   23SAPC   H3Y 3062   5.271   1.338  10.112 -0.6202  0.0259  1.6464
   23SAPC   C34 3063   5.193   1.327   9.910  0.2671  0.6235  0.2408
   23SAPC   H4X 3064   5.283   1.266   9.890 -0.8212 -0.6721 -0.9161
   23SAPC   H4Y 3065   5.213   1.430   9.874  2.0210 -0.4891 -2.2171
   23SAPC   C35 3066   5.085   1.277   9.814  0.0130  0.7497 -0.4462
   23SAPC   H5X 3067   4.980   1.297   9.844 -0.4696 -1.3850 -0.5544
   23SAPC   H5Y 3068   5.108   1.168   9.812  0.1961  0.7848 -0.3364
   23SAPC   C36 3069   5.108   1.327   9.674  0.8560  0.2072 -0.9120
   23SAPC   H6X 3070   5.213   1.313   9.641  0.5421 -1.3961 -1.2866
   23SAPC   H6Y 3071   5.086   1.436   9.666  1.3472  0.2393 -1.9498
   23SAPC   C37 3072   5.013   1.231   9.584 -0.0319  0.1100 -0.6988
   23SAPC   H7X 3073   4.910   1.217   9.624  0.5002  1.4462  1.2956
   23SAPC   H7Y 3074   5.077   1.141   9.577  2.1890  1.3863  1.5915
   23SAPC   C38 3075   5.006   1.305   9.451 -0.4799 -0.3085  0.8531
   23SAPC   H8X 3076   5.105   1.338   9.414 -0.6324 -1.0608 -0.2902
   23SAPC   H8Y 3077   4.952   1.402   9.461 -1.1455 -0.3151 -1.8920
   23SAPC   C39 3078   4.963   1.216   9.334  0.3158 -0.1018 -0.7104
   23SAPC   H9X 3079   4.872   1.159   9.363  0.7917 -1.7613 -2.2514
   23SAPC   H9Y 3080   5.029   1.127   9.327 -2.2440 -2.1087 -1.1853
   23SAPC  C310 3081   4.942   1.293   9.202  0.6053  0.9171 -0.1412
   23SAPC  H10X 3082   4.961   1.219   9.121  3.1123  1.7893 -0.4350
   23SAPC  H10Y 3083   5.020   1.370   9.186 -0.2614  1.7936 -0.2371
   23SAPC  C311 3084   4.805   1.362   9.187 -0.1974  0.1906  0.5673
   23SAPC  H11X 3085   4.796   1.425   9.278  2.4120 -2.6159  3.0204
   23SAPC  H11Y 3086   4.720   1.291   9.205 -0.5801  1.2587  3.5575
   23SAPC  C312 3087   4.785   1.432   9.049 -0.6145 -0.3730 -0.1791
   23SAPC  H12X 3088   4.851   1.519   9.030 -0.2875 -0.5075  0.3278
   23SAPC  H12Y 3089   4.679   1.464   9.059 -0.5297  0.1013 -0.6981
   23SAPC  C313 3090   4.807   1.344   8.925  0.1019 -0.6936 -0.1907
   23SAPC  H13X 3091   4.914   1.315   8.927  0.4267  0.4692  0.5050
   23SAPC  H13Y 3092   4.808   1.418   8.842  0.5225  1.4781  1.6519
   23SAPC  C314 3093   4.695   1.236   8.907  0.1050 -0.5097 -0.2568
   23SAPC  H14X 3094   4.598   1.291   8.910 -0.8003 -2.0857  0.1413
   23SAPC  H14Y 3095   4.700   1.164   8.991 -2.3733 -0.9625 -0.4510
   23SAPC  C315 3096   4.705   1.152   8.777 -0.1168  0.4676  0.1053
   23SAPC  H15X 3097   4.804   1.102   8.776  0.5720  1.7722  0.5391
   23SAPC  H15Y 3098   4.702   1.213   8.684  0.1752 -0.3951 -0.4877
   23SAPC  C316 3099   4.588   1.051   8.774 -0.5259 -0.5140  0.1391
   23SAPC  H16X 3100   4.496   1.109   8.796 -1.6294 -1.1498 -2.4138
   23SAPC  H16Y 3101   4.605   0.977   8.855  1.4589  0.3017  0.5196
   23SAPC  C317 3102   4.556   0.984   8.637  0.5620 -0.7644  0.0251
   23SAPC  H17X 3103   4.536   0.877   8.663  0.9919 -0.7273  0.5347
   23SAPC  H17Y 3104   4.644   0.983   8.569  0.0842 -1.7348 -0.6112
   23SAPC  C318 3105   4.443   1.056   8.550  0.3599 -0.3885 -0.0681
   23SAPC  H18X 3106   4.346   1.049   8.605  0.2702 -0.7996 -0.2713
   23SAPC  H18Y 3107   4.449   1.013   8.448  0.4520  0.3998 -0.4009
   23SAPC  H18Z 3108   4.476   1.162   8.548 -0.9987  0.0504 -1.6029
   24SAPC     N 3109   4.931   6.023  10.999 -0.7389 -0.2030  0.0750
   24SAPC   C12 3110   4.971   6.106  10.870 -0.1682  0.6868 -0.5089
   24SAPC  H12A 3111   4.891   6.097  10.798 -0.5453  2.5180 -0.3702
   24SAPC  H12B 3112   5.056   6.063  10.820  0.7297  1.9457 -0.1265
   24SAPC   C13 3113   4.918   5.881  10.957 -0.2458 -1.0309  0.0527
   24SAPC  H13A 3114   4.874   5.817  11.032  0.4254 -0.2142  1.1731
   24SAPC  H13B 3115   4.857   5.871  10.868  0.7346  0.4774 -0.8326
   24SAPC  H13C 3116   5.013   5.836  10.933  0.4491 -0.4464  1.5802
   24SAPC   C14 3117   5.057   6.026  11.082 -0.2611 -0.5828 -0.7640
   24SAPC  H14A 3118   5.071   5.940  11.146  0.7086  3.3215  5.0369
   24SAPC  H14B 3119   5.152   6.048  11.035  0.7400 -2.2956  0.3140
   24SAPC  H14C 3120   5.045   6.112  11.145 -2.4648 -0.5483 -1.1671
   24SAPC   C15 3121   4.809   6.068  11.074  0.5346  0.0229 -0.0281
   24SAPC  H15A 3122   4.815   6.174  11.093 -1.7672  0.4487 -1.3419
   24SAPC  H15B 3123   4.724   6.061  11.008 -0.6037 -0.1140  1.4074
   24SAPC  H15C 3124   4.801   6.012  11.166  2.1840  2.1786  1.5377
   24SAPC   C11 3125   5.001   6.252  10.874 -0.2574 -0.1577 -0.3809
   24SAPC  H11A 3126   4.917   6.295  10.934  1.2790  0.8227  1.1379
   24SAPC  H11B 3127   5.001   6.309  10.778  0.4305  0.7171  0.1257
   24SAPC     P 3128   5.227   6.387  10.877  0.2560  0.3401  0.0953
   24SAPC   O13 3129   5.152   6.514  10.858  0.3781 -0.5074 -0.4921
   24SAPC   O14 3130   5.352   6.383  10.951 -0.1985  0.4104 -0.1412
   24SAPC   O12 3131   5.126   6.283  10.943  0.4651  0.3253 -0.5359
   24SAPC   O11 3132   5.248   6.327  10.737  0.3275 -0.0676 -0.7126
   24SAPC    C1 3133   5.275   6.194  10.711 -0.0146 -0.8583  0.1970
   24SAPC    HA 3134   5.345   6.151  10.786 -1.2688 -2.1789  0.6587
   24SAPC    HB 3135   5.184   6.131  10.701  0.7330 -2.1014  1.0063
   24SAPC    C2 3136   5.353   6.178  10.574 -0.4456  0.1360 -0.2209
   24SAPC    HS 3137   5.439   6.247  10.588  0.5319 -0.7264 -1.7028
   24SAPC   O21 3138   5.273   6.239  10.473  0.2574  0.5616  0.5752
   24SAPC   C21 3139   5.334   6.263  10.354  0.0201 -0.1578  0.0166
   24SAPC   O22 3140   5.453   6.258  10.340 -0.3103 -0.7871  0.0005
   24SAPC   C22 3141   5.232   6.301  10.246 -0.7593  0.4280  0.7762
   24SAPC   H2R 3142   5.162   6.216  10.232  1.6276 -1.8075  1.7538
   24SAPC   H2S 3143   5.176   6.395  10.268  1.5835  1.5011  2.6163
   24SAPC    C3 3144   5.388   6.037  10.530  0.2247  0.0140 -0.4744
   24SAPC    HX 3145   5.433   5.984  10.617  1.4623 -0.1118 -1.1779
   24SAPC    HY 3146   5.471   6.045  10.457  1.0248  0.6889  0.4920
   24SAPC   O31 3147   5.268   5.967  10.486 -0.1069  0.4578  0.8184
   24SAPC   C31 3148   5.292   5.880  10.382 -0.2637  0.5767 -0.3322
   24SAPC   O32 3149   5.401   5.871  10.330 -0.3095  0.1670 -0.3655
   24SAPC   C32 3150   5.159   5.819  10.331 -0.9676  0.6464  0.1280
   24SAPC   H2X 3151   5.088   5.815  10.416  0.4772 -1.8196  1.3157
   24SAPC   H2Y 3152   5.173   5.716  10.292 -2.2410  0.3783  0.3291
   24SAPC   C23 3153   5.306   6.335  10.111 -0.0878 -0.2392 -0.0607
   24SAPC   H3R 3154   5.367   6.249  10.077 -1.6104 -1.2485 -0.3605
   24SAPC   H3S 3155   5.361   6.429  10.134 -1.2059  0.8893 -1.7959
   24SAPC   C24 3156   5.215   6.362   9.985  0.5187 -0.4278 -0.4358
   24SAPC   H4R 3157   5.128   6.293   9.971 -0.2337  0.6363 -1.1223
   24SAPC   H4S 3158   5.277   6.350   9.894  1.6142 -1.0218  0.3705
   24SAPC   C25 3159   5.163   6.504   9.966 -0.4146  0.0925 -0.6452
   24SAPC   H5R 3160   5.147   6.559  10.059  1.8842 -0.2479  0.0168
   24SAPC   C26 3161   5.141   6.579   9.850 -0.0876  0.6781  0.2755
   24SAPC   H6R 3162   5.107   6.684   9.857  0.6372  0.9590 -0.3307
   24SAPC   C27 3163   5.155   6.520   9.706 -0.3913 -0.6740  0.3112
   24SAPC   H7R 3164   5.058   6.529   9.653 -1.0556 -0.3539  1.5396
   24SAPC   H7S 3165   5.172   6.410   9.716  1.9835 -0.1613  3.1200
   24SAPC   C28 3166   5.266   6.572   9.618  0.6554  0.6185  1.0061
   24SAPC   H8R 3167   5.364   6.595   9.664  1.0059  1.1265  0.0393
   24SAPC   C29 3168   5.263   6.586   9.480  0.3667  0.5793 -0.5438
   24SAPC   H9R 3169   5.357   6.614   9.430  0.0857  3.4226  0.3180
   24SAPC  C210 3170   5.147   6.578   9.387  0.4055 -0.4122  0.4567
   24SAPC  H10R 3171   5.157   6.679   9.343  3.5181 -1.5460 -1.8181
   24SAPC  H10S 3172   5.046   6.560   9.429 -0.1198 -1.3686 -1.1007
   24SAPC  C211 3173   5.173   6.465   9.289  0.4696  0.0839 -0.1002
   24SAPC  H11R 3174   5.195   6.366   9.332  1.2927 -0.1499 -1.0261
   24SAPC  C212 3175   5.175   6.468   9.154 -0.5304 -0.1193 -0.2908
   24SAPC  H12R 3176   5.192   6.373   9.102 -1.6087 -1.2096  1.2632
   24SAPC  C213 3177   5.144   6.593   9.072 -0.0058 -0.0642  0.3958
   24SAPC  H13R 3178   5.130   6.678   9.142 -1.1071  0.8586 -0.8842
   24SAPC  H13S 3179   5.044   6.576   9.026  0.5419 -1.9533 -0.1595
   24SAPC  C214 3180   5.244   6.644   8.970 -0.5861  0.0601 -0.1765
   24SAPC  H14R 3181   5.323   6.712   9.006  0.8245 -1.7419  0.2412
   24SAPC  C215 3182   5.260   6.598   8.844  0.4210  0.0194  0.5063
   24SAPC  H15R 3183   5.345   6.629   8.782 -1.0370 -2.6552 -3.2642
   24SAPC  C216 3184   5.178   6.482   8.780  0.1738  0.0691 -0.5655
   24SAPC  H16R 3185   5.072   6.505   8.805  0.3838 -0.8273  1.3421
   24SAPC  H16S 3186   5.198   6.391   8.840 -0.6941  0.6002  0.5807
   24SAPC  C217 3187   5.194   6.445   8.635 -0.1654  0.1582  0.6438
   24SAPC  H17R 3188   5.299   6.420   8.611  0.8175  1.5366  3.1097
   24SAPC  H17S 3189   5.166   6.531   8.570  1.5955 -0.6408 -1.2692
   24SAPC  C218 3190   5.116   6.311   8.602 -0.5463  0.0606 -0.3851
   24SAPC  H18R 3191   5.008   6.333   8.618 -0.1945  1.5754  0.0589
   24SAPC  H18S 3192   5.148   6.251   8.691  0.2279  2.6568  1.2120
   24SAPC  C219 3193   5.134   6.248   8.461 -0.4723 -0.3763 -0.1493
   24SAPC  H19R 3194   5.083   6.150   8.474  1.3565 -1.5433 -1.4517
   24SAPC  H19S 3195   5.241   6.223   8.444  0.7559  2.1826  2.8422
   24SAPC  C220 3196   5.077   6.330   8.350 -0.7214 -0.0740 -0.7921
   24SAPC  H20R 3197   5.136   6.424   8.335  3.2182 -2.3961 -1.2205
   24SAPC  H20S 3198   4.970   6.358   8.357  0.0574  3.3038 -0.5368
   24SAPC  H20T 3199   5.105   6.286   8.252  1.8510 -1.8041  0.5954
   24SAPC   C33 3200   5.103   5.902  10.213 -0.8983 -0.7736 -0.2815
   24SAPC   H3X 3201   5.087   6.006  10.250  0.2224 -0.9158  0.6614
   24SAPC   H3Y 3202   5.006   5.856  10.182 -0.9286 -0.4045 -0.7473
   24SAPC   C34 3203   5.200   5.919  10.089 -0.3909  1.1794 -0.5899
   24SAPC   H4X 3204   5.241   5.818  10.067 -0.5969  0.6504  1.2476
   24SAPC   H4Y 3205   5.291   5.982  10.102  2.0450 -2.0288 -0.9102
   24SAPC   C35 3206   5.112   5.966   9.965 -0.2191  0.3130  0.1120
   24SAPC   H5X 3207   5.067   6.067   9.977 -0.8799  0.2418 -1.5275
   24SAPC   H5Y 3208   5.034   5.888   9.972 -0.3167  0.4467  0.5376
   24SAPC   C36 3209   5.190   5.971   9.827  0.3313  0.0228 -0.4315
   24SAPC   H6X 3210   5.237   5.870   9.820 -1.6430 -0.9765  0.0936
   24SAPC   H6Y 3211   5.268   6.049   9.840 -1.3884  1.4095  2.1491
   24SAPC   C37 3212   5.099   5.999   9.712  0.5290  0.0095  0.4906
   24SAPC   H7X 3213   5.052   6.097   9.733 -0.3261 -0.6283  1.6367
   24SAPC   H7Y 3214   5.014   5.928   9.716 -0.0985  0.5782 -1.4062
   24SAPC   C38 3215   5.159   6.002   9.574 -0.0621 -0.1409  0.3026
   24SAPC   H8X 3216   5.169   5.898   9.535  1.7818  0.5710 -1.3123
   24SAPC   H8Y 3217   5.261   6.048   9.578 -1.2955  2.7873  0.9172
   24SAPC   C39 3218   5.072   6.071   9.464 -0.0587 -0.1986  0.1174
   24SAPC   H9X 3219   5.080   6.179   9.489  0.0761  0.2160 -1.6056
   24SAPC   H9Y 3220   4.969   6.031   9.469 -0.3495  0.5745  0.3597
   24SAPC  C310 3221   5.124   6.059   9.324  0.1090 -0.3538 -0.3212
   24SAPC  H10X 3222   5.133   5.954   9.291 -0.9061 -0.0464 -1.6976
   24SAPC  H10Y 3223   5.223   6.108   9.313  0.2857 -0.0682  2.0361
   24SAPC  C311 3224   5.038   6.121   9.218 -0.5006  0.3604 -0.3709
   24SAPC  H11X 3225   5.051   6.231   9.221 -0.1684  0.3080  0.3943
   24SAPC  H11Y 3226   4.930   6.098   9.230 -0.8537  0.9357 -2.1239
   24SAPC  C312 3227   5.063   6.066   9.077  0.2701 -0.1248  0.8825
   24SAPC  H12X 3228   5.038   5.958   9.064 -0.8249  0.3242 -1.4376
   24SAPC  H12Y 3229   5.171   6.075   9.052  0.5341  0.7634  2.2874
   24SAPC  C313 3230   4.974   6.148   8.984  0.3121 -0.5762 -0.0834
   24SAPC  H13X 3231   5.015   6.251   8.988  0.4861 -0.6492  0.0241
   24SAPC  H13Y 3232   4.872   6.151   9.028  0.7608 -1.1416  1.0587
   24SAPC  C314 3233   4.972   6.080   8.847  0.3778  0.1405  0.0430
   24SAPC  H14X 3234   5.072   6.070   8.800  1.2635  3.5655  0.9343
   24SAPC  H14Y 3235   4.912   6.154   8.790 -1.3977  0.3335  2.0354
   24SAPC  C315 3236   4.903   5.949   8.847  0.7240 -0.7941 -0.4577
   24SAPC  H15X 3237   4.801   5.968   8.888  0.6374  1.6763 -1.6815
   24SAPC  H15Y 3238   4.956   5.873   8.909  1.5731 -1.1345 -1.5654
   24SAPC  C316 3239   4.871   5.905   8.704  0.3658  0.4216  0.0779
   24SAPC  H16X 3240   4.970   5.913   8.654  0.7969  0.5944  0.9436
   24SAPC  H16Y 3241   4.795   5.976   8.665  0.2184  1.7492  2.5850
   24SAPC  C317 3242   4.830   5.756   8.683 -0.2732 -0.5618 -0.1718
   24SAPC  H17X 3243   4.757   5.731   8.763  0.5003 -1.5494  0.2471
   24SAPC  H17Y 3244   4.912   5.682   8.695 -0.1135 -0.3018  0.4002
   24SAPC  C318 3245   4.761   5.731   8.549  0.1291 -0.3476  0.4456
   24SAPC  H18X 3246   4.831   5.748   8.465  0.4325 -0.7334  0.6198
   24SAPC  H18Y 3247   4.672   5.797   8.538  0.0316 -0.4502  0.6175
   24SAPC  H18Z 3248   4.722   5.627   8.545  1.5661 -0.8870 -0.1267
   25SAPC     N 3249   1.978   4.646   5.952  0.5663 -0.9959 -0.3313
   25SAPC   C12 3250   1.947   4.672   6.099  0.6394  0.0196 -0.2852
   25SAPC  H12A 3251   2.030   4.639   6.159 -1.1176 -1.2045  1.5841
   25SAPC  H12B 3252   1.863   4.608   6.120  0.9895 -0.1315  0.7307
   25SAPC   C13 3253   2.105   4.724   5.928 -0.0371 -0.7863 -0.2573
   25SAPC  H13A 3254   2.141   4.704   5.829  0.5994  0.4389 -0.2925
   25SAPC  H13B 3255   2.088   4.830   5.941  0.9087 -0.6235 -0.2789
   25SAPC  H13C 3256   2.184   4.688   5.993 -0.5057 -2.0413 -0.3596
   25SAPC   C14 3257   2.006   4.503   5.920  0.7395  0.3584 -0.1538
   25SAPC  H14A 3258   2.087   4.476   5.987  0.1883  0.9017  0.7468
   25SAPC  H14B 3259   1.918   4.444   5.941 -0.8347  2.9782  1.0955
   25SAPC  H14C 3260   2.027   4.498   5.814 -2.9665 -0.1869 -0.9937
   25SAPC   C15 3261   1.864   4.692   5.867  0.7633  0.1508 -0.1599
   25SAPC  H15A 3262   1.785   4.619   5.878 -0.1954  0.9856 -1.2459
   25SAPC  H15B 3263   1.826   4.788   5.898 -3.8862 -2.0168  1.8730
   25SAPC  H15C 3264   1.883   4.702   5.761  0.5236 -0.5858 -0.2810
   25SAPC   C11 3265   1.892   4.809   6.143  0.3407 -0.2831  0.1722
   25SAPC  H11A 3266   1.950   4.881   6.082 -1.2165  0.1315 -0.8671
   25SAPC  H11B 3267   1.910   4.827   6.251  0.4977  0.9023 -0.0436
   25SAPC     P 3268   1.628   4.783   6.196  0.0957  0.2033  0.0985
   25SAPC   O13 3269   1.525   4.890   6.193  0.2740 -0.3126 -0.0857
   25SAPC   O14 3270   1.583   4.646   6.150  0.1304  0.5036 -0.6392
   25SAPC   O12 3271   1.756   4.827   6.101  0.4121  0.3571 -0.7130
   25SAPC   O11 3272   1.701   4.771   6.337  0.3511  0.0518  0.1021
   25SAPC    C1 3273   1.655   4.658   6.421 -0.2134 -0.3342 -0.0351
   25SAPC    HA 3274   1.626   4.570   6.361  1.9316  0.5289 -2.5214
   25SAPC    HB 3275   1.732   4.637   6.498  0.8636  0.1726 -0.9466
   25SAPC    C2 3276   1.529   4.697   6.500  0.5810  0.1938  0.7209
   25SAPC    HS 3277   1.459   4.725   6.418  0.5185 -0.0070  0.7048
   25SAPC   O21 3278   1.555   4.818   6.576 -0.4585 -0.1978  0.2086
   25SAPC   C21 3279   1.452   4.883   6.628 -0.2366  0.1445  0.2619
   25SAPC   O22 3280   1.336   4.862   6.606 -0.1854  0.7212  0.2080
   25SAPC   C22 3281   1.497   5.002   6.722  0.1365 -0.0027 -0.1802
   25SAPC   H2R 3282   1.607   5.015   6.720  0.1757  0.4551  2.0913
   25SAPC   H2S 3283   1.459   5.094   6.672 -0.1524  0.0881  0.2003
   25SAPC    C3 3284   1.473   4.589   6.598 -0.1955  0.0439  0.0087
   25SAPC    HX 3285   1.419   4.523   6.528 -1.3756  0.9109  0.0671
   25SAPC    HY 3286   1.383   4.624   6.653  0.4028  0.7599  0.5660
   25SAPC   O31 3287   1.583   4.530   6.671  0.0446 -0.0078 -0.3801
   25SAPC   C31 3288   1.547   4.413   6.735 -0.7808 -0.3359 -0.2637
   25SAPC   O32 3289   1.433   4.368   6.737 -0.0954  0.4580 -0.1040
   25SAPC   C32 3290   1.671   4.353   6.806 -0.5592 -0.1408 -0.5532
   25SAPC   H2X 3291   1.746   4.434   6.822  0.0263 -1.1204  2.2976
   25SAPC   H2Y 3292   1.701   4.266   6.744 -3.0199  0.1559 -2.2849
   25SAPC   C23 3293   1.441   4.995   6.866  0.2627 -0.2318 -0.2696
   25SAPC   H3R 3294   1.331   5.008   6.857  0.4307  1.0523 -0.7305
   25SAPC   H3S 3295   1.488   5.079   6.921 -1.2781  0.4087  0.1321
   25SAPC   C24 3296   1.453   4.855   6.942  0.2507  0.1556 -0.0118
   25SAPC   H4R 3297   1.409   4.772   6.883 -2.1618  1.9207 -0.9102
   25SAPC   H4S 3298   1.395   4.868   7.036  1.7167 -0.4864  1.0131
   25SAPC   C25 3299   1.596   4.827   6.975 -0.4823 -0.2941 -0.2037
   25SAPC   H5R 3300   1.653   4.788   6.889 -1.6373 -2.1169 -0.1956
   25SAPC   C26 3301   1.649   4.832   7.106  0.0284  0.0699  0.2019
   25SAPC   H6R 3302   1.756   4.809   7.110  0.1816  0.0116 -2.3573
   25SAPC   C27 3303   1.578   4.873   7.235 -0.2089  0.0523 -0.7843
   25SAPC   H7R 3304   1.658   4.849   7.309  0.7614 -0.1662 -1.8740
   25SAPC   H7S 3305   1.496   4.807   7.270 -0.1391  1.4052  2.1841
   25SAPC   C28 3306   1.533   5.013   7.259 -0.0390  0.0291  0.5106
   25SAPC   H8R 3307   1.610   5.091   7.257  0.9840 -0.9622  0.7272
   25SAPC   C29 3308   1.405   5.054   7.304  0.0012  0.0493  0.7847
   25SAPC   H9R 3309   1.409   5.162   7.323 -0.6917  0.0168  1.1372
   25SAPC  C210 3310   1.273   4.981   7.325  0.5999  0.0288  0.1130
   25SAPC  H10R 3311   1.280   4.908   7.409 -2.3920 -1.0863 -0.4911
   25SAPC  H10S 3312   1.230   4.923   7.240  0.1505  1.4190 -0.6387
   25SAPC  C211 3313   1.177   5.088   7.368  0.3798  0.6173  0.3696
   25SAPC  H11R 3314   1.096   5.113   7.299 -1.0593  2.0561  2.4539
   25SAPC  C212 3315   1.169   5.131   7.494 -0.4321 -0.7400  0.3248
   25SAPC  H12R 3316   1.097   5.207   7.527 -2.2189 -2.3797  0.3804
   25SAPC  C213 3317   1.257   5.083   7.608  0.1920  1.0726 -0.4226
   25SAPC  H13R 3318   1.272   5.168   7.679 -1.8684  0.7420  0.4848
   25SAPC  H13S 3319   1.362   5.061   7.580  0.2174  1.6750 -0.8209
   25SAPC  C214 3320   1.194   4.955   7.669 -0.0050  0.0940 -0.0828
   25SAPC  H14R 3321   1.192   4.873   7.596  2.4691 -1.3889  1.3828
   25SAPC  C215 3322   1.133   4.937   7.791 -0.0087 -0.3822  0.4954
   25SAPC  H15R 3323   1.097   4.838   7.821 -1.8546 -1.2711 -3.9000
   25SAPC  C216 3324   1.113   5.056   7.893 -0.2368  0.4389  0.8300
   25SAPC  H16R 3325   1.008   5.073   7.923 -1.0160  0.6857 -1.8220
   25SAPC  H16S 3326   1.143   5.153   7.848 -0.7581 -0.2996 -1.2071
   25SAPC  C217 3327   1.186   5.051   8.027 -0.8861  0.4856  0.1284
   25SAPC  H17R 3328   1.157   5.142   8.084 -0.2632  1.0275 -0.4008
   25SAPC  H17S 3329   1.297   5.055   8.020 -0.7649  3.6033  2.1091
   25SAPC  C218 3330   1.163   4.927   8.124 -0.0294  0.5992 -0.5687
   25SAPC  H18R 3331   1.191   4.831   8.075 -0.8530 -0.2415  0.5361
   25SAPC  H18S 3332   1.055   4.922   8.151  0.2806  0.3856  0.7302
   25SAPC  C219 3333   1.242   4.933   8.258 -0.5107  0.2708  0.0001
   25SAPC  H19R 3334   1.258   5.037   8.293  1.0053 -0.3123  1.1379
   25SAPC  H19S 3335   1.345   4.895   8.245 -0.0840  1.4965 -0.3121
   25SAPC  C220 3336   1.193   4.838   8.375 -0.3210  0.6420  0.4940
   25SAPC  H20R 3337   1.171   4.732   8.352 -0.0752  0.6063  0.4220
   25SAPC  H20S 3338   1.105   4.873   8.434 -0.3691 -0.0039  0.8125
   25SAPC  H20T 3339   1.275   4.826   8.450 -0.9630  0.7176  1.2196
   25SAPC   C33 3340   1.631   4.294   6.947 -0.1517 -0.2343 -0.7275
   25SAPC   H3X 3341   1.718   4.238   6.986 -0.3835 -1.6140 -2.0716
   25SAPC   H3Y 3342   1.546   4.223   6.936  0.2449 -0.3302 -5.0030
   25SAPC   C34 3343   1.600   4.404   7.048 -0.1183  0.0898 -0.1888
   25SAPC   H4X 3344   1.527   4.478   7.008  2.7419  2.7351 -0.9457
   25SAPC   H4Y 3345   1.688   4.467   7.073  0.4641 -1.1426  0.9750
   25SAPC   C35 3346   1.545   4.347   7.178  0.4398  0.1662 -0.5092
   25SAPC   H5X 3347   1.450   4.293   7.155  0.0440  1.0475 -0.9932
   25SAPC   H5Y 3348   1.529   4.431   7.248  0.5110  1.2346 -1.7462
   25SAPC   C36 3349   1.632   4.245   7.247  0.6995  0.7788  0.2033
   25SAPC   H6X 3350   1.738   4.279   7.253  1.2597 -1.0113  3.1019
   25SAPC   H6Y 3351   1.625   4.152   7.186  0.4441  2.1123 -1.8580
   25SAPC   C37 3352   1.594   4.205   7.392 -0.1835  0.0800  0.4789
   25SAPC   H7X 3353   1.648   4.110   7.412 -1.3776 -1.0111 -1.1957
   25SAPC   H7Y 3354   1.484   4.185   7.393 -0.2043 -0.2596 -1.9173
   25SAPC   C38 3355   1.635   4.305   7.494 -0.2292  0.6239  0.0634
   25SAPC   H8X 3356   1.579   4.396   7.462 -3.5279 -0.9319  1.0156
   25SAPC   H8Y 3357   1.746   4.308   7.482 -0.2774 -0.4867 -0.7825
   25SAPC   C39 3358   1.605   4.260   7.639 -0.1672 -0.2129  0.2311
   25SAPC   H9X 3359   1.649   4.328   7.715 -1.3634  1.6856 -0.6974
   25SAPC   H9Y 3360   1.650   4.159   7.644 -2.6459 -1.4125  0.0355
   25SAPC  C310 3361   1.455   4.239   7.669  0.1377 -0.6085 -0.3877
   25SAPC  H10X 3362   1.390   4.174   7.606 -0.2163 -1.5065  0.8690
   25SAPC  H10Y 3363   1.415   4.343   7.669 -0.6442 -0.9021 -0.7124
   25SAPC  C311 3364   1.424   4.195   7.813 -0.3340  0.2525  0.2524
   25SAPC  H11X 3365   1.497   4.117   7.845 -1.0022  0.2969  2.0088
   25SAPC  H11Y 3366   1.331   4.135   7.806 -0.3695  0.4976 -1.8952
   25SAPC  C312 3367   1.418   4.302   7.916  0.8252 -0.3898  0.1921
   25SAPC  H12X 3368   1.335   4.374   7.898  1.0907  0.2948  1.6034
   25SAPC  H12Y 3369   1.507   4.368   7.922 -0.5344  1.3866  3.3416
   25SAPC  C313 3370   1.384   4.252   8.059 -0.6954  0.5187 -0.4587
   25SAPC  H13X 3371   1.463   4.187   8.100  1.1421  2.2281 -1.1332
   25SAPC  H13Y 3372   1.288   4.196   8.047 -0.3467 -1.1653  3.2638
   25SAPC  C314 3373   1.352   4.365   8.158  0.1431 -0.5715  0.4046
   25SAPC  H14X 3374   1.269   4.417   8.105  0.5843 -0.6896 -0.4236
   25SAPC  H14Y 3375   1.442   4.430   8.151 -0.8199  0.7155 -0.4758
   25SAPC  C315 3376   1.311   4.324   8.294  0.5251 -0.0332 -0.8377
   25SAPC  H15X 3377   1.404   4.295   8.348 -0.5317  0.4477  1.3542
   25SAPC  H15Y 3378   1.235   4.243   8.303 -1.0797  1.3216 -1.7279
   25SAPC  C316 3379   1.253   4.442   8.378  0.0510 -0.5764  0.4818
   25SAPC  H16X 3380   1.166   4.487   8.325 -0.9644 -1.6004  1.2330
   25SAPC  H16Y 3381   1.331   4.521   8.371 -0.2302 -0.2825  0.6155
   25SAPC  C317 3382   1.213   4.407   8.527 -0.0927 -0.5200 -0.2028
   25SAPC  H17X 3383   1.301   4.365   8.582  0.0627  0.3783  0.2475
   25SAPC  H17Y 3384   1.120   4.346   8.530 -0.4884  0.0527 -0.6068
   25SAPC  C318 3385   1.177   4.536   8.600 -0.4641 -0.0543  0.1600
   25SAPC  H18X 3386   1.268   4.594   8.628 -0.3633  0.2279 -0.7242
   25SAPC  H18Y 3387   1.138   4.514   8.702  0.1968  2.9844  1.1901
   25SAPC  H18Z 3388   1.100   4.590   8.542  1.6403  1.5801 -1.2710
   26SAPC     N 3389   2.147   0.281   5.806 -0.3099 -0.8938 -0.4245
   26SAPC   C12 3390   2.179   0.271   5.954 -0.0677  0.1672 -0.1077
   26SAPC  H12A 3391   2.268   0.325   5.983  0.1370  0.1473 -0.6913
   26SAPC  H12B 3392   2.189   0.166   5.979  2.7354  0.0122 -1.5130
   26SAPC   C13 3393   2.117   0.420   5.757  0.4719 -0.1095 -0.0411
   26SAPC  H13A 3394   2.204   0.484   5.768  0.8253 -0.3897 -1.0575
   26SAPC  H13B 3395   2.092   0.419   5.652 -1.4497 -0.2127  0.3761
   26SAPC  H13C 3396   2.039   0.457   5.822 -0.0442 -1.4434  0.1089
   26SAPC   C14 3397   2.268   0.231   5.734  0.3795 -1.1919 -0.1215
   26SAPC  H14A 3398   2.283   0.124   5.741  0.5250 -1.1434  0.4087
   26SAPC  H14B 3399   2.267   0.261   5.631 -0.0461  2.1587  0.7166
   26SAPC  H14C 3400   2.351   0.291   5.768 -0.5032 -0.4253  0.7791
   26SAPC   C15 3401   2.033   0.193   5.761  0.0520 -0.0809  0.6304
   26SAPC  H15A 3402   2.010   0.203   5.655 -1.0738 -1.1924  0.7483
   26SAPC  H15B 3403   2.057   0.088   5.766  0.9199  0.0510 -0.3501
   26SAPC  H15C 3404   1.948   0.218   5.823  0.9405 -0.3447  1.9936
   26SAPC   C11 3405   2.073   0.333   6.056  0.0239 -0.0490  0.9994
   26SAPC  H11A 3406   2.063   0.444   6.061  1.7652  0.1624  0.5333
   26SAPC  H11B 3407   2.114   0.316   6.157 -0.3740  0.8076  1.3156
   26SAPC     P 3408   1.902   0.158   6.127 -0.0590 -0.7016 -0.2412
   26SAPC   O13 3409   1.772   0.099   6.085 -0.7622  0.1302  0.0580
   26SAPC   O14 3410   2.012   0.062   6.141  0.2554 -0.2296 -0.1564
   26SAPC   O12 3411   1.945   0.282   6.035 -0.1186  0.6391 -0.8354
   26SAPC   O11 3412   1.881   0.233   6.268 -0.1378 -0.3101  0.0372
   26SAPC    C1 3413   1.815   0.162   6.378 -0.4153  0.4132  0.7110
   26SAPC    HA 3414   1.782   0.059   6.353 -1.6970  1.0134 -0.1814
   26SAPC    HB 3415   1.885   0.162   6.464 -1.0073  0.3373  1.1971
   26SAPC    C2 3416   1.687   0.241   6.425 -0.1413 -0.1163 -0.2570
   26SAPC    HS 3417   1.628   0.266   6.334  0.9154  3.4946 -0.1160
   26SAPC   O21 3418   1.732   0.364   6.477 -0.0668  0.3206 -0.0137
   26SAPC   C21 3419   1.655   0.467   6.486  0.3828 -0.2771 -0.0140
   26SAPC   O22 3420   1.536   0.469   6.456 -0.2164 -0.0953  0.0996
   26SAPC   C22 3421   1.729   0.581   6.566 -0.0368  0.1972 -0.4528
   26SAPC   H2R 3422   1.830   0.557   6.607 -0.2470  2.9700  2.0074
   26SAPC   H2S 3423   1.744   0.666   6.496  1.0604  1.3512  1.1104
   26SAPC    C3 3424   1.607   0.167   6.532 -0.4891  0.0488 -0.6448
   26SAPC    HX 3425   1.594   0.063   6.493 -0.8058 -0.9331  1.8805
   26SAPC    HY 3426   1.513   0.226   6.528 -0.5690 -0.1096 -1.2340
   26SAPC   O31 3427   1.660   0.164   6.668 -0.4095  0.0176 -0.3206
   26SAPC   C31 3428   1.582   0.096   6.750  0.0211 -0.5506  0.4510
   26SAPC   O32 3429   1.473   0.051   6.727 -0.7312  0.4092  0.1952
   26SAPC   C32 3430   1.653   0.089   6.880 -0.2905  0.5276 -0.0152
   26SAPC   H2X 3431   1.718   0.176   6.901  3.0954 -1.5297 -1.1403
   26SAPC   H2Y 3432   1.716  -0.002   6.888 -0.5592  0.2174 -1.1693
   26SAPC   C23 3433   1.639   0.646   6.675  0.9052  0.4279  0.1843
   26SAPC   H3R 3434   1.544   0.669   6.623  1.4603  1.9325 -0.1958
   26SAPC   H3S 3435   1.679   0.745   6.704  2.1796 -0.1898  0.5903
   26SAPC   C24 3436   1.602   0.557   6.799  0.4456  0.0141  0.2946
   26SAPC   H4R 3437   1.693   0.543   6.862  1.6725 -0.3124 -1.4699
   26SAPC   H4S 3438   1.583   0.456   6.757  0.5481  0.0288  0.2119
   26SAPC   C25 3439   1.494   0.618   6.880  0.0820  1.4054  0.0145
   26SAPC   H5R 3440   1.505   0.725   6.901 -1.3605  2.1469 -2.6002
   26SAPC   C26 3441   1.397   0.543   6.937 -0.4091 -0.3182  0.5411
   26SAPC   H6R 3442   1.335   0.585   7.017 -1.2714 -0.3893 -0.0799
   26SAPC   C27 3443   1.372   0.393   6.924  0.3535 -0.5536 -0.1498
   26SAPC   H7R 3444   1.349   0.346   7.021 -1.6574  0.4998 -0.0681
   26SAPC   H7S 3445   1.468   0.348   6.891  0.3472  1.3767 -3.2425
   26SAPC   C28 3446   1.260   0.381   6.824  0.5540  0.0263 -0.3829
   26SAPC   H8R 3447   1.283   0.334   6.727 -0.8005  0.7743 -1.0875
   26SAPC   C29 3448   1.133   0.424   6.842 -0.3161 -0.1983  0.1612
   26SAPC   H9R 3449   1.076   0.383   6.758  0.3032 -0.5984 -0.0751
   26SAPC  C210 3450   1.070   0.489   6.959 -0.6280 -1.3798 -0.9189
   26SAPC  H10R 3451   0.969   0.527   6.932  0.0342 -0.6367 -2.4968
   26SAPC  H10S 3452   1.124   0.584   6.982 -1.0943 -1.2993 -0.1423
   26SAPC  C211 3453   1.065   0.398   7.074 -0.2798  0.4246 -1.5691
   26SAPC  H11R 3454   1.067   0.292   7.046  0.1446  0.0931 -0.3422
   26SAPC  C212 3455   1.080   0.434   7.202 -0.4753 -0.9219 -0.7734
   26SAPC  H12R 3456   1.083   0.356   7.280 -0.6361  0.8969  1.1741
   26SAPC  C213 3457   1.102   0.571   7.254  0.2435 -0.4080 -0.4165
   26SAPC  H13R 3458   1.015   0.599   7.318  1.6810  0.3242  1.3200
   26SAPC  H13S 3459   1.124   0.643   7.173 -1.2719  1.5365  0.8162
   26SAPC  C214 3460   1.219   0.579   7.340 -0.3651  1.1020 -0.7733
   26SAPC  H14R 3461   1.310   0.583   7.277 -1.6960 -1.0342 -2.9946
   26SAPC  C215 3462   1.232   0.590   7.475  0.0877 -0.5545  0.5447
   26SAPC  H15R 3463   1.333   0.597   7.518  1.1646 -0.7328 -1.8109
   26SAPC  C216 3464   1.114   0.604   7.569 -0.8407 -0.4041 -0.4932
   26SAPC  H16R 3465   1.025   0.628   7.507  1.1110  0.1895 -3.2323
   26SAPC  H16S 3466   1.122   0.690   7.638  2.4641 -2.4789  2.0416
   26SAPC  C217 3467   1.083   0.480   7.661  0.4074  0.0757 -0.2860
   26SAPC  H17R 3468   1.174   0.455   7.718  0.5232  2.4535  0.6926
   26SAPC  H17S 3469   1.055   0.403   7.585 -2.1446  1.3411 -0.7421
   26SAPC  C218 3470   0.963   0.504   7.751  0.1914  0.1651 -0.7451
   26SAPC  H18R 3471   0.889   0.554   7.685 -0.0550  0.1850 -0.4577
   26SAPC  H18S 3472   0.980   0.574   7.835 -1.8134  0.7324 -0.7640
   26SAPC  C219 3473   0.904   0.383   7.820 -0.3663  0.5234 -0.0808
   26SAPC  H19R 3474   0.877   0.309   7.741  1.3941 -0.0555 -0.1830
   26SAPC  H19S 3475   0.807   0.415   7.863 -0.5253  0.1655 -0.1722
   26SAPC  C220 3476   0.990   0.324   7.927 -0.6147  0.2589 -0.2035
   26SAPC  H20R 3477   1.096   0.314   7.896 -0.4201  2.6995 -0.5053
   26SAPC  H20S 3478   0.950   0.222   7.946 -0.1610  0.0850 -0.1667
   26SAPC  H20T 3479   0.985   0.391   8.016 -0.7083 -2.0045  1.5923
   26SAPC   C33 3480   1.559   0.082   6.999 -0.3967  0.4275  0.4844
   26SAPC   H3X 3481   1.500  -0.009   6.975  2.2575 -1.3436  0.2921
   26SAPC   H3Y 3482   1.494   0.171   7.014  1.1620  1.5977  0.4634
   26SAPC   C34 3483   1.623   0.049   7.135 -0.1495 -0.5586  0.9003
   26SAPC   H4X 3484   1.709  -0.019   7.119 -0.0178 -0.3882  0.8836
   26SAPC   H4Y 3485   1.557  -0.023   7.187 -1.1352 -1.1007 -0.9905
   26SAPC   C35 3486   1.657   0.173   7.213  0.0566  0.0609  0.0874
   26SAPC   H5X 3487   1.580   0.252   7.199  0.2995  0.2264 -0.3325
   26SAPC   H5Y 3488   1.745   0.224   7.171 -0.1034  0.3630  0.1189
   26SAPC   C36 3489   1.672   0.158   7.363  0.5060  0.0297  0.4219
   26SAPC   H6X 3490   1.757   0.222   7.394  1.0128 -0.9216  1.0287
   26SAPC   H6Y 3491   1.706   0.055   7.388 -0.5196 -0.0767  1.4426
   26SAPC   C37 3492   1.548   0.196   7.445 -0.6693  0.9670  0.2717
   26SAPC   H7X 3493   1.459   0.149   7.397 -0.3965  1.6848 -1.0020
   26SAPC   H7Y 3494   1.533   0.306   7.451 -1.0435  0.9193  0.1937
   26SAPC   C38 3495   1.555   0.138   7.591 -0.0405  0.9457 -0.5909
   26SAPC   H8X 3496   1.636   0.193   7.643  0.3116 -1.3944  1.5349
   26SAPC   H8Y 3497   1.585   0.032   7.578  0.4785  1.1050 -0.6982
   26SAPC   C39 3498   1.423   0.158   7.664  0.9011 -0.0102  0.6373
   26SAPC   H9X 3499   1.347   0.110   7.598  2.5558 -1.1239 -0.5344
   26SAPC   H9Y 3500   1.396   0.265   7.675 -1.4594 -0.4446 -0.3103
   26SAPC  C310 3501   1.420   0.082   7.803 -0.4071 -0.2003  0.1626
   26SAPC  H10X 3502   1.454  -0.023   7.792  2.8924  0.7818 -0.1041
   26SAPC  H10Y 3503   1.315   0.088   7.841 -0.2763  0.9402  0.3791
   26SAPC  C311 3504   1.520   0.152   7.904 -0.7465 -0.1268  0.1086
   26SAPC  H11X 3505   1.604   0.191   7.843 -1.4508  2.0652  0.4599
   26SAPC  H11Y 3506   1.543   0.073   7.980  1.8941  0.7838  0.3477
   26SAPC  C312 3507   1.461   0.265   7.980  0.2177 -0.3349 -0.6380
   26SAPC  H12X 3508   1.383   0.317   7.921  0.7843  0.8901 -0.3340
   26SAPC  H12Y 3509   1.539   0.342   7.999 -0.4127  0.7047 -2.0632
   26SAPC  C313 3510   1.396   0.224   8.115  0.2431 -0.4099  0.5480
   26SAPC  H13X 3511   1.461   0.166   8.183 -1.4664 -1.8047  1.0430
   26SAPC  H13Y 3512   1.303   0.167   8.095 -1.3328  1.8924  0.9466
   26SAPC  C314 3513   1.339   0.354   8.182  1.3134 -0.2062 -0.6877
   26SAPC  H14X 3514   1.260   0.397   8.117  1.2232  3.0341  1.3460
   26SAPC  H14Y 3515   1.407   0.440   8.199  0.3611  1.2146 -3.4630
   26SAPC  C315 3516   1.280   0.309   8.314  1.0171 -0.0628 -0.6669
   26SAPC  H15X 3517   1.258   0.408   8.360 -1.9261 -0.5240 -0.8699
   26SAPC  H15Y 3518   1.351   0.257   8.381 -0.7021 -3.3055 -1.1660
   26SAPC  C316 3519   1.142   0.226   8.301 -0.1206 -0.1268 -0.5863
   26SAPC  H16X 3520   1.154   0.131   8.243 -0.5254  0.5501 -1.8216
   26SAPC  H16Y 3521   1.073   0.294   8.247  0.4059  1.8525  1.1171
   26SAPC  C317 3522   1.074   0.180   8.433  0.3400 -0.4874  0.0337
   26SAPC  H17X 3523   1.127   0.094   8.478  0.0110 -1.2092 -0.9285
   26SAPC  H17Y 3524   0.967   0.152   8.419  0.4460 -0.7399 -0.2755
   26SAPC  C318 3525   1.080   0.286   8.547 -0.5400  0.2236  0.1247
   26SAPC  H18X 3526   1.186   0.318   8.561 -0.9026  1.3342  0.4668
   26SAPC  H18Y 3527   1.043   0.243   8.643  1.3235  0.1903  0.8814
   26SAPC  H18Z 3528   1.029   0.381   8.518  0.6643  0.9685  0.3712
   27SAPC     N 3529   0.480   5.638   6.740 -0.6502 -0.0413 -1.3401
   27SAPC   C12 3530   0.398   5.542   6.653 -0.1952 -0.9898 -0.5339
   27SAPC  H12A 3531   0.403   5.572   6.550 -0.1310 -3.7198 -1.4211
   27SAPC  H12B 3532   0.298   5.548   6.694  0.3675  0.7824  0.7343
   27SAPC   C13 3533   0.456   5.600   6.891 -1.2679  0.1040  0.2500
   27SAPC  H13A 3534   0.492   5.499   6.906  3.1092  1.1194 -2.0194
   27SAPC  H13B 3535   0.509   5.659   6.964  4.0493 -2.9773 -0.6051
   27SAPC  H13C 3536   0.351   5.592   6.919 -0.8338 -0.0874  1.9377
   27SAPC   C14 3537   0.621   5.644   6.702  0.5599  0.1021  0.1797
   27SAPC  H14A 3538   0.670   5.728   6.748  0.0472  0.1172  0.7169
   27SAPC  H14B 3539   0.674   5.554   6.730  3.2740  1.3833 -0.4973
   27SAPC  H14C 3540   0.636   5.658   6.596  0.1368 -0.9671 -0.0358
   27SAPC   C15 3541   0.426   5.773   6.716 -0.3984 -0.9340  0.3450
   27SAPC  H15A 3542   0.332   5.778   6.768  0.8271  1.6366  2.5513
   27SAPC  H15B 3543   0.498   5.844   6.754 -1.4807 -0.1917  1.0631
   27SAPC  H15C 3544   0.417   5.785   6.609 -1.7749  0.0499  0.5505
   27SAPC   C11 3545   0.444   5.395   6.639  0.1996  0.1906 -0.1039
   27SAPC  H11A 3546   0.357   5.339   6.599 -0.8235  2.5459 -1.3791
   27SAPC  H11B 3547   0.464   5.351   6.739 -0.1020  2.6547  1.1079
   27SAPC     P 3548   0.674   5.291   6.582  0.1432 -0.5364  0.1932
   27SAPC   O13 3549   0.636   5.156   6.556 -0.7707 -0.3133  0.2942
   27SAPC   O14 3550   0.782   5.345   6.502  0.0096 -0.3900 -0.5252
   27SAPC   O12 3551   0.563   5.396   6.560  0.2201 -0.4329 -0.4765
   27SAPC   O11 3552   0.710   5.305   6.734  0.2217 -0.4824  0.3379
   27SAPC    C1 3553   0.830   5.370   6.779  0.3476 -0.1582  0.5527
   27SAPC    HA 3554   0.857   5.467   6.731  0.1743  0.3825  1.5183
   27SAPC    HB 3555   0.812   5.400   6.884 -0.6344  0.3936  0.2456
   27SAPC    C2 3556   0.942   5.269   6.766  0.5998  0.5551  0.3655
   27SAPC    HS 3557   0.964   5.241   6.660 -0.0348 -4.8448  1.4004
   27SAPC   O21 3558   0.908   5.151   6.841  0.5317 -0.4941 -0.2714
   27SAPC   C21 3559   0.982   5.046   6.814 -0.0047 -0.2390 -0.0542
   27SAPC   O22 3560   1.060   5.038   6.723  0.0476  0.2624  0.0750
   27SAPC   C22 3561   0.949   4.928   6.897  0.1353 -0.3187  0.0678
   27SAPC   H2R 3562   0.841   4.906   6.880  0.5864 -2.2460 -0.5136
   27SAPC   H2S 3563   1.009   4.847   6.852  4.0489  1.5544  1.4219
   27SAPC    C3 3564   1.068   5.332   6.831  0.1671  0.6027  0.2584
   27SAPC    HX 3565   1.086   5.435   6.794  0.0967  0.6859  0.4570
   27SAPC    HY 3566   1.152   5.271   6.791  0.6529  1.5406 -0.1681
   27SAPC   O31 3567   1.068   5.331   6.975 -1.1031  0.5410  0.2986
   27SAPC   C31 3568   1.174   5.391   7.022 -0.1863 -0.6963 -0.3267
   27SAPC   O32 3569   1.263   5.439   6.957 -0.0390  0.1043  0.4345
   27SAPC   C32 3570   1.176   5.390   7.174  0.1271 -0.7843  0.4922
   27SAPC   H2X 3571   1.233   5.297   7.200  0.6728  0.0394  2.4618
   27SAPC   H2Y 3572   1.071   5.381   7.209 -0.8240  0.3514 -1.8995
   27SAPC   C23 3573   0.970   4.946   7.048  0.0142  0.1084  0.2414
   27SAPC   H3R 3574   0.902   5.022   7.093  0.7655  0.8162  0.2125
   27SAPC   H3S 3575   1.077   4.978   7.053  0.6450 -1.8663  0.3050
   27SAPC   C24 3576   0.971   4.814   7.130  0.7480 -0.7247  0.6752
   27SAPC   H4R 3577   1.009   4.834   7.233 -2.1412  3.9011  1.1110
   27SAPC   H4S 3578   1.045   4.751   7.076  0.1274  0.9155 -2.3454
   27SAPC   C25 3579   0.831   4.760   7.128  0.0441 -0.8948 -0.1244
   27SAPC   H5R 3580   0.784   4.735   7.032 -1.3013  1.3774 -0.1405
   27SAPC   C26 3581   0.754   4.744   7.238 -0.1671 -0.2885 -0.3876
   27SAPC   H6R 3582   0.649   4.709   7.234 -1.1486  2.4418 -0.8639
   27SAPC   C27 3583   0.795   4.760   7.377  0.4014 -0.2590 -0.2693
   27SAPC   H7R 3584   0.898   4.719   7.384  0.1006 -1.2536 -1.4264
   27SAPC   H7S 3585   0.745   4.685   7.441  1.0357 -3.3657 -3.1367
   27SAPC   C28 3586   0.794   4.904   7.426  0.8384  0.4821 -0.4043
   27SAPC   H8R 3587   0.828   4.982   7.357  1.4740  0.1411 -0.4798
   27SAPC   C29 3588   0.742   4.943   7.546 -0.0342 -0.0257 -0.4499
   27SAPC   H9R 3589   0.749   5.046   7.583  0.9089  0.1219 -0.9895
   27SAPC  C210 3590   0.668   4.856   7.649  0.3580  0.4160  0.8517
   27SAPC  H10R 3591   0.682   4.748   7.628  2.0016  0.1286  3.1049
   27SAPC  H10S 3592   0.560   4.880   7.641  0.0598 -1.3610 -1.2426
   27SAPC  C211 3593   0.700   4.884   7.792  0.4977 -0.2715 -0.2546
   27SAPC  H11R 3594   0.745   4.983   7.809  0.3025 -0.0511 -0.9610
   27SAPC  C212 3595   0.698   4.795   7.893 -0.2843 -0.2627  0.5737
   27SAPC  H12R 3596   0.714   4.838   7.993  0.7867  1.0924 -0.1254
   27SAPC  C213 3597   0.662   4.654   7.887 -0.9014 -0.1180 -0.7056
   27SAPC  H13R 3598   0.714   4.596   7.967 -1.9422  1.8850  1.5472
   27SAPC  H13S 3599   0.715   4.611   7.799 -0.1217  0.3150 -0.4548
   27SAPC  C214 3600   0.516   4.609   7.873 -1.0561 -0.0922  0.1012
   27SAPC  H14R 3601   0.454   4.668   7.805 -2.2745 -2.0062 -0.5461
   27SAPC  C215 3602   0.463   4.494   7.926  0.7094  0.6336  0.4150
   27SAPC  H15R 3603   0.359   4.465   7.906  0.9072 -0.0177  0.2760
   27SAPC  C216 3604   0.537   4.403   8.025  0.7040 -0.0831  0.0782
   27SAPC  H16R 3605   0.623   4.454   8.074 -0.3551  0.0218  1.9308
   27SAPC  H16S 3606   0.577   4.311   7.979 -1.4090 -0.6626 -0.6734
   27SAPC  C217 3607   0.447   4.365   8.150  0.0641 -0.6072  0.4272
   27SAPC  H17R 3608   0.429   4.468   8.190 -1.4504 -0.1141 -1.3783
   27SAPC  H17S 3609   0.494   4.300   8.227 -0.6048 -0.5847  0.8678
   27SAPC  C218 3610   0.320   4.286   8.111 -0.1173  0.0298  0.3137
   27SAPC  H18R 3611   0.349   4.201   8.047  1.9686 -0.1779  1.4376
   27SAPC  H18S 3612   0.256   4.355   8.053 -0.1668 -1.7011 -1.7902
   27SAPC  C219 3613   0.237   4.240   8.233  0.1340 -0.2089 -0.4414
   27SAPC  H19R 3614   0.206   4.327   8.294 -0.5333 -1.7134  1.4845
   27SAPC  H19S 3615   0.279   4.166   8.304 -2.3942 -1.7309 -0.4074
   27SAPC  C220 3616   0.106   4.173   8.178  0.6300 -0.1707  0.5505
   27SAPC  H20R 3617   0.056   4.244   8.108 -1.2174 -4.1595 -2.5911
   27SAPC  H20S 3618   0.044   4.140   8.264  2.0215  0.2961  1.7785
   27SAPC  H20T 3619   0.144   4.085   8.123  0.0253  0.8080 -1.5326
   27SAPC   C33 3620   1.248   5.504   7.237 -0.1116 -0.2632 -0.1848
   27SAPC   H3X 3621   1.217   5.600   7.190 -0.8055 -0.1463  0.4850
   27SAPC   H3Y 3622   1.359   5.506   7.226  0.2063  2.5546  2.0573
   27SAPC   C34 3623   1.227   5.512   7.384 -0.1249 -0.6603 -0.9839
   27SAPC   H4X 3624   1.284   5.433   7.436 -0.4615 -1.1950 -1.4112
   27SAPC   H4Y 3625   1.120   5.495   7.411  0.1530  0.5663  1.0999
   27SAPC   C35 3626   1.272   5.645   7.444 -0.1852  0.2393 -0.2236
   27SAPC   H5X 3627   1.209   5.728   7.403  0.3538  1.4972  1.3983
   27SAPC   H5Y 3628   1.378   5.670   7.421  0.3121 -0.5548  1.1433
   27SAPC   C36 3629   1.255   5.643   7.594  0.8240 -0.0497 -0.0688
   27SAPC   H6X 3630   1.275   5.746   7.631  0.4409  1.1598 -2.9441
   27SAPC   H6Y 3631   1.341   5.583   7.632  2.3199  2.5318  0.9019
   27SAPC   C37 3632   1.121   5.593   7.650 -0.5149  0.2626 -0.2171
   27SAPC   H7X 3633   1.110   5.483   7.641 -0.0892 -0.0079  1.9087
   27SAPC   H7Y 3634   1.041   5.640   7.589 -0.9705  0.9928  0.9137
   27SAPC   C38 3635   1.088   5.635   7.795 -0.3463 -0.3530 -0.2080
   27SAPC   H8X 3636   0.987   5.599   7.825 -1.0970  0.3864 -1.7468
   27SAPC   H8Y 3637   1.081   5.744   7.812 -1.5480 -0.5145  0.4464
   27SAPC   C39 3638   1.182   5.572   7.900 -0.1375  0.1413 -0.5182
   27SAPC   H9X 3639   1.280   5.619   7.879 -0.5643  0.7731 -1.1390
   27SAPC   H9Y 3640   1.191   5.463   7.881  0.4808 -0.2911  1.8992
   27SAPC  C310 3641   1.151   5.594   8.046 -0.8941 -0.3440 -0.1932
   27SAPC  H10X 3642   1.060   5.541   8.082 -1.5907  0.7286 -0.3017
   27SAPC  H10Y 3643   1.132   5.703   8.059 -1.6631 -0.7094  2.2306
   27SAPC  C311 3644   1.276   5.568   8.135  0.2135 -0.6297  0.0456
   27SAPC  H11X 3645   1.263   5.605   8.239 -0.0754  1.0613 -0.5510
   27SAPC  H11Y 3646   1.368   5.611   8.088 -0.2801  1.8890  1.2255
   27SAPC  C312 3647   1.316   5.416   8.140 -0.1870 -0.5993 -0.1125
   27SAPC  H12X 3648   1.297   5.370   8.041  0.9656 -1.5129  0.0555
   27SAPC  H12Y 3649   1.258   5.350   8.209 -0.7473 -0.7248 -0.6997
   27SAPC  C313 3650   1.462   5.395   8.166 -0.2373 -0.3713  0.0708
   27SAPC  H13X 3651   1.518   5.418   8.072 -0.5837 -1.4999 -0.4250
   27SAPC  H13Y 3652   1.474   5.286   8.181  2.9412 -0.1789 -0.2935
   27SAPC  C314 3653   1.532   5.463   8.281 -0.3054  0.2886 -0.1978
   27SAPC  H14X 3654   1.521   5.572   8.261 -0.6763  0.6800  1.9408
   27SAPC  H14Y 3655   1.640   5.438   8.270 -0.4152 -0.8206  1.0091
   27SAPC  C315 3656   1.492   5.428   8.427 -0.0945 -0.2315 -0.5789
   27SAPC  H15X 3657   1.393   5.476   8.442  0.7919  1.2317  0.8774
   27SAPC  H15Y 3658   1.551   5.477   8.507 -3.2832  0.8649  1.2732
   27SAPC  C316 3659   1.476   5.272   8.446  0.0634 -0.0242 -0.3183
   27SAPC  H16X 3660   1.568   5.210   8.440 -0.2211 -0.5429  0.4988
   27SAPC  H16Y 3661   1.409   5.228   8.370  0.6232 -3.7934  1.1321
   27SAPC  C317 3662   1.420   5.236   8.593  0.0350 -0.5978  0.1164
   27SAPC  H17X 3663   1.330   5.293   8.625 -1.2980 -1.5770 -1.6380
   27SAPC  H17Y 3664   1.494   5.268   8.669  2.2201 -4.7351 -0.0100
   27SAPC  C318 3665   1.394   5.086   8.611  0.2602  0.3647  0.3139
   27SAPC  H18X 3666   1.470   5.018   8.566  1.5198  1.0957  1.2845
   27SAPC  H18Y 3667   1.303   5.056   8.553  0.3799 -1.3192  0.9394
   27SAPC  H18Z 3668   1.371   5.048   8.713  0.9999 -1.3778 -0.1363
   28SAPC     N 3669   6.678   2.704   6.010  0.3216  0.4011 -0.7592
   28SAPC   C12 3670   6.710   2.676   6.156 -0.1008 -0.2390 -0.0877
   28SAPC  H12A 3671   6.627   2.712   6.215  0.0940 -1.6936  1.1090
   28SAPC  H12B 3672   6.802   2.724   6.186  0.1068 -0.9251  0.3660
   28SAPC   C13 3673   6.775   2.630   5.925 -0.2634 -0.5981  0.0619
   28SAPC  H13A 3674   6.866   2.607   5.980 -2.3212  0.9033  4.6539
   28SAPC  H13B 3675   6.741   2.529   5.913 -1.3399 -0.5310  2.0277
   28SAPC  H13C 3676   6.794   2.672   5.827 -0.1845 -0.7159  0.0269
   28SAPC   C14 3677   6.543   2.640   5.975 -0.5298  0.1496  0.1023
   28SAPC  H14A 3678   6.514   2.653   5.872 -0.6851  0.1440  0.1462
   28SAPC  H14B 3679   6.524   2.539   6.008 -1.4260  0.3179  0.1193
   28SAPC  H14C 3680   6.467   2.699   6.023 -0.3464 -1.1328  2.0899
   28SAPC   C15 3681   6.675   2.855   5.978  0.0928 -0.1916 -0.0521
   28SAPC  H15A 3682   6.579   2.893   6.009  0.1997  3.4675 -3.4710
   28SAPC  H15B 3683   6.756   2.904   6.030 -0.4352 -0.6720  1.2819
   28SAPC  H15C 3684   6.678   2.879   5.873 -0.6689 -0.5391 -0.1583
   28SAPC   C11 3685   6.727   2.531   6.204  0.6066  0.6345  0.0397
   28SAPC  H11A 3686   6.761   2.541   6.309  0.4831  2.2770 -0.0633
   28SAPC  H11B 3687   6.816   2.484   6.156  0.4045 -0.8860  1.0646
   28SAPC     P 3688   6.601   2.322   6.274 -0.3615 -0.0950  0.2139
   28SAPC   O13 3689   6.503   2.233   6.202  0.4280 -0.1095 -0.3938
   28SAPC   O14 3690   6.739   2.274   6.272 -0.0567 -0.1800  0.1026
   28SAPC   O12 3691   6.607   2.458   6.196  0.0684 -0.3999  0.6028
   28SAPC   O11 3692   6.550   2.360   6.418  0.2334 -0.5478 -0.4974
   28SAPC    C1 3693   6.514   2.495   6.461 -0.1324  0.0273  0.0615
   28SAPC    HA 3694   6.603   2.549   6.500 -0.3530  0.3301  0.1503
   28SAPC    HB 3695   6.481   2.556   6.374 -1.4712 -0.5442  0.1469
   28SAPC    C2 3696   6.395   2.495   6.573 -0.3174 -0.3905 -0.0440
   28SAPC    HS 3697   6.333   2.586   6.563 -1.5508 -1.1476  0.4811
   28SAPC   O21 3698   6.452   2.469   6.705 -0.3702 -0.1101  0.2092
   28SAPC   C21 3699   6.510   2.575   6.760 -0.4918 -0.3746  0.2605
   28SAPC   O22 3700   6.516   2.686   6.710 -0.3956 -0.8850  0.4031
   28SAPC   C22 3701   6.563   2.529   6.890  0.3413  0.2392 -0.4758
   28SAPC   H2R 3702   6.481   2.549   6.962  1.6466 -1.1303  1.5071
   28SAPC   H2S 3703   6.580   2.419   6.889 -3.7346 -0.5423 -0.9021
   28SAPC    C3 3704   6.291   2.387   6.530  0.0388  0.8288 -0.1055
   28SAPC    HX 3705   6.328   2.283   6.522  0.8548  1.0017  1.0950
   28SAPC    HY 3706   6.260   2.416   6.427  0.5662 -2.4822 -1.3123
   28SAPC   O31 3707   6.172   2.387   6.610 -0.1382 -0.2084  0.2270
   28SAPC   C31 3708   6.186   2.313   6.729 -0.3552  0.1150 -0.1305
   28SAPC   O32 3709   6.284   2.245   6.754 -0.0229 -0.5061 -0.5133
   28SAPC   C32 3710   6.073   2.328   6.821 -0.1466 -0.7425 -0.4716
   28SAPC   H2X 3711   6.063   2.235   6.881 -1.1230  0.9737  2.1953
   28SAPC   H2Y 3712   5.982   2.334   6.757 -1.6063 -0.1848  1.5597
   28SAPC   C23 3713   6.689   2.602   6.935 -0.2475 -0.0580  0.0147
   28SAPC   H3R 3714   6.694   2.710   6.912  1.8108 -0.1631 -0.2141
   28SAPC   H3S 3715   6.770   2.558   6.873 -1.2042  0.6151 -1.7782
   28SAPC   C24 3716   6.717   2.588   7.086  0.1242  0.5297  0.3347
   28SAPC   H4R 3717   6.708   2.482   7.117  0.6262 -0.4424 -2.5924
   28SAPC   H4S 3718   6.826   2.600   7.103 -0.1715  1.4706  1.8353
   28SAPC   C25 3719   6.634   2.676   7.174  1.0637 -1.5399  0.3176
   28SAPC   H5R 3720   6.561   2.730   7.113  1.3376 -3.0702 -1.4789
   28SAPC   C26 3721   6.637   2.702   7.305 -0.2421 -0.7935 -0.2224
   28SAPC   H6R 3722   6.557   2.758   7.356  0.3127 -0.2874  0.1045
   28SAPC   C27 3723   6.731   2.641   7.404 -0.4250 -0.9087  0.3145
   28SAPC   H7R 3724   6.800   2.570   7.355 -0.8718 -0.8367 -0.4375
   28SAPC   H7S 3725   6.680   2.580   7.481  0.6031 -1.8661  0.2616
   28SAPC   C28 3726   6.822   2.745   7.470 -0.1879 -0.7231  0.1703
   28SAPC   H8R 3727   6.808   2.849   7.436 -1.9472 -1.5270 -1.7161
   28SAPC   C29 3728   6.903   2.707   7.569  0.4843  0.6430 -0.1038
   28SAPC   H9R 3729   6.967   2.782   7.618  1.0491  0.2947 -0.2995
   28SAPC  C210 3730   6.928   2.561   7.615 -0.2043 -0.2112 -0.8437
   28SAPC  H10R 3731   7.023   2.538   7.563  0.4468  0.6879 -0.0853
   28SAPC  H10S 3732   6.843   2.495   7.587 -0.1527 -1.7279  2.1294
   28SAPC  C211 3733   6.937   2.543   7.765  0.6165  0.6503  0.3370
   28SAPC  H11R 3734   6.843   2.509   7.810 -0.1888  1.3175 -0.7892
   28SAPC  C212 3735   7.047   2.541   7.843 -0.1830  0.9100 -0.0946
   28SAPC  H12R 3736   7.024   2.525   7.949  0.1762 -1.8314 -0.3764
   28SAPC  C213 3737   7.193   2.543   7.794  0.0190 -1.0473 -0.1586
   28SAPC  H13R 3738   7.195   2.634   7.730  0.0377 -1.3980 -0.6667
   28SAPC  H13S 3739   7.205   2.448   7.736  1.7918 -1.6967  1.2047
   28SAPC  C214 3740   7.287   2.561   7.906  0.7654 -0.0798  0.6336
   28SAPC  H14R 3741   7.352   2.650   7.904  0.0109  0.4843 -1.7822
   28SAPC  C215 3742   7.314   2.485   8.011  0.0088 -0.0323 -1.0833
   28SAPC  H15R 3743   7.398   2.504   8.081  0.6829 -3.9301 -0.5856
   28SAPC  C216 3744   7.246   2.356   8.054  0.4905  0.1359  0.2280
   28SAPC  H16R 3745   7.181   2.321   7.971  1.5301  2.5613 -1.7410
   28SAPC  H16S 3746   7.193   2.364   8.151  0.4780 -1.1675  0.3530
   28SAPC  C217 3747   7.361   2.253   8.080 -0.5839 -0.5279 -0.3722
   28SAPC  H17R 3748   7.422   2.274   8.171 -1.5400 -0.8337  0.3591
   28SAPC  H17S 3749   7.443   2.240   8.006 -0.1820 -3.2899  0.4310
   28SAPC  C218 3750   7.304   2.107   8.098 -0.6362 -0.1586 -0.1698
   28SAPC  H18R 3751   7.199   2.107   8.062 -0.8497  1.3581  0.3810
   28SAPC  H18S 3752   7.290   2.088   8.207  0.5961 -1.4343 -0.2015
   28SAPC  C219 3753   7.392   1.993   8.038 -0.6164  0.8921  0.4087
   28SAPC  H19R 3754   7.490   1.985   8.090  2.7398  0.4261 -5.2037
   28SAPC  H19S 3755   7.418   2.019   7.934  0.7123  0.9785  0.7479
   28SAPC  C220 3756   7.329   1.856   8.040  0.9657  0.8533 -0.5651
   28SAPC  H20R 3757   7.281   1.840   8.139  0.4675  0.2961 -0.8815
   28SAPC  H20S 3758   7.401   1.772   8.028  1.4166  1.2703 -0.7784
   28SAPC  H20T 3759   7.249   1.845   7.963  0.4520  0.1653  0.0548
   28SAPC   C33 3760   6.099   2.451   6.909  0.0832 -0.0857  0.0450
   28SAPC   H3X 3761   6.000   2.496   6.933  0.0626  0.7234 -1.4118
   28SAPC   H3Y 3762   6.148   2.526   6.843  2.2395  0.0174  1.6887
   28SAPC   C34 3763   6.170   2.415   7.042 -0.4557 -0.1790 -0.1537
   28SAPC   H4X 3764   6.272   2.374   7.031  0.2162  1.2602  0.3713
   28SAPC   H4Y 3765   6.110   2.336   7.092  3.4089 -1.7115  2.5902
   28SAPC   C35 3766   6.177   2.534   7.137  0.9341 -0.3029 -0.0403
   28SAPC   H5X 3767   6.088   2.527   7.203 -0.0966 -3.1597 -1.5692
   28SAPC   H5Y 3768   6.171   2.627   7.077 -0.9653 -1.0646 -1.1223
   28SAPC   C36 3769   6.306   2.544   7.222  0.2377  0.1296 -0.5530
   28SAPC   H6X 3770   6.298   2.642   7.274  2.2392  0.2306 -0.3478
   28SAPC   H6Y 3771   6.407   2.530   7.177  0.3791  0.7706 -0.4517
   28SAPC   C37 3772   6.300   2.437   7.337 -0.6832  0.1118  0.6913
   28SAPC   H7X 3773   6.303   2.339   7.286  0.0094 -0.4424  1.7600
   28SAPC   H7Y 3774   6.213   2.440   7.406 -0.6458 -4.0634  1.1764
   28SAPC   C38 3775   6.429   2.444   7.421  0.2831  0.2196  0.3069
   28SAPC   H8X 3776   6.428   2.542   7.473  0.5635  0.7188 -0.6195
   28SAPC   H8Y 3777   6.522   2.446   7.361  1.1848  0.4090  1.6513
   28SAPC   C39 3778   6.446   2.322   7.521 -0.8052 -0.7446 -0.1378
   28SAPC   H9X 3779   6.538   2.343   7.579  0.2160  1.3045 -2.3271
   28SAPC   H9Y 3780   6.473   2.228   7.467  0.6567  0.0391 -0.8368
   28SAPC  C310 3781   6.333   2.289   7.611 -0.1374  0.3708  0.9493
   28SAPC  H10X 3782   6.241   2.326   7.560  1.7626  1.6067 -1.8542
   28SAPC  H10Y 3783   6.338   2.357   7.698 -0.9379  0.8143  0.6602
   28SAPC  C311 3784   6.316   2.145   7.678 -0.2549  0.5609  0.3077
   28SAPC  H11X 3785   6.416   2.100   7.698  0.2010  2.0998  1.6914
   28SAPC  H11Y 3786   6.274   2.098   7.587  1.8248 -0.0281 -0.4048
   28SAPC  C312 3787   6.225   2.155   7.800  0.1827 -0.1082  0.1062
   28SAPC  H12X 3788   6.127   2.197   7.768 -0.3178  0.6674  2.4354
   28SAPC  H12Y 3789   6.265   2.240   7.860  1.5750  0.2338 -1.2483
   28SAPC  C313 3790   6.199   2.034   7.889 -0.1940  0.0302 -0.2222
   28SAPC  H13X 3791   6.300   2.001   7.920 -0.2196 -1.1329 -1.3266
   28SAPC  H13Y 3792   6.161   1.963   7.813  4.5389 -0.4374 -2.5256
   28SAPC  C314 3793   6.103   2.051   8.012  0.1105 -0.2462  0.5388
   28SAPC  H14X 3794   6.010   2.091   7.966  0.8108  0.5628 -0.2106
   28SAPC  H14Y 3795   6.149   2.130   8.075  0.7506  1.8857 -2.3475
   28SAPC  C315 3796   6.078   1.929   8.090 -0.0803  0.0661  0.0534
   28SAPC  H15X 3797   6.177   1.894   8.125  0.7361  3.4393  1.5023
   28SAPC  H15Y 3798   6.029   1.853   8.025 -2.3105  0.3996  1.2350
   28SAPC  C316 3799   5.982   1.950   8.210 -0.1260 -1.0033 -0.2711
   28SAPC  H16X 3800   5.880   1.974   8.172  0.0358 -2.0169 -1.3841
   28SAPC  H16Y 3801   6.017   2.045   8.255 -0.4083 -0.5913 -0.8876
   28SAPC  C317 3802   5.989   1.835   8.310 -0.5489 -0.1219  0.0250
   28SAPC  H17X 3803   6.091   1.821   8.352 -0.7028 -1.4355  0.0002
   28SAPC  H17Y 3804   5.952   1.743   8.260 -1.6073  0.7444 -0.8549
   28SAPC  C318 3805   5.885   1.866   8.419 -0.3030 -0.1295 -0.2304
   28SAPC  H18X 3806   5.786   1.879   8.370  0.6682 -1.3821 -2.6970
   28SAPC  H18Y 3807   5.913   1.961   8.469  1.3869 -0.2905 -0.8049
   28SAPC  H18Z 3808   5.876   1.791   8.500 -1.0934  0.6984  0.4622
   29SAPC     N 3809   1.277   1.172   5.927  0.2199 -0.6454  0.2141
   29SAPC   C12 3810   1.288   1.148   6.075  0.2195  0.2165 -0.6254
   29SAPC  H12A 3811   1.374   1.087   6.098  1.4103  1.5161 -1.5039
   29SAPC  H12B 3812   1.203   1.091   6.110  0.6081  1.2427  2.2519
   29SAPC   C13 3813   1.396   1.223   5.880 -1.1912 -0.4729  0.2001
   29SAPC  H13A 3814   1.441   1.306   5.933 -2.0975 -0.4961  1.0208
   29SAPC  H13B 3815   1.473   1.147   5.889 -1.0592 -0.3875 -0.1860
   29SAPC  H13C 3816   1.391   1.247   5.774 -2.4636 -0.8879  0.1564
   29SAPC   C14 3817   1.252   1.037   5.857  0.1146 -0.3317  0.4420
   29SAPC  H14A 3818   1.150   1.002   5.863 -0.0855 -0.7953 -3.2711
   29SAPC  H14B 3819   1.282   1.058   5.756  2.3602 -0.6530  0.9722
   29SAPC  H14C 3820   1.323   0.963   5.894  1.7760 -0.1462 -2.1156
   29SAPC   C15 3821   1.175   1.274   5.886 -0.3420 -0.6857  0.1057
   29SAPC  H15A 3822   1.079   1.229   5.901 -0.0597 -1.4242 -0.2411
   29SAPC  H15B 3823   1.195   1.374   5.921  2.0287 -1.0232 -0.0733
   29SAPC  H15C 3824   1.181   1.281   5.778  1.7532  0.4569  0.2425
   29SAPC   C11 3825   1.293   1.271   6.168 -0.1416 -0.8187 -0.3861
   29SAPC  H11A 3826   1.299   1.241   6.275 -0.7063 -0.6872 -0.3150
   29SAPC  H11B 3827   1.198   1.329   6.165  0.4153  0.2329  1.0734
   29SAPC     P 3828   1.545   1.329   6.193  0.1180 -0.3926 -0.3792
   29SAPC   O13 3829   1.580   1.189   6.153 -0.2134 -0.3147 -0.2253
   29SAPC   O14 3830   1.627   1.435   6.133  0.3481  0.3498 -0.3381
   29SAPC   O12 3831   1.399   1.366   6.148 -0.3835 -0.0067  0.4395
   29SAPC   O11 3832   1.556   1.332   6.351 -0.2543 -0.4368 -0.4146
   29SAPC    C1 3833   1.510   1.459   6.402  0.2343  0.0121 -0.3698
   29SAPC    HA 3834   1.582   1.540   6.377  0.2891 -0.7188 -2.8791
   29SAPC    HB 3835   1.411   1.494   6.366  0.9636  4.3391  1.1610
   29SAPC    C2 3836   1.496   1.449   6.561 -0.9988 -0.6855 -0.0458
   29SAPC    HS 3837   1.483   1.554   6.596  6.0536  1.0759 -1.0714
   29SAPC   O21 3838   1.610   1.400   6.628 -0.5661 -0.3464 -0.5051
   29SAPC   C21 3839   1.724   1.471   6.614  0.0726 -0.2999 -0.2070
   29SAPC   O22 3840   1.733   1.585   6.574  0.5969  0.7888  0.1169
   29SAPC   C22 3841   1.841   1.389   6.675  0.1962  0.2865 -0.3297
   29SAPC   H2R 3842   1.801   1.302   6.732  1.5646 -0.0906  0.0891
   29SAPC   H2S 3843   1.887   1.334   6.590  1.2168 -2.2306  1.6955
   29SAPC    C3 3844   1.386   1.354   6.599 -0.0110  0.9340  0.2025
   29SAPC    HX 3845   1.370   1.337   6.707  0.1687  2.8697  0.5696
   29SAPC    HY 3846   1.417   1.260   6.549 -0.1505  1.1258 -0.2514
   29SAPC   O31 3847   1.258   1.388   6.539 -0.7303 -0.3687  0.3854
   29SAPC   C31 3848   1.172   1.456   6.612 -1.0617  0.0082  0.2877
   29SAPC   O32 3849   1.194   1.502   6.721 -0.0911  0.1879 -0.3284
   29SAPC   C32 3850   1.052   1.499   6.524  0.5491 -0.3969 -0.5296
   29SAPC   H2X 3851   1.018   1.407   6.471 -1.6856  0.2622 -0.2974
   29SAPC   H2Y 3852   1.089   1.570   6.447  1.7216  0.6237  0.9185
   29SAPC   C23 3853   1.962   1.461   6.749  0.1048 -0.0993  0.2316
   29SAPC   H3R 3854   1.964   1.558   6.695  0.1007  0.5784  1.3927
   29SAPC   H3S 3855   2.059   1.417   6.720 -1.2541 -2.1171 -1.5454
   29SAPC   C24 3856   1.951   1.491   6.899  0.3263 -0.3891  0.1792
   29SAPC   H4R 3857   2.033   1.551   6.945  0.3168  0.2122 -0.5823
   29SAPC   H4S 3858   1.957   1.389   6.942 -1.5935 -0.6292 -0.0677
   29SAPC   C25 3859   1.821   1.549   6.950  0.0877  0.5572  0.1290
   29SAPC   H5R 3860   1.730   1.499   6.913  0.4617  0.7079 -1.0093
   29SAPC   C26 3861   1.815   1.636   7.055 -0.2278  0.2191 -0.1237
   29SAPC   H6R 3862   1.718   1.679   7.086 -0.7332 -0.0072 -1.3278
   29SAPC   C27 3863   1.932   1.700   7.130 -0.1723  0.1238  1.1300
   29SAPC   H7R 3864   1.979   1.773   7.061 -1.2524 -0.5032 -0.3238
   29SAPC   H7S 3865   2.010   1.627   7.161  0.2602  0.7128  1.4546
   29SAPC   C28 3866   1.886   1.770   7.254 -0.4359 -0.6586 -0.2263
   29SAPC   H8R 3867   1.912   1.877   7.262  1.3589 -0.9431 -1.6343
   29SAPC   C29 3868   1.832   1.705   7.365  0.0115 -0.4287  0.4656
   29SAPC   H9R 3869   1.795   1.770   7.446 -2.2529  0.1389 -0.9330
   29SAPC  C210 3870   1.806   1.559   7.382 -0.0622  0.5672  0.1863
   29SAPC  H10R 3871   1.894   1.519   7.435 -0.1771  2.8078  2.2279
   29SAPC  H10S 3872   1.803   1.494   7.291 -0.3396 -0.5096  0.9483
   29SAPC  C211 3873   1.685   1.518   7.468 -0.7801 -1.1181 -0.0979
   29SAPC  H11R 3874   1.590   1.496   7.417 -1.2879 -0.5974  0.6000
   29SAPC  C212 3875   1.682   1.543   7.601 -0.7101  0.3580 -0.1037
   29SAPC  H12R 3876   1.595   1.508   7.657 -0.0536 -0.1064  0.6478
   29SAPC  C213 3877   1.793   1.597   7.684 -0.3455 -0.2878  0.8578
   29SAPC  H13R 3878   1.787   1.707   7.700 -0.2327 -0.5054  2.4918
   29SAPC  H13S 3879   1.888   1.574   7.631  0.6270  0.9236  2.0021
   29SAPC  C214 3880   1.795   1.526   7.813  0.1319 -0.2403  0.3242
   29SAPC  H14R 3881   1.794   1.416   7.812  2.3774 -0.3870  2.8130
   29SAPC  C215 3882   1.816   1.565   7.941  0.2498  0.0224 -0.2056
   29SAPC  H15R 3883   1.789   1.492   8.018 -1.0830  0.4986 -0.1865
   29SAPC  C216 3884   1.830   1.706   7.994  0.3206  0.1292  0.1423
   29SAPC  H16R 3885   1.742   1.769   7.969  1.9500  1.5171 -2.4964
   29SAPC  H16S 3886   1.922   1.752   7.952  0.5177 -0.9070 -0.6061
   29SAPC  C217 3887   1.825   1.696   8.142 -1.2786  0.5312 -0.1849
   29SAPC  H17R 3888   1.733   1.644   8.176 -0.2862  1.7270  5.4317
   29SAPC  H17S 3889   1.835   1.801   8.177 -2.0229  0.7347 -0.5851
   29SAPC  C218 3890   1.948   1.614   8.199  0.4923  0.1249  0.3831
   29SAPC  H18R 3891   2.039   1.671   8.172  1.0658 -1.7228 -1.8053
   29SAPC  H18S 3892   1.959   1.514   8.152  1.2963 -0.7942  2.4143
   29SAPC  C219 3893   1.953   1.584   8.354 -0.2779  0.3415 -0.5862
   29SAPC  H19R 3894   2.038   1.514   8.365  0.2554  1.1259  0.4799
   29SAPC  H19S 3895   1.862   1.535   8.394  0.6778 -1.9417 -1.0384
   29SAPC  C220 3896   1.985   1.716   8.430  0.2959  0.3244  0.4147
   29SAPC  H20R 3897   2.004   1.689   8.536  0.6731  1.0722  0.5421
   29SAPC  H20S 3898   1.895   1.781   8.423 -1.8542 -2.4838  0.1150
   29SAPC  H20T 3899   2.078   1.763   8.392  0.8624 -1.7443 -0.9210
   29SAPC   C33 3900   0.927   1.549   6.591 -0.1098  0.4624  0.1944
   29SAPC   H3X 3901   0.899   1.496   6.685 -1.6050  4.2187  2.1027
   29SAPC   H3Y 3902   0.848   1.523   6.519  1.3770 -1.7558 -0.7383
   29SAPC   C34 3903   0.907   1.702   6.624 -0.5348 -0.3040 -0.5573
   29SAPC   H4X 3904   0.975   1.720   6.710 -1.8737  0.2780  0.4025
   29SAPC   H4Y 3905   0.806   1.726   6.662  0.0463  2.2503 -0.4892
   29SAPC   C35 3906   0.947   1.800   6.514  0.1775 -0.5623  0.6182
   29SAPC   H5X 3907   0.885   1.775   6.425  0.5260  0.6163  0.0307
   29SAPC   H5Y 3908   1.052   1.773   6.488 -0.5246 -2.6127 -0.3289
   29SAPC   C36 3909   0.926   1.953   6.551  0.3436 -1.0058  0.1006
   29SAPC   H6X 3910   0.817   1.969   6.566  0.4159 -0.9021  0.5207
   29SAPC   H6Y 3911   0.962   2.020   6.470  0.2009 -0.4635  0.4877
   29SAPC   C37 3912   0.979   1.982   6.695 -0.0254  0.2277  0.3567
   29SAPC   H7X 3913   1.087   1.954   6.694  0.2118  1.0633  1.0689
   29SAPC   H7Y 3914   0.921   1.915   6.762 -0.1909  1.5730  1.6046
   29SAPC   C38 3915   0.948   2.123   6.752 -0.5939  0.0084 -0.2250
   29SAPC   H8X 3916   0.838   2.139   6.752 -0.5447  0.5717  1.5333
   29SAPC   H8Y 3917   0.998   2.195   6.684 -0.0838  0.4160  0.5667
   29SAPC   C39 3918   1.004   2.143   6.895 -0.6142  0.4041 -0.4509
   29SAPC   H9X 3919   1.013   2.251   6.918  0.5547  0.3049 -0.3883
   29SAPC   H9Y 3920   1.105   2.096   6.902  0.6485  2.6995 -1.9612
   29SAPC  C310 3921   0.903   2.085   7.001  0.1764 -0.2851 -0.6039
   29SAPC  H10X 3922   0.886   1.976   6.991 -1.1079 -0.1518 -0.0812
   29SAPC  H10Y 3923   0.808   2.138   6.978  0.6888  0.4390 -1.0867
   29SAPC  C311 3924   0.938   2.127   7.149  0.7425  0.3343  0.0527
   29SAPC  H11X 3925   0.962   2.234   7.133  2.0803 -0.0345 -0.5951
   29SAPC  H11Y 3926   1.026   2.074   7.191 -0.2318 -0.9717  0.5101
   29SAPC  C312 3927   0.817   2.115   7.246 -0.3370 -0.6019  0.0789
   29SAPC  H12X 3928   0.790   2.007   7.243 -1.5472 -0.3402 -3.5469
   29SAPC  H12Y 3929   0.724   2.163   7.208 -0.0056 -1.0607 -1.3720
   29SAPC  C313 3930   0.853   2.159   7.393 -0.2672  0.0736 -0.0815
   29SAPC  H13X 3931   0.887   2.265   7.390 -0.4322  0.2092  1.7686
   29SAPC  H13Y 3932   0.938   2.099   7.431 -1.1976 -1.7499 -0.7419
   29SAPC  C314 3933   0.743   2.137   7.503  0.0448  0.0863 -0.0554
   29SAPC  H14X 3934   0.779   2.194   7.591 -0.2677 -0.3290  0.3404
   29SAPC  H14Y 3935   0.737   2.030   7.531 -2.5556  0.6328  1.8490
   29SAPC  C315 3936   0.606   2.189   7.460  0.5403  0.3408 -0.2319
   29SAPC  H15X 3937   0.559   2.115   7.390 -2.3503 -0.2851  2.1492
   29SAPC  H15Y 3938   0.619   2.289   7.413 -0.2563 -0.4938 -2.3907
   29SAPC  C316 3939   0.509   2.211   7.576 -0.5339  0.7661 -0.3334
   29SAPC  H16X 3940   0.416   2.263   7.544  1.1225  2.6015 -2.4426
   29SAPC  H16Y 3941   0.552   2.288   7.643 -0.8165  1.8573 -1.3810
   29SAPC  C317 3942   0.467   2.089   7.659  0.5254  0.5957 -0.6930
   29SAPC  H17X 3943   0.551   2.069   7.729  1.6425  0.2104 -2.1130
   29SAPC  H17Y 3944   0.469   1.994   7.601  1.3317  1.6000 -2.3730
   29SAPC  C318 3945   0.331   2.113   7.729  0.0946 -0.1481 -0.8386
   29SAPC  H18X 3946   0.325   2.036   7.809 -0.0655 -0.0558 -0.7625
   29SAPC  H18Y 3947   0.248   2.116   7.656 -1.2887 -0.0575  0.6747
   29SAPC  H18Z 3948   0.334   2.207   7.787 -2.0018 -0.3261 -0.3544
   30SAPC     N 3949   4.093   5.610   5.698 -0.4337  1.0209  0.0490
   30SAPC   C12 3950   4.038   5.755   5.694  0.4186 -0.1732 -0.2167
   30SAPC  H12A 3951   3.934   5.760   5.721  0.3375  1.9801 -0.6841
   30SAPC  H12B 3952   4.038   5.790   5.591  0.4908 -1.3338 -0.6230
   30SAPC   C13 3953   4.232   5.615   5.638 -0.6016 -0.4383  0.0447
   30SAPC  H13A 3954   4.264   5.515   5.612 -0.8678 -0.4619 -0.2070
   30SAPC  H13B 3955   4.231   5.659   5.539 -0.7592 -1.9471 -0.6552
   30SAPC  H13C 3956   4.302   5.665   5.703 -1.2199 -2.8125  2.7778
   30SAPC   C14 3957   4.101   5.555   5.834  0.3070  0.8858 -0.2712
   30SAPC  H14A 3958   4.141   5.455   5.836 -1.7965  0.0226  0.3945
   30SAPC  H14B 3959   4.177   5.614   5.884  1.6982  0.0044 -1.2608
   30SAPC  H14C 3960   4.012   5.566   5.893  0.9257  0.2351  0.8048
   30SAPC   C15 3961   4.022   5.511   5.608  1.2024 -0.1598 -0.4475
   30SAPC  H15A 3962   4.032   5.536   5.504  3.0336 -2.3453 -0.8872
   30SAPC  H15B 3963   4.059   5.410   5.620 -0.1165 -0.4932  1.0848
   30SAPC  H15C 3964   3.920   5.503   5.642 -0.4695  1.1576 -4.5866
   30SAPC   C11 3965   4.102   5.859   5.793  0.4390 -0.1068  0.5425
   30SAPC  H11A 3966   4.051   5.955   5.770  1.5464 -0.0933 -2.1844
   30SAPC  H11B 3967   4.206   5.869   5.755 -0.4383 -0.3173 -2.1797
   30SAPC     P 3968   4.215   5.845   6.026 -0.0572  0.0339  0.1637
   30SAPC   O13 3969   4.291   5.719   6.028 -0.9574 -0.5035 -0.0689
   30SAPC   O14 3970   4.286   5.971   5.996  0.2002  0.2259  0.3696
   30SAPC   O12 3971   4.095   5.833   5.930  0.0149 -0.8431 -0.5948
   30SAPC   O11 3972   4.151   5.875   6.172 -0.6353  0.6953 -0.4761
   30SAPC    C1 3973   4.045   5.781   6.209 -0.0763 -0.1119  0.5873
   30SAPC    HA 3974   3.949   5.807   6.160  0.6856 -0.1145 -0.9716
   30SAPC    HB 3975   4.060   5.672   6.193  0.2514 -0.2287  1.5973
   30SAPC    C2 3976   4.009   5.802   6.359 -0.2252 -0.1063  0.2389
   30SAPC    HS 3977   3.969   5.905   6.364 -1.0690 -0.4521  0.8977
   30SAPC   O21 3978   4.131   5.796   6.427  0.4123 -0.4245 -0.6969
   30SAPC   C21 3979   4.182   5.903   6.466  0.0346 -0.7137  0.1427
   30SAPC   O22 3980   4.136   6.018   6.457  0.1483 -0.1067  0.4155
   30SAPC   C22 3981   4.319   5.870   6.526 -0.8709 -0.2006 -0.2113
   30SAPC   H2R 3982   4.317   5.783   6.595  1.7475 -0.7821 -0.7614
   30SAPC   H2S 3983   4.378   5.840   6.437 -2.1723  1.7072 -1.7919
   30SAPC    C3 3984   3.899   5.713   6.410 -0.0129 -0.6658  0.2398
   30SAPC    HX 3985   3.938   5.609   6.407  3.1841  0.4720 -1.0568
   30SAPC    HY 3986   3.818   5.719   6.334  1.5760 -1.6311 -1.6245
   30SAPC   O31 3987   3.847   5.748   6.540  0.2495 -0.5505  0.2507
   30SAPC   C31 3988   3.755   5.677   6.591 -0.0241  0.6990 -0.2090
   30SAPC   O32 3989   3.687   5.591   6.535 -0.4775  0.0473  1.0823
   30SAPC   C32 3990   3.733   5.715   6.741 -0.4921 -0.6587 -0.5076
   30SAPC   H2X 3991   3.730   5.826   6.746  1.4233 -0.4949 -2.0270
   30SAPC   H2Y 3992   3.827   5.700   6.799  0.3523  2.8663 -0.7087
   30SAPC   C23 3993   4.385   5.996   6.598 -0.2191  0.6433  1.3818
   30SAPC   H3R 3994   4.331   6.088   6.567  0.4160  0.8074  0.7271
   30SAPC   H3S 3995   4.491   5.998   6.563 -1.2306  2.6106 -1.9897
   30SAPC   C24 3996   4.385   5.964   6.747  0.1081 -0.3112 -0.8357
   30SAPC   H4R 3997   4.284   5.924   6.770 -1.4727  3.5368 -0.4211
   30SAPC   H4S 3998   4.391   6.062   6.798 -4.4862  0.1545 -0.7782
   30SAPC   C25 3999   4.491   5.878   6.797  0.0257 -0.0672  0.3729
   30SAPC   H5R 4000   4.537   5.822   6.714 -0.1719  1.3641 -0.7689
   30SAPC   C26 4001   4.527   5.866   6.928 -0.3154  0.2258  0.8040
   30SAPC   H6R 4002   4.621   5.811   6.945 -0.4951 -0.2524  0.2975
   30SAPC   C27 4003   4.484   5.927   7.058  0.1461 -0.5385  0.1097
   30SAPC   H7R 4004   4.397   5.994   7.042  0.0966 -0.7468 -0.5164
   30SAPC   H7S 4005   4.559   6.000   7.095 -1.0081  0.1742  1.1447
   30SAPC   C28 4006   4.464   5.820   7.163  0.1976  0.1223 -0.1524
   30SAPC   H8R 4007   4.382   5.749   7.142  1.7957 -0.8291 -4.0798
   30SAPC   C29 4008   4.531   5.792   7.284 -0.3345 -0.0170  0.1546
   30SAPC   H9R 4009   4.496   5.706   7.343  1.0953 -0.7596 -0.0352
   30SAPC  C210 4010   4.650   5.867   7.343  0.4120 -0.3859  0.2775
   30SAPC  H10R 4011   4.706   5.907   7.256 -0.0278  1.2892  0.7382
   30SAPC  H10S 4012   4.721   5.801   7.398  0.0886 -1.7799 -0.9080
   30SAPC  C211 4013   4.594   5.990   7.419  0.7268 -0.6965 -0.0241
   30SAPC  H11R 4014   4.563   6.075   7.356  0.6781  1.1334  2.3255
   30SAPC  C212 4015   4.573   5.993   7.551  0.0844 -0.7891 -1.2526
   30SAPC  H12R 4016   4.508   6.070   7.595  0.7371 -0.7708 -0.2863
   30SAPC  C213 4017   4.591   5.878   7.650  0.1605 -0.7893  0.3063
   30SAPC  H13R 4018   4.598   5.782   7.595 -0.1584 -1.5980  1.6179
   30SAPC  H13S 4019   4.495   5.870   7.706 -0.4356  2.3639 -0.1292
   30SAPC  C214 4020   4.705   5.912   7.749 -0.1338  0.0307 -0.2452
   30SAPC  H14R 4021   4.805   5.896   7.707 -1.0874 -1.4453 -2.1261
   30SAPC  C215 4022   4.694   5.969   7.877 -0.3879  0.1486  0.2008
   30SAPC  H15R 4023   4.790   5.996   7.925  0.3287  1.0712 -1.6574
   30SAPC  C216 4024   4.565   5.998   7.951  0.1116  0.5096  0.1882
   30SAPC  H16R 4025   4.468   6.002   7.896  0.3327  1.6166 -0.1466
   30SAPC  H16S 4026   4.572   6.100   7.994 -0.2346  0.4986  0.2795
   30SAPC  C217 4027   4.546   5.908   8.073  0.0665  0.3017  0.2316
   30SAPC  H17R 4028   4.562   5.801   8.045 -1.9812  0.1191 -0.4095
   30SAPC  H17S 4029   4.439   5.915   8.102  0.0697  4.5153 -0.1798
   30SAPC  C218 4030   4.642   5.935   8.185 -0.3418  0.6948  0.1771
   30SAPC  H18R 4031   4.736   5.895   8.141 -0.9611 -0.3141 -0.2687
   30SAPC  H18S 4032   4.634   5.865   8.271 -0.3467 -0.8633 -1.0327
   30SAPC  C219 4033   4.655   6.081   8.220  0.3874  0.6064 -0.3559
   30SAPC  H19R 4034   4.561   6.140   8.231 -2.3195 -3.0326 -1.8292
   30SAPC  H19S 4035   4.719   6.130   8.143 -0.6447  0.4172 -1.3744
   30SAPC  C220 4036   4.725   6.093   8.351  0.5508  0.1481 -0.3779
   30SAPC  H20R 4037   4.682   6.180   8.405  0.2282  0.2844 -0.8435
   30SAPC  H20S 4038   4.834   6.110   8.341  0.5388 -0.3223 -1.5287
   30SAPC  H20T 4039   4.718   6.000   8.411 -0.2981 -2.0222 -3.5349
   30SAPC   C33 4040   3.616   5.641   6.802 -0.9854 -0.4647 -0.8676
   30SAPC   H3X 4041   3.591   5.546   6.750 -1.3151 -0.0457 -1.4956
   30SAPC   H3Y 4042   3.533   5.709   6.772  0.1976  0.3781 -2.3890
   30SAPC   C34 4043   3.618   5.631   6.950 -0.3739  0.1463 -0.1088
   30SAPC   H4X 4044   3.650   5.724   7.001 -0.5997  0.5532 -0.6897
   30SAPC   H4Y 4045   3.685   5.549   6.984 -1.3829  0.0131  1.6276
   30SAPC   C35 4046   3.468   5.604   6.998 -0.7485 -1.2817 -0.4306
   30SAPC   H5X 4047   3.456   5.501   7.040 -0.2620 -0.3414  2.2636
   30SAPC   H5Y 4048   3.398   5.614   6.913  0.8654 -1.0472 -1.7800
   30SAPC   C36 4049   3.419   5.698   7.114 -0.5196  0.1845  0.5392
   30SAPC   H6X 4050   3.322   5.666   7.158 -1.0011  1.7913  0.6991
   30SAPC   H6Y 4051   3.407   5.802   7.079  0.3032  0.0838 -0.0688
   30SAPC   C37 4052   3.519   5.695   7.232  0.4892 -0.1493 -0.1241
   30SAPC   H7X 4053   3.598   5.774   7.226 -0.0458  0.3304 -1.0269
   30SAPC   H7Y 4054   3.574   5.598   7.236  1.4253  0.3917  0.6987
   30SAPC   C38 4055   3.456   5.713   7.369  0.3937  0.5319  0.0497
   30SAPC   H8X 4056   3.385   5.629   7.385  0.1848  0.9552  1.4831
   30SAPC   H8Y 4057   3.394   5.805   7.376 -1.3201 -0.7012  2.9633
   30SAPC   C39 4058   3.543   5.715   7.489 -0.8331 -0.2096 -0.2861
   30SAPC   H9X 4059   3.613   5.801   7.493 -0.5870 -0.3415 -1.4592
   30SAPC   H9Y 4060   3.611   5.628   7.497 -0.0566  0.4434  0.3429
   30SAPC  C310 4061   3.467   5.705   7.622  1.0180 -0.5685  0.2019
   30SAPC  H10X 4062   3.412   5.609   7.627 -1.6223  0.9110  1.5364
   30SAPC  H10Y 4063   3.398   5.791   7.634  1.2656 -0.2873 -0.3253
   30SAPC  C311 4064   3.568   5.712   7.736  0.5471 -0.4222 -0.1759
   30SAPC  H11X 4065   3.606   5.816   7.742  0.4158 -0.3933  0.1881
   30SAPC  H11Y 4066   3.654   5.645   7.716 -0.1282 -1.2523 -0.3584
   30SAPC  C312 4067   3.516   5.688   7.881  0.2237  0.3278 -0.0900
   30SAPC  H12X 4068   3.517   5.579   7.902 -1.1254 -0.3720 -3.1942
   30SAPC  H12Y 4069   3.413   5.730   7.886  0.4035  0.6725  2.3384
   30SAPC  C313 4070   3.596   5.757   7.986 -0.6275 -0.1949 -0.7032
   30SAPC  H13X 4071   3.699   5.739   7.948  0.4389  3.7584 -0.1302
   30SAPC  H13Y 4072   3.589   5.716   8.089  3.0293  1.1528  0.2618
   30SAPC  C314 4073   3.578   5.909   7.998  0.1005  0.7475 -0.1738
   30SAPC  H14X 4074   3.575   5.947   7.893  0.0714 -1.4220 -1.0151
   30SAPC  H14Y 4075   3.672   5.938   8.050  0.5740  2.1082 -1.6753
   30SAPC  C315 4076   3.453   5.951   8.074 -0.1271 -0.1891 -0.5964
   30SAPC  H15X 4077   3.452   5.890   8.166 -1.3620  0.7347  0.0225
   30SAPC  H15Y 4078   3.360   5.935   8.015  0.0131 -1.9333 -0.4039
   30SAPC  C316 4079   3.451   6.095   8.128 -0.0468  0.2107  0.3676
   30SAPC  H16X 4080   3.442   6.175   8.051  1.0775  1.3145  1.3630
   30SAPC  H16Y 4081   3.552   6.104   8.173 -0.2854  0.1383  0.9236
   30SAPC  C317 4082   3.335   6.126   8.229 -1.4520  0.1140  0.7578
   30SAPC  H17X 4083   3.333   6.057   8.316 -1.4563  1.0069  1.4748
   30SAPC  H17Y 4084   3.246   6.106   8.166 -1.3278  1.0304  0.2746
   30SAPC  C318 4085   3.332   6.273   8.282 -0.1510 -0.5540 -0.0220
   30SAPC  H18X 4086   3.425   6.307   8.332 -1.5391  0.5614  1.9465
   30SAPC  H18Y 4087   3.253   6.277   8.360 -1.0582  0.6136 -0.9595
   30SAPC  H18Z 4088   3.299   6.350   8.209 -0.1319  0.8716  1.4071
   31SAPC     N 4089   4.822   0.292   6.341 -0.1747  0.7322  0.4173
   31SAPC   C12 4090   4.683   0.355   6.313  0.5228  0.7753  0.4800
   31SAPC  H12A 4091   4.615   0.356   6.397 -0.9151  1.0295 -0.6450
   31SAPC  H12B 4092   4.635   0.292   6.240 -2.6682  1.3953  1.8896
   31SAPC   C13 4093   4.793   0.155   6.382  0.0094 -0.0926  0.1678
   31SAPC  H13A 4094   4.728   0.098   6.317  0.7736 -1.2790  0.4239
   31SAPC  H13B 4095   4.883   0.098   6.398 -0.6903 -1.1169  0.5712
   31SAPC  H13C 4096   4.733   0.157   6.472 -1.9966 -3.0387 -0.9500
   31SAPC   C14 4097   4.898   0.296   6.212 -0.3727 -0.2894  0.0666
   31SAPC  H14A 4098   4.935   0.395   6.189 -0.0678 -0.3320  0.3537
   31SAPC  H14B 4099   4.975   0.221   6.204 -2.0103 -2.0072 -0.2277
   31SAPC  H14C 4100   4.839   0.274   6.125 -1.7488  0.4968  0.7743
   31SAPC   C15 4101   4.898   0.342   6.453  0.0561  0.2710  0.1903
   31SAPC  H15A 4102   4.852   0.319   6.548 -1.9295 -0.5039 -0.8942
   31SAPC  H15B 4103   5.002   0.312   6.457  1.0962  3.3807 -0.6177
   31SAPC  H15C 4104   4.902   0.448   6.438  1.4479  0.0545 -1.2631
   31SAPC   C11 4105   4.676   0.498   6.246  0.1559 -0.1904 -0.2613
   31SAPC  H11A 4106   4.569   0.526   6.255  0.7764  1.8853  2.1467
   31SAPC  H11B 4107   4.720   0.484   6.145  1.5819 -2.3712  0.5861
   31SAPC     P 4108   4.770   0.737   6.316 -0.3533 -0.3468 -0.3298
   31SAPC   O13 4109   4.899   0.763   6.240  0.7543 -0.1391 -0.3251
   31SAPC   O14 4110   4.655   0.805   6.252 -0.3634 -0.0656 -0.0843
   31SAPC   O12 4111   4.747   0.585   6.326 -0.1249 -0.3782 -0.3398
   31SAPC   O11 4112   4.789   0.786   6.457  0.1741  0.5970 -0.3467
   31SAPC    C1 4113   4.856   0.706   6.557  0.1045  0.0839 -0.1811
   31SAPC    HA 4114   4.891   0.606   6.525 -0.0524 -0.0631  0.1088
   31SAPC    HB 4115   4.948   0.763   6.585  0.4522 -0.2041 -0.7163
   31SAPC    C2 4116   4.775   0.684   6.691 -0.5718 -0.0434 -0.2078
   31SAPC    HS 4117   4.678   0.635   6.667 -1.3633  1.3995 -0.0743
   31SAPC   O21 4118   4.743   0.810   6.740 -0.5819  0.0137  0.1523
   31SAPC   C21 4119   4.650   0.883   6.682 -0.6501 -0.6375  0.0299
   31SAPC   O22 4120   4.566   0.845   6.605  0.1975  0.3573  0.6238
   31SAPC   C22 4121   4.667   1.034   6.722 -0.1409 -0.0245 -0.3222
   31SAPC   H2R 4122   4.776   1.053   6.729  0.1797 -1.7813 -0.0707
   31SAPC   H2S 4123   4.637   1.091   6.631  1.1046  1.8455  0.3891
   31SAPC    C3 4124   4.842   0.590   6.793 -0.3363 -0.0971 -0.2099
   31SAPC    HX 4125   4.933   0.642   6.832 -0.7448 -0.8078  1.8064
   31SAPC    HY 4126   4.864   0.496   6.739  0.1281 -0.9773  1.4360
   31SAPC   O31 4127   4.753   0.555   6.902  0.1386 -0.0318 -0.2416
   31SAPC   C31 4128   4.765   0.640   7.005  0.3532 -0.0002 -0.4086
   31SAPC   O32 4129   4.851   0.727   7.020  0.6648 -0.1148  0.2920
   31SAPC   C32 4130   4.658   0.606   7.102  0.1795  0.1806 -0.7662
   31SAPC   H2X 4131   4.632   0.498   7.105 -0.7146  0.2234  5.0109
   31SAPC   H2Y 4132   4.563   0.645   7.060 -0.2688  0.7848  0.7219
   31SAPC   C23 4133   4.590   1.057   6.856  1.0639  0.0521  0.3802
   31SAPC   H3R 4134   4.610   1.162   6.886  1.0697 -0.2082  1.3039
   31SAPC   H3S 4135   4.638   0.996   6.936  0.2638 -0.7529  0.2539
   31SAPC   C24 4136   4.438   1.034   6.818 -0.5317  0.0173 -0.5125
   31SAPC   H4R 4137   4.418   0.925   6.822 -1.2533  0.1753  1.3083
   31SAPC   H4S 4138   4.422   1.069   6.714  0.1208 -0.0707 -0.6436
   31SAPC   C25 4139   4.346   1.116   6.903  0.5645 -0.0983 -0.4057
   31SAPC   H5R 4140   4.360   1.224   6.885  1.4953  0.0109  0.8637
   31SAPC   C26 4141   4.263   1.071   6.999  0.0896  0.2759  0.8645
   31SAPC   H6R 4142   4.201   1.145   7.053 -0.4363  0.0482  0.5783
   31SAPC   C27 4143   4.245   0.926   7.045 -0.1618  0.5157  0.0777
   31SAPC   H7R 4144   4.284   0.859   6.966  0.1662 -0.4835  1.0515
   31SAPC   H7S 4145   4.140   0.893   7.029 -0.1835  0.7433 -0.2515
   31SAPC   C28 4146   4.308   0.886   7.178 -0.3387  0.7590 -0.0926
   31SAPC   H8R 4147   4.389   0.811   7.169 -0.6816  0.4659 -0.7676
   31SAPC   C29 4148   4.286   0.925   7.305 -0.2504  0.3328  0.4842
   31SAPC   H9R 4149   4.357   0.889   7.381 -1.0645 -0.8064  0.7294
   31SAPC  C210 4150   4.181   1.024   7.355  0.0186 -0.1397 -0.3273
   31SAPC  H10R 4151   4.123   0.967   7.430 -0.1260  1.2632  0.6631
   31SAPC  H10S 4152   4.120   1.062   7.269  0.4179 -0.4593 -0.7581
   31SAPC  C211 4153   4.239   1.143   7.425 -0.2353  0.5964  0.3857
   31SAPC  H11R 4154   4.270   1.225   7.358  0.3070  0.8995  0.9926
   31SAPC  C212 4155   4.259   1.159   7.556 -0.7516 -0.0498  0.0919
   31SAPC  H12R 4156   4.304   1.257   7.580 -1.1257  0.3667 -0.8566
   31SAPC  C213 4157   4.241   1.066   7.672 -0.2446  0.6786 -0.0501
   31SAPC  H13R 4158   4.309   1.096   7.755  2.5012 -0.2289 -1.8354
   31SAPC  H13S 4159   4.289   0.972   7.637  0.3308  1.6465 -1.9717
   31SAPC  C214 4160   4.100   1.049   7.720 -0.1211 -0.2712  0.5058
   31SAPC  H14R 4161   4.031   1.020   7.640 -0.9180  1.1697  0.6499
   31SAPC  C215 4162   4.062   1.079   7.850 -0.6781 -0.2742 -0.8193
   31SAPC  H15R 4163   3.957   1.059   7.875 -0.6799 -0.8058 -1.2262
   31SAPC  C216 4164   4.142   1.127   7.970 -0.0784  0.0067  0.2793
   31SAPC  H16R 4165   4.086   1.212   8.016 -0.8594 -0.4282  0.1490
   31SAPC  H16S 4166   4.247   1.154   7.944  0.3138 -1.6530  0.0750
   31SAPC  C217 4167   4.134   1.020   8.079  0.3906  0.4948  0.0045
   31SAPC  H17R 4168   4.158   0.918   8.043 -5.0910 -2.1681  2.6693
   31SAPC  H17S 4169   4.026   1.011   8.105  0.6743  0.7885  1.3318
   31SAPC  C218 4170   4.211   1.039   8.215 -0.5364 -0.1164  0.6221
   31SAPC  H18R 4171   4.312   0.999   8.193 -0.2956  0.4665  0.6604
   31SAPC  H18S 4172   4.168   0.968   8.289 -0.2882 -0.6207  0.2910
   31SAPC  C219 4173   4.226   1.184   8.263 -0.1496  0.1636 -0.2865
   31SAPC  H19R 4174   4.242   1.253   8.177 -0.6852  1.8520  0.9404
   31SAPC  H19S 4175   4.306   1.206   8.337 -1.9456  3.6261  0.8287
   31SAPC  C220 4176   4.101   1.235   8.333 -0.3571 -0.4103 -0.3139
   31SAPC  H20R 4177   4.023   1.242   8.253 -1.5807 -1.4854  0.7377
   31SAPC  H20S 4178   4.119   1.338   8.371 -1.9539  0.5360 -1.9505
   31SAPC  H20T 4179   4.074   1.169   8.417  3.0487 -0.5802  0.7885
   31SAPC   C33 4180   4.692   0.647   7.242  0.1290 -0.3389 -0.5417
   31SAPC   H3X 4181   4.668   0.755   7.237  0.4592 -0.3223 -2.1990
   31SAPC   H3Y 4182   4.795   0.617   7.273 -0.5676 -3.1370 -0.6764
   31SAPC   C34 4183   4.602   0.579   7.352 -0.4343  0.2965 -0.0381
   31SAPC   H4X 4184   4.646   0.480   7.373  0.3857  0.8080  0.7543
   31SAPC   H4Y 4185   4.497   0.562   7.322 -0.7033 -2.3407  2.0532
   31SAPC   C35 4186   4.622   0.652   7.488  0.1283  0.8779  0.1825
   31SAPC   H5X 4187   4.587   0.758   7.490  1.7600  1.4310  2.6394
   31SAPC   H5Y 4188   4.725   0.641   7.527 -0.1839 -0.4692  0.6756
   31SAPC   C36 4189   4.529   0.580   7.593  0.1051  0.0220  0.0099
   31SAPC   H6X 4190   4.545   0.472   7.571  2.8915  0.3364  0.1292
   31SAPC   H6Y 4191   4.421   0.597   7.571 -0.2293  0.3908  1.7331
   31SAPC   C37 4192   4.555   0.611   7.740  0.0646  0.0921  0.1964
   31SAPC   H7X 4193   4.662   0.612   7.770  0.0526  0.5582  0.2314
   31SAPC   H7Y 4194   4.505   0.521   7.783 -1.0831 -0.3106 -1.8008
   31SAPC   C38 4195   4.496   0.752   7.777 -0.4315  0.6984 -0.2314
   31SAPC   H8X 4196   4.416   0.776   7.705 -1.6346 -1.6264  0.2363
   31SAPC   H8Y 4197   4.579   0.823   7.760 -0.3215  0.3311 -1.3018
   31SAPC   C39 4198   4.438   0.758   7.919 -0.8375  0.4326  0.5633
   31SAPC   H9X 4199   4.352   0.687   7.918 -2.1698  1.9285  2.5443
   31SAPC   H9Y 4200   4.391   0.857   7.929  0.1991  1.0198 -0.1874
   31SAPC  C310 4201   4.519   0.716   8.044  0.2885  0.0777 -0.3800
   31SAPC  H10X 4202   4.593   0.796   8.062  2.9742 -2.2954 -0.1948
   31SAPC  H10Y 4203   4.581   0.625   8.031 -1.5915 -1.3989  0.4027
   31SAPC  C311 4204   4.419   0.688   8.163  0.5412  0.4211 -0.0948
   31SAPC  H11X 4205   4.355   0.601   8.139 -0.2902  0.9617  0.1167
   31SAPC  H11Y 4206   4.352   0.776   8.173  0.3759  0.2765  0.0637
   31SAPC  C312 4207   4.483   0.662   8.296 -0.6089  0.0461  0.0317
   31SAPC  H12X 4208   4.546   0.749   8.326  0.9619 -0.8443 -0.5496
   31SAPC  H12Y 4209   4.552   0.576   8.282 -2.6163 -1.2269 -2.8842
   31SAPC  C313 4210   4.372   0.630   8.403  0.7080 -0.2270 -0.1936
   31SAPC  H13X 4211   4.427   0.602   8.496  2.0539 -0.5883 -1.0665
   31SAPC  H13Y 4212   4.313   0.541   8.372  0.7340 -0.6818  0.9859
   31SAPC  C314 4213   4.282   0.739   8.452 -0.6340 -0.1281 -0.4545
   31SAPC  H14X 4214   4.217   0.775   8.369  0.8035  1.6477 -0.8918
   31SAPC  H14Y 4215   4.356   0.819   8.473 -1.4204  0.3274  0.6163
   31SAPC  C315 4216   4.203   0.698   8.583 -0.3602 -0.1326 -0.5651
   31SAPC  H15X 4217   4.139   0.784   8.611  1.3985  0.3258  2.4636
   31SAPC  H15Y 4218   4.273   0.684   8.668 -0.6764  1.4138 -0.0258
   31SAPC  C316 4219   4.117   0.566   8.572  0.7162 -0.6819 -0.3030
   31SAPC  H16X 4220   4.190   0.483   8.568  0.7076 -0.6308 -3.5961
   31SAPC  H16Y 4221   4.050   0.569   8.484 -1.9728  2.2349  1.5916
   31SAPC  C317 4222   4.016   0.562   8.694  0.1567  0.3561 -0.4965
   31SAPC  H17X 4223   3.953   0.653   8.683 -0.4608 -0.1995 -1.7714
   31SAPC  H17Y 4224   4.067   0.587   8.789 -0.3415 -0.8783  0.1070
   31SAPC  C318 4225   3.937   0.436   8.707  0.1456  0.0378 -0.3086
   31SAPC  H18X 4226   4.003   0.350   8.731 -3.6493 -3.1175 -0.0103
   31SAPC  H18Y 4227   3.898   0.424   8.603  0.7192 -0.3285 -0.4903
   31SAPC  H18Z 4228   3.860   0.449   8.786  1.0421 -0.0429  0.5930
   32SAPC     N 4229   4.262   3.105   5.743 -0.1564  0.5938 -0.4376
   32SAPC   C12 4230   4.296   3.251   5.767 -0.0436 -0.4973 -0.6468
   32SAPC  H12A 4231   4.215   3.281   5.832 -1.0840 -0.6412 -1.8209
   32SAPC  H12B 4232   4.290   3.311   5.677 -1.2085  0.6288  0.1350
   32SAPC   C13 4233   4.191   3.047   5.855  0.2139 -0.1967 -0.0714
   32SAPC  H13A 4234   4.178   2.941   5.839 -1.6701 -0.2373  1.2731
   32SAPC  H13B 4235   4.247   3.058   5.947 -0.5518  1.1458  0.2676
   32SAPC  H13C 4236   4.098   3.103   5.859  0.5931  0.5076 -0.8076
   32SAPC   C14 4237   4.179   3.089   5.617 -0.0612 -0.1744  0.7200
   32SAPC  H14A 4238   4.239   3.101   5.528  0.4172 -0.3508  1.0091
   32SAPC  H14B 4239   4.125   2.996   5.606 -2.9834  1.6746 -2.4392
   32SAPC  H14C 4240   4.099   3.162   5.616 -1.3368 -1.5268  1.1650
   32SAPC   C15 4241   4.387   3.029   5.725 -0.1384  0.8350  0.9313
   32SAPC  H15A 4242   4.457   3.090   5.669 -0.8894  1.0728  0.2288
   32SAPC  H15B 4243   4.436   3.007   5.819 -1.1667 -1.1594  1.0483
   32SAPC  H15C 4244   4.369   2.937   5.673 -0.4302  0.8748  0.9600
   32SAPC   C11 4245   4.438   3.291   5.835 -0.0079  0.0137  0.2727
   32SAPC  H11A 4246   4.437   3.401   5.853  1.1621 -0.0173  0.6114
   32SAPC  H11B 4247   4.527   3.269   5.773 -1.1767 -1.0207 -1.1277
   32SAPC     P 4248   4.354   3.268   6.077  0.2470 -0.1878  0.1165
   32SAPC   O13 4249   4.256   3.369   6.030  0.0448 -0.3627  0.6872
   32SAPC   O14 4250   4.302   3.136   6.127  0.2597  0.2544  0.1602
   32SAPC   O12 4251   4.442   3.225   5.957  0.2725  0.1483 -0.4748
   32SAPC   O11 4252   4.461   3.330   6.176  0.5415 -0.3348  0.1948
   32SAPC    C1 4253   4.528   3.243   6.273  0.8494 -0.4294  0.1293
   32SAPC    HA 4254   4.571   3.149   6.234  2.7585  0.3707  0.1535
   32SAPC    HB 4255   4.619   3.292   6.314  0.2065  1.3404 -0.4564
   32SAPC    C2 4256   4.448   3.224   6.399  0.4081  0.1997 -0.9227
   32SAPC    HS 4257   4.395   3.126   6.395 -0.8807  0.5629  2.9164
   32SAPC   O21 4258   4.341   3.330   6.405 -0.0667  0.2080 -0.4021
   32SAPC   C21 4259   4.233   3.287   6.464 -0.0034  0.7417  0.1757
   32SAPC   O22 4260   4.212   3.178   6.520 -0.6088  0.2705  0.3709
   32SAPC   C22 4261   4.124   3.396   6.466 -0.3263 -0.0757  0.1192
   32SAPC   H2R 4262   4.167   3.464   6.542  2.1172 -2.1531  0.7497
   32SAPC   H2S 4263   4.119   3.447   6.367  0.2579 -0.0352  0.1094
   32SAPC    C3 4264   4.544   3.216   6.528  0.3190  0.7488 -0.9374
   32SAPC    HX 4265   4.597   3.312   6.550 -0.1960  0.5015  1.6717
   32SAPC    HY 4266   4.621   3.137   6.514  1.5693  1.4881  1.2648
   32SAPC   O31 4267   4.464   3.182   6.640  0.5284 -0.4519 -0.4101
   32SAPC   C31 4268   4.448   3.056   6.673 -0.3876 -0.3239  0.0637
   32SAPC   O32 4269   4.480   2.957   6.613 -0.3422 -0.5490 -0.0055
   32SAPC   C32 4270   4.369   3.047   6.798 -0.1247  0.0803 -0.7313
   32SAPC   H2X 4271   4.305   3.136   6.820  0.3931  0.6665 -1.5222
   32SAPC   H2Y 4272   4.431   3.051   6.890 -2.3888  1.4226  0.8576
   32SAPC   C23 4273   3.974   3.360   6.504  0.0679  0.4975  0.1831
   32SAPC   H3R 4274   3.967   3.288   6.588  0.8594 -0.0108 -0.1736
   32SAPC   H3S 4275   3.920   3.318   6.416 -2.2098  1.1393  1.2193
   32SAPC   C24 4276   3.890   3.486   6.548  0.2286  0.3516  0.5969
   32SAPC   H4R 4277   3.785   3.452   6.560  0.4512 -0.1693  1.1004
   32SAPC   H4S 4278   3.872   3.554   6.462  0.6291  0.8675  0.9175
   32SAPC   C25 4279   3.923   3.557   6.675 -0.2202  1.3719  0.0484
   32SAPC   H5R 4280   3.900   3.499   6.766 -1.1181 -1.4538 -1.8441
   32SAPC   C26 4281   3.974   3.678   6.682  0.2569 -0.7254  0.5914
   32SAPC   H6R 4282   3.999   3.730   6.775  1.8627  0.3900 -0.4196
   32SAPC   C27 4283   4.008   3.764   6.565 -0.0779  0.5950 -0.0800
   32SAPC   H7R 4284   3.913   3.819   6.550 -1.3874 -1.7421 -0.7955
   32SAPC   H7S 4285   4.025   3.699   6.476  1.8649 -0.0727  0.7158
   32SAPC   C28 4286   4.140   3.841   6.591 -0.4461 -0.0374  0.0561
   32SAPC   H8R 4287   4.223   3.782   6.549 -0.3975 -0.3331  0.5633
   32SAPC   C29 4288   4.164   3.952   6.660  0.1541  0.0887 -0.0017
   32SAPC   H9R 4289   4.272   3.963   6.682 -0.4417 -1.1983  4.6142
   32SAPC  C210 4290   4.064   4.047   6.721  0.4649 -0.4272  0.0296
   32SAPC  H10R 4291   4.029   4.009   6.820  1.0193  2.2944  1.3734
   32SAPC  H10S 4292   3.978   4.061   6.652  1.2223  0.9292 -0.6799
   32SAPC  C211 4293   4.123   4.177   6.756 -0.3872 -0.4735 -0.6007
   32SAPC  H11R 4294   4.136   4.242   6.668  0.9452 -0.6970 -0.5871
   32SAPC  C212 4295   4.179   4.224   6.871  0.2517 -0.6184  0.3189
   32SAPC  H12R 4296   4.221   4.325   6.869 -0.8878 -0.0094  3.2512
   32SAPC  C213 4297   4.184   4.151   7.003  0.6889  0.2457  0.6348
   32SAPC  H13R 4298   4.239   4.057   6.981 -0.8913 -0.3951 -0.8609
   32SAPC  H13S 4299   4.084   4.106   7.021 -0.7624  3.5150  1.5026
   32SAPC  C214 4300   4.247   4.226   7.119  0.5275 -0.0492 -0.2717
   32SAPC  H14R 4301   4.352   4.255   7.126  0.6747 -0.8875  1.9337
   32SAPC  C215 4302   4.183   4.262   7.238 -1.1752 -0.1511 -0.0374
   32SAPC  H15R 4303   4.246   4.307   7.317 -0.6828  0.9351 -1.0174
   32SAPC  C216 4304   4.038   4.239   7.267  0.3134 -0.0557 -0.3395
   32SAPC  H16R 4305   4.007   4.153   7.205  2.0535 -0.7281 -0.3327
   32SAPC  H16S 4306   3.988   4.334   7.237  0.5936 -1.1559 -4.9824
   32SAPC  C217 4307   3.970   4.223   7.409 -0.2176  0.3005  0.0875
   32SAPC  H17R 4308   3.861   4.207   7.393 -0.6722  2.7013  0.4255
   32SAPC  H17S 4309   3.981   4.318   7.466  0.7805  1.1384 -1.4002
   32SAPC  C218 4310   4.023   4.117   7.502  0.2179  0.2784 -0.6853
   32SAPC  H18R 4311   3.959   4.108   7.592 -1.4875 -0.3311 -1.9093
   32SAPC  H18S 4312   4.125   4.147   7.534 -1.0747  4.0260  0.4703
   32SAPC  C219 4313   4.021   3.981   7.437 -0.2265  0.6141  0.6149
   32SAPC  H19R 4314   4.111   3.973   7.372 -0.2746 -4.6065  0.7798
   32SAPC  H19S 4315   3.934   3.959   7.372  0.5879  0.5728 -0.4791
   32SAPC  C220 4316   4.038   3.877   7.544  0.0364  0.0423  0.3768
   32SAPC  H20R 4317   3.961   3.878   7.624 -2.6248 -1.0710 -1.9980
   32SAPC  H20S 4318   4.142   3.882   7.585  0.1380  1.3361  0.0095
   32SAPC  H20T 4319   4.027   3.777   7.496  0.2376 -0.8858  2.1727
   32SAPC   C33 4320   4.274   2.925   6.802 -0.0834 -0.2193  0.7613
   32SAPC   H3X 4321   4.329   2.830   6.786  1.4665  0.9188 -1.1974
   32SAPC   H3Y 4322   4.199   2.922   6.721 -1.6511  1.5111  2.0471
   32SAPC   C34 4323   4.198   2.922   6.940  0.1496 -0.9161  0.0412
   32SAPC   H4X 4324   4.127   2.837   6.945  0.0467 -0.7674  3.0954
   32SAPC   H4Y 4325   4.143   3.016   6.962  2.0635  0.3004 -0.1210
   32SAPC   C35 4326   4.287   2.884   7.062  0.3249  0.2696 -0.1637
   32SAPC   H5X 4327   4.358   2.966   7.085  1.2512 -0.7688  0.8496
   32SAPC   H5Y 4328   4.347   2.794   7.038  0.5109  0.2979  0.1865
   32SAPC   C36 4329   4.193   2.849   7.183  0.7698 -0.1605 -0.1957
   32SAPC   H6X 4330   4.134   2.760   7.153  0.0908  0.1751  0.1196
   32SAPC   H6Y 4331   4.107   2.915   7.206  0.4061 -0.2083 -1.3618
   32SAPC   C37 4332   4.281   2.815   7.307  0.1318 -0.1468  0.1399
   32SAPC   H7X 4333   4.340   2.726   7.279 -0.7902  0.0128 -2.5847
   32SAPC   H7Y 4334   4.199   2.789   7.376 -1.6962  0.9076 -1.5213
   32SAPC   C38 4335   4.373   2.923   7.362 -0.6844 -0.4680 -0.2796
   32SAPC   H8X 4336   4.304   3.009   7.375 -1.3509 -1.1563  0.9319
   32SAPC   H8Y 4337   4.446   2.968   7.291 -0.9651 -0.4879 -0.5854
   32SAPC   C39 4338   4.429   2.893   7.506 -0.0442  0.3363  0.5886
   32SAPC   H9X 4339   4.507   2.813   7.502 -0.6910 -0.2735 -0.1076
   32SAPC   H9Y 4340   4.349   2.847   7.567 -1.7688  1.3224 -0.8480
   32SAPC  C310 4341   4.493   3.018   7.567  0.0807  0.9746  0.0835
   32SAPC  H10X 4342   4.421   3.091   7.610 -0.7461 -0.7670  1.8255
   32SAPC  H10Y 4343   4.543   3.073   7.485  1.7352  1.1703  1.1644
   32SAPC  C311 4344   4.610   3.000   7.668 -0.2417 -0.2750  0.1044
   32SAPC  H11X 4345   4.647   3.099   7.702 -2.0894  0.6232 -0.3493
   32SAPC  H11Y 4346   4.701   2.958   7.620 -0.9557 -1.1158 -0.5557
   32SAPC  C312 4347   4.575   2.917   7.791  0.5658 -0.0214 -0.5390
   32SAPC  H12X 4348   4.659   2.890   7.859 -0.5572 -2.1552  0.0916
   32SAPC  H12Y 4349   4.535   2.820   7.754 -0.0566 -0.0589  0.2038
   32SAPC  C313 4350   4.462   2.970   7.883  0.0285 -0.9810  0.4363
   32SAPC  H13X 4351   4.448   2.892   7.962  0.9562 -2.7718 -1.0941
   32SAPC  H13Y 4352   4.374   2.988   7.818  0.6899  2.4039  0.3157
   32SAPC  C314 4353   4.493   3.104   7.947 -0.5624 -0.1853 -0.5061
   32SAPC  H14X 4354   4.456   3.188   7.884  0.1724  0.4308 -0.1392
   32SAPC  H14Y 4355   4.604   3.107   7.958 -0.4447 -2.3516 -0.7009
   32SAPC  C315 4356   4.436   3.113   8.091 -0.1978 -0.6005  0.1612
   32SAPC  H15X 4357   4.470   3.028   8.154  0.3742  0.4520  1.3244
   32SAPC  H15Y 4358   4.325   3.115   8.091 -0.1846  0.3976 -0.2509
   32SAPC  C316 4359   4.481   3.246   8.153 -0.3593  0.0475  0.0740
   32SAPC  H16X 4360   4.438   3.335   8.102  1.9034  1.1137 -0.1478
   32SAPC  H16Y 4361   4.586   3.259   8.118 -0.1208  1.0007  1.0646
   32SAPC  C317 4362   4.477   3.260   8.307 -0.5189  0.4961 -0.0315
   32SAPC  H17X 4363   4.516   3.172   8.361 -0.1312 -0.1591 -1.3310
   32SAPC  H17Y 4364   4.372   3.267   8.343 -0.8785 -1.0535 -0.6949
   32SAPC  C318 4365   4.555   3.381   8.371  0.4581  0.3883 -0.1144
   32SAPC  H18X 4366   4.524   3.379   8.478  2.0374 -2.4052  0.3810
   32SAPC  H18Y 4367   4.525   3.469   8.311  1.0190  0.0493 -0.9104
   32SAPC  H18Z 4368   4.664   3.366   8.359  0.5605  1.0733 -0.0574
   33POPC     N 4369   6.697   2.198  10.636  0.8121  0.5011 -0.3101
   33POPC   C12 4370   6.800   2.287  10.576 -0.7088 -0.0677 -0.0723
   33POPC  H12A 4371   6.862   2.327  10.654  2.4014 -0.1943 -2.2924
   33POPC  H12B 4372   6.749   2.373  10.535  0.1541  0.6080  0.2485
   33POPC   C13 4373   6.590   2.169  10.536  0.0484  0.6017  0.2312
   33POPC  H13A 4374   6.575   2.254  10.470 -0.8213  0.1352 -0.1786
   33POPC  H13B 4375   6.614   2.088  10.469 -1.2332  0.1925  0.2490
   33POPC  H13C 4376   6.491   2.151  10.575 -0.2125  0.7029 -0.3703
   33POPC   C14 4377   6.763   2.072  10.683 -0.2520  0.6554  0.1761
   33POPC  H14A 4378   6.803   2.022  10.596 -1.3963 -1.8205  0.9763
   33POPC  H14B 4379   6.843   2.097  10.751 -0.6910  2.5257  0.0562
   33POPC  H14C 4380   6.699   1.989  10.709  1.9892 -1.7475 -1.4567
   33POPC   C15 4381   6.634   2.259  10.755  0.4058  0.1851  0.0653
   33POPC  H15A 4382   6.594   2.185  10.822 -0.2398  2.4658  2.3420
   33POPC  H15B 4383   6.558   2.331  10.727  1.2520 -0.1247 -3.4211
   33POPC  H15C 4384   6.711   2.314  10.808  1.6925  1.0809 -2.5521
   33POPC   C11 4385   6.889   2.235  10.465 -0.3387  0.3565 -0.5243
   33POPC  H11A 4386   6.946   2.312  10.409 -1.6453  0.1436 -2.2459
   33POPC  H11B 4387   6.827   2.187  10.386 -0.6465  0.4843 -0.3588
   33POPC     P 4388   7.105   2.162  10.586  0.5561 -0.1564 -0.1434
   33POPC   O13 4389   7.193   2.048  10.571  0.0549  0.1378  0.3941
   33POPC   O14 4390   7.064   2.194  10.727  0.4700  0.3924 -0.1288
   33POPC   O12 4391   6.977   2.132  10.501 -0.1512 -0.4933  0.0019
   33POPC   O11 4392   7.168   2.282  10.517 -0.1212 -0.1108 -0.9034
   33POPC    C1 4393   7.280   2.293  10.434  0.1888 -0.0036 -0.1297
   33POPC    HA 4394   7.353   2.371  10.465  1.3386 -1.2260  0.3036
   33POPC    HB 4395   7.338   2.199  10.439 -1.0754 -0.7487  1.6131
   33POPC    C2 4396   7.228   2.324  10.287 -0.4100 -0.2557 -0.5571
   33POPC    HS 4397   7.174   2.420  10.299 -1.9970 -1.1840  0.1075
   33POPC   O21 4398   7.143   2.217  10.241  0.1471  0.2260  0.1672
   33POPC   C21 4399   7.060   2.261  10.139  0.2499 -0.0370 -0.2747
   33POPC   O22 4400   7.026   2.377  10.116  0.2496 -0.0367 -0.5152
   33POPC   C22 4401   6.991   2.134  10.081  0.2482 -0.4907  0.1148
   33POPC   H2R 4402   6.903   2.168  10.023 -2.6003 -0.5836  3.9745
   33POPC   H2S 4403   6.941   2.083  10.166 -0.5753 -0.4571 -0.3441
   33POPC    C3 4404   7.344   2.338  10.191  0.0367  0.4325 -0.6544
   33POPC    HX 4405   7.395   2.240  10.180  1.2319  0.9362  0.1549
   33POPC    HY 4406   7.426   2.399  10.235  1.7900 -0.8698 -1.9496
   33POPC   O31 4407   7.312   2.384  10.059 -0.0079  0.0776  0.0478
   33POPC   C31 4408   7.287   2.510  10.045  0.2101 -0.6308  0.9605
   33POPC   O32 4409   7.306   2.599  10.128  0.4126 -0.2025  0.1198
   33POPC   C32 4410   7.224   2.529   9.900 -0.3296 -0.1672  0.4839
   33POPC   H2X 4411   7.217   2.639   9.885 -0.3076 -0.0127  1.5649
   33POPC   H2Y 4412   7.118   2.493   9.903  0.1767 -1.6871  1.8364
   33POPC   C23 4413   7.088   2.037  10.013 -0.1097 -0.4177 -0.1865
   33POPC   H3R 4414   7.060   1.930  10.024  0.0591 -0.2049  3.8079
   33POPC   H3S 4415   7.180   2.042  10.075  0.2818 -0.3323 -0.7667
   33POPC   C24 4416   7.118   2.077   9.867 -0.2568 -0.0291 -0.6564
   33POPC   H4R 4417   7.220   2.041   9.838  0.2916  1.4136 -0.5840
   33POPC   H4S 4418   7.125   2.186   9.849  1.5570  0.2424  1.2770
   33POPC   C25 4419   7.018   2.018   9.768  0.2420  0.3050 -0.0726
   33POPC   H5R 4420   6.927   2.080   9.784  1.7461  2.9810 -1.1717
   33POPC   H5S 4421   6.989   1.912   9.783 -0.5439  0.1967 -2.0561
   33POPC   C26 4422   7.051   2.039   9.619  0.4420 -0.1829  0.3754
   33POPC   H6R 4423   7.093   2.137   9.588 -1.1640 -0.1930 -2.0708
   33POPC   H6S 4424   6.955   2.019   9.567 -0.2234  0.3460  1.3616
   33POPC   C27 4425   7.161   1.938   9.563  0.8092  0.1007  0.1045
   33POPC   H7R 4426   7.130   1.839   9.604  1.6065  0.6863  2.2641
   33POPC   H7S 4427   7.256   1.963   9.614  0.3709  1.1910  0.4011
   33POPC   C28 4428   7.186   1.926   9.412 -0.4596  0.1660  0.3640
   33POPC   H8R 4429   7.266   1.852   9.387 -0.5920 -0.4631  1.7010
   33POPC   H8S 4430   7.219   2.029   9.391 -0.8494  0.0887 -0.6953
   33POPC   C29 4431   7.064   1.898   9.337 -0.4104  0.0585  0.0965
   33POPC   H91 4432   7.005   1.817   9.383  1.4700 -0.4521  1.7596
   33POPC  C210 4433   7.037   1.940   9.212  0.0900 -0.3613  0.1392
   33POPC  H101 4434   6.944   1.915   9.158 -0.1352 -0.4048  0.5433
   33POPC  C211 4435   7.123   2.035   9.133 -0.2624 -0.1259  0.7571
   33POPC  H11R 4436   7.227   2.051   9.169  0.4120  0.0386 -1.1468
   33POPC  H11S 4437   7.062   2.127   9.143 -1.4587 -0.6620 -1.2285
   33POPC  C212 4438   7.125   1.994   8.987 -0.0950 -0.1789  0.2384
   33POPC  H12R 4439   7.144   1.884   8.983  2.5381  0.2063  0.3746
   33POPC  H12S 4440   7.216   2.041   8.945 -0.1087 -2.1283 -2.2052
   33POPC  C213 4441   7.013   2.030   8.893 -0.1618  0.5112 -0.2059
   33POPC  H13R 4442   6.976   2.130   8.924 -0.5102  0.3933 -0.2384
   33POPC  H13S 4443   6.932   1.953   8.899  1.2833 -1.0233  0.2514
   33POPC  C214 4444   7.047   2.037   8.742 -0.1125  0.6136 -0.0086
   33POPC  H14R 4445   7.141   2.094   8.731  0.8950 -1.1071 -0.8469
   33POPC  H14S 4446   6.978   2.105   8.687  0.9485  1.6687 -0.0677
   33POPC  C215 4447   7.035   1.897   8.674  0.1993 -0.4056  0.0350
   33POPC  H15R 4448   7.094   1.819   8.727  2.1741 -1.2906 -3.1378
   33POPC  H15S 4449   7.094   1.904   8.579  1.2309  0.6341  0.7268
   33POPC  C216 4450   6.889   1.859   8.641  0.3758  0.3696  0.6182
   33POPC  H16R 4451   6.843   1.955   8.610  1.4371  1.9763  3.5926
   33POPC  H16S 4452   6.829   1.838   8.732 -1.6581  2.1855 -0.2000
   33POPC  C217 4453   6.875   1.746   8.541 -0.4680  0.7282  0.2932
   33POPC  H17R 4454   6.771   1.708   8.535  0.4733 -2.2143  1.1739
   33POPC  H17S 4455   6.931   1.655   8.572 -0.2878  0.1592 -1.5443
   33POPC  C218 4456   6.928   1.778   8.399  0.0517 -0.5953 -0.3851
   33POPC  H18R 4457   6.895   1.692   8.338 -2.1556  1.1460 -1.8192
   33POPC  H18S 4458   7.038   1.777   8.411  0.0562  0.4459 -0.2579
   33POPC  H18T 4459   6.891   1.876   8.360  0.3309  0.0870  1.0026
   33POPC   C33 4460   7.289   2.447   9.783 -0.6453 -0.0001 -0.0348
   33POPC   H3X 4461   7.313   2.340   9.799 -1.2922 -0.5291 -2.2232
   33POPC   H3Y 4462   7.387   2.498   9.777 -0.2711 -0.5535  1.1895
   33POPC   C34 4463   7.216   2.453   9.646 -0.1163  0.6472 -0.2419
   33POPC   H4X 4464   7.199   2.560   9.623 -0.8674  0.2855 -1.4585
   33POPC   H4Y 4465   7.114   2.410   9.649  0.0894  0.1915  0.5636
   33POPC   C35 4466   7.299   2.389   9.544  0.1150 -0.3197  0.1263
   33POPC   H5X 4467   7.342   2.293   9.579 -1.1536 -0.8496  0.2844
   33POPC   H5Y 4468   7.373   2.465   9.512 -0.3032 -0.3570 -0.9780
   33POPC   C36 4469   7.213   2.346   9.421 -0.3323  0.3785 -0.4151
   33POPC   H6X 4470   7.116   2.294   9.439  1.3120 -3.1547 -0.9525
   33POPC   H6Y 4471   7.261   2.269   9.357 -0.4623 -0.1404  0.0968
   33POPC   C37 4472   7.182   2.470   9.337  0.2365  0.0916  0.2585
   33POPC   H7X 4473   7.263   2.546   9.339  0.7795 -0.4801  1.4881
   33POPC   H7Y 4474   7.091   2.521   9.373  1.1601  3.8725 -2.1995
   33POPC   C38 4475   7.138   2.426   9.192  0.7300 -0.3324  0.0821
   33POPC   H8X 4476   7.077   2.334   9.203  0.1416 -0.1952 -1.7621
   33POPC   H8Y 4477   7.236   2.399   9.148  1.7077  2.3636  0.4030
   33POPC   C39 4478   7.060   2.527   9.113 -0.8878 -0.6354  0.1431
   33POPC   H9X 4479   7.125   2.616   9.101 -0.2496 -1.0917  0.1950
   33POPC   H9Y 4480   6.965   2.561   9.159 -0.0396  2.6176 -0.2183
   33POPC  C310 4481   7.011   2.469   8.972 -0.0880  0.1280  0.0716
   33POPC  H10X 4482   6.952   2.375   8.984  1.0310 -0.9815 -2.3046
   33POPC  H10Y 4483   7.103   2.442   8.917  1.5935  1.7067  1.9768
   33POPC  C311 4484   6.933   2.564   8.880  0.6487  0.6874  0.5982
   33POPC  H11X 4485   6.945   2.541   8.772  0.9302  0.2048  0.7311
   33POPC  H11Y 4486   6.963   2.671   8.892 -0.1444  0.6208  3.9514
   33POPC  C312 4487   6.776   2.564   8.910  0.0889 -0.3438  0.0387
   33POPC  H12X 4488   6.767   2.565   9.021  1.0980  2.8966  0.1804
   33POPC  H12Y 4489   6.743   2.462   8.883 -0.2884 -0.0677 -0.5567
   33POPC  C313 4490   6.690   2.665   8.841  0.7934 -0.1910 -0.0234
   33POPC  H13X 4491   6.715   2.769   8.872  0.4726  0.0152 -0.4480
   33POPC  H13Y 4492   6.586   2.656   8.880  1.7141 -2.2497  2.2222
   33POPC  C314 4493   6.685   2.657   8.690 -0.0493  0.3295 -0.2280
   33POPC  H14X 4494   6.607   2.586   8.657  0.4299 -0.3386  0.0611
   33POPC  H14Y 4495   6.781   2.613   8.654 -0.2503  0.7886 -1.3962
   33POPC  C315 4496   6.632   2.789   8.631 -0.1835 -0.1096  0.3894
   33POPC  H15X 4497   6.558   2.845   8.692  0.6641 -0.0579  1.4146
   33POPC  H15Y 4498   6.595   2.787   8.527 -0.2996  1.5695  0.3597
   33POPC  C316 4499   6.737   2.896   8.626  0.0764  0.2736  0.7750
   33POPC  H16X 4500   6.813   2.875   8.548 -1.2706 -0.4698 -0.3846
   33POPC  H16Y 4501   6.784   2.909   8.726 -0.6411  0.4617  1.0979
   33POPC  H16Z 4502   6.706   2.999   8.597 -0.8551  0.7067  3.0296
   34POPC     N 4503   6.717   3.360  10.934  0.4412 -0.2482 -0.2866
   34POPC   C12 4504   6.762   3.241  10.850 -0.0074 -0.5880  0.5463
   34POPC  H12A 4505   6.851   3.197  10.893 -0.5422 -2.7241 -0.3732
   34POPC  H12B 4506   6.790   3.277  10.753  1.0394  0.7585  1.3132
   34POPC   C13 4507   6.650   3.320  11.063  0.7175 -0.2655 -0.7038
   34POPC  H13A 4508   6.563   3.262  11.037  0.3183 -0.9035  1.7860
   34POPC  H13B 4509   6.710   3.254  11.125  1.0328  1.4648  0.9076
   34POPC  H13C 4510   6.621   3.409  11.116  1.0210 -0.1852 -0.6680
   34POPC   C14 4511   6.827   3.456  10.959 -0.7077 -0.3270 -0.4695
   34POPC  H14A 4512   6.788   3.540  11.013  2.5974  1.9218 -1.2487
   34POPC  H14B 4513   6.910   3.414  11.013 -0.6570  1.0270  0.5463
   34POPC  H14C 4514   6.860   3.488  10.861  0.1100  1.7194  0.4246
   34POPC   C15 4515   6.613   3.432  10.850  0.0780  0.2353 -0.4215
   34POPC  H15A 4516   6.660   3.468  10.760  0.4242  1.9775  0.4229
   34POPC  H15B 4517   6.572   3.512  10.911 -0.9394 -1.7747  1.7079
   34POPC  H15C 4518   6.540   3.357  10.824 -0.1080  0.0081  0.6794
   34POPC   C11 4519   6.667   3.118  10.820 -0.6439  0.6850  0.2835
   34POPC  H11A 4520   6.639   3.073  10.917  0.9283 -0.5179  0.2099
   34POPC  H11B 4521   6.719   3.043  10.756 -2.4024  0.4300 -0.9164
   34POPC     P 4522   6.405   3.114  10.783  0.1367  0.0200 -0.3963
   34POPC   O13 4523   6.345   3.234  10.848 -0.0436 -0.1780 -0.3052
   34POPC   O14 4524   6.412   2.984  10.852 -0.2451  0.1317  0.3823
   34POPC   O12 4525   6.553   3.152  10.741 -0.2834 -0.2066 -0.3545
   34POPC   O11 4526   6.338   3.092  10.642  0.7906  0.1213 -0.4943
   34POPC    C1 4527   6.357   2.984  10.550 -0.8974 -0.1385  0.4754
   34POPC    HA 4528   6.271   2.949  10.489  0.6652 -0.3780 -1.7072
   34POPC    HB 4529   6.389   2.897  10.612  0.2821  1.2336  1.8605
   34POPC    C2 4530   6.472   3.019  10.448 -0.4577 -0.4659 -0.5917
   34POPC    HS 4531   6.555   3.068  10.504 -0.1839  1.5456 -2.6100
   34POPC   O21 4532   6.411   3.105  10.346 -0.3113 -0.0881 -0.4214
   34POPC   C21 4533   6.445   3.226  10.346 -0.3565 -0.2603 -0.6796
   34POPC   O22 4534   6.539   3.272  10.412  0.0859 -0.9779 -0.2996
   34POPC   C22 4535   6.340   3.313  10.283 -0.2395  0.6676 -0.1411
   34POPC   H2R 4536   6.294   3.380  10.359 -1.5778 -2.2541  1.7799
   34POPC   H2S 4537   6.262   3.245  10.241  2.1184 -1.9448 -0.5623
   34POPC    C3 4538   6.528   2.892  10.384 -0.0255  0.2462 -0.0552
   34POPC    HX 4539   6.452   2.841  10.321  0.3117 -0.6314  0.2400
   34POPC    HY 4540   6.553   2.816  10.461  0.4845  0.6884  0.2199
   34POPC   O31 4541   6.640   2.932  10.299 -0.7589 -0.4227  0.0133
   34POPC   C31 4542   6.759   2.925  10.347 -0.1946  0.5143 -1.0282
   34POPC   O32 4543   6.786   2.905  10.462 -0.9529  0.2762 -0.1806
   34POPC   C32 4544   6.867   2.934  10.235  0.4928 -0.3301  0.5066
   34POPC   H2X 4545   6.959   2.891  10.281  0.7664 -1.7473 -1.2436
   34POPC   H2Y 4546   6.873   3.040  10.203 -0.6241 -0.7578 -1.2490
   34POPC   C23 4547   6.406   3.404  10.178  0.5649 -0.8058  0.0051
   34POPC   H3R 4548   6.460   3.334  10.111 -1.0538  0.3252 -2.6262
   34POPC   H3S 4549   6.477   3.463  10.240 -2.0075 -0.7229  3.0783
   34POPC   C24 4550   6.312   3.494  10.098 -0.1205  0.3899 -0.6569
   34POPC   H4R 4551   6.341   3.600  10.082 -1.9290  1.4474  2.4007
   34POPC   H4S 4552   6.223   3.507  10.163 -1.1310 -1.3309 -1.6212
   34POPC   C25 4553   6.257   3.439   9.959 -0.6442 -1.1547  0.2386
   34POPC   H5R 4554   6.208   3.339   9.968  2.3073 -2.7309  0.0093
   34POPC   H5S 4555   6.340   3.410   9.891 -2.0491 -5.0937 -0.0695
   34POPC   C26 4556   6.153   3.525   9.894 -0.2092  0.1155 -0.6813
   34POPC   H6R 4557   6.164   3.630   9.930 -0.9735 -0.0372  0.0314
   34POPC   H6S 4558   6.058   3.510   9.950  0.6660  0.9297  1.1186
   34POPC   C27 4559   6.133   3.522   9.742  1.2009  0.3937  0.2397
   34POPC   H7R 4560   6.047   3.590   9.724  0.1228 -0.7567  0.8699
   34POPC   H7S 4561   6.112   3.418   9.709 -1.7328  1.5900 -2.1229
   34POPC   C28 4562   6.253   3.580   9.664  0.0383 -0.3865 -0.6404
   34POPC   H8R 4563   6.207   3.589   9.563  1.3180 -1.1167 -1.3173
   34POPC   H8S 4564   6.332   3.502   9.666  0.0517 -0.3540  0.2634
   34POPC   C29 4565   6.303   3.718   9.708 -1.3081  0.5397  0.2307
   34POPC   H91 4566   6.367   3.700   9.796 -1.2439 -2.9330 -0.3839
   34POPC  C210 4567   6.275   3.845   9.657 -0.6212  0.4086 -0.0733
   34POPC  H101 4568   6.329   3.931   9.698 -0.2840  0.8457 -1.3710
   34POPC  C211 4569   6.195   3.887   9.538  0.4547  1.4792  0.6373
   34POPC  H11R 4570   6.200   3.799   9.470  0.5159  0.4542  1.9293
   34POPC  H11S 4571   6.248   3.967   9.483  0.8449  1.8122  1.4845
   34POPC  C212 4572   6.052   3.913   9.581  0.4153 -0.2004 -0.8831
   34POPC  H12R 4573   5.997   3.828   9.627  1.1394  0.1393  0.6583
   34POPC  H12S 4574   6.003   3.932   9.483 -2.4946 -2.9981 -0.1263
   34POPC  C213 4575   6.042   4.032   9.679  0.0532  0.4263  1.0781
   34POPC  H13R 4576   6.101   4.111   9.629  1.5868 -1.8118 -0.8675
   34POPC  H13S 4577   6.098   4.010   9.772  0.7921 -1.9667  0.1402
   34POPC  C214 4578   5.897   4.073   9.715  0.4394  0.1900  0.9722
   34POPC  H14R 4579   5.855   3.997   9.783  2.2384 -3.3803 -1.5767
   34POPC  H14S 4580   5.844   4.082   9.618  3.4738  2.2590 -0.6828
   34POPC  C215 4581   5.898   4.206   9.791 -0.1402  0.3295 -0.6412
   34POPC  H15R 4582   5.956   4.279   9.731 -0.9574  0.4809 -1.2573
   34POPC  H15S 4583   5.938   4.192   9.894 -0.9519 -0.7143 -0.4522
   34POPC  C216 4584   5.756   4.264   9.810 -0.0560 -0.6782 -0.4464
   34POPC  H16R 4585   5.678   4.187   9.825  0.9577 -1.3863  1.4869
   34POPC  H16S 4586   5.729   4.325   9.721 -0.9589  0.6990  0.7392
   34POPC  C217 4587   5.748   4.361   9.931 -0.1517  0.0105 -0.2170
   34POPC  H17R 4588   5.788   4.307  10.020 -0.6885  0.3731  0.2538
   34POPC  H17S 4589   5.644   4.393   9.956 -0.6954 -2.5123  1.1087
   34POPC  C218 4590   5.833   4.482   9.911  0.1111  0.0629 -0.2420
   34POPC  H18R 4591   5.801   4.550   9.829 -0.4911 -1.0986 -0.9921
   34POPC  H18S 4592   5.938   4.449   9.893 -0.2620 -1.9243  0.8983
   34POPC  H18T 4593   5.847   4.541  10.004 -1.3111  0.6156 -0.3624
   34POPC   C33 4594   6.824   2.865  10.102 -0.6619  1.0126 -0.0676
   34POPC   H3X 4595   6.722   2.885  10.063 -0.9733 -1.1971 -0.5465
   34POPC   H3Y 4596   6.828   2.755  10.120  1.6774  1.1151  0.3848
   34POPC   C34 4597   6.923   2.901   9.987  0.5272 -0.3702 -0.1556
   34POPC   H4X 4598   7.018   2.847  10.003  1.6220  0.5667 -2.9263
   34POPC   H4Y 4599   6.934   3.012   9.992  3.0362 -0.4550 -1.9933
   34POPC   C35 4600   6.869   2.854   9.853 -0.0439 -0.4452  0.0654
   34POPC   H5X 4601   6.768   2.898   9.844 -0.1712 -0.6367  0.5203
   34POPC   H5Y 4602   6.869   2.743   9.848 -2.4542 -0.5192  0.5603
   34POPC   C36 4603   6.927   2.910   9.725 -0.5365 -1.0933 -0.4547
   34POPC   H6X 4604   7.038   2.918   9.735 -0.4419  1.5850 -2.5105
   34POPC   H6Y 4605   6.907   3.019   9.715  3.1848 -0.3679 -1.6835
   34POPC   C37 4606   6.874   2.836   9.606 -0.2280  0.1570  0.4884
   34POPC   H7X 4607   6.763   2.831   9.611 -0.2011  0.2302  1.2513
   34POPC   H7Y 4608   6.910   2.731   9.602 -0.2647  0.1695 -0.4662
   34POPC   C38 4609   6.900   2.914   9.477  0.2170  0.1647 -0.5965
   34POPC   H8X 4610   7.010   2.926   9.460  0.4177 -1.0006 -0.2354
   34POPC   H8Y 4611   6.867   3.019   9.492 -1.8008 -0.7068  1.6025
   34POPC   C39 4612   6.847   2.844   9.349  0.3130 -0.0237  0.0618
   34POPC   H9X 4613   6.869   2.735   9.347 -3.1662 -0.8389 -0.9842
   34POPC   H9Y 4614   6.900   2.891   9.264  4.0778 -1.5438  1.3614
   34POPC  C310 4615   6.700   2.879   9.328  0.1177  0.1598 -0.0864
   34POPC  H10X 4616   6.696   2.988   9.347  0.6503  0.1737 -0.0367
   34POPC  H10Y 4617   6.623   2.835   9.395 -0.4599  0.7340 -0.3654
   34POPC  C311 4618   6.659   2.888   9.183 -0.4743  0.6113 -0.3622
   34POPC  H11X 4619   6.606   2.792   9.160 -1.4085  1.0787 -0.2305
   34POPC  H11Y 4620   6.738   2.908   9.108 -0.3980  0.0271 -0.4459
   34POPC  C312 4621   6.560   2.997   9.156  0.4405 -0.6175  0.2874
   34POPC  H12X 4622   6.628   3.085   9.165  1.8554 -1.6590  0.1677
   34POPC  H12Y 4623   6.476   3.005   9.228  0.1408  1.3588 -0.2098
   34POPC  C313 4624   6.505   2.994   9.013 -0.5938  0.0883 -0.2858
   34POPC  H13X 4625   6.585   2.998   8.935  0.5955  0.5570  0.9046
   34POPC  H13Y 4626   6.451   3.088   8.991  0.9527  0.7921 -1.2913
   34POPC  C314 4627   6.393   2.891   8.992 -0.9065 -0.4806  0.1798
   34POPC  H14X 4628   6.317   2.888   9.073 -3.3513  0.5610 -1.9167
   34POPC  H14Y 4629   6.437   2.790   8.978 -0.1362  0.0148 -1.2535
   34POPC  C315 4630   6.311   2.920   8.864 -0.5839 -0.1953  0.2129
   34POPC  H15X 4631   6.264   2.823   8.837 -1.2281  0.0993  0.2520
   34POPC  H15Y 4632   6.378   2.960   8.785 -1.0672  1.0459  0.4060
   34POPC  C316 4633   6.196   3.017   8.870 -0.0517 -0.4465 -0.3308
   34POPC  H16X 4634   6.121   2.991   8.947 -1.8905  0.2760 -1.8009
   34POPC  H16Y 4635   6.145   3.013   8.771 -0.8384  0.5132  0.0346
   34POPC  H16Z 4636   6.231   3.117   8.900  0.5756 -0.8531  0.3261
   35POPC     N 4637   0.098   5.883  10.902 -0.3142  0.0111  0.0345
   35POPC   C12 4638  -0.012   5.779  10.926 -0.1945 -0.4753 -0.3698
   35POPC  H12A 4639   0.012   5.698  10.858 -1.1880  0.1091 -1.4546
   35POPC  H12B 4640  -0.105   5.822  10.891 -1.0033 -1.3059  0.6810
   35POPC   C13 4641   0.239   5.831  10.902  0.5780  0.7427 -0.2035
   35POPC  H13A 4642   0.251   5.767  10.988  0.2458  1.5079  0.4236
   35POPC  H13B 4643   0.260   5.770  10.815  0.3913  2.3411 -1.4211
   35POPC  H13C 4644   0.320   5.902  10.910  0.6815  0.5077  0.8541
   35POPC   C14 4645   0.073   5.951  10.769  0.2466  0.7365 -0.5520
   35POPC  H14A 4646  -0.030   5.974  10.748 -0.8857 -3.5890 -0.5668
   35POPC  H14B 4647   0.129   6.041  10.749  0.0350  0.5361 -2.2460
   35POPC  H14C 4648   0.099   5.888  10.685 -0.6514 -0.5345  0.0889
   35POPC   C15 4649   0.082   5.989  11.007 -0.1942 -0.0298 -0.4567
   35POPC  H15A 4650   0.087   5.940  11.103  2.6175 -0.6900 -0.8387
   35POPC  H15B 4651  -0.015   6.035  11.015 -0.4763 -0.8396  1.3130
   35POPC  H15C 4652   0.155   6.069  11.003  0.9450 -1.0913 -1.7605
   35POPC   C11 4653  -0.014   5.713  11.067  0.9882 -0.1935  0.0250
   35POPC  H11A 4654  -0.101   5.645  11.074  0.3348  0.5368 -0.8193
   35POPC  H11B 4655  -0.039   5.786  11.147  0.8346  0.5324 -0.6693
   35POPC     P 4656   0.142   5.506  11.032  0.1736 -0.3273  0.5982
   35POPC   O13 4657   0.053   5.417  11.105 -0.2953  0.4434 -0.8979
   35POPC   O14 4658   0.287   5.492  11.050  0.3381 -0.6030  0.3582
   35POPC   O12 4659   0.109   5.651  11.083  0.2713 -0.1262 -0.2335
   35POPC   O11 4660   0.107   5.519  10.869 -0.8780  0.1788  0.3917
   35POPC    C1 4661   0.220   5.517  10.782 -0.1026  0.1269 -0.0439
   35POPC    HA 4662   0.244   5.413  10.751  0.8715 -0.5382  2.6342
   35POPC    HB 4663   0.307   5.564  10.832  1.1482 -2.1130  0.0229
   35POPC    C2 4664   0.196   5.594  10.648  0.4905  0.2036 -0.2660
   35POPC    HS 4665   0.179   5.701  10.673 -1.1150 -0.0934  0.0355
   35POPC   O21 4666   0.081   5.541  10.580  0.2198  0.4248 -0.2657
   35POPC   C21 4667  -0.004   5.631  10.527  0.0315  0.1792  0.0371
   35POPC   O22 4668   0.002   5.750  10.536 -0.1356  0.1992  0.4550
   35POPC   C22 4669  -0.089   5.565  10.420 -0.5194 -0.0954  0.1570
   35POPC   H2R 4670  -0.128   5.654  10.365  2.4082 -0.2160 -2.3899
   35POPC   H2S 4671  -0.178   5.516  10.466 -0.8534 -0.7832 -1.1961
   35POPC    C3 4672   0.321   5.597  10.547  0.3596  0.6850  0.6313
   35POPC    HX 4673   0.338   5.495  10.506 -2.0953  0.4192  0.0869
   35POPC    HY 4674   0.419   5.616  10.594  1.2601  1.3906 -1.3998
   35POPC   O31 4675   0.309   5.686  10.431  0.0088  0.2458 -0.1800
   35POPC   C31 4676   0.329   5.812  10.461  1.0848  0.0769  0.4510
   35POPC   O32 4677   0.344   5.859  10.575 -0.1429 -0.0192  0.2731
   35POPC   C32 4678   0.324   5.898  10.331 -0.4915 -0.2407 -0.2642
   35POPC   H2X 4679   0.431   5.898  10.300  0.1520 -0.4641  1.8060
   35POPC   H2Y 4680   0.316   6.006  10.359 -2.0425 -0.2980 -0.4177
   35POPC   C23 4681  -0.006   5.484  10.318 -0.4355 -0.1559 -0.5680
   35POPC   H3R 4682  -0.016   5.377  10.346  2.1781 -1.0177 -2.5409
   35POPC   H3S 4683   0.097   5.523  10.325 -0.7702  0.8555 -1.1696
   35POPC   C24 4684  -0.058   5.495  10.175  0.1248 -0.5975  0.3775
   35POPC   H4R 4685  -0.057   5.603  10.150  1.6728 -0.9984 -1.5988
   35POPC   H4S 4686  -0.164   5.463  10.175 -0.9915  2.6086 -1.4265
   35POPC   C25 4687   0.048   5.416  10.098  0.4646  0.3174  0.1838
   35POPC   H5R 4688   0.078   5.330  10.161  1.0631  0.3336 -0.0720
   35POPC   H5S 4689   0.137   5.479  10.080  0.7736 -0.2690 -0.3728
   35POPC   C26 4690  -0.035   5.372   9.967 -0.2720 -0.1448 -0.2378
   35POPC   H6R 4691  -0.059   5.467   9.915 -1.5661 -1.8145 -2.8633
   35POPC   H6S 4692  -0.126   5.323  10.006 -0.1020  0.4631  0.9890
   35POPC   C27 4693   0.051   5.289   9.872  0.0882 -0.3833 -0.6256
   35POPC   H7R 4694   0.123   5.215   9.915  1.9680  1.3538 -0.6169
   35POPC   H7S 4695   0.130   5.352   9.826  0.1982  0.1499  0.2700
   35POPC   C28 4696  -0.013   5.227   9.740 -1.0905  0.1565 -0.0332
   35POPC   H8R 4697  -0.067   5.302   9.679 -0.1257  0.7537 -0.1753
   35POPC   H8S 4698  -0.090   5.159   9.781 -0.0207 -0.8866  0.3132
   35POPC   C29 4699   0.088   5.147   9.657 -0.2498 -0.2876 -0.1294
   35POPC   H91 4700   0.114   5.049   9.699 -0.3842 -0.0399  0.5334
   35POPC  C210 4701   0.141   5.177   9.538  0.3866 -0.2499 -0.1010
   35POPC  H101 4702   0.217   5.118   9.484 -2.4856 -0.9989 -3.6795
   35POPC  C211 4703   0.120   5.310   9.462  0.1724  0.0682 -0.4348
   35POPC  H11R 4704   0.211   5.371   9.441 -1.4822  2.3438 -1.3057
   35POPC  H11S 4705   0.058   5.384   9.515  0.8174  2.3005 -2.5853
   35POPC  C212 4706   0.048   5.284   9.334 -0.0904 -0.8729  0.3467
   35POPC  H12R 4707  -0.014   5.371   9.303 -2.2534 -1.8460  1.7011
   35POPC  H12S 4708  -0.028   5.204   9.323 -0.7831 -0.2007  0.1543
   35POPC  C213 4709   0.155   5.252   9.225  0.2544 -0.2048  0.2734
   35POPC  H13R 4710   0.219   5.168   9.259  0.9011 -0.4015 -1.3288
   35POPC  H13S 4711   0.221   5.341   9.224  1.3814 -0.8848  3.3690
   35POPC  C214 4712   0.110   5.205   9.085 -0.1610 -0.0625 -0.2230
   35POPC  H14R 4713   0.204   5.184   9.029  0.1569 -1.0654  0.6627
   35POPC  H14S 4714   0.059   5.291   9.035 -0.5075 -1.3197 -2.1449
   35POPC  C215 4715   0.016   5.087   9.094  0.1454 -0.7527  0.4994
   35POPC  H15R 4716  -0.083   5.130   9.119  0.3999 -0.5514  1.1789
   35POPC  H15S 4717   0.026   5.029   9.188  0.4970 -0.1160  0.8627
   35POPC  C216 4718   0.006   5.020   8.961 -0.2128 -0.5750  0.7771
   35POPC  H16R 4719   0.060   5.075   8.882  1.2008 -0.0419  2.0710
   35POPC  H16S 4720  -0.095   5.019   8.915 -0.3139  0.4888  0.9514
   35POPC  C217 4721   0.044   4.875   8.963 -0.3945 -0.1088  0.2588
   35POPC  H17R 4722   0.016   4.830   8.865 -1.3327 -2.7874  1.6347
   35POPC  H17S 4723  -0.027   4.825   9.033 -1.8466  0.4643 -0.7374
   35POPC  C218 4724   0.187   4.847   9.003  0.5359 -0.0954 -0.3379
   35POPC  H18R 4725   0.204   4.737   8.999 -2.5887 -0.6391 -0.8869
   35POPC  H18S 4726   0.210   4.877   9.107 -0.1513  2.3812 -0.8398
   35POPC  H18T 4727   0.252   4.898   8.928  1.9573 -1.3705 -0.0263
   35POPC   C33 4728   0.234   5.849  10.224 -0.2481 -0.0650  0.1677
   35POPC   H3X 4729   0.135   5.895  10.245  1.7097  4.2829  1.0068
   35POPC   H3Y 4730   0.237   5.738  10.222  0.7827 -0.0447  0.1238
   35POPC   C34 4731   0.278   5.889  10.092 -0.5199 -0.2255  0.4436
   35POPC   H4X 4732   0.384   5.856  10.079 -0.2454  0.9656 -0.5289
   35POPC   H4Y 4733   0.276   5.999  10.086  2.9410 -0.0984 -0.7661
   35POPC   C35 4734   0.182   5.835   9.983  0.4089 -0.1726  0.6050
   35POPC   H5X 4735   0.076   5.840  10.017  0.5661  1.8375  0.9061
   35POPC   H5Y 4736   0.214   5.729   9.977  3.2578  0.6494 -0.0751
   35POPC   C36 4737   0.198   5.886   9.837  0.2187  0.0787 -0.3079
   35POPC   H6X 4738   0.138   5.821   9.770  0.9359 -0.5110 -0.3960
   35POPC   H6Y 4739   0.303   5.876   9.803  0.3647 -1.5764  0.5460
   35POPC   C37 4740   0.149   6.035   9.831 -0.0046  0.1020 -0.1034
   35POPC   H7X 4741   0.211   6.082   9.910  0.2811 -0.1413 -0.1775
   35POPC   H7Y 4742   0.040   6.046   9.845 -0.4233  0.3692 -2.9117
   35POPC   C38 4743   0.168   6.106   9.695  0.0885  0.1978  0.2208
   35POPC   H8X 4744   0.278   6.122   9.687  0.7085 -2.9042  1.2481
   35POPC   H8Y 4745   0.120   6.205   9.710  1.4618  0.7984  0.8973
   35POPC   C39 4746   0.115   6.018   9.577 -0.0881 -0.2164 -0.2320
   35POPC   H9X 4747   0.013   5.977   9.591 -0.9788  2.2031  1.0146
   35POPC   H9Y 4748   0.191   5.940   9.557  0.5688 -0.1945  1.9531
   35POPC  C310 4749   0.101   6.104   9.437 -0.5068  0.4463  0.1621
   35POPC  H10X 4750   0.202   6.148   9.420 -0.2175 -0.3884 -0.3785
   35POPC  H10Y 4751   0.024   6.182   9.453 -0.7465  0.2306  0.0519
   35POPC  C311 4752   0.052   6.012   9.325  0.5982  0.2622 -0.1497
   35POPC  H11X 4753  -0.045   5.966   9.352 -0.1048  0.7453 -1.7369
   35POPC  H11Y 4754   0.122   5.925   9.318 -2.5004 -2.3360 -1.6225
   35POPC  C312 4755   0.032   6.075   9.188 -0.6271  0.0249 -0.0038
   35POPC  H12X 4756  -0.031   6.166   9.184  2.0362  2.1117  1.9956
   35POPC  H12Y 4757  -0.026   6.014   9.116 -1.0711  1.4491 -0.8896
   35POPC  C313 4758   0.176   6.107   9.122 -0.2554  0.4407 -0.4814
   35POPC  H13X 4759   0.243   6.018   9.125 -0.9191 -0.0680 -0.7162
   35POPC  H13Y 4760   0.228   6.183   9.186 -0.3757  0.9186 -0.9461
   35POPC  C314 4761   0.151   6.163   8.982  0.1429  0.6527 -0.1535
   35POPC  H14X 4762   0.084   6.252   8.980 -1.2484 -0.3266 -2.3752
   35POPC  H14Y 4763   0.094   6.086   8.925  0.3456 -0.0349  0.5583
   35POPC  C315 4764   0.281   6.202   8.906 -0.3129 -0.1871  0.5944
   35POPC  H15X 4765   0.335   6.104   8.910 -0.1262 -0.1923 -1.0753
   35POPC  H15Y 4766   0.334   6.284   8.958  1.5251 -1.9807  1.6992
   35POPC  C316 4767   0.262   6.242   8.763 -0.2563 -0.0358  0.4138
   35POPC  H16X 4768   0.349   6.231   8.695 -0.5464  0.8275 -0.1202
   35POPC  H16Y 4769   0.240   6.351   8.774 -0.1190 -0.0284  0.6138
   35POPC  H16Z 4770   0.175   6.181   8.729 -1.4745  1.0464  1.4359
   36POPC     N 4771   1.708   6.526  11.200 -0.2328  0.0527 -0.5064
   36POPC   C12 4772   1.772   6.603  11.088 -0.3670  0.5162  0.6966
   36POPC  H12A 4773   1.878   6.583  11.083 -0.2992  0.8665  0.6863
   36POPC  H12B 4774   1.761   6.707  11.117 -0.1967  0.5339  0.6992
   36POPC   C13 4775   1.706   6.383  11.179 -0.7457 -0.3483  0.3078
   36POPC  H13A 4776   1.669   6.331  11.266  0.1318  1.5095  1.8719
   36POPC  H13B 4777   1.641   6.351  11.099  0.4092 -1.0032 -0.4011
   36POPC  H13C 4778   1.802   6.355  11.137 -1.0255  0.0103 -0.6080
   36POPC   C14 4779   1.793   6.545  11.318 -0.6114 -0.0542  0.1339
   36POPC  H14A 4780   1.890   6.498  11.313 -0.8749 -0.6220  0.2286
   36POPC  H14B 4781   1.816   6.650  11.331  1.3500 -0.2694 -1.1155
   36POPC  H14C 4782   1.746   6.502  11.405  0.1756 -2.1523 -0.4109
   36POPC   C15 4783   1.568   6.566  11.224 -0.8663 -0.2088  0.0865
   36POPC  H15A 4784   1.558   6.665  11.265 -0.8869 -0.8676  1.7384
   36POPC  H15B 4785   1.529   6.496  11.296 -1.1359 -2.1569 -1.8379
   36POPC  H15C 4786   1.520   6.568  11.127  1.5181 -2.2374 -1.2640
   36POPC   C11 4787   1.712   6.595  10.945 -0.1468 -0.0410  0.4122
   36POPC  H11A 4788   1.707   6.486  10.925  4.6406 -0.0447 -2.1851
   36POPC  H11B 4789   1.780   6.639  10.869 -0.2118 -0.9877 -0.2097
   36POPC     P 4790   1.543   6.798  10.922 -0.0477  0.1459 -0.3307
   36POPC   O13 4791   1.666   6.878  10.936  0.0341  0.2688  0.2798
   36POPC   O14 4792   1.433   6.835  11.014 -0.1230 -0.6212  0.2545
   36POPC   O12 4793   1.581   6.653  10.939  0.0721  0.3507 -0.7384
   36POPC   O11 4794   1.492   6.807  10.774 -0.5251 -0.1438 -0.1787
   36POPC    C1 4795   1.576   6.765  10.667 -0.2118  0.3396 -0.1437
   36POPC    HA 4796   1.642   6.677  10.683 -0.7195  0.1922  1.3712
   36POPC    HB 4797   1.644   6.842  10.626  1.2238 -0.1737  1.1672
   36POPC    C2 4798   1.496   6.703  10.549  0.9129 -0.5349 -0.4049
   36POPC    HS 4799   1.568   6.665  10.473  1.0459 -0.7605 -0.1657
   36POPC   O21 4800   1.402   6.807  10.508  0.0182 -0.3361 -0.1156
   36POPC   C21 4801   1.452   6.904  10.425 -0.3337 -0.1075 -0.5278
   36POPC   O22 4802   1.571   6.917  10.392  0.5861 -0.2295 -0.1515
   36POPC   C22 4803   1.340   6.988  10.379  0.6055  0.2199 -0.4958
   36POPC   H2R 4804   1.385   7.056  10.304 -1.4109  1.8050 -0.3694
   36POPC   H2S 4805   1.290   7.055  10.453  0.3856 -0.5478  0.0556
   36POPC    C3 4806   1.425   6.573  10.584 -0.6634 -0.3156 -0.7738
   36POPC    HX 4807   1.360   6.597  10.671  1.3792 -1.1398  1.0447
   36POPC    HY 4808   1.497   6.496  10.618 -1.5987 -1.0523 -0.4020
   36POPC   O31 4809   1.360   6.515  10.468 -0.2655  0.0380 -0.1171
   36POPC   C31 4810   1.231   6.540  10.456  0.4547  0.1025  0.1245
   36POPC   O32 4811   1.166   6.595  10.539  0.3469  0.4683 -0.4572
   36POPC   C32 4812   1.179   6.487  10.327  0.0194  0.2671 -0.1875
   36POPC   H2X 4813   1.215   6.383  10.315  2.0076  0.8796  0.1795
   36POPC   H2Y 4814   1.215   6.558  10.250  0.0891  0.3536 -0.0756
   36POPC   C23 4815   1.230   6.899  10.314 -0.0216  0.0688 -0.0854
   36POPC   H3R 4816   1.163   6.848  10.387 -0.3581  2.6244  1.4955
   36POPC   H3S 4817   1.280   6.813  10.264  0.9785 -0.7868  2.2210
   36POPC   C24 4818   1.145   6.990  10.224 -0.3176 -0.2383 -0.4770
   36POPC   H4R 4819   1.212   7.060  10.169 -2.3527 -0.1592 -3.0214
   36POPC   H4S 4820   1.078   7.054  10.284  1.8361  1.5351  0.1813
   36POPC   C25 4821   1.072   6.922  10.110 -0.1733  0.0608 -0.0752
   36POPC   H5R 4822   1.016   6.998  10.051 -1.0952 -0.4594  0.1261
   36POPC   H5S 4823   1.014   6.845  10.164 -1.7038  1.4369  0.2976
   36POPC   C26 4824   1.159   6.856  10.013 -0.8223 -0.0153  0.2315
   36POPC   H6R 4825   1.239   6.797  10.062 -0.9051 -1.5791 -1.3637
   36POPC   H6S 4826   1.218   6.925   9.950  1.6683 -0.2865  2.0991
   36POPC   C27 4827   1.079   6.781   9.904 -0.8284  0.3105 -0.4898
   36POPC   H7R 4828   1.012   6.849   9.847 -1.2659  0.0790 -0.2639
   36POPC   H7S 4829   1.020   6.702   9.955  0.2986 -1.4584 -1.7889
   36POPC   C28 4830   1.169   6.705   9.810 -0.2086  0.3925  0.6918
   36POPC   H8R 4831   1.104   6.629   9.763  2.1878 -1.0405 -0.5373
   36POPC   H8S 4832   1.234   6.644   9.876 -0.8123 -0.4201  0.5389
   36POPC   C29 4833   1.244   6.782   9.703  0.3074 -0.7286 -0.1946
   36POPC   H91 4834   1.279   6.883   9.731 -0.4029 -0.0778 -1.5540
   36POPC  C210 4835   1.255   6.749   9.572 -0.5381  0.1101 -0.1381
   36POPC  H101 4836   1.311   6.821   9.509 -0.8218  0.7985  0.3818
   36POPC  C211 4837   1.188   6.636   9.500  0.8873  0.3224  0.3637
   36POPC  H11R 4838   1.141   6.555   9.560  0.6334  0.4898  0.3915
   36POPC  H11S 4839   1.264   6.587   9.436  0.3711  1.5735 -1.2945
   36POPC  C212 4840   1.067   6.686   9.413 -0.7166  0.1732 -0.3260
   36POPC  H12R 4841   0.990   6.728   9.481  0.0443  1.2226 -0.0969
   36POPC  H12S 4842   1.026   6.596   9.363 -0.8696  0.8584 -1.4583
   36POPC  C213 4843   1.108   6.782   9.306 -0.1687  0.2498  0.9142
   36POPC  H13R 4844   1.158   6.873   9.345  0.7619  0.6879 -1.1691
   36POPC  H13S 4845   1.019   6.811   9.245  0.2492 -0.8368 -0.2489
   36POPC  C214 4846   1.210   6.734   9.205  1.0894 -0.2246 -0.3274
   36POPC  H14R 4847   1.163   6.645   9.158 -0.6700  0.6667 -0.3656
   36POPC  H14S 4848   1.297   6.694   9.260 -0.0098 -0.4921  1.2848
   36POPC  C215 4849   1.228   6.821   9.072 -0.4977  0.3072 -0.3133
   36POPC  H15R 4850   1.320   6.883   9.083  1.4241 -2.0200 -1.9911
   36POPC  H15S 4851   1.145   6.893   9.058  1.0472  1.9527 -1.5374
   36POPC  C216 4852   1.224   6.760   8.933 -0.4403 -0.2023  0.2021
   36POPC  H16R 4853   1.133   6.698   8.921 -0.6846  0.3306 -0.7694
   36POPC  H16S 4854   1.316   6.698   8.926 -0.7915 -1.6015  4.7099
   36POPC  C217 4855   1.219   6.867   8.816  0.4081  0.1253  0.0902
   36POPC  H17R 4856   1.158   6.951   8.857  0.1571  0.7886 -1.5508
   36POPC  H17S 4857   1.158   6.825   8.734 -0.4091 -3.0349  2.1652
   36POPC  C218 4858   1.361   6.920   8.781 -0.1312  0.2517 -0.1258
   36POPC  H18R 4859   1.362   7.018   8.729  0.7188  0.1965 -0.2261
   36POPC  H18S 4860   1.415   6.851   8.713  0.9188 -0.1944  1.0988
   36POPC  H18T 4861   1.420   6.922   8.876  0.1961 -2.0177 -0.2358
   36POPC   C33 4862   1.026   6.492  10.306  0.2823 -0.5662 -0.0396
   36POPC   H3X 4863   0.984   6.591  10.333  0.6872 -0.2537 -0.5256
   36POPC   H3Y 4864   0.967   6.427  10.373 -3.4372  1.3894 -1.1394
   36POPC   C34 4865   0.983   6.474  10.159 -0.2368 -0.4558  0.3862
   36POPC   H4X 4866   1.015   6.374  10.122  1.3885 -0.4833  1.8038
   36POPC   H4Y 4867   1.029   6.555  10.099 -1.3487  0.0824  0.2236
   36POPC   C35 4868   0.827   6.474  10.140  0.0880 -0.0138  0.2868
   36POPC   H5X 4869   0.792   6.552  10.212  0.9304  1.5151 -0.8863
   36POPC   H5Y 4870   0.791   6.374  10.171 -0.5534 -0.4947 -1.8261
   36POPC   C36 4871   0.779   6.514  10.002 -0.2837  0.5144  0.3527
   36POPC   H6X 4872   0.799   6.622   9.987 -1.4961  0.5248 -1.4812
   36POPC   H6Y 4873   0.670   6.498   9.990 -0.5473  1.5927  1.2154
   36POPC   C37 4874   0.845   6.434   9.890 -0.1876  0.1258 -0.0846
   36POPC   H7X 4875   0.818   6.326   9.893 -0.4603  0.1930 -0.1111
   36POPC   H7Y 4876   0.956   6.440   9.901 -0.3907  0.7356  2.1431
   36POPC   C38 4877   0.803   6.480   9.749  0.4702  0.0522  0.5871
   36POPC   H8X 4878   0.852   6.578   9.733  1.0724 -0.1661  1.0798
   36POPC   H8Y 4879   0.692   6.489   9.749  0.4442 -0.1484 -0.6264
   36POPC   C39 4880   0.871   6.385   9.645  0.3112 -0.2337  0.1656
   36POPC   H9X 4881   0.853   6.279   9.673  0.2490 -0.7468 -1.7272
   36POPC   H9Y 4882   0.980   6.406   9.651  0.4645 -0.4532 -1.5044
   36POPC  C310 4883   0.813   6.415   9.503 -0.1860  0.1494 -0.2701
   36POPC  H10X 4884   0.836   6.522   9.484 -2.5269  0.5911 -0.8487
   36POPC  H10Y 4885   0.704   6.395   9.507 -0.0804 -1.1287 -2.3745
   36POPC  C311 4886   0.865   6.330   9.391  0.6924  0.3485  0.4277
   36POPC  H11X 4887   0.975   6.325   9.403  1.1137 -1.3380 -2.9470
   36POPC  H11Y 4888   0.861   6.376   9.290  0.4361 -0.4433  0.0694
   36POPC  C312 4889   0.801   6.188   9.385  0.3018  0.3862 -0.1409
   36POPC  H12X 4890   0.700   6.196   9.341 -0.1953 -2.1241  0.3912
   36POPC  H12Y 4891   0.795   6.150   9.490 -3.0928  0.1835 -0.3123
   36POPC  C313 4892   0.883   6.085   9.307 -0.0755 -0.6872 -0.1741
   36POPC  H13X 4893   0.993   6.097   9.318  0.3342 -2.7324 -1.4339
   36POPC  H13Y 4894   0.862   6.098   9.199 -0.5841  0.7518  0.0802
   36POPC  C314 4895   0.854   5.941   9.341  0.3226  0.0982 -0.2560
   36POPC  H14X 4896   0.746   5.926   9.322  0.2354 -0.1294  0.3944
   36POPC  H14Y 4897   0.874   5.932   9.450  2.9123 -2.8813 -0.8418
   36POPC  C315 4898   0.936   5.832   9.273 -0.1578  0.2656 -0.1737
   36POPC  H15X 4899   0.928   5.732   9.321  2.7208  0.2063  0.3565
   36POPC  H15Y 4900   1.044   5.857   9.282  0.8025 -2.7426 -1.9227
   36POPC  C316 4901   0.912   5.820   9.122  0.0650 -0.9974 -0.5246
   36POPC  H16X 4902   0.859   5.911   9.087 -0.0326 -1.1260 -0.7084
   36POPC  H16Y 4903   0.850   5.731   9.102 -0.3736 -1.0225  0.8252
   36POPC  H16Z 4904   1.013   5.813   9.075  0.6201  3.2819 -0.3590
   37POPC     N 4905   0.318   1.518   6.047  0.1588 -0.0531 -0.1297
   37POPC   C12 4906   0.269   1.511   6.189 -0.1393 -0.1842 -0.3941
   37POPC  H12A 4907   0.162   1.500   6.191 -0.2609  0.8237  1.7998
   37POPC  H12B 4908   0.290   1.604   6.240  0.6827 -1.1063  1.0029
   37POPC   C13 4909   0.242   1.617   5.966 -1.2321  0.0466  0.1949
   37POPC  H13A 4910   0.285   1.629   5.867 -4.9950 -3.0264 -2.1065
   37POPC  H13B 4911   0.140   1.589   5.947 -1.6481  1.6772 -0.1494
   37POPC  H13C 4912   0.248   1.713   6.014  0.5384 -0.4947  1.1399
   37POPC   C14 4913   0.469   1.553   6.051 -0.0146  0.3359 -0.2212
   37POPC  H14A 4914   0.490   1.659   6.058  1.5536  0.1261 -1.1635
   37POPC  H14B 4915   0.509   1.502   6.137  0.9404  0.9006 -0.3129
   37POPC  H14C 4916   0.515   1.532   5.955  1.6495  2.0175  0.1568
   37POPC   C15 4917   0.304   1.384   5.989 -0.4302  0.8902  0.1744
   37POPC  H15A 4918   0.198   1.364   5.993 -0.4528  1.1550  2.2182
   37POPC  H15B 4919   0.348   1.311   6.056 -1.2352 -1.5286 -1.7797
   37POPC  H15C 4920   0.353   1.369   5.894  0.4356  0.9373  0.6065
   37POPC   C11 4921   0.327   1.404   6.286  0.0246  0.1962 -0.2374
   37POPC  H11A 4922   0.299   1.432   6.389  0.4834 -0.0949 -0.0305
   37POPC  H11B 4923   0.438   1.409   6.288 -0.0142  2.1411  2.2470
   37POPC     P 4924   0.149   1.204   6.315  0.0287  0.4401  0.2579
   37POPC   O13 4925   0.107   1.097   6.221  0.3684  0.0429 -0.5137
   37POPC   O14 4926   0.045   1.311   6.321 -0.0036  0.4104 -0.7131
   37POPC   O12 4927   0.289   1.269   6.258  0.1785  0.3092 -0.5407
   37POPC   O11 4928   0.180   1.146   6.455 -0.5277  0.0507  0.1511
   37POPC    C1 4929   0.296   1.075   6.486  0.5179  0.3146 -0.1083
   37POPC    HA 4930   0.378   1.106   6.417 -1.0305  0.9757 -1.7205
   37POPC    HB 4931   0.276   0.967   6.464  0.7933  0.5204 -1.4854
   37POPC    C2 4932   0.331   1.087   6.636 -0.1091 -0.0777  0.7708
   37POPC    HS 4933   0.437   1.052   6.632 -0.3093 -0.6536 -2.4707
   37POPC   O21 4934   0.250   0.988   6.707 -0.3470 -0.0383 -0.2348
   37POPC   C21 4935   0.303   0.952   6.819  1.6498 -0.6120 -0.7541
   37POPC   O22 4936   0.415   0.976   6.857  0.0218  0.2872  0.2869
   37POPC   C22 4937   0.198   0.875   6.894  0.1152  0.7209  0.1713
   37POPC   H2R 4938   0.141   0.813   6.822 -0.3064  1.8749 -0.5093
   37POPC   H2S 4939   0.127   0.954   6.923 -0.3220  0.1847  0.5869
   37POPC    C3 4940   0.324   1.232   6.690 -0.1485 -0.7880  0.6797
   37POPC    HX 4941   0.217   1.264   6.686  0.3873  1.1032  0.3191
   37POPC    HY 4942   0.372   1.296   6.613  1.1230 -1.1401  1.1576
   37POPC   O31 4943   0.394   1.258   6.816  0.1132  0.4836 -0.1314
   37POPC   C31 4944   0.315   1.267   6.928 -0.3771 -0.9920  0.3004
   37POPC   O32 4945   0.197   1.248   6.932 -0.3624 -0.1004  0.4703
   37POPC   C32 4946   0.408   1.308   7.039 -0.1371  0.3542  0.7946
   37POPC   H2X 4947   0.434   1.413   7.014  0.1329 -0.0561 -0.7119
   37POPC   H2Y 4948   0.498   1.245   7.026 -1.2709 -0.8241 -2.3529
   37POPC   C23 4949   0.270   0.800   7.010 -0.2904  0.0481  0.7151
   37POPC   H3R 4950   0.339   0.868   7.064 -0.2408  1.8950 -1.5577
   37POPC   H3S 4951   0.332   0.727   6.954 -1.0606  1.5663 -2.2916
   37POPC   C24 4952   0.178   0.714   7.109 -0.1631  0.0740 -0.6362
   37POPC   H4R 4953   0.111   0.637   7.065  0.2595 -0.1274 -0.9310
   37POPC   H4S 4954   0.116   0.790   7.162  0.3353  0.0845 -0.0584
   37POPC   C25 4955   0.274   0.662   7.216  1.1362 -0.2253 -0.2934
   37POPC   H5R 4956   0.366   0.722   7.235 -0.1547  1.6782  0.0914
   37POPC   H5S 4957   0.315   0.562   7.187  3.7473  0.4134  0.8963
   37POPC   C26 4958   0.197   0.635   7.349 -0.2768 -0.3208  0.2908
   37POPC   H6R 4959   0.102   0.578   7.337  0.5914 -1.6839 -0.4720
   37POPC   H6S 4960   0.175   0.735   7.391  0.4545  0.2433 -0.6224
   37POPC   C27 4961   0.270   0.555   7.460  0.8340  0.4442 -0.9272
   37POPC   H7R 4962   0.362   0.612   7.483  1.6134 -1.6756  1.7296
   37POPC   H7S 4963   0.290   0.458   7.409  1.1693  0.5502 -0.9977
   37POPC   C28 4964   0.195   0.526   7.589  0.6863 -0.5616 -0.3892
   37POPC   H8R 4965   0.278   0.503   7.659 -0.4236 -3.0909  0.2128
   37POPC   H8S 4966   0.134   0.433   7.580 -1.8679  1.0663 -0.9982
   37POPC   C29 4967   0.115   0.647   7.626 -0.6179 -0.4750 -0.1308
   37POPC   H91 4968   0.028   0.664   7.561  0.0288 -1.2071 -1.2020
   37POPC  C210 4969   0.112   0.723   7.741 -0.7060  0.2915  0.0772
   37POPC  H101 4970   0.044   0.809   7.743 -1.4279 -0.1772 -1.8342
   37POPC  C211 4971   0.206   0.697   7.853  0.1952  0.1911  0.1124
   37POPC  H11R 4972   0.271   0.786   7.870  3.0584 -1.7381  0.0231
   37POPC  H11S 4973   0.283   0.622   7.824 -2.0065 -1.4355 -1.7948
   37POPC  C212 4974   0.154   0.638   7.982  0.5800 -0.2374  0.2351
   37POPC  H12R 4975   0.141   0.532   7.951 -0.4441  0.2190 -0.9591
   37POPC  H12S 4976   0.055   0.684   8.003  1.0551  0.3370  1.3020
   37POPC  C213 4977   0.253   0.645   8.096 -0.0640 -0.4630  0.3467
   37POPC  H13R 4978   0.296   0.747   8.105  0.3722 -0.3191 -2.4889
   37POPC  H13S 4979   0.348   0.592   8.074  1.7683  2.0044  1.7800
   37POPC  C214 4980   0.181   0.607   8.223  0.4933 -0.3257 -0.1260
   37POPC  H14R 4981   0.139   0.504   8.220 -1.1992  0.2749  1.3644
   37POPC  H14S 4982   0.092   0.670   8.242  0.5644 -0.5035  0.9017
   37POPC  C215 4983   0.286   0.610   8.334 -0.3872  0.1839 -0.3339
   37POPC  H15R 4984   0.338   0.708   8.336 -0.8139  0.4789 -2.1428
   37POPC  H15S 4985   0.355   0.529   8.302  0.9066  0.6069  1.2231
   37POPC  C216 4986   0.231   0.570   8.467 -1.2845  0.2292 -0.2498
   37POPC  H16R 4987   0.198   0.465   8.449 -0.8996  0.4959 -2.8934
   37POPC  H16S 4988   0.142   0.632   8.492 -0.8714 -0.1015  2.4208
   37POPC  C217 4989   0.332   0.555   8.587  0.0586 -0.2460 -0.3975
   37POPC  H17R 4990   0.415   0.497   8.543 -0.3389 -2.2582  1.3287
   37POPC  H17S 4991   0.284   0.497   8.669  0.7423 -0.4564 -0.1459
   37POPC  C218 4992   0.386   0.695   8.639  0.2497  0.2545  0.8920
   37POPC  H18R 4993   0.447   0.683   8.731  1.6870 -0.7276 -0.1372
   37POPC  H18S 4994   0.306   0.770   8.658 -1.3852 -0.5535 -2.0790
   37POPC  H18T 4995   0.448   0.736   8.556  0.4196 -0.1342  0.8281
   37POPC   C33 4996   0.360   1.269   7.176  0.1105  0.0024 -0.6454
   37POPC   H3X 4997   0.254   1.300   7.184 -0.1028 -0.6395 -0.9570
   37POPC   H3Y 4998   0.434   1.318   7.243 -0.5166  1.0323 -0.6793
   37POPC   C34 4999   0.371   1.117   7.214  0.2827 -0.9784 -0.3279
   37POPC   H4X 5000   0.471   1.082   7.180  0.0168 -1.4665 -0.6241
   37POPC   H4Y 5001   0.301   1.048   7.162  0.1624 -0.2132 -1.1921
   37POPC   C35 5002   0.356   1.088   7.365  0.2874  0.2994  0.0425
   37POPC   H5X 5003   0.422   1.157   7.420 -0.7204  0.6275  0.8803
   37POPC   H5Y 5004   0.392   0.986   7.390 -0.6377  0.2039  1.0688
   37POPC   C36 5005   0.215   1.119   7.424  0.1304 -0.3128 -0.2345
   37POPC   H6X 5006   0.137   1.080   7.354 -0.6704  0.1398  0.3959
   37POPC   H6Y 5007   0.198   1.228   7.417 -1.3886 -0.4873  0.4492
   37POPC   C37 5008   0.207   1.067   7.570 -0.2943 -0.0387 -0.0160
   37POPC   H7X 5009   0.238   0.961   7.556 -0.9100  0.0658 -2.7408
   37POPC   H7Y 5010   0.103   1.056   7.608 -0.8521  1.8811 -0.9137
   37POPC   C38 5011   0.303   1.127   7.674  0.6501 -0.6505 -0.5442
   37POPC   H8X 5012   0.264   1.226   7.705  2.6201  0.2346 -0.7594
   37POPC   H8Y 5013   0.410   1.129   7.647  0.1197  0.0571 -2.7763
   37POPC   C39 5014   0.296   1.036   7.799 -0.7644  0.0798  0.8610
   37POPC   H9X 5015   0.319   0.934   7.763 -0.0330  0.3991  0.3845
   37POPC   H9Y 5016   0.193   1.031   7.840 -0.6370 -1.0316  1.0581
   37POPC  C310 5017   0.393   1.091   7.904  0.5499 -0.1978 -0.0311
   37POPC  H10X 5018   0.411   1.199   7.886  0.6119  0.0081  1.2385
   37POPC  H10Y 5019   0.491   1.040   7.892 -0.1454 -1.5330 -0.2941
   37POPC  C311 5020   0.349   1.061   8.051 -0.9981  0.0545 -0.4020
   37POPC  H11X 5021   0.429   1.094   8.120 -1.3571  0.7102 -0.2860
   37POPC  H11Y 5022   0.340   0.951   8.070  2.6392 -0.5482 -1.4714
   37POPC  C312 5023   0.216   1.143   8.092 -0.4283 -0.0498  0.7573
   37POPC  H12X 5024   0.133   1.090   8.041  0.6347  0.0323 -1.1431
   37POPC  H12Y 5025   0.218   1.230   8.023 -0.9561 -1.9258 -1.7992
   37POPC  C313 5026   0.187   1.158   8.237 -0.3897  0.3094  0.0183
   37POPC  H13X 5027   0.080   1.188   8.235 -0.0643  1.6176  1.1400
   37POPC  H13Y 5028   0.246   1.239   8.285  0.8592 -0.2679 -0.4892
   37POPC  C314 5029   0.192   1.019   8.300 -0.0901 -0.0386 -0.8444
   37POPC  H14X 5030   0.289   0.966   8.295 -1.0712 -2.2679  1.2359
   37POPC  H14Y 5031   0.110   0.962   8.251  0.3114 -0.1317 -1.4136
   37POPC  C315 5032   0.134   1.021   8.449  0.1184 -0.4406 -0.6719
   37POPC  H15X 5033   0.141   0.923   8.503 -0.1270  1.1296  2.4560
   37POPC  H15Y 5034   0.032   1.065   8.452  0.0595 -0.6154  0.8433
   37POPC  C316 5035   0.221   1.110   8.534  0.9496 -0.4757 -0.8340
   37POPC  H16X 5036   0.204   1.104   8.643  1.6436 -3.9981 -0.8025
   37POPC  H16Y 5037   0.230   1.220   8.516  0.7668  0.0248  1.8248
   37POPC  H16Z 5038   0.323   1.068   8.521  0.5504 -1.4927 -0.7167
   38POPC     N 5039   0.547   6.534   6.100 -0.3156 -0.0133 -0.2937
   38POPC   C12 5040   0.492   6.495   6.236  0.5032 -0.3550  0.3914
   38POPC  H12A 5041   0.552   6.419   6.283  2.8780  0.5743 -0.9408
   38POPC  H12B 5042   0.395   6.451   6.222 -0.0276  0.3020  1.8378
   38POPC   C13 5043   0.470   6.656   6.054  0.0882  0.1962 -0.1987
   38POPC  H13A 5044   0.488   6.740   6.120  0.2838  1.4429 -1.7778
   38POPC  H13B 5045   0.519   6.683   5.961  0.8949 -2.5726 -0.6759
   38POPC  H13C 5046   0.364   6.638   6.043 -0.0438  2.2069 -3.5564
   38POPC   C14 5047   0.694   6.573   6.119  0.6957  0.4916  0.2534
   38POPC  H14A 5048   0.743   6.483   6.153  0.5913 -0.0406 -0.9671
   38POPC  H14B 5049   0.737   6.604   6.025 -1.1420  1.2570 -0.3930
   38POPC  H14C 5050   0.716   6.657   6.183 -2.8991  0.6749  1.5078
   38POPC   C15 5051   0.536   6.424   5.997 -0.5919  0.0920 -0.1498
   38POPC  H15A 5052   0.578   6.446   5.900  1.3739  1.5985  0.9892
   38POPC  H15B 5053   0.435   6.388   5.983 -0.1651 -1.1510 -0.1590
   38POPC  H15C 5054   0.602   6.348   6.035  1.9499  1.6788 -1.1594
   38POPC   C11 5055   0.491   6.612   6.341  0.3527  0.6460  0.0035
   38POPC  H11A 5056   0.581   6.677   6.336  2.3316 -1.8239  1.2194
   38POPC  H11B 5057   0.484   6.571   6.444 -2.3706  0.1530 -0.2946
   38POPC     P 5058   0.220   6.634   6.343  0.1765  0.2800  0.1699
   38POPC   O13 5059   0.199   6.520   6.250 -0.1511  0.2019  0.2446
   38POPC   O14 5060   0.131   6.749   6.315 -0.6357  0.2078  0.1859
   38POPC   O12 5061   0.366   6.691   6.321  0.4373  0.1883  0.1234
   38POPC   O11 5062   0.218   6.595   6.491  0.3352 -0.6765  0.1363
   38POPC    C1 5063   0.277   6.681   6.587  0.2268  0.7085  0.3489
   38POPC    HA 5064   0.281   6.788   6.556  0.6060 -0.3252 -3.6031
   38POPC    HB 5065   0.380   6.648   6.613 -0.3310  1.7496  4.7021
   38POPC    C2 5066   0.197   6.671   6.720  0.1820  0.2808  0.3164
   38POPC    HS 5067   0.236   6.754   6.783  0.3029  0.0823  0.5033
   38POPC   O21 5068   0.207   6.539   6.772 -0.0755  0.0143  0.0057
   38POPC   C21 5069   0.331   6.527   6.836  0.1492  0.1717 -0.1338
   38POPC   O22 5070   0.419   6.607   6.833 -0.2142 -0.1497  0.4193
   38POPC   C22 5071   0.342   6.393   6.904  0.5553 -0.1473  0.9493
   38POPC   H2R 5072   0.440   6.373   6.952  0.9338 -2.1397 -0.5305
   38POPC   H2S 5073   0.318   6.316   6.828 -0.0763  1.1729 -0.2347
   38POPC    C3 5074   0.043   6.700   6.705  0.3514 -0.0944  0.0341
   38POPC    HX 5075   0.019   6.633   6.620  2.8181 -2.6410  1.1881
   38POPC    HY 5076   0.040   6.807   6.674  1.3156  0.4376  1.6610
   38POPC   O31 5077  -0.037   6.662   6.822  0.1910  0.3360 -0.2345
   38POPC   C31 5078  -0.035   6.746   6.919 -0.8767  1.0050  0.0800
   38POPC   O32 5079   0.018   6.858   6.916 -0.5463  0.3305  0.0117
   38POPC   C32 5080  -0.115   6.697   7.037  0.0816  0.3512 -0.3884
   38POPC   H2X 5081  -0.075   6.596   7.062  1.1914 -0.1136 -3.6825
   38POPC   H2Y 5082  -0.219   6.692   6.998 -0.0833 -0.4497  0.1208
   38POPC   C23 5083   0.240   6.380   7.020  0.3857  0.1584  0.3623
   38POPC   H3R 5084   0.255   6.279   7.065 -1.0433 -0.3641 -0.2544
   38POPC   H3S 5085   0.139   6.386   6.973 -0.0276 -0.3625  1.1644
   38POPC   C24 5086   0.259   6.477   7.131 -0.9263 -0.5300 -0.3833
   38POPC   H4R 5087   0.201   6.566   7.100  2.2120  2.4173  1.4521
   38POPC   H4S 5088   0.367   6.500   7.139 -0.8245 -0.9896 -0.4135
   38POPC   C25 5089   0.201   6.427   7.267 -0.2837 -0.3255  0.3093
   38POPC   H5R 5090   0.247   6.498   7.340  1.4245 -0.5774 -0.4887
   38POPC   H5S 5091   0.241   6.328   7.295  0.7131 -0.0134  0.0452
   38POPC   C26 5092   0.045   6.408   7.282  0.5081 -0.4135  0.5863
   38POPC   H6R 5093   0.023   6.330   7.206 -0.9821  1.2201 -0.7431
   38POPC   H6S 5094  -0.009   6.501   7.253 -0.1825 -0.9207  0.2027
   38POPC   C27 5095  -0.018   6.358   7.414 -0.4089  0.2483 -0.2550
   38POPC   H7R 5096   0.044   6.268   7.433  0.8666  1.1336 -0.1041
   38POPC   H7S 5097  -0.125   6.327   7.416  0.1157 -1.7539  2.1913
   38POPC   C28 5098  -0.001   6.458   7.519  0.6025 -0.3246 -0.4147
   38POPC   H8R 5099  -0.082   6.532   7.499  1.6635  0.5062 -1.7839
   38POPC   H8S 5100   0.096   6.512   7.510  1.1759 -1.0878  0.9445
   38POPC   C29 5101  -0.009   6.411   7.666  0.5071  0.7481 -0.0807
   38POPC   H91 5102   0.085   6.403   7.722  0.7666 -1.7257 -0.7456
   38POPC  C210 5103  -0.122   6.368   7.726 -0.1381 -0.6480  0.2630
   38POPC  H101 5104  -0.103   6.323   7.825  3.4935 -0.0478 -0.0471
   38POPC  C211 5105  -0.265   6.362   7.669 -0.8717  0.3486 -0.5012
   38POPC  H11R 5106  -0.289   6.260   7.631  1.1376 -0.7505  0.9490
   38POPC  H11S 5107  -0.283   6.426   7.581  0.9933 -0.8180 -1.8118
   38POPC  C212 5108  -0.369   6.407   7.775  0.0445  0.3046 -0.5368
   38POPC  H12R 5109  -0.367   6.338   7.862  2.5335  3.0389  1.7990
   38POPC  H12S 5110  -0.465   6.388   7.722  0.2969 -0.4760 -0.7312
   38POPC  C213 5111  -0.347   6.548   7.819  0.7406 -0.1026  0.0709
   38POPC  H13R 5112  -0.343   6.613   7.729 -0.4282  2.9748  2.0466
   38POPC  H13S 5113  -0.249   6.556   7.871  0.2249  1.1458  0.9300
   38POPC  C214 5114  -0.443   6.597   7.924  0.3607  0.0128  0.3101
   38POPC  H14R 5115  -0.442   6.533   8.014 -0.4669 -0.6873 -0.1575
   38POPC  H14S 5116  -0.548   6.577   7.892  0.3312 -0.2225  0.5526
   38POPC  C215 5117  -0.421   6.740   7.971  0.0223  0.3364 -1.2699
   38POPC  H15R 5118  -0.413   6.797   7.876  1.2283  0.7682 -0.9246
   38POPC  H15S 5119  -0.327   6.750   8.030  0.2912  0.7680 -1.7560
   38POPC  C216 5120  -0.546   6.798   8.049 -0.3152 -0.4508 -0.6505
   38POPC  H16R 5121  -0.630   6.800   7.976 -1.3096  0.3764  0.4952
   38POPC  H16S 5122  -0.525   6.903   8.078 -1.1762  0.7898 -3.9887
   38POPC  C217 5123  -0.570   6.720   8.182  0.2221 -0.1887 -0.3038
   38POPC  H17R 5124  -0.471   6.723   8.233  0.6004 -1.3962 -0.9369
   38POPC  H17S 5125  -0.593   6.614   8.157 -2.1251 -0.1386  1.2624
   38POPC  C218 5126  -0.685   6.766   8.273  0.8132  0.8384 -0.0948
   38POPC  H18R 5127  -0.667   6.870   8.307 -1.0647  1.0059  0.5549
   38POPC  H18S 5128  -0.686   6.697   8.360  1.5933  1.0373  0.0716
   38POPC  H18T 5129  -0.786   6.759   8.227 -1.0615 -1.5306  3.8663
   38POPC   C33 5130  -0.120   6.786   7.168 -0.2009  0.0014 -0.1198
   38POPC   H3X 5131  -0.150   6.889   7.140  1.0761  0.6264  0.7321
   38POPC   H3Y 5132  -0.017   6.784   7.211 -0.3700 -0.8057  0.2602
   38POPC   C34 5133  -0.230   6.738   7.259 -0.5726 -0.2026  0.0041
   38POPC   H4X 5134  -0.182   6.684   7.343  0.4469 -1.8469 -1.5621
   38POPC   H4Y 5135  -0.302   6.671   7.207  0.3169 -0.8532 -0.4076
   38POPC   C35 5136  -0.311   6.854   7.320  0.1371  0.0224  0.2420
   38POPC   H5X 5137  -0.345   6.908   7.229 -0.9067  0.4379  0.8575
   38POPC   H5Y 5138  -0.244   6.920   7.379 -1.4586  0.2285  1.9331
   38POPC   C36 5139  -0.426   6.824   7.421 -0.2878 -0.2439  0.1442
   38POPC   H6X 5140  -0.394   6.726   7.461  1.6242 -0.2230 -1.2282
   38POPC   H6Y 5141  -0.526   6.802   7.378 -0.3426 -2.0411  1.1230
   38POPC   C37 5142  -0.455   6.920   7.539  0.0785 -0.4781 -0.3261
   38POPC   H7X 5143  -0.508   7.013   7.507 -0.5645 -1.4238 -2.1468
   38POPC   H7Y 5144  -0.356   6.950   7.581 -0.4765  1.9196 -0.5678
   38POPC   C38 5145  -0.549   6.852   7.644 -0.2928 -0.1352 -0.4868
   38POPC   H8X 5146  -0.544   6.904   7.742 -0.3581  2.1247 -1.6207
   38POPC   H8Y 5147  -0.517   6.746   7.656 -0.1505 -0.1592 -1.0746
   38POPC   C39 5148  -0.701   6.847   7.603 -0.4914 -0.2223  0.8048
   38POPC   H9X 5149  -0.769   6.814   7.684 -0.9539  1.1625  1.0050
   38POPC   H9Y 5150  -0.708   6.766   7.528 -2.1732  1.4427 -0.9479
   38POPC  C310 5151  -0.768   6.974   7.543 -0.2157  0.2369  0.3557
   38POPC  H10X 5152  -0.840   6.948   7.462 -0.0728  0.1133  0.2684
   38POPC  H10Y 5153  -0.699   7.047   7.495 -0.3107  0.2492  0.2356
   38POPC  C311 5154  -0.849   7.059   7.644 -0.7665  0.2713  0.3196
   38POPC  H11X 5155  -0.936   6.999   7.680 -2.0442  1.9145  0.1036
   38POPC  H11Y 5156  -0.886   7.147   7.588 -0.7195  0.4620  0.5854
   38POPC  C312 5157  -0.766   7.116   7.756 -0.7531 -0.8713 -0.0384
   38POPC  H12X 5158  -0.694   7.190   7.717 -0.8943 -1.9132 -2.4326
   38POPC  H12Y 5159  -0.722   7.031   7.814  0.0133  0.0013  0.6837
   38POPC  C313 5160  -0.856   7.188   7.863  0.5999 -0.9756  0.2671
   38POPC  H13X 5161  -0.954   7.137   7.878 -0.7360  1.6684  1.2219
   38POPC  H13Y 5162  -0.892   7.281   7.815  0.4215  0.7157  3.4294
   38POPC  C314 5163  -0.788   7.216   7.992 -0.5573  0.0779 -0.7104
   38POPC  H14X 5164  -0.756   7.122   8.041  1.1827  0.8433 -0.2931
   38POPC  H14Y 5165  -0.858   7.273   8.055 -0.0495  0.8720 -0.8443
   38POPC  C315 5166  -0.655   7.303   7.980 -0.1173  0.0931  0.5090
   38POPC  H15X 5167  -0.676   7.411   7.969 -0.4243  0.0546  0.7159
   38POPC  H15Y 5168  -0.588   7.279   7.894  0.0897 -1.6549  1.1029
   38POPC  C316 5169  -0.578   7.286   8.108  0.0917 -0.2144 -0.4190
   38POPC  H16X 5170  -0.569   7.176   8.121 -0.9952 -0.0757  1.9300
   38POPC  H16Y 5171  -0.635   7.318   8.198  0.5998  2.3727 -0.9478
   38POPC  H16Z 5172  -0.480   7.339   8.107 -0.2943  0.5289  0.2691
   39POPC     N 5173   5.347   2.160   6.077  0.4452  0.1448 -0.5432
   39POPC   C12 5174   5.356   2.307   6.113 -0.2566  0.1638 -0.5713
   39POPC  H12A 5175   5.328   2.366   6.028 -1.9674 -1.6083 -1.3385
   39POPC  H12B 5176   5.455   2.327   6.152 -1.3611  0.8793  2.0943
   39POPC   C13 5177   5.466   2.124   5.991 -0.4624  0.0950 -0.0705
   39POPC  H13A 5178   5.461   2.018   5.972 -0.1894 -0.1084  0.9621
   39POPC  H13B 5179   5.469   2.184   5.901  0.5883  0.3364  0.1080
   39POPC  H13C 5180   5.555   2.140   6.050 -2.8157  2.0245  3.3207
   39POPC   C14 5181   5.345   2.072   6.199 -0.0623 -0.2454  0.5287
   39POPC  H14A 5182   5.345   1.970   6.163 -2.5395 -0.4806  1.0377
   39POPC  H14B 5183   5.427   2.081   6.268  1.5561 -2.8278 -0.9155
   39POPC  H14C 5184   5.261   2.097   6.262 -0.1937  1.7609 -0.3521
   39POPC   C15 5185   5.213   2.136   6.007 -0.6607 -0.4896 -0.2129
   39POPC  H15A 5186   5.195   2.199   5.921 -0.5044  0.8026  0.6744
   39POPC  H15B 5187   5.148   2.171   6.085 -0.1003  1.3766 -0.5396
   39POPC  H15C 5188   5.198   2.031   5.983 -2.4092 -0.4757  0.7046
   39POPC   C11 5189   5.262   2.356   6.227  0.4023  0.2563  0.5450
   39POPC  H11A 5190   5.289   2.460   6.254 -0.9694  0.8917 -0.4551
   39POPC  H11B 5191   5.279   2.294   6.318 -0.0422 -0.8500 -0.1042
   39POPC     P 5192   5.047   2.473   6.143  0.0803 -0.0554  0.2018
   39POPC   O13 5193   4.910   2.441   6.099 -0.5337  0.2041  0.4046
   39POPC   O14 5194   5.128   2.554   6.055  0.4700  0.6112  0.1905
   39POPC   O12 5195   5.129   2.342   6.177 -0.1451 -0.7545 -0.0849
   39POPC   O11 5196   5.037   2.549   6.276 -0.2515 -0.2116 -0.1123
   39POPC    C1 5197   4.969   2.484   6.391 -0.6792  1.0806  0.1888
   39POPC    HA 5198   4.931   2.381   6.372 -0.0304  0.7957  0.4238
   39POPC    HB 5199   4.880   2.543   6.422 -2.2456  0.6629 -3.1171
   39POPC    C2 5200   5.060   2.474   6.515 -0.4064  0.6107 -0.6246
   39POPC    HS 5201   5.139   2.400   6.489 -1.6198 -1.3130  0.9222
   39POPC   O21 5202   4.976   2.423   6.627 -0.1147  0.1905  0.0655
   39POPC   C21 5203   5.058   2.388   6.724 -0.0568  0.5936 -0.2465
   39POPC   O22 5204   5.181   2.390   6.720  0.2540 -0.0718  0.2343
   39POPC   C22 5205   4.969   2.357   6.846 -0.0735  0.2646 -0.3501
   39POPC   H2R 5206   4.866   2.334   6.812 -0.3151 -0.8885  1.0720
   39POPC   H2S 5207   4.965   2.447   6.912 -1.9708  0.2146 -0.3469
   39POPC    C3 5208   5.115   2.616   6.541 -0.3221 -0.6229  0.1158
   39POPC    HX 5209   5.178   2.654   6.457 -1.5930 -0.2848 -0.7051
   39POPC    HY 5210   5.182   2.618   6.630 -0.4226 -1.0657  0.2025
   39POPC   O31 5211   5.010   2.717   6.559  0.1242 -0.1136  0.4776
   39POPC   C31 5212   4.962   2.733   6.679 -0.0086  0.0773 -0.6380
   39POPC   O32 5213   5.012   2.688   6.782  0.4711 -0.5821  0.1564
   39POPC   C32 5214   4.862   2.845   6.677  0.3304  0.5950 -0.0238
   39POPC   H2X 5215   4.897   2.930   6.615 -1.8883  1.3345 -0.3524
   39POPC   H2Y 5216   4.766   2.815   6.629  0.3478 -1.9437  1.3376
   39POPC   C23 5217   5.033   2.242   6.931 -0.8482  0.5190  0.2325
   39POPC   H3R 5218   5.140   2.264   6.949 -0.6196  2.4296 -2.8310
   39POPC   H3S 5219   5.033   2.145   6.878  0.1320  1.0811 -0.8409
   39POPC   C24 5220   4.962   2.222   7.068  0.3063 -0.1300  1.1650
   39POPC   H4R 5221   4.857   2.200   7.039  0.2348  1.6136 -0.0572
   39POPC   H4S 5222   4.964   2.317   7.126 -0.3355  0.3301  0.4400
   39POPC   C25 5223   5.029   2.123   7.168  0.4903 -0.1550 -0.0160
   39POPC   H5R 5224   5.136   2.153   7.173  0.3947  0.1524  0.1536
   39POPC   H5S 5225   5.038   2.026   7.114  0.7936 -0.0749 -0.1159
   39POPC   C26 5226   4.966   2.116   7.310  0.1385  0.2152 -0.8413
   39POPC   H6R 5227   4.861   2.078   7.308  0.1320  0.2128 -0.4158
   39POPC   H6S 5228   4.972   2.217   7.355  1.1968  0.0273 -0.5489
   39POPC   C27 5229   5.052   2.034   7.407  0.4078  0.2205  0.2659
   39POPC   H7R 5230   5.151   2.084   7.404 -0.6333  2.3255 -0.9518
   39POPC   H7S 5231   5.053   1.927   7.375 -2.7596  0.2518 -0.2316
   39POPC   C28 5232   5.000   2.036   7.559 -0.7784 -0.4764 -0.1709
   39POPC   H8R 5233   4.904   1.980   7.549 -0.6570 -0.4705 -1.5108
   39POPC   H8S 5234   4.990   2.141   7.591  0.4083 -0.5231  0.4140
   39POPC   C29 5235   5.088   1.952   7.656  0.6273 -0.7657 -0.7146
   39POPC   H91 5236   5.109   1.846   7.635 -0.2446 -1.4989  1.7990
   39POPC  C210 5237   5.144   1.996   7.774 -0.0281  0.3519 -0.0124
   39POPC  H101 5238   5.202   1.930   7.839 -0.3437 -0.6204 -0.6913
   39POPC  C211 5239   5.130   2.137   7.822 -0.2144  0.6211 -0.5577
   39POPC  H11R 5240   5.025   2.161   7.849 -0.2145 -0.4164  0.4733
   39POPC  H11S 5241   5.171   2.202   7.743 -3.4082  1.1156 -1.9424
   39POPC  C212 5242   5.223   2.153   7.945  0.7322 -0.1972  0.1032
   39POPC  H12R 5243   5.331   2.160   7.922  0.6539  1.2789  0.1060
   39POPC  H12S 5244   5.210   2.074   8.022 -1.2143 -0.4369 -0.4194
   39POPC  C213 5245   5.198   2.293   8.011 -0.5331  0.1818  0.5959
   39POPC  H13R 5246   5.096   2.299   8.054 -0.4292 -0.9432  1.0323
   39POPC  H13S 5247   5.209   2.383   7.947 -0.8794  0.4640  0.9294
   39POPC  C214 5248   5.292   2.344   8.125 -0.6964  0.4311  0.2986
   39POPC  H14R 5249   5.398   2.360   8.094 -0.2981  0.5468  1.6846
   39POPC  H14S 5250   5.295   2.267   8.204 -2.3299  0.0007 -0.0315
   39POPC  C215 5251   5.245   2.468   8.200  0.1521 -0.1001  0.0260
   39POPC  H15R 5252   5.235   2.558   8.136  2.4010 -0.5183 -0.9926
   39POPC  H15S 5253   5.332   2.496   8.263  0.3251  0.7022 -0.5554
   39POPC  C216 5254   5.113   2.454   8.274 -0.4271  0.0574 -0.8022
   39POPC  H16R 5255   5.149   2.383   8.352  0.8037  0.9507 -0.5406
   39POPC  H16S 5256   5.035   2.399   8.217  1.9405 -2.9434 -1.4107
   39POPC  C217 5257   5.065   2.581   8.350 -0.7895  0.0580  0.5213
   39POPC  H17R 5258   5.037   2.664   8.282  2.4475 -1.5073 -3.1559
   39POPC  H17S 5259   5.151   2.630   8.401  0.7474 -1.6999 -0.2410
   39POPC  C218 5260   4.962   2.556   8.458  0.4083  0.4047  0.0419
   39POPC  H18R 5261   5.004   2.475   8.521 -1.3605  0.5557  1.4904
   39POPC  H18S 5262   4.871   2.513   8.410 -0.0944  4.5939 -3.4563
   39POPC  H18T 5263   4.936   2.646   8.517  1.3620  0.4226  0.4525
   39POPC   C33 5264   4.851   2.912   6.821  0.4276  0.3479 -0.1239
   39POPC   H3X 5265   4.951   2.954   6.844  0.8806 -0.2216 -0.9834
   39POPC   H3Y 5266   4.838   2.833   6.897  0.6730  0.3834 -0.0463
   39POPC   C34 5267   4.757   3.035   6.844  0.0676 -0.3394  0.9465
   39POPC   H4X 5268   4.664   2.999   6.795  0.2420 -0.9217  1.0357
   39POPC   H4Y 5269   4.796   3.124   6.790 -0.6489  0.0688  1.0881
   39POPC   C35 5270   4.718   3.069   6.990 -0.5296  0.3164  0.1716
   39POPC   H5X 5271   4.793   3.024   7.057 -1.5093 -0.9436  0.4560
   39POPC   H5Y 5272   4.632   3.006   7.023 -0.1226 -0.6081 -0.4798
   39POPC   C36 5273   4.684   3.218   7.013  0.3077  0.5818  0.1942
   39POPC   H6X 5274   4.612   3.235   6.931  0.3160  3.1214  0.6345
   39POPC   H6Y 5275   4.777   3.275   6.996  0.4705  0.1150 -0.5199
   39POPC   C37 5276   4.628   3.254   7.155 -0.0160  0.4518  0.0555
   39POPC   H7X 5277   4.716   3.237   7.221  1.3008  2.0757 -1.1917
   39POPC   H7Y 5278   4.543   3.184   7.172  1.8451 -1.7811  0.7124
   39POPC   C38 5279   4.585   3.403   7.167 -0.2607  0.9458 -0.5440
   39POPC   H8X 5280   4.489   3.422   7.115  0.1437  1.6742 -1.0549
   39POPC   H8Y 5281   4.669   3.454   7.113 -0.4004  1.6573 -0.1046
   39POPC   C39 5282   4.566   3.452   7.309  0.7996  0.6647 -0.4004
   39POPC   H9X 5283   4.551   3.561   7.294  3.0087  0.9384 -1.0363
   39POPC   H9Y 5284   4.656   3.426   7.370 -1.4681 -1.7182  2.2116
   39POPC  C310 5285   4.443   3.405   7.385 -0.0230 -0.2190  0.2180
   39POPC  H10X 5286   4.464   3.300   7.416 -0.2292 -0.3117  0.0446
   39POPC  H10Y 5287   4.356   3.406   7.316 -0.0258 -4.1527 -0.0812
   39POPC  C311 5288   4.425   3.494   7.502  0.3342 -0.1072  0.9956
   39POPC  H11X 5289   4.421   3.599   7.467 -0.9191 -0.1356  1.0145
   39POPC  H11Y 5290   4.519   3.492   7.563  0.4925  0.6736  0.7861
   39POPC  C312 5291   4.303   3.453   7.577  0.1684 -0.6675  0.8981
   39POPC  H12X 5292   4.327   3.351   7.615  2.1398 -0.3831  0.5134
   39POPC  H12Y 5293   4.206   3.445   7.523  1.5218  0.4011 -1.8655
   39POPC  C313 5294   4.273   3.525   7.709  0.2487  0.2135  0.3580
   39POPC  H13X 5295   4.188   3.476   7.760  1.5443  0.8290  3.2894
   39POPC  H13Y 5296   4.225   3.621   7.678 -2.2980 -0.6336  1.3889
   39POPC  C314 5297   4.390   3.540   7.800  0.8059  0.1941  0.4107
   39POPC  H14X 5298   4.457   3.623   7.768  0.4465  0.6765  0.8899
   39POPC  H14Y 5299   4.439   3.441   7.803  0.4297 -0.0098 -0.1225
   39POPC  C315 5300   4.352   3.562   7.947  0.5299 -0.1004  0.2593
   39POPC  H15X 5301   4.442   3.550   8.010  0.3903 -4.8070 -0.1267
   39POPC  H15Y 5302   4.279   3.487   7.984 -0.1851  0.2869 -0.3330
   39POPC  C316 5303   4.286   3.707   7.975  0.8293 -0.3691  1.0799
   39POPC  H16X 5304   4.359   3.788   7.959 -0.1727 -0.0223 -2.6069
   39POPC  H16Y 5305   4.252   3.713   8.080 -2.8240  1.8253 -0.0426
   39POPC  H16Z 5306   4.199   3.727   7.909 -0.3497 -2.9169  1.7466
   40POPC     N 5307   5.329   6.209   5.969 -0.3130  0.7738  0.5507
   40POPC   C12 5308   5.347   6.204   6.118 -0.4506  0.3598 -1.2399
   40POPC  H12A 5309   5.433   6.264   6.143  0.5028 -0.2744 -2.8779
   40POPC  H12B 5310   5.356   6.108   6.167 -2.1219  1.0278  0.5084
   40POPC   C13 5311   5.464   6.167   5.908  0.8131 -0.0086  0.5676
   40POPC  H13A 5312   5.453   6.151   5.801  1.3115  1.7065  0.2315
   40POPC  H13B 5313   5.530   6.250   5.927  0.3076  0.1657  1.5984
   40POPC  H13C 5314   5.506   6.074   5.945 -0.8751 -1.8909 -1.8589
   40POPC   C14 5315   5.224   6.100   5.927 -0.2974  0.0659  0.1337
   40POPC  H14A 5316   5.122   6.134   5.929 -0.9026 -1.6407 -0.0013
   40POPC  H14B 5317   5.251   6.071   5.827 -1.8974  2.8614 -1.2271
   40POPC  H14C 5318   5.232   6.025   6.005  1.7337  1.6222  1.5537
   40POPC   C15 5319   5.296   6.339   5.909 -0.4152 -0.2970 -0.3942
   40POPC  H15A 5320   5.276   6.329   5.803 -0.1173  1.0584 -0.5990
   40POPC  H15B 5321   5.372   6.414   5.927 -1.6818  1.2281 -1.1113
   40POPC  H15C 5322   5.203   6.375   5.951 -1.1853 -0.5692 -1.7991
   40POPC   C11 5323   5.225   6.255   6.198 -0.0569  0.5944  0.5444
   40POPC  H11A 5324   5.226   6.222   6.304 -0.0771 -1.3050 -0.0088
   40POPC  H11B 5325   5.138   6.201   6.154  1.1921  0.6310 -2.2137
   40POPC     P 5326   5.304   6.491   6.283 -0.6313 -0.1940  0.7867
   40POPC   O13 5327   5.267   6.631   6.255 -0.4439 -0.8189  0.5606
   40POPC   O14 5328   5.444   6.455   6.272  0.1132  0.3910  0.2168
   40POPC   O12 5329   5.216   6.398   6.184 -0.7981 -0.3712 -0.3386
   40POPC   O11 5330   5.247   6.448   6.420  0.0779  0.1633  0.0514
   40POPC    C1 5331   5.113   6.451   6.462  0.4509 -0.1333 -0.0754
   40POPC    HA 5332   5.071   6.349   6.480 -1.4205  0.8430  1.4392
   40POPC    HB 5333   5.047   6.499   6.387  0.1401  2.4381  1.7138
   40POPC    C2 5334   5.097   6.548   6.584  0.5534 -0.1383  0.0487
   40POPC    HS 5335   5.149   6.643   6.560 -1.0419  0.9839  0.8549
   40POPC   O21 5336   5.140   6.489   6.709  0.2835  0.8198 -0.2846
   40POPC   C21 5337   5.177   6.578   6.803  0.0427  0.6453 -0.0941
   40POPC   O22 5338   5.165   6.697   6.797 -0.4240  0.3785 -0.0208
   40POPC   C22 5339   5.206   6.508   6.940 -0.1982 -0.0780 -0.7310
   40POPC   H2R 5340   5.300   6.452   6.921 -0.3094 -0.4026 -0.3451
   40POPC   H2S 5341   5.125   6.434   6.961 -0.9838  1.1017  0.5689
   40POPC    C3 5342   4.949   6.591   6.603 -0.2091 -0.4062 -0.0946
   40POPC    HX 5343   4.921   6.626   6.502  0.5313 -0.6615 -0.3990
   40POPC    HY 5344   4.941   6.680   6.670  2.1523 -0.2324  0.0608
   40POPC   O31 5345   4.862   6.492   6.655  0.1621  0.2366 -0.6846
   40POPC   C31 5346   4.729   6.522   6.655  0.1447  0.9701  0.4279
   40POPC   O32 5347   4.681   6.630   6.635 -0.0943  0.2301  0.3264
   40POPC   C32 5348   4.654   6.390   6.666  0.3639  0.2464  0.5589
   40POPC   H2X 5349   4.691   6.318   6.590 -2.1639  1.3070 -1.8895
   40POPC   H2Y 5350   4.553   6.408   6.622  1.1142  0.9254 -0.9549
   40POPC   C23 5351   5.220   6.594   7.064  0.6128  0.4052 -0.3007
   40POPC   H3R 5352   5.119   6.635   7.081  1.6044  2.8821 -0.0411
   40POPC   H3S 5353   5.289   6.680   7.053 -0.5974  1.2736 -1.4611
   40POPC   C24 5354   5.238   6.505   7.187 -0.4905 -0.9110 -0.0748
   40POPC   H4R 5355   5.333   6.449   7.178 -0.8005 -1.5333  0.4525
   40POPC   H4S 5356   5.152   6.434   7.181 -2.4323  1.0151  2.6445
   40POPC   C25 5357   5.234   6.585   7.320 -0.2055 -1.3688  0.1006
   40POPC   H5R 5358   5.142   6.644   7.299 -0.0366 -1.3351 -0.5762
   40POPC   H5S 5359   5.334   6.633   7.326 -0.2515 -1.1293 -0.7781
   40POPC   C26 5360   5.218   6.496   7.438  0.2481 -0.3991 -0.1217
   40POPC   H6R 5361   5.296   6.417   7.447 -0.1565 -1.0107 -1.6649
   40POPC   H6S 5362   5.122   6.443   7.420  0.1813  0.0880 -1.2691
   40POPC   C27 5363   5.219   6.576   7.566  0.1448 -0.2432 -0.4096
   40POPC   H7R 5364   5.128   6.639   7.566 -0.8509 -1.5738  1.6551
   40POPC   H7S 5365   5.312   6.637   7.570 -0.5959  0.9135 -0.2304
   40POPC   C28 5366   5.205   6.498   7.695 -0.1651  1.0154 -0.0626
   40POPC   H8R 5367   5.282   6.419   7.700 -0.1482  0.9960 -0.5260
   40POPC   H8S 5368   5.105   6.449   7.696  1.7421 -3.2466  1.1621
   40POPC   C29 5369   5.218   6.583   7.820  0.3848 -0.6799  0.6486
   40POPC   H91 5370   5.146   6.666   7.825 -0.2649 -1.1932 -0.0306
   40POPC  C210 5371   5.285   6.540   7.934 -1.0052 -0.3727  0.4504
   40POPC  H101 5372   5.293   6.615   8.013 -0.8930  1.5509 -1.2837
   40POPC  C211 5373   5.369   6.419   7.953  0.9574 -0.1081 -0.2453
   40POPC  H11R 5374   5.473   6.458   7.946 -0.0578  2.7152 -1.2097
   40POPC  H11S 5375   5.360   6.337   7.879  2.1205  0.5481 -1.1517
   40POPC  C212 5376   5.354   6.358   8.092  0.0221  0.1653  0.3621
   40POPC  H12R 5377   5.382   6.251   8.081  0.6916  0.3735 -0.0501
   40POPC  H12S 5378   5.244   6.359   8.108 -0.0834  0.6120 -0.3299
   40POPC  C213 5379   5.437   6.416   8.205  0.2803 -0.4118 -0.0508
   40POPC  H13R 5380   5.537   6.428   8.160 -0.2598 -0.0684 -1.1986
   40POPC  H13S 5381   5.441   6.346   8.291  0.6758  0.8381  0.9676
   40POPC  C214 5382   5.395   6.553   8.258  0.7036 -0.4585 -0.3351
   40POPC  H14R 5383   5.290   6.568   8.292 -0.1596 -4.4915 -0.8020
   40POPC  H14S 5384   5.412   6.624   8.174 -0.1721 -0.9240 -0.9186
   40POPC  C215 5385   5.478   6.594   8.380  0.6206 -0.3992  0.4116
   40POPC  H15R 5386   5.585   6.579   8.354  0.9023  1.7309  0.2264
   40POPC  H15S 5387   5.444   6.516   8.451 -0.0736 -1.4970 -1.0754
   40POPC  C216 5388   5.449   6.737   8.428  0.4432 -0.5934  0.1667
   40POPC  H16R 5389   5.339   6.742   8.443  0.0596  1.3035 -2.5575
   40POPC  H16S 5390   5.482   6.809   8.350 -1.0236 -0.6785 -0.5626
   40POPC  C217 5391   5.532   6.751   8.551 -0.1816  0.3712  0.6858
   40POPC  H17R 5392   5.640   6.745   8.525 -0.3146  1.5446 -0.2239
   40POPC  H17S 5393   5.524   6.667   8.623  1.4430 -0.2320  0.2011
   40POPC  C218 5394   5.502   6.893   8.605  0.9131  0.4888  0.1132
   40POPC  H18R 5395   5.399   6.894   8.646  1.5046  1.9888  1.7068
   40POPC  H18S 5396   5.513   6.970   8.526  0.1332  1.3848  0.8479
   40POPC  H18T 5397   5.568   6.917   8.691 -0.8125 -0.4063  1.7623
   40POPC   C33 5398   4.650   6.334   6.814 -0.5902  0.0097  0.5174
   40POPC   H3X 5399   4.755   6.327   6.852 -0.0181  0.9452 -0.8249
   40POPC   H3Y 5400   4.623   6.227   6.799 -0.7303  0.1357 -0.1529
   40POPC   C34 5401   4.549   6.405   6.896  0.4002  0.6613  0.5889
   40POPC   H4X 5402   4.446   6.396   6.856 -0.5303  3.1089  2.1915
   40POPC   H4Y 5403   4.576   6.512   6.889  0.3706  0.7078  1.1702
   40POPC   C35 5404   4.557   6.362   7.044 -0.3285 -0.2199 -0.1928
   40POPC   H5X 5405   4.548   6.252   7.045 -0.1276 -0.2364 -0.2666
   40POPC   H5Y 5406   4.467   6.397   7.100 -1.3344 -0.4645 -1.6109
   40POPC   C36 5407   4.683   6.411   7.113 -1.0324  0.5851 -0.4207
   40POPC   H6X 5408   4.700   6.521   7.116  2.1094  0.2682 -2.2632
   40POPC   H6Y 5409   4.773   6.373   7.061 -1.2594  1.9205 -1.8779
   40POPC   C37 5410   4.690   6.360   7.259  0.4257  0.3550 -0.0686
   40POPC   H7X 5411   4.693   6.250   7.247 -0.5514  0.1427  1.4506
   40POPC   H7Y 5412   4.593   6.389   7.306 -0.1047 -1.8943  0.3431
   40POPC   C38 5413   4.810   6.411   7.337  0.0815  0.0676  0.9151
   40POPC   H8X 5414   4.811   6.521   7.355  2.4634  0.2088  0.2805
   40POPC   H8Y 5415   4.900   6.397   7.273 -1.0627 -1.8639 -0.3446
   40POPC   C39 5416   4.831   6.344   7.472  0.4974 -0.2362  0.1858
   40POPC   H9X 5417   4.928   6.371   7.519  0.7021  0.6112 -0.7085
   40POPC   H9Y 5418   4.832   6.234   7.463 -1.0902 -0.5298  2.5949
   40POPC  C310 5419   4.724   6.393   7.571  0.2852  0.5552  0.7059
   40POPC  H10X 5420   4.625   6.357   7.537  0.1954  1.5784 -0.1892
   40POPC  H10Y 5421   4.726   6.504   7.559 -0.6647  0.2755 -3.2904
   40POPC  C311 5422   4.759   6.350   7.711 -1.0608 -0.3180 -0.4474
   40POPC  H11X 5423   4.868   6.361   7.730 -1.5600 -0.4307  3.0741
   40POPC  H11Y 5424   4.718   6.249   7.730  1.2709 -0.8384  2.4071
   40POPC  C312 5425   4.688   6.452   7.802  0.0291 -0.2718  0.2698
   40POPC  H12X 5426   4.584   6.449   7.765  0.1466  0.9841 -0.2009
   40POPC  H12Y 5427   4.728   6.555   7.786 -1.8355  0.4226 -0.1110
   40POPC  C313 5428   4.678   6.413   7.950 -0.7182 -0.5394  0.2683
   40POPC  H13X 5429   4.614   6.325   7.972  1.7817 -2.4233  0.3966
   40POPC  H13Y 5430   4.649   6.508   8.001  0.9778 -0.2136  0.7074
   40POPC  C314 5431   4.810   6.382   8.019 -0.4531 -0.3646  0.1177
   40POPC  H14X 5432   4.866   6.294   7.980  2.4290  0.7108  1.5088
   40POPC  H14Y 5433   4.788   6.365   8.126 -0.3476  3.8902  1.0063
   40POPC  C315 5434   4.915   6.490   8.017 -0.0475 -0.1070  0.3587
   40POPC  H15X 5435   4.958   6.510   7.916 -0.5547 -0.0312  0.1534
   40POPC  H15Y 5436   4.997   6.455   8.083  1.9457 -0.9698 -2.3845
   40POPC  C316 5437   4.870   6.627   8.069 -0.1896 -0.3880  0.1817
   40POPC  H16X 5438   4.934   6.656   8.155 -0.5431 -2.2086  1.1149
   40POPC  H16Y 5439   4.769   6.627   8.116 -0.7487 -3.1384 -0.8136
   40POPC  H16Z 5440   4.872   6.710   7.996 -2.7413 -0.0705  0.3561
   41CHL1    C3 5441   0.766   2.836   9.971 -0.3769  0.6960  0.3635
   41CHL1    H3 5442   0.753   2.945   9.954  0.8560  1.0584  1.6252
   41CHL1    O3 5443   0.756   2.800  10.106 -0.1155  0.0398  0.2423
   41CHL1   H3' 5444   0.836   2.823  10.154  0.3610 -0.7515 -0.1502
   41CHL1    C4 5445   0.657   2.757   9.891  0.0430 -0.5775 -0.0758
   41CHL1   H4A 5446   0.664   2.651   9.924  0.1983 -0.9103 -1.1513
   41CHL1   H4B 5447   0.564   2.801   9.933 -0.4296 -2.5465  1.0830
   41CHL1    C5 5448   0.664   2.764   9.745  0.4472 -0.4167  0.3432
   41CHL1    C6 5449   0.553   2.811   9.677  0.1794  0.6647  0.3697
   41CHL1    H6 5450   0.464   2.824   9.740  1.5656  1.6879  2.2456
   41CHL1    C7 5451   0.537   2.826   9.527  0.1656  0.8293 -0.1684
   41CHL1   H7A 5452   0.455   2.768   9.480 -0.3194  0.6414  0.8912
   41CHL1   H7B 5453   0.524   2.932   9.495  0.3448  0.1129 -2.8721
   41CHL1    C8 5454   0.662   2.767   9.461 -0.4511 -0.0280  0.4570
   41CHL1    H8 5455   0.647   2.658   9.458 -2.2472  0.1222  2.1919
   41CHL1   C14 5456   0.668   2.830   9.318 -0.2184  0.1839 -0.7942
   41CHL1   H14 5457   0.691   2.939   9.324  0.1836  0.0230  1.5733
   41CHL1   C15 5458   0.537   2.817   9.232  0.1523 -0.4664 -0.7423
   41CHL1  H15A 5459   0.498   2.713   9.240 -1.8736  0.3793  3.8141
   41CHL1  H15B 5460   0.463   2.891   9.270 -0.9554 -1.4700 -0.8917
   41CHL1   C16 5461   0.593   2.837   9.088  0.1312  0.1526  0.6038
   41CHL1  H16A 5462   0.562   2.759   9.014  0.5169  1.5944 -1.1586
   41CHL1  H16B 5463   0.538   2.930   9.065 -0.9430  0.9810  5.4861
   41CHL1   C17 5464   0.744   2.848   9.099 -0.7822  1.4167  0.9854
   41CHL1   H17 5465   0.777   2.954   9.116  1.4856  1.0649 -0.7153
   41CHL1   C13 5466   0.781   2.771   9.234 -0.4348  0.4315  0.6259
   41CHL1   C18 5467   0.777   2.615   9.214 -0.4026  0.1630 -0.4764
   41CHL1  H18A 5468   0.679   2.583   9.171 -0.2600  1.4930 -1.8703
   41CHL1  H18B 5469   0.857   2.592   9.141  1.1211  1.1467  0.8241
   41CHL1  H18C 5470   0.797   2.553   9.304 -2.1225 -0.4566 -0.4852
   41CHL1   C12 5471   0.917   2.809   9.304  0.8894  0.2921  0.2225
   41CHL1  H12A 5472   1.005   2.767   9.250 -2.1154 -2.6727 -2.8062
   41CHL1  H12B 5473   0.914   2.920   9.306  1.0500  0.3056 -0.2502
   41CHL1   C11 5474   0.922   2.764   9.448  0.4225  0.7662 -0.0684
   41CHL1  H11A 5475   0.930   2.654   9.446 -0.5772  0.6626  0.7620
   41CHL1  H11B 5476   1.014   2.805   9.494 -0.0830 -0.6843  2.3911
   41CHL1    C9 5477   0.789   2.799   9.525  0.2807  0.2839  0.3599
   41CHL1    H9 5478   0.786   2.910   9.534 -2.3289  0.1563  2.2160
   41CHL1   C10 5479   0.801   2.749   9.670  0.0451 -0.2743 -0.2434
   41CHL1   C19 5480   0.834   2.600   9.677  0.0443  0.0307  0.5512
   41CHL1  H19A 5481   0.799   2.555   9.773 -2.4017 -1.3441 -0.8785
   41CHL1  H19B 5482   0.788   2.538   9.597  1.6952  1.4434 -1.5879
   41CHL1  H19C 5483   0.944   2.585   9.668  0.1486  1.8011 -2.8516
   41CHL1    C1 5484   0.906   2.825   9.763  0.3351 -0.3906  0.3018
   41CHL1   H1A 5485   1.007   2.800   9.725 -0.3705  0.2919 -2.2087
   41CHL1   H1B 5486   0.878   2.931   9.743 -0.1805 -0.9542 -2.3467
   41CHL1    C2 5487   0.902   2.793   9.916  0.5498 -0.2016  0.0073
   41CHL1   H2A 5488   0.983   2.851   9.963 -0.5657 -0.4909  2.4423
   41CHL1   H2B 5489   0.914   2.685   9.938 -0.8111 -0.3689  0.0129
   41CHL1   C20 5490   0.823   2.808   8.972 -0.2085  0.9177  0.2187
   41CHL1   H20 5491   0.821   2.698   8.986  0.9341  1.1830  3.2533
   41CHL1   C21 5492   0.976   2.832   8.971 -0.5462 -0.5876 -0.4454
   41CHL1  H21A 5493   1.015   2.828   8.868 -1.1445 -0.4866 -0.6819
   41CHL1  H21B 5494   1.022   2.760   9.042  1.2192 -0.0063 -0.9527
   41CHL1  H21C 5495   0.996   2.937   9.003  0.0795 -0.7761 -0.1974
   41CHL1   C22 5496   0.759   2.840   8.835 -0.2070  0.0166  0.1397
   41CHL1  H22A 5497   0.839   2.802   8.768  0.8851  1.7752  0.3789
   41CHL1  H22B 5498   0.661   2.791   8.819 -0.5052  0.4597  0.6012
   41CHL1   C23 5499   0.739   2.987   8.812 -0.2749 -0.4786  1.1619
   41CHL1  H23A 5500   0.667   3.023   8.889 -1.2491 -0.3245  0.2124
   41CHL1  H23B 5501   0.828   3.054   8.820 -2.0003  2.1604 -0.1328
   41CHL1   C24 5502   0.678   3.007   8.667 -0.4877 -0.1545  0.0924
   41CHL1  H24A 5503   0.756   2.961   8.601 -0.2298 -1.9965  1.6150
   41CHL1  H24B 5504   0.583   2.954   8.647  0.0446 -1.1486  0.1059
   41CHL1   C25 5505   0.656   3.154   8.614 -0.9458 -0.1599 -0.1486
   41CHL1   H25 5506   0.615   3.214   8.698 -1.2292  0.3038 -0.6109
   41CHL1   C26 5507   0.783   3.222   8.567  0.1355 -0.1637  0.5224
   41CHL1  H26A 5508   0.849   3.251   8.651  0.5826 -0.0775  0.1487
   41CHL1  H26B 5509   0.839   3.158   8.496 -2.1548 -0.1407 -1.4081
   41CHL1  H26C 5510   0.758   3.318   8.517  1.5986 -0.3347 -0.6041
   41CHL1   C27 5511   0.543   3.152   8.511  0.5374 -0.9253  0.2793
   41CHL1  H27A 5512   0.544   3.094   8.416 -0.7627 -0.9089  0.2297
   41CHL1  H27B 5513   0.455   3.110   8.564 -0.5160  1.2630  0.3930
   41CHL1  H27C 5514   0.526   3.258   8.482  1.7135 -0.6599  0.5248
   42CHL1    C3 5515   2.158   3.669   9.834  0.2673  0.2528 -0.8744
   42CHL1    H3 5516   2.056   3.707   9.856  1.1731  3.1332 -1.2605
   42CHL1    O3 5517   2.197   3.577   9.936  0.7229  0.2350  0.5357
   42CHL1   H3' 5518   2.291   3.563   9.923  0.8347  1.2221  0.2451
   42CHL1    C4 5519   2.155   3.593   9.705  1.0163  0.0572  0.1457
   42CHL1   H4A 5520   2.254   3.543   9.697  0.0216 -2.1367  0.6900
   42CHL1   H4B 5521   2.072   3.520   9.720 -0.6225  1.7173 -0.4754
   42CHL1    C5 5522   2.135   3.675   9.579  0.4486  0.4755  0.8931
   42CHL1    C6 5523   2.051   3.628   9.483  0.6087  0.0359  0.1475
   42CHL1    H6 5524   1.985   3.542   9.500  1.1614 -1.0533 -2.5920
   42CHL1    C7 5525   2.017   3.692   9.359 -0.3911  0.5840  0.1070
   42CHL1   H7A 5526   2.030   3.629   9.269 -0.8574  1.2299 -0.4210
   42CHL1   H7B 5527   1.912   3.728   9.363 -0.0456  1.4826  2.2222
   42CHL1    C8 5528   2.101   3.822   9.330  0.0872 -0.2079  0.3681
   42CHL1    H8 5529   2.195   3.777   9.291  0.0623  0.0429  0.0069
   42CHL1   C14 5530   2.054   3.919   9.222 -0.1543  0.4552 -0.3703
   42CHL1   H14 5531   1.961   3.963   9.263 -0.1358  0.7735 -0.6667
   42CHL1   C15 5532   1.996   3.857   9.096 -0.4759  0.5331 -0.7458
   42CHL1  H15A 5533   2.058   3.773   9.058 -1.8259  0.5055 -3.1409
   42CHL1  H15B 5534   1.889   3.828   9.105 -0.0112 -1.1488 -0.1778
   42CHL1   C16 5535   2.006   3.973   8.994 -0.5264  0.0009  0.1724
   42CHL1  H16A 5536   2.069   3.959   8.903 -0.6346  0.6212 -0.0021
   42CHL1  H16B 5537   1.907   4.015   8.966 -0.7504 -0.7364 -0.1598
   42CHL1   C17 5538   2.085   4.091   9.071  0.3571 -0.1575  0.6666
   42CHL1   H17 5539   2.002   4.153   9.113 -0.0213  0.3908 -0.8283
   42CHL1   C13 5540   2.156   4.027   9.185  0.0646  0.2465  0.0108
   42CHL1   C18 5541   2.288   3.962   9.121 -0.2139 -0.5575 -0.8719
   42CHL1  H18A 5542   2.326   3.895   9.200 -2.2237 -0.4512  0.2632
   42CHL1  H18B 5543   2.262   3.907   9.028 -1.1829  0.6567 -1.3551
   42CHL1  H18C 5544   2.362   4.038   9.087 -1.3227  0.9326 -0.0889
   42CHL1   C12 5545   2.174   4.108   9.316  0.7396  0.1078  0.7666
   42CHL1  H12A 5546   2.235   4.200   9.304  1.7524 -0.7112 -0.6313
   42CHL1  H12B 5547   2.071   4.138   9.346  0.2815 -0.8497  0.2311
   42CHL1   C11 5548   2.234   4.032   9.434  1.0582 -0.2589  0.7955
   42CHL1  H11A 5549   2.338   4.003   9.408  1.0455  0.8394 -0.5338
   42CHL1  H11B 5550   2.232   4.100   9.522  1.1282  2.2841 -1.0541
   42CHL1    C9 5551   2.144   3.902   9.463 -0.9870  0.6662  0.1581
   42CHL1    H9 5552   2.049   3.938   9.508 -1.3551  0.7760 -0.6858
   42CHL1   C10 5553   2.217   3.804   9.562  0.3225 -0.2558  0.1881
   42CHL1   C19 5554   2.366   3.760   9.518  0.5769 -0.4835 -0.1113
   42CHL1  H19A 5555   2.367   3.711   9.419  1.8458 -0.8575  0.0636
   42CHL1  H19B 5556   2.433   3.849   9.512 -0.7287  0.4532 -1.1959
   42CHL1  H19C 5557   2.410   3.697   9.598  1.2614 -1.0434 -0.9126
   42CHL1    C1 5558   2.210   3.875   9.705 -1.0151 -0.1480 -0.4321
   42CHL1   H1A 5559   2.272   3.966   9.696 -2.5087  1.2477  2.0856
   42CHL1   H1B 5560   2.104   3.906   9.716 -0.4426  1.8899 -0.2530
   42CHL1    C2 5561   2.251   3.793   9.826  0.2226  0.5612 -0.3304
   42CHL1   H2A 5562   2.244   3.853   9.919  1.7812 -1.3198  1.0653
   42CHL1   H2B 5563   2.355   3.753   9.825  1.5143  3.5335  1.1434
   42CHL1   C20 5564   2.166   4.182   8.975 -0.0967 -0.3491 -0.3197
   42CHL1   H20 5565   2.240   4.118   8.922  1.4471  0.3284  0.9317
   42CHL1   C21 5566   2.246   4.296   9.058 -0.1683 -0.0231  0.7430
   42CHL1  H21A 5567   2.177   4.362   9.116 -1.7256  0.8901 -1.9615
   42CHL1  H21B 5568   2.301   4.364   8.989  0.0882 -1.5414 -0.6187
   42CHL1  H21C 5569   2.326   4.255   9.123 -0.8396  0.3379  1.8184
   42CHL1   C22 5570   2.080   4.244   8.867  0.0412 -0.2656  0.0674
   42CHL1  H22A 5571   2.026   4.169   8.807 -3.4592  1.6440  0.5866
   42CHL1  H22B 5572   1.998   4.302   8.916 -0.6124 -1.2082  0.1060
   42CHL1   C23 5573   2.159   4.339   8.774  0.5456  0.2846  0.3983
   42CHL1  H23A 5574   2.178   4.439   8.818 -3.2111  0.3585  2.2474
   42CHL1  H23B 5575   2.258   4.293   8.752  0.4399  0.8732 -1.5292
   42CHL1   C24 5576   2.096   4.372   8.638  0.1758 -0.0356  0.2052
   42CHL1  H24A 5577   2.057   4.279   8.591 -1.3051  0.4982  0.3251
   42CHL1  H24B 5578   2.002   4.431   8.653  0.6191  0.9106 -0.6006
   42CHL1   C25 5579   2.195   4.452   8.548  0.7612  0.1004  0.2804
   42CHL1   H25 5580   2.258   4.509   8.620  0.6655 -0.5258  0.8640
   42CHL1   C26 5581   2.288   4.357   8.470  0.0141 -0.3789  0.0065
   42CHL1  H26A 5582   2.331   4.287   8.544 -0.1820 -2.1534 -1.4852
   42CHL1  H26B 5583   2.231   4.285   8.408  1.0863 -0.4485 -0.9369
   42CHL1  H26C 5584   2.378   4.396   8.418  0.0255  2.2857  1.8238
   42CHL1   C27 5585   2.118   4.547   8.452 -0.3210 -0.0648  0.3349
   42CHL1  H27A 5586   2.046   4.495   8.385 -2.1878  1.9594  0.6297
   42CHL1  H27B 5587   2.076   4.643   8.490 -2.9682  0.1120 -2.5723
   42CHL1  H27C 5588   2.195   4.577   8.377 -0.8191 -2.4620 -1.2635
   43CHL1    C3 5589   0.360   4.834   9.987 -0.0719  0.3739 -0.2208
   43CHL1    H3 5590   0.264   4.781  10.005  0.2166 -0.0480  0.0858
   43CHL1    O3 5591   0.393   4.917  10.092 -0.2015  0.2327 -0.0654
   43CHL1   H3' 5592   0.444   4.864  10.153 -0.9066 -0.2006  0.1619
   43CHL1    C4 5593   0.470   4.727   9.963 -0.3611 -0.7479 -0.4903
   43CHL1   H4A 5594   0.568   4.776   9.950 -1.7255  1.8554 -1.6257
   43CHL1   H4B 5595   0.473   4.674  10.060  1.7812  2.5056  1.4013
   43CHL1    C5 5596   0.461   4.648   9.844 -0.3803 -0.2616  1.0258
   43CHL1    C6 5597   0.465   4.518   9.843 -0.8511  0.3332 -0.7300
   43CHL1    H6 5598   0.490   4.458   9.932  1.5442  0.5391 -1.1798
   43CHL1    C7 5599   0.461   4.434   9.713  0.5980 -0.4670 -0.0607
   43CHL1   H7A 5600   0.528   4.345   9.714  2.0759  0.6134  0.5792
   43CHL1   H7B 5601   0.356   4.397   9.708  0.4905 -0.4224  1.4726
   43CHL1    C8 5602   0.472   4.515   9.579 -0.3919 -0.1071  0.3377
   43CHL1    H8 5603   0.576   4.549   9.560 -0.4220 -0.2462 -0.0822
   43CHL1   C14 5604   0.431   4.423   9.466 -0.0723 -0.0166 -0.3755
   43CHL1   H14 5605   0.323   4.404   9.486 -0.1154  1.3359  0.9268
   43CHL1   C15 5606   0.494   4.284   9.447  0.1429 -0.0737 -0.2968
   43CHL1  H15A 5607   0.604   4.282   9.463  0.1451 -0.1250 -0.3195
   43CHL1  H15B 5608   0.453   4.212   9.521 -0.2398  1.5168  1.0903
   43CHL1   C16 5609   0.468   4.257   9.296 -0.0460  0.0541 -0.6287
   43CHL1  H16A 5610   0.562   4.227   9.245 -0.2669 -2.3759  0.2280
   43CHL1  H16B 5611   0.384   4.185   9.292 -0.7525  0.8806 -0.9155
   43CHL1   C17 5612   0.401   4.384   9.243 -0.1021 -0.3329  0.5040
   43CHL1   H17 5613   0.295   4.357   9.260  0.4521 -4.0585 -0.8720
   43CHL1   C13 5614   0.448   4.499   9.330 -0.2767  0.0436 -0.1376
   43CHL1   C18 5615   0.596   4.528   9.298 -0.0648  0.4265  0.0796
   43CHL1  H18A 5616   0.633   4.617   9.353 -1.4548  1.6361 -0.8609
   43CHL1  H18B 5617   0.668   4.448   9.325  0.7763  0.7863 -1.0280
   43CHL1  H18C 5618   0.625   4.553   9.194 -2.2486 -0.6458 -0.8601
   43CHL1   C12 5619   0.354   4.628   9.328  0.0959 -0.5223  0.1857
   43CHL1  H12A 5620   0.373   4.679   9.231 -0.6947 -0.8091 -0.1290
   43CHL1  H12B 5621   0.245   4.606   9.337 -0.1224  0.3252 -0.2957
   43CHL1   C11 5622   0.385   4.716   9.452  0.5138 -0.6558 -0.0405
   43CHL1  H11A 5623   0.487   4.755   9.434  0.3984 -0.7409 -0.9109
   43CHL1  H11B 5624   0.315   4.801   9.455 -1.6056 -2.2500 -1.4847
   43CHL1    C9 5625   0.392   4.645   9.590  0.2318  0.6536 -0.0219
   43CHL1    H9 5626   0.290   4.607   9.610  0.3789  0.8473  1.1791
   43CHL1   C10 5627   0.429   4.731   9.712 -0.4049 -0.3135  0.1050
   43CHL1   C19 5628   0.551   4.809   9.663  0.6533 -0.6649 -0.4059
   43CHL1  H19A 5629   0.531   4.886   9.585 -2.2733 -0.0859  0.7651
   43CHL1  H19B 5630   0.605   4.857   9.748  1.7367  0.6986 -1.8027
   43CHL1  H19C 5631   0.633   4.751   9.616  2.1822  0.5483  0.6552
   43CHL1    C1 5632   0.316   4.838   9.745 -0.3339  0.3741  0.6010
   43CHL1   H1A 5633   0.300   4.908   9.660  0.1476  1.0809  1.0833
   43CHL1   H1B 5634   0.224   4.777   9.757 -0.6456  0.4311 -1.2113
   43CHL1    C2 5635   0.345   4.923   9.867 -0.4081 -0.3350  0.0478
   43CHL1   H2A 5636   0.248   4.976   9.879 -0.0098  0.7690 -1.3154
   43CHL1   H2B 5637   0.430   4.993   9.848 -3.2457  3.2847 -0.4497
   43CHL1   C20 5638   0.416   4.396   9.094  0.0853  0.1022  0.4418
   43CHL1   H20 5639   0.506   4.456   9.067  0.2280  0.8382  2.3643
   43CHL1   C21 5640   0.299   4.475   9.031  0.5602 -0.3217  0.8031
   43CHL1  H21A 5641   0.247   4.544   9.101 -3.6031 -1.0238 -1.2778
   43CHL1  H21B 5642   0.217   4.406   9.001  0.6326 -1.1327  2.3950
   43CHL1  H21C 5643   0.338   4.535   8.946  0.8516 -1.8317 -0.1634
   43CHL1   C22 5644   0.409   4.259   9.021 -0.3600 -0.4565  0.3304
   43CHL1  H22A 5645   0.498   4.196   9.044 -0.8278 -1.7875 -1.2743
   43CHL1  H22B 5646   0.309   4.218   9.049 -0.7994  1.6984  2.1224
   43CHL1   C23 5647   0.416   4.265   8.870 -0.5831  0.3743  0.4298
   43CHL1  H23A 5648   0.324   4.319   8.840 -1.6858 -1.0486  1.1478
   43CHL1  H23B 5649   0.504   4.326   8.839  0.2011 -0.6218  0.6659
   43CHL1   C24 5650   0.408   4.135   8.802 -0.1838  1.2063  0.4048
   43CHL1  H24A 5651   0.488   4.063   8.830 -0.0920  1.1984  0.1293
   43CHL1  H24B 5652   0.306   4.093   8.797 -0.0697  0.9705  0.0575
   43CHL1   C25 5653   0.435   4.150   8.643 -0.3301  0.3103 -0.0488
   43CHL1   H25 5654   0.546   4.143   8.632 -0.2278 -0.9224  1.3719
   43CHL1   C26 5655   0.367   4.041   8.562 -0.2464  0.1420  0.2268
   43CHL1  H26A 5656   0.393   4.046   8.454 -0.9593  0.5783  0.0734
   43CHL1  H26B 5657   0.396   3.938   8.593  1.2229 -0.7678 -3.6134
   43CHL1  H26C 5658   0.257   4.051   8.566 -0.3262 -0.5330 -0.0620
   43CHL1   C27 5659   0.395   4.285   8.584 -0.2237 -0.2873 -0.6164
   43CHL1  H27A 5660   0.455   4.368   8.627 -1.7500  0.3690  0.3041
   43CHL1  H27B 5661   0.394   4.279   8.473 -4.1248  1.5312 -0.8070
   43CHL1  H27C 5662   0.295   4.302   8.628  0.2832 -0.4757  0.6462
   44CHL1    C3 5663   2.535   0.294  10.237 -1.3074  0.0337 -0.3797
   44CHL1    H3 5664   2.463   0.217  10.201 -0.3407 -1.1275  0.1242
   44CHL1    O3 5665   2.550   0.296  10.370  0.4144 -0.6347 -0.1422
   44CHL1   H3' 5666   2.641   0.325  10.379 -0.0062  1.1203 -1.0421
   44CHL1    C4 5667   2.669   0.268  10.174  0.4725  0.9477 -0.1115
   44CHL1   H4A 5668   2.766   0.314  10.206  1.9503 -0.0958 -2.7256
   44CHL1   H4B 5669   2.680   0.158  10.185 -3.3388 -0.0482 -3.6018
   44CHL1    C5 5670   2.659   0.282  10.022  0.0532  0.1529 -0.3270
   44CHL1    C6 5671   2.682   0.181   9.936 -0.8809  0.8033  0.0288
   44CHL1    H6 5672   2.730   0.087   9.969 -1.0431  0.2319 -1.2924
   44CHL1    C7 5673   2.681   0.195   9.786  0.2468 -0.3758 -0.4092
   44CHL1   H7A 5674   2.781   0.159   9.754  1.1183 -1.0995  2.7830
   44CHL1   H7B 5675   2.607   0.130   9.735  2.1539 -2.6279 -0.4875
   44CHL1    C8 5676   2.671   0.348   9.739  0.4993  0.3384  0.1619
   44CHL1    H8 5677   2.771   0.394   9.750  2.3061 -2.6399 -2.3443
   44CHL1   C14 5678   2.640   0.353   9.590 -0.0381  0.8131 -0.5786
   44CHL1   H14 5679   2.542   0.303   9.572  1.7148 -3.2492  0.1360
   44CHL1   C15 5680   2.737   0.274   9.495  0.1141  0.3588 -0.4806
   44CHL1  H15A 5681   2.839   0.304   9.528  0.5553 -0.5576 -0.9768
   44CHL1  H15B 5682   2.721   0.166   9.514  2.8177  0.3994  3.0884
   44CHL1   C16 5683   2.707   0.330   9.358 -0.6029 -0.0249  0.2164
   44CHL1  H16A 5684   2.800   0.353   9.302  1.2463 -3.2846  1.6472
   44CHL1  H16B 5685   2.652   0.256   9.295  0.0908 -0.4038  0.0510
   44CHL1   C17 5686   2.618   0.457   9.381 -0.6875 -0.2438 -0.5664
   44CHL1   H17 5687   2.515   0.416   9.369 -0.3377 -2.2566  2.3887
   44CHL1   C13 5688   2.628   0.493   9.533  0.4174  0.0693  0.6129
   44CHL1   C18 5689   2.756   0.582   9.564  0.1618 -0.0698  0.5950
   44CHL1  H18A 5690   2.776   0.592   9.673 -1.1753  0.8110  0.7719
   44CHL1  H18B 5691   2.848   0.545   9.513 -1.0791 -0.2439 -1.6423
   44CHL1  H18C 5692   2.740   0.684   9.525  1.3865 -1.4236 -4.1371
   44CHL1   C12 5693   2.495   0.547   9.593 -0.3231  0.0400  0.1146
   44CHL1  H12A 5694   2.483   0.649   9.551  0.7402  0.4586  0.7845
   44CHL1  H12B 5695   2.410   0.478   9.572  0.6558 -1.5846  1.2191
   44CHL1   C11 5696   2.516   0.553   9.752 -0.4501 -0.3178  0.3343
   44CHL1  H11A 5697   2.590   0.633   9.773 -0.2953 -0.7454  1.5541
   44CHL1  H11B 5698   2.428   0.606   9.794  1.8736  3.3970  1.0038
   44CHL1    C9 5699   2.562   0.422   9.816  0.3888 -0.9335  0.8349
   44CHL1    H9 5700   2.473   0.359   9.794  0.3509 -1.5467  2.5742
   44CHL1   C10 5701   2.603   0.417   9.966 -0.4545 -0.3803 -0.1781
   44CHL1   C19 5702   2.712   0.529   9.997 -0.6087  0.4757  0.4946
   44CHL1  H19A 5703   2.672   0.633   9.990 -2.0668 -0.1750 -2.1708
   44CHL1  H19B 5704   2.753   0.497  10.095 -0.4399 -0.6350  0.0809
   44CHL1  H19C 5705   2.789   0.528   9.916 -1.1298 -0.0413 -0.0058
   44CHL1    C1 5706   2.467   0.447  10.048 -0.3703 -0.8830 -0.0526
   44CHL1   H1A 5707   2.442   0.549  10.010 -0.4288 -0.5815  0.7839
   44CHL1   H1B 5708   2.393   0.371  10.013  1.1302 -2.8020  0.8237
   44CHL1    C2 5709   2.485   0.434  10.200  0.6187 -0.2085  0.2525
   44CHL1   H2A 5710   2.387   0.436  10.252  1.4479 -1.9384  1.9964
   44CHL1   H2B 5711   2.552   0.515  10.235 -0.4605 -0.6538  3.7883
   44CHL1   C20 5712   2.641   0.579   9.286 -0.1522  0.4824  0.9400
   44CHL1   H20 5713   2.746   0.611   9.304  1.3008 -1.1620 -3.2581
   44CHL1   C21 5714   2.545   0.689   9.307 -0.0128 -0.3315  0.3253
   44CHL1  H21A 5715   2.447   0.649   9.339  0.1906  0.9459  2.7881
   44CHL1  H21B 5716   2.530   0.750   9.216  0.5187 -2.9975 -1.6595
   44CHL1  H21C 5717   2.581   0.767   9.379  1.7790  2.0554 -2.9039
   44CHL1   C22 5718   2.642   0.547   9.133  0.0855  0.6863  0.1231
   44CHL1  H22A 5719   2.650   0.640   9.073  1.7902 -0.3020 -1.2771
   44CHL1  H22B 5720   2.733   0.487   9.114 -0.6583 -0.2058 -0.7261
   44CHL1   C23 5721   2.514   0.469   9.077  0.0052 -0.0987  0.9298
   44CHL1  H23A 5722   2.510   0.364   9.112  1.0668 -0.1811  0.8330
   44CHL1  H23B 5723   2.414   0.514   9.098  0.2398  2.0213 -1.8356
   44CHL1   C24 5724   2.519   0.459   8.921 -0.4074 -0.9045 -0.2375
   44CHL1  H24A 5725   2.489   0.553   8.870  0.6407 -0.1897  0.4193
   44CHL1  H24B 5726   2.627   0.445   8.902 -0.3890  1.3496 -2.3013
   44CHL1   C25 5727   2.418   0.356   8.863  0.0955 -0.5911 -0.4172
   44CHL1   H25 5728   2.322   0.364   8.919  1.1457  0.7393  1.3168
   44CHL1   C26 5729   2.386   0.381   8.719 -0.6917 -0.6146  0.0616
   44CHL1  H26A 5730   2.321   0.305   8.673  0.8054 -0.5514 -2.3277
   44CHL1  H26B 5731   2.342   0.482   8.707  0.3474 -0.2999 -1.4118
   44CHL1  H26C 5732   2.482   0.381   8.662 -0.4595 -0.9621  0.4414
   44CHL1   C27 5733   2.455   0.208   8.872 -0.5722  0.5026 -0.3103
   44CHL1  H27A 5734   2.370   0.137   8.878 -0.0654 -0.5203 -3.4921
   44CHL1  H27B 5735   2.514   0.161   8.790 -1.1915  0.4519 -0.7291
   44CHL1  H27C 5736   2.510   0.185   8.966 -2.1881  0.2357  0.6073
   45CHL1    C3 5737   6.137   5.577   9.980  0.2737  0.5305 -0.0318
   45CHL1    H3 5738   6.244   5.561   9.959 -0.1820  0.7689 -2.8911
   45CHL1    O3 5739   6.112   5.564  10.119 -0.1593 -1.1900  0.1426
   45CHL1   H3' 5740   6.139   5.648  10.158 -0.2254 -2.0366  2.1345
   45CHL1    C4 5741   6.097   5.720   9.937 -0.8741  0.1303 -0.2921
   45CHL1   H4A 5742   5.990   5.729   9.966 -1.2782  0.4781 -1.7948
   45CHL1   H4B 5743   6.153   5.797   9.993 -0.0791  0.0618 -0.9705
   45CHL1    C5 5744   6.116   5.744   9.794 -0.5604  0.3920 -0.5209
   45CHL1    C6 5745   6.198   5.831   9.747  0.1008  0.1735  0.2329
   45CHL1    H6 5746   6.244   5.902   9.818 -2.4915  2.1628  0.0731
   45CHL1    C7 5747   6.221   5.856   9.596 -0.0458  0.2328 -0.3708
   45CHL1   H7A 5748   6.210   5.966   9.586  0.2029  0.1195 -2.4026
   45CHL1   H7B 5749   6.324   5.822   9.571 -0.3705  0.5249 -2.3036
   45CHL1    C8 5750   6.111   5.796   9.502  0.6088 -0.6071  0.6368
   45CHL1    H8 5751   6.157   5.781   9.402 -1.4882 -1.2763 -0.2828
   45CHL1   C14 5752   5.984   5.885   9.464 -0.1746 -0.4492 -0.1645
   45CHL1   H14 5753   5.926   5.904   9.557  0.1912  0.3455 -0.0909
   45CHL1   C15 5754   6.030   6.023   9.389  0.3039  0.7877  0.0337
   45CHL1  H15A 5755   5.942   6.085   9.415 -2.8319 -3.2222  0.0447
   45CHL1  H15B 5756   6.126   6.070   9.420 -0.8840  2.7358  0.9031
   45CHL1   C16 5757   6.029   5.985   9.247  0.3867  0.0747  0.1201
   45CHL1  H16A 5758   5.984   6.067   9.187 -0.1456 -1.1321 -1.2040
   45CHL1  H16B 5759   6.130   5.985   9.201  0.2174 -0.3223 -0.2616
   45CHL1   C17 5760   5.955   5.854   9.224  0.2771  0.3486  0.2986
   45CHL1   H17 5761   6.029   5.773   9.206  1.6370  1.7601 -0.8255
   45CHL1   C13 5762   5.895   5.821   9.361  0.7516  0.1854  0.3999
   45CHL1   C18 5763   5.750   5.880   9.361  0.3253 -0.1453 -0.2461
   45CHL1  H18A 5764   5.711   5.873   9.464 -0.9885  0.4384 -0.6820
   45CHL1  H18B 5765   5.754   5.986   9.329 -1.8363  0.4009  1.1577
   45CHL1  H18C 5766   5.678   5.827   9.295  4.0986 -1.7310 -3.5828
   45CHL1   C12 5767   5.868   5.667   9.394  1.1058  0.0111 -0.5054
   45CHL1  H12A 5768   5.800   5.670   9.483 -0.1655 -0.0516 -1.4414
   45CHL1  H12B 5769   5.809   5.613   9.317  0.6027  0.0742 -0.1726
   45CHL1   C11 5770   5.993   5.592   9.432  0.4061 -0.7297 -0.6661
   45CHL1  H11A 5771   5.972   5.484   9.449 -3.9360  0.3581  2.6768
   45CHL1  H11B 5772   6.050   5.596   9.336  1.6718  1.3367  0.1090
   45CHL1    C9 5773   6.075   5.657   9.546  0.1599 -0.9545 -0.5247
   45CHL1    H9 5774   6.174   5.607   9.541  0.9153  0.0836  2.4097
   45CHL1   C10 5775   6.032   5.646   9.700 -0.6301  0.3731  1.1624
   45CHL1   C19 5776   5.878   5.665   9.723  0.0060 -0.3516 -0.6285
   45CHL1  H19A 5777   5.849   5.770   9.700  0.7583  0.2426  0.9655
   45CHL1  H19B 5778   5.811   5.599   9.664 -2.0729  2.5689 -1.7784
   45CHL1  H19C 5779   5.858   5.640   9.830  0.7909 -2.0219 -0.8489
   45CHL1    C1 5780   6.065   5.494   9.750 -0.5773 -0.3786  0.0207
   45CHL1   H1A 5781   5.992   5.430   9.696  2.8688 -2.2858 -2.8098
   45CHL1   H1B 5782   6.168   5.461   9.723 -1.4565 -2.5237 -0.9483
   45CHL1    C2 5783   6.055   5.475   9.901  0.6674 -0.0070  0.2075
   45CHL1   H2A 5784   6.101   5.377   9.925 -0.8671 -1.1424 -1.2592
   45CHL1   H2B 5785   5.948   5.472   9.933  0.9409  0.4091  1.2187
   45CHL1   C20 5786   5.867   5.847   9.096  0.0682 -0.0554  0.5094
   45CHL1   H20 5787   5.779   5.916   9.099  0.1938  0.0780  1.8557
   45CHL1   C21 5788   5.808   5.706   9.070 -0.0318 -0.1963 -0.5275
   45CHL1  H21A 5789   5.886   5.627   9.062 -0.7890 -0.8293 -2.3286
   45CHL1  H21B 5790   5.765   5.709   8.967 -0.3983  1.1797 -0.3526
   45CHL1  H21C 5791   5.724   5.672   9.134  0.6534  2.5635  2.0542
   45CHL1   C22 5792   5.962   5.878   8.974  0.2040 -0.3381 -0.8797
   45CHL1  H22A 5793   6.037   5.956   9.002 -2.4076  1.3445  2.0376
   45CHL1  H22B 5794   6.009   5.778   8.967 -1.2800 -1.3529  2.1263
   45CHL1   C23 5795   5.899   5.924   8.844 -0.4439 -0.3371  0.0669
   45CHL1  H23A 5796   5.816   5.857   8.813  0.0636 -1.1967  0.5068
   45CHL1  H23B 5797   5.864   6.029   8.849  1.0028  0.5165 -3.8122
   45CHL1   C24 5798   6.000   5.930   8.734 -0.8748 -0.3301  0.1171
   45CHL1  H24A 5799   6.043   5.828   8.720 -0.9342 -0.0642 -2.3417
   45CHL1  H24B 5800   5.952   5.942   8.635 -2.0505 -3.9419  0.1042
   45CHL1   C25 5801   6.122   6.023   8.747  0.2615  0.1550 -0.4919
   45CHL1   H25 5802   6.184   5.994   8.834 -0.3843  0.1164 -0.0427
   45CHL1   C26 5803   6.209   6.004   8.620  0.0823 -0.1933  0.0049
   45CHL1  H26A 5804   6.149   6.033   8.531  1.5098  0.1378 -0.8999
   45CHL1  H26B 5805   6.304   6.062   8.621  1.0695 -1.7587  0.8326
   45CHL1  H26C 5806   6.245   5.900   8.606  1.3056  0.2343 -0.1725
   45CHL1   C27 5807   6.087   6.173   8.768  0.5201  0.0033  0.3395
   45CHL1  H27A 5808   6.015   6.209   8.691  3.0550  1.0192 -1.7630
   45CHL1  H27B 5809   6.044   6.181   8.869 -0.7669 -0.6967 -0.1373
   45CHL1  H27C 5810   6.181   6.232   8.753  0.0840  0.1688 -2.2247
   46CHL1    C3 5811   1.551   0.432  10.180 -0.8652  0.4311  0.4397
   46CHL1    H3 5812   1.623   0.514  10.163 -1.1802  0.9842  1.6756
   46CHL1    O3 5813   1.511   0.417  10.309  0.2356 -0.4978 -0.0629
   46CHL1   H3' 5814   1.595   0.415  10.355 -1.0233  0.0028  2.3936
   46CHL1    C4 5815   1.437   0.474  10.082  0.1196  0.2153  0.5058
   46CHL1   H4A 5816   1.352   0.405  10.103  1.1926 -0.4228  3.1284
   46CHL1   H4B 5817   1.405   0.571  10.126  2.7406  0.8627  1.1452
   46CHL1    C5 5818   1.453   0.477   9.929 -0.2666  0.3687  0.0962
   46CHL1    C6 5819   1.426   0.581   9.852 -0.3230 -0.2783  0.2439
   46CHL1    H6 5820   1.387   0.673   9.897 -2.7915 -0.7616 -0.7477
   46CHL1    C7 5821   1.439   0.581   9.700 -0.5347 -0.4143 -0.7022
   46CHL1   H7A 5822   1.349   0.633   9.661  0.1133  1.0768 -0.3073
   46CHL1   H7B 5823   1.527   0.644   9.674 -0.1905 -0.9434 -0.8282
   46CHL1    C8 5824   1.463   0.443   9.645 -0.1465 -0.2566 -0.1429
   46CHL1    H8 5825   1.368   0.386   9.655  0.3186 -1.0017  0.1724
   46CHL1   C14 5826   1.523   0.453   9.500  0.1668  0.7192 -0.1016
   46CHL1   H14 5827   1.630   0.483   9.507  0.8708 -1.4291 -0.9199
   46CHL1   C15 5828   1.463   0.544   9.395 -0.2739  0.3903  0.0146
   46CHL1  H15A 5829   1.356   0.546   9.425 -0.5551 -2.1927 -0.5801
   46CHL1  H15B 5830   1.491   0.650   9.412  0.0467 -0.0087  2.3649
   46CHL1   C16 5831   1.503   0.484   9.259  0.1815 -0.0271 -0.2786
   46CHL1  H16A 5832   1.416   0.476   9.191 -0.6345  1.9098  0.4693
   46CHL1  H16B 5833   1.581   0.545   9.208  0.4442  0.9842  1.2499
   46CHL1   C17 5834   1.569   0.346   9.286  1.0620  0.4736  0.0273
   46CHL1   H17 5835   1.679   0.352   9.294  1.2299 -2.5012  1.4678
   46CHL1   C13 5836   1.525   0.310   9.427  0.0115  0.7071 -0.1133
   46CHL1   C18 5837   1.383   0.243   9.425 -0.7812  0.7090  0.0551
   46CHL1  H18A 5838   1.313   0.305   9.365 -0.7089 -0.1008 -0.8718
   46CHL1  H18B 5839   1.388   0.147   9.371  1.5623  0.1952  1.0274
   46CHL1  H18C 5840   1.330   0.222   9.521 -0.1680  1.6536  0.6274
   46CHL1   C12 5841   1.632   0.234   9.505 -0.3305  0.8874 -0.3154
   46CHL1  H12A 5842   1.645   0.132   9.462  1.1981  1.4612 -1.2690
   46CHL1  H12B 5843   1.730   0.284   9.496 -0.5826  1.2708 -0.9965
   46CHL1   C11 5844   1.601   0.221   9.657 -0.0292 -0.7526  0.2714
   46CHL1  H11A 5845   1.523   0.144   9.676 -1.3407  0.9093  2.0734
   46CHL1  H11B 5846   1.691   0.189   9.713  0.0745  0.7519  1.0160
   46CHL1    C9 5847   1.560   0.359   9.726 -0.2541  0.6794  0.6887
   46CHL1    H9 5848   1.650   0.423   9.725  0.0023  0.3261  0.9789
   46CHL1   C10 5849   1.515   0.347   9.875  0.3198 -0.0580 -0.3225
   46CHL1   C19 5850   1.403   0.242   9.881  0.3207  0.0408 -0.7345
   46CHL1  H19A 5851   1.351   0.239   9.979  2.0395  0.5906  0.2219
   46CHL1  H19B 5852   1.322   0.265   9.808 -0.0101 -0.6270 -0.5914
   46CHL1  H19C 5853   1.428   0.136   9.857  0.8455 -0.3559  1.3552
   46CHL1    C1 5854   1.634   0.303   9.972 -0.1210  0.2665  0.0776
   46CHL1   H1A 5855   1.670   0.200   9.951  0.4282  0.0487  1.9199
   46CHL1   H1B 5856   1.721   0.372   9.968  0.4106 -0.4340 -1.7648
   46CHL1    C2 5857   1.605   0.297  10.123 -0.1295 -0.1675  0.3101
   46CHL1   H2A 5858   1.697   0.270  10.178 -1.2212 -1.0229  1.7862
   46CHL1   H2B 5859   1.526   0.220  10.140 -2.1159  1.5854 -0.4715
   46CHL1   C20 5860   1.540   0.253   9.170  0.2510 -0.4306 -0.7409
   46CHL1   H20 5861   1.433   0.223   9.169 -0.7744  2.8810 -0.2248
   46CHL1   C21 5862   1.614   0.118   9.199 -0.0039  0.3165  0.1381
   46CHL1  H21A 5863   1.718   0.146   9.226  0.1656 -0.2016  0.0512
   46CHL1  H21B 5864   1.620   0.060   9.104  2.6739  1.5361 -0.5250
   46CHL1  H21C 5865   1.560   0.062   9.278  1.3528 -0.0334  0.8594
   46CHL1   C22 5866   1.583   0.308   9.032  1.0371 -0.2659 -0.3684
   46CHL1  H22A 5867   1.561   0.232   8.955  0.6375  0.0536 -0.5737
   46CHL1  H22B 5868   1.515   0.396   9.026  1.9051  0.4462 -0.0729
   46CHL1   C23 5869   1.729   0.353   9.019  0.5432  0.0855 -0.1733
   46CHL1  H23A 5870   1.771   0.417   9.099  0.7487 -0.7466  0.4022
   46CHL1  H23B 5871   1.796   0.265   9.029  0.4164  0.1147  1.1018
   46CHL1   C24 5872   1.766   0.411   8.878  0.0414  0.4158 -0.7462
   46CHL1  H24A 5873   1.710   0.349   8.805 -1.9919 -0.0673  1.1067
   46CHL1  H24B 5874   1.722   0.512   8.865 -2.4859  0.4994  5.2903
   46CHL1   C25 5875   1.917   0.406   8.846  0.0221 -0.1793  0.1885
   46CHL1   H25 5876   1.943   0.298   8.846 -0.6453 -0.3776  2.0497
   46CHL1   C26 5877   1.954   0.462   8.706  0.1688  0.0479  0.4483
   46CHL1  H26A 5878   1.972   0.572   8.704 -0.5345  0.1498 -0.5072
   46CHL1  H26B 5879   2.054   0.422   8.678 -0.3292 -0.9108  0.0110
   46CHL1  H26C 5880   1.889   0.437   8.620  0.9410 -0.7339  0.0773
   46CHL1   C27 5881   1.999   0.465   8.961 -0.1661 -0.1096  0.3426
   46CHL1  H27A 5882   2.013   0.412   9.058 -1.6427  0.7958  1.0944
   46CHL1  H27B 5883   2.106   0.477   8.937  0.1026 -1.3453  0.8322
   46CHL1  H27C 5884   1.947   0.559   8.988 -1.2693 -0.9911  1.4478
   47CHL1    C3 5885   5.386   4.716  10.043 -0.1557  0.1298 -0.3684
   47CHL1    H3 5886   5.479   4.777  10.046  1.5829 -2.4367  0.9709
   47CHL1    O3 5887   5.337   4.707  10.175 -0.6465 -0.4765 -0.0956
   47CHL1   H3' 5888   5.242   4.692  10.169 -0.4602 -1.1826 -1.7328
   47CHL1    C4 5889   5.290   4.775   9.942 -0.1310  0.4364  0.6355
   47CHL1   H4A 5890   5.197   4.716   9.956  0.9152 -1.2269  0.9089
   47CHL1   H4B 5891   5.257   4.879   9.960  2.1752  1.4523 -0.6512
   47CHL1    C5 5892   5.330   4.759   9.794 -0.3452 -0.0546  0.1800
   47CHL1    C6 5893   5.336   4.861   9.710  0.3790 -0.6984 -0.0618
   47CHL1    H6 5894   5.315   4.963   9.745 -2.1518 -0.7350 -1.2696
   47CHL1    C7 5895   5.379   4.852   9.567 -0.4957 -0.0177 -0.3896
   47CHL1   H7A 5896   5.316   4.920   9.505 -2.3004 -1.0456  0.2340
   47CHL1   H7B 5897   5.488   4.875   9.561 -0.5827  0.7754  0.8358
   47CHL1    C8 5898   5.349   4.716   9.508  0.0974  0.2231  0.2402
   47CHL1    H8 5899   5.238   4.714   9.500  0.2024 -0.2950 -1.5208
   47CHL1   C14 5900   5.415   4.705   9.379  0.3454  0.4640 -0.0870
   47CHL1   H14 5901   5.524   4.695   9.394  0.2087  1.3852  1.8738
   47CHL1   C15 5902   5.395   4.825   9.271  0.2850  0.0351 -0.4386
   47CHL1  H15A 5903   5.291   4.860   9.283 -1.1388 -3.6097 -0.8475
   47CHL1  H15B 5904   5.482   4.889   9.298  1.2022 -1.5523  0.5344
   47CHL1   C16 5905   5.420   4.764   9.130  0.9466  0.5174 -0.4866
   47CHL1  H16A 5906   5.320   4.762   9.080  1.0134 -1.7973 -0.6440
   47CHL1  H16B 5907   5.497   4.800   9.059 -0.6730  2.0863 -1.5246
   47CHL1   C17 5908   5.454   4.614   9.166  0.5268 -0.4122  0.3451
   47CHL1   H17 5909   5.563   4.615   9.187  1.6929  0.4546 -4.4657
   47CHL1   C13 5910   5.383   4.577   9.301  0.7294  0.0894 -0.5923
   47CHL1   C18 5911   5.229   4.563   9.281 -0.6157 -0.1765 -0.2819
   47CHL1  H18A 5912   5.170   4.553   9.375 -0.1510  3.2754  0.5085
   47CHL1  H18B 5913   5.194   4.653   9.226 -0.2424  0.4454  0.4788
   47CHL1  H18C 5914   5.209   4.474   9.217 -0.2717 -0.0013 -0.6341
   47CHL1   C12 5915   5.437   4.458   9.378  0.3596 -0.5489  0.4391
   47CHL1  H12A 5916   5.386   4.366   9.342 -2.9239  1.0741  0.5827
   47CHL1  H12B 5917   5.547   4.449   9.390  0.1693 -0.9241  2.2040
   47CHL1   C11 5918   5.384   4.466   9.524 -0.2875 -0.0423 -0.0182
   47CHL1  H11A 5919   5.276   4.445   9.538 -0.2680  0.9762  2.0803
   47CHL1  H11B 5920   5.446   4.388   9.574 -0.4400  0.6473  1.2885
   47CHL1    C9 5921   5.405   4.604   9.599 -0.4212 -0.8265  0.0881
   47CHL1    H9 5922   5.515   4.620   9.603 -0.4067 -1.1723  1.3379
   47CHL1   C10 5923   5.351   4.614   9.749  0.1211  0.0942  0.4410
   47CHL1   C19 5924   5.214   4.531   9.758  0.2871  0.0428 -0.2260
   47CHL1  H19A 5925   5.229   4.422   9.746  1.4597  0.3039 -1.4327
   47CHL1  H19B 5926   5.176   4.540   9.861 -0.6197  1.2842 -0.6465
   47CHL1  H19C 5927   5.135   4.568   9.689  0.5690 -0.5884 -0.9073
   47CHL1    C1 5928   5.457   4.561   9.845 -0.4500  0.9061 -0.3735
   47CHL1   H1A 5929   5.473   4.454   9.819  2.7750  1.5630 -1.5483
   47CHL1   H1B 5930   5.560   4.603   9.837  0.6631 -1.6016 -0.2436
   47CHL1    C2 5931   5.415   4.572   9.994  0.2175  0.0255 -0.0291
   47CHL1   H2A 5932   5.502   4.525  10.045  0.2141 -0.8795 -0.8214
   47CHL1   H2B 5933   5.332   4.501  10.009  0.9427 -0.7571  0.3894
   47CHL1   C20 5934   5.447   4.510   9.054 -0.5109 -0.0592  0.4812
   47CHL1   H20 5935   5.442   4.409   9.099  1.0715  0.8057  2.7527
   47CHL1   C21 5936   5.567   4.515   8.962 -0.3187  0.1801  0.1620
   47CHL1  H21A 5937   5.582   4.617   8.922  1.9865 -0.0075  0.4200
   47CHL1  H21B 5938   5.562   4.443   8.878 -1.7478  0.0361  0.3378
   47CHL1  H21C 5939   5.655   4.481   9.021 -0.4604  0.2569  0.4197
   47CHL1   C22 5940   5.324   4.527   8.950 -0.1849  0.2969  0.3326
   47CHL1  H22A 5941   5.236   4.557   9.011 -0.6854 -1.1028  0.3324
   47CHL1  H22B 5942   5.344   4.615   8.885 -0.4030 -0.1882 -0.4146
   47CHL1   C23 5943   5.282   4.403   8.869  0.4702  0.3993 -0.2068
   47CHL1  H23A 5944   5.377   4.363   8.828  0.2008 -0.2244 -0.2387
   47CHL1  H23B 5945   5.241   4.331   8.943  1.0100 -0.1126 -0.3956
   47CHL1   C24 5946   5.172   4.433   8.769  0.7577  0.6178  1.0699
   47CHL1  H24A 5947   5.084   4.483   8.816  0.1761 -0.2457  0.9120
   47CHL1  H24B 5948   5.217   4.500   8.692 -1.7778  1.7212  0.4336
   47CHL1   C25 5949   5.108   4.310   8.716  0.2174 -0.3315 -0.2446
   47CHL1   H25 5950   5.177   4.224   8.705 -0.0013 -0.8048  1.7049
   47CHL1   C26 5951   4.998   4.272   8.810  0.4958 -0.6638  0.0858
   47CHL1  H26A 5952   4.952   4.173   8.789  0.5241 -0.9158  1.1764
   47CHL1  H26B 5953   4.914   4.343   8.794  0.1884 -1.2093 -0.8287
   47CHL1  H26C 5954   5.018   4.271   8.919 -1.2164  0.0290  0.4397
   47CHL1   C27 5955   5.052   4.327   8.574  0.5830 -0.1615 -0.5709
   47CHL1  H27A 5956   4.987   4.417   8.584  2.7441  1.3997  0.2567
   47CHL1  H27B 5957   5.142   4.349   8.514 -0.6175 -1.2629 -2.8826
   47CHL1  H27C 5958   4.991   4.246   8.529 -1.6192  1.0500  0.0468
   48CHL1    C3 5959   2.664   4.105  10.035 -0.5488 -0.1790  0.1404
   48CHL1    H3 5960   2.678   4.215  10.028  0.7186 -0.3616 -0.4791
   48CHL1    O3 5961   2.632   4.066  10.167 -0.0511 -0.3772 -0.0527
   48CHL1   H3' 5962   2.697   3.997  10.180  1.0563  0.5176 -0.6742
   48CHL1    C4 5963   2.559   4.047   9.945 -0.2319  0.2708  0.1384
   48CHL1   H4A 5964   2.552   3.937   9.963  0.2265 -0.1828 -2.1933
   48CHL1   H4B 5965   2.462   4.088   9.981 -0.6045  0.2202 -0.7811
   48CHL1    C5 5966   2.593   4.080   9.804 -0.8152  0.0476  0.6254
   48CHL1    C6 5967   2.518   4.162   9.729  0.1220 -0.4439 -0.1531
   48CHL1    H6 5968   2.426   4.204   9.772  1.3253  1.2884  0.8629
   48CHL1    C7 5969   2.546   4.194   9.584 -0.8093 -0.3525  0.3051
   48CHL1   H7A 5970   2.452   4.201   9.524 -0.5872  0.2791  0.0241
   48CHL1   H7B 5971   2.600   4.289   9.570  0.0741 -1.2996 -4.7417
   48CHL1    C8 5972   2.647   4.100   9.518  0.2928 -0.8645 -0.5534
   48CHL1    H8 5973   2.597   4.001   9.508  0.5985 -1.2545  1.4088
   48CHL1   C14 5974   2.680   4.152   9.378  0.2505  0.0920  0.3435
   48CHL1   H14 5975   2.721   4.254   9.391  0.0234  0.3848 -1.0554
   48CHL1   C15 5976   2.566   4.170   9.275 -0.5712 -0.1977  0.1499
   48CHL1  H15A 5977   2.499   4.082   9.283  0.6997 -1.1968  0.1311
   48CHL1  H15B 5978   2.509   4.263   9.297 -0.8993 -0.3002 -0.2683
   48CHL1   C16 5979   2.646   4.171   9.143  0.7862 -0.7767 -0.7143
   48CHL1  H16A 5980   2.591   4.102   9.075 -0.0689 -1.1846  0.3827
   48CHL1  H16B 5981   2.651   4.273   9.100 -1.5932 -0.3391 -0.0685
   48CHL1   C17 5982   2.788   4.119   9.163 -0.6104 -0.3499  0.3130
   48CHL1   H17 5983   2.849   4.212   9.170  1.4754 -1.4443 -1.9029
   48CHL1   C13 5984   2.782   4.060   9.306  0.6544 -0.2324  0.6665
   48CHL1   C18 5985   2.726   3.914   9.293 -0.1811  0.0758 -0.0252
   48CHL1  H18A 5986   2.641   3.908   9.222  1.5325 -1.1901 -2.0974
   48CHL1  H18B 5987   2.804   3.849   9.250 -0.0961 -0.3837  0.8013
   48CHL1  H18C 5988   2.702   3.868   9.392  0.2672 -0.2731 -0.0743
   48CHL1   C12 5989   2.913   4.069   9.397 -0.2177 -0.8289 -0.7530
   48CHL1  H12A 5990   3.000   4.008   9.365  2.0276  0.5410  2.1939
   48CHL1  H12B 5991   2.941   4.177   9.402 -0.3566 -0.7342 -1.8333
   48CHL1   C11 5992   2.879   4.018   9.537 -0.2509 -0.7093  0.4502
   48CHL1  H11A 5993   2.871   3.907   9.532  0.2820 -0.7243 -0.2633
   48CHL1  H11B 5994   2.972   4.032   9.595 -0.9112  1.5432  1.0361
   48CHL1    C9 5995   2.763   4.081   9.612  1.0263 -0.3347 -0.3700
   48CHL1    H9 5996   2.798   4.185   9.631  0.0182  0.1704 -1.1914
   48CHL1   C10 5997   2.729   4.018   9.751 -0.4769 -0.1380  0.1473
   48CHL1   C19 5998   2.708   3.867   9.737 -0.2130 -0.0567 -0.6358
   48CHL1  H19A 5999   2.638   3.840   9.654 -0.0088  0.7748 -1.0870
   48CHL1  H19B 6000   2.804   3.817   9.715 -0.2422  0.4764 -2.0660
   48CHL1  H19C 6001   2.674   3.818   9.831  0.7521  1.5344  0.5808
   48CHL1    C1 6002   2.846   4.052   9.849 -0.0485  0.2285 -0.3175
   48CHL1   H1A 6003   2.941   3.998   9.829 -1.0125 -1.8018  0.3660
   48CHL1   H1B 6004   2.867   4.160   9.831  1.1949 -0.3317 -2.7078
   48CHL1    C2 6005   2.798   4.033   9.999  0.0194  0.0157 -0.2482
   48CHL1   H2A 6006   2.880   4.083  10.055 -0.8157  1.2387 -0.0912
   48CHL1   H2B 6007   2.796   3.922  10.011 -1.2884  0.0034 -0.4763
   48CHL1   C20 6008   2.843   4.025   9.050 -0.6671 -0.1780 -0.5329
   48CHL1   H20 6009   2.778   3.935   9.042  0.5630 -1.5520  2.9861
   48CHL1   C21 6010   2.979   3.977   9.086 -0.0334  0.4962 -1.1357
   48CHL1  H21A 6011   3.030   3.938   8.995  0.1937  0.4448 -0.9878
   48CHL1  H21B 6012   2.988   3.892   9.157  1.0892  0.5960 -1.1346
   48CHL1  H21C 6013   3.042   4.057   9.131 -1.3351  0.0349  1.7657
   48CHL1   C22 6014   2.859   4.103   8.918  0.4445  0.5096  0.6326
   48CHL1  H22A 6015   2.803   4.199   8.915  1.2100  0.9615  0.6289
   48CHL1  H22B 6016   2.965   4.132   8.904  0.5731  0.1233  0.7717
   48CHL1   C23 6017   2.795   4.022   8.804 -0.0413  0.7938 -0.0873
   48CHL1  H23A 6018   2.827   3.916   8.794 -2.9088 -0.1487 -0.3497
   48CHL1  H23B 6019   2.687   4.026   8.832 -0.0811  1.5615 -0.3241
   48CHL1   C24 6020   2.815   4.089   8.665 -0.4841  0.1751 -0.2412
   48CHL1  H24A 6021   2.783   4.195   8.658  0.4015  0.4464 -0.2887
   48CHL1  H24B 6022   2.924   4.095   8.649 -0.4929 -0.0888 -0.4084
   48CHL1   C25 6023   2.748   4.018   8.553  0.3209  0.0447  0.2951
   48CHL1   H25 6024   2.745   3.908   8.569 -1.8372 -0.1981 -1.3319
   48CHL1   C26 6025   2.602   4.067   8.540 -0.4748 -0.1213  0.0703
   48CHL1  H26A 6026   2.552   4.005   8.462  0.8858 -4.2070  2.1665
   48CHL1  H26B 6027   2.549   4.040   8.633  0.1816 -2.6337 -0.2276
   48CHL1  H26C 6028   2.572   4.172   8.517 -0.3116  0.0050  0.4191
   48CHL1   C27 6029   2.823   4.037   8.416 -0.3581  0.1850  0.0302
   48CHL1  H27A 6030   2.928   4.003   8.409 -0.8346 -0.9817 -2.9932
   48CHL1  H27B 6031   2.769   3.965   8.351 -2.4707  0.2784  1.5428
   48CHL1  H27C 6032   2.818   4.141   8.376  4.7101  1.3635  1.7688
   49CHL1    C3 6033   1.391   1.996   9.995  0.2646  0.2678  0.6197
   49CHL1    H3 6034   1.428   1.892   9.983 -1.9319 -0.3222 -1.8710
   49CHL1    O3 6035   1.411   2.045  10.123 -0.4171 -0.3577  0.0345
   49CHL1   H3' 6036   1.353   2.122  10.119  0.6642  0.4329 -1.3707
   49CHL1    C4 6037   1.463   2.090   9.894 -0.2641  0.6654  0.3840
   49CHL1   H4A 6038   1.423   2.193   9.903  1.9623  1.4882  1.7290
   49CHL1   H4B 6039   1.573   2.094   9.911 -0.1883  1.2821 -0.2484
   49CHL1    C5 6040   1.432   2.037   9.751  0.5659 -0.8491  0.3697
   49CHL1    C6 6041   1.532   2.012   9.667  0.2616  0.0459  0.3429
   49CHL1    H6 6042   1.638   2.029   9.692  0.5325  0.5512 -1.0473
   49CHL1    C7 6043   1.527   1.968   9.520 -0.1109  0.1174  0.0445
   49CHL1   H7A 6044   1.608   2.016   9.462  0.1351 -0.2070  0.1215
   49CHL1   H7B 6045   1.529   1.857   9.522 -0.8349  0.0856 -0.6404
   49CHL1    C8 6046   1.381   2.008   9.467 -0.1511  0.3766  0.6139
   49CHL1    H8 6047   1.381   2.118   9.455  0.5960  0.1614 -1.9509
   49CHL1   C14 6048   1.368   1.938   9.336 -0.0985 -0.8639  0.4955
   49CHL1   H14 6049   1.368   1.829   9.361  2.8375 -0.7024  1.5394
   49CHL1   C15 6050   1.488   1.959   9.229  0.8424  0.0572 -0.0980
   49CHL1  H15A 6051   1.505   2.069   9.229  0.0898  0.1845 -0.7895
   49CHL1  H15B 6052   1.588   1.912   9.233  1.4397  1.3650  2.4321
   49CHL1   C16 6053   1.410   1.925   9.096 -0.1855 -0.7518 -0.0622
   49CHL1  H16A 6054   1.415   2.014   9.029  0.4480 -1.4005 -0.9036
   49CHL1  H16B 6055   1.470   1.846   9.045 -0.4525 -0.4932 -0.7816
   49CHL1   C17 6056   1.259   1.891   9.130 -0.6865 -0.0046 -0.0019
   49CHL1   H17 6057   1.244   1.786   9.163 -2.4320 -0.4211 -1.9375
   49CHL1   C13 6058   1.234   1.964   9.262  0.3749  0.3628  0.1642
   49CHL1   C18 6059   1.207   2.118   9.232 -0.1926  0.9958  0.6374
   49CHL1  H18A 6060   1.302   2.146   9.183 -0.8759  0.2298 -1.1960
   49CHL1  H18B 6061   1.118   2.136   9.167 -0.2258  0.8011  0.6291
   49CHL1  H18C 6062   1.199   2.172   9.329  0.3028 -2.9261  3.0786
   49CHL1   C12 6063   1.128   1.907   9.353 -0.2024  0.1378  0.6931
   49CHL1  H12A 6064   1.023   1.903   9.318  0.0357 -3.2718 -0.0486
   49CHL1  H12B 6065   1.147   1.799   9.374  2.7991  0.7434  1.6835
   49CHL1   C11 6066   1.138   1.966   9.495  0.5533  0.5463 -0.2809
   49CHL1  H11A 6067   1.109   2.073   9.488 -1.8326  0.0887  1.2069
   49CHL1  H11B 6068   1.059   1.915   9.555 -0.9746 -0.4056 -2.9461
   49CHL1    C9 6069   1.276   1.958   9.566  0.2685 -0.1433 -0.8211
   49CHL1    H9 6070   1.303   1.851   9.573  1.1706  0.1785  1.9749
   49CHL1   C10 6071   1.286   2.021   9.711  0.0084  0.3082 -0.3231
   49CHL1   C19 6072   1.220   2.160   9.700  0.4430 -0.5278 -0.2042
   49CHL1  H19A 6073   1.241   2.221   9.790  0.1305  2.2531 -1.8777
   49CHL1  H19B 6074   1.266   2.215   9.614 -0.1579 -0.1138 -0.2713
   49CHL1  H19C 6075   1.109   2.166   9.700  0.4452 -0.3556  0.7893
   49CHL1    C1 6076   1.210   1.932   9.814 -0.6826  0.1843 -0.2726
   49CHL1   H1A 6077   1.100   1.943   9.803 -0.6367 -0.0224 -0.9511
   49CHL1   H1B 6078   1.232   1.826   9.788  2.4147  0.3856  1.1266
   49CHL1    C2 6079   1.240   1.975   9.960 -0.6357  0.4310 -0.2791
   49CHL1   H2A 6080   1.206   1.889  10.021  0.5920  1.1665  1.5363
   49CHL1   H2B 6081   1.180   2.067   9.979 -0.0138  0.6366  0.7841
   49CHL1   C20 6082   1.164   1.905   9.013 -0.0603  0.3850 -0.2778
   49CHL1   H20 6083   1.061   1.930   9.047  0.4182  1.2625  0.5631
   49CHL1   C21 6084   1.156   1.765   8.953  0.8858 -0.9247  0.5353
   49CHL1  H21A 6085   1.104   1.774   8.855  1.5792 -1.9979  0.0362
   49CHL1  H21B 6086   1.089   1.712   9.023 -1.9467  0.3586 -1.0444
   49CHL1  H21C 6087   1.258   1.720   8.944  1.9570  1.3856  0.6054
   49CHL1   C22 6088   1.184   2.014   8.908  0.2339 -0.1864 -0.2026
   49CHL1  H22A 6089   1.212   2.111   8.954  0.7027 -0.6287  0.4636
   49CHL1  H22B 6090   1.273   1.984   8.848  0.7468  0.6451  0.1239
   49CHL1   C23 6091   1.065   2.048   8.818 -0.3392  0.0569  0.8911
   49CHL1  H23A 6092   1.032   1.960   8.759  0.5202  0.9652 -1.0586
   49CHL1  H23B 6093   0.983   2.095   8.876 -1.6277  1.8756 -2.1612
   49CHL1   C24 6094   1.091   2.147   8.701  0.5484 -1.5822  0.2051
   49CHL1  H24A 6095   1.157   2.109   8.620 -0.7571 -0.6860 -1.3387
   49CHL1  H24B 6096   0.992   2.160   8.652  0.0797  1.2986  1.7028
   49CHL1   C25 6097   1.129   2.292   8.748  0.2350  0.1044  0.1209
   49CHL1   H25 6098   1.237   2.283   8.772  0.6383  1.6254 -0.9175
   49CHL1   C26 6099   1.130   2.389   8.630 -0.0964 -0.6403 -0.7967
   49CHL1  H26A 6100   1.166   2.487   8.668  0.6984 -1.8925  1.9558
   49CHL1  H26B 6101   1.201   2.361   8.549  2.7381  2.3563  0.3738
   49CHL1  H26C 6102   1.026   2.392   8.593  0.2160  1.3654 -1.6668
   49CHL1   C27 6103   1.042   2.340   8.868 -0.1130  0.0989 -0.6991
   49CHL1  H27A 6104   1.048   2.275   8.957 -0.9262  0.8110 -0.1101
   49CHL1  H27B 6105   1.059   2.445   8.900 -0.0108 -0.3797  0.9232
   49CHL1  H27C 6106   0.934   2.334   8.845 -0.9253 -2.6514  3.0551
   50CHL1    C3 6107   6.073   1.520  10.122 -0.7686 -0.4459 -0.6013
   50CHL1    H3 6108   6.041   1.616  10.075 -1.2984 -0.6651 -0.6936
   50CHL1    O3 6109   6.082   1.540  10.262  0.6156  0.0259 -0.3779
   50CHL1   H3' 6110   6.046   1.458  10.298 -1.1197  0.0654 -1.8662
   50CHL1    C4 6111   5.975   1.411  10.089 -0.4411  0.0820  0.1445
   50CHL1   H4A 6112   5.999   1.323  10.152  0.7098  0.7168  0.6156
   50CHL1   H4B 6113   5.878   1.452  10.124  1.1609  2.4335  2.1336
   50CHL1    C5 6114   5.968   1.383   9.942 -0.5400 -0.0824 -0.1511
   50CHL1    C6 6115   5.853   1.405   9.868  0.2854  0.5788  0.4631
   50CHL1    H6 6116   5.759   1.441   9.912 -0.3609  1.0065 -1.1691
   50CHL1    C7 6117   5.838   1.369   9.722  0.2072 -0.0480  0.5739
   50CHL1   H7A 6118   5.751   1.302   9.705  0.6652 -0.9929  1.7598
   50CHL1   H7B 6119   5.824   1.459   9.660 -1.8222  0.2638  1.4069
   50CHL1    C8 6120   5.959   1.283   9.676 -0.2771  0.1417 -1.0597
   50CHL1    H8 6121   5.943   1.187   9.729  0.1299  0.8128  0.3246
   50CHL1   C14 6122   5.957   1.266   9.524 -0.1871 -0.2008 -0.6031
   50CHL1   H14 6123   5.983   1.366   9.484  2.3124 -2.0286 -4.1101
   50CHL1   C15 6124   5.822   1.226   9.454  0.0754 -0.1353 -0.2635
   50CHL1  H15A 6125   5.771   1.163   9.530  2.3695 -2.0687 -0.1767
   50CHL1  H15B 6126   5.768   1.316   9.419  2.2266  0.1593 -3.2315
   50CHL1   C16 6127   5.860   1.154   9.323 -0.1506 -0.7873 -0.4170
   50CHL1  H16A 6128   5.836   1.045   9.318 -2.5402 -0.3299 -0.3200
   50CHL1  H16B 6129   5.806   1.205   9.240 -2.1445 -1.6614  0.2770
   50CHL1   C17 6130   6.020   1.162   9.322  0.0459  0.2497 -0.2543
   50CHL1   H17 6131   6.046   1.263   9.281 -0.8576  0.6139  0.0467
   50CHL1   C13 6132   6.070   1.180   9.471 -0.4367  0.1907  0.5426
   50CHL1   C18 6133   6.055   1.049   9.559  0.7035 -0.4518  0.0884
   50CHL1  H18A 6134   6.122   1.050   9.647  1.2846  0.3269 -0.3470
   50CHL1  H18B 6135   5.949   1.032   9.588  0.6020 -0.4844 -0.2902
   50CHL1  H18C 6136   6.069   0.961   9.493 -0.2703 -1.3887  1.1047
   50CHL1   C12 6137   6.200   1.262   9.498 -0.1083  0.2089 -0.0344
   50CHL1  H12A 6138   6.296   1.219   9.463  0.0876  1.1388 -0.6573
   50CHL1  H12B 6139   6.197   1.355   9.439 -0.9866  0.5574  0.5390
   50CHL1   C11 6140   6.218   1.289   9.649 -0.2735 -0.3556  0.2120
   50CHL1  H11A 6141   6.242   1.193   9.700 -0.8581  0.0779  1.3431
   50CHL1  H11B 6142   6.309   1.351   9.663 -0.2250 -0.9486  3.2694
   50CHL1    C9 6143   6.095   1.346   9.720 -0.0071 -0.0414  0.4021
   50CHL1    H9 6144   6.071   1.449   9.687 -2.1609 -0.2992  0.9926
   50CHL1   C10 6145   6.106   1.345   9.877  0.4063 -1.1091 -0.0195
   50CHL1   C19 6146   6.155   1.210   9.937  0.0533  0.8973 -0.0379
   50CHL1  H19A 6147   6.149   1.204  10.048  1.8067  0.7286  0.0783
   50CHL1  H19B 6148   6.090   1.129   9.896  0.0379  0.4010  0.9302
   50CHL1  H19C 6149   6.263   1.203   9.912  0.4029  0.6399  1.4116
   50CHL1    C1 6150   6.204   1.459   9.917 -0.3122 -0.0089  0.1895
   50CHL1   H1A 6151   6.304   1.435   9.875  0.0245 -0.1220  1.0324
   50CHL1   H1B 6152   6.163   1.550   9.868  1.8278  0.5900 -0.6257
   50CHL1    C2 6153   6.211   1.483  10.066  0.0616 -0.3265 -0.0150
   50CHL1   H2A 6154   6.280   1.567  10.091 -0.7394  1.1509 -2.4436
   50CHL1   H2B 6155   6.256   1.392  10.111 -2.0501 -0.4164  2.0664
   50CHL1   C20 6156   6.084   1.059   9.223 -0.2281  0.8812  0.7192
   50CHL1   H20 6157   6.042   0.958   9.242 -0.5468  0.6963 -0.8301
   50CHL1   C21 6158   6.230   1.061   9.250  0.1673  0.1967  0.7039
   50CHL1  H21A 6159   6.258   1.020   9.349 -1.0432  1.5498  1.6393
   50CHL1  H21B 6160   6.257   1.167   9.230 -1.4735  0.2983 -1.3236
   50CHL1  H21C 6161   6.287   1.001   9.176  0.0259  1.9320 -0.8977
   50CHL1   C22 6162   6.036   1.088   9.083 -0.5881  0.3160  0.8893
   50CHL1  H22A 6163   5.926   1.101   9.073 -0.7680  0.1528  2.4699
   50CHL1  H22B 6164   6.086   1.185   9.060 -0.8160  0.6023  1.5691
   50CHL1   C23 6165   6.072   0.979   8.975  0.4416  0.4275  0.2295
   50CHL1  H23A 6166   6.178   0.948   8.977  0.4243  0.3783  0.4293
   50CHL1  H23B 6167   6.022   0.888   9.015  1.6527 -0.0498  0.7024
   50CHL1   C24 6168   6.017   1.004   8.834 -0.9985  0.4108  0.3832
   50CHL1  H24A 6169   5.911   1.034   8.840 -0.6086  1.8633  0.3731
   50CHL1  H24B 6170   6.077   1.082   8.783  0.6852 -1.4257 -0.5914
   50CHL1   C25 6171   6.029   0.885   8.732  0.5196 -0.6519  0.2726
   50CHL1   H25 6172   6.025   0.789   8.787 -2.3007 -1.9049 -1.9409
   50CHL1   C26 6173   5.916   0.900   8.631  0.1033  0.4622 -0.2344
   50CHL1  H26A 6174   5.818   0.880   8.680 -1.1397  0.5831 -2.5310
   50CHL1  H26B 6175   5.916   1.002   8.588 -2.4598  0.7581  0.2817
   50CHL1  H26C 6176   5.934   0.837   8.542  0.7392  0.1094  0.1350
   50CHL1   C27 6177   6.155   0.911   8.636  0.0959 -0.5220 -0.1766
   50CHL1  H27A 6178   6.174   0.826   8.567 -0.1967 -0.8681  0.1644
   50CHL1  H27B 6179   6.145   0.996   8.567  0.8802 -2.2415 -2.5274
   50CHL1  H27C 6180   6.244   0.932   8.699 -0.6035 -0.9424  0.9947
   51CHL1    C3 6181   2.067   5.847  10.357 -0.7611  0.0866  0.3397
   51CHL1    H3 6182   2.137   5.933  10.366 -1.3953  0.5426  1.0536
   51CHL1    O3 6183   2.060   5.820  10.497  0.1041  0.6747 -0.1757
   51CHL1   H3' 6184   2.081   5.902  10.543  1.2613  0.9670 -1.1920
   51CHL1    C4 6185   1.933   5.888  10.310  0.3611  0.3428 -0.1139
   51CHL1   H4A 6186   1.855   5.812  10.331  0.6664  0.3326  1.0581
   51CHL1   H4B 6187   1.903   5.967  10.382  2.5268 -0.5737  1.9761
   51CHL1    C5 6188   1.925   5.928  10.159  0.9565 -0.6206  0.1694
   51CHL1    C6 6189   1.869   6.046  10.118  0.7049  0.3065 -0.6730
   51CHL1    H6 6190   1.816   6.095  10.200  1.6847  0.7799 -0.3109
   51CHL1    C7 6191   1.847   6.088   9.981 -0.0199  0.5332  0.0824
   51CHL1   H7A 6192   1.738   6.110   9.972 -0.2329 -0.5286 -0.1090
   51CHL1   H7B 6193   1.906   6.179   9.957 -0.0187  0.3815 -0.4884
   51CHL1    C8 6194   1.893   5.987   9.875  0.3342 -0.5232 -0.0807
   51CHL1    H8 6195   1.805   5.923   9.856  0.2049 -1.6381  3.5206
   51CHL1   C14 6196   1.931   6.053   9.743  0.0764 -0.3849 -0.2139
   51CHL1   H14 6197   2.013   6.124   9.769 -1.4289  1.0324  0.8439
   51CHL1   C15 6198   1.831   6.145   9.680  0.2356 -0.2123 -0.5013
   51CHL1  H15A 6199   1.733   6.091   9.683  0.3396 -0.6776 -3.1114
   51CHL1  H15B 6200   1.823   6.247   9.722 -1.5957 -0.3861 -0.3217
   51CHL1   C16 6201   1.880   6.156   9.547  0.7321  0.1754  0.2323
   51CHL1  H16A 6202   1.806   6.133   9.467  2.7797 -1.1124 -1.4159
   51CHL1  H16B 6203   1.921   6.254   9.515 -0.4737  0.1430 -1.5545
   51CHL1   C17 6204   1.996   6.051   9.524 -0.5403  0.5695  0.2095
   51CHL1   H17 6205   2.087   6.108   9.555  2.0544 -2.7463 -0.7195
   51CHL1   C13 6206   1.977   5.954   9.630 -0.0164  0.2391  0.5967
   51CHL1   C18 6207   1.864   5.850   9.590  0.0711  0.1656 -0.3762
   51CHL1  H18A 6208   1.897   5.784   9.507  0.9462 -1.1697  0.9799
   51CHL1  H18B 6209   1.831   5.781   9.671  1.1012 -2.4829 -2.0742
   51CHL1  H18C 6210   1.780   5.915   9.559  0.3817  0.7751  0.0304
   51CHL1   C12 6211   2.093   5.884   9.688 -0.1257  0.3471  0.0133
   51CHL1  H12A 6212   2.132   5.813   9.612 -1.1446  0.3301 -0.5132
   51CHL1  H12B 6213   2.176   5.956   9.706  0.1862 -0.2208  0.9167
   51CHL1   C11 6214   2.072   5.805   9.817  0.0810  0.0600 -0.2035
   51CHL1  H11A 6215   2.007   5.718   9.792  1.4657 -0.9820 -0.2962
   51CHL1  H11B 6216   2.166   5.756   9.849  0.8798 -0.3880 -3.0078
   51CHL1    C9 6217   2.013   5.895   9.930 -0.4745 -0.5585  0.3637
   51CHL1    H9 6218   2.101   5.962   9.941  0.2927 -1.3973 -0.4901
   51CHL1   C10 6219   1.995   5.826  10.068  0.1518  0.2436  0.3905
   51CHL1   C19 6220   1.911   5.701  10.044 -0.1616 -0.5827  0.0224
   51CHL1  H19A 6221   1.972   5.642   9.973  0.5918  2.0105 -1.6217
   51CHL1  H19B 6222   1.885   5.638  10.132 -1.3670  0.5538  0.5044
   51CHL1  H19C 6223   1.815   5.739  10.004 -0.5125  1.0336  2.2144
   51CHL1    C1 6224   2.136   5.783  10.124 -0.3001  0.4010 -0.0434
   51CHL1   H1A 6225   2.182   5.705  10.059  0.9942  1.5675 -0.5760
   51CHL1   H1B 6226   2.213   5.861  10.107  0.3208 -0.3346 -0.7132
   51CHL1    C2 6227   2.129   5.738  10.268 -0.1169 -0.4084  0.1002
   51CHL1   H2A 6228   2.232   5.710  10.300  0.1011 -1.7109 -1.6550
   51CHL1   H2B 6229   2.065   5.648  10.271  0.2674 -0.6836  0.1039
   51CHL1   C20 6230   2.016   6.011   9.372  0.1187 -0.4389  0.0433
   51CHL1   H20 6231   1.914   5.984   9.337  1.5405 -2.4719 -2.9116
   51CHL1   C21 6232   2.109   5.887   9.348  0.2850  0.2734  0.3874
   51CHL1  H21A 6233   2.103   5.868   9.239 -0.0752  1.8561  0.1013
   51CHL1  H21B 6234   2.093   5.794   9.406 -0.6019  0.3353  0.2538
   51CHL1  H21C 6235   2.216   5.912   9.366  1.2715  0.5940 -4.5357
   51CHL1   C22 6236   2.057   6.127   9.280  0.0570 -0.6814  0.2240
   51CHL1  H22A 6237   1.978   6.205   9.278 -1.2079 -1.9173 -1.5202
   51CHL1  H22B 6238   2.155   6.161   9.317  2.2525 -3.6199 -2.3570
   51CHL1   C23 6239   2.084   6.092   9.131 -0.2203  0.0230 -0.7916
   51CHL1  H23A 6240   2.174   6.028   9.130  1.2113  1.7926  2.0020
   51CHL1  H23B 6241   1.994   6.036   9.096 -0.3778 -0.5243  0.4229
   51CHL1   C24 6242   2.124   6.216   9.050 -0.3688  0.1419  0.6922
   51CHL1  H24A 6243   2.057   6.302   9.076 -0.2130  0.6604 -0.5850
   51CHL1  H24B 6244   2.227   6.243   9.080 -0.7742  1.8550  0.6589
   51CHL1   C25 6245   2.125   6.183   8.898 -0.0728  0.0709 -0.5655
   51CHL1   H25 6246   2.030   6.133   8.869 -0.1467 -1.8004  2.4436
   51CHL1   C26 6247   2.140   6.305   8.810  0.2361 -0.6814  0.4978
   51CHL1  H26A 6248   2.065   6.382   8.840 -0.2318 -0.8361 -0.2457
   51CHL1  H26B 6249   2.235   6.358   8.829 -0.6665  0.6020  1.6128
   51CHL1  H26C 6250   2.125   6.286   8.701  2.5159 -0.4928  0.1101
   51CHL1   C27 6251   2.240   6.090   8.858 -0.2187  0.6450 -0.3371
   51CHL1  H27A 6252   2.206   5.992   8.897 -1.4925  1.6354  1.1782
   51CHL1  H27B 6253   2.250   6.070   8.749 -0.9467 -4.8931  0.2963
   51CHL1  H27C 6254   2.336   6.116   8.907 -1.4287  1.1573  1.9173
   52CHL1    C3 6255   3.864   3.297   9.827 -0.2897  0.3588 -0.3087
   52CHL1    H3 6256   3.924   3.206   9.846 -1.4948 -0.1205  1.3962
   52CHL1    O3 6257   3.843   3.348   9.957 -0.3865  0.8741  0.1911
   52CHL1   H3' 6258   3.753   3.320   9.975 -0.6161  0.6467 -1.1725
   52CHL1    C4 6259   3.942   3.398   9.749  0.1914 -0.4218  0.4255
   52CHL1   H4A 6260   3.899   3.501   9.755  1.5767  0.2665 -0.6990
   52CHL1   H4B 6261   4.042   3.410   9.796 -0.3587  2.1568  1.1118
   52CHL1    C5 6262   3.954   3.355   9.600 -0.1884 -0.5568 -0.1822
   52CHL1    C6 6263   4.074   3.350   9.534 -0.2085  0.0788 -0.1556
   52CHL1    H6 6264   4.170   3.375   9.580 -0.6683 -0.3602  1.0943
   52CHL1    C7 6265   4.101   3.328   9.389  1.0346 -0.3806 -0.0718
   52CHL1   H7A 6266   4.151   3.408   9.331 -0.0589  3.9447  4.3160
   52CHL1   H7B 6267   4.147   3.227   9.383 -0.3319 -1.0761  0.5984
   52CHL1    C8 6268   3.964   3.315   9.306 -0.4338 -0.3255 -0.1114
   52CHL1    H8 6269   3.938   3.421   9.283  1.8038  0.4071  0.4725
   52CHL1   C14 6270   3.994   3.248   9.175  0.5146 -0.6884 -0.6013
   52CHL1   H14 6271   4.015   3.142   9.200 -1.1603 -0.8853  0.1056
   52CHL1   C15 6272   4.108   3.307   9.089  0.5897 -0.4394  0.2854
   52CHL1  H15A 6273   4.101   3.418   9.086  2.2957 -0.3186 -2.6137
   52CHL1  H15B 6274   4.207   3.282   9.133  0.0227 -0.9675  1.3174
   52CHL1   C16 6275   4.089   3.246   8.954 -0.3019 -0.6688  0.0235
   52CHL1  H16A 6276   4.108   3.319   8.873  1.4874  1.3378  2.1315
   52CHL1  H16B 6277   4.158   3.162   8.932  0.8166  0.0007  0.8848
   52CHL1   C17 6278   3.945   3.181   8.961  0.4625 -0.3991  0.1104
   52CHL1   H17 6279   3.956   3.075   8.993 -0.5644 -0.4329  0.4067
   52CHL1   C13 6280   3.875   3.251   9.081 -0.4535 -0.0618 -0.2058
   52CHL1   C18 6281   3.824   3.392   9.040  0.0954  0.1502 -0.1607
   52CHL1  H18A 6282   3.908   3.444   8.988  0.6264 -1.5033 -1.0272
   52CHL1  H18B 6283   3.730   3.387   8.981 -0.0284 -0.4985  0.0790
   52CHL1  H18C 6284   3.784   3.450   9.126 -2.3454  0.5230 -1.4722
   52CHL1   C12 6285   3.761   3.172   9.160 -0.4476 -0.2267 -0.3303
   52CHL1  H12A 6286   3.684   3.148   9.084  1.5590 -1.0925 -2.1818
   52CHL1  H12B 6287   3.797   3.071   9.185 -0.6366  0.0506  1.1800
   52CHL1   C11 6288   3.724   3.236   9.299 -0.3528  0.0062 -0.8366
   52CHL1  H11A 6289   3.676   3.334   9.281 -1.9662 -0.7915 -1.1130
   52CHL1  H11B 6290   3.649   3.176   9.355  0.3603 -1.7179 -1.6398
   52CHL1    C9 6291   3.849   3.254   9.386 -0.3533 -0.7209  0.1720
   52CHL1    H9 6292   3.883   3.152   9.413 -0.0026  0.0192  2.8679
   52CHL1   C10 6293   3.819   3.328   9.519  0.3340 -0.0422 -0.1394
   52CHL1   C19 6294   3.751   3.467   9.501 -0.8266  0.0293  0.1816
   52CHL1  H19A 6295   3.649   3.450   9.463 -0.0418 -3.7793 -0.5596
   52CHL1  H19B 6296   3.730   3.516   9.599  1.4253  1.1104  0.1972
   52CHL1  H19C 6297   3.815   3.536   9.442 -1.4816  1.0380  0.6248
   52CHL1    C1 6298   3.744   3.225   9.611  0.9410 -0.1201 -0.3363
   52CHL1   H1A 6299   3.637   3.220   9.583  0.8912 -2.1480  0.0669
   52CHL1   H1B 6300   3.786   3.122   9.603 -0.0531 -0.5672 -0.0218
   52CHL1    C2 6301   3.730   3.258   9.761 -0.1272 -0.2254  0.0909
   52CHL1   H2A 6302   3.700   3.168   9.818  1.8687 -1.9672 -1.4479
   52CHL1   H2B 6303   3.658   3.342   9.766  2.2207  1.8642  0.7190
   52CHL1   C20 6304   3.877   3.169   8.828  0.2567  0.3373  0.3262
   52CHL1   H20 6305   3.771   3.149   8.854  0.4444  0.1515  0.9731
   52CHL1   C21 6306   3.924   3.039   8.755  0.6703 -0.7691 -0.6712
   52CHL1  H21A 6307   3.884   3.024   8.652 -1.6456 -0.8831  0.1711
   52CHL1  H21B 6308   3.890   2.950   8.812 -1.2220  0.3542  0.0469
   52CHL1  H21C 6309   4.035   3.040   8.755  0.7090 -0.4590  1.6710
   52CHL1   C22 6310   3.892   3.292   8.733  0.4475  0.3717  0.6839
   52CHL1  H22A 6311   3.850   3.385   8.777  1.5528  1.4656 -0.4618
   52CHL1  H22B 6312   3.996   3.310   8.699  0.0102  2.2156  0.1942
   52CHL1   C23 6313   3.803   3.278   8.606 -0.2665  0.4651 -0.3159
   52CHL1  H23A 6314   3.790   3.375   8.553  0.2163  0.9926  0.5116
   52CHL1  H23B 6315   3.862   3.217   8.534  2.2673  1.3543  0.8642
   52CHL1   C24 6316   3.667   3.218   8.638 -1.0971 -0.2173 -0.0992
   52CHL1  H24A 6317   3.677   3.112   8.669 -0.0836  0.2209  1.1806
   52CHL1  H24B 6318   3.625   3.274   8.724  1.2314 -0.0146  0.9802
   52CHL1   C25 6319   3.564   3.232   8.522 -0.5204  0.2651  0.4001
   52CHL1   H25 6320   3.569   3.338   8.488  1.4279 -0.1926 -0.9082
   52CHL1   C26 6321   3.589   3.135   8.406  0.7265 -0.5124  0.0251
   52CHL1  H26A 6322   3.507   3.139   8.331  1.7994 -1.4500 -1.2309
   52CHL1  H26B 6323   3.677   3.169   8.347  1.3661 -0.0453  1.2208
   52CHL1  H26C 6324   3.600   3.032   8.446  0.5051  0.3476  2.5064
   52CHL1   C27 6325   3.417   3.216   8.571  0.3587  0.5043 -0.1266
   52CHL1  H27A 6326   3.389   3.113   8.601  1.5981 -0.4869 -2.1196
   52CHL1  H27B 6327   3.398   3.286   8.655  0.3916 -2.1700  2.2989
   52CHL1  H27C 6328   3.349   3.257   8.494  1.6199  1.3282 -0.8540
   53CHL1    C3 6329   3.191   3.457   9.966  0.2056 -0.0994 -0.1791
   53CHL1    H3 6330   3.254   3.366   9.956 -1.6829 -1.5539  0.5743
   53CHL1    O3 6331   3.178   3.492  10.105 -0.1725  0.0269  0.3332
   53CHL1   H3' 6332   3.129   3.575  10.105  0.3283  0.3324  0.8063
   53CHL1    C4 6333   3.264   3.570   9.894  0.0529 -0.0041  0.4120
   53CHL1   H4A 6334   3.199   3.657   9.914  1.1362  1.2921 -1.4281
   53CHL1   H4B 6335   3.367   3.575   9.936  0.5836 -2.6003 -0.3900
   53CHL1    C5 6336   3.274   3.540   9.746  0.2590  0.7571  0.2093
   53CHL1    C6 6337   3.388   3.549   9.677 -0.1235  0.6334 -0.0975
   53CHL1    H6 6338   3.479   3.583   9.727  1.3907 -1.0197 -1.5825
   53CHL1    C7 6339   3.399   3.522   9.535  0.1416  0.0591  0.1506
   53CHL1   H7A 6340   3.457   3.607   9.492 -0.4631 -0.0000 -0.8028
   53CHL1   H7B 6341   3.449   3.425   9.518 -1.7168 -0.7627 -0.9688
   53CHL1    C8 6342   3.269   3.515   9.449  0.2677 -0.3037  0.7501
   53CHL1    H8 6343   3.228   3.618   9.439 -1.0010 -0.6313  2.2350
   53CHL1   C14 6344   3.287   3.450   9.311 -0.7422 -0.6252 -0.3609
   53CHL1   H14 6345   3.326   3.349   9.337  2.1415 -0.0300 -1.9193
   53CHL1   C15 6346   3.398   3.510   9.215  0.1707 -0.0923  0.1634
   53CHL1  H15A 6347   3.405   3.620   9.227 -3.4333  0.1931  0.7211
   53CHL1  H15B 6348   3.492   3.474   9.261  0.4374  0.5478  0.1254
   53CHL1   C16 6349   3.358   3.473   9.071 -0.0460  0.1105  0.2370
   53CHL1  H16A 6350   3.344   3.559   9.002  0.5404  0.0827  0.0762
   53CHL1  H16B 6351   3.437   3.416   9.018 -1.0320  0.9004 -2.1983
   53CHL1   C17 6352   3.221   3.396   9.085 -0.2220 -0.1198  0.5816
   53CHL1   H17 6353   3.251   3.293   9.116 -1.4555 -0.6177  0.1767
   53CHL1   C13 6354   3.163   3.446   9.223  0.3842  0.5728  0.3829
   53CHL1   C18 6355   3.108   3.591   9.195 -0.0667  0.8302  0.4485
   53CHL1  H18A 6356   3.095   3.646   9.290  1.4809  1.4955  0.3146
   53CHL1  H18B 6357   3.180   3.651   9.135  1.7862 -2.3900 -0.7783
   53CHL1  H18C 6358   3.007   3.583   9.149  0.8382  0.3489 -1.5671
   53CHL1   C12 6359   3.054   3.368   9.288  0.6434  0.4467 -0.4214
   53CHL1  H12A 6360   2.960   3.386   9.232  1.1702  1.3085 -1.0587
   53CHL1  H12B 6361   3.083   3.261   9.288  2.7219  0.9021  1.7643
   53CHL1   C11 6362   3.029   3.415   9.434 -0.0499 -0.6064 -0.0146
   53CHL1  H11A 6363   2.968   3.507   9.425 -0.2146 -0.8720 -1.9406
   53CHL1  H11B 6364   2.959   3.339   9.477 -3.2387  1.0458 -1.8620
   53CHL1    C9 6365   3.159   3.436   9.527 -0.0172 -0.2842  0.1160
   53CHL1    H9 6366   3.205   3.337   9.546  1.4517  0.0277 -1.5981
   53CHL1   C10 6367   3.144   3.489   9.674  0.2234 -0.7316  0.1340
   53CHL1   C19 6368   3.057   3.620   9.656 -0.2741  0.1820  0.4649
   53CHL1  H19A 6369   3.106   3.693   9.588  0.1163 -0.0523  0.4911
   53CHL1  H19B 6370   2.956   3.595   9.619  0.0273  1.1045 -1.0369
   53CHL1  H19C 6371   3.043   3.680   9.749 -0.7273  1.3454 -0.3456
   53CHL1    C1 6372   3.069   3.378   9.759  0.4370  0.5840 -0.5693
   53CHL1   H1A 6373   2.973   3.347   9.712  0.6325  1.0556 -1.2995
   53CHL1   H1B 6374   3.137   3.292   9.770  0.7350  0.8976  0.0465
   53CHL1    C2 6375   3.053   3.417   9.912  0.0082  1.0316  0.3203
   53CHL1   H2A 6376   3.010   3.340   9.979 -0.4684  0.7862 -0.2590
   53CHL1   H2B 6377   2.998   3.513   9.903  2.8819  2.8206  0.5857
   53CHL1   C20 6378   3.135   3.384   8.968  0.0786  0.3739  0.3508
   53CHL1   H20 6379   3.035   3.352   9.003  0.2868  1.3265  1.9146
   53CHL1   C21 6380   3.197   3.264   8.888  0.6313 -0.3226 -0.5228
   53CHL1  H21A 6381   3.209   3.174   8.952  1.6252  0.1552 -0.0093
   53CHL1  H21B 6382   3.296   3.304   8.858  1.1051 -0.1990  1.1078
   53CHL1  H21C 6383   3.140   3.245   8.794 -1.0107  2.2311 -0.1461
   53CHL1   C22 6384   3.127   3.506   8.879 -0.1702 -0.3233  0.1559
   53CHL1  H22A 6385   3.104   3.604   8.926  2.4549  0.7410 -0.5997
   53CHL1  H22B 6386   3.226   3.518   8.830  0.3751  1.0120  1.5282
   53CHL1   C23 6387   3.015   3.476   8.779  0.0167  0.1484 -0.5840
   53CHL1  H23A 6388   3.041   3.397   8.705  1.7552  1.4486 -1.4377
   53CHL1  H23B 6389   2.928   3.445   8.841  0.1020 -0.1093 -0.5911
   53CHL1   C24 6390   2.968   3.603   8.699  0.3264  0.5179 -0.2798
   53CHL1  H24A 6391   2.874   3.595   8.640  0.8494  1.0050 -1.1991
   53CHL1  H24B 6392   2.956   3.691   8.766  5.3749  1.5810 -0.3818
   53CHL1   C25 6393   3.065   3.647   8.586  0.4294  0.2477  0.2732
   53CHL1   H25 6394   3.164   3.654   8.637 -0.6330 -1.8228  2.9129
   53CHL1   C26 6395   3.067   3.545   8.474 -0.0306  0.7334  0.0291
   53CHL1  H26A 6396   3.108   3.446   8.502 -3.2094 -0.7945 -0.3581
   53CHL1  H26B 6397   2.964   3.535   8.434 -0.1541  2.4605 -0.1875
   53CHL1  H26C 6398   3.137   3.583   8.395 -0.2427 -0.6843 -0.8809
   53CHL1   C27 6399   3.025   3.780   8.519  0.4369 -0.0051 -0.7148
   53CHL1  H27A 6400   2.927   3.765   8.469 -0.3496 -1.3673  1.1276
   53CHL1  H27B 6401   3.032   3.873   8.579  3.1439 -1.0716  0.8064
   53CHL1  H27C 6402   3.101   3.814   8.445  0.4101  1.2386 -0.1916
   54CHL1    C3 6403   3.128   5.489  10.103  0.4461  0.8030  0.1667
   54CHL1    H3 6404   3.231   5.485  10.064 -0.0134 -1.1221 -1.0030
   54CHL1    O3 6405   3.138   5.486  10.247 -0.2298  0.1305 -0.1257
   54CHL1   H3' 6406   3.081   5.557  10.277  0.4784  0.6974 -0.0734
   54CHL1    C4 6407   3.065   5.627  10.058 -0.2803 -0.1346 -0.6084
   54CHL1   H4A 6408   2.969   5.649  10.108  0.6533  0.9697  0.7746
   54CHL1   H4B 6409   3.133   5.706  10.096  0.1455 -1.2825  1.1336
   54CHL1    C5 6410   3.050   5.634   9.907  0.1790 -0.1262 -0.3615
   54CHL1    C6 6411   3.105   5.734   9.837  0.0287  0.2076  0.3731
   54CHL1    H6 6412   3.147   5.822   9.887 -1.0395  0.2295  1.2870
   54CHL1    C7 6413   3.087   5.741   9.684  1.0950 -0.3865 -0.1667
   54CHL1   H7A 6414   3.051   5.843   9.657 -2.1597 -1.3292  0.2982
   54CHL1   H7B 6415   3.188   5.743   9.637  1.1732 -0.1572  0.0077
   54CHL1    C8 6416   2.986   5.645   9.623 -0.3768  0.1898 -0.2369
   54CHL1    H8 6417   2.882   5.676   9.647  0.2127  0.7469  1.8164
   54CHL1   C14 6418   3.022   5.626   9.471 -0.1699  0.4387  0.2330
   54CHL1   H14 6419   3.125   5.585   9.469 -0.5808 -0.6528  0.8704
   54CHL1   C15 6420   3.030   5.752   9.380 -0.3580  0.2515 -0.4715
   54CHL1  H15A 6421   2.957   5.827   9.418 -0.2588 -0.8103  2.0361
   54CHL1  H15B 6422   3.126   5.807   9.384 -0.9045  1.2015 -0.1148
   54CHL1   C16 6423   3.007   5.702   9.239  0.3979  0.1495  0.2735
   54CHL1  H16A 6424   2.930   5.768   9.194  0.6412 -1.4004 -2.6928
   54CHL1  H16B 6425   3.093   5.724   9.172 -0.1041 -1.2999 -0.9201
   54CHL1   C17 6426   2.983   5.548   9.245  0.3420  0.2754  0.3167
   54CHL1   H17 6427   3.080   5.495   9.234  0.2557  0.4324 -1.5879
   54CHL1   C13 6428   2.938   5.525   9.392 -0.1674  0.5541 -0.5780
   54CHL1   C18 6429   2.791   5.574   9.401  0.6837  0.1962  1.1710
   54CHL1  H18A 6430   2.722   5.497   9.362 -0.7509  3.5656 -3.9739
   54CHL1  H18B 6431   2.765   5.606   9.504  0.0010  2.6095  0.3299
   54CHL1  H18C 6432   2.777   5.669   9.345  1.5607  0.0049  0.6064
   54CHL1   C12 6433   2.953   5.390   9.460  0.2047  0.8743  0.0783
   54CHL1  H12A 6434   2.881   5.314   9.421  2.1918 -1.3101  0.4153
   54CHL1  H12B 6435   3.058   5.357   9.443 -0.2247 -1.4323  1.4107
   54CHL1   C11 6436   2.923   5.395   9.607 -1.2285  0.3397 -0.4338
   54CHL1  H11A 6437   2.814   5.415   9.615 -1.5057 -0.3347 -2.2002
   54CHL1  H11B 6438   2.960   5.302   9.653 -1.5680  0.3488 -0.1355
   54CHL1    C9 6439   3.000   5.507   9.685 -1.1363 -0.5710  0.1808
   54CHL1    H9 6440   3.110   5.492   9.679 -0.2822  4.0497  0.7933
   54CHL1   C10 6441   2.976   5.504   9.841 -0.7044  0.1217  0.3494
   54CHL1   C19 6442   2.824   5.510   9.870  0.3762 -0.0430 -0.0672
   54CHL1  H19A 6443   2.773   5.597   9.822  1.0731 -1.3683 -3.5249
   54CHL1  H19B 6444   2.782   5.415   9.832  1.0042 -1.0011  1.5361
   54CHL1  H19C 6445   2.817   5.509   9.981  0.6406  3.1279  0.0699
   54CHL1    C1 6446   3.036   5.370   9.898  0.0773 -0.0558 -0.8259
   54CHL1   H1A 6447   2.965   5.294   9.859 -1.0501  1.3184 -1.4976
   54CHL1   H1B 6448   3.134   5.349   9.850 -0.1369 -2.0083 -0.4821
   54CHL1    C2 6449   3.044   5.373  10.049 -0.8016 -0.0042 -0.0812
   54CHL1   H2A 6450   3.091   5.277  10.079  0.5384  0.8183  0.5207
   54CHL1   H2B 6451   2.946   5.382  10.101 -1.7990 -1.2532 -1.6496
   54CHL1   C20 6452   2.902   5.493   9.129 -0.5766  0.8741 -0.2701
   54CHL1   H20 6453   2.793   5.506   9.148 -0.6741 -1.5444  1.1112
   54CHL1   C21 6454   2.914   5.343   9.130  0.2604  0.3778  0.4433
   54CHL1  H21A 6455   2.858   5.306   9.042  0.1073  1.6421 -0.0055
   54CHL1  H21B 6456   2.866   5.292   9.216 -1.7338  0.8440 -0.3588
   54CHL1  H21C 6457   3.019   5.308   9.114  0.3582  0.8504  0.0550
   54CHL1   C22 6458   2.948   5.564   8.998  0.7369  1.1318  1.1690
   54CHL1  H22A 6459   2.931   5.673   8.986 -2.2717  0.7328  1.0680
   54CHL1  H22B 6460   3.058   5.548   9.000  0.6058  0.1494  0.9340
   54CHL1   C23 6461   2.884   5.499   8.865 -0.9308 -0.1032 -0.2648
   54CHL1  H23A 6462   2.907   5.391   8.852  0.0874  0.0245  0.3114
   54CHL1  H23B 6463   2.774   5.506   8.856 -0.7287  2.3633 -1.4850
   54CHL1   C24 6464   2.935   5.571   8.734 -0.7895 -0.0413  0.6693
   54CHL1  H24A 6465   2.880   5.665   8.711  0.2159  0.1255 -1.2667
   54CHL1  H24B 6466   3.039   5.600   8.761 -0.7964 -0.2893  0.9695
   54CHL1   C25 6467   2.951   5.471   8.617  0.1774 -1.0992  0.3828
   54CHL1   H25 6468   3.009   5.382   8.648  0.6829 -0.8718  0.0980
   54CHL1   C26 6469   2.808   5.421   8.560 -0.0896  0.1527  0.2556
   54CHL1  H26A 6470   2.826   5.368   8.464  3.0171 -0.6318  1.1219
   54CHL1  H26B 6471   2.756   5.360   8.637 -0.7581 -1.1553 -1.1729
   54CHL1  H26C 6472   2.750   5.515   8.546 -1.5654 -0.3852  2.3624
   54CHL1   C27 6473   3.014   5.541   8.501 -0.6288  0.2809 -0.2198
   54CHL1  H27A 6474   3.018   5.467   8.418 -0.4610  0.1514 -0.0988
   54CHL1  H27B 6475   2.953   5.631   8.479  1.0530  1.5807  0.2113
   54CHL1  H27C 6476   3.118   5.577   8.519 -0.6914  0.9326 -1.1038
   55CHL1    C3 6477   4.624   1.157  10.216  0.4495 -0.6516 -0.1042
   55CHL1    H3 6478   4.716   1.107  10.180  1.3000  1.2007 -0.5655
   55CHL1    O3 6479   4.616   1.152  10.356 -0.5774 -0.1827  0.8238
   55CHL1   H3' 6480   4.557   1.225  10.377  0.2860  0.1052  2.4161
   55CHL1    C4 6481   4.615   1.295  10.165 -0.4515 -0.0690 -0.0149
   55CHL1   H4A 6482   4.530   1.357  10.201 -2.4766 -1.5321 -1.9696
   55CHL1   H4B 6483   4.710   1.345  10.194 -0.4768  1.6281 -2.5268
   55CHL1    C5 6484   4.596   1.304  10.015  0.1585 -0.5371  0.5643
   55CHL1    C6 6485   4.680   1.374   9.938 -0.4042 -0.4116  0.7958
   55CHL1    H6 6486   4.765   1.426   9.986  1.1534 -0.5290 -1.6562
   55CHL1    C7 6487   4.669   1.402   9.787  0.2375  0.4308 -0.3609
   55CHL1   H7A 6488   4.678   1.512   9.775 -0.1223  0.6052  0.8454
   55CHL1   H7B 6489   4.754   1.348   9.739  0.7256 -0.8889  1.8470
   55CHL1    C8 6490   4.525   1.353   9.745  0.1821  0.0693  0.5083
   55CHL1    H8 6491   4.445   1.416   9.790 -0.8450 -2.4198  2.4652
   55CHL1   C14 6492   4.511   1.357   9.596  0.1631  0.1127 -0.2684
   55CHL1   H14 6493   4.592   1.288   9.563  0.6544 -1.7435  4.0971
   55CHL1   C15 6494   4.531   1.495   9.539 -0.3216 -0.1239  1.1070
   55CHL1  H15A 6495   4.468   1.572   9.589 -2.0132 -2.0023  2.0140
   55CHL1  H15B 6496   4.640   1.511   9.530 -0.4884 -0.1212 -4.0842
   55CHL1   C16 6497   4.488   1.471   9.394 -0.5045  0.1964 -0.2566
   55CHL1  H16A 6498   4.415   1.551   9.367 -0.6414  0.6294  1.2970
   55CHL1  H16B 6499   4.581   1.474   9.333  0.6634  2.5828  1.4614
   55CHL1   C17 6500   4.413   1.338   9.386  0.7582 -0.2240  0.3258
   55CHL1   H17 6501   4.479   1.255   9.351 -1.0804 -1.7721  0.3217
   55CHL1   C13 6502   4.377   1.303   9.536 -0.6973 -0.6072  0.5236
   55CHL1   C18 6503   4.252   1.384   9.586  0.7807  0.2838  0.0986
   55CHL1  H18A 6504   4.249   1.378   9.697 -1.4701 -3.2591  0.0323
   55CHL1  H18B 6505   4.244   1.490   9.553 -0.5736  0.7338  1.7346
   55CHL1  H18C 6506   4.162   1.324   9.558  0.4217  1.0775 -0.4716
   55CHL1   C12 6507   4.371   1.162   9.573 -0.0659  0.2140  0.6232
   55CHL1  H12A 6508   4.287   1.102   9.530  0.8666 -0.1164 -0.8309
   55CHL1  H12B 6509   4.462   1.107   9.542 -1.7949 -1.9167 -1.0984
   55CHL1   C11 6510   4.367   1.142   9.728 -0.4549 -0.8459 -0.3920
   55CHL1  H11A 6511   4.273   1.186   9.768  0.3330  0.8141 -0.2908
   55CHL1  H11B 6512   4.379   1.034   9.752 -0.5212 -0.6633  0.4690
   55CHL1    C9 6513   4.487   1.215   9.802  0.7340  0.3415  0.0446
   55CHL1    H9 6514   4.577   1.154   9.779  1.0534  0.3163  1.3227
   55CHL1   C10 6515   4.481   1.222   9.956 -0.6956 -0.3200  0.5121
   55CHL1   C19 6516   4.344   1.283  10.005 -0.0807  0.1327  0.1746
   55CHL1  H19A 6517   4.309   1.372   9.949 -3.1413 -0.6672  0.6015
   55CHL1  H19B 6518   4.261   1.209   9.996 -1.2969  1.6820 -3.0255
   55CHL1  H19C 6519   4.365   1.316  10.109  2.7566 -0.1935 -0.2252
   55CHL1    C1 6520   4.483   1.084  10.015 -0.6990 -0.2737  0.0728
   55CHL1   H1A 6521   4.383   1.043   9.990 -0.6619 -0.1658 -0.2618
   55CHL1   H1B 6522   4.561   1.015   9.976  0.7062 -0.8837  3.5927
   55CHL1    C2 6523   4.499   1.083  10.171  0.2414 -0.0893  0.0723
   55CHL1   H2A 6524   4.505   0.975  10.193  1.9840 -0.1854 -0.7683
   55CHL1   H2B 6525   4.415   1.130  10.227 -0.5027 -0.8673 -0.3788
   55CHL1   C20 6526   4.305   1.329   9.278  0.3943  0.1433  0.2187
   55CHL1   H20 6527   4.236   1.415   9.294  0.7975  0.1302  2.1853
   55CHL1   C21 6528   4.236   1.191   9.279  0.3911  0.1159  0.0835
   55CHL1  H21A 6529   4.153   1.192   9.353 -1.0266  1.3061 -1.4608
   55CHL1  H21B 6530   4.301   1.101   9.288  1.0840  0.7495  1.8571
   55CHL1  H21C 6531   4.189   1.187   9.179 -0.5581  1.7231  0.4421
   55CHL1   C22 6532   4.368   1.369   9.141  0.1162 -0.1930  0.3969
   55CHL1  H22A 6533   4.435   1.456   9.159 -2.1627  1.7989 -0.2242
   55CHL1  H22B 6534   4.435   1.285   9.112 -1.1943 -1.1431  0.0749
   55CHL1   C23 6535   4.273   1.388   9.028  0.4511  0.3948  0.2984
   55CHL1  H23A 6536   4.232   1.293   8.989 -1.3332  0.3816  2.0831
   55CHL1  H23B 6537   4.190   1.449   9.070 -1.0628 -1.3796 -0.0050
   55CHL1   C24 6538   4.331   1.462   8.909  0.4145 -0.0667  0.1029
   55CHL1  H24A 6539   4.362   1.564   8.939 -0.7001  0.8333 -1.6181
   55CHL1  H24B 6540   4.428   1.423   8.873 -0.1226 -0.2481 -1.2203
   55CHL1   C25 6541   4.241   1.482   8.784  0.8264  0.0274  0.1014
   55CHL1   H25 6542   4.183   1.389   8.763  1.0000  0.2943 -1.7033
   55CHL1   C26 6543   4.137   1.602   8.785 -0.0623 -0.4859  0.1912
   55CHL1  H26A 6544   4.087   1.609   8.686  0.6423  0.4795 -0.1070
   55CHL1  H26B 6545   4.054   1.593   8.860 -0.4024  0.2957 -0.0723
   55CHL1  H26C 6546   4.190   1.697   8.807  0.1291 -0.2874 -1.0754
   55CHL1   C27 6547   4.318   1.495   8.647 -0.1352 -0.3373  0.0971
   55CHL1  H27A 6548   4.239   1.482   8.570  0.9188 -0.1302 -1.0469
   55CHL1  H27B 6549   4.369   1.593   8.640  1.6750 -1.2896 -0.9886
   55CHL1  H27C 6550   4.393   1.414   8.634  0.6262  0.1059  1.4815
   56CHL1    C3 6551   1.347   1.559   9.982 -0.1364  0.5850 -0.1499
   56CHL1    H3 6552   1.290   1.653   9.964 -1.0942  0.1329  0.4232
   56CHL1    O3 6553   1.352   1.537  10.125 -0.0666 -0.6455  0.0714
   56CHL1   H3' 6554   1.430   1.484  10.139  0.7692  0.7365  0.7861
   56CHL1    C4 6555   1.249   1.456   9.918  0.0343 -0.4929 -0.2898
   56CHL1   H4A 6556   1.302   1.360   9.936  1.0723  0.3530  1.3240
   56CHL1   H4B 6557   1.148   1.448   9.965 -0.0074 -2.1197 -0.6031
   56CHL1    C5 6558   1.254   1.466   9.766  0.3436  0.4206  0.0900
   56CHL1    C6 6559   1.140   1.471   9.708 -0.3798  0.5797 -0.1230
   56CHL1    H6 6560   1.047   1.478   9.768  1.5151  1.6378  2.9582
   56CHL1    C7 6561   1.140   1.485   9.560 -0.2498  0.7312  0.1444
   56CHL1   H7A 6562   1.061   1.416   9.522 -0.5842  0.7982  0.7076
   56CHL1   H7B 6563   1.112   1.589   9.532  1.2560  1.4637  1.2483
   56CHL1    C8 6564   1.269   1.444   9.488  0.4693  0.2505 -0.2678
   56CHL1    H8 6565   1.278   1.333   9.499 -0.4053  0.0832 -1.0613
   56CHL1   C14 6566   1.275   1.477   9.346 -0.3597  0.1121  0.1826
   56CHL1   H14 6567   1.266   1.587   9.337  1.6099  0.2816 -0.0651
   56CHL1   C15 6568   1.163   1.419   9.263  0.7740  0.0246 -0.1181
   56CHL1  H15A 6569   1.154   1.316   9.303 -1.5094  0.6117  1.0486
   56CHL1  H15B 6570   1.065   1.469   9.281 -0.5691 -1.8235 -1.9124
   56CHL1   C16 6571   1.212   1.418   9.115 -0.4539  0.4962 -0.0875
   56CHL1  H16A 6572   1.196   1.320   9.066  0.5028  0.7699 -0.9758
   56CHL1  H16B 6573   1.159   1.498   9.057 -1.5790 -0.3839 -0.3111
   56CHL1   C17 6574   1.354   1.464   9.121 -0.3894  0.9064 -0.8913
   56CHL1   H17 6575   1.357   1.572   9.097 -2.6812  0.7916 -1.8907
   56CHL1   C13 6576   1.403   1.443   9.266 -0.1574 -0.7309  0.2885
   56CHL1   C18 6577   1.446   1.302   9.287 -0.2274  1.1315  1.4538
   56CHL1  H18A 6578   1.484   1.287   9.390  0.1322  1.1878  1.3312
   56CHL1  H18B 6579   1.364   1.230   9.262  1.1845 -0.1097  0.1907
   56CHL1  H18C 6580   1.533   1.271   9.225  0.4908  0.6670  2.6718
   56CHL1   C12 6581   1.508   1.538   9.323  0.1592 -0.2541  0.6707
   56CHL1  H12A 6582   1.611   1.523   9.286 -0.0475 -0.9794  0.3697
   56CHL1  H12B 6583   1.482   1.642   9.293  0.4076 -0.8557 -1.9132
   56CHL1   C11 6584   1.522   1.525   9.483  0.2629 -0.9032  0.2447
   56CHL1  H11A 6585   1.578   1.435   9.516 -1.4595 -1.2635  2.4443
   56CHL1  H11B 6586   1.584   1.612   9.515  0.5009 -1.2439  0.7264
   56CHL1    C9 6587   1.387   1.518   9.557 -0.5822  0.1110 -0.1933
   56CHL1    H9 6588   1.357   1.623   9.574  1.0037  0.4545  0.7247
   56CHL1   C10 6589   1.396   1.472   9.701 -0.0249  0.2765  0.2610
   56CHL1   C19 6590   1.459   1.337   9.716 -0.4983 -0.4888 -0.3191
   56CHL1  H19A 6591   1.415   1.264   9.645 -3.4700 -0.9171  1.7832
   56CHL1  H19B 6592   1.567   1.338   9.689  0.1001  0.6304  1.8821
   56CHL1  H19C 6593   1.453   1.289   9.816  0.0935 -0.7930 -0.4210
   56CHL1    C1 6594   1.489   1.575   9.775  0.3543  0.3473  0.3007
   56CHL1   H1A 6595   1.591   1.553   9.735  0.8121  2.3032  0.2958
   56CHL1   H1B 6596   1.456   1.681   9.766 -2.2417 -0.5602 -2.4926
   56CHL1    C2 6597   1.493   1.551   9.928 -1.3692  0.1620 -0.4050
   56CHL1   H2A 6598   1.546   1.640   9.968 -0.9052  0.6220 -1.9769
   56CHL1   H2B 6599   1.542   1.453   9.951  2.2934  1.5344 -1.6067
   56CHL1   C20 6600   1.435   1.399   9.011  0.1721  0.2796 -0.5345
   56CHL1   H20 6601   1.437   1.289   9.029  1.3147  0.7102  2.5923
   56CHL1   C21 6602   1.577   1.457   9.023  0.1401  0.3813  0.6953
   56CHL1  H21A 6603   1.626   1.428   8.927  0.4802  0.7962  0.7399
   56CHL1  H21B 6604   1.627   1.397   9.102 -2.0341  0.0838  1.9091
   56CHL1  H21C 6605   1.587   1.567   9.038  1.5180  0.0752  2.3347
   56CHL1   C22 6606   1.384   1.434   8.865 -0.1612 -0.6896  0.5038
   56CHL1  H22A 6607   1.273   1.429   8.866 -0.3090  1.5107  1.1296
   56CHL1  H22B 6608   1.428   1.533   8.839 -0.4714 -1.1370 -1.9577
   56CHL1   C23 6609   1.434   1.345   8.749  0.4962 -0.5008 -0.5065
   56CHL1  H23A 6610   1.404   1.377   8.647 -2.5721 -0.7717  0.2108
   56CHL1  H23B 6611   1.545   1.340   8.741  0.4744 -1.1060 -0.4474
   56CHL1   C24 6612   1.394   1.199   8.775 -0.1815  0.0345  0.3727
   56CHL1  H24A 6613   1.444   1.144   8.692 -1.3305 -0.6247  0.0905
   56CHL1  H24B 6614   1.418   1.156   8.875 -2.3781  0.0978  0.9812
   56CHL1   C25 6615   1.239   1.173   8.763 -0.0714 -0.5019  0.3526
   56CHL1   H25 6616   1.192   1.212   8.856  2.7865 -2.8741  2.9917
   56CHL1   C26 6617   1.184   1.250   8.641 -0.0980  0.7492  0.4571
   56CHL1  H26A 6618   1.077   1.223   8.632  0.1210  0.0417 -0.1865
   56CHL1  H26B 6619   1.182   1.359   8.661 -0.6306  0.8060  0.1034
   56CHL1  H26C 6620   1.248   1.228   8.552  0.4465  1.9419  0.5327
   56CHL1   C27 6621   1.199   1.024   8.752 -0.2614 -1.1303 -0.5419
   56CHL1  H27A 6622   1.253   0.957   8.822 -0.4038 -1.5629 -0.8369
   56CHL1  H27B 6623   1.090   1.020   8.775  0.1639  0.3600  2.1412
   56CHL1  H27C 6624   1.230   0.991   8.650  0.9057  1.1958 -0.9949
   57CHL1    C3 6625   6.608   1.784  10.283  0.1040 -0.1121  0.0516
   57CHL1    H3 6626   6.534   1.701  10.292 -0.7478  0.5014 -1.0640
   57CHL1    O3 6627   6.651   1.826  10.412  0.2691  0.0353  0.2188
   57CHL1   H3' 6628   6.746   1.831  10.401  0.1231  0.8359 -0.8183
   57CHL1    C4 6629   6.719   1.735  10.184  0.4486  0.2042  0.1882
   57CHL1   H4A 6630   6.785   1.823  10.168 -0.3360  0.5972 -1.0477
   57CHL1   H4B 6631   6.779   1.654  10.230  0.6915  0.0004 -0.4683
   57CHL1    C5 6632   6.660   1.692  10.056 -0.7729  0.4365 -0.1906
   57CHL1    C6 6633   6.679   1.564  10.009 -0.3355 -0.1570  0.6526
   57CHL1    H6 6634   6.741   1.488  10.059 -1.1246 -2.8302 -2.1295
   57CHL1    C7 6635   6.631   1.533   9.870 -0.3157  0.2629  0.2435
   57CHL1   H7A 6636   6.711   1.476   9.818  0.6162  0.2867  1.6211
   57CHL1   H7B 6637   6.543   1.465   9.878  0.6395 -0.8208  2.3628
   57CHL1    C8 6638   6.595   1.659   9.777  0.3960 -0.6851  0.2370
   57CHL1    H8 6639   6.690   1.710   9.749 -0.8352  1.3741 -0.3416
   57CHL1   C14 6640   6.520   1.621   9.653  0.2288 -0.9044  0.1533
   57CHL1   H14 6641   6.433   1.553   9.666 -0.9180  0.1480 -1.5670
   57CHL1   C15 6642   6.597   1.536   9.555  0.3096  0.0515  0.4215
   57CHL1  H15A 6643   6.700   1.569   9.532  0.6460  0.5478  2.4725
   57CHL1  H15B 6644   6.602   1.434   9.599  1.3677  1.2176  3.2042
   57CHL1   C16 6645   6.512   1.542   9.423  0.0215  0.5559 -1.0363
   57CHL1  H16A 6646   6.586   1.572   9.346 -0.8467 -0.0330 -2.1274
   57CHL1  H16B 6647   6.473   1.442   9.395  2.9792 -0.6667 -1.1771
   57CHL1   C17 6648   6.405   1.655   9.441  0.3431  0.3385  0.1836
   57CHL1   H17 6649   6.310   1.608   9.475  0.1405  1.7075  1.6159
   57CHL1   C13 6650   6.458   1.741   9.567  0.0724  0.0242 -0.3522
   57CHL1   C18 6651   6.569   1.834   9.523  0.3426  0.1779 -0.2037
   57CHL1  H18A 6652   6.638   1.788   9.449 -1.9654 -2.4827 -0.8247
   57CHL1  H18B 6653   6.536   1.925   9.468  0.2864 -0.0780 -0.5957
   57CHL1  H18C 6654   6.624   1.874   9.611 -1.4864 -1.4833  1.7864
   57CHL1   C12 6655   6.360   1.799   9.659  0.8335 -0.5500  0.1371
   57CHL1  H12A 6656   6.311   1.885   9.607 -0.2600 -0.8420  0.6641
   57CHL1  H12B 6657   6.274   1.736   9.689 -1.1430  2.8984  2.4817
   57CHL1   C11 6658   6.424   1.864   9.783 -0.1025  0.0976 -0.2518
   57CHL1  H11A 6659   6.492   1.948   9.757  1.7433 -1.8651 -2.1464
   57CHL1  H11B 6660   6.346   1.916   9.841  1.0835  2.1159 -0.3876
   57CHL1    C9 6661   6.505   1.757   9.860 -0.3684  0.3623  0.7925
   57CHL1    H9 6662   6.433   1.689   9.910 -0.3858  0.5588  1.0325
   57CHL1   C10 6663   6.580   1.804   9.986  0.8124 -0.5989  0.0902
   57CHL1   C19 6664   6.689   1.904   9.936  0.0053  0.5135 -0.1152
   57CHL1  H19A 6665   6.748   1.955  10.015 -1.7700  1.0592  0.9304
   57CHL1  H19B 6666   6.756   1.877   9.852  1.1544  1.9598  0.2980
   57CHL1  H19C 6667   6.632   1.988   9.891  1.0067  1.5909  0.5715
   57CHL1    C1 6668   6.482   1.880  10.079  0.1105 -0.1359 -0.7286
   57CHL1   H1A 6669   6.450   1.982  10.046  1.5999  0.5241 -0.2209
   57CHL1   H1B 6670   6.405   1.806  10.109  1.2197 -0.6316  1.0753
   57CHL1    C2 6671   6.554   1.917  10.217 -0.6892  1.1105  0.7125
   57CHL1   H2A 6672   6.484   1.963  10.290 -2.0727  1.1954 -0.6495
   57CHL1   H2B 6673   6.641   1.983  10.198 -0.0882  0.1365 -0.0692
   57CHL1   C20 6674   6.373   1.721   9.313  0.8065 -0.9208  0.2202
   57CHL1   H20 6675   6.457   1.788   9.284 -1.4532  1.5154 -1.0508
   57CHL1   C21 6676   6.245   1.816   9.322  0.3697  0.7336  0.1476
   57CHL1  H21A 6677   6.247   1.902   9.251  2.3188  1.4967  1.0354
   57CHL1  H21B 6678   6.229   1.856   9.424  1.0597 -1.3193  1.1131
   57CHL1  H21C 6679   6.157   1.750   9.313  0.6596  0.2663  0.6581
   57CHL1   C22 6680   6.375   1.624   9.189 -0.0542 -1.1505  0.1345
   57CHL1  H22A 6681   6.474   1.577   9.171 -0.2524 -1.1778 -0.9258
   57CHL1  H22B 6682   6.307   1.539   9.213  1.5722 -1.9637  2.1444
   57CHL1   C23 6683   6.342   1.692   9.057  0.4589  0.6160  0.5177
   57CHL1  H23A 6684   6.240   1.730   9.078 -0.1783 -1.6561  1.9107
   57CHL1  H23B 6685   6.403   1.785   9.057 -0.3032  1.1411 -0.7715
   57CHL1   C24 6686   6.363   1.604   8.930  0.2151  1.0821 -0.8470
   57CHL1  H24A 6687   6.449   1.533   8.929 -0.4884  0.1921 -0.0046
   57CHL1  H24B 6688   6.281   1.528   8.930  1.1366  0.0473  0.5890
   57CHL1   C25 6689   6.368   1.689   8.798  0.8267  0.0289 -0.7382
   57CHL1   H25 6690   6.373   1.625   8.707 -1.3721 -0.8562 -0.2893
   57CHL1   C26 6691   6.247   1.775   8.779  0.8074  0.0592  0.0227
   57CHL1  H26A 6692   6.154   1.722   8.808 -0.3111  0.4522 -2.5471
   57CHL1  H26B 6693   6.266   1.863   8.845  0.6847 -1.0360  1.5654
   57CHL1  H26C 6694   6.230   1.812   8.676 -1.5690  0.2946  0.4429
   57CHL1   C27 6695   6.495   1.779   8.795 -0.5442  0.3401  0.0849
   57CHL1  H27A 6696   6.500   1.833   8.698 -0.5869 -0.8522 -0.5933
   57CHL1  H27B 6697   6.494   1.850   8.881 -2.4914  1.2235 -0.6131
   57CHL1  H27C 6698   6.587   1.720   8.816 -1.0524  0.1698  2.0361
   58CHL1    C3 6699   0.685   1.588   9.939  0.4408  0.4622  0.5976
   58CHL1    H3 6700   0.604   1.512   9.927 -0.4082  1.5851 -1.2168
   58CHL1    O3 6701   0.704   1.598  10.075  0.1747 -0.3009 -0.1579
   58CHL1   H3' 6702   0.647   1.672  10.099 -1.0298 -0.9044 -1.0516
   58CHL1    C4 6703   0.803   1.530   9.866  0.5742  0.1642  0.0474
   58CHL1   H4A 6704   0.895   1.584   9.896 -0.4379  1.4173  0.9932
   58CHL1   H4B 6705   0.817   1.425   9.902  0.8863  0.1763 -0.0369
   58CHL1    C5 6706   0.766   1.524   9.719  0.1485 -0.1198 -0.2561
   58CHL1    C6 6707   0.762   1.412   9.656 -0.2109  0.6070  0.6149
   58CHL1    H6 6708   0.791   1.318   9.705  0.9319 -0.5193 -2.0047
   58CHL1    C7 6709   0.745   1.394   9.503 -0.0868  0.6873 -0.0755
   58CHL1   H7A 6710   0.821   1.326   9.458 -0.5828  0.5327 -0.6862
   58CHL1   H7B 6711   0.639   1.366   9.486 -0.1659  0.2438  1.0365
   58CHL1    C8 6712   0.776   1.525   9.429  0.2050  0.1937 -0.6571
   58CHL1    H8 6713   0.887   1.530   9.420  0.2956  0.4336  0.4640
   58CHL1   C14 6714   0.726   1.508   9.283 -0.0585  0.3143  0.2134
   58CHL1   H14 6715   0.617   1.489   9.293  0.0182 -0.1557  0.1899
   58CHL1   C15 6716   0.770   1.386   9.197 -0.9080 -0.1497 -0.2210
   58CHL1  H15A 6717   0.878   1.363   9.204 -0.7815  0.4581 -0.1048
   58CHL1  H15B 6718   0.712   1.295   9.226  0.5504 -1.1719 -0.4171
   58CHL1   C16 6719   0.740   1.425   9.052 -0.4599  0.3795  0.1499
   58CHL1  H16A 6720   0.837   1.422   9.000  0.2734  2.1312  1.3048
   58CHL1  H16B 6721   0.659   1.356   9.018 -1.0789  0.8958  0.5385
   58CHL1   C17 6722   0.696   1.579   9.061 -0.4431  0.4018 -1.2265
   58CHL1   H17 6723   0.585   1.583   9.070 -0.5804 -0.9772 -1.9777
   58CHL1   C13 6724   0.742   1.631   9.194 -0.0462 -0.6471 -0.5603
   58CHL1   C18 6725   0.893   1.660   9.187 -0.6574  0.0274 -1.2155
   58CHL1  H18A 6726   0.946   1.580   9.131 -0.0304  0.1376 -0.7783
   58CHL1  H18B 6727   0.912   1.754   9.132  1.3815  0.5932  0.3672
   58CHL1  H18C 6728   0.943   1.683   9.283 -2.2755  1.4008 -0.6539
   58CHL1   C12 6729   0.667   1.750   9.261 -0.6867 -0.0171 -0.4917
   58CHL1  H12A 6730   0.681   1.845   9.206 -0.5831  0.6775  0.6910
   58CHL1  H12B 6731   0.558   1.732   9.248 -0.7936 -1.3397  1.6585
   58CHL1   C11 6732   0.711   1.771   9.410  0.2554 -0.4358  0.0671
   58CHL1  H11A 6733   0.814   1.811   9.406 -0.1950  0.8025  0.3795
   58CHL1  H11B 6734   0.661   1.860   9.453  1.4873 -0.3929  1.4644
   58CHL1    C9 6735   0.706   1.643   9.499  0.5028 -0.5210 -0.5188
   58CHL1    H9 6736   0.598   1.616   9.501 -0.1134  1.7640  1.1048
   58CHL1   C10 6737   0.737   1.655   9.647 -0.2683 -0.3453 -0.1605
   58CHL1   C19 6738   0.863   1.745   9.666 -0.5142  0.2344  0.6512
   58CHL1  H19A 6739   0.939   1.716   9.591 -2.0004  0.8148 -1.1798
   58CHL1  H19B 6740   0.845   1.853   9.644 -0.7790 -0.0545 -0.6169
   58CHL1  H19C 6741   0.918   1.731   9.761  0.4375  0.5619  0.1583
   58CHL1    C1 6742   0.623   1.723   9.725  0.3537  0.1943  0.5055
   58CHL1   H1A 6743   0.615   1.831   9.697 -0.6928 -0.1978 -0.7977
   58CHL1   H1B 6744   0.525   1.677   9.701  0.9559  0.3271 -2.5576
   58CHL1    C2 6745   0.634   1.719   9.879  0.4151 -0.6441  0.6482
   58CHL1   H2A 6746   0.537   1.750   9.924  1.0039  1.1207  0.7901
   58CHL1   H2B 6747   0.710   1.797   9.902  0.5819 -0.3966 -0.6823
   58CHL1   C20 6748   0.733   1.648   8.931 -0.2650 -0.3609  0.1802
   58CHL1   H20 6749   0.840   1.673   8.912 -0.0923 -3.1510 -3.5964
   58CHL1   C21 6750   0.659   1.784   8.926  0.5370 -0.1656  0.0438
   58CHL1  H21A 6751   0.549   1.778   8.908  0.7315 -0.1479 -1.2238
   58CHL1  H21B 6752   0.699   1.831   8.834 -0.2011 -2.1437 -1.3634
   58CHL1  H21C 6753   0.686   1.848   9.013  0.0399  1.0429 -0.6650
   58CHL1   C22 6754   0.694   1.562   8.807  0.4749 -0.2880  0.3475
   58CHL1  H22A 6755   0.699   1.627   8.717  0.2522 -2.3890 -1.2357
   58CHL1  H22B 6756   0.765   1.480   8.785  0.1950 -0.3801 -0.2199
   58CHL1   C23 6757   0.544   1.516   8.796 -0.3218 -0.8234 -0.3182
   58CHL1  H23A 6758   0.501   1.462   8.883  0.2765  0.4604  0.8100
   58CHL1  H23B 6759   0.488   1.611   8.786  0.4211  0.0843  2.9292
   58CHL1   C24 6760   0.534   1.418   8.678 -0.1957 -0.4524  0.0163
   58CHL1  H24A 6761   0.604   1.334   8.694 -2.3005 -2.3429 -0.0907
   58CHL1  H24B 6762   0.436   1.366   8.672 -0.6513  0.5143 -1.7047
   58CHL1   C25 6763   0.559   1.479   8.540 -0.1367  0.6141 -0.0857
   58CHL1   H25 6764   0.665   1.508   8.524 -0.0962  0.4239 -0.1650
   58CHL1   C26 6765   0.523   1.367   8.436 -0.3222  0.8270  0.5119
   58CHL1  H26A 6766   0.413   1.354   8.422 -0.4524  2.4178 -0.2726
   58CHL1  H26B 6767   0.562   1.393   8.335 -0.1207  0.4484  0.4905
   58CHL1  H26C 6768   0.574   1.272   8.459 -3.2977 -1.0732 -0.2168
   58CHL1   C27 6769   0.467   1.597   8.505 -0.0088  0.3114  0.2586
   58CHL1  H27A 6770   0.362   1.566   8.523 -0.1008  1.4112  1.8287
   58CHL1  H27B 6771   0.492   1.685   8.567  0.4637  0.7187 -0.4894
   58CHL1  H27C 6772   0.485   1.622   8.398  0.9328 -0.2254  0.2760
   59CHL1    C3 6773   4.768   0.175  10.306 -0.5668 -0.7344 -0.5537
   59CHL1    H3 6774   4.667   0.182  10.260 -0.5240 -1.4773 -0.7798
   59CHL1    O3 6775   4.760   0.150  10.445 -0.6283 -0.0365  0.4974
   59CHL1   H3' 6776   4.845   0.183  10.476 -1.1286  1.6005  0.2645
   59CHL1    C4 6777   4.848   0.060  10.246  0.5291 -0.2096 -1.5895
   59CHL1   H4A 6778   4.947   0.083  10.291 -0.6774  0.8148  0.7320
   59CHL1   H4B 6779   4.813  -0.038  10.283  1.4794 -0.3039 -0.9008
   59CHL1    C5 6780   4.872   0.060  10.097 -0.3690 -0.1262  0.8045
   59CHL1    C6 6781   4.835  -0.047  10.011  0.8020 -0.5988 -0.3184
   59CHL1    H6 6782   4.783  -0.127  10.066  0.1296  0.8253  1.2166
   59CHL1    C7 6783   4.855  -0.043   9.862 -0.4365 -0.4417 -0.3949
   59CHL1   H7A 6784   4.908  -0.129   9.816  1.1598  1.1010 -1.5975
   59CHL1   H7B 6785   4.754  -0.032   9.818 -0.9465  3.6706  1.2850
   59CHL1    C8 6786   4.927   0.083   9.806 -0.1198 -0.2011 -0.0563
   59CHL1    H8 6787   5.035   0.063   9.819 -0.6537 -1.5261  3.4915
   59CHL1   C14 6788   4.900   0.100   9.661  0.3148 -0.2157 -0.5874
   59CHL1   H14 6789   4.790   0.117   9.667  0.2840  0.0908 -1.7336
   59CHL1   C15 6790   4.915  -0.021   9.568  0.6426 -0.2663 -0.0891
   59CHL1  H15A 6791   5.000  -0.087   9.599 -1.4001 -3.7675 -1.3738
   59CHL1  H15B 6792   4.821  -0.078   9.584 -0.5011  1.5239 -0.2546
   59CHL1   C16 6793   4.926   0.047   9.427  0.4627 -0.6054  0.1248
   59CHL1  H16A 6794   5.024   0.013   9.386  0.2834 -1.4599  0.3897
   59CHL1  H16B 6795   4.841   0.019   9.362 -0.2288 -1.3269  1.3029
   59CHL1   C17 6796   4.923   0.201   9.455 -0.0355 -0.0993  0.0699
   59CHL1   H17 6797   4.818   0.237   9.453  0.6146  1.8923 -1.9470
   59CHL1   C13 6798   4.968   0.213   9.598 -0.5284 -0.4324 -0.1062
   59CHL1   C18 6799   5.124   0.180   9.596  0.0538 -0.1356  0.1912
   59CHL1  H18A 6800   5.174   0.267   9.548 -0.0334 -1.5941 -2.7445
   59CHL1  H18B 6801   5.157   0.167   9.701 -0.1061 -0.7502  0.1715
   59CHL1  H18C 6802   5.152   0.092   9.534 -2.0248 -0.1609 -0.7987
   59CHL1   C12 6803   4.938   0.347   9.665  0.0296  0.2521  0.1439
   59CHL1  H12A 6804   4.987   0.431   9.612  0.4738 -1.1199 -1.7218
   59CHL1  H12B 6805   4.829   0.361   9.654  0.1366  0.4596 -0.6870
   59CHL1   C11 6806   4.961   0.331   9.817 -0.6972 -0.9473  0.3400
   59CHL1  H11A 6807   5.071   0.324   9.826 -0.3983  2.5305  0.7589
   59CHL1  H11B 6808   4.926   0.423   9.869 -0.5986 -1.0526  0.5932
   59CHL1    C9 6809   4.897   0.210   9.886  0.6754  0.4205  0.1382
   59CHL1    H9 6810   4.788   0.226   9.877  0.5861 -0.9200 -1.6041
   59CHL1   C10 6811   4.924   0.192  10.039  0.2742 -0.2812 -0.0739
   59CHL1   C19 6812   5.080   0.189  10.061  0.2534  0.0477  0.1699
   59CHL1  H19A 6813   5.128   0.125   9.984 -1.1719  0.2795 -0.9520
   59CHL1  H19B 6814   5.124   0.291  10.061  3.3291 -1.1737 -0.5585
   59CHL1  H19C 6815   5.109   0.150  10.161  1.4168  0.7092  0.1036
   59CHL1    C1 6816   4.850   0.310  10.116 -0.1458 -0.2154  0.0649
   59CHL1   H1A 6817   4.889   0.407  10.078 -1.0095 -0.3756 -1.3242
   59CHL1   H1B 6818   4.744   0.308  10.082  0.4270 -1.1684 -1.8449
   59CHL1    C2 6819   4.842   0.307  10.271  0.2766  0.3973  0.5423
   59CHL1   H2A 6820   4.792   0.399  10.306  2.8842  2.6302 -1.1447
   59CHL1   H2B 6821   4.938   0.309  10.326  0.1664 -1.9302  0.9275
   59CHL1   C20 6822   4.992   0.283   9.340 -0.1613  0.6250  0.3389
   59CHL1   H20 6823   5.103   0.275   9.344 -0.1667  0.1296 -0.3238
   59CHL1   C21 6824   4.945   0.431   9.352  0.0709 -0.0301  0.4899
   59CHL1  H21A 6825   4.835   0.437   9.371  0.1576  1.3619  0.6151
   59CHL1  H21B 6826   4.963   0.487   9.258  0.0034  0.1370  0.5761
   59CHL1  H21C 6827   4.991   0.491   9.433  0.7674 -1.0470  0.8594
   59CHL1   C22 6828   4.956   0.221   9.198 -0.1759 -0.4638 -0.3817
   59CHL1  H22A 6829   5.008   0.123   9.193  1.5486  0.4285 -1.3385
   59CHL1  H22B 6830   4.852   0.201   9.164  0.4925 -2.1137 -1.5837
   59CHL1   C23 6831   5.021   0.310   9.083 -0.3898 -0.0883  0.0850
   59CHL1  H23A 6832   4.976   0.411   9.075  0.1576  0.2340  0.9025
   59CHL1  H23B 6833   5.122   0.333   9.123 -0.2188 -0.7596  0.0378
   59CHL1   C24 6834   5.031   0.230   8.951 -0.0457 -0.4961  0.4640
   59CHL1  H24A 6835   5.061   0.126   8.979  1.3839 -0.7578 -1.7930
   59CHL1  H24B 6836   4.929   0.225   8.909  0.0323  0.4851  0.1326
   59CHL1   C25 6837   5.117   0.306   8.843  0.2392 -0.2550  0.7908
   59CHL1   H25 6838   5.194   0.365   8.898 -0.4879  2.7009 -1.1697
   59CHL1   C26 6839   5.180   0.208   8.750  0.0491  0.0558 -0.1934
   59CHL1  H26A 6840   5.111   0.134   8.703  1.3637 -1.2578 -0.1411
   59CHL1  H26B 6841   5.232   0.256   8.665  1.8364  0.2764  0.9636
   59CHL1  H26C 6842   5.250   0.160   8.822  0.9609  4.1233  1.9145
   59CHL1   C27 6843   5.036   0.403   8.755 -0.5260 -0.0686 -0.2114
   59CHL1  H27A 6844   4.970   0.338   8.693  0.9972 -2.3410  0.4517
   59CHL1  H27B 6845   4.966   0.467   8.813 -3.6801 -1.4872 -2.1745
   59CHL1  H27C 6846   5.106   0.460   8.689  0.4166  0.7773  1.4555
   60CHL1    C3 6847   2.031   4.630  10.149  0.2213  0.1996 -0.9733
   60CHL1    H3 6848   2.083   4.553  10.087 -0.6138  0.1912 -1.6803
   60CHL1    O3 6849   2.042   4.604  10.290 -0.5535 -0.1768 -0.1689
   60CHL1   H3' 6850   2.019   4.687  10.333 -1.7371 -1.2993  1.4801
   60CHL1    C4 6851   2.088   4.769  10.125 -0.1874  0.2147 -0.0842
   60CHL1   H4A 6852   2.049   4.835  10.205  0.1028 -0.6748  0.8075
   60CHL1   H4B 6853   2.196   4.765  10.149 -0.5862  1.0433  2.1096
   60CHL1    C5 6854   2.065   4.799   9.981 -0.5762 -0.0554  0.4692
   60CHL1    C6 6855   2.177   4.816   9.904 -0.3720  0.2173  0.2527
   60CHL1    H6 6856   2.278   4.807   9.948 -0.5324  2.0200  1.0425
   60CHL1    C7 6857   2.160   4.840   9.754  0.5826 -0.1234 -0.6174
   60CHL1   H7A 6858   2.234   4.916   9.719  2.0195 -2.0043 -1.8669
   60CHL1   H7B 6859   2.197   4.751   9.699  0.0672 -0.7959  0.0931
   60CHL1    C8 6860   2.022   4.885   9.713 -0.0086  0.0317 -0.2004
   60CHL1    H8 6861   2.007   4.991   9.741  1.7157  0.1565  0.3667
   60CHL1   C14 6862   2.016   4.875   9.568  0.9112 -0.2307  0.1273
   60CHL1   H14 6863   2.033   4.768   9.544 -0.9425 -0.4936 -0.1297
   60CHL1   C15 6864   2.124   4.943   9.483  0.4821  0.5807 -0.6788
   60CHL1  H15A 6865   2.171   5.030   9.533 -0.0843  1.1583 -1.1429
   60CHL1  H15B 6866   2.209   4.873   9.465 -0.4743 -0.8583  0.1695
   60CHL1   C16 6867   2.053   4.984   9.357  0.2067  0.2142 -0.6077
   60CHL1  H16A 6868   2.047   5.094   9.341  0.1689  1.0482  3.9297
   60CHL1  H16B 6869   2.106   4.944   9.268  1.6149 -0.7821  0.6416
   60CHL1   C17 6870   1.911   4.928   9.359  0.0286  0.3626 -0.7621
   60CHL1   H17 6871   1.916   4.823   9.323 -1.5169 -0.6096  1.6675
   60CHL1   C13 6872   1.878   4.910   9.515  0.5108 -0.1875 -0.0713
   60CHL1   C18 6873   1.840   5.052   9.555  0.2090  0.3104  0.0397
   60CHL1  H18A 6874   1.849   5.070   9.664  2.6452 -0.2723  0.0046
   60CHL1  H18B 6875   1.906   5.123   9.499  0.9053 -0.8126 -0.6131
   60CHL1  H18C 6876   1.733   5.066   9.529  1.1625  3.3984 -3.1244
   60CHL1   C12 6877   1.764   4.808   9.558 -0.8555 -0.4137 -0.2400
   60CHL1  H12A 6878   1.662   4.848   9.539 -0.6638  1.0995  1.6711
   60CHL1  H12B 6879   1.798   4.715   9.507  0.5820 -0.2323  0.3429
   60CHL1   C11 6880   1.773   4.792   9.716  0.2872 -0.7064  0.4575
   60CHL1  H11A 6881   1.724   4.883   9.757  0.0094 -0.5510 -0.2052
   60CHL1  H11B 6882   1.708   4.710   9.751 -0.2463 -1.5685 -2.3061
   60CHL1    C9 6883   1.916   4.788   9.775 -0.4068  1.3737 -0.5239
   60CHL1    H9 6884   1.968   4.691   9.760 -1.0746  0.2961  3.0009
   60CHL1   C10 6885   1.921   4.797   9.927  0.3683  0.3051 -0.3289
   60CHL1   C19 6886   1.847   4.925   9.972  0.0730  0.6030 -0.0936
   60CHL1  H19A 6887   1.853   4.931  10.082  0.0562 -0.5090 -0.0213
   60CHL1  H19B 6888   1.892   5.018   9.932 -1.2410  1.3212  0.0405
   60CHL1  H19C 6889   1.736   4.928   9.962 -0.1291  2.8460  1.9796
   60CHL1    C1 6890   1.850   4.669   9.983  0.4049 -0.0349  0.1493
   60CHL1   H1A 6891   1.741   4.693   9.983  0.0089 -1.7257 -0.0403
   60CHL1   H1B 6892   1.869   4.582   9.916 -1.6380 -1.1321  0.9160
   60CHL1    C2 6893   1.884   4.638  10.127 -0.0078 -0.3090  0.6069
   60CHL1   H2A 6894   1.835   4.543  10.158  0.4254 -0.8099 -0.2002
   60CHL1   H2B 6895   1.834   4.716  10.188 -2.7757 -1.7052  0.2908
   60CHL1   C20 6896   1.811   5.010   9.265  0.1359  0.4528 -0.5121
   60CHL1   H20 6897   1.820   5.115   9.300 -2.1564  0.1434  1.2570
   60CHL1   C21 6898   1.662   4.974   9.297 -0.8220 -0.0550  0.2948
   60CHL1  H21A 6899   1.628   5.021   9.392  2.2574 -0.9481  1.9684
   60CHL1  H21B 6900   1.657   4.864   9.314  4.2099 -1.0999 -2.8631
   60CHL1  H21C 6901   1.586   4.997   9.219 -0.7094 -0.1978  0.1416
   60CHL1   C22 6902   1.840   4.996   9.118 -0.4095  0.3374  0.2629
   60CHL1  H22A 6903   1.945   5.030   9.108 -0.9287  2.4047  1.2700
   60CHL1  H22B 6904   1.837   4.889   9.089  0.5141  0.0705  1.1257
   60CHL1   C23 6905   1.752   5.079   9.026  0.1216  0.5177  0.8678
   60CHL1  H23A 6906   1.651   5.032   9.021  0.5483 -0.3210 -0.2629
   60CHL1  H23B 6907   1.748   5.185   9.058  3.7064  0.3380  2.3424
   60CHL1   C24 6908   1.813   5.071   8.886 -0.1661  0.1638  0.6047
   60CHL1  H24A 6909   1.916   5.112   8.883 -0.0038 -0.2687 -0.6697
   60CHL1  H24B 6910   1.812   4.965   8.850 -0.3064  0.8432 -1.5865
   60CHL1   C25 6911   1.740   5.146   8.778 -0.0879  0.0627  0.3402
   60CHL1   H25 6912   1.633   5.126   8.800 -0.3746 -1.4660 -2.0496
   60CHL1   C26 6913   1.769   5.295   8.794  0.8398  0.4278  0.1882
   60CHL1  H26A 6914   1.873   5.318   8.762  0.5540  1.2491 -0.1794
   60CHL1  H26B 6915   1.701   5.355   8.730  1.1262  0.5120 -0.0417
   60CHL1  H26C 6916   1.747   5.339   8.894 -0.8512 -2.2727  1.1086
   60CHL1   C27 6917   1.774   5.102   8.632  0.5476 -0.4290  0.1941
   60CHL1  H27A 6918   1.745   4.997   8.608 -2.0046  0.4351 -0.8510
   60CHL1  H27B 6919   1.731   5.169   8.554 -1.0915 -1.3597  0.2534
   60CHL1  H27C 6920   1.884   5.108   8.614  0.3309 -0.5244 -1.2722
   61CHL1    C3 6921   1.989   1.471  10.188 -0.0549 -0.3792 -0.5061
   61CHL1    H3 6922   1.933   1.556  10.144  0.2890 -0.0071 -0.2205
   61CHL1    O3 6923   1.978   1.459  10.326 -0.2876  0.2362  0.5471
   61CHL1   H3' 6924   2.052   1.403  10.353  0.3853  0.8230 -0.0211
   61CHL1    C4 6925   1.925   1.343  10.124 -0.4777  0.0426  0.2505
   61CHL1   H4A 6926   1.980   1.252  10.157  0.8544  0.1532 -1.5149
   61CHL1   H4B 6927   1.823   1.343  10.167 -0.9310  0.9289 -0.7960
   61CHL1    C5 6928   1.931   1.340   9.972  0.1679  1.1833 -0.3515
   61CHL1    C6 6929   1.821   1.330   9.893  0.0434 -0.1309  0.3085
   61CHL1    H6 6930   1.717   1.331   9.930 -0.3377  1.9635 -0.7009
   61CHL1    C7 6931   1.830   1.328   9.742 -0.6108  0.3578 -0.6930
   61CHL1   H7A 6932   1.767   1.241   9.713  1.6092 -1.0242 -1.7174
   61CHL1   H7B 6933   1.777   1.417   9.702  1.9729  1.1956 -2.5372
   61CHL1    C8 6934   1.972   1.316   9.693 -0.2168  0.1888  0.1073
   61CHL1    H8 6935   1.999   1.209   9.707  1.8219  0.3347 -2.0881
   61CHL1   C14 6936   1.984   1.341   9.543  0.2466  0.9802  0.0205
   61CHL1   H14 6937   1.950   1.447   9.534 -0.7693  0.6788  0.1953
   61CHL1   C15 6938   1.906   1.246   9.453  0.7962 -0.8714 -0.5607
   61CHL1  H15A 6939   1.928   1.141   9.482  0.7040 -0.5738  0.6202
   61CHL1  H15B 6940   1.799   1.275   9.455  1.3199  1.1802  1.0838
   61CHL1   C16 6941   1.959   1.280   9.314  0.1830 -0.2094  0.1357
   61CHL1  H16A 6942   1.963   1.188   9.252  0.2376  0.5156 -0.9773
   61CHL1  H16B 6943   1.890   1.346   9.255  0.0395 -0.1446  0.3757
   61CHL1   C17 6944   2.085   1.366   9.339  0.2441  0.0650  0.0883
   61CHL1   H17 6945   2.051   1.471   9.335 -2.0605 -0.4943  2.3334
   61CHL1   C13 6946   2.122   1.342   9.488  0.1038 -0.1798  0.3421
   61CHL1   C18 6947   2.187   1.205   9.484  0.1015 -0.1475 -1.0047
   61CHL1  H18A 6948   2.135   1.130   9.420  0.5106 -0.0122 -1.4972
   61CHL1  H18B 6949   2.287   1.221   9.440 -1.0170 -0.0511 -3.7484
   61CHL1  H18C 6950   2.192   1.155   9.584  2.1268  0.7375 -0.6257
   61CHL1   C12 6951   2.205   1.449   9.560  1.0223 -0.1599 -0.0559
   61CHL1  H12A 6952   2.308   1.433   9.521  1.1023  0.5102 -0.1301
   61CHL1  H12B 6953   2.159   1.550   9.545  0.9906 -0.1134  0.3568
   61CHL1   C11 6954   2.209   1.418   9.710  0.8632 -0.6257 -0.7574
   61CHL1  H11A 6955   2.256   1.320   9.733 -0.7745 -0.9699  1.4707
   61CHL1  H11B 6956   2.273   1.497   9.756  0.0935 -0.0677 -0.6254
   61CHL1    C9 6957   2.074   1.400   9.773 -0.4576 -0.2508  0.5658
   61CHL1    H9 6958   2.025   1.500   9.768  0.6604  0.3362  0.9696
   61CHL1   C10 6959   2.073   1.358   9.918 -0.7551  0.0649 -1.0380
   61CHL1   C19 6960   2.136   1.219   9.945 -0.3359  0.4395  0.0025
   61CHL1  H19A 6961   2.091   1.137   9.884  2.3281 -0.3173 -1.0856
   61CHL1  H19B 6962   2.245   1.218   9.924 -0.2377  3.2368 -0.0780
   61CHL1  H19C 6963   2.132   1.186  10.051  0.9750  2.2017  0.6647
   61CHL1    C1 6964   2.151   1.468   9.999  0.0620 -0.2718 -0.2906
   61CHL1   H1A 6965   2.259   1.452   9.978  0.0347 -0.7328 -0.0862
   61CHL1   H1B 6966   2.118   1.571   9.973 -0.8993 -0.1210  1.4368
   61CHL1    C2 6967   2.131   1.471  10.152 -0.6062 -0.5266  0.8271
   61CHL1   H2A 6968   2.182   1.564  10.185 -1.4981  0.4413 -0.3913
   61CHL1   H2B 6969   2.178   1.380  10.195  0.0105 -1.0936 -0.9525
   61CHL1   C20 6970   2.192   1.364   9.230 -0.9430  0.5533  1.2767
   61CHL1   H20 6971   2.241   1.264   9.235  1.1729  1.3042 -1.3830
   61CHL1   C21 6972   2.293   1.482   9.256 -0.4106  0.9904  0.0502
   61CHL1  H21A 6973   2.370   1.465   9.335  0.8547  1.1380 -1.1063
   61CHL1  H21B 6974   2.245   1.580   9.274 -0.4967  0.8986  0.3191
   61CHL1  H21C 6975   2.354   1.505   9.166 -0.4019  3.4386  0.6210
   61CHL1   C22 6976   2.142   1.380   9.085 -0.4658  0.0668  0.4724
   61CHL1  H22A 6977   2.060   1.309   9.059 -0.3452 -0.3483  1.1803
   61CHL1  H22B 6978   2.112   1.484   9.062  0.9948 -0.0615 -2.4151
   61CHL1   C23 6979   2.250   1.349   8.983 -0.1987  0.1202  0.0142
   61CHL1  H23A 6980   2.326   1.428   9.002 -0.1204  0.2448 -0.8003
   61CHL1  H23B 6981   2.290   1.247   9.001  2.2202  1.0776  0.3634
   61CHL1   C24 6982   2.200   1.356   8.840  0.2285  0.3425 -0.8729
   61CHL1  H24A 6983   2.205   1.257   8.791 -0.9418  0.3698 -1.0686
   61CHL1  H24B 6984   2.091   1.376   8.838  0.0506 -0.6355 -2.5899
   61CHL1   C25 6985   2.276   1.448   8.748 -0.0021 -0.2986 -0.5615
   61CHL1   H25 6986   2.290   1.549   8.792  1.8548 -0.9838  0.5253
   61CHL1   C26 6987   2.419   1.405   8.723  0.8212 -0.1220  0.9170
   61CHL1  H26A 6988   2.424   1.307   8.671 -0.4070  0.5348 -0.5156
   61CHL1  H26B 6989   2.463   1.487   8.662 -0.0900 -0.2529  0.0598
   61CHL1  H26C 6990   2.476   1.380   8.815  1.4251  0.0320  0.5898
   61CHL1   C27 6991   2.199   1.463   8.620  0.6617  0.0052 -0.0923
   61CHL1  H27A 6992   2.088   1.472   8.626  0.7469  0.0577  1.7152
   61CHL1  H27B 6993   2.235   1.546   8.556  0.3955  0.2734  0.1079
   61CHL1  H27C 6994   2.218   1.369   8.562  0.9373 -0.9078  1.4159
   62CHL1    C3 6995   4.232   2.889   9.858 -0.3285  0.7260  0.5148
   62CHL1    H3 6996   4.137   2.831   9.858 -0.5455  1.0763  0.3468
   62CHL1    O3 6997   4.265   2.920   9.998  0.1729 -0.4986  0.6945
   62CHL1   H3' 6998   4.331   2.989   9.993 -1.6282  1.2421 -0.4916
   62CHL1    C4 6999   4.342   2.795   9.799  0.1195 -0.2561  0.3106
   62CHL1   H4A 7000   4.441   2.844   9.797  0.4197 -0.8512 -1.7611
   62CHL1   H4B 7001   4.335   2.708   9.868  0.0589 -3.0888 -2.9918
   62CHL1    C5 7002   4.315   2.747   9.658 -0.3467 -0.4212 -0.9822
   62CHL1    C6 7003   4.295   2.617   9.631 -0.0258  0.0265 -0.1568
   62CHL1    H6 7004   4.300   2.538   9.708 -1.2565  1.0868  1.0496
   62CHL1    C7 7005   4.256   2.566   9.500 -0.5698 -0.2770  0.1429
   62CHL1   H7A 7006   4.312   2.473   9.477  0.1450 -0.4734  2.3628
   62CHL1   H7B 7007   4.151   2.532   9.506 -0.3445 -0.8020  1.6178
   62CHL1    C8 7008   4.285   2.672   9.380  0.3652 -0.0703  0.2840
   62CHL1    H8 7009   4.394   2.682   9.367  0.2588  0.5045 -0.1982
   62CHL1   C14 7010   4.220   2.624   9.251  0.7526 -0.3602 -0.1657
   62CHL1   H14 7011   4.111   2.637   9.267  1.0789  0.5472  1.6460
   62CHL1   C15 7012   4.240   2.481   9.204 -0.1727  0.1807  0.3530
   62CHL1  H15A 7013   4.350   2.470   9.208 -0.1164  0.9853  1.9273
   62CHL1  H15B 7014   4.199   2.392   9.257 -0.7187  0.7250  0.8605
   62CHL1   C16 7015   4.172   2.484   9.065 -0.7344  0.0929 -0.3822
   62CHL1  H16A 7016   4.246   2.432   9.000 -0.1412  1.5544 -0.9100
   62CHL1  H16B 7017   4.070   2.441   9.069 -0.7660  0.2743  1.3257
   62CHL1   C17 7018   4.144   2.631   9.024  0.1816  0.1676 -0.2168
   62CHL1   H17 7019   4.035   2.649   9.037 -0.1550 -0.4385 -1.9008
   62CHL1   C13 7020   4.232   2.713   9.128  0.8547  0.0839 -0.8448
   62CHL1   C18 7021   4.380   2.727   9.085  0.5505 -0.2245  0.0376
   62CHL1  H18A 7022   4.423   2.627   9.062  1.6084  0.0772  0.6690
   62CHL1  H18B 7023   4.400   2.797   9.001 -0.1854 -0.5848 -0.4583
   62CHL1  H18C 7024   4.442   2.761   9.170 -0.8931  2.8934 -0.0308
   62CHL1   C12 7025   4.177   2.859   9.161  0.6181 -0.1706  0.3603
   62CHL1  H12A 7026   4.206   2.931   9.082 -2.3542  1.1085  0.2758
   62CHL1  H12B 7027   4.067   2.855   9.180  0.7133  0.7446  1.2125
   62CHL1   C11 7028   4.237   2.914   9.295 -0.0376 -0.2119 -0.1428
   62CHL1  H11A 7029   4.345   2.928   9.272  0.4788 -4.3433 -0.9625
   62CHL1  H11B 7030   4.179   3.006   9.316 -1.1638 -1.3492  2.0218
   62CHL1    C9 7031   4.228   2.817   9.420 -0.1201 -0.7056 -0.6339
   62CHL1    H9 7032   4.119   2.800   9.425 -0.7280  1.9170 -2.6379
   62CHL1   C10 7033   4.286   2.864   9.554 -0.5443  1.1091  0.5235
   62CHL1   C19 7034   4.423   2.935   9.528 -0.2868 -0.0433 -0.2095
   62CHL1  H19A 7035   4.391   3.026   9.472 -0.9479  0.2610  0.6424
   62CHL1  H19B 7036   4.462   2.968   9.626 -0.2951  2.4338 -0.9662
   62CHL1  H19C 7037   4.500   2.869   9.483  1.4878  0.3856  2.0122
   62CHL1    C1 7038   4.183   2.959   9.615 -0.8889 -0.0638  1.0316
   62CHL1   H1A 7039   4.172   3.048   9.550  0.3001 -0.4962  0.2010
   62CHL1   H1B 7040   4.081   2.915   9.610 -0.5657 -1.0603  2.5016
   62CHL1    C2 7041   4.213   3.003   9.757 -0.1316 -0.3672  0.7918
   62CHL1   H2A 7042   4.127   3.068   9.782  1.7490  2.6962 -0.1522
   62CHL1   H2B 7043   4.303   3.068   9.765 -1.2482  1.5723 -1.3565
   62CHL1   C20 7044   4.173   2.644   8.873 -0.3931  0.7427  0.3186
   62CHL1   H20 7045   4.280   2.622   8.853 -1.2337 -1.4775 -2.3229
   62CHL1   C21 7046   4.137   2.786   8.832  0.2635 -0.2612  0.3130
   62CHL1  H21A 7047   4.138   2.796   8.722 -0.1708 -3.1093 -0.0148
   62CHL1  H21B 7048   4.196   2.868   8.879 -0.0314  0.8221 -1.1431
   62CHL1  H21C 7049   4.034   2.812   8.867  0.9963 -0.2818  2.6929
   62CHL1   C22 7050   4.093   2.545   8.790  0.2235 -0.2802  0.7162
   62CHL1  H22A 7051   4.087   2.447   8.842 -0.7490  0.8204  2.7919
   62CHL1  H22B 7052   3.987   2.576   8.775 -0.6171 -2.5608  1.4727
   62CHL1   C23 7053   4.162   2.511   8.659  0.8748  0.3778  0.4383
   62CHL1  H23A 7054   4.213   2.601   8.620  1.0919  0.6754  1.3902
   62CHL1  H23B 7055   4.236   2.430   8.677 -0.1614 -0.9212 -0.8631
   62CHL1   C24 7056   4.063   2.445   8.553 -0.7361  0.2739 -0.5938
   62CHL1  H24A 7057   4.004   2.368   8.607 -0.3707 -0.3186 -1.0269
   62CHL1  H24B 7058   3.986   2.524   8.534 -2.5304 -0.8186  1.7139
   62CHL1   C25 7059   4.133   2.399   8.429  0.0897 -0.2875  0.4753
   62CHL1   H25 7060   4.187   2.481   8.378 -4.7489  2.3188 -0.9911
   62CHL1   C26 7061   4.249   2.294   8.461  0.3395  0.9234 -0.0212
   62CHL1  H26A 7062   4.325   2.354   8.516 -1.2736  2.0874  0.9867
   62CHL1  H26B 7063   4.203   2.207   8.511  1.7251 -0.1610 -0.5406
   62CHL1  H26C 7064   4.287   2.262   8.361 -1.9367 -1.2195 -0.2844
   62CHL1   C27 7065   4.025   2.341   8.343  0.4851 -0.6137 -0.1700
   62CHL1  H27A 7066   3.932   2.401   8.342  1.3706  0.8044 -0.3536
   62CHL1  H27B 7067   4.066   2.332   8.240  1.8932 -2.3152  0.4827
   62CHL1  H27C 7068   3.995   2.237   8.367 -1.0094  0.2326  1.8950
   63CHL1    C3 7069   6.588   2.397  10.235  0.3691  0.1217  0.4848
   63CHL1    H3 7070   6.664   2.316  10.225  1.8970  1.7220 -1.5824
   63CHL1    O3 7071   6.551   2.441  10.364 -0.4432 -0.1101 -0.5661
   63CHL1   H3' 7072   6.622   2.493  10.403  0.0384 -0.7705 -0.5595
   63CHL1    C4 7073   6.636   2.512  10.146 -0.3623 -0.1444 -1.2025
   63CHL1   H4A 7074   6.554   2.586  10.136 -1.5501 -1.1301  0.5238
   63CHL1   H4B 7075   6.721   2.561  10.198 -0.7690 -1.2260  0.5770
   63CHL1    C5 7076   6.663   2.455  10.010  0.5723  0.5938 -0.7906
   63CHL1    C6 7077   6.784   2.464   9.951  0.1849 -0.1645  0.2065
   63CHL1    H6 7078   6.860   2.519  10.008 -1.6895  0.7430  1.9837
   63CHL1    C7 7079   6.821   2.428   9.810 -0.0089  0.6886  0.0903
   63CHL1   H7A 7080   6.881   2.511   9.765 -0.0276 -0.0971 -1.4418
   63CHL1   H7B 7081   6.876   2.332   9.812 -0.3893  0.4806  0.6336
   63CHL1    C8 7082   6.695   2.409   9.728  0.6087  0.1766 -0.1437
   63CHL1    H8 7083   6.656   2.512   9.711 -0.2462 -0.0663  0.2718
   63CHL1   C14 7084   6.731   2.336   9.595  0.5343  0.2638 -0.1988
   63CHL1   H14 7085   6.775   2.244   9.640  0.8995  1.3739  1.8729
   63CHL1   C15 7086   6.845   2.391   9.508 -0.2480  0.2072  0.1795
   63CHL1  H15A 7087   6.824   2.497   9.481  1.1215  0.7247  1.0293
   63CHL1  H15B 7088   6.945   2.376   9.552  1.4741  2.2116 -2.7230
   63CHL1   C16 7089   6.836   2.320   9.374 -0.2381  0.4717 -0.4985
   63CHL1  H16A 7090   6.835   2.397   9.293  2.9491  1.0421 -0.1299
   63CHL1  H16B 7091   6.915   2.244   9.356 -1.4342 -1.1542  0.8031
   63CHL1   C17 7092   6.695   2.245   9.384 -0.2518  0.4555  0.7726
   63CHL1   H17 7093   6.727   2.147   9.423  0.2905 -0.7895 -2.4896
   63CHL1   C13 7094   6.621   2.301   9.508  0.1564  0.3961 -0.6783
   63CHL1   C18 7095   6.541   2.425   9.471  0.4530 -0.8414 -0.6624
   63CHL1  H18A 7096   6.608   2.500   9.424  0.6446  0.8441  2.1102
   63CHL1  H18B 7097   6.448   2.407   9.413 -1.4929  1.8895  1.3389
   63CHL1  H18C 7098   6.511   2.479   9.563  1.6764 -0.1195 -0.6704
   63CHL1   C12 7099   6.537   2.196   9.578 -0.0806 -0.1784 -1.1660
   63CHL1  H12A 7100   6.446   2.175   9.519 -0.8638  1.5125 -0.6175
   63CHL1  H12B 7101   6.607   2.110   9.583  1.0207  0.5668 -2.8609
   63CHL1   C11 7102   6.478   2.257   9.705 -0.0917  0.0459 -0.5161
   63CHL1  H11A 7103   6.401   2.332   9.678 -0.3000 -0.3206 -0.9650
   63CHL1  H11B 7104   6.423   2.181   9.766 -0.3826 -0.4252 -1.3561
   63CHL1    C9 7105   6.587   2.320   9.799 -0.4136 -0.2190 -0.0574
   63CHL1    H9 7106   6.646   2.229   9.824  1.1566  0.0163 -2.6619
   63CHL1   C10 7107   6.542   2.387   9.933  0.2075  0.6542 -0.1995
   63CHL1   C19 7108   6.429   2.485   9.898 -0.5687  0.1979 -0.4185
   63CHL1  H19A 7109   6.407   2.553   9.983  1.8310 -0.1445  0.5447
   63CHL1  H19B 7110   6.447   2.557   9.816  0.1846 -0.2673 -0.6735
   63CHL1  H19C 7111   6.340   2.419   9.888  0.2128 -1.0199  0.3570
   63CHL1    C1 7112   6.485   2.276  10.037  0.3173  0.1834  0.0299
   63CHL1   H1A 7113   6.392   2.244   9.985  1.1574 -0.4316 -1.1627
   63CHL1   H1B 7114   6.564   2.198  10.043  2.0444  1.8320 -0.3370
   63CHL1    C2 7115   6.459   2.336  10.178 -0.5131  0.2254  0.5291
   63CHL1   H2A 7116   6.409   2.260  10.242  2.6363 -0.0285  2.9126
   63CHL1   H2B 7117   6.380   2.414  10.183 -3.0747 -2.2662  1.8976
   63CHL1   C20 7118   6.620   2.224   9.255 -0.1495  0.0606  0.5841
   63CHL1   H20 7119   6.518   2.195   9.287 -0.3794  1.1636  0.9264
   63CHL1   C21 7120   6.693   2.117   9.177 -0.0303 -0.1587 -0.5831
   63CHL1  H21A 7121   6.704   2.027   9.241  2.9864  0.8684  0.5338
   63CHL1  H21B 7122   6.794   2.147   9.141  0.3174 -0.4769  0.1122
   63CHL1  H21C 7123   6.633   2.081   9.090 -0.0240 -0.7038 -0.3635
   63CHL1   C22 7124   6.599   2.343   9.158 -0.1619 -0.7127  1.0581
   63CHL1  H22A 7125   6.593   2.441   9.209 -0.4971 -0.7937  1.1760
   63CHL1  H22B 7126   6.697   2.357   9.108 -0.1799 -2.6943  0.3370
   63CHL1   C23 7127   6.484   2.340   9.055 -0.2117  0.1398 -0.7959
   63CHL1  H23A 7128   6.386   2.335   9.108  0.1359  0.3052 -0.1283
   63CHL1  H23B 7129   6.484   2.438   9.003 -0.5516  0.6640  0.1588
   63CHL1   C24 7130   6.479   2.237   8.941 -0.5389  0.1814  0.3023
   63CHL1  H24A 7131   6.568   2.258   8.879 -1.2894  2.2789 -0.1821
   63CHL1  H24B 7132   6.474   2.129   8.966  0.5784  0.1758  0.5304
   63CHL1   C25 7133   6.364   2.257   8.842 -0.1743 -0.3594  0.2006
   63CHL1   H25 7134   6.273   2.253   8.905 -0.3776 -0.1264 -0.0725
   63CHL1   C26 7135   6.368   2.391   8.769 -0.2329  0.5087 -0.3712
   63CHL1  H26A 7136   6.463   2.416   8.717  1.1336 -0.9768  1.2353
   63CHL1  H26B 7137   6.295   2.388   8.686 -0.8147 -0.0160  0.1480
   63CHL1  H26C 7138   6.329   2.477   8.827 -0.5720  1.4998 -2.0186
   63CHL1   C27 7139   6.352   2.146   8.741 -0.3334 -0.6126 -0.5255
   63CHL1  H27A 7140   6.382   2.047   8.783 -1.5039 -0.2246  1.3141
   63CHL1  H27B 7141   6.252   2.135   8.693 -1.3350 -1.4898  1.6391
   63CHL1  H27C 7142   6.425   2.173   8.662  1.3686  0.1412  1.2256
   64CHL1    C3 7143   3.340   3.911  10.011 -0.2782 -0.0779  0.3220
   64CHL1    H3 7144   3.341   3.800  10.009  1.7919 -0.1306  1.2234
   64CHL1    O3 7145   3.312   3.942  10.143 -0.0375 -0.0053  0.6296
   64CHL1   H3' 7146   3.390   3.919  10.195 -0.1956  0.5558  1.1222
   64CHL1    C4 7147   3.480   3.958   9.965  0.2100 -0.0686  0.7366
   64CHL1   H4A 7148   3.492   4.066   9.989 -1.0833  0.3921 -0.5398
   64CHL1   H4B 7149   3.557   3.902  10.022  1.3665  1.2666  0.5621
   64CHL1    C5 7150   3.492   3.933   9.818  0.4735 -0.4316  0.3152
   64CHL1    C6 7151   3.596   3.862   9.766 -0.1817  0.0330 -0.2172
   64CHL1    H6 7152   3.665   3.827   9.844 -1.2317 -0.8988  0.3144
   64CHL1    C7 7153   3.622   3.846   9.619 -0.8269 -0.6747 -0.0552
   64CHL1   H7A 7154   3.731   3.849   9.595  0.0180 -0.6098  3.2668
   64CHL1   H7B 7155   3.602   3.744   9.581  1.6457 -0.9404 -0.8362
   64CHL1    C8 7156   3.547   3.954   9.535 -0.5074  0.0004  1.1086
   64CHL1    H8 7157   3.593   4.055   9.537  1.5736 -0.8247 -0.7346
   64CHL1   C14 7158   3.552   3.914   9.385  0.1773  0.2143 -0.2758
   64CHL1   H14 7159   3.500   3.815   9.385  0.2468  0.1741  0.8432
   64CHL1   C15 7160   3.683   3.889   9.315 -0.9170 -0.2234 -0.0850
   64CHL1  H15A 7161   3.768   3.955   9.343 -0.4698 -1.0361  0.5349
   64CHL1  H15B 7162   3.716   3.784   9.330  0.1118  0.1707  0.5060
   64CHL1   C16 7163   3.656   3.909   9.164 -0.1261  0.0100 -0.3978
   64CHL1  H16A 7164   3.709   3.991   9.111 -0.4815 -0.2760 -1.2008
   64CHL1  H16B 7165   3.682   3.819   9.105  0.6244  0.8010 -1.2943
   64CHL1   C17 7166   3.507   3.942   9.155 -0.9268 -0.6908 -0.2471
   64CHL1   H17 7167   3.473   3.837   9.140  0.2641 -1.2302  0.6786
   64CHL1   C13 7168   3.474   4.003   9.291  0.0819  0.4200  0.1855
   64CHL1   C18 7169   3.528   4.152   9.290 -0.5546  0.2967  0.1983
   64CHL1  H18A 7170   3.447   4.215   9.247 -1.1474  0.4337  1.4634
   64CHL1  H18B 7171   3.544   4.194   9.391 -0.3009 -0.3335  0.4227
   64CHL1  H18C 7172   3.629   4.164   9.244 -0.3718  2.0650  0.9697
   64CHL1   C12 7173   3.325   4.003   9.335 -0.6912  0.1658 -0.0322
   64CHL1  H12A 7174   3.271   4.078   9.274  0.8297 -0.0351 -1.7284
   64CHL1  H12B 7175   3.280   3.902   9.321 -0.5509 -0.1511  1.6121
   64CHL1   C11 7176   3.305   4.036   9.479  0.0280 -0.5521 -0.2866
   64CHL1  H11A 7177   3.329   4.144   9.484  1.2430 -0.8628  1.9137
   64CHL1  H11B 7178   3.199   4.028   9.511  0.5070 -0.7742  1.3780
   64CHL1    C9 7179   3.401   3.961   9.576  0.3681 -0.1500  0.4292
   64CHL1    H9 7180   3.374   3.853   9.568 -0.2541  0.0999 -1.4136
   64CHL1   C10 7181   3.391   4.006   9.730  0.4298  0.8959 -0.5339
   64CHL1   C19 7182   3.426   4.155   9.743  0.0171 -0.4276 -0.0026
   64CHL1  H19A 7183   3.415   4.179   9.851 -1.8600 -1.1580  0.0221
   64CHL1  H19B 7184   3.532   4.171   9.714 -0.6757  1.0941 -1.8740
   64CHL1  H19C 7185   3.365   4.224   9.682  0.0092 -0.2387  0.2176
   64CHL1    C1 7186   3.250   3.965   9.770 -0.3944 -0.0978 -0.2293
   64CHL1   H1A 7187   3.172   4.029   9.724 -0.5375 -0.1181 -0.0171
   64CHL1   H1B 7188   3.235   3.861   9.732 -0.4681 -1.4336  3.1198
   64CHL1    C2 7189   3.223   3.964   9.919 -0.2514  0.7166 -0.1212
   64CHL1   H2A 7190   3.130   3.916   9.957  0.6366  0.2594  1.5509
   64CHL1   H2B 7191   3.205   4.067   9.956 -0.3683  0.4588  0.5530
   64CHL1   C20 7192   3.474   4.020   9.030  0.3131  0.1526 -0.2978
   64CHL1   H20 7193   3.507   4.125   9.046  1.4570 -0.1429 -0.5990
   64CHL1   C21 7194   3.316   4.021   9.014  0.0996 -0.0084  0.2807
   64CHL1  H21A 7195   3.270   3.921   9.029 -1.5486  0.6378 -0.2948
   64CHL1  H21B 7196   3.280   4.067   8.920 -2.9256 -0.7863  0.9496
   64CHL1  H21C 7197   3.273   4.083   9.096 -0.1751 -2.4995  2.1684
   64CHL1   C22 7198   3.543   3.972   8.902 -0.9930 -1.3044  0.3704
   64CHL1  H22A 7199   3.492   4.043   8.834 -4.0607 -0.0702  3.5969
   64CHL1  H22B 7200   3.648   4.007   8.903 -1.6756  0.9307  1.3296
   64CHL1   C23 7201   3.523   3.832   8.857  0.4245  0.1540 -0.7036
   64CHL1  H23A 7202   3.559   3.757   8.931 -0.2361  2.9061  2.6981
   64CHL1  H23B 7203   3.414   3.815   8.848  0.5658 -0.0120 -2.4050
   64CHL1   C24 7204   3.583   3.810   8.717  0.2654 -0.2119  0.0430
   64CHL1  H24A 7205   3.521   3.875   8.651  0.9042  0.9882  0.5841
   64CHL1  H24B 7206   3.687   3.848   8.704 -0.2826  1.0588 -0.8251
   64CHL1   C25 7207   3.595   3.663   8.668  0.1527  0.6110 -0.2492
   64CHL1   H25 7208   3.672   3.600   8.718 -0.6109 -0.7297 -0.7160
   64CHL1   C26 7209   3.457   3.597   8.674 -0.5320  0.0136 -0.2637
   64CHL1  H26A 7210   3.430   3.583   8.780  1.8043 -0.7495  0.2951
   64CHL1  H26B 7211   3.372   3.650   8.626 -0.5518 -0.8148 -1.1792
   64CHL1  H26C 7212   3.463   3.496   8.626 -0.2762  0.4344 -1.1463
   64CHL1   C27 7213   3.641   3.678   8.523  0.3886  0.4483 -0.1542
   64CHL1  H27A 7214   3.628   3.578   8.477 -0.6283  0.1768  0.7142
   64CHL1  H27B 7215   3.581   3.752   8.466 -0.4614  1.5042  2.0100
   64CHL1  H27C 7216   3.749   3.704   8.515  0.7121 -0.6948  0.4007
   65CHL1    C3 7217   2.221   2.526  10.053 -0.6239  0.6066  0.2033
   65CHL1    H3 7218   2.187   2.421  10.039 -1.0693  0.5049  1.9021
   65CHL1    O3 7219   2.246   2.567  10.181 -0.3010  0.2597  0.1916
   65CHL1   H3' 7220   2.224   2.660  10.192  0.3196  0.4288  0.0268
   65CHL1    C4 7221   2.348   2.557   9.977  0.2255  0.7602 -0.0881
   65CHL1   H4A 7222   2.369   2.665   9.991  0.6033  0.6602  0.1280
   65CHL1   H4B 7223   2.439   2.504  10.013 -1.9401 -3.0320  0.3300
   65CHL1    C5 7224   2.339   2.531   9.829  0.6389  0.2722  0.2303
   65CHL1    C6 7225   2.424   2.442   9.773  0.3404  0.4281  0.8044
   65CHL1    H6 7226   2.504   2.404   9.839  1.7408  1.7418 -0.0601
   65CHL1    C7 7227   2.428   2.409   9.629 -0.2420 -0.2264 -0.0414
   65CHL1   H7A 7228   2.535   2.396   9.601  0.4886 -3.1724  3.4300
   65CHL1   H7B 7229   2.385   2.306   9.624 -0.8878 -0.1035  1.9893
   65CHL1    C8 7230   2.339   2.506   9.549  0.4501  0.4485  0.5415
   65CHL1    H8 7231   2.398   2.600   9.544  3.1439 -1.1662  0.2409
   65CHL1   C14 7232   2.303   2.463   9.407 -0.4168  0.0179  0.4323
   65CHL1   H14 7233   2.241   2.372   9.425 -0.0845 -0.5026 -0.9299
   65CHL1   C15 7234   2.421   2.426   9.312  0.2845  0.1219  1.0763
   65CHL1  H15A 7235   2.502   2.502   9.315  0.2832  0.1319  0.8529
   65CHL1  H15B 7236   2.460   2.324   9.335 -1.8991 -1.0564 -0.0896
   65CHL1   C16 7237   2.359   2.419   9.171 -0.1347 -0.5390 -0.2239
   65CHL1  H16A 7238   2.412   2.481   9.097  0.5234  1.6646  1.9803
   65CHL1  H16B 7239   2.344   2.312   9.144  0.1630 -1.3511  2.4795
   65CHL1   C17 7240   2.218   2.484   9.183 -0.4298  0.2818 -0.2775
   65CHL1   H17 7241   2.147   2.401   9.206 -0.4126  0.7943  1.8867
   65CHL1   C13 7242   2.224   2.561   9.321  0.0859  1.1060 -0.2364
   65CHL1   C18 7243   2.298   2.699   9.302 -0.1303 -0.1225 -0.3645
   65CHL1  H18A 7244   2.299   2.758   9.396 -0.0939 -1.6437  0.6224
   65CHL1  H18B 7245   2.401   2.690   9.261 -0.3185  0.6069 -1.0316
   65CHL1  H18C 7246   2.248   2.755   9.220  1.5434 -0.9780 -2.0628
   65CHL1   C12 7247   2.090   2.573   9.387 -0.0444  0.2636 -0.1497
   65CHL1  H12A 7248   2.016   2.643   9.344 -2.7630 -0.6960  2.5510
   65CHL1  H12B 7249   2.034   2.478   9.376 -1.7032  0.8368  2.4642
   65CHL1   C11 7250   2.099   2.617   9.530  0.4082  0.1102  0.0187
   65CHL1  H11A 7251   2.124   2.725   9.527  0.5086  0.1786  1.8218
   65CHL1  H11B 7252   2.006   2.613   9.591  0.5074  1.0078  0.2440
   65CHL1    C9 7253   2.204   2.544   9.621 -0.0229  0.1891  0.9614
   65CHL1    H9 7254   2.162   2.444   9.641  2.1445 -0.9118  0.3270
   65CHL1   C10 7255   2.228   2.610   9.753  0.4340 -0.0735 -0.3880
   65CHL1   C19 7256   2.281   2.758   9.734 -0.1344  0.2545  1.3920
   65CHL1  H19A 7257   2.352   2.789   9.813 -0.2054 -0.5523  1.7916
   65CHL1  H19B 7258   2.346   2.756   9.645 -1.6759  3.2026  0.0630
   65CHL1  H19C 7259   2.199   2.833   9.724 -0.5381 -0.3281  0.1671
   65CHL1    C1 7260   2.098   2.593   9.836  0.1792 -0.1632 -0.2281
   65CHL1   H1A 7261   2.032   2.676   9.803 -1.3302 -0.9888  0.5961
   65CHL1   H1B 7262   2.058   2.495   9.803 -0.7663 -0.0793  0.6354
   65CHL1    C2 7263   2.104   2.600   9.992  0.3793 -0.2181  0.5182
   65CHL1   H2A 7264   2.009   2.571  10.042 -1.0507  1.6331 -0.9246
   65CHL1   H2B 7265   2.112   2.707  10.021  1.2957 -0.2548  0.4175
   65CHL1   C20 7266   2.165   2.547   9.054 -0.5836  0.5008 -0.1006
   65CHL1   H20 7267   2.222   2.640   9.032 -0.9050  0.3404 -1.7148
   65CHL1   C21 7268   2.022   2.598   9.065  0.1055 -1.0550 -0.5039
   65CHL1  H21A 7269   2.023   2.690   9.128  1.9694 -1.4919  0.1649
   65CHL1  H21B 7270   1.949   2.523   9.102 -0.9727  0.5864  0.8387
   65CHL1  H21C 7271   1.983   2.638   8.969 -0.7912  0.0002  0.2632
   65CHL1   C22 7272   2.185   2.449   8.934 -0.5796 -0.0470 -0.6463
   65CHL1  H22A 7273   2.218   2.347   8.963 -2.6237 -0.1989  1.4495
   65CHL1  H22B 7274   2.091   2.439   8.875 -1.1765  1.9735 -0.1238
   65CHL1   C23 7275   2.285   2.510   8.833  0.1227  0.2701 -0.4498
   65CHL1  H23A 7276   2.247   2.614   8.823 -2.4737 -0.4711  0.9778
   65CHL1  H23B 7277   2.386   2.523   8.878 -0.2613 -1.0063  0.8302
   65CHL1   C24 7278   2.300   2.429   8.704 -0.0234 -0.1889 -0.2683
   65CHL1  H24A 7279   2.332   2.323   8.716 -0.1394 -0.6529 -3.2765
   65CHL1  H24B 7280   2.200   2.422   8.656 -0.2599  2.2753 -0.2176
   65CHL1   C25 7281   2.388   2.486   8.591 -0.7719  0.0907  0.3391
   65CHL1   H25 7282   2.367   2.595   8.581  0.7972  0.4909  1.0521
   65CHL1   C26 7283   2.541   2.477   8.612  0.7444  0.5485 -0.2388
   65CHL1  H26A 7284   2.584   2.374   8.608  1.6956  0.9618 -3.5006
   65CHL1  H26B 7285   2.585   2.525   8.522 -0.4113 -2.3358 -2.5335
   65CHL1  H26C 7286   2.569   2.516   8.712 -1.1064  1.6895 -0.1231
   65CHL1   C27 7287   2.358   2.412   8.463 -0.6573  0.0303 -0.3511
   65CHL1  H27A 7288   2.430   2.327   8.465  0.4145  0.8906  2.3467
   65CHL1  H27B 7289   2.250   2.389   8.459 -1.1878  1.4030  2.9829
   65CHL1  H27C 7290   2.397   2.469   8.377  0.6174 -0.6805 -0.2823
   66CHL1    C3 7291   2.249   6.338  10.245  0.6912 -0.1359 -0.3919
   66CHL1    H3 7292   2.228   6.446  10.262 -0.6147 -0.3433 -0.6029
   66CHL1    O3 7293   2.214   6.265  10.360  0.0996 -0.1566 -0.4570
   66CHL1   H3' 7294   2.216   6.173  10.334  1.1223 -1.2194  2.8981
   66CHL1    C4 7295   2.156   6.281  10.135  0.3202  0.2504  0.0810
   66CHL1   H4A 7296   2.159   6.170  10.127 -1.8929  0.2580 -1.9879
   66CHL1   H4B 7297   2.053   6.295  10.174  0.8538  0.2705  1.5619
   66CHL1    C5 7298   2.176   6.343   9.999  0.0604  0.3681 -0.0839
   66CHL1    C6 7299   2.085   6.419   9.930 -0.6001 -0.3294 -0.1731
   66CHL1    H6 7300   1.989   6.438   9.981 -0.5544 -0.5163 -0.0152
   66CHL1    C7 7301   2.113   6.490   9.797 -1.1666  0.2225 -0.3734
   66CHL1   H7A 7302   2.019   6.504   9.739 -1.4155  2.6107  0.4888
   66CHL1   H7B 7303   2.137   6.597   9.816  0.3530  0.0203 -1.0166
   66CHL1    C8 7304   2.221   6.416   9.723  0.0169  0.0936 -0.4644
   66CHL1    H8 7305   2.184   6.316   9.691 -0.0419 -0.7916  2.1334
   66CHL1   C14 7306   2.268   6.497   9.600  0.1769  0.1264  0.0842
   66CHL1   H14 7307   2.285   6.596   9.648 -0.6380  0.0129  0.6363
   66CHL1   C15 7308   2.164   6.512   9.492 -0.9009 -0.5431  0.3706
   66CHL1  H15A 7309   2.114   6.418   9.461  0.5052 -1.3124  0.3492
   66CHL1  H15B 7310   2.078   6.580   9.511  0.2745  1.2005 -0.2670
   66CHL1   C16 7311   2.246   6.563   9.374  0.0348  0.5002 -0.2891
   66CHL1  H16A 7312   2.214   6.516   9.279  1.1219 -1.3946  0.2153
   66CHL1  H16B 7313   2.224   6.670   9.359 -0.0605  0.4076 -0.8390
   66CHL1   C17 7314   2.392   6.548   9.405 -0.4864 -0.3468  0.1069
   66CHL1   H17 7315   2.442   6.640   9.443  2.1647 -1.8263  0.4075
   66CHL1   C13 7316   2.392   6.448   9.526  0.9994 -0.0583 -0.2278
   66CHL1   C18 7317   2.365   6.302   9.463  0.1032 -0.0125 -0.4286
   66CHL1  H18A 7318   2.323   6.242   9.546  2.5443  1.4557  2.0449
   66CHL1  H18B 7319   2.293   6.315   9.379 -2.5690  1.9337  1.9764
   66CHL1  H18C 7320   2.452   6.249   9.420 -0.5968 -0.2665 -1.5666
   66CHL1   C12 7321   2.499   6.456   9.632  0.1797  0.0570  0.1188
   66CHL1  H12A 7322   2.602   6.443   9.593 -0.7038 -1.2265 -1.9655
   66CHL1  H12B 7323   2.500   6.558   9.676  1.2326  0.7828 -1.5062
   66CHL1   C11 7324   2.470   6.350   9.738 -0.3746  0.0244 -0.2816
   66CHL1  H11A 7325   2.462   6.249   9.693 -2.0011  0.0498 -0.1308
   66CHL1  H11B 7326   2.565   6.351   9.796  0.0816  1.1371 -1.0166
   66CHL1    C9 7327   2.345   6.390   9.817  0.2160  0.0302  0.2066
   66CHL1    H9 7328   2.362   6.495   9.849  0.1709 -0.0653  0.5511
   66CHL1   C10 7329   2.317   6.314   9.945 -0.1347  0.5537  0.1966
   66CHL1   C19 7330   2.326   6.165   9.908  0.1536  0.4185  0.0799
   66CHL1  H19A 7331   2.429   6.134   9.881 -0.8607 -2.3559 -1.0214
   66CHL1  H19B 7332   2.293   6.093   9.987  1.1879  0.9287  1.0105
   66CHL1  H19C 7333   2.254   6.143   9.827 -0.4405  4.0116 -0.5362
   66CHL1    C1 7334   2.422   6.350  10.056  0.4720 -0.1034 -0.7495
   66CHL1   H1A 7335   2.520   6.306  10.024  0.3687 -1.7246  0.9874
   66CHL1   H1B 7336   2.423   6.461  10.055 -1.6269  0.0879  2.6903
   66CHL1    C2 7337   2.396   6.308  10.200 -0.3026  0.1998 -0.3748
   66CHL1   H2A 7338   2.468   6.347  10.274 -0.6921  2.0304 -0.9107
   66CHL1   H2B 7339   2.394   6.197  10.197  1.1786  0.1603 -0.2383
   66CHL1   C20 7340   2.475   6.504   9.285  0.4744 -0.4275 -0.4834
   66CHL1   H20 7341   2.436   6.406   9.252 -1.6221  0.9877 -2.4960
   66CHL1   C21 7342   2.628   6.494   9.317  1.0157 -0.3370 -0.2968
   66CHL1  H21A 7343   2.642   6.429   9.406  1.8912  0.4130  0.1321
   66CHL1  H21B 7344   2.679   6.592   9.330 -0.3400  0.4899 -0.9512
   66CHL1  H21C 7345   2.674   6.457   9.223 -0.4909 -2.4124 -0.3024
   66CHL1   C22 7346   2.446   6.604   9.166  0.2759 -0.2821 -0.8260
   66CHL1  H22A 7347   2.340   6.637   9.158  0.0790 -0.7094 -0.1252
   66CHL1  H22B 7348   2.489   6.703   9.195 -1.3852  0.2116  0.1191
   66CHL1   C23 7349   2.489   6.555   9.028 -0.5055  0.2744  0.8693
   66CHL1  H23A 7350   2.598   6.532   9.025 -0.7237 -1.1085  2.1401
   66CHL1  H23B 7351   2.431   6.465   8.997 -2.0620  1.2360  0.8857
   66CHL1   C24 7352   2.458   6.659   8.909 -0.1238 -0.2578  0.0608
   66CHL1  H24A 7353   2.350   6.687   8.903  0.1219  0.6657 -0.1212
   66CHL1  H24B 7354   2.519   6.745   8.945 -0.4872 -0.8046  2.1579
   66CHL1   C25 7355   2.522   6.622   8.769  0.5108 -0.4060  0.4302
   66CHL1   H25 7356   2.629   6.593   8.781  1.0733 -0.1172 -2.8523
   66CHL1   C26 7357   2.455   6.506   8.698 -0.1173  0.3861  0.3066
   66CHL1  H26A 7358   2.361   6.549   8.658 -1.0873  0.2980  2.3427
   66CHL1  H26B 7359   2.516   6.468   8.613  1.6902 -1.5169  2.3306
   66CHL1  H26C 7360   2.434   6.428   8.774 -0.9195  1.5052  1.2552
   66CHL1   C27 7361   2.529   6.742   8.671  0.1210 -0.2687  0.0490
   66CHL1  H27A 7362   2.609   6.815   8.696 -0.0340 -0.5337  1.4253
   66CHL1  H27B 7363   2.559   6.702   8.572  2.7360  1.4241  0.0669
   66CHL1  H27C 7364   2.429   6.791   8.672 -1.0147 -2.4212 -1.2518
   67CHL1    C3 7365   3.269   1.676  10.077  0.1736 -0.0877  0.3610
   67CHL1    H3 7366   3.202   1.591  10.052  3.6435 -2.6543 -1.0755
   67CHL1    O3 7367   3.284   1.656  10.209  0.7059  0.2319 -0.0222
   67CHL1   H3' 7368   3.327   1.739  10.233 -0.0894  0.6375  0.0440
   67CHL1    C4 7369   3.399   1.645  10.001  0.4527  0.8027  0.0576
   67CHL1   H4A 7370   3.481   1.708  10.043  1.3869 -1.4366  1.7836
   67CHL1   H4B 7371   3.437   1.545  10.030 -0.1272  0.5502 -0.0361
   67CHL1    C5 7372   3.372   1.660   9.850  0.7749 -0.4646 -0.9354
   67CHL1    C6 7373   3.394   1.560   9.762 -0.5732 -0.0365  0.1595
   67CHL1    H6 7374   3.429   1.462   9.797  0.5095 -0.2471 -1.4398
   67CHL1    C7 7375   3.381   1.575   9.611  0.4172  0.6276 -0.1109
   67CHL1   H7A 7376   3.470   1.522   9.569  0.8467  0.8208  0.5469
   67CHL1   H7B 7377   3.296   1.515   9.573  1.5087  0.1081 -1.8632
   67CHL1    C8 7378   3.375   1.722   9.572  0.1201 -0.1592  0.6118
   67CHL1    H8 7379   3.474   1.772   9.575 -0.3031  0.7374  0.1750
   67CHL1   C14 7380   3.336   1.738   9.427 -0.2764 -0.0554 -0.2222
   67CHL1   H14 7381   3.238   1.686   9.429 -0.0990 -0.4098  2.0288
   67CHL1   C15 7382   3.411   1.657   9.323 -0.7280 -0.0583  0.5261
   67CHL1  H15A 7383   3.518   1.647   9.352 -0.1406 -3.0656 -2.0734
   67CHL1  H15B 7384   3.377   1.551   9.322  0.7487 -0.5458 -0.5224
   67CHL1   C16 7385   3.380   1.728   9.193 -0.2127  0.0199 -0.1243
   67CHL1  H16A 7386   3.468   1.778   9.149 -0.3696  0.4888  0.0890
   67CHL1  H16B 7387   3.331   1.655   9.125  0.1894 -2.2057  1.8292
   67CHL1   C17 7388   3.271   1.840   9.226 -0.0073  0.2227  0.3753
   67CHL1   H17 7389   3.172   1.790   9.234 -1.7863  3.4621 -0.1020
   67CHL1   C13 7390   3.313   1.874   9.370  0.0800  0.3705  0.1729
   67CHL1   C18 7391   3.446   1.949   9.382 -0.6342  0.0630 -0.1691
   67CHL1  H18A 7392   3.474   1.967   9.488 -2.2191 -2.0133  0.6849
   67CHL1  H18B 7393   3.532   1.908   9.326  2.2325  1.7804  2.6644
   67CHL1  H18C 7394   3.442   2.050   9.336  0.6388  0.4355  0.4876
   67CHL1   C12 7395   3.203   1.945   9.456  1.3007 -0.0535  0.7199
   67CHL1  H12A 7396   3.188   2.053   9.434 -0.6379 -0.7375 -1.6467
   67CHL1  H12B 7397   3.114   1.888   9.422  0.9114  1.3363 -0.7125
   67CHL1   C11 7398   3.237   1.933   9.602 -0.1340 -0.1397  0.4970
   67CHL1  H11A 7399   3.324   2.000   9.619  0.1371 -0.5898  0.9163
   67CHL1  H11B 7400   3.164   1.980   9.671 -0.4655  1.8569 -1.1207
   67CHL1    C9 7401   3.278   1.797   9.654  0.7037 -0.5866  0.1579
   67CHL1    H9 7402   3.180   1.745   9.649 -1.4404  3.0256  0.9296
   67CHL1   C10 7403   3.323   1.803   9.804  0.3033 -0.1370 -0.1005
   67CHL1   C19 7404   3.433   1.903   9.838 -0.2177 -0.4638  0.4873
   67CHL1  H19A 7405   3.396   2.005   9.815  1.9304  0.4045  0.6841
   67CHL1  H19B 7406   3.451   1.900   9.947  0.1164  0.0383  0.4501
   67CHL1  H19C 7407   3.521   1.887   9.772 -1.8444 -3.0418 -1.2889
   67CHL1    C1 7408   3.199   1.835   9.894  0.0834 -0.3715 -0.0316
   67CHL1   H1A 7409   3.164   1.939   9.877 -0.5364 -0.5782 -0.0449
   67CHL1   H1B 7410   3.120   1.760   9.874  0.1228 -0.6646  0.8844
   67CHL1    C2 7411   3.223   1.818  10.040  0.1049  0.1682 -0.0822
   67CHL1   H2A 7412   3.136   1.854  10.098  0.6290  1.9282 -0.3096
   67CHL1   H2B 7413   3.299   1.887  10.083  0.0036 -0.5892  1.3430
   67CHL1   C20 7414   3.254   1.951   9.125 -0.1732 -0.1369  0.0631
   67CHL1   H20 7415   3.334   2.028   9.133 -0.1928 -0.0633 -0.4117
   67CHL1   C21 7416   3.113   2.008   9.152 -0.0140  0.1587  0.5805
   67CHL1  H21A 7417   3.045   1.934   9.200  0.4890 -0.1557  0.8164
   67CHL1  H21B 7418   3.072   2.034   9.052 -0.4660  0.0739  0.7400
   67CHL1  H21C 7419   3.113   2.096   9.219  1.2851  0.0546  0.7371
   67CHL1   C22 7420   3.257   1.889   8.981  0.3090 -0.2474 -0.6914
   67CHL1  H22A 7421   3.351   1.832   8.965  0.0180 -0.3839 -2.0028
   67CHL1  H22B 7422   3.169   1.821   8.970 -0.2049  0.7366 -3.3896
   67CHL1   C23 7423   3.249   1.989   8.863 -0.2180  0.7519 -0.2546
   67CHL1  H23A 7424   3.156   2.049   8.867 -0.1679  0.7733  0.6710
   67CHL1  H23B 7425   3.327   2.067   8.878 -2.0157  2.4555  0.6499
   67CHL1   C24 7426   3.255   1.915   8.729  0.1551  0.7815 -0.2616
   67CHL1  H24A 7427   3.327   1.830   8.731 -0.0659  0.3802 -3.6265
   67CHL1  H24B 7428   3.155   1.868   8.712  0.1968  0.2626  0.8423
   67CHL1   C25 7429   3.270   1.996   8.603  0.8994  0.7125 -0.3022
   67CHL1   H25 7430   3.201   2.082   8.620 -1.7780 -0.7940 -2.5470
   67CHL1   C26 7431   3.406   2.052   8.585 -0.7936  0.9926  0.2581
   67CHL1  H26A 7432   3.420   2.110   8.491  2.1171 -0.1764 -0.1466
   67CHL1  H26B 7433   3.452   2.100   8.673  2.1712  0.3166 -0.8030
   67CHL1  H26C 7434   3.462   1.958   8.565 -3.1185 -0.0962 -1.5602
   67CHL1   C27 7435   3.217   1.915   8.482 -0.5719  0.4002  0.2115
   67CHL1  H27A 7436   3.279   1.825   8.467 -1.3100  0.2031 -1.9733
   67CHL1  H27B 7437   3.114   1.874   8.489 -0.9439  0.5091 -3.1005
   67CHL1  H27C 7438   3.203   1.976   8.390  0.7789 -1.1788 -1.0880
   68CHL1    C3 7439   2.142   0.215  10.280  0.3566 -0.2720 -0.0908
   68CHL1    H3 7440   2.226   0.288  10.276  1.2857 -1.2577  0.6680
   68CHL1    O3 7441   2.125   0.216  10.418  0.3886 -0.4630  0.1684
   68CHL1   H3' 7442   2.031   0.227  10.436  0.7154 -0.3159  2.0363
   68CHL1    C4 7443   2.017   0.276  10.213  0.1988  0.5068  0.3987
   68CHL1   H4A 7444   1.939   0.197  10.214 -0.0290  0.7219 -0.1409
   68CHL1   H4B 7445   1.988   0.372  10.261 -0.6203 -0.2158  1.4173
   68CHL1    C5 7446   2.035   0.277  10.063  0.4012  0.5747 -0.6405
   68CHL1    C6 7447   2.022   0.393   9.996 -1.0448 -0.3065 -0.6945
   68CHL1    H6 7448   2.005   0.481  10.059 -0.7467 -0.2689 -0.6674
   68CHL1    C7 7449   2.035   0.406   9.846 -0.6487  0.4153 -0.3618
   68CHL1   H7A 7450   1.959   0.473   9.801 -1.0854 -0.2479 -0.6354
   68CHL1   H7B 7451   2.129   0.461   9.824 -1.0041  0.4966 -1.7592
   68CHL1    C8 7452   2.039   0.268   9.774 -0.5451 -1.0706  0.3334
   68CHL1    H8 7453   1.933   0.236   9.761 -0.6673 -0.5915  0.1573
   68CHL1   C14 7454   2.098   0.293   9.636  0.0804  0.6348 -0.7473
   68CHL1   H14 7455   2.194   0.340   9.664 -0.2778  0.8693  0.1167
   68CHL1   C15 7456   2.022   0.386   9.541  0.7296 -0.1110 -0.0503
   68CHL1  H15A 7457   1.912   0.378   9.545  0.5827  0.5226 -1.9225
   68CHL1  H15B 7458   2.026   0.490   9.582 -0.3921  0.2351 -0.7800
   68CHL1   C16 7459   2.073   0.357   9.403 -0.7519 -0.2138 -0.0002
   68CHL1  H16A 7460   1.986   0.337   9.338 -0.3047 -0.2839 -0.5806
   68CHL1  H16B 7461   2.142   0.433   9.361  0.4082 -0.3400  1.5557
   68CHL1   C17 7462   2.165   0.234   9.416 -0.4650  0.0145  0.0573
   68CHL1   H17 7463   2.265   0.269   9.449 -0.6386  1.4443 -0.8449
   68CHL1   C13 7464   2.126   0.167   9.552  0.0948  0.2611 -0.5258
   68CHL1   C18 7465   1.990   0.083   9.535  0.2946  0.5968  0.1439
   68CHL1  H18A 7466   2.016  -0.018   9.496  1.3678  0.8817  0.0866
   68CHL1  H18B 7467   1.940   0.081   9.633  2.1067  2.0624  1.1667
   68CHL1  H18C 7468   1.910   0.124   9.471 -0.7857 -0.3615  0.8445
   68CHL1   C12 7469   2.226   0.084   9.630  0.4161 -0.0230 -0.5196
   68CHL1  H12A 7470   2.261  -0.001   9.568  0.0583 -0.3033 -0.3366
   68CHL1  H12B 7471   2.317   0.146   9.644  0.7310 -0.9703  2.2832
   68CHL1   C11 7472   2.173   0.042   9.766  0.0661  0.2137 -0.1833
   68CHL1  H11A 7473   2.090  -0.030   9.747  0.9988 -1.1646  0.7024
   68CHL1  H11B 7474   2.254  -0.000   9.829  1.1880  0.8477 -1.1740
   68CHL1    C9 7475   2.129   0.171   9.853  0.3362  0.6234  0.3580
   68CHL1    H9 7476   2.226   0.222   9.871  0.0801  0.9913  0.7241
   68CHL1   C10 7477   2.074   0.138   9.995  0.1405  0.1156 -0.4664
   68CHL1   C19 7478   1.955   0.052   9.979 -0.3109  0.0290  0.2659
   68CHL1  H19A 7479   1.873   0.096   9.918  0.9408 -1.0847 -2.3580
   68CHL1  H19B 7480   1.976  -0.046   9.931 -0.0858 -0.2977  1.0097
   68CHL1  H19C 7481   1.898   0.020  10.070 -0.3897 -1.1289 -0.1700
   68CHL1    C1 7482   2.187   0.062  10.086  0.7595  0.1114  0.4118
   68CHL1   H1A 7483   2.206  -0.044  10.060 -1.5539 -1.1674  3.3185
   68CHL1   H1B 7484   2.272   0.131  10.065 -0.2123  0.6581 -2.0954
   68CHL1    C2 7485   2.165   0.073  10.235 -0.2655  0.7650 -0.6476
   68CHL1   H2A 7486   2.259   0.030  10.275  1.2069  4.0292 -0.3378
   68CHL1   H2B 7487   2.073   0.015  10.258 -0.3885  0.7145 -1.2418
   68CHL1   C20 7488   2.185   0.154   9.287 -0.4760 -0.5086  0.1600
   68CHL1   H20 7489   2.228   0.056   9.318  0.8847  0.0667  0.1556
   68CHL1   C21 7490   2.300   0.226   9.198 -0.4735  0.2393 -0.7086
   68CHL1  H21A 7491   2.398   0.234   9.250 -0.0589  1.1707 -1.6163
   68CHL1  H21B 7492   2.270   0.331   9.179  0.4688  0.6188 -0.1590
   68CHL1  H21C 7493   2.306   0.172   9.101 -1.4946 -0.1127 -0.5854
   68CHL1   C22 7494   2.058   0.122   9.206  0.3021 -1.1381 -0.2453
   68CHL1  H22A 7495   1.975   0.112   9.279 -1.2987 -0.6350 -1.9185
   68CHL1  H22B 7496   2.024   0.202   9.137 -2.2002 -2.9151 -1.2233
   68CHL1   C23 7497   2.073  -0.002   9.125  0.1230  0.1179  1.3238
   68CHL1  H23A 7498   2.151   0.001   9.046 -1.6445  0.7255 -0.5007
   68CHL1  H23B 7499   2.092  -0.077   9.205 -1.7109 -1.6158  0.2131
   68CHL1   C24 7500   1.943  -0.036   9.042  0.5432  0.3092  0.0503
   68CHL1  H24A 7501   1.859  -0.065   9.109  0.4062 -0.1234 -0.3066
   68CHL1  H24B 7502   1.913   0.050   8.979  0.3384 -0.4676 -0.9342
   68CHL1   C25 7503   1.952  -0.164   8.951 -0.1477 -0.5156  0.0226
   68CHL1   H25 7504   1.988  -0.244   9.018 -0.5916  0.4980  1.5149
   68CHL1   C26 7505   1.811  -0.192   8.888  0.5801  0.6950 -0.2097
   68CHL1  H26A 7506   1.746  -0.217   8.974  0.7217 -0.3771 -0.4006
   68CHL1  H26B 7507   1.764  -0.111   8.828  1.1045  1.4392  0.3686
   68CHL1  H26C 7508   1.810  -0.285   8.827  1.4323  0.6211 -0.1187
   68CHL1   C27 7509   2.055  -0.141   8.834 -0.1922  0.1560  0.1925
   68CHL1  H27A 7510   2.072  -0.222   8.759  3.5253  1.6856 -0.8818
   68CHL1  H27B 7511   2.006  -0.066   8.769  0.9509  1.1449  0.4359
   68CHL1  H27C 7512   2.152  -0.098   8.867 -1.1330  1.0957  1.8097
   69CHL1    C3 7513   1.847   2.993   6.982 -0.0625 -0.3481  0.3686
   69CHL1    H3 7514   1.785   2.906   7.009  0.2537 -0.4756  0.6986
   69CHL1    O3 7515   1.839   3.009   6.843  0.1170  0.9045 -0.3625
   69CHL1   H3' 7516   1.768   3.069   6.821 -1.1059 -0.6005 -0.6391
   69CHL1    C4 7517   1.783   3.119   7.040 -0.0220 -0.1943 -0.1813
   69CHL1   H4A 7518   1.832   3.212   7.005 -2.0552  0.4912 -1.3867
   69CHL1   H4B 7519   1.676   3.129   7.009  0.0709  2.5324  0.1973
   69CHL1    C5 7520   1.782   3.118   7.191 -0.3129  0.9137 -0.4778
   69CHL1    C6 7521   1.671   3.131   7.266 -0.2765  0.6631 -0.2082
   69CHL1    H6 7522   1.576   3.123   7.213  1.8369  1.5952 -4.5788
   69CHL1    C7 7523   1.676   3.145   7.414 -0.0307  0.2543  0.0694
   69CHL1   H7A 7524   1.602   3.222   7.444  1.0157  0.3161  2.8196
   69CHL1   H7B 7525   1.643   3.047   7.455  0.4517  0.6558  1.4760
   69CHL1    C8 7526   1.817   3.172   7.473 -0.7351 -0.5021 -0.2494
   69CHL1    H8 7527   1.846   3.273   7.437  0.9056 -1.0488 -0.5585
   69CHL1   C14 7528   1.814   3.169   7.625 -0.6584 -0.1147  0.8732
   69CHL1   H14 7529   1.779   3.068   7.654  1.5353 -1.0154  0.6131
   69CHL1   C15 7530   1.721   3.268   7.697  0.1108 -0.0184  0.1162
   69CHL1  H15A 7531   1.743   3.368   7.654 -0.8392  1.0558  1.9863
   69CHL1  H15B 7532   1.614   3.239   7.684  1.0098 -2.4753 -3.0942
   69CHL1   C16 7533   1.776   3.278   7.847 -0.2806 -0.1896  0.1221
   69CHL1  H16A 7534   1.811   3.378   7.882  0.2364 -1.1866  2.6786
   69CHL1  H16B 7535   1.701   3.251   7.925  0.7407 -1.1515  0.7969
   69CHL1   C17 7536   1.906   3.186   7.841 -0.0344  0.0670 -0.4015
   69CHL1   H17 7537   1.873   3.087   7.881  1.1808  0.2721  1.2577
   69CHL1   C13 7538   1.952   3.177   7.692 -0.1728  0.6708  0.1637
   69CHL1   C18 7539   2.022   3.307   7.651  0.2473 -0.0246  0.2875
   69CHL1  H18A 7540   2.128   3.292   7.680  0.3276 -1.9716 -0.8122
   69CHL1  H18B 7541   2.013   3.323   7.542  0.0028  1.4276  0.5011
   69CHL1  H18C 7542   1.985   3.400   7.699  0.3659 -0.2389  0.7994
   69CHL1   C12 7543   2.031   3.054   7.644 -0.3226  0.3815 -0.4515
   69CHL1  H12A 7544   2.129   3.047   7.697 -0.6925 -0.4344  0.1358
   69CHL1  H12B 7545   1.976   2.963   7.676 -1.0576  0.3517 -1.7376
   69CHL1   C11 7546   2.050   3.059   7.491 -1.1403  0.4028  0.1575
   69CHL1  H11A 7547   2.117   3.145   7.469  0.1435 -0.3782  0.8829
   69CHL1  H11B 7548   2.097   2.960   7.473  0.6283  1.2356  0.0060
   69CHL1    C9 7549   1.918   3.071   7.415 -0.4628  0.2290  0.2105
   69CHL1    H9 7550   1.874   2.970   7.424  0.5566 -0.1720  0.8044
   69CHL1   C10 7551   1.928   3.100   7.257  0.8217  1.0941  1.5436
   69CHL1   C19 7552   2.022   3.219   7.234 -0.2028  0.3447  0.5643
   69CHL1  H19A 7553   2.125   3.213   7.276  0.6204 -2.6016 -1.5912
   69CHL1  H19B 7554   2.037   3.239   7.126  1.7086  2.2365  1.1001
   69CHL1  H19C 7555   1.983   3.315   7.274  1.6897  1.9758 -1.2793
   69CHL1    C1 7556   1.997   2.979   7.187  0.1637 -1.2047  0.6600
   69CHL1   H1A 7557   2.102   2.979   7.224  0.0191  1.8375  1.2971
   69CHL1   H1B 7558   1.958   2.882   7.223 -1.9320 -0.2101  1.2237
   69CHL1    C2 7559   1.996   2.983   7.036 -0.1115  0.7036 -0.2640
   69CHL1   H2A 7560   2.038   2.887   6.999 -0.4592 -0.6800  2.7031
   69CHL1   H2B 7561   2.053   3.070   6.996  0.5785  0.3694 -0.0101
   69CHL1   C20 7562   2.014   3.218   7.949  0.2625  0.7243 -0.1562
   69CHL1   H20 7563   2.057   3.316   7.922  0.5246  0.4003 -0.9340
   69CHL1   C21 7564   2.136   3.119   7.953 -0.0443  0.0687 -0.0141
   69CHL1  H21A 7565   2.212   3.154   7.879 -1.5713  2.1135 -0.7375
   69CHL1  H21B 7566   2.110   3.013   7.937  2.1804 -0.7352  1.2952
   69CHL1  H21C 7567   2.190   3.136   8.048  1.1005  2.3880 -0.9776
   69CHL1   C22 7568   1.947   3.228   8.092 -0.2375  0.4585  0.1721
   69CHL1  H22A 7569   2.027   3.247   8.166 -0.5763  1.1536  0.3681
   69CHL1  H22B 7570   1.883   3.318   8.102  0.7383  1.3727 -1.3281
   69CHL1   C23 7571   1.876   3.101   8.138  0.2975  0.0423  0.1978
   69CHL1  H23A 7572   1.777   3.095   8.088 -0.1405  0.1083  1.0374
   69CHL1  H23B 7573   1.940   3.012   8.117 -2.7375 -1.8530 -1.7213
   69CHL1   C24 7574   1.861   3.098   8.295 -0.0862 -0.3711 -1.0493
   69CHL1  H24A 7575   1.962   3.118   8.339 -1.0276 -1.1577  1.6882
   69CHL1  H24B 7576   1.804   3.188   8.328  0.4363 -0.2541 -0.4309
   69CHL1   C25 7577   1.805   2.971   8.350  0.3688 -0.3902 -0.1014
   69CHL1   H25 7578   1.783   2.985   8.458  1.3333  0.1606  0.0333
   69CHL1   C26 7579   1.668   2.949   8.289  0.1037  0.0412 -0.2925
   69CHL1  H26A 7580   1.680   2.915   8.184  0.3387  0.7919 -0.5190
   69CHL1  H26B 7581   1.612   2.875   8.350 -1.0563  2.3429  1.6069
   69CHL1  H26C 7582   1.593   3.031   8.299  0.4615  0.5033 -1.2587
   69CHL1   C27 7583   1.878   2.840   8.332 -0.6773 -0.4404  0.4410
   69CHL1  H27A 7584   1.897   2.813   8.226 -0.2093  0.0653  0.3957
   69CHL1  H27B 7585   1.979   2.848   8.377 -0.8367 -1.1446  0.9475
   69CHL1  H27C 7586   1.816   2.755   8.368 -1.2223 -0.1685  0.1605
   70CHL1    C3 7587   1.295   1.062   6.836  0.7638  0.2868  0.1038
   70CHL1    H3 7588   1.228   1.150   6.832 -1.5483 -1.3842  0.0036
   70CHL1    O3 7589   1.337   1.027   6.703  0.6611 -0.5946  0.1714
   70CHL1   H3' 7590   1.428   0.998   6.705  0.8449 -0.0354  0.0693
   70CHL1    C4 7591   1.423   1.084   6.917  0.1588  0.0499  0.4266
   70CHL1   H4A 7592   1.488   0.994   6.909  0.4489  0.3774 -1.0814
   70CHL1   H4B 7593   1.479   1.158   6.857 -0.8042  0.7158  0.3253
   70CHL1    C5 7594   1.397   1.119   7.063  0.7098 -0.1772  0.2753
   70CHL1    C6 7595   1.442   1.229   7.125  0.7344  0.0808 -0.1473
   70CHL1    H6 7596   1.493   1.308   7.068 -1.5220  1.7016 -0.0692
   70CHL1    C7 7597   1.401   1.270   7.265 -0.6507  0.4940  0.3368
   70CHL1   H7A 7598   1.482   1.332   7.307 -0.8591  0.9990  0.0010
   70CHL1   H7B 7599   1.316   1.341   7.262 -0.9838  0.4226  3.9380
   70CHL1    C8 7600   1.353   1.153   7.350 -0.6219  0.4156 -0.3635
   70CHL1    H8 7601   1.434   1.083   7.376 -1.4077  0.0121  1.0956
   70CHL1   C14 7602   1.289   1.194   7.485 -0.5756 -0.4871  0.2955
   70CHL1   H14 7603   1.196   1.244   7.450  0.0458 -0.5485 -1.5569
   70CHL1   C15 7604   1.373   1.297   7.572 -0.5283  0.2785  0.8282
   70CHL1  H15A 7605   1.481   1.273   7.556 -0.6502  0.4811 -0.4168
   70CHL1  H15B 7606   1.348   1.402   7.546  1.1327  0.6052  0.4244
   70CHL1   C16 7607   1.321   1.262   7.716 -0.4943 -0.2900 -0.2713
   70CHL1  H16A 7608   1.400   1.224   7.784 -0.6612 -0.5757 -0.2315
   70CHL1  H16B 7609   1.281   1.357   7.758  0.2116 -0.1838  0.1747
   70CHL1   C17 7610   1.210   1.153   7.700  0.5380  0.4931  0.2718
   70CHL1   H17 7611   1.122   1.212   7.666 -0.5283 -2.2031 -1.9306
   70CHL1   C13 7612   1.245   1.079   7.573  0.3781 -0.5750 -0.1043
   70CHL1   C18 7613   1.361   0.983   7.604  0.3525 -0.5191 -0.3087
   70CHL1  H18A 7614   1.392   0.927   7.513  1.0159 -0.2501 -0.2495
   70CHL1  H18B 7615   1.447   1.031   7.655 -1.3169  1.8388  0.4915
   70CHL1  H18C 7616   1.327   0.896   7.664  1.5258 -1.5689 -1.1174
   70CHL1   C12 7617   1.130   1.010   7.498 -0.2688 -0.5477 -0.1887
   70CHL1  H12A 7618   1.089   0.921   7.551 -1.4875  0.2682  0.2881
   70CHL1  H12B 7619   1.044   1.080   7.488 -1.9161 -2.3397  0.5692
   70CHL1   C11 7620   1.173   0.971   7.351 -0.1424 -0.2282 -0.3723
   70CHL1  H11A 7621   1.227   0.879   7.381  1.2442  0.8958  0.7243
   70CHL1  H11B 7622   1.083   0.943   7.293 -0.3208  2.7520 -1.7314
   70CHL1    C9 7623   1.256   1.076   7.271  0.2578  0.1111  0.1309
   70CHL1    H9 7624   1.176   1.146   7.239 -0.7356 -0.7836  0.5904
   70CHL1   C10 7625   1.306   1.018   7.132 -0.2172  0.1536  0.1335
   70CHL1   C19 7626   1.395   0.898   7.149  0.2634 -0.4883  0.2330
   70CHL1  H19A 7627   1.486   0.918   7.210  0.6542 -0.2371 -0.4246
   70CHL1  H19B 7628   1.339   0.813   7.194 -1.8841 -0.1032 -1.5597
   70CHL1  H19C 7629   1.449   0.863   7.059  1.0404  0.7460  0.1925
   70CHL1    C1 7630   1.181   0.976   7.042 -0.6798 -0.1421  1.0932
   70CHL1   H1A 7631   1.125   0.890   7.085 -1.4358  0.3812  1.1773
   70CHL1   H1B 7632   1.106   1.058   7.035  1.4623  1.7251 -1.9694
   70CHL1    C2 7633   1.229   0.945   6.899  0.1579  0.1699  0.3022
   70CHL1   H2A 7634   1.139   0.917   6.841  0.9991  0.6621 -1.3102
   70CHL1   H2B 7635   1.294   0.855   6.898 -0.5570 -0.3492 -0.2727
   70CHL1   C20 7636   1.179   1.072   7.827 -0.7888 -0.1718  0.3479
   70CHL1   H20 7637   1.265   1.005   7.849  0.9753  1.4361 -1.1767
   70CHL1   C21 7638   1.056   0.978   7.811  0.0618 -0.4820 -0.2259
   70CHL1  H21A 7639   1.073   0.884   7.754  0.5455 -0.0869 -0.7510
   70CHL1  H21B 7640   0.976   1.028   7.754  0.2747 -1.0647 -1.0559
   70CHL1  H21C 7641   1.008   0.957   7.909 -0.3398  0.8535 -0.1153
   70CHL1   C22 7642   1.163   1.158   7.954  0.5063 -0.0005  0.4928
   70CHL1  H22A 7643   1.169   1.086   8.038  1.2828 -0.1269  0.3357
   70CHL1  H22B 7644   1.242   1.234   7.970  1.2436 -0.0263 -2.4362
   70CHL1   C23 7645   1.028   1.235   7.962  0.1621 -0.3224 -0.1543
   70CHL1  H23A 7646   1.019   1.320   7.891 -2.6521 -2.5580 -2.7382
   70CHL1  H23B 7647   0.949   1.167   7.923 -0.7512 -0.0953  1.2565
   70CHL1   C24 7648   0.999   1.287   8.104 -0.8888  0.2556 -1.4484
   70CHL1  H24A 7649   1.005   1.201   8.174 -1.0376  1.1610 -0.2831
   70CHL1  H24B 7650   1.087   1.350   8.129 -0.2800 -0.9656 -0.4048
   70CHL1   C25 7651   0.863   1.356   8.127 -0.4283  0.3122 -0.3203
   70CHL1   H25 7652   0.866   1.444   8.059  2.3237 -0.5888 -1.4926
   70CHL1   C26 7653   0.748   1.266   8.080 -0.5678 -0.0483 -0.0422
   70CHL1  H26A 7654   0.746   1.168   8.132 -0.2275  0.4036  0.8608
   70CHL1  H26B 7655   0.646   1.307   8.101 -0.8470 -0.8860  0.2818
   70CHL1  H26C 7656   0.754   1.253   7.970  1.4585  2.6487 -0.3540
   70CHL1   C27 7657   0.844   1.409   8.271  0.3964  0.7573 -0.2341
   70CHL1  H27A 7658   0.766   1.488   8.262 -1.0802 -0.6460 -0.2408
   70CHL1  H27B 7659   0.799   1.322   8.324  0.2304  0.0934 -1.4218
   70CHL1  H27C 7660   0.936   1.445   8.323 -0.2080 -0.4435  1.8110
   71CHL1    C3 7661   4.731   3.899   6.744 -0.3813 -0.1306 -0.0887
   71CHL1    H3 7662   4.718   3.791   6.769  0.1336 -0.0356  0.5925
   71CHL1    O3 7663   4.729   3.924   6.603  0.0309 -0.0865  0.1048
   71CHL1   H3' 7664   4.799   3.986   6.582 -0.4186 -0.1655 -1.7895
   71CHL1    C4 7665   4.596   3.962   6.786  0.1900 -0.3850 -0.7153
   71CHL1   H4A 7666   4.606   4.072   6.773 -0.2198 -0.3531 -0.7822
   71CHL1   H4B 7667   4.505   3.934   6.728 -0.4525  1.4297 -0.6746
   71CHL1    C5 7668   4.584   3.947   6.937  0.2085  0.2260 -0.1030
   71CHL1    C6 7669   4.470   3.886   6.992 -0.3952  0.0721 -0.1362
   71CHL1    H6 7670   4.392   3.844   6.927  0.6727 -0.0804 -1.3506
   71CHL1    C7 7671   4.450   3.881   7.140 -0.7745  0.4134 -0.1278
   71CHL1   H7A 7672   4.347   3.920   7.159 -0.8174  0.3115 -0.1521
   71CHL1   H7B 7673   4.454   3.777   7.179 -2.4518 -0.3543 -1.8521
   71CHL1    C8 7674   4.546   3.977   7.217 -0.1384  1.2609 -0.0811
   71CHL1    H8 7675   4.523   4.084   7.197  2.1585  1.6735 -0.8525
   71CHL1   C14 7676   4.533   3.951   7.366  0.0259  0.5882 -0.2606
   71CHL1   H14 7677   4.581   3.852   7.386  1.3986  0.7474 -2.4348
   71CHL1   C15 7678   4.389   3.942   7.428  0.7439 -0.1390  0.3839
   71CHL1  H15A 7679   4.319   4.010   7.376  1.4296 -0.8453 -1.5401
   71CHL1  H15B 7680   4.341   3.842   7.419 -1.3179  0.5312  2.5836
   71CHL1   C16 7681   4.403   3.987   7.579  0.7656 -0.6827 -0.6934
   71CHL1  H16A 7682   4.345   4.080   7.598 -0.3531 -1.3033 -0.9681
   71CHL1  H16B 7683   4.366   3.912   7.652 -3.6515  2.8787  1.1914
   71CHL1   C17 7684   4.561   4.006   7.592  0.4130  0.6130 -0.1734
   71CHL1   H17 7685   4.596   3.902   7.606  1.7504  0.9322 -0.9636
   71CHL1   C13 7686   4.613   4.051   7.451  0.0540 -0.4594  0.1794
   71CHL1   C18 7687   4.567   4.198   7.432 -0.3679 -0.0335  0.0944
   71CHL1  H18A 7688   4.624   4.257   7.506  0.6262 -1.5162  0.5513
   71CHL1  H18B 7689   4.585   4.237   7.329  0.3764 -4.1076 -1.5348
   71CHL1  H18C 7690   4.458   4.189   7.454 -0.5239 -1.7663 -1.1450
   71CHL1   C12 7691   4.758   4.020   7.415  0.5794 -0.1262 -0.3527
   71CHL1  H12A 7692   4.826   4.083   7.475 -0.2731  2.0870 -1.5965
   71CHL1  H12B 7693   4.780   3.912   7.432  0.8886  0.2859  2.3536
   71CHL1   C11 7694   4.791   4.046   7.264 -0.1024 -0.1853  0.0189
   71CHL1  H11A 7695   4.791   4.156   7.246 -2.1401 -0.1381  0.1092
   71CHL1  H11B 7696   4.898   4.026   7.242  0.0535  0.9100 -0.2717
   71CHL1    C9 7697   4.691   3.969   7.166 -0.4844 -0.5935 -0.3414
   71CHL1    H9 7698   4.720   3.863   7.179 -0.1862 -0.5622 -0.7057
   71CHL1   C10 7699   4.704   4.003   7.015  1.3635  0.6831 -0.1091
   71CHL1   C19 7700   4.716   4.156   6.996  0.5446  0.0029 -0.8804
   71CHL1  H19A 7701   4.727   4.187   6.890  0.3030 -4.1498 -2.2913
   71CHL1  H19B 7702   4.630   4.204   7.048 -3.5229 -3.7230 -3.4108
   71CHL1  H19C 7703   4.813   4.181   7.044  1.2871 -2.1538 -1.1356
   71CHL1    C1 7704   4.836   3.940   6.966 -0.5128  0.1498 -0.5708
   71CHL1   H1A 7705   4.923   3.985   7.018 -2.5755  1.9072  1.5969
   71CHL1   H1B 7706   4.826   3.831   6.985 -0.3287 -0.3852 -3.1823
   71CHL1    C2 7707   4.856   3.954   6.818 -0.0700 -0.1964  0.2770
   71CHL1   H2A 7708   4.940   3.894   6.776  0.2949  1.4782 -1.5462
   71CHL1   H2B 7709   4.865   4.063   6.798  2.4073 -0.3299  0.4325
   71CHL1   C20 7710   4.601   4.076   7.718 -0.2655  0.3161  0.5993
   71CHL1   H20 7711   4.595   4.186   7.704  1.0767  0.1393 -1.8196
   71CHL1   C21 7712   4.738   4.020   7.761  0.1290  0.8370  0.0131
   71CHL1  H21A 7713   4.728   3.916   7.799 -1.3029  0.8470 -0.2919
   71CHL1  H21B 7714   4.780   4.090   7.837  1.2874  0.8762 -0.6443
   71CHL1  H21C 7715   4.806   4.015   7.673 -0.7998 -0.4905 -0.6540
   71CHL1   C22 7716   4.505   4.059   7.839  0.9850 -0.0967  1.1113
   71CHL1  H22A 7717   4.398   4.078   7.812  1.0054 -1.4965 -0.1745
   71CHL1  H22B 7718   4.502   3.951   7.865  0.0958 -0.4156 -0.1586
   71CHL1   C23 7719   4.538   4.140   7.957  0.2932  0.2844  0.2752
   71CHL1  H23A 7720   4.639   4.119   7.999  0.0317 -0.9099  0.3326
   71CHL1  H23B 7721   4.533   4.247   7.929  0.0731 -0.1341 -1.3777
   71CHL1   C24 7722   4.430   4.124   8.067 -0.9761  0.5491 -0.1102
   71CHL1  H24A 7723   4.329   4.134   8.023 -0.9570  0.3317 -0.2056
   71CHL1  H24B 7724   4.426   4.020   8.108  1.2473  0.7814  0.8782
   71CHL1   C25 7725   4.445   4.232   8.182 -0.8010  0.2981 -0.2047
   71CHL1   H25 7726   4.468   4.330   8.134  1.0315  0.6611  1.2886
   71CHL1   C26 7727   4.320   4.245   8.271 -0.0819  0.6573 -0.2038
   71CHL1  H26A 7728   4.232   4.261   8.205  0.6750  2.1427 -0.9165
   71CHL1  H26B 7729   4.307   4.153   8.332  2.9241 -0.2412 -0.7767
   71CHL1  H26C 7730   4.320   4.326   8.346 -0.5285 -0.4430  1.0278
   71CHL1   C27 7731   4.566   4.195   8.279 -0.7513 -0.0255  0.0901
   71CHL1  H27A 7732   4.559   4.090   8.313 -0.1474 -0.1616 -0.1852
   71CHL1  H27B 7733   4.668   4.202   8.234 -0.7505 -0.1275  0.0778
   71CHL1  H27C 7734   4.562   4.265   8.366 -0.3379  0.6918 -0.4472
   72CHL1    C3 7735   4.829   1.236   7.148 -0.2481  0.4317  0.0585
   72CHL1    H3 7736   4.840   1.343   7.178 -2.1096  0.4793  0.7369
   72CHL1    O3 7737   4.842   1.213   7.003  0.1153 -0.0996  0.1368
   72CHL1   H3' 7738   4.840   1.118   6.993 -0.0983 -0.1960  1.0289
   72CHL1    C4 7739   4.935   1.147   7.216 -0.5437 -0.1614 -0.0249
   72CHL1   H4A 7740   4.910   1.042   7.188 -1.5932 -0.3673  1.5637
   72CHL1   H4B 7741   5.038   1.174   7.185 -0.5256 -0.7463 -0.4911
   72CHL1    C5 7742   4.922   1.164   7.365 -0.4745  0.1824  0.0907
   72CHL1    C6 7743   5.022   1.210   7.441 -0.4794 -0.5225  1.0241
   72CHL1    H6 7744   5.121   1.236   7.401 -0.4232  1.1194  2.1040
   72CHL1    C7 7745   5.021   1.234   7.582  0.0146 -0.3531 -0.2298
   72CHL1   H7A 7746   5.116   1.192   7.620 -0.7175 -2.0058 -0.1506
   72CHL1   H7B 7747   5.012   1.344   7.599 -1.1102 -0.4316 -0.2536
   72CHL1    C8 7748   4.894   1.160   7.649 -0.6715  0.3923 -0.1228
   72CHL1    H8 7749   4.914   1.051   7.655  2.2127  0.8525  0.1000
   72CHL1   C14 7750   4.874   1.214   7.790 -0.0514 -0.2284 -0.3088
   72CHL1   H14 7751   4.856   1.324   7.786  0.5156  0.2173  4.2965
   72CHL1   C15 7752   4.998   1.214   7.882 -0.3220 -1.1932  0.1619
   72CHL1  H15A 7753   5.058   1.131   7.841  1.5961  0.8899 -1.5153
   72CHL1  H15B 7754   5.065   1.302   7.867  0.8609 -1.8896  1.2503
   72CHL1   C16 7755   4.947   1.201   8.022  0.4956  0.0006 -0.8378
   72CHL1  H16A 7756   4.971   1.095   8.044  0.3323 -0.0460 -0.8824
   72CHL1  H16B 7757   4.998   1.260   8.102  0.6108  0.6735 -1.4037
   72CHL1   C17 7758   4.793   1.204   8.014 -0.1952  0.1262  0.2508
   72CHL1   H17 7759   4.757   1.308   8.026 -2.9684 -0.8314  0.8509
   72CHL1   C13 7760   4.765   1.146   7.871  0.0027 -0.0702  0.4171
   72CHL1   C18 7761   4.790   0.990   7.878 -0.1773  0.0225 -0.3230
   72CHL1  H18A 7762   4.789   0.950   7.774  2.8911 -3.2053  0.6953
   72CHL1  H18B 7763   4.894   0.962   7.907  0.4066  0.0739 -2.1722
   72CHL1  H18C 7764   4.718   0.947   7.950 -1.4124  0.7250 -1.1021
   72CHL1   C12 7765   4.632   1.189   7.801 -0.0331  0.3864 -1.1633
   72CHL1  H12A 7766   4.546   1.132   7.842 -0.5211  0.0392 -2.5990
   72CHL1  H12B 7767   4.618   1.297   7.819  0.3322  0.0804  1.2911
   72CHL1   C11 7768   4.631   1.155   7.649 -0.0599  0.1275 -0.1174
   72CHL1  H11A 7769   4.630   1.043   7.648 -1.5298  0.1160  0.2351
   72CHL1  H11B 7770   4.539   1.184   7.595  0.7092 -0.0524 -1.5846
   72CHL1    C9 7771   4.764   1.192   7.574 -0.2190  0.1634 -0.2281
   72CHL1    H9 7772   4.750   1.302   7.564  0.1256  0.1810 -0.5572
   72CHL1   C10 7773   4.778   1.140   7.425  0.2315 -0.7136  0.1188
   72CHL1   C19 7774   4.763   0.987   7.420  0.5399 -0.2572 -0.6105
   72CHL1  H19A 7775   4.778   0.955   7.315  2.0863 -0.9949 -0.1894
   72CHL1  H19B 7776   4.810   0.924   7.499 -2.7887 -1.3430  0.6803
   72CHL1  H19C 7777   4.654   0.972   7.438  0.5152  1.2421  0.8027
   72CHL1    C1 7778   4.663   1.213   7.334 -0.3056  0.3548 -0.7841
   72CHL1   H1A 7779   4.563   1.174   7.363  0.4266 -0.2961  0.9363
   72CHL1   H1B 7780   4.661   1.320   7.364  0.7182  0.9102 -2.5183
   72CHL1    C2 7781   4.690   1.197   7.183  0.0032 -0.3705  0.1616
   72CHL1   H2A 7782   4.621   1.253   7.116  1.7773  0.9282 -0.6577
   72CHL1   H2B 7783   4.675   1.094   7.144 -0.8222  0.4752 -1.8953
   72CHL1   C20 7784   4.734   1.137   8.141 -0.1052  0.3359 -1.2541
   72CHL1   H20 7785   4.761   1.030   8.151  1.7435  0.9762  2.1622
   72CHL1   C21 7786   4.581   1.155   8.145 -0.1742  0.4902 -0.0217
   72CHL1  H21A 7787   4.555   1.261   8.164 -1.6075  0.5010 -1.7500
   72CHL1  H21B 7788   4.530   1.099   8.227 -0.2733 -0.4241 -0.6900
   72CHL1  H21C 7789   4.543   1.121   8.046 -0.2118  0.6050 -0.0465
   72CHL1   C22 7790   4.786   1.187   8.270 -0.2436  0.5163 -0.3544
   72CHL1  H22A 7791   4.754   1.127   8.359 -0.9304  3.3090  1.4087
   72CHL1  H22B 7792   4.893   1.156   8.266 -0.7103 -1.0654 -2.3911
   72CHL1   C23 7793   4.767   1.337   8.301  0.0207  0.8308  0.7337
   72CHL1  H23A 7794   4.826   1.396   8.227 -0.5262 -0.2841 -0.6370
   72CHL1  H23B 7795   4.662   1.370   8.287 -1.7735 -2.9389  3.4520
   72CHL1   C24 7796   4.799   1.380   8.440  0.1933 -0.5668  0.6627
   72CHL1  H24A 7797   4.732   1.331   8.515  0.5602  1.6799  2.6016
   72CHL1  H24B 7798   4.905   1.349   8.437  1.2823  2.8227 -1.5836
   72CHL1   C25 7799   4.791   1.536   8.453  0.5918 -0.4796 -0.1137
   72CHL1   H25 7800   4.839   1.588   8.368 -1.1951  1.3406 -0.0951
   72CHL1   C26 7801   4.641   1.584   8.466 -0.1525  0.2607  0.4480
   72CHL1  H26A 7802   4.583   1.567   8.373 -0.9897 -1.2176  1.1887
   72CHL1  H26B 7803   4.597   1.517   8.543 -1.0401 -1.6444 -1.6236
   72CHL1  H26C 7804   4.628   1.690   8.498  0.1463  0.8186 -1.2002
   72CHL1   C27 7805   4.862   1.593   8.583 -0.7639 -0.3318  0.2362
   72CHL1  H27A 7806   4.826   1.531   8.668 -0.7036 -0.6352  0.0438
   72CHL1  H27B 7807   4.971   1.582   8.566 -0.8033  0.5343 -0.6720
   72CHL1  H27C 7808   4.827   1.696   8.602 -0.8232 -0.2464 -0.3312
   73CHL1    C3 7809   2.339   4.701   6.725 -0.0239  0.1949 -0.7482
   73CHL1    H3 7810   2.247   4.649   6.757  0.4835 -0.2487  0.0057
   73CHL1    O3 7811   2.388   4.645   6.603 -0.1243 -0.5772  0.4670
   73CHL1   H3' 7812   2.475   4.685   6.592 -0.1443 -0.3442  1.1173
   73CHL1    C4 7813   2.290   4.840   6.704  0.2732 -0.6141 -0.1286
   73CHL1   H4A 7814   2.361   4.908   6.653 -1.1201  0.8832 -0.1739
   73CHL1   H4B 7815   2.204   4.833   6.634  0.2087 -0.2601 -0.0857
   73CHL1    C5 7816   2.251   4.911   6.828 -1.1614 -0.1749 -0.1775
   73CHL1    C6 7817   2.122   4.954   6.842  0.3474  0.5991 -0.1542
   73CHL1    H6 7818   2.055   4.938   6.756  1.8658  2.8423 -1.8853
   73CHL1    C7 7819   2.071   5.016   6.967 -0.1520 -0.6364 -0.5677
   73CHL1   H7A 7820   2.010   5.105   6.942  0.7784  0.6150  1.3245
   73CHL1   H7B 7821   2.012   4.938   7.020 -0.0234 -1.1715 -1.1917
   73CHL1    C8 7822   2.191   5.046   7.066 -0.1263  0.1777  0.7303
   73CHL1    H8 7823   2.242   5.142   7.042 -0.0534  0.1462  0.7594
   73CHL1   C14 7824   2.131   5.073   7.205  0.1787  0.4120  0.4726
   73CHL1   H14 7825   2.082   4.976   7.228  1.4418 -0.8426 -1.7143
   73CHL1   C15 7826   2.027   5.183   7.199 -0.4925 -0.1339  0.7897
   73CHL1  H15A 7827   2.080   5.262   7.142  1.4034 -0.5436  1.9176
   73CHL1  H15B 7828   1.928   5.168   7.151 -1.2127  2.3248  1.3466
   73CHL1   C16 7829   2.026   5.226   7.343 -0.1264  0.5811  0.4757
   73CHL1  H16A 7830   2.054   5.333   7.344  1.3196  0.2151  1.5143
   73CHL1  H16B 7831   1.926   5.209   7.389  0.2010  2.8501  2.2035
   73CHL1   C17 7832   2.127   5.147   7.426 -0.2264  0.1569  0.1527
   73CHL1   H17 7833   2.082   5.055   7.471  0.3111  0.0553  0.4948
   73CHL1   C13 7834   2.229   5.099   7.314 -0.3285  0.0102 -0.8380
   73CHL1   C18 7835   2.316   5.230   7.278 -0.3339  0.1989  0.4624
   73CHL1  H18A 7836   2.396   5.246   7.353  0.3409 -1.3136  0.1210
   73CHL1  H18B 7837   2.370   5.216   7.182 -0.1627 -0.6705  0.6714
   73CHL1  H18C 7838   2.247   5.315   7.260 -0.2171  0.7376  2.4255
   73CHL1   C12 7839   2.313   4.971   7.343  0.2607  0.5142 -0.4716
   73CHL1  H12A 7840   2.394   4.996   7.416 -0.5698  1.0724  0.2791
   73CHL1  H12B 7841   2.266   4.883   7.392  1.3478 -1.6145 -2.9858
   73CHL1   C11 7842   2.381   4.937   7.206 -0.2543  0.3910 -0.5023
   73CHL1  H11A 7843   2.462   5.012   7.193 -0.1213  0.6718  1.6128
   73CHL1  H11B 7844   2.438   4.844   7.226 -1.2943 -0.1886 -0.1255
   73CHL1    C9 7845   2.294   4.928   7.076  0.1659  0.2460 -0.4255
   73CHL1    H9 7846   2.236   4.838   7.106  0.6622 -0.4460 -1.4896
   73CHL1   C10 7847   2.356   4.901   6.943 -0.5528  0.0862 -0.0308
   73CHL1   C19 7848   2.463   5.007   6.916  0.0712 -0.2433 -0.3307
   73CHL1  H19A 7849   2.420   5.108   6.901 -1.3933 -0.8027 -0.0281
   73CHL1  H19B 7850   2.547   5.012   6.989 -1.4527 -0.6250  1.5297
   73CHL1  H19C 7851   2.516   4.989   6.820  0.2875 -0.6419 -0.1401
   73CHL1    C1 7852   2.424   4.762   6.954 -0.3538  0.4903  0.0011
   73CHL1   H1A 7853   2.520   4.778   7.008 -0.5687  0.4725  0.3898
   73CHL1   H1B 7854   2.366   4.695   7.021  1.6214 -3.3091 -1.7581
   73CHL1    C2 7855   2.453   4.688   6.821 -0.1985 -0.7718 -0.0568
   73CHL1   H2A 7856   2.499   4.590   6.847  1.1048  0.1984  1.5715
   73CHL1   H2B 7857   2.539   4.747   6.783 -0.5487  1.3082  2.1304
   73CHL1   C20 7858   2.178   5.232   7.548  0.6818 -0.6870  0.4206
   73CHL1   H20 7859   2.213   5.332   7.516 -1.8299  0.6455  1.5855
   73CHL1   C21 7860   2.291   5.153   7.616  0.7674  0.1646 -0.0231
   73CHL1  H21A 7861   2.318   5.190   7.717 -2.4399  0.2948  0.9227
   73CHL1  H21B 7862   2.380   5.155   7.550  0.5814 -1.3458 -0.3533
   73CHL1  H21C 7863   2.268   5.046   7.634  0.9866  0.2287  0.6675
   73CHL1   C22 7864   2.056   5.247   7.647 -0.4484 -0.0423  1.0881
   73CHL1  H22A 7865   1.965   5.274   7.590  0.9279  0.9526 -0.7806
   73CHL1  H22B 7866   2.043   5.156   7.708  0.9293 -1.3054 -0.3986
   73CHL1   C23 7867   2.084   5.360   7.752  0.8075  0.1970  0.0577
   73CHL1  H23A 7868   2.192   5.349   7.779  0.6381  1.3685  1.2830
   73CHL1  H23B 7869   2.074   5.462   7.709 -0.6830  1.7115  3.6342
   73CHL1   C24 7870   1.988   5.343   7.877 -0.2796 -1.2869 -0.6071
   73CHL1  H24A 7871   2.007   5.424   7.950  1.8816 -0.4153 -2.0467
   73CHL1  H24B 7872   1.885   5.359   7.838  0.4972  3.0043 -1.3357
   73CHL1   C25 7873   1.999   5.215   7.975 -0.4723 -0.1277 -0.0880
   73CHL1   H25 7874   1.983   5.119   7.923 -2.5025 -1.3538  2.5733
   73CHL1   C26 7875   2.129   5.213   8.058  0.1100  0.3867  0.0156
   73CHL1  H26A 7876   2.206   5.236   7.981 -0.3626 -1.9417 -1.2503
   73CHL1  H26B 7877   2.139   5.293   8.135  1.0370  0.0509  0.2484
   73CHL1  H26C 7878   2.155   5.113   8.096 -1.7378 -1.0755 -2.2570
   73CHL1   C27 7879   1.877   5.215   8.069  0.8397  0.1839 -1.6508
   73CHL1  H27A 7880   1.885   5.136   8.146 -0.9244  0.9816 -0.5748
   73CHL1  H27B 7881   1.863   5.303   8.136 -2.5771 -1.4410  0.0286
   73CHL1  H27C 7882   1.783   5.204   8.011  0.6643 -3.3779 -0.9162
   74CHL1    C3 7883   2.856   4.894   6.770 -0.6211 -0.3439 -0.3651
   74CHL1    H3 7884   2.745   4.897   6.761 -0.6403  2.5574 -0.1275
   74CHL1    O3 7885   2.910   4.888   6.646 -0.3915  0.5511  0.0212
   74CHL1   H3' 7886   3.001   4.863   6.657  0.1189  2.1483 -0.2289
   74CHL1    C4 7887   2.902   5.020   6.849 -0.2103 -0.2562 -0.0087
   74CHL1   H4A 7888   3.013   5.022   6.843 -0.0709 -0.5668  1.8045
   74CHL1   H4B 7889   2.864   5.109   6.795  1.7250  2.2006  2.3869
   74CHL1    C5 7890   2.861   5.024   6.992 -0.0939  0.0354 -0.5497
   74CHL1    C6 7891   2.782   5.124   7.048 -0.7000 -0.7535 -0.3203
   74CHL1    H6 7892   2.761   5.214   6.987  0.5042 -0.8342 -0.8952
   74CHL1    C7 7893   2.757   5.143   7.193 -0.4180 -0.2689 -0.1648
   74CHL1   H7A 7894   2.800   5.241   7.223 -0.7314 -0.0926 -0.2787
   74CHL1   H7B 7895   2.647   5.148   7.210 -0.2386  0.3128  0.8795
   74CHL1    C8 7896   2.834   5.035   7.281  0.2615  0.4679  0.1051
   74CHL1    H8 7897   2.941   5.063   7.291  0.4817 -0.1179 -0.5640
   74CHL1   C14 7898   2.758   5.017   7.413  0.5740  0.1274  0.0658
   74CHL1   H14 7899   2.661   4.976   7.377  1.3578 -1.0329 -0.7980
   74CHL1   C15 7900   2.719   5.144   7.494 -0.2486  0.4243 -0.2262
   74CHL1  H15A 7901   2.811   5.205   7.509 -0.6576  0.5812  2.0050
   74CHL1  H15B 7902   2.635   5.204   7.455 -2.0589 -0.6664  1.7701
   74CHL1   C16 7903   2.688   5.087   7.635 -0.3275 -0.1500 -0.0100
   74CHL1  H16A 7904   2.750   5.141   7.711  2.2953 -0.0677 -2.0502
   74CHL1  H16B 7905   2.581   5.100   7.661  0.0098 -1.6520  2.4992
   74CHL1   C17 7906   2.721   4.936   7.631 -0.3461  0.2111 -0.8676
   74CHL1   H17 7907   2.626   4.888   7.599 -0.0562 -1.6014  0.8325
   74CHL1   C13 7908   2.815   4.917   7.506 -0.1789  0.8983 -0.0411
   74CHL1   C18 7909   2.963   4.956   7.536  0.1527 -0.3841  0.0014
   74CHL1  H18A 7910   3.012   4.881   7.601  2.1421 -0.7848 -1.8434
   74CHL1  H18B 7911   3.025   4.957   7.444  0.0697 -1.2234 -0.0767
   74CHL1  H18C 7912   2.970   5.054   7.588 -1.3722 -2.3383  4.3461
   74CHL1   C12 7913   2.822   4.778   7.442  0.4034 -0.4385 -0.3650
   74CHL1  H12A 7914   2.861   4.704   7.516  0.7905 -2.1233 -2.1644
   74CHL1  H12B 7915   2.717   4.745   7.422 -0.4730  1.3450  0.9359
   74CHL1   C11 7916   2.887   4.779   7.309 -0.1307 -0.3176 -0.6821
   74CHL1  H11A 7917   2.993   4.807   7.332 -0.7333  1.3522  0.2664
   74CHL1  H11B 7918   2.877   4.682   7.257  1.3700 -1.3796  0.8885
   74CHL1    C9 7919   2.836   4.895   7.211  0.2844 -0.7651  0.2541
   74CHL1    H9 7920   2.728   4.880   7.193 -0.1865 -0.1955  2.3022
   74CHL1   C10 7921   2.904   4.905   7.074 -0.7781  1.1276  0.6713
   74CHL1   C19 7922   3.060   4.909   7.088 -0.5482 -0.7074  0.3122
   74CHL1  H19A 7923   3.109   4.916   6.989 -4.2552  0.5257 -1.6053
   74CHL1  H19B 7924   3.089   4.995   7.152  1.0141 -0.8196 -0.2106
   74CHL1  H19C 7925   3.098   4.821   7.144 -2.0654 -2.5508 -1.4134
   74CHL1    C1 7926   2.863   4.781   6.993 -0.7627  0.1701  0.3255
   74CHL1   H1A 7927   2.894   4.690   7.049  1.4334  0.3638 -0.4579
   74CHL1   H1B 7928   2.753   4.783   7.002 -0.9749 -2.1989 -0.9568
   74CHL1    C2 7929   2.902   4.768   6.843  0.2283  0.4364 -0.0753
   74CHL1   H2A 7930   2.857   4.674   6.805  2.3467 -1.1561  1.1363
   74CHL1   H2B 7931   3.012   4.752   6.841 -0.3269 -5.4544 -0.8098
   74CHL1   C20 7932   2.755   4.873   7.772  0.2078 -0.3631 -0.0224
   74CHL1   H20 7933   2.790   4.768   7.758  0.4210 -0.2082 -0.6939
   74CHL1   C21 7934   2.632   4.880   7.863 -0.1791 -0.3027  0.1552
   74CHL1  H21A 7935   2.548   4.813   7.835 -0.6797 -0.0823  1.1055
   74CHL1  H21B 7936   2.594   4.983   7.872 -0.7152 -0.4874  0.0349
   74CHL1  H21C 7937   2.671   4.849   7.962  2.4484 -0.5808 -0.8780
   74CHL1   C22 7938   2.872   4.949   7.846  0.3686 -0.1795  0.3742
   74CHL1  H22A 7939   2.940   5.006   7.779  2.1921  0.5156  2.6935
   74CHL1  H22B 7940   2.836   5.008   7.933  3.1670  0.8031  0.9585
   74CHL1   C23 7941   2.959   4.845   7.913 -0.6879  0.1897  0.3420
   74CHL1  H23A 7942   2.898   4.777   7.975  2.6915 -2.6482  0.8699
   74CHL1  H23B 7943   2.994   4.777   7.832 -1.3053  0.1090  0.1374
   74CHL1   C24 7944   3.074   4.901   7.989 -0.1382 -0.6194 -0.7382
   74CHL1  H24A 7945   3.123   4.971   7.919 -0.1215  0.3679  0.2352
   74CHL1  H24B 7946   3.039   4.959   8.077  0.5609 -1.0535 -0.1665
   74CHL1   C25 7947   3.176   4.794   8.032  0.3638  0.0690 -0.0420
   74CHL1   H25 7948   3.200   4.745   7.935 -2.5233  1.7540 -1.7069
   74CHL1   C26 7949   3.299   4.849   8.101  0.9024 -0.7250 -0.0828
   74CHL1  H26A 7950   3.280   4.937   8.165 -1.2686 -0.8759 -0.4546
   74CHL1  H26B 7951   3.347   4.769   8.161 -1.8630 -0.6488  2.4246
   74CHL1  H26C 7952   3.363   4.885   8.018  0.0728  1.1305  0.0337
   74CHL1   C27 7953   3.111   4.687   8.127 -1.5337 -0.3424 -0.4053
   74CHL1  H27A 7954   3.089   4.733   8.226 -2.4962 -1.7597  0.0653
   74CHL1  H27B 7955   3.008   4.659   8.096 -0.6346 -2.6357 -1.5652
   74CHL1  H27C 7956   3.181   4.603   8.143 -1.2271 -0.2869 -1.3777
   75CHL1    C3 7957   2.758   6.680   6.786  0.5109  0.8375 -0.0588
   75CHL1    H3 7958   2.746   6.789   6.802 -0.1025  1.3230 -3.1525
   75CHL1    O3 7959   2.794   6.657   6.647 -0.6915 -0.7008  0.9195
   75CHL1   H3' 7960   2.796   6.562   6.636  1.7413 -0.7353  0.9698
   75CHL1    C4 7961   2.872   6.640   6.879  0.1804  0.7273 -1.2757
   75CHL1   H4A 7962   2.902   6.537   6.850  1.4084  0.6097  0.2771
   75CHL1   H4B 7963   2.969   6.689   6.857  1.8594 -1.8612 -0.1309
   75CHL1    C5 7964   2.836   6.641   7.027 -0.3763  0.0258  0.1257
   75CHL1    C6 7965   2.910   6.710   7.112  0.3464  0.0241 -0.0789
   75CHL1    H6 7966   2.989   6.771   7.066  0.9064 -0.0886  0.7103
   75CHL1    C7 7967   2.889   6.721   7.260  0.3805 -0.6646 -0.3760
   75CHL1   H7A 7968   2.985   6.713   7.316 -0.6066 -0.5614  1.4101
   75CHL1   H7B 7969   2.835   6.816   7.280  2.1948  0.2677  0.3513
   75CHL1    C8 7970   2.798   6.610   7.311 -0.2162  0.4580 -0.0963
   75CHL1    H8 7971   2.851   6.512   7.310 -0.7421  0.1111 -2.6761
   75CHL1   C14 7972   2.750   6.644   7.451 -0.3382 -0.3620  0.1850
   75CHL1   H14 7973   2.702   6.743   7.439  1.4517  0.3414 -1.6100
   75CHL1   C15 7974   2.856   6.676   7.562  0.0057 -0.1095 -0.3939
   75CHL1  H15A 7975   2.939   6.602   7.556  0.1796  0.1953 -2.1313
   75CHL1  H15B 7976   2.901   6.772   7.530 -1.1352  0.1299 -1.3614
   75CHL1   C16 7977   2.776   6.660   7.690  0.1862 -0.2920 -0.0776
   75CHL1  H16A 7978   2.829   6.586   7.755  2.5759 -0.2525 -1.8287
   75CHL1  H16B 7979   2.781   6.760   7.738  0.5571 -0.7028  0.7614
   75CHL1   C17 7980   2.638   6.622   7.644 -0.5027  0.1820 -0.0397
   75CHL1   H17 7981   2.586   6.718   7.620  0.4203  0.8821  0.6840
   75CHL1   C13 7982   2.656   6.543   7.513 -0.0096 -0.2950 -0.6188
   75CHL1   C18 7983   2.725   6.408   7.542  0.5011 -1.1291 -0.5650
   75CHL1  H18A 7984   2.823   6.413   7.595 -0.7784  1.6083  1.8344
   75CHL1  H18B 7985   2.661   6.341   7.603 -2.2305  0.4844 -1.4632
   75CHL1  H18C 7986   2.743   6.356   7.446  1.6582 -1.3016 -0.2682
   75CHL1   C12 7987   2.535   6.528   7.429  0.2532  0.1752  0.1516
   75CHL1  H12A 7988   2.470   6.451   7.476  1.7226 -2.4144 -1.7653
   75CHL1  H12B 7989   2.476   6.622   7.428  0.4898  0.3269  0.1951
   75CHL1   C11 7990   2.565   6.496   7.282 -0.5962 -0.2792 -0.5967
   75CHL1  H11A 7991   2.609   6.394   7.279  2.8089  1.0171  0.4876
   75CHL1  H11B 7992   2.475   6.506   7.217  0.2777 -2.1931 -2.1984
   75CHL1    C9 7993   2.674   6.594   7.218  0.2154  0.8370 -0.1939
   75CHL1    H9 7994   2.627   6.695   7.214 -0.0441  0.8219  1.7004
   75CHL1   C10 7995   2.713   6.568   7.065  0.2415 -0.2920 -1.0513
   75CHL1   C19 7996   2.742   6.417   7.058 -0.5615  0.5404  0.5701
   75CHL1  H19A 7997   2.657   6.350   7.081  0.5994 -2.0814 -2.1719
   75CHL1  H19B 7998   2.752   6.375   6.956  1.7388 -0.3638  1.0855
   75CHL1  H19C 7999   2.829   6.384   7.119 -1.2933 -0.1714  1.2433
   75CHL1    C1 8000   2.598   6.610   6.974  0.0218  0.5195 -0.2422
   75CHL1   H1A 8001   2.512   6.543   6.997 -0.2777  0.6451 -0.9638
   75CHL1   H1B 8002   2.564   6.715   6.979 -2.9929 -0.4316  1.4606
   75CHL1    C2 8003   2.630   6.600   6.820  0.4331  0.6110 -0.4677
   75CHL1   H2A 8004   2.547   6.646   6.762 -0.0866  0.0094 -0.2144
   75CHL1   H2B 8005   2.640   6.495   6.785  0.9399  0.0327  1.3106
   75CHL1   C20 8006   2.543   6.568   7.764  0.4312 -0.8338 -0.3944
   75CHL1   H20 8007   2.583   6.467   7.788  1.2841 -0.6893 -1.1378
   75CHL1   C21 8008   2.392   6.559   7.710  0.0245 -0.1516 -0.5121
   75CHL1  H21A 8009   2.363   6.658   7.666 -0.8322 -0.1642 -0.0060
   75CHL1  H21B 8010   2.318   6.524   7.785  0.4418  1.5746  0.7622
   75CHL1  H21C 8011   2.384   6.479   7.633 -1.1808  0.3839 -0.9883
   75CHL1   C22 8012   2.544   6.655   7.893 -0.1733  0.3460  0.4307
   75CHL1  H22A 8013   2.646   6.648   7.936 -0.2643  0.7388  0.7188
   75CHL1  H22B 8014   2.519   6.756   7.854  1.5677  0.8714  0.6118
   75CHL1   C23 8015   2.445   6.612   8.008 -1.1686  0.0385  0.2520
   75CHL1  H23A 8016   2.339   6.610   7.975 -0.6395  2.0613 -1.7207
   75CHL1  H23B 8017   2.469   6.506   8.031 -0.2116 -0.2576 -1.9376
   75CHL1   C24 8018   2.474   6.696   8.142 -0.5273  0.1259 -0.3874
   75CHL1  H24A 8019   2.457   6.798   8.101  0.9133  0.7150  0.4176
   75CHL1  H24B 8020   2.390   6.664   8.207 -1.4865  1.3164 -0.9961
   75CHL1   C25 8021   2.611   6.682   8.212  0.4913  0.1645 -0.6829
   75CHL1   H25 8022   2.702   6.685   8.148  0.5245 -1.8236 -0.7944
   75CHL1   C26 8023   2.611   6.798   8.316  0.1946 -0.3368  0.1883
   75CHL1  H26A 8024   2.534   6.782   8.394  1.6824 -1.9997  1.4077
   75CHL1  H26B 8025   2.703   6.803   8.378  0.2779  0.5854 -0.0009
   75CHL1  H26C 8026   2.588   6.889   8.257 -1.9584 -0.8452  0.1623
   75CHL1   C27 8027   2.611   6.542   8.289  0.0281  0.2440 -0.5337
   75CHL1  H27A 8028   2.694   6.553   8.363 -0.9828 -1.0849  0.8521
   75CHL1  H27B 8029   2.511   6.529   8.336  0.1048  0.0772 -0.4168
   75CHL1  H27C 8030   2.637   6.466   8.213  1.2824 -0.2694  0.3648
   76CHL1    C3 8031   0.263   5.826   7.144  0.2154  0.2461  0.3374
   76CHL1    H3 8032   0.317   5.729   7.154  0.2707  0.3435  1.0443
   76CHL1    O3 8033   0.262   5.853   7.004 -0.2674 -0.2009 -0.5028
   76CHL1   H3' 8034   0.176   5.895   6.995 -0.0808  0.3211  0.0518
   76CHL1    C4 8035   0.118   5.826   7.199 -0.2431 -0.2671 -0.0229
   76CHL1   H4A 8036   0.075   5.928   7.192  0.3045 -0.1654 -3.0171
   76CHL1   H4B 8037   0.048   5.764   7.138  0.5762  0.4968 -1.8135
   76CHL1    C5 8038   0.117   5.791   7.345 -0.5157  0.2986  0.1193
   76CHL1    C6 8039   0.054   5.684   7.388  0.1225  0.5591  0.2060
   76CHL1    H6 8040  -0.005   5.623   7.318  0.0442 -0.1521  0.8708
   76CHL1    C7 8041   0.034   5.646   7.533 -1.3440 -0.3975 -0.8141
   76CHL1   H7A 8042  -0.070   5.622   7.564 -1.3328  0.5747  0.0475
   76CHL1   H7B 8043   0.095   5.557   7.561 -0.4829  0.0534 -1.2244
   76CHL1    C8 8044   0.082   5.755   7.638 -0.5547 -0.5531 -0.2409
   76CHL1    H8 8045  -0.011   5.817   7.643 -0.4546 -0.4274  0.0495
   76CHL1   C14 8046   0.121   5.692   7.770 -0.3987  0.0325 -0.7010
   76CHL1   H14 8047   0.210   5.628   7.754 -2.1303 -2.5611 -0.5724
   76CHL1   C15 8048   0.020   5.586   7.829 -0.1651 -0.3917  0.4998
   76CHL1  H15A 8049  -0.084   5.625   7.820 -0.0530  0.3057  1.8935
   76CHL1  H15B 8050   0.030   5.501   7.758 -0.7890  2.0949 -2.8080
   76CHL1   C16 8051   0.070   5.572   7.974  0.1398  0.2907 -0.3675
   76CHL1  H16A 8052  -0.016   5.581   8.044  0.3805  0.4781 -0.0929
   76CHL1  H16B 8053   0.123   5.476   7.990 -0.2167  0.3655  1.3951
   76CHL1   C17 8054   0.182   5.687   7.997 -0.5685  0.0608  0.5345
   76CHL1   H17 8055   0.283   5.651   7.970 -1.2700 -1.8079  0.2944
   76CHL1   C13 8056   0.161   5.790   7.886  0.3644  0.1890 -0.1801
   76CHL1   C18 8057   0.043   5.882   7.919 -0.2009  0.2514  0.1412
   76CHL1  H18A 8058   0.019   5.945   7.831 -3.3017 -3.0925 -1.6660
   76CHL1  H18B 8059  -0.050   5.825   7.939  0.8332 -0.7381  2.4999
   76CHL1  H18C 8060   0.076   5.940   8.008  0.7771  0.9773 -0.6647
   76CHL1   C12 8061   0.290   5.864   7.838 -0.5696 -0.0485 -0.3968
   76CHL1  H12A 8062   0.321   5.937   7.916  0.0148 -2.0984  1.3916
   76CHL1  H12B 8063   0.371   5.789   7.830 -2.4061 -2.2856  0.8620
   76CHL1   C11 8064   0.269   5.931   7.696 -0.0279  0.4321  0.3589
   76CHL1  H11A 8065   0.193   6.010   7.710  0.9839  1.5531 -0.2568
   76CHL1  H11B 8066   0.364   5.966   7.649  0.3723 -0.2876  0.6097
   76CHL1    C9 8067   0.210   5.829   7.587  0.4154 -0.1151  0.0395
   76CHL1    H9 8068   0.286   5.748   7.576  0.5470 -0.1039  0.8655
   76CHL1   C10 8069   0.186   5.886   7.438 -0.5727 -0.1927 -0.1166
   76CHL1   C19 8070   0.106   6.025   7.449 -0.4405 -0.6658 -0.7011
   76CHL1  H19A 8071   0.165   6.098   7.509  0.1177 -0.7508 -1.1450
   76CHL1  H19B 8072   0.084   6.066   7.348 -2.2186 -0.4570 -0.2654
   76CHL1  H19C 8073   0.009   6.013   7.503 -1.7126  0.5288 -2.5641
   76CHL1    C1 8074   0.330   5.907   7.378 -0.2388  0.4846  0.1433
   76CHL1   H1A 8075   0.393   5.989   7.419  1.8636 -0.5494 -0.8893
   76CHL1   H1B 8076   0.386   5.812   7.391  2.0720  1.6520 -0.7600
   76CHL1    C2 8077   0.339   5.934   7.221 -0.3008  0.1219  0.0007
   76CHL1   H2A 8078   0.443   5.909   7.192 -0.7398 -2.0601  0.0986
   76CHL1   H2B 8079   0.303   6.035   7.192  0.3311  0.6473  1.0089
   76CHL1   C20 8080   0.191   5.741   8.140  0.1022 -0.3071  0.0266
   76CHL1   H20 8081   0.097   5.799   8.158  0.8022  0.7613  0.3121
   76CHL1   C21 8082   0.304   5.840   8.162  0.2322  0.3807 -0.1573
   76CHL1  H21A 8083   0.282   5.936   8.111 -2.0609  0.0838  0.1878
   76CHL1  H21B 8084   0.399   5.801   8.119 -0.7839 -1.6196 -0.7434
   76CHL1  H21C 8085   0.333   5.861   8.267 -0.1450 -1.0468  0.2569
   76CHL1   C22 8086   0.200   5.624   8.243  0.5752 -0.2078 -0.8195
   76CHL1  H22A 8087   0.122   5.548   8.223  2.5814 -2.6949  0.3584
   76CHL1  H22B 8088   0.299   5.574   8.236  0.4250 -0.7877  0.8565
   76CHL1   C23 8089   0.178   5.674   8.389 -0.2861  0.3643 -0.0367
   76CHL1  H23A 8090   0.184   5.590   8.461 -0.3739  1.8744  1.8095
   76CHL1  H23B 8091   0.263   5.737   8.423  0.3764 -1.3064  1.5497
   76CHL1   C24 8092   0.048   5.748   8.409  0.7893  0.9416  0.3652
   76CHL1  H24A 8093   0.048   5.846   8.357 -0.5584  0.9957  0.4417
   76CHL1  H24B 8094  -0.035   5.678   8.384  0.7475  0.3512  2.0573
   76CHL1   C25 8095   0.019   5.786   8.555 -0.3523 -0.0761 -0.4195
   76CHL1   H25 8096   0.052   5.695   8.610  1.1133 -0.3878 -1.7423
   76CHL1   C26 8097   0.108   5.900   8.614  0.3685  0.2390  0.5590
   76CHL1  H26A 8098   0.068   5.990   8.562 -2.5031 -1.6063 -0.7399
   76CHL1  H26B 8099   0.094   5.903   8.724  0.6227 -0.1021  0.5990
   76CHL1  H26C 8100   0.216   5.876   8.606  0.4033 -0.8757  3.3095
   76CHL1   C27 8101  -0.129   5.813   8.585  0.1683 -0.7014  0.9405
   76CHL1  H27A 8102  -0.195   5.736   8.541 -1.0909  1.8251 -1.9288
   76CHL1  H27B 8103  -0.155   5.830   8.692 -1.7367 -2.1176  0.7628
   76CHL1  H27C 8104  -0.160   5.909   8.539 -1.4271 -1.3345  0.6474
   77CHL1    C3 8105   3.399   6.149   6.724 -0.5296 -0.3284 -0.3557
   77CHL1    H3 8106   3.315   6.076   6.728 -0.6257 -0.1593  1.1363
   77CHL1    O3 8107   3.452   6.156   6.593 -0.2734 -0.1520 -0.1038
   77CHL1   H3' 8108   3.529   6.213   6.598  0.4457 -1.1133  0.2374
   77CHL1    C4 8109   3.351   6.290   6.782 -0.1884  0.1264 -0.2233
   77CHL1   H4A 8110   3.427   6.369   6.766 -1.0643  1.1587  0.5528
   77CHL1   H4B 8111   3.265   6.318   6.718  1.1535 -1.9085 -3.1250
   77CHL1    C5 8112   3.310   6.293   6.926  0.5915  0.1342  0.2179
   77CHL1    C6 8113   3.191   6.338   6.979 -0.0172  0.5923  0.4259
   77CHL1    H6 8114   3.113   6.371   6.909 -0.4826 -0.5115  0.4002
   77CHL1    C7 8115   3.149   6.342   7.119  0.2660 -0.1921  0.1630
   77CHL1   H7A 8116   3.110   6.443   7.141  1.6999  0.6974 -1.2072
   77CHL1   H7B 8117   3.065   6.270   7.134 -0.8034  1.1217  0.6373
   77CHL1    C8 8118   3.270   6.317   7.213  0.5959 -0.0832 -0.2843
   77CHL1    H8 8119   3.325   6.414   7.214 -0.9210  0.8306  1.0473
   77CHL1   C14 8120   3.213   6.285   7.352 -0.2973  0.9937 -0.7803
   77CHL1   H14 8121   3.166   6.184   7.339  1.0070 -0.1474  2.4700
   77CHL1   C15 8122   3.124   6.385   7.424  0.5516  1.0665 -0.0056
   77CHL1  H15A 8123   3.175   6.483   7.418  0.1522  1.2028 -1.7434
   77CHL1  H15B 8124   3.020   6.394   7.384  1.0980  0.0807 -1.7398
   77CHL1   C16 8125   3.114   6.340   7.569 -0.8891 -0.3928  0.4998
   77CHL1  H16A 8126   3.132   6.434   7.626 -1.4422  0.2603 -0.3817
   77CHL1  H16B 8127   3.022   6.291   7.609  0.1742 -3.4581 -0.5122
   77CHL1   C17 8128   3.228   6.237   7.581  0.2594  0.2111 -0.8089
   77CHL1   H17 8129   3.185   6.136   7.562 -1.8208  0.7746  0.5988
   77CHL1   C13 8130   3.319   6.253   7.459 -0.4418  0.8493 -0.6569
   77CHL1   C18 8131   3.407   6.371   7.484 -0.1841  0.0976 -0.1570
   77CHL1  H18A 8132   3.464   6.412   7.398 -0.3442  1.4549  0.3591
   77CHL1  H18B 8133   3.351   6.458   7.524  0.2294  0.8292 -1.1245
   77CHL1  H18C 8134   3.485   6.353   7.561 -1.5101  2.5741  1.9051
   77CHL1   C12 8135   3.384   6.130   7.413 -0.1690  0.4670  0.2439
   77CHL1  H12A 8136   3.469   6.109   7.481  0.7956  0.5258 -0.9109
   77CHL1  H12B 8137   3.318   6.040   7.403  0.1841  0.1073  1.0929
   77CHL1   C11 8138   3.449   6.141   7.266 -0.0169  0.1858  0.8375
   77CHL1  H11A 8139   3.533   6.214   7.269 -0.7530  1.0735  0.4433
   77CHL1  H11B 8140   3.477   6.039   7.232  0.7394  0.5740  0.2822
   77CHL1    C9 8141   3.350   6.201   7.161  0.5847 -0.6035 -0.2277
   77CHL1    H9 8142   3.270   6.125   7.143 -1.6390  1.5419  0.0146
   77CHL1   C10 8143   3.410   6.233   7.021  0.1173  0.4155  0.1485
   77CHL1   C19 8144   3.523   6.335   7.028 -0.2735 -0.0804  0.1993
   77CHL1  H19A 8145   3.595   6.323   6.944  0.5182  0.2523  0.8099
   77CHL1  H19B 8146   3.497   6.443   7.018  0.6344  0.2883  1.5487
   77CHL1  H19C 8147   3.592   6.343   7.115  0.6840  2.4290 -0.6901
   77CHL1    C1 8148   3.467   6.101   6.966  0.6519 -0.0859 -0.0022
   77CHL1   H1A 8149   3.558   6.080   7.027  0.8768  0.9664  0.0317
   77CHL1   H1B 8150   3.387   6.025   6.985  0.9784 -0.3830  0.2007
   77CHL1    C2 8151   3.504   6.098   6.817 -0.3175  0.4310 -0.4876
   77CHL1   H2A 8152   3.528   5.996   6.780 -0.4035 -0.2989  1.3462
   77CHL1   H2B 8153   3.592   6.166   6.810  0.3204 -0.4221 -1.0016
   77CHL1   C20 8154   3.293   6.238   7.722  0.0219  1.0345 -0.1470
   77CHL1   H20 8155   3.341   6.337   7.738  0.0558  0.9208  0.4555
   77CHL1   C21 8156   3.393   6.119   7.734 -0.3482 -0.5036  0.5675
   77CHL1  H21A 8157   3.374   6.025   7.677  1.8219 -0.2926 -0.6206
   77CHL1  H21B 8158   3.414   6.092   7.839 -1.1514 -0.9499  0.6206
   77CHL1  H21C 8159   3.486   6.164   7.692 -0.3132 -1.3903 -0.3700
   77CHL1   C22 8160   3.192   6.228   7.833  0.0151 -0.2708 -0.4516
   77CHL1  H22A 8161   3.234   6.220   7.935 -0.1330 -3.2333 -0.5364
   77CHL1  H22B 8162   3.126   6.317   7.834  1.4640  0.8356  0.1801
   77CHL1   C23 8163   3.101   6.103   7.829 -0.3537  0.0578  0.2341
   77CHL1  H23A 8164   3.051   6.101   7.730  0.1066 -2.1744  0.0130
   77CHL1  H23B 8165   3.164   6.013   7.841  2.7761  1.4706 -3.2808
   77CHL1   C24 8166   3.001   6.101   7.952  0.1285  0.1744 -0.2969
   77CHL1  H24A 8167   2.932   6.016   7.938 -1.1059  1.1391 -0.2283
   77CHL1  H24B 8168   3.062   6.078   8.042  1.1839  3.0738 -0.1528
   77CHL1   C25 8169   2.918   6.228   8.003 -0.4309 -0.2460 -0.0658
   77CHL1   H25 8170   2.837   6.178   8.060  0.2502 -1.6509 -0.2729
   77CHL1   C26 8171   2.997   6.322   8.095  0.1105  0.6776  0.0378
   77CHL1  H26A 8172   3.029   6.274   8.190 -0.0324 -0.9801 -0.7316
   77CHL1  H26B 8173   3.078   6.368   8.034 -0.3702  0.7094 -0.5898
   77CHL1  H26C 8174   2.941   6.411   8.131  1.3141  0.5299  2.5538
   77CHL1   C27 8175   2.844   6.304   7.887 -0.8614 -0.7216 -0.1317
   77CHL1  H27A 8176   2.919   6.371   7.840 -3.1444  0.3341 -2.5278
   77CHL1  H27B 8177   2.810   6.238   7.805  0.3510 -0.1633 -1.1178
   77CHL1  H27C 8178   2.760   6.370   7.918  0.9168  1.7285 -0.1824
   78CHL1    C3 8179   1.261   1.782   6.926 -0.5599  0.0124  0.2347
   78CHL1    H3 8180   1.307   1.882   6.941  4.2763 -1.9852  0.7002
   78CHL1    O3 8181   1.283   1.745   6.792  0.0902 -0.1931 -0.0471
   78CHL1   H3' 8182   1.246   1.657   6.783 -1.9214  0.6025 -0.1907
   78CHL1    C4 8183   1.335   1.675   7.018  0.3502  0.4107  0.1077
   78CHL1   H4A 8184   1.309   1.569   6.995 -0.8038  0.3996  1.3685
   78CHL1   H4B 8185   1.444   1.682   6.995  0.8096 -0.6385  1.7747
   78CHL1    C5 8186   1.307   1.686   7.164  0.6324  0.0732  0.5323
   78CHL1    C6 8187   1.401   1.696   7.254 -0.2640 -0.2806  0.4167
   78CHL1    H6 8188   1.506   1.685   7.225  0.0073  0.1829  1.2040
   78CHL1    C7 8189   1.370   1.720   7.395  0.5697  0.2805  0.2392
   78CHL1   H7A 8190   1.453   1.683   7.459 -0.1075  0.8906  1.5120
   78CHL1   H7B 8191   1.375   1.829   7.416 -2.1348  0.5684 -0.1579
   78CHL1    C8 8192   1.229   1.680   7.443  0.2949 -0.6993  0.3512
   78CHL1    H8 8193   1.217   1.570   7.428 -0.5074 -0.7489  1.2301
   78CHL1   C14 8194   1.201   1.724   7.585 -0.4955  0.3949  0.2548
   78CHL1   H14 8195   1.216   1.834   7.586  3.7651 -0.0358  0.1667
   78CHL1   C15 8196   1.292   1.679   7.708  0.2294 -0.2585  0.1464
   78CHL1  H15A 8197   1.295   1.569   7.693 -1.7961 -0.3652  0.2555
   78CHL1  H15B 8198   1.390   1.730   7.704 -0.3995  0.9461 -0.3405
   78CHL1   C16 8199   1.209   1.720   7.830 -0.1697 -0.1898  0.3241
   78CHL1  H16A 8200   1.208   1.634   7.901  0.6406 -1.1048 -0.7415
   78CHL1  H16B 8201   1.250   1.806   7.887  0.3947 -0.4575  0.3325
   78CHL1   C17 8202   1.073   1.757   7.775 -0.3262  0.0388  0.1001
   78CHL1   H17 8203   1.074   1.868   7.764 -0.8749 -0.0795 -1.3763
   78CHL1   C13 8204   1.054   1.701   7.631  0.3486  0.3505 -0.2795
   78CHL1   C18 8205   1.025   1.554   7.634  0.1861  0.0429  0.9895
   78CHL1  H18A 8206   1.062   1.494   7.548  1.1654  2.3458 -0.2675
   78CHL1  H18B 8207   1.084   1.518   7.720  2.1296 -0.8201 -0.6248
   78CHL1  H18C 8208   0.917   1.526   7.637  0.6747 -2.7654 -1.9845
   78CHL1   C12 8209   0.960   1.780   7.529 -0.9038  0.2195  0.5793
   78CHL1  H12A 8210   0.851   1.770   7.543 -0.7243 -1.0819  1.1751
   78CHL1  H12B 8211   0.985   1.888   7.537 -0.5934  0.3841 -1.8622
   78CHL1   C11 8212   0.984   1.729   7.385 -0.2615  0.5360 -0.5685
   78CHL1  H11A 8213   0.960   1.621   7.373  0.1119  0.3726  0.0871
   78CHL1  H11B 8214   0.904   1.773   7.321 -1.9289 -0.4499  0.7552
   78CHL1    C9 8215   1.130   1.750   7.340 -0.2191  0.1470 -0.3693
   78CHL1    H9 8216   1.153   1.858   7.347 -2.5048  0.6581  0.2322
   78CHL1   C10 8217   1.152   1.695   7.195 -0.0371 -0.6571  0.2543
   78CHL1   C19 8218   1.099   1.551   7.175 -0.3631 -0.1732 -0.2914
   78CHL1  H19A 8219   1.133   1.497   7.266 -0.5576 -0.0150 -0.1233
   78CHL1  H19B 8220   0.989   1.556   7.160 -0.4208  0.2835  0.2631
   78CHL1  H19C 8221   1.139   1.497   7.086 -0.9421 -1.0579 -0.0346
   78CHL1    C1 8222   1.083   1.797   7.100  0.6100  0.3208 -0.2489
   78CHL1   H1A 8223   0.972   1.795   7.111  0.6341 -0.4927 -0.0721
   78CHL1   H1B 8224   1.119   1.898   7.128 -0.6880  0.7672 -0.0990
   78CHL1    C2 8225   1.116   1.775   6.950 -0.4194 -0.5298 -0.1734
   78CHL1   H2A 8226   1.064   1.844   6.880  2.5292  0.4131 -1.6138
   78CHL1   H2B 8227   1.070   1.681   6.912  1.2847 -0.8310 -1.6830
   78CHL1   C20 8228   0.963   1.724   7.878  0.6560 -0.3321  0.5560
   78CHL1   H20 8229   0.964   1.616   7.907 -1.0357 -0.5636 -0.1177
   78CHL1   C21 8230   0.823   1.764   7.810 -0.0487 -0.5666 -0.3961
   78CHL1  H21A 8231   0.826   1.867   7.768 -0.7132 -0.3257  0.1259
   78CHL1  H21B 8232   0.739   1.745   7.881  0.1113  2.8694  0.8842
   78CHL1  H21C 8233   0.808   1.682   7.737  2.9391 -1.9415  0.4083
   78CHL1   C22 8234   0.973   1.796   8.008 -0.1192  0.4676  0.0033
   78CHL1  H22A 8235   1.074   1.786   8.054 -0.9359  2.1678  2.3369
   78CHL1  H22B 8236   0.955   1.903   7.983 -1.3797 -0.0623 -1.5285
   78CHL1   C23 8237   0.894   1.762   8.134  0.3410  0.3798  0.1628
   78CHL1  H23A 8238   0.786   1.781   8.112  0.3598 -0.8567 -1.1519
   78CHL1  H23B 8239   0.912   1.658   8.168  1.9305  0.5780  0.0029
   78CHL1   C24 8240   0.927   1.859   8.247 -0.2037  0.3671  1.0275
   78CHL1  H24A 8241   1.037   1.857   8.268 -0.1750  1.2893  1.0080
   78CHL1  H24B 8242   0.913   1.963   8.210  0.8924  0.0246 -0.4447
   78CHL1   C25 8243   0.853   1.832   8.378  0.5330  0.5283 -0.0869
   78CHL1   H25 8244   0.885   1.735   8.423  0.6364  0.7221  0.2646
   78CHL1   C26 8245   0.876   1.929   8.490 -0.1798 -0.8840 -0.6370
   78CHL1  H26A 8246   0.984   1.934   8.518  0.3364  2.0655 -2.6924
   78CHL1  H26B 8247   0.857   2.022   8.432 -0.5847 -2.1112 -2.5534
   78CHL1  H26C 8248   0.814   1.917   8.581  0.4284 -0.2316 -0.1161
   78CHL1   C27 8249   0.702   1.823   8.354  0.3124 -0.1340 -0.2123
   78CHL1  H27A 8250   0.658   1.915   8.309 -0.7216  0.7186  2.3194
   78CHL1  H27B 8251   0.688   1.738   8.284  1.9545  0.9335 -1.9394
   78CHL1  H27C 8252   0.651   1.811   8.452  0.2846  0.9948 -0.0663
   79CHL1    C3 8253   2.068   0.043   7.098 -1.0016 -0.1313 -0.6903
   79CHL1    H3 8254   1.968   0.091   7.092 -0.1510  2.0594  1.2054
   79CHL1    O3 8255   2.125   0.030   6.970  0.0623 -0.2820 -0.1064
   79CHL1   H3' 8256   2.182   0.106   6.955  1.6374 -1.7728 -2.3109
   79CHL1    C4 8257   2.162   0.129   7.185  0.0920 -0.2538  0.3753
   79CHL1   H4A 8258   2.264   0.084   7.181  0.7570  1.2205 -0.0272
   79CHL1   H4B 8259   2.155   0.229   7.137  0.2620 -0.1755  0.5128
   79CHL1    C5 8260   2.126   0.130   7.335  0.6336  0.3096 -0.1730
   79CHL1    C6 8261   2.084   0.247   7.392 -0.3815  0.5847  0.4084
   79CHL1    H6 8262   2.091   0.341   7.335 -2.2370  0.4547 -0.1118
   79CHL1    C7 8263   2.051   0.268   7.537 -0.3149  0.4283 -0.3201
   79CHL1   H7A 8264   2.109   0.347   7.590  0.4911 -0.1769 -0.2750
   79CHL1   H7B 8265   1.946   0.299   7.556 -0.2239 -0.6472  2.3631
   79CHL1    C8 8266   2.058   0.129   7.621  0.7450 -0.7986  0.2799
   79CHL1    H8 8267   2.166   0.125   7.645  0.9943 -1.7912 -0.9150
   79CHL1   C14 8268   1.966   0.138   7.747 -0.0445  0.5472 -0.2461
   79CHL1   H14 8269   1.862   0.148   7.708  0.2557 -3.0508 -2.3875
   79CHL1   C15 8270   2.002   0.252   7.845  0.3006  0.2109 -0.5489
   79CHL1  H15A 8271   2.111   0.268   7.861 -0.2257  1.5388  2.1779
   79CHL1  H15B 8272   1.959   0.343   7.799  1.6492  1.8234  1.2127
   79CHL1   C16 8273   1.944   0.201   7.983  0.0958  0.4879  0.1589
   79CHL1  H16A 8274   2.031   0.205   8.052  0.3418  1.3450 -0.1791
   79CHL1  H16B 8275   1.863   0.271   8.011  1.9509  2.5705  0.5989
   79CHL1   C17 8276   1.902   0.052   7.963 -0.2364 -0.1480 -0.6872
   79CHL1   H17 8277   1.792   0.056   7.946 -0.6245 -0.5198  1.4575
   79CHL1   C13 8278   1.964   0.007   7.829 -0.3265 -0.3178  0.3671
   79CHL1   C18 8279   2.111  -0.047   7.859 -0.6557 -0.2584 -0.0296
   79CHL1  H18A 8280   2.182  -0.042   7.773 -0.1989 -3.3516  0.0363
   79CHL1  H18B 8281   2.168   0.007   7.938  0.3004 -2.4030  0.8243
   79CHL1  H18C 8282   2.116  -0.151   7.898  3.3075 -0.5526 -0.9138
   79CHL1   C12 8283   1.891  -0.104   7.737  0.0040 -1.2432 -0.0658
   79CHL1  H12A 8284   1.884  -0.197   7.798 -3.5491 -1.5748 -0.7769
   79CHL1  H12B 8285   1.793  -0.056   7.722  0.3933 -0.0083  1.1441
   79CHL1   C11 8286   1.972  -0.121   7.609 -0.5189 -0.5192 -0.2705
   79CHL1  H11A 8287   2.064  -0.181   7.625 -0.9746 -0.8120  1.4111
   79CHL1  H11B 8288   1.906  -0.182   7.544 -0.0133 -1.0012 -0.3317
   79CHL1    C9 8289   2.006   0.014   7.530  0.0035  0.7367 -0.5779
   79CHL1    H9 8290   1.907   0.049   7.495 -0.0909  1.2465  0.1746
   79CHL1   C10 8291   2.089  -0.005   7.405  0.4554  0.4161 -0.5843
   79CHL1   C19 8292   2.218  -0.087   7.436 -0.7138 -0.2167 -0.5200
   79CHL1  H19A 8293   2.299  -0.071   7.363 -1.0506  1.6826 -0.5187
   79CHL1  H19B 8294   2.259  -0.057   7.535 -3.7893 -0.8160  1.0794
   79CHL1  H19C 8295   2.198  -0.196   7.433  1.5895 -0.6886  0.0072
   79CHL1    C1 8296   1.995  -0.084   7.301 -0.7350  0.0656 -0.2710
   79CHL1   H1A 8297   1.978  -0.189   7.332 -1.0782  0.1336 -0.2192
   79CHL1   H1B 8298   1.890  -0.048   7.289 -0.7782  0.0737  0.1079
   79CHL1    C2 8299   2.058  -0.095   7.158  0.2261 -0.4984  0.2910
   79CHL1   H2A 8300   1.996  -0.166   7.099  0.2481 -1.1836  1.0708
   79CHL1   H2B 8301   2.159  -0.140   7.162 -0.6859 -2.7387 -0.2904
   79CHL1   C20 8302   1.913  -0.033   8.096 -0.4862  0.3411 -0.4842
   79CHL1   H20 8303   2.023  -0.043   8.103 -0.6399 -0.6239  1.0606
   79CHL1   C21 8304   1.844  -0.165   8.076  0.4571  0.4170  0.2106
   79CHL1  H21A 8305   1.846  -0.226   8.169 -0.7964 -1.6530 -1.0339
   79CHL1  H21B 8306   1.902  -0.223   8.001  1.4380  0.7344  0.7131
   79CHL1  H21C 8307   1.737  -0.161   8.046  1.0798 -0.1751 -2.3739
   79CHL1   C22 8308   1.875   0.046   8.232  0.1390  0.5769  0.0003
   79CHL1  H22A 8309   1.922   0.146   8.231  1.3936 -0.0025 -0.2075
   79CHL1  H22B 8310   1.765   0.054   8.243  0.2708 -0.4589  2.6684
   79CHL1   C23 8311   1.923  -0.020   8.362  0.5495 -0.1951 -0.2061
   79CHL1  H23A 8312   1.868  -0.117   8.358 -0.6778  0.5208 -2.3449
   79CHL1  H23B 8313   2.032  -0.040   8.352  0.6053 -1.3448  2.0696
   79CHL1   C24 8314   1.882   0.063   8.491  0.2081  0.1047 -0.4845
   79CHL1  H24A 8315   1.930   0.013   8.577  1.7659  1.7012 -0.3587
   79CHL1  H24B 8316   1.934   0.161   8.496 -0.3693  0.3576  0.7093
   79CHL1   C25 8317   1.735   0.076   8.535  0.5793 -0.0258  0.1118
   79CHL1   H25 8318   1.729   0.076   8.646 -1.2368  1.3416  0.0645
   79CHL1   C26 8319   1.676   0.212   8.492  0.6051 -0.6649 -0.8178
   79CHL1  H26A 8320   1.670   0.208   8.381 -0.7190  3.0006 -0.9991
   79CHL1  H26B 8321   1.570   0.214   8.527  0.4891 -0.1968 -1.1914
   79CHL1  H26C 8322   1.729   0.304   8.523 -1.4568  0.5155 -0.5966
   79CHL1   C27 8323   1.643  -0.045   8.495 -0.1261 -0.3102  0.1769
   79CHL1  H27A 8324   1.619  -0.038   8.387 -0.8706  1.4687  0.4367
   79CHL1  H27B 8325   1.691  -0.143   8.516  0.8348 -0.0943 -0.9255
   79CHL1  H27C 8326   1.544  -0.049   8.544 -1.0924 -1.5059 -1.7220
   80CHL1    C3 8327   0.214   4.450   6.935  1.3939  0.2223  0.0026
   80CHL1    H3 8328   0.129   4.390   6.975  0.5052  0.6205 -1.2308
   80CHL1    O3 8329   0.165   4.530   6.830 -0.3246 -0.1077 -0.8491
   80CHL1   H3' 8330   0.248   4.559   6.791 -0.0269  2.2427  1.3059
   80CHL1    C4 8331   0.267   4.555   7.038  1.0128  0.4332 -0.3141
   80CHL1   H4A 8332   0.340   4.625   6.992  1.8503  0.3226  0.8004
   80CHL1   H4B 8333   0.174   4.611   7.062 -1.5759 -3.1851 -1.1490
   80CHL1    C5 8334   0.327   4.487   7.160 -0.2166 -0.0603  0.5519
   80CHL1    C6 8335   0.279   4.509   7.285  0.1113 -0.2047  0.0142
   80CHL1    H6 8336   0.202   4.586   7.302 -0.2555 -0.6769  0.5203
   80CHL1    C7 8337   0.329   4.441   7.406  0.2696  0.1845 -0.3828
   80CHL1   H7A 8338   0.327   4.499   7.501 -1.4024 -1.8953  0.9619
   80CHL1   H7B 8339   0.262   4.353   7.419  0.3562  0.0908 -0.5780
   80CHL1    C8 8340   0.459   4.370   7.386 -0.5203  0.3208  0.0813
   80CHL1    H8 8341   0.542   4.443   7.379 -0.4694  0.1509 -1.4035
   80CHL1   C14 8342   0.494   4.261   7.497  0.0647 -0.4633  0.1847
   80CHL1   H14 8343   0.416   4.182   7.498 -1.0416  0.6155  0.8281
   80CHL1   C15 8344   0.495   4.316   7.636 -0.0327 -0.0854 -0.3195
   80CHL1  H15A 8345   0.548   4.413   7.642 -0.3602  0.0267  0.8969
   80CHL1  H15B 8346   0.399   4.309   7.691  0.2339 -0.2546  0.1272
   80CHL1   C16 8347   0.581   4.205   7.710  0.2924 -0.6629 -0.9225
   80CHL1  H16A 8348   0.661   4.258   7.766  0.4448 -0.5763 -1.2147
   80CHL1  H16B 8349   0.530   4.158   7.796 -0.1213 -1.6990 -1.7110
   80CHL1   C17 8350   0.623   4.109   7.609  0.0064  1.1251  0.2433
   80CHL1   H17 8351   0.543   4.033   7.602  0.6692  0.4241  0.1882
   80CHL1   C13 8352   0.623   4.183   7.468  0.1295 -0.9277 -0.4286
   80CHL1   C18 8353   0.742   4.276   7.460 -0.4035 -0.0160  0.1495
   80CHL1  H18A 8354   0.763   4.326   7.363 -1.8737  1.3496  0.4980
   80CHL1  H18B 8355   0.721   4.364   7.525  1.3775  1.0847 -0.7043
   80CHL1  H18C 8356   0.832   4.217   7.486 -2.6204 -3.0865  1.5446
   80CHL1   C12 8357   0.605   4.102   7.341 -0.7154 -0.6558  0.1917
   80CHL1  H12A 8358   0.700   4.055   7.310 -1.1429 -0.1492 -2.0197
   80CHL1  H12B 8359   0.536   4.017   7.359  0.8821 -2.6922 -2.5869
   80CHL1   C11 8360   0.568   4.189   7.217 -0.1323  0.7341 -0.0221
   80CHL1  H11A 8361   0.663   4.240   7.192 -0.5516  0.0907 -3.4608
   80CHL1  H11B 8362   0.524   4.114   7.147 -1.7311 -0.0372  1.7079
   80CHL1    C9 8363   0.457   4.297   7.246 -0.1322  0.5579 -0.0189
   80CHL1    H9 8364   0.366   4.234   7.254  1.1341 -1.2644  0.7620
   80CHL1   C10 8365   0.439   4.384   7.125  0.5886  0.2357 -0.3734
   80CHL1   C19 8366   0.574   4.462   7.092  0.8914  0.0889  0.2852
   80CHL1  H19A 8367   0.662   4.398   7.067  2.9190  3.0645 -0.7295
   80CHL1  H19B 8368   0.552   4.535   7.012 -0.1224  1.4608  1.7396
   80CHL1  H19C 8369   0.599   4.506   7.191  1.2153  1.0737 -0.2244
   80CHL1    C1 8370   0.406   4.289   7.006  0.3424  0.1321 -0.2468
   80CHL1   H1A 8371   0.500   4.244   6.969  0.2363 -0.3855  0.1024
   80CHL1   H1B 8372   0.338   4.207   7.039  0.2453  0.3929  0.2084
   80CHL1    C2 8373   0.324   4.366   6.894  0.0409  0.2740  0.1748
   80CHL1   H2A 8374   0.285   4.295   6.818 -2.7473  1.0109  0.8358
   80CHL1   H2B 8375   0.400   4.440   6.859  1.3352  0.1125  2.4258
   80CHL1   C20 8376   0.749   4.023   7.650 -0.0004  0.0725  0.7764
   80CHL1   H20 8377   0.824   4.105   7.648 -1.4943  1.5137 -1.0121
   80CHL1   C21 8378   0.789   3.930   7.537 -0.0379  0.0153 -0.1869
   80CHL1  H21A 8379   0.860   3.987   7.473  1.0534 -1.3681 -0.2489
   80CHL1  H21B 8380   0.699   3.892   7.482  0.1120 -0.2751 -0.2348
   80CHL1  H21C 8381   0.847   3.842   7.570  2.1532  0.6620 -2.0740
   80CHL1   C22 8382   0.738   3.948   7.791  0.5145 -0.0661  0.6089
   80CHL1  H22A 8383   0.703   4.021   7.867  1.7476 -0.6454  1.7592
   80CHL1  H22B 8384   0.666   3.866   7.772  2.9316 -2.2516  0.3034
   80CHL1   C23 8385   0.870   3.888   7.841  0.7683 -0.1390 -0.3450
   80CHL1  H23A 8386   0.905   3.800   7.783  0.9076  0.4185 -1.1307
   80CHL1  H23B 8387   0.948   3.966   7.822  0.5857  0.6312  1.8075
   80CHL1   C24 8388   0.876   3.866   7.991  0.3813  1.1311 -0.8188
   80CHL1  H24A 8389   0.834   3.963   8.025  2.7313  1.5138  1.1908
   80CHL1  H24B 8390   0.798   3.793   8.022 -0.0951  1.7810 -0.4653
   80CHL1   C25 8391   1.002   3.815   8.047 -0.8777 -0.5857 -0.1621
   80CHL1   H25 8392   1.028   3.721   7.995  1.2773  0.2533 -0.7078
   80CHL1   C26 8393   1.121   3.912   8.032 -0.0074  0.4388 -0.0329
   80CHL1  H26A 8394   1.140   3.939   7.927  1.6147  0.2308  0.1918
   80CHL1  H26B 8395   1.091   4.008   8.079  0.1772  1.3757 -1.7559
   80CHL1  H26C 8396   1.217   3.873   8.073 -1.2070 -2.5808  0.1810
   80CHL1   C27 8397   0.991   3.781   8.202 -0.2036 -1.1129  0.9551
   80CHL1  H27A 8398   0.964   3.871   8.260 -0.3382 -0.4981 -0.0339
   80CHL1  H27B 8399   0.913   3.702   8.211 -1.2955 -0.0447  1.1366
   80CHL1  H27C 8400   1.088   3.734   8.229 -0.3903 -3.4914 -1.9639
   81CHL1    C3 8401   5.359   3.070   6.829 -0.1726 -0.8275 -1.1660
   81CHL1    H3 8402   5.415   3.001   6.897 -2.6983 -2.9000 -1.0338
   81CHL1    O3 8403   5.397   3.068   6.696 -0.3702  0.3627  0.2485
   81CHL1   H3' 8404   5.318   3.104   6.656 -0.4531 -0.0429  0.0428
   81CHL1    C4 8405   5.215   3.016   6.830  0.0133 -0.0695 -0.1574
   81CHL1   H4A 8406   5.142   3.074   6.770 -0.5415 -1.2513 -0.6758
   81CHL1   H4B 8407   5.222   2.918   6.778 -1.5230 -0.6767  0.7047
   81CHL1    C5 8408   5.183   3.003   6.982  0.3370 -0.8029 -0.5284
   81CHL1    C6 8409   5.165   2.882   7.039 -0.3966  0.1324  0.4330
   81CHL1    H6 8410   5.151   2.794   6.975 -1.6165  1.0969 -0.6653
   81CHL1    C7 8411   5.138   2.868   7.187 -0.1268 -0.3879  0.4153
   81CHL1   H7A 8412   5.061   2.788   7.201 -2.0456  1.4933  1.0867
   81CHL1   H7B 8413   5.237   2.845   7.232  0.2915 -1.3905 -0.9492
   81CHL1    C8 8414   5.089   3.001   7.253  0.5332 -1.0520  0.1522
   81CHL1    H8 8415   4.985   3.029   7.229  0.3902  0.8066  2.5731
   81CHL1   C14 8416   5.088   2.982   7.407  0.1859  0.4326  0.5594
   81CHL1   H14 8417   5.194   2.957   7.431 -0.3012 -1.9178  0.4648
   81CHL1   C15 8418   5.010   2.861   7.469 -0.6219 -0.2895 -0.2711
   81CHL1  H15A 8419   4.907   2.855   7.428 -1.3415 -1.2066  1.5117
   81CHL1  H15B 8420   5.071   2.769   7.459 -0.1637 -0.0331  0.1449
   81CHL1   C16 8421   5.008   2.906   7.617 -0.6441  0.2279  0.3095
   81CHL1  H16A 8422   4.903   2.901   7.653 -0.1014 -1.1277  1.8044
   81CHL1  H16B 8423   5.066   2.836   7.680  0.2185 -0.7414 -1.5002
   81CHL1   C17 8424   5.064   3.050   7.629  0.5421  0.0566  0.3167
   81CHL1   H17 8425   5.171   3.041   7.657  1.0051  0.0442 -1.3585
   81CHL1   C13 8426   5.059   3.107   7.482 -0.1832 -0.5439 -0.4797
   81CHL1   C18 8427   4.913   3.151   7.456  0.0421  0.4113 -0.1182
   81CHL1  H18A 8428   4.888   3.230   7.531 -1.4323 -2.1876  2.3451
   81CHL1  H18B 8429   4.903   3.186   7.351  0.9067  3.4145  0.6852
   81CHL1  H18C 8430   4.845   3.066   7.479  2.0610 -0.5938  2.6589
   81CHL1   C12 8431   5.161   3.217   7.450 -0.1678 -0.7859 -0.5687
   81CHL1  H12A 8432   5.123   3.309   7.500  0.7746 -0.7762  0.1589
   81CHL1  H12B 8433   5.262   3.188   7.485  0.3888  2.7340  1.2345
   81CHL1   C11 8434   5.171   3.242   7.298  0.2507  0.3547 -0.0604
   81CHL1  H11A 8435   5.078   3.295   7.269  0.5800  0.0965 -1.6385
   81CHL1  H11B 8436   5.252   3.315   7.278 -1.4164  2.3690  0.1797
   81CHL1    C9 8437   5.183   3.115   7.211 -0.2395  0.4454  0.0298
   81CHL1    H9 8438   5.282   3.079   7.247 -0.9813 -0.3947  1.3365
   81CHL1   C10 8439   5.184   3.141   7.061  0.4432 -0.3659 -0.2588
   81CHL1   C19 8440   5.068   3.227   7.016  0.0115  0.8178 -0.0910
   81CHL1  H19A 8441   5.091   3.332   7.046 -0.0228  0.8417 -0.1503
   81CHL1  H19B 8442   5.072   3.229   6.905 -1.9177 -0.1867 -0.2247
   81CHL1  H19C 8443   4.970   3.189   7.050 -0.8480  0.5892 -2.6122
   81CHL1    C1 8444   5.323   3.212   7.025  0.7075  0.1425 -0.2959
   81CHL1   H1A 8445   5.312   3.318   7.054  0.6000 -0.1766  0.8701
   81CHL1   H1B 8446   5.404   3.170   7.088  0.7182 -0.3722 -0.6414
   81CHL1    C2 8447   5.370   3.213   6.882  0.4685 -0.1858 -0.0984
   81CHL1   H2A 8448   5.473   3.255   6.874  0.7776 -1.0888 -1.1876
   81CHL1   H2B 8449   5.300   3.270   6.818 -0.2765  0.7297  1.5012
   81CHL1   C20 8450   4.994   3.120   7.745  0.3925 -0.5116 -0.1869
   81CHL1   H20 8451   4.895   3.162   7.717  0.9025  1.7793  1.2087
   81CHL1   C21 8452   5.100   3.220   7.793  0.5555  0.5701  0.0706
   81CHL1  H21A 8453   5.117   3.296   7.713  0.2680 -0.1445 -0.6900
   81CHL1  H21B 8454   5.191   3.167   7.830 -1.2883 -0.8782  2.8285
   81CHL1  H21C 8455   5.061   3.281   7.877 -1.0547  0.0854 -0.2990
   81CHL1   C22 8456   4.962   3.032   7.872  0.8378 -0.0986  0.7070
   81CHL1  H22A 8457   4.880   2.960   7.851  0.4155 -0.0149  1.9921
   81CHL1  H22B 8458   5.053   2.972   7.892  1.0671  0.1194  0.3216
   81CHL1   C23 8459   4.929   3.104   8.003 -0.5941 -0.5483 -0.2754
   81CHL1  H23A 8460   5.018   3.154   8.046  0.6578 -1.1205 -2.1233
   81CHL1  H23B 8461   4.857   3.188   7.989 -0.0017  0.1496  0.6725
   81CHL1   C24 8462   4.871   3.008   8.112 -0.7685 -0.1643  0.2299
   81CHL1  H24A 8463   4.794   2.946   8.061 -0.7855 -1.8769  2.2029
   81CHL1  H24B 8464   4.951   2.934   8.136  0.1110 -0.1070 -2.2044
   81CHL1   C25 8465   4.827   3.079   8.240  0.0791 -0.1168  0.0552
   81CHL1   H25 8466   4.748   3.151   8.209 -1.7863 -2.1067 -0.0321
   81CHL1   C26 8467   4.747   2.980   8.332 -0.7456 -0.3253  0.1888
   81CHL1  H26A 8468   4.704   3.035   8.418  0.1912 -1.9247  1.7589
   81CHL1  H26B 8469   4.667   2.934   8.269  0.5393  1.1180 -2.6741
   81CHL1  H26C 8470   4.804   2.899   8.384 -0.5386  0.5896  1.4274
   81CHL1   C27 8471   4.939   3.146   8.326  1.4655 -0.1185  0.7299
   81CHL1  H27A 8472   4.973   3.231   8.262 -0.3022  0.1496  0.0999
   81CHL1  H27B 8473   4.897   3.182   8.422  0.6018 -0.7288  0.5894
   81CHL1  H27C 8474   5.022   3.075   8.348  1.1927 -0.4187  0.7951
   82CHL1    C3 8475   4.777   0.180   6.915 -0.3274 -0.5984 -0.0040
   82CHL1    H3 8476   4.699   0.253   6.945 -3.1657 -2.9207 -1.2205
   82CHL1    O3 8477   4.778   0.178   6.778  0.1319 -0.2657  0.5237
   82CHL1   H3' 8478   4.865   0.148   6.751 -0.1054 -0.7019  0.2146
   82CHL1    C4 8479   4.914   0.212   6.975 -0.3470 -0.2766  0.0427
   82CHL1   H4A 8480   4.979   0.125   6.950 -0.3454 -0.6842  1.4075
   82CHL1   H4B 8481   4.950   0.311   6.940 -0.6048  0.2163  1.1559
   82CHL1    C5 8482   4.906   0.212   7.124 -0.1626  0.6984  0.0510
   82CHL1    C6 8483   4.947   0.321   7.193  0.6511  0.8161  0.1576
   82CHL1    H6 8484   4.996   0.399   7.134  2.3443 -1.8992 -2.2805
   82CHL1    C7 8485   4.930   0.345   7.346 -0.0714  0.1610  1.0613
   82CHL1   H7A 8486   5.018   0.391   7.397  2.5657 -0.8902 -2.1910
   82CHL1   H7B 8487   4.843   0.413   7.354  0.9609  1.4452  1.5626
   82CHL1    C8 8488   4.892   0.218   7.421  0.3379  0.1207 -0.6895
   82CHL1    H8 8489   4.978   0.149   7.430  0.7273  0.7088  0.2374
   82CHL1   C14 8490   4.826   0.247   7.558 -0.6228 -0.5619 -0.4428
   82CHL1   H14 8491   4.727   0.291   7.534 -0.9454  0.2684  2.1143
   82CHL1   C15 8492   4.889   0.352   7.658  0.1828  0.7567 -0.0988
   82CHL1  H15A 8493   4.997   0.332   7.673 -0.1470 -0.1187  1.2733
   82CHL1  H15B 8494   4.869   0.451   7.613 -2.7522 -0.8876 -2.9164
   82CHL1   C16 8495   4.825   0.318   7.790  0.2802 -0.0500  0.0645
   82CHL1  H16A 8496   4.900   0.313   7.871  2.3868 -4.6600 -1.7986
   82CHL1  H16B 8497   4.750   0.399   7.804 -0.1645 -0.4505  0.0398
   82CHL1   C17 8498   4.739   0.192   7.772  0.0987 -0.1533  0.7441
   82CHL1   H17 8499   4.639   0.225   7.737  1.4549 -0.9604 -4.9021
   82CHL1   C13 8500   4.784   0.120   7.642  0.4183  0.1737  0.9455
   82CHL1   C18 8501   4.910   0.033   7.680  0.9423 -0.1558 -0.7725
   82CHL1  H18A 8502   4.957  -0.014   7.591 -0.2861 -0.8180 -1.0953
   82CHL1  H18B 8503   4.972   0.090   7.753 -1.0472 -0.3740  1.2008
   82CHL1  H18C 8504   4.881  -0.055   7.741  1.6327  1.0330  1.3984
   82CHL1   C12 8505   4.681   0.040   7.559 -0.1916  0.2494  0.2935
   82CHL1  H12A 8506   4.656  -0.061   7.597  4.2514 -1.6359 -1.1222
   82CHL1  H12B 8507   4.587   0.098   7.542 -1.1775 -1.4853 -0.3968
   82CHL1   C11 8508   4.742   0.007   7.418 -0.1597  0.0952 -0.2902
   82CHL1  H11A 8509   4.840  -0.042   7.436  0.5781  1.8069  0.6429
   82CHL1  H11B 8510   4.675  -0.064   7.366  0.1235 -0.2322 -0.2081
   82CHL1    C9 8511   4.781   0.137   7.341 -0.6114 -0.1459  1.0958
   82CHL1    H9 8512   4.695   0.205   7.325 -0.5934 -0.0911  1.2297
   82CHL1   C10 8513   4.828   0.102   7.196  0.3872  0.0711  0.3549
   82CHL1   C19 8514   4.930  -0.012   7.199  0.4907 -0.3622 -0.4341
   82CHL1  H19A 8515   5.007  -0.001   7.278  0.5787 -2.7914 -0.0817
   82CHL1  H19B 8516   4.889  -0.108   7.236 -1.2607  1.2416  2.0621
   82CHL1  H19C 8517   4.975  -0.029   7.098 -0.4102  0.3229 -0.9579
   82CHL1    C1 8518   4.703   0.056   7.113 -0.4580  0.7252  0.1474
   82CHL1   H1A 8519   4.653  -0.034   7.155 -0.8732  0.3175 -1.1668
   82CHL1   H1B 8520   4.620   0.130   7.124  0.2691  1.2707  2.6366
   82CHL1    C2 8521   4.732   0.044   6.965  0.6573 -0.5340  0.5376
   82CHL1   H2A 8522   4.635   0.014   6.921 -1.1021  0.2145  3.6284
   82CHL1   H2B 8523   4.807  -0.038   6.956  0.2060 -1.0883  1.6188
   82CHL1   C20 8524   4.716   0.108   7.899  0.1505  0.3441 -0.6907
   82CHL1   H20 8525   4.811   0.062   7.934 -0.0625  1.7681  2.0498
   82CHL1   C21 8526   4.617  -0.007   7.869  0.6791  0.1779  0.5998
   82CHL1  H21A 8527   4.599  -0.069   7.959 -0.1782 -0.3843  0.0589
   82CHL1  H21B 8528   4.670  -0.079   7.804 -0.1821  0.8828 -0.9569
   82CHL1  H21C 8529   4.522   0.024   7.820  1.6080 -0.0936 -1.4592
   82CHL1   C22 8530   4.662   0.205   8.014  0.4052 -1.0222 -0.0521
   82CHL1  H22A 8531   4.741   0.279   8.039  0.1575 -0.0749 -1.8579
   82CHL1  H22B 8532   4.578   0.262   7.970 -0.7526 -2.3012  0.4374
   82CHL1   C23 8533   4.600   0.140   8.137  0.1135  0.1468  0.4875
   82CHL1  H23A 8534   4.501   0.098   8.108 -0.8741  1.8319  1.3040
   82CHL1  H23B 8535   4.654   0.052   8.178 -2.7761 -1.9302  0.1993
   82CHL1   C24 8536   4.576   0.242   8.247 -0.2110  0.5850 -0.2432
   82CHL1  H24A 8537   4.672   0.289   8.279 -0.1339 -1.4534  2.9479
   82CHL1  H24B 8538   4.514   0.320   8.199  1.2749  0.7233 -2.0342
   82CHL1   C25 8539   4.521   0.181   8.382  0.0371 -0.3309  0.4375
   82CHL1   H25 8540   4.588   0.093   8.396 -0.4069 -0.8353 -0.5237
   82CHL1   C26 8541   4.535   0.276   8.494 -0.3842 -0.2689  0.2889
   82CHL1  H26A 8542   4.642   0.299   8.510 -0.0011 -1.6772 -0.0863
   82CHL1  H26B 8543   4.482   0.370   8.467  0.4552  0.0209 -0.3854
   82CHL1  H26C 8544   4.491   0.237   8.589  2.2957 -0.6637  1.4613
   82CHL1   C27 8545   4.377   0.120   8.381  0.7207  0.1100  0.1483
   82CHL1  H27A 8546   4.308   0.207   8.395  1.3023  0.9419 -1.8535
   82CHL1  H27B 8547   4.367   0.072   8.282  1.4352 -0.1975  0.2226
   82CHL1  H27C 8548   4.358   0.056   8.469  0.9049  0.0124  0.1173
   83CHL1    C3 8549   1.069   6.629   6.979 -0.7373  0.0453  0.2907
   83CHL1    H3 8550   0.965   6.591   6.968 -0.8750  0.6582 -0.6037
   83CHL1    O3 8551   1.128   6.643   6.846  0.3098  0.5121 -0.1435
   83CHL1   H3' 8552   1.172   6.559   6.828  0.2464  0.3508  0.4406
   83CHL1    C4 8553   1.060   6.768   7.045  0.2349  0.0879  1.6155
   83CHL1   H4A 8554   1.155   6.826   7.043  0.7146 -0.6448 -1.3379
   83CHL1   H4B 8555   0.987   6.829   6.988  0.4872 -0.0567  1.1345
   83CHL1    C5 8556   1.013   6.749   7.184 -0.0423 -1.3853  0.0728
   83CHL1    C6 8557   0.903   6.814   7.219 -0.6072 -0.4786  0.5579
   83CHL1    H6 8558   0.844   6.871   7.145  1.3006  0.2514 -0.4843
   83CHL1    C7 8559   0.851   6.819   7.358  0.6347 -0.2325 -0.4592
   83CHL1   H7A 8560   0.830   6.922   7.392 -2.8580 -0.4417 -1.6299
   83CHL1   H7B 8561   0.761   6.754   7.366  1.5037 -1.6584 -1.8125
   83CHL1    C8 8562   0.954   6.765   7.462  0.1554 -0.3470 -0.9709
   83CHL1    H8 8563   1.026   6.848   7.478  0.4315 -0.9024  0.9632
   83CHL1   C14 8564   0.889   6.720   7.591 -0.0263 -0.3782  0.3527
   83CHL1   H14 8565   0.826   6.631   7.572  1.1035 -1.4014  1.2104
   83CHL1   C15 8566   0.800   6.820   7.658  1.3977  0.2657  0.0276
   83CHL1  H15A 8567   0.829   6.926   7.643 -0.2543  1.3531  3.4565
   83CHL1  H15B 8568   0.698   6.815   7.613  0.8711  0.6583  1.1356
   83CHL1   C16 8569   0.788   6.779   7.803 -0.2664 -0.4669 -0.3522
   83CHL1  H16A 8570   0.791   6.863   7.875  0.2273 -0.9585  0.2092
   83CHL1  H16B 8571   0.695   6.726   7.830  0.0666 -0.1534  1.5577
   83CHL1   C17 8572   0.890   6.663   7.824  0.3244 -0.6820  0.3477
   83CHL1   H17 8573   0.835   6.568   7.808 -0.6714 -0.4615  2.1578
   83CHL1   C13 8574   0.985   6.678   7.700 -0.6341  0.8074  0.2515
   83CHL1   C18 8575   1.094   6.781   7.736  0.9686 -0.3598 -0.4349
   83CHL1  H18A 8576   1.046   6.865   7.790  1.2242 -0.5107  0.0317
   83CHL1  H18B 8577   1.153   6.726   7.813 -0.7898 -0.3063  1.0269
   83CHL1  H18C 8578   1.160   6.820   7.656  0.4669  0.1649 -0.6010
   83CHL1   C12 8579   1.060   6.554   7.645  0.4009 -0.6775 -0.5989
   83CHL1  H12A 8580   1.134   6.534   7.726 -0.7805  3.5740  1.8334
   83CHL1  H12B 8581   0.984   6.473   7.639  0.1981 -0.4253 -1.5521
   83CHL1   C11 8582   1.135   6.583   7.513 -0.0354  0.3168  0.0958
   83CHL1  H11A 8583   1.223   6.647   7.537 -0.2641 -0.4147  3.4345
   83CHL1  H11B 8584   1.157   6.480   7.478 -0.7802  0.9198 -2.3283
   83CHL1    C9 8585   1.039   6.646   7.406  0.5722 -0.0836 -0.7453
   83CHL1    H9 8586   0.963   6.569   7.382  1.6287 -0.7828 -1.9831
   83CHL1   C10 8587   1.107   6.666   7.276  0.3468  0.0290 -0.2687
   83CHL1   C19 8588   1.240   6.743   7.305  0.1208  0.1855 -0.2241
   83CHL1  H19A 8589   1.280   6.788   7.212  0.4977  0.1125 -0.0959
   83CHL1  H19B 8590   1.230   6.827   7.377  0.5061  1.2914 -1.4201
   83CHL1  H19C 8591   1.317   6.674   7.345  1.4171  1.3573 -0.6159
   83CHL1    C1 8592   1.143   6.530   7.205  0.6019  0.0501  0.0864
   83CHL1   H1A 8593   1.228   6.481   7.256  0.1426  0.3116  1.1363
   83CHL1   H1B 8594   1.058   6.459   7.212  1.5075 -1.2472 -1.3835
   83CHL1    C2 8595   1.162   6.540   7.051  0.7060  0.3341 -0.7917
   83CHL1   H2A 8596   1.162   6.437   7.009  0.4977  0.1433 -0.3386
   83CHL1   H2B 8597   1.266   6.579   7.049  0.9172  0.0128  1.2431
   83CHL1   C20 8598   0.952   6.646   7.964  0.5898  0.7966 -0.1951
   83CHL1   H20 8599   1.036   6.717   7.971  2.0977 -1.0181  1.1904
   83CHL1   C21 8600   1.010   6.497   7.979 -0.2654 -0.6270 -0.6095
   83CHL1  H21A 8601   1.064   6.487   8.076 -1.2087  2.0287  0.2697
   83CHL1  H21B 8602   1.091   6.473   7.906  2.6583  2.2088  1.4162
   83CHL1  H21C 8603   0.933   6.418   7.991  0.0092 -0.6299  1.5056
   83CHL1   C22 8604   0.849   6.688   8.076 -0.0087  0.1682 -0.3270
   83CHL1  H22A 8605   0.823   6.795   8.065  2.0202  0.4784 -2.8696
   83CHL1  H22B 8606   0.761   6.627   8.046  0.9552 -1.8808  0.8300
   83CHL1   C23 8607   0.880   6.658   8.232 -0.3523 -0.2098  1.2582
   83CHL1  H23A 8608   0.930   6.559   8.238 -2.1453 -1.3415 -0.9166
   83CHL1  H23B 8609   0.947   6.734   8.276 -0.0402  0.6522 -0.6120
   83CHL1   C24 8610   0.756   6.667   8.317  0.5340  0.8742 -0.3008
   83CHL1  H24A 8611   0.706   6.764   8.295 -1.3164 -0.6271 -3.4511
   83CHL1  H24B 8612   0.678   6.597   8.278 -2.1667  3.1003  0.7272
   83CHL1   C25 8613   0.772   6.643   8.468 -0.2188 -1.1896  0.4100
   83CHL1   H25 8614   0.846   6.716   8.506 -0.2628  0.8058 -2.9129
   83CHL1   C26 8615   0.644   6.675   8.547 -0.2928  0.4622 -0.5081
   83CHL1  H26A 8616   0.677   6.679   8.653 -0.4221 -3.0878 -0.2166
   83CHL1  H26B 8617   0.588   6.763   8.510 -2.0655 -0.5765 -0.4001
   83CHL1  H26C 8618   0.570   6.594   8.526  2.8870 -2.8054 -0.1903
   83CHL1   C27 8619   0.839   6.504   8.511 -0.4351 -0.3247 -0.1852
   83CHL1  H27A 8620   0.792   6.424   8.449 -1.6217  0.3692 -0.2097
   83CHL1  H27B 8621   0.949   6.503   8.492 -0.2935 -0.6169  0.6182
   83CHL1  H27C 8622   0.811   6.480   8.615 -2.6762  1.1367 -0.3956
   84CHL1    C3 8623   3.343   2.801   6.601  0.4343  0.1468 -0.2423
   84CHL1    H3 8624   3.434   2.739   6.602  0.4368  0.1349 -0.8393
   84CHL1    O3 8625   3.312   2.784   6.460  0.0649 -0.4702 -0.4324
   84CHL1   H3' 8626   3.228   2.832   6.462  1.5024  2.2821  0.5333
   84CHL1    C4 8627   3.225   2.761   6.686  0.4500  0.5967  0.3424
   84CHL1   H4A 8628   3.139   2.822   6.653  0.7135  0.4006 -0.7270
   84CHL1   H4B 8629   3.212   2.653   6.664  2.8125  0.0696  1.1861
   84CHL1    C5 8630   3.245   2.794   6.836 -0.5199  0.2956  0.6832
   84CHL1    C6 8631   3.239   2.692   6.927 -0.0400 -0.0154  1.4054
   84CHL1    H6 8632   3.223   2.588   6.893  1.0782 -0.4247  2.0442
   84CHL1    C7 8633   3.252   2.715   7.075  0.4521  0.2491  0.5342
   84CHL1   H7A 8634   3.173   2.660   7.130 -1.7411  1.4062 -1.3110
   84CHL1   H7B 8635   3.352   2.676   7.104  1.5018  0.7446 -2.1215
   84CHL1    C8 8636   3.250   2.864   7.124 -0.7418  0.3359 -0.1426
   84CHL1    H8 8637   3.146   2.903   7.126 -0.2015  1.8171  0.1924
   84CHL1   C14 8638   3.321   2.869   7.261 -0.2024 -0.7315  0.4545
   84CHL1   H14 8639   3.426   2.836   7.246 -0.4832 -0.9683 -1.1675
   84CHL1   C15 8640   3.272   2.769   7.365 -0.7756  0.2342 -0.2191
   84CHL1  H15A 8641   3.162   2.762   7.353 -0.6333 -0.2706 -1.3772
   84CHL1  H15B 8642   3.317   2.669   7.345  1.1691  0.8716  0.7407
   84CHL1   C16 8643   3.318   2.834   7.494 -0.3350  0.5384  0.0329
   84CHL1  H16A 8644   3.230   2.865   7.555 -1.4122  0.7063 -1.5497
   84CHL1  H16B 8645   3.391   2.784   7.561  0.1796  1.2452  0.0172
   84CHL1   C17 8646   3.379   2.974   7.452  0.0619 -0.3915  0.3603
   84CHL1   H17 8647   3.488   2.953   7.449  0.7182  1.6694  3.6698
   84CHL1   C13 8648   3.319   3.012   7.312 -0.0277  0.5418 -0.2621
   84CHL1   C18 8649   3.181   3.081   7.336  0.1628 -0.5618  0.2702
   84CHL1  H18A 8650   3.133   3.097   7.236  1.6092 -0.0732 -0.3658
   84CHL1  H18B 8651   3.107   3.012   7.383 -2.1871  0.5084 -1.5906
   84CHL1  H18C 8652   3.196   3.177   7.389  2.5310 -0.4422 -0.5067
   84CHL1   C12 8653   3.416   3.094   7.220 -0.3108 -0.0532 -0.1521
   84CHL1  H12A 8654   3.431   3.201   7.246  0.1749 -0.7672  2.9100
   84CHL1  H12B 8655   3.517   3.048   7.225  0.5332  1.8307  2.2468
   84CHL1   C11 8656   3.353   3.089   7.077  0.1706 -0.0774 -0.2341
   84CHL1  H11A 8657   3.258   3.147   7.076  0.1491 -0.0910 -2.0515
   84CHL1  H11B 8658   3.416   3.130   6.996  0.1084 -1.7226 -1.1420
   84CHL1    C9 8659   3.333   2.944   7.023 -0.4796  0.4663  0.1499
   84CHL1    H9 8660   3.434   2.898   7.020 -0.6169  0.2283 -2.2124
   84CHL1   C10 8661   3.285   2.932   6.875 -0.3044  0.1257 -0.3235
   84CHL1   C19 8662   3.161   3.014   6.864  0.4024  0.3663  0.3082
   84CHL1  H19A 8663   3.182   3.117   6.898 -1.4535 -0.0482  3.0060
   84CHL1  H19B 8664   3.127   3.028   6.759  0.9326 -0.1767  0.0549
   84CHL1  H19C 8665   3.080   2.977   6.930  0.0502  1.0714  0.2703
   84CHL1    C1 8666   3.392   2.980   6.775 -1.0552 -0.6385  0.2817
   84CHL1   H1A 8667   3.415   3.088   6.787 -1.5620 -0.6166  1.1882
   84CHL1   H1B 8668   3.489   2.938   6.809 -0.1162  1.4176  0.2774
   84CHL1    C2 8669   3.378   2.946   6.632  0.0805  0.2526  0.1779
   84CHL1   H2A 8670   3.451   2.988   6.559  1.7037 -0.3725  1.3633
   84CHL1   H2B 8671   3.295   3.013   6.603 -0.3137  1.1388  3.0153
   84CHL1   C20 8672   3.371   3.075   7.570 -0.2793  0.1619 -0.0953
   84CHL1   H20 8673   3.270   3.120   7.577 -0.1477  0.7322 -1.4690
   84CHL1   C21 8674   3.484   3.181   7.554 -0.2184 -0.5520 -0.8295
   84CHL1  H21A 8675   3.578   3.127   7.576  0.1256 -0.9214 -2.9484
   84CHL1  H21B 8676   3.465   3.263   7.626  2.1254 -0.4413 -0.2718
   84CHL1  H21C 8677   3.480   3.224   7.451  0.9924 -0.6665 -0.9436
   84CHL1   C22 8678   3.399   3.009   7.715 -0.2752 -0.1854  0.6041
   84CHL1  H22A 8679   3.323   2.934   7.743 -2.1021  2.1106  2.1953
   84CHL1  H22B 8680   3.505   2.975   7.714  0.3294  1.5918 -0.6244
   84CHL1   C23 8681   3.400   3.110   7.830 -0.5614  0.3390 -0.0622
   84CHL1  H23A 8682   3.472   3.194   7.817  1.3835 -0.8813  2.1470
   84CHL1  H23B 8683   3.302   3.161   7.838 -2.1793 -2.8321  1.8345
   84CHL1   C24 8684   3.421   3.041   7.972 -0.0711  0.5027  0.3071
   84CHL1  H24A 8685   3.406   3.123   8.045 -0.4678 -0.2542  1.0847
   84CHL1  H24B 8686   3.342   2.965   7.987 -1.3831  1.6079 -0.7304
   84CHL1   C25 8687   3.564   2.975   7.995  0.1291  0.1300  0.2718
   84CHL1   H25 8688   3.588   2.922   7.901 -1.7231  1.6692 -1.1608
   84CHL1   C26 8689   3.681   3.073   8.019  0.0179 -0.2499 -0.5123
   84CHL1  H26A 8690   3.776   3.015   8.010 -0.5822 -1.0670 -1.8568
   84CHL1  H26B 8691   3.685   3.157   7.947  0.8315  1.6328  1.6074
   84CHL1  H26C 8692   3.668   3.108   8.124 -0.4442 -0.7198 -0.4122
   84CHL1   C27 8693   3.550   2.869   8.105 -0.1895 -0.4947  0.1446
   84CHL1  H27A 8694   3.512   2.928   8.191 -0.6378  0.3794 -0.6314
   84CHL1  H27B 8695   3.486   2.782   8.078  2.0951 -2.1949 -0.1006
   84CHL1  H27C 8696   3.648   2.826   8.134  0.1358 -0.0630 -0.3077
   85CHL1    C3 8697   2.025   2.442   6.913  0.3369  0.4300  0.2353
   85CHL1    H3 8698   2.126   2.485   6.929 -0.2252  1.4073  1.3272
   85CHL1    O3 8699   1.997   2.401   6.779  0.3618  0.5605  0.1457
   85CHL1   H3' 8700   1.902   2.407   6.766  0.3712 -2.3616 -2.1994
   85CHL1    C4 8701   2.019   2.322   7.019 -0.5158 -0.3981 -0.5766
   85CHL1   H4A 8702   1.925   2.269   6.993 -0.2482  0.7767 -4.5646
   85CHL1   H4B 8703   2.101   2.250   6.997 -0.5255 -0.3424 -0.7947
   85CHL1    C5 8704   2.014   2.355   7.168 -0.9297 -0.6425 -0.5658
   85CHL1    C6 8705   2.100   2.314   7.265 -0.1037 -0.1097 -0.5810
   85CHL1    H6 8706   2.178   2.242   7.235  1.8926  0.4981  2.6274
   85CHL1    C7 8707   2.081   2.347   7.417 -0.2612 -0.5353  0.4936
   85CHL1   H7A 8708   2.090   2.255   7.479  1.3862  0.0862  1.2414
   85CHL1   H7B 8709   2.161   2.416   7.451 -2.8238  1.6405  2.5906
   85CHL1    C8 8710   1.945   2.412   7.445 -0.5669  0.4090 -0.6285
   85CHL1    H8 8711   1.863   2.337   7.449 -0.3940  0.2691  0.6849
   85CHL1   C14 8712   1.960   2.487   7.573 -0.2589  0.8966 -0.0058
   85CHL1   H14 8713   2.038   2.565   7.560 -0.2238  0.7191 -0.9471
   85CHL1   C15 8714   2.007   2.398   7.696  0.0510  0.8697 -0.7938
   85CHL1  H15A 8715   1.954   2.300   7.690 -0.3828  1.0741 -0.3322
   85CHL1  H15B 8716   2.117   2.380   7.694 -0.1974 -1.1621  0.5262
   85CHL1   C16 8717   1.966   2.480   7.817  0.0695 -0.1850 -0.0739
   85CHL1  H16A 8718   1.897   2.418   7.878 -2.3369  0.8862 -1.5345
   85CHL1  H16B 8719   2.051   2.506   7.883 -0.6477 -1.6856  1.5202
   85CHL1   C17 8720   1.882   2.602   7.764  0.0758  0.8705 -0.2346
   85CHL1   H17 8721   1.958   2.681   7.747  0.8494 -0.2225 -2.2267
   85CHL1   C13 8722   1.841   2.558   7.625  0.1824 -0.7607 -0.4407
   85CHL1   C18 8723   1.723   2.454   7.632 -0.4057  0.1893 -0.4292
   85CHL1  H18A 8724   1.634   2.518   7.652  1.5991  2.3553  2.3829
   85CHL1  H18B 8725   1.702   2.401   7.536 -1.3070 -0.0767 -0.0918
   85CHL1  H18C 8726   1.725   2.379   7.713  0.6222  0.0720 -0.5521
   85CHL1   C12 8727   1.816   2.665   7.525  0.1324 -0.3391  0.2632
   85CHL1  H12A 8728   1.721   2.715   7.553 -0.6984 -1.8522  0.2858
   85CHL1  H12B 8729   1.901   2.735   7.515 -0.1890 -0.0707 -0.7047
   85CHL1   C11 8730   1.802   2.610   7.383  0.9104 -0.0482 -0.6454
   85CHL1  H11A 8731   1.706   2.553   7.384 -0.1932  1.6987  1.3580
   85CHL1  H11B 8732   1.800   2.691   7.307  0.9734 -0.5303 -1.1691
   85CHL1    C9 8733   1.917   2.518   7.337  0.4913  0.3140 -0.1627
   85CHL1    H9 8734   2.010   2.579   7.346  0.4113  0.4440 -0.2092
   85CHL1   C10 8735   1.904   2.460   7.193 -0.0183  0.8600 -0.5887
   85CHL1   C19 8736   1.766   2.390   7.190 -0.0697  0.5917 -0.1511
   85CHL1  H19A 8737   1.689   2.470   7.181 -0.0120  0.5433 -1.2660
   85CHL1  H19B 8738   1.763   2.332   7.095  1.3759 -0.8199  0.6178
   85CHL1  H19C 8739   1.748   2.320   7.274 -1.7998 -1.3440 -2.0211
   85CHL1    C1 8740   1.920   2.576   7.103 -0.3780  0.2436  0.5456
   85CHL1   H1A 8741   1.827   2.636   7.116  0.3920  1.8307 -0.7443
   85CHL1   H1B 8742   2.011   2.635   7.128  0.2782 -0.5800  0.1589
   85CHL1    C2 8743   1.916   2.539   6.959 -0.4045 -0.3958  0.0424
   85CHL1   H2A 8744   1.907   2.628   6.893 -2.4625  0.4066  1.3162
   85CHL1   H2B 8745   1.817   2.491   6.951 -1.1895  1.0294  0.8313
   85CHL1   C20 8746   1.778   2.665   7.851 -0.7042  0.0527 -0.2251
   85CHL1   H20 8747   1.720   2.737   7.789 -1.5461 -0.2268  0.2264
   85CHL1   C21 8748   1.856   2.762   7.948  0.3675 -0.5471 -0.4514
   85CHL1  H21A 8749   1.913   2.835   7.887  1.8724 -2.4792 -1.4891
   85CHL1  H21B 8750   1.928   2.711   8.016 -2.5645 -1.4611  2.1848
   85CHL1  H21C 8751   1.782   2.818   8.008  0.3872  0.0366 -0.9702
   85CHL1   C22 8752   1.685   2.569   7.938 -0.5655 -0.4045  0.1795
   85CHL1  H22A 8753   1.662   2.471   7.892 -3.1552 -0.1312  0.7356
   85CHL1  H22B 8754   1.749   2.553   8.028  1.2814 -1.1169 -1.1994
   85CHL1   C23 8755   1.557   2.647   7.978  0.1131  0.2290  0.1616
   85CHL1  H23A 8756   1.584   2.748   8.013  1.6162 -0.0824 -0.0521
   85CHL1  H23B 8757   1.487   2.643   7.891  1.4237 -2.7304 -0.8793
   85CHL1   C24 8758   1.493   2.579   8.098  0.5824  0.0402 -0.6463
   85CHL1  H24A 8759   1.566   2.594   8.180 -0.1526  0.7245 -0.1032
   85CHL1  H24B 8760   1.399   2.638   8.110  0.9233  0.4758 -0.0937
   85CHL1   C25 8761   1.453   2.427   8.080 -0.2433 -0.2956  0.4123
   85CHL1   H25 8762   1.546   2.368   8.063 -0.3801 -0.0728 -1.2578
   85CHL1   C26 8763   1.383   2.380   8.209  0.3355  0.3405  0.3798
   85CHL1  H26A 8764   1.368   2.270   8.201  2.4778 -0.1686  2.4109
   85CHL1  H26B 8765   1.449   2.402   8.296  0.5485 -1.4242  0.6966
   85CHL1  H26C 8766   1.285   2.427   8.234 -0.0768 -1.5423  2.6526
   85CHL1   C27 8767   1.352   2.401   7.966 -0.4737  0.0363  0.9721
   85CHL1  H27A 8768   1.396   2.421   7.866 -0.8687 -3.0194  0.1077
   85CHL1  H27B 8769   1.325   2.294   7.977  0.3792 -0.0629  2.3381
   85CHL1  H27C 8770   1.266   2.471   7.979 -0.3206 -0.0752  2.7407
   86CHL1    C3 8771   5.738   2.603   6.704  0.6287 -0.7314  0.0967
   86CHL1    H3 8772   5.747   2.492   6.708 -1.0000 -1.1780 -4.1699
   86CHL1    O3 8773   5.792   2.646   6.580 -0.1735 -0.2766 -0.2774
   86CHL1   H3' 8774   5.801   2.741   6.589  0.4953 -0.4691  1.5110
   86CHL1    C4 8775   5.597   2.654   6.717  0.6575 -0.5712  0.3643
   86CHL1   H4A 8776   5.582   2.761   6.689  1.1806 -0.7379 -0.5886
   86CHL1   H4B 8777   5.547   2.594   6.638  0.2406  0.4211 -0.1575
   86CHL1    C5 8778   5.536   2.615   6.853 -0.2381 -0.1975 -0.5507
   86CHL1    C6 8779   5.422   2.545   6.863 -0.4182  0.0209  0.3076
   86CHL1    H6 8780   5.368   2.532   6.769 -0.9988 -0.5988  0.7138
   86CHL1    C7 8781   5.359   2.510   7.000  0.1993 -0.3542  0.4656
   86CHL1   H7A 8782   5.254   2.546   7.006  0.1851 -0.5452  1.4360
   86CHL1   H7B 8783   5.352   2.400   7.013  0.2182 -0.4605 -0.3655
   86CHL1    C8 8784   5.423   2.588   7.122 -0.3247  0.6733 -0.2432
   86CHL1    H8 8785   5.386   2.692   7.120 -0.8724  0.4960  0.2670
   86CHL1   C14 8786   5.386   2.517   7.263 -0.4306 -0.3313 -0.1058
   86CHL1   H14 8787   5.426   2.414   7.261  2.4957  0.7005  0.2927
   86CHL1   C15 8788   5.235   2.489   7.300  0.3265  0.0483 -0.6845
   86CHL1  H15A 8789   5.175   2.581   7.283 -0.7275 -0.2583  1.1484
   86CHL1  H15B 8790   5.194   2.405   7.241  0.0585  0.3266 -0.8965
   86CHL1   C16 8791   5.238   2.472   7.448  0.2089  0.4254 -0.0569
   86CHL1  H16A 8792   5.172   2.548   7.497  1.6859  1.7456 -0.0378
   86CHL1  H16B 8793   5.199   2.373   7.479 -0.7555  0.4178 -1.2123
   86CHL1   C17 8794   5.382   2.500   7.492 -0.5863  0.1796 -0.7472
   86CHL1   H17 8795   5.427   2.400   7.480 -0.7685  0.2604 -2.4636
   86CHL1   C13 8796   5.445   2.585   7.384  0.5962 -0.4664  0.2060
   86CHL1   C18 8797   5.390   2.727   7.398  0.2676 -0.1580  0.6493
   86CHL1  H18A 8798   5.427   2.782   7.487  2.0396  0.1404 -0.2104
   86CHL1  H18B 8799   5.420   2.797   7.317 -3.6316 -0.3059 -1.1469
   86CHL1  H18C 8800   5.280   2.722   7.390  0.3788 -0.2275 -1.5737
   86CHL1   C12 8801   5.599   2.575   7.380 -0.1751 -0.2547  0.0136
   86CHL1  H12A 8802   5.653   2.628   7.462 -1.2861  1.7969 -0.5299
   86CHL1  H12B 8803   5.626   2.467   7.375 -0.0358 -0.1992 -0.4175
   86CHL1   C11 8804   5.645   2.636   7.245 -0.1708  0.4655  0.4945
   86CHL1  H11A 8805   5.620   2.744   7.244 -0.7010  0.3767  2.1162
   86CHL1  H11B 8806   5.756   2.630   7.243 -0.1846  0.3882 -1.1180
   86CHL1    C9 8807   5.576   2.581   7.114 -0.7996  0.3170 -0.0420
   86CHL1    H9 8808   5.609   2.475   7.111  2.8549  1.2817  0.5110
   86CHL1   C10 8809   5.626   2.651   6.977 -0.1867 -0.0260  0.5073
   86CHL1   C19 8810   5.606   2.801   6.995 -0.2171  0.7992 -0.1281
   86CHL1  H19A 8811   5.634   2.869   6.912  0.5960  0.7495  0.0928
   86CHL1  H19B 8812   5.508   2.842   7.027 -0.3078  0.6033 -0.1553
   86CHL1  H19C 8813   5.681   2.831   7.072  1.3530 -0.0683 -1.2428
   86CHL1    C1 8814   5.779   2.627   6.956 -0.1797 -0.1979 -0.4204
   86CHL1   H1A 8815   5.831   2.686   7.034  0.2717 -0.4945 -0.4930
   86CHL1   H1B 8816   5.807   2.520   6.964  0.4060 -0.0861 -0.9160
   86CHL1    C2 8817   5.824   2.672   6.813  0.3407  0.7823  0.5235
   86CHL1   H2A 8818   5.933   2.661   6.798 -0.1353 -3.9703 -1.0752
   86CHL1   H2B 8819   5.801   2.781   6.805 -0.1494  0.6101 -0.5845
   86CHL1   C20 8820   5.410   2.534   7.638  0.2498 -0.3222 -0.3792
   86CHL1   H20 8821   5.513   2.569   7.656 -0.1739  0.2007  1.2151
   86CHL1   C21 8822   5.416   2.396   7.711 -0.2295 -0.3812 -0.8249
   86CHL1  H21A 8823   5.329   2.328   7.723  1.2708 -2.1495  0.6909
   86CHL1  H21B 8824   5.455   2.418   7.813 -0.3941 -0.9114 -0.6459
   86CHL1  H21C 8825   5.501   2.341   7.665  0.1672 -1.0554  0.6553
   86CHL1   C22 8826   5.317   2.640   7.712  0.1058  0.4096  0.4047
   86CHL1  H22A 8827   5.291   2.717   7.636  1.3947  0.2642 -0.2149
   86CHL1  H22B 8828   5.215   2.606   7.737 -0.8210  1.3849 -1.7815
   86CHL1   C23 8829   5.381   2.705   7.837 -0.3574 -0.2593 -0.0888
   86CHL1  H23A 8830   5.434   2.622   7.889  1.4033 -0.8662 -2.6504
   86CHL1  H23B 8831   5.462   2.772   7.801 -0.8146 -0.0029 -0.6599
   86CHL1   C24 8832   5.274   2.788   7.922 -0.0387 -0.7413  0.0128
   86CHL1  H24A 8833   5.239   2.880   7.870  0.5064  0.7249  2.1212
   86CHL1  H24B 8834   5.190   2.722   7.950  0.8578 -1.6320  0.6787
   86CHL1   C25 8835   5.334   2.850   8.052 -0.1608 -0.4518  0.2377
   86CHL1   H25 8836   5.365   2.757   8.103 -1.2633  0.3238  2.4522
   86CHL1   C26 8837   5.451   2.948   8.038 -0.3230 -0.1333  0.1247
   86CHL1  H26A 8838   5.470   2.992   8.138 -0.0786 -0.6400  0.3065
   86CHL1  H26B 8839   5.537   2.891   7.997 -1.4868 -1.7756 -0.1509
   86CHL1  H26C 8840   5.429   3.031   7.968  1.0106 -0.3050 -0.5215
   86CHL1   C27 8841   5.228   2.917   8.144 -0.6074  0.1307 -0.2749
   86CHL1  H27A 8842   5.162   2.830   8.165  2.7444 -2.9779 -1.3742
   86CHL1  H27B 8843   5.267   2.958   8.239 -2.2825  1.5021 -0.1529
   86CHL1  H27C 8844   5.175   2.993   8.083  1.5293 -0.7771 -3.5812
   87CHL1    C3 8845   5.929   1.386   6.952 -0.9556 -0.2737 -0.0518
   87CHL1    H3 8846   5.835   1.394   7.011  0.1786  1.8823  1.6054
   87CHL1    O3 8847   5.909   1.390   6.813  0.0684 -0.0376 -0.2118
   87CHL1   H3' 8848   5.873   1.307   6.782  2.0776 -0.5037 -1.5061
   87CHL1    C4 8849   6.022   1.512   6.980 -0.1430 -0.2412  0.4077
   87CHL1   H4A 8850   6.099   1.507   6.901  0.5850 -2.4059  1.1790
   87CHL1   H4B 8851   5.956   1.596   6.950 -1.0736 -1.0353  0.1586
   87CHL1    C5 8852   6.069   1.512   7.127  0.1710  0.0087 -0.1249
   87CHL1    C6 8853   6.049   1.624   7.198  0.5084 -0.0093  0.0405
   87CHL1    H6 8854   6.001   1.716   7.159 -1.4570 -1.1046 -0.2427
   87CHL1    C7 8855   6.107   1.635   7.342  0.2845  0.0175 -0.0478
   87CHL1   H7A 8856   6.150   1.737   7.344 -1.3412  0.7470  2.1260
   87CHL1   H7B 8857   6.031   1.634   7.422  1.2776  0.2176  0.9204
   87CHL1    C8 8858   6.209   1.520   7.383  0.2395 -0.0288  0.3163
   87CHL1    H8 8859   6.306   1.541   7.332 -0.9601 -0.9156 -2.5133
   87CHL1   C14 8860   6.219   1.518   7.532  0.3778  0.4324 -1.2308
   87CHL1   H14 8861   6.115   1.501   7.567  0.6097  0.3258 -0.5892
   87CHL1   C15 8862   6.260   1.643   7.607 -0.0078  0.7640  0.1024
   87CHL1  H15A 8863   6.347   1.685   7.553  1.7485  0.1217  2.2664
   87CHL1  H15B 8864   6.175   1.714   7.599 -0.7978 -0.3129 -1.6843
   87CHL1   C16 8865   6.293   1.596   7.746  0.5179 -0.0300 -0.4779
   87CHL1  H16A 8866   6.394   1.630   7.778  1.2504 -0.9626 -1.6753
   87CHL1  H16B 8867   6.224   1.637   7.823  1.4829 -1.3694  1.1695
   87CHL1   C17 8868   6.283   1.436   7.743  0.5936 -0.3109  0.3411
   87CHL1   H17 8869   6.178   1.411   7.772 -0.1272  2.4490  0.3909
   87CHL1   C13 8870   6.295   1.410   7.584 -0.1417  0.2467 -0.2984
   87CHL1   C18 8871   6.444   1.411   7.547 -0.1985 -0.0308 -0.0065
   87CHL1  H18A 8872   6.459   1.451   7.444  1.9525 -0.6885  0.0152
   87CHL1  H18B 8873   6.513   1.471   7.609  2.8761 -2.8586 -0.4455
   87CHL1  H18C 8874   6.496   1.313   7.557 -1.5134 -0.7671 -0.0746
   87CHL1   C12 8875   6.237   1.274   7.540 -0.0879  0.5749 -0.2925
   87CHL1  H12A 8876   6.299   1.191   7.580  0.6894  0.4614 -1.6784
   87CHL1  H12B 8877   6.137   1.254   7.584  0.2450 -0.4948  0.0103
   87CHL1   C11 8878   6.232   1.265   7.384  0.1823 -0.9050 -0.0614
   87CHL1  H11A 8879   6.334   1.265   7.341  0.2785  0.3103  0.1483
   87CHL1  H11B 8880   6.175   1.174   7.356 -0.4617 -0.1493 -1.2964
   87CHL1    C9 8881   6.155   1.388   7.337  0.5760 -0.2155 -0.0192
   87CHL1    H9 8882   6.055   1.378   7.383  0.9677 -1.1349  0.6578
   87CHL1   C10 8883   6.131   1.383   7.183  0.3574  0.0991 -0.9844
   87CHL1   C19 8884   6.271   1.376   7.115 -0.3853  0.0376  1.1157
   87CHL1  H19A 8885   6.335   1.456   7.159  0.4079 -0.4631  0.8877
   87CHL1  H19B 8886   6.315   1.275   7.127  1.0425  0.4370 -0.4126
   87CHL1  H19C 8887   6.266   1.395   7.006  1.4250  1.8269  1.2704
   87CHL1    C1 8888   6.042   1.264   7.142  0.0307  0.5626  0.6279
   87CHL1   H1A 8889   6.107   1.176   7.164 -1.3766 -0.9348 -0.8840
   87CHL1   H1B 8890   5.952   1.251   7.206 -0.8411  1.2335 -0.4187
   87CHL1    C2 8891   6.001   1.261   6.995 -0.2094  0.2237  0.1788
   87CHL1   H2A 8892   5.920   1.185   6.992 -0.0407  0.0568 -0.1721
   87CHL1   H2B 8893   6.082   1.219   6.931  0.4148 -1.7554  2.1271
   87CHL1   C20 8894   6.368   1.370   7.841  0.5589  0.5673 -0.0006
   87CHL1   H20 8895   6.474   1.374   7.809  1.4534  0.6285  2.6923
   87CHL1   C21 8896   6.328   1.226   7.862  0.6252  0.4221  0.3249
   87CHL1  H21A 8897   6.398   1.179   7.935  1.1897  0.8331  0.0578
   87CHL1  H21B 8898   6.344   1.173   7.765 -2.4178 -0.3450  0.1377
   87CHL1  H21C 8899   6.224   1.222   7.900  1.0975 -0.8632  1.5896
   87CHL1   C22 8900   6.355   1.437   7.981  0.1399 -0.5673 -0.0724
   87CHL1  H22A 8901   6.424   1.523   7.967 -0.5254  0.0942  0.6330
   87CHL1  H22B 8902   6.250   1.472   7.995  0.0952 -1.2889  1.5972
   87CHL1   C23 8903   6.401   1.356   8.110 -0.1087  0.2187 -0.3093
   87CHL1  H23A 8904   6.329   1.274   8.131  1.2230 -1.5369 -2.1380
   87CHL1  H23B 8905   6.501   1.311   8.092  1.4717  2.6590  1.6183
   87CHL1   C24 8906   6.438   1.452   8.221  0.0721 -0.2365 -0.1125
   87CHL1  H24A 8907   6.510   1.520   8.171  0.3438 -0.1019  0.4587
   87CHL1  H24B 8908   6.352   1.516   8.248 -0.4305 -1.3561  1.0770
   87CHL1   C25 8909   6.509   1.394   8.344 -0.1482 -0.3289  0.0856
   87CHL1   H25 8910   6.443   1.321   8.396 -0.0985  0.1681  0.8573
   87CHL1   C26 8911   6.643   1.321   8.319  0.9612  0.4517  0.5005
   87CHL1  H26A 8912   6.722   1.392   8.286  0.3479  0.1365 -1.8137
   87CHL1  H26B 8913   6.681   1.274   8.412  1.1981  0.3783  0.3678
   87CHL1  H26C 8914   6.625   1.241   8.244  1.6762 -0.2812  1.0859
   87CHL1   C27 8915   6.543   1.514   8.443 -0.2366 -0.4101  0.1530
   87CHL1  H27A 8916   6.455   1.573   8.474  1.0860  0.1990  3.1019
   87CHL1  H27B 8917   6.590   1.483   8.538  0.2540 -2.9383 -0.8115
   87CHL1  H27C 8918   6.618   1.583   8.397  0.9738 -0.8173  1.4342
   88CHL1    C3 8919   3.011   0.224   6.961  0.4876 -0.2396 -0.3915
   88CHL1    H3 8920   2.992   0.116   6.978 -2.8902  0.3283  0.1913
   88CHL1    O3 8921   3.078   0.259   6.839 -0.2055  0.2503  0.4556
   88CHL1   H3' 8922   3.005   0.245   6.777 -0.5206 -1.7885  1.2059
   88CHL1    C4 8923   2.869   0.284   6.955 -0.0001  0.2424  0.2122
   88CHL1   H4A 8924   2.881   0.393   6.940  0.8796  0.0505 -0.5284
   88CHL1   H4B 8925   2.810   0.247   6.869 -0.8561 -1.1414  1.3495
   88CHL1    C5 8926   2.790   0.274   7.082 -0.2029  0.4160  0.0046
   88CHL1    C6 8927   2.682   0.192   7.100 -0.2271 -0.8978  0.9329
   88CHL1    H6 8928   2.652   0.133   7.012  1.2739 -0.4445  0.0665
   88CHL1    C7 8929   2.605   0.174   7.231 -0.2211  0.4323  0.6579
   88CHL1   H7A 8930   2.497   0.194   7.216 -0.4899 -1.0431  0.5163
   88CHL1   H7B 8931   2.622   0.068   7.259 -0.2533 -0.2283 -1.6107
   88CHL1    C8 8932   2.657   0.269   7.339 -0.1632  0.7273  0.1522
   88CHL1    H8 8933   2.614   0.372   7.336 -1.0363  0.3890  0.7272
   88CHL1   C14 8934   2.605   0.208   7.478 -0.1211  0.0491  0.7980
   88CHL1   H14 8935   2.656   0.110   7.489  0.2394  0.4367  3.1655
   88CHL1   C15 8936   2.449   0.172   7.491 -0.4124 -0.8359 -0.0223
   88CHL1  H15A 8937   2.397   0.256   7.440 -2.5522 -2.8143 -1.2709
   88CHL1  H15B 8938   2.413   0.079   7.443  0.4647 -0.7143 -0.9512
   88CHL1   C16 8939   2.438   0.172   7.641 -0.1283 -0.1386 -0.4994
   88CHL1  H16A 8940   2.362   0.250   7.660 -1.0352  0.0566 -4.1954
   88CHL1  H16B 8941   2.384   0.088   7.689 -2.1853  1.7533  0.6886
   88CHL1   C17 8942   2.582   0.214   7.704 -0.2269 -0.6297  1.0680
   88CHL1   H17 8943   2.637   0.118   7.719 -2.9987 -2.5267 -0.1084
   88CHL1   C13 8944   2.649   0.295   7.595  0.0961 -0.9713 -1.5979
   88CHL1   C18 8945   2.573   0.435   7.583  0.9461 -0.4280 -0.2041
   88CHL1  H18A 8946   2.576   0.498   7.675  2.1247  0.9657 -1.1449
   88CHL1  H18B 8947   2.627   0.495   7.507  0.0630  0.2598 -0.3071
   88CHL1  H18C 8948   2.464   0.430   7.561  1.2207  1.4861 -2.4789
   88CHL1   C12 8949   2.804   0.315   7.603  1.0713 -0.1445  0.1732
   88CHL1  H12A 8950   2.840   0.382   7.685  1.7489  1.5218 -1.4094
   88CHL1  H12B 8951   2.853   0.218   7.626  1.6396 -0.8141 -3.3509
   88CHL1   C11 8952   2.857   0.375   7.467  0.3933 -0.5780  0.5366
   88CHL1  H11A 8953   2.847   0.485   7.455  0.1786 -0.5783  0.6943
   88CHL1  H11B 8954   2.966   0.356   7.465  0.8640  1.0411  3.7209
   88CHL1    C9 8955   2.804   0.291   7.348  0.1865 -0.7726 -0.2138
   88CHL1    H9 8956   2.848   0.192   7.375 -0.9161 -1.2620 -0.1588
   88CHL1   C10 8957   2.858   0.329   7.208 -0.8759 -0.0577 -0.4308
   88CHL1   C19 8958   2.859   0.481   7.203  0.6601 -0.0324 -0.3141
   88CHL1  H19A 8959   2.878   0.523   7.102  1.2126  2.6629  0.8282
   88CHL1  H19B 8960   2.760   0.521   7.234  0.3423 -2.4746  2.2655
   88CHL1  H19C 8961   2.930   0.533   7.271 -0.3071 -0.4000  1.0204
   88CHL1    C1 8962   3.007   0.278   7.206 -0.4581  0.8267 -0.1088
   88CHL1   H1A 8963   3.064   0.329   7.287 -0.7710 -0.6515  1.0892
   88CHL1   H1B 8964   2.998   0.169   7.229 -0.9280  1.0273  0.7016
   88CHL1    C2 8965   3.087   0.292   7.075 -0.2115  0.5701 -0.2574
   88CHL1   H2A 8966   3.192   0.260   7.091 -0.3327  1.4977  3.0006
   88CHL1   H2B 8967   3.093   0.399   7.048  0.3738  0.5806 -0.1050
   88CHL1   C20 8968   2.575   0.287   7.850 -0.1227 -0.5007 -0.4961
   88CHL1   H20 8969   2.570   0.397   7.840  0.3634 -0.3439  0.8444
   88CHL1   C21 8970   2.708   0.255   7.931 -0.2927  0.0641  0.5984
   88CHL1  H21A 8971   2.795   0.271   7.863 -0.5226 -1.8714 -0.2409
   88CHL1  H21B 8972   2.717   0.151   7.970 -0.4582 -0.0493  0.3391
   88CHL1  H21C 8973   2.711   0.323   8.018 -0.9736 -0.7239  1.2577
   88CHL1   C22 8974   2.444   0.254   7.931 -0.0147 -0.3491 -1.1694
   88CHL1  H22A 8975   2.356   0.297   7.879 -0.0529  0.2293 -0.6509
   88CHL1  H22B 8976   2.433   0.144   7.935  1.6178 -0.5179  0.4198
   88CHL1   C23 8977   2.435   0.304   8.077  0.2495 -0.3203  0.5986
   88CHL1  H23A 8978   2.517   0.261   8.139  0.1427 -3.3554 -1.2060
   88CHL1  H23B 8979   2.450   0.415   8.081  1.6984 -0.5139  1.6143
   88CHL1   C24 8980   2.305   0.255   8.154  0.6737 -0.5298 -0.0999
   88CHL1  H24A 8981   2.214   0.293   8.102  1.9423  0.7652 -1.4627
   88CHL1  H24B 8982   2.306   0.147   8.126  0.2651 -0.5441 -0.0732
   88CHL1   C25 8983   2.309   0.295   8.304  0.5399  0.3293  0.3726
   88CHL1   H25 8984   2.414   0.280   8.337  1.3851  0.2559 -2.1715
   88CHL1   C26 8985   2.277   0.444   8.310 -0.5309 -0.1714 -0.9467
   88CHL1  H26A 8986   2.320   0.496   8.398 -1.2549  1.6983 -1.6428
   88CHL1  H26B 8987   2.321   0.492   8.219 -0.2681  1.1761 -0.1297
   88CHL1  H26C 8988   2.167   0.460   8.309 -0.9595 -2.5308  0.7374
   88CHL1   C27 8989   2.216   0.207   8.392 -0.1602 -0.0493  0.3138
   88CHL1  H27A 8990   2.222   0.109   8.340  1.9232  0.6839 -0.9159
   88CHL1  H27B 8991   2.262   0.179   8.490 -0.6221  2.6105  1.3647
   88CHL1  H27C 8992   2.123   0.264   8.411  0.3734  0.8209  0.3542
   89CHL1    C3 8993   0.573   5.379   7.254  0.3360 -0.1133 -0.0972
   89CHL1    H3 8994   0.624   5.478   7.257  1.1757 -0.5182 -0.5872
   89CHL1    O3 8995   0.552   5.351   7.123  0.1215  0.2695  0.1713
   89CHL1   H3' 8996   0.457   5.354   7.113  0.1459  1.9963  0.1984
   89CHL1    C4 8997   0.653   5.268   7.327  0.1162  0.2291 -0.2141
   89CHL1   H4A 8998   0.601   5.170   7.319  2.5907 -1.3281  1.3404
   89CHL1   H4B 8999   0.756   5.254   7.288 -0.2106  2.1642 -1.8985
   89CHL1    C5 9000   0.658   5.296   7.478  0.0650  0.5977 -1.0324
   89CHL1    C6 9001   0.776   5.304   7.540 -0.0164 -0.3364 -0.1700
   89CHL1    H6 9002   0.866   5.270   7.485  0.1971 -1.2994  0.7439
   89CHL1    C7 9003   0.789   5.314   7.683 -0.2689 -0.8442  0.0903
   89CHL1   H7A 9004   0.863   5.237   7.713  1.1584  0.0665 -0.9855
   89CHL1   H7B 9005   0.821   5.417   7.708  1.1294 -1.7777  2.4878
   89CHL1    C8 9006   0.659   5.290   7.762 -0.9415  0.2911 -0.6228
   89CHL1    H8 9007   0.642   5.180   7.767  1.0687 -0.0007  1.2529
   89CHL1   C14 9008   0.681   5.346   7.900  0.0686  0.0423 -0.1760
   89CHL1   H14 9009   0.694   5.454   7.876  1.8653  0.3398  1.7761
   89CHL1   C15 9010   0.808   5.300   7.986  0.4698  0.2756  0.3625
   89CHL1  H15A 9011   0.812   5.189   7.987  0.8525  0.2921  0.8527
   89CHL1  H15B 9012   0.906   5.337   7.948  0.9135 -0.7916  0.4345
   89CHL1   C16 9013   0.776   5.341   8.127  0.7928 -0.2624 -0.0661
   89CHL1  H16A 9014   0.786   5.257   8.198 -1.8284  0.2479  1.0306
   89CHL1  H16B 9015   0.838   5.428   8.158 -0.9594  1.8843 -2.1444
   89CHL1   C17 9016   0.632   5.397   8.121 -0.2786 -0.7211  0.7631
   89CHL1   H17 9017   0.655   5.502   8.091  0.7056 -1.4412 -1.2016
   89CHL1   C13 9018   0.561   5.341   7.994  0.0029 -0.0877  0.5708
   89CHL1   C18 9019   0.536   5.195   8.030  0.0943  0.2031  0.3015
   89CHL1  H18A 9020   0.454   5.176   8.102  0.9111 -2.2026  0.6793
   89CHL1  H18B 9021   0.508   5.131   7.943 -0.8442 -0.6681  1.2214
   89CHL1  H18C 9022   0.620   5.142   8.079 -2.0628 -1.4238  2.4693
   89CHL1   C12 9023   0.433   5.405   7.934  0.5170  0.1445  0.4381
   89CHL1  H12A 9024   0.347   5.396   8.004 -0.3944 -0.9701 -0.7725
   89CHL1  H12B 9025   0.455   5.514   7.938  0.0430  0.3003 -0.7035
   89CHL1   C11 9026   0.413   5.361   7.784  0.3015 -0.2012 -0.4518
   89CHL1  H11A 9027   0.382   5.256   7.797  0.0084  0.0260  0.7925
   89CHL1  H11B 9028   0.327   5.420   7.744  0.1995 -0.5492 -0.7473
   89CHL1    C9 9029   0.542   5.360   7.695  0.3567  0.0966  0.1611
   89CHL1    H9 9030   0.574   5.466   7.703 -1.2420  0.8079 -2.0054
   89CHL1   C10 9031   0.524   5.321   7.552  0.2626 -0.2586  0.8692
   89CHL1   C19 9032   0.448   5.190   7.553 -0.2510  0.0248 -0.0847
   89CHL1  H19A 9033   0.422   5.147   7.454 -0.5799  0.1090 -0.0377
   89CHL1  H19B 9034   0.491   5.110   7.616 -1.2405 -0.6007 -0.1783
   89CHL1  H19C 9035   0.351   5.200   7.606  0.9126  3.0596  1.7433
   89CHL1    C1 9036   0.438   5.423   7.466 -0.4995  0.7265  0.0509
   89CHL1   H1A 9037   0.335   5.409   7.507  0.0378 -0.0268  1.1957
   89CHL1   H1B 9038   0.473   5.525   7.494  0.5039  0.4076 -0.0178
   89CHL1    C2 9039   0.433   5.384   7.317 -0.0307  0.0464 -0.5245
   89CHL1   H2A 9040   0.361   5.458   7.275 -3.2477 -1.4163  1.9707
   89CHL1   H2B 9041   0.381   5.285   7.318  0.5725 -0.2886  1.4777
   89CHL1   C20 9042   0.559   5.418   8.253  0.4695  0.0659 -0.1435
   89CHL1   H20 9043   0.452   5.425   8.224  0.8608  1.4614 -1.3335
   89CHL1   C21 9044   0.593   5.556   8.319  0.4044  1.0484 -0.1660
   89CHL1  H21A 9045   0.589   5.642   8.249 -0.4534  1.2447  0.1082
   89CHL1  H21B 9046   0.695   5.560   8.362  0.4674  0.4190 -0.2474
   89CHL1  H21C 9047   0.521   5.581   8.400  0.3871 -0.7302  0.4103
   89CHL1   C22 9048   0.557   5.295   8.350  0.2420 -0.6178 -0.1708
   89CHL1  H22A 9049   0.503   5.206   8.311 -0.2841  0.3967 -1.8467
   89CHL1  H22B 9050   0.661   5.265   8.376  0.2600  0.5410  1.2333
   89CHL1   C23 9051   0.484   5.331   8.489  0.4860  0.3620 -0.0444
   89CHL1  H23A 9052   0.533   5.408   8.552 -1.4025  1.3037  0.3408
   89CHL1  H23B 9053   0.380   5.360   8.464  0.4671 -0.2569 -0.7231
   89CHL1   C24 9054   0.462   5.208   8.577  0.1016  0.2143 -0.7152
   89CHL1  H24A 9055   0.419   5.127   8.515 -0.6407 -0.0803  0.1683
   89CHL1  H24B 9056   0.559   5.186   8.625  0.2541  1.4809 -0.3926
   89CHL1   C25 9057   0.353   5.243   8.677 -0.8523  0.6234  0.1156
   89CHL1   H25 9058   0.274   5.293   8.618 -0.5685 -0.3781 -1.1536
   89CHL1   C26 9059   0.296   5.118   8.734 -0.5069  0.0426  0.1713
   89CHL1  H26A 9060   0.361   5.062   8.804 -2.9423 -2.2056  0.7949
   89CHL1  H26B 9061   0.212   5.148   8.799  0.7354  1.3906  1.2132
   89CHL1  H26C 9062   0.269   5.044   8.655  1.3608 -1.9971  1.2921
   89CHL1   C27 9063   0.389   5.354   8.782 -0.5070 -0.6397 -0.7137
   89CHL1  H27A 9064   0.324   5.360   8.871 -0.4168  3.5654 -0.7469
   89CHL1  H27B 9065   0.490   5.342   8.827 -0.3137 -1.0703 -1.2428
   89CHL1  H27C 9066   0.373   5.455   8.739  0.8819 -0.2475 -0.3488
   90CHL1    C3 9067   5.925   4.461   7.026  0.1853  0.4947 -0.5499
   90CHL1    H3 9068   6.032   4.437   7.039 -0.4864 -2.4167  0.2539
   90CHL1    O3 9069   5.914   4.532   6.896 -0.2935  0.3646 -0.4937
   90CHL1   H3' 9070   5.961   4.615   6.908 -0.4528  0.6053 -1.4705
   90CHL1    C4 9071   5.840   4.337   7.031  0.4365 -0.4089 -0.7323
   90CHL1   H4A 9072   5.737   4.372   7.011  0.3078  1.1452  2.0691
   90CHL1   H4B 9073   5.880   4.258   6.965  2.1629 -1.4904  1.4654
   90CHL1    C5 9074   5.826   4.266   7.164 -0.3295  0.2178 -0.6751
   90CHL1    C6 9075   5.852   4.139   7.174  0.8591  0.1719  0.0532
   90CHL1    H6 9076   5.890   4.079   7.090  0.2578 -1.9223  1.1998
   90CHL1    C7 9077   5.831   4.059   7.299 -0.4089 -1.0597 -0.7359
   90CHL1   H7A 9078   5.789   3.958   7.277  0.4885 -1.5413 -0.3372
   90CHL1   H7B 9079   5.930   4.040   7.347 -0.2800 -0.3358 -0.7035
   90CHL1    C8 9080   5.759   4.143   7.406  0.0851 -0.4543  0.4246
   90CHL1    H8 9081   5.654   4.134   7.370  0.7618 -0.7082 -1.6622
   90CHL1   C14 9082   5.769   4.064   7.536  0.4065 -0.3435 -1.0240
   90CHL1   H14 9083   5.876   4.060   7.564  0.1544 -3.0524 -0.1702
   90CHL1   C15 9084   5.722   3.920   7.543  0.2985  0.2010  0.2391
   90CHL1  H15A 9085   5.621   3.903   7.499  1.0138  0.7937 -1.7153
   90CHL1  H15B 9086   5.791   3.846   7.497  2.0837 -0.1116  3.1824
   90CHL1   C16 9087   5.723   3.889   7.695  1.0347 -0.1233  0.3042
   90CHL1  H16A 9088   5.621   3.859   7.728  0.0177  0.6556 -1.9431
   90CHL1  H16B 9089   5.791   3.806   7.724  1.3312 -0.5937 -1.6247
   90CHL1   C17 9090   5.753   4.021   7.766 -0.5249 -0.0849 -0.9336
   90CHL1   H17 9091   5.863   4.027   7.779 -0.5021  2.6266 -1.8472
   90CHL1   C13 9092   5.720   4.131   7.666  0.4485  0.3909 -0.5700
   90CHL1   C18 9093   5.572   4.151   7.660  0.4663 -0.6325 -0.1855
   90CHL1  H18A 9094   5.517   4.057   7.684  0.5474 -0.0835  2.5634
   90CHL1  H18B 9095   5.541   4.216   7.744  2.4375 -0.0761  0.1515
   90CHL1  H18C 9096   5.537   4.188   7.562  1.2552  0.2775 -0.1302
   90CHL1   C12 9097   5.789   4.273   7.676 -0.3183  0.4748  0.4081
   90CHL1  H12A 9098   5.746   4.321   7.766 -0.0497  0.2178  0.6744
   90CHL1  H12B 9099   5.893   4.238   7.695 -0.7540 -1.7390 -0.8882
   90CHL1   C11 9100   5.779   4.363   7.546 -0.0239 -0.2469 -0.1105
   90CHL1  H11A 9101   5.676   4.403   7.535  0.2599  0.6867  0.5446
   90CHL1  H11B 9102   5.850   4.447   7.559 -1.7526  0.9461  2.3882
   90CHL1    C9 9103   5.818   4.284   7.413 -1.0003 -0.3401 -0.2379
   90CHL1    H9 9104   5.929   4.280   7.417 -0.6754  3.9489 -0.6302
   90CHL1   C10 9105   5.792   4.354   7.281  0.5759 -0.0023 -0.2999
   90CHL1   C19 9106   5.643   4.399   7.271 -0.2813  0.2038  0.0540
   90CHL1  H19A 9107   5.573   4.314   7.287 -0.0684  0.2367  1.3342
   90CHL1  H19B 9108   5.618   4.481   7.342 -2.3315  1.4834 -1.9972
   90CHL1  H19C 9109   5.615   4.440   7.172 -1.4176  2.1067  1.1060
   90CHL1    C1 9110   5.886   4.490   7.273 -0.1702  0.6351 -0.3216
   90CHL1   H1A 9111   5.860   4.564   7.352 -1.5480 -2.7354  2.6800
   90CHL1   H1B 9112   5.983   4.440   7.295 -0.7100 -0.4028 -0.2206
   90CHL1    C2 9113   5.888   4.553   7.139  0.1725 -0.0886  0.0493
   90CHL1   H2A 9114   5.964   4.634   7.132 -0.2682  0.3633  0.4190
   90CHL1   H2B 9115   5.790   4.603   7.123  0.3387  0.1231 -0.3225
   90CHL1   C20 9116   5.689   4.034   7.908 -0.3667 -0.1412 -0.5889
   90CHL1   H20 9117   5.578   4.036   7.896 -0.4154 -0.3729 -0.2025
   90CHL1   C21 9118   5.739   4.155   7.983  0.1867 -0.2228  0.7639
   90CHL1  H21A 9119   5.678   4.245   7.959 -0.5689 -0.4714  1.7006
   90CHL1  H21B 9120   5.845   4.166   7.951  0.4570 -2.6525  0.6021
   90CHL1  H21C 9121   5.733   4.132   8.091 -0.8922  1.6667  1.1443
   90CHL1   C22 9122   5.717   3.905   7.985  0.2187 -0.4146 -0.1000
   90CHL1  H22A 9123   5.663   3.821   7.935  0.5178 -0.8337  0.2649
   90CHL1  H22B 9124   5.826   3.886   7.969 -0.0225 -0.8980 -1.3171
   90CHL1   C23 9125   5.683   3.895   8.136 -0.5559 -0.0288  0.1790
   90CHL1  H23A 9126   5.760   3.961   8.180 -1.6029  0.7502  0.8682
   90CHL1  H23B 9127   5.578   3.928   8.152  0.0706  1.8545  0.5430
   90CHL1   C24 9128   5.692   3.741   8.195  0.0137  0.0614  0.5176
   90CHL1  H24A 9129   5.643   3.671   8.124  0.0664  1.1844 -0.6670
   90CHL1  H24B 9130   5.796   3.703   8.207 -0.4752 -1.4568  0.1065
   90CHL1   C25 9131   5.617   3.728   8.330 -0.0515  0.7923  0.5724
   90CHL1   H25 9132   5.513   3.768   8.328 -0.7157 -0.6602  2.6489
   90CHL1   C26 9133   5.607   3.575   8.369  0.3378  0.2318  0.3507
   90CHL1  H26A 9134   5.715   3.553   8.374  0.3800 -0.0364 -1.2510
   90CHL1  H26B 9135   5.551   3.564   8.465  0.3057 -1.8381  0.1233
   90CHL1  H26C 9136   5.560   3.510   8.293 -1.4043  1.9186 -0.0916
   90CHL1   C27 9137   5.693   3.795   8.439  0.3598  0.8634 -0.7943
   90CHL1  H27A 9138   5.644   3.772   8.536  0.6664  1.8827 -0.3832
   90CHL1  H27B 9139   5.792   3.746   8.452 -1.1161 -1.7073  2.0461
   90CHL1  H27C 9140   5.695   3.903   8.413 -0.4091  1.2880  0.7746
   91CHL1    C3 9141   0.487   0.179   6.902  0.8130  0.4620 -0.7542
   91CHL1    H3 9142   0.482   0.290   6.899  0.1358  0.4546 -0.2138
   91CHL1    O3 9143   0.524   0.130   6.771 -0.0927  0.3086 -0.3020
   91CHL1   H3' 9144   0.494   0.187   6.700 -0.1067 -1.0651 -1.4381
   91CHL1    C4 9145   0.592   0.130   7.002 -0.8770  0.3479 -0.5305
   91CHL1   H4A 9146   0.603   0.020   6.986 -0.5062  0.2779  0.1370
   91CHL1   H4B 9147   0.687   0.184   6.982 -1.5294  1.0028 -1.9645
   91CHL1    C5 9148   0.555   0.165   7.148  0.1959  0.1196 -0.3548
   91CHL1    C6 9149   0.630   0.250   7.220  0.4409 -0.2652  0.3207
   91CHL1    H6 9150   0.717   0.294   7.169  0.3323 -0.0097  0.3565
   91CHL1    C7 9151   0.608   0.285   7.368 -0.7309  0.1809 -0.2979
   91CHL1   H7A 9152   0.697   0.273   7.434 -0.9101  1.1648  0.1401
   91CHL1   H7B 9153   0.590   0.395   7.375  1.6444  0.5301  1.8806
   91CHL1    C8 9154   0.499   0.189   7.432  0.0615 -1.1751  0.6596
   91CHL1    H8 9155   0.544   0.090   7.454 -0.2847 -1.3951  0.3737
   91CHL1   C14 9156   0.454   0.237   7.570 -0.1875  0.0658 -0.3221
   91CHL1   H14 9157   0.388   0.325   7.551  2.2351  2.0652 -0.1306
   91CHL1   C15 9158   0.560   0.286   7.673 -0.4240 -0.3111 -0.1776
   91CHL1  H15A 9159   0.652   0.225   7.685 -0.1038  0.3676  0.9880
   91CHL1  H15B 9160   0.611   0.379   7.639  1.3385 -1.2880 -0.3559
   91CHL1   C16 9161   0.472   0.314   7.790 -0.4497 -0.4010  0.2336
   91CHL1  H16A 9162   0.524   0.255   7.868  1.7546  0.7482 -0.2835
   91CHL1  H16B 9163   0.456   0.420   7.822  0.8390 -0.5143  1.3370
   91CHL1   C17 9164   0.335   0.236   7.765 -0.5526  0.3400 -0.2577
   91CHL1   H17 9165   0.258   0.312   7.738 -0.8851 -0.1697 -0.7632
   91CHL1   C13 9166   0.353   0.147   7.646  0.6167  0.6271 -0.1100
   91CHL1   C18 9167   0.424   0.019   7.687  0.8290 -0.9179  0.2102
   91CHL1  H18A 9168   0.435  -0.038   7.592  0.1999  0.1048 -0.4935
   91CHL1  H18B 9169   0.517   0.021   7.747  1.3677 -1.4476 -0.5972
   91CHL1  H18C 9170   0.359  -0.048   7.748 -0.4208 -0.0529 -0.1327
   91CHL1   C12 9171   0.230   0.114   7.559  0.1341 -0.2624 -0.4260
   91CHL1  H12A 9172   0.171   0.032   7.604  1.7989 -1.6728 -0.7025
   91CHL1  H12B 9173   0.162   0.202   7.563  1.3619  0.6995 -0.3103
   91CHL1   C11 9174   0.266   0.081   7.411 -0.5696  0.2941  0.0491
   91CHL1  H11A 9175   0.284  -0.029   7.411 -1.1443  0.2009 -0.3511
   91CHL1  H11B 9176   0.173   0.088   7.351  0.2380 -0.0104 -1.2761
   91CHL1    C9 9177   0.382   0.162   7.340 -0.0488  0.3525 -0.2716
   91CHL1    H9 9178   0.344   0.265   7.319 -0.2171  0.8561  2.1653
   91CHL1   C10 9179   0.420   0.107   7.195  0.6493 -0.0988  0.3759
   91CHL1   C19 9180   0.434  -0.047   7.201 -0.4274  0.0584  0.5728
   91CHL1  H19A 9181   0.334  -0.094   7.217 -0.2775  0.0237  1.4318
   91CHL1  H19B 9182   0.476  -0.090   7.108  3.7262  2.2228  1.2218
   91CHL1  H19C 9183   0.489  -0.081   7.291 -1.4251  0.8648  1.5288
   91CHL1    C1 9184   0.318   0.164   7.092  0.1464  0.7982  0.5221
   91CHL1   H1A 9185   0.220   0.119   7.115  0.4143 -0.0691  0.0036
   91CHL1   H1B 9186   0.323   0.274   7.103  0.6442  0.8789 -0.3860
   91CHL1    C2 9187   0.350   0.118   6.944  0.3144 -0.4492  0.1064
   91CHL1   H2A 9188   0.272   0.163   6.879 -0.5956 -0.4812  1.1448
   91CHL1   H2B 9189   0.349   0.007   6.939  0.9258 -0.5901  2.2309
   91CHL1   C20 9190   0.289   0.169   7.900  0.5563  0.4564  0.6327
   91CHL1   H20 9191   0.355   0.087   7.935 -0.0875  0.8603  2.9078
   91CHL1   C21 9192   0.149   0.110   7.871  0.8019 -0.6118  0.4069
   91CHL1  H21A 9193   0.084   0.186   7.823 -1.1127 -1.5827  1.3448
   91CHL1  H21B 9194   0.100   0.080   7.967  0.5423 -1.3419  0.0547
   91CHL1  H21C 9195   0.154   0.018   7.809 -0.6257  0.2858 -1.1064
   91CHL1   C22 9196   0.300   0.270   8.023  0.1409 -0.3753  0.0072
   91CHL1  H22A 9197   0.408   0.289   8.043  0.5266 -0.0156 -2.1494
   91CHL1  H22B 9198   0.274   0.371   7.984  1.2850 -0.3173 -0.6613
   91CHL1   C23 9199   0.224   0.232   8.151  0.5385 -0.5337 -0.2621
   91CHL1  H23A 9200   0.269   0.306   8.221  1.1696  1.0866 -2.2869
   91CHL1  H23B 9201   0.113   0.238   8.155  0.4566 -0.9827 -1.5125
   91CHL1   C24 9202   0.258   0.089   8.199 -0.4026  0.0655  0.0881
   91CHL1  H24A 9203   0.238   0.023   8.113 -2.9699  1.0579 -0.1551
   91CHL1  H24B 9204   0.367   0.082   8.222 -0.2006 -0.7023 -1.0471
   91CHL1   C25 9205   0.179   0.048   8.320 -0.2255 -0.2784 -0.4145
   91CHL1   H25 9206   0.072   0.074   8.305  0.3671  1.5112 -1.9031
   91CHL1   C26 9207   0.205  -0.107   8.338 -0.4208 -0.3206 -0.0349
   91CHL1  H26A 9208   0.123  -0.142   8.404 -0.6199 -0.7176 -0.4963
   91CHL1  H26B 9209   0.199  -0.162   8.242 -2.0473 -1.1892  0.5409
   91CHL1  H26C 9210   0.305  -0.123   8.384 -0.3872 -0.1546 -0.0496
   91CHL1   C27 9211   0.226   0.123   8.447  0.5432 -0.1646  0.2572
   91CHL1  H27A 9212   0.203   0.231   8.434  2.0070  0.1056 -0.2966
   91CHL1  H27B 9213   0.178   0.095   8.543 -2.1976  2.1300 -0.2948
   91CHL1  H27C 9214   0.335   0.113   8.465  0.5016  1.7565  1.9358
   92CHL1    C3 9215   3.649   2.191   6.823  0.0496 -0.6135 -0.3425
   92CHL1    H3 9216   3.668   2.082   6.831  0.1277 -0.4843  2.2162
   92CHL1    O3 9217   3.680   2.219   6.693  0.1509 -0.3853 -0.2361
   92CHL1   H3' 9218   3.750   2.157   6.673  1.8261  0.8614  1.3407
   92CHL1    C4 9219   3.504   2.226   6.846  0.7531  0.2443 -0.4033
   92CHL1   H4A 9220   3.486   2.336   6.844  0.2239  0.2629  2.0994
   92CHL1   H4B 9221   3.435   2.170   6.780  1.6229 -0.6793 -0.5497
   92CHL1    C5 9222   3.468   2.176   6.987  0.2568  0.0589  0.1924
   92CHL1    C6 9223   3.364   2.088   7.007  0.2579 -0.1117 -0.4556
   92CHL1    H6 9224   3.311   2.054   6.917 -0.0655  1.1303 -0.7452
   92CHL1    C7 9225   3.317   2.034   7.145 -0.4720 -0.4307 -1.0256
   92CHL1   H7A 9226   3.206   2.045   7.149 -0.3409  0.7061  1.2330
   92CHL1   H7B 9227   3.346   1.928   7.163  2.2654  0.3320 -0.5853
   92CHL1    C8 9228   3.370   2.126   7.256 -0.4909 -0.0320 -0.1172
   92CHL1    H8 9229   3.306   2.215   7.273  0.2601  0.5900 -0.4941
   92CHL1   C14 9230   3.347   2.046   7.386 -0.4368 -0.0440  0.3551
   92CHL1   H14 9231   3.399   1.948   7.390 -1.2233 -0.4531  0.7262
   92CHL1   C15 9232   3.206   2.002   7.416 -0.1644 -0.7374 -0.3092
   92CHL1  H15A 9233   3.147   2.096   7.411  2.9083  1.5222  1.8356
   92CHL1  H15B 9234   3.179   1.922   7.344  0.9833  0.3835 -2.0486
   92CHL1   C16 9235   3.218   1.955   7.564  0.4290 -0.4010  0.4707
   92CHL1  H16A 9236   3.137   1.994   7.628  0.9864  0.7213  0.5160
   92CHL1  H16B 9237   3.227   1.844   7.564  2.8320 -0.2879 -1.1855
   92CHL1   C17 9238   3.345   2.020   7.624  0.1688 -0.4210  0.4760
   92CHL1   H17 9239   3.421   1.939   7.625  1.1438  0.4830  1.3408
   92CHL1   C13 9240   3.393   2.119   7.511 -0.0422 -0.1221 -0.3801
   92CHL1   C18 9241   3.312   2.249   7.529  0.2401 -0.9829 -0.2519
   92CHL1  H18A 9242   3.313   2.327   7.451 -0.0271  1.4123  1.9980
   92CHL1  H18B 9243   3.204   2.239   7.555  0.2104 -0.1280 -0.0246
   92CHL1  H18C 9244   3.371   2.293   7.612  0.0590 -1.3216  0.0637
   92CHL1   C12 9245   3.548   2.144   7.488 -0.0743 -0.1573 -0.5878
   92CHL1  H12A 9246   3.588   2.189   7.582 -0.5006  0.8543 -0.8699
   92CHL1  H12B 9247   3.600   2.046   7.481 -2.2806 -1.4537  0.1213
   92CHL1   C11 9248   3.575   2.233   7.365 -0.0176  0.9518  0.2833
   92CHL1  H11A 9249   3.522   2.330   7.376  0.1202  1.1217 -0.4956
   92CHL1  H11B 9250   3.684   2.240   7.347 -0.0410  2.3902  0.6403
   92CHL1    C9 9251   3.519   2.161   7.236  0.7161  0.3955  0.1884
   92CHL1    H9 9252   3.573   2.065   7.227  0.5324  0.3440 -0.4039
   92CHL1   C10 9253   3.540   2.245   7.103 -0.4547 -0.0041  0.2519
   92CHL1   C19 9254   3.481   2.386   7.119  0.0243 -0.1288  0.0703
   92CHL1  H19A 9255   3.529   2.446   7.199 -1.0715 -0.8272  1.2772
   92CHL1  H19B 9256   3.507   2.442   7.026  0.7597 -0.5184  0.0351
   92CHL1  H19C 9257   3.373   2.379   7.144 -0.1229 -1.3625 -0.8337
   92CHL1    C1 9258   3.697   2.247   7.070  0.0602  0.7413  0.1302
   92CHL1   H1A 9259   3.741   2.320   7.143 -1.2694  0.2053  1.5190
   92CHL1   H1B 9260   3.730   2.144   7.095 -2.8082 -0.0783  0.9467
   92CHL1    C2 9261   3.739   2.267   6.928 -0.2004 -0.6278  0.5472
   92CHL1   H2A 9262   3.843   2.237   6.907 -0.1648 -1.0286  1.2652
   92CHL1   H2B 9263   3.732   2.378   6.917  1.1085 -0.5028  0.8241
   92CHL1   C20 9264   3.331   2.083   7.769 -0.4795 -0.1219  0.4700
   92CHL1   H20 9265   3.260   2.168   7.761 -2.2159 -1.5876 -0.7183
   92CHL1   C21 9266   3.463   2.118   7.832  0.2264 -0.4632  0.2286
   92CHL1  H21A 9267   3.530   2.195   7.789  1.0145 -1.8522 -1.1078
   92CHL1  H21B 9268   3.531   2.032   7.849 -1.6071 -2.0532 -0.0765
   92CHL1  H21C 9269   3.431   2.165   7.928  1.0548  0.6558 -0.0184
   92CHL1   C22 9270   3.247   1.993   7.868 -0.0133 -0.3461  0.2497
   92CHL1  H22A 9271   3.245   2.053   7.962  0.2373  2.5444 -1.4800
   92CHL1  H22B 9272   3.142   1.978   7.837  0.2211 -0.4250 -0.5272
   92CHL1   C23 9273   3.309   1.850   7.889 -0.3248  0.4607 -0.6814
   92CHL1  H23A 9274   3.291   1.799   7.792  2.0147  1.2956 -1.6489
   92CHL1  H23B 9275   3.416   1.844   7.919 -0.2307  0.7272 -0.9600
   92CHL1   C24 9276   3.224   1.765   7.987 -0.0531 -0.2349 -0.3822
   92CHL1  H24A 9277   3.232   1.809   8.089 -0.4319 -0.3635 -0.2910
   92CHL1  H24B 9278   3.119   1.778   7.952  0.0316 -0.1727 -0.6123
   92CHL1   C25 9279   3.249   1.614   7.996 -0.4061 -0.0548 -0.5549
   92CHL1   H25 9280   3.339   1.605   8.061  0.6076  1.1291 -1.7520
   92CHL1   C26 9281   3.132   1.539   8.065 -0.5071  0.1847  0.4191
   92CHL1  H26A 9282   3.097   1.600   8.151 -1.1912  1.0437 -0.4408
   92CHL1  H26B 9283   3.044   1.524   7.999 -1.1261 -0.6602  1.3941
   92CHL1  H26C 9284   3.171   1.437   8.087 -2.2978 -0.8930 -1.0994
   92CHL1   C27 9285   3.293   1.539   7.868 -0.7287  0.0703  0.5409
   92CHL1  H27A 9286   3.350   1.448   7.894  1.5496  0.5651 -2.2002
   92CHL1  H27B 9287   3.212   1.493   7.806  0.1705  1.4010 -1.7628
   92CHL1  H27C 9288   3.363   1.595   7.802 -2.3521  1.9495  0.3077
   93CHL1    C3 9289   0.853   6.317   6.997  0.3711 -0.0699 -0.3614
   93CHL1    H3 9290   0.947   6.370   7.022  0.1826  1.0777 -1.9637
   93CHL1    O3 9291   0.862   6.270   6.862 -0.2335  0.4287  0.1549
   93CHL1   H3' 9292   0.942   6.218   6.875  0.3719  1.2036 -0.4048
   93CHL1    C4 9293   0.830   6.195   7.093 -0.3204  0.2378 -0.0360
   93CHL1   H4A 9294   0.764   6.113   7.057  0.9712  0.0922 -2.3025
   93CHL1   H4B 9295   0.925   6.138   7.097 -1.4856 -1.8636 -0.8644
   93CHL1    C5 9296   0.801   6.238   7.232 -0.7221 -0.4615 -0.2411
   93CHL1    C6 9297   0.880   6.217   7.335 -0.0091 -0.6084 -0.4714
   93CHL1    H6 9298   0.961   6.144   7.319 -0.9252 -1.5682 -0.8898
   93CHL1    C7 9299   0.838   6.232   7.478 -0.6820  0.3746 -0.3173
   93CHL1   H7A 9300   0.835   6.133   7.529 -1.2639  0.3436 -0.3976
   93CHL1   H7B 9301   0.905   6.302   7.532 -0.8093 -0.6003  1.1503
   93CHL1    C8 9302   0.699   6.289   7.498  0.5587  0.6183 -0.4681
   93CHL1    H8 9303   0.625   6.207   7.489 -0.4668  1.5676 -1.0542
   93CHL1   C14 9304   0.663   6.333   7.642 -0.0530  0.0493  0.0710
   93CHL1   H14 9305   0.734   6.417   7.658 -0.0512  0.1774 -0.5657
   93CHL1   C15 9306   0.704   6.244   7.762  0.2946 -0.0489 -0.2312
   93CHL1  H15A 9307   0.662   6.142   7.751 -0.2613  0.1542 -0.0172
   93CHL1  H15B 9308   0.815   6.246   7.771  0.4869 -3.5158 -0.7271
   93CHL1   C16 9309   0.633   6.315   7.876 -0.7284  0.2118 -0.1989
   93CHL1  H16A 9310   0.574   6.248   7.942 -2.0891  0.9572 -0.6265
   93CHL1  H16B 9311   0.703   6.363   7.948 -3.0970 -1.0440  3.2122
   93CHL1   C17 9312   0.534   6.421   7.816 -0.5729  0.5246  0.6660
   93CHL1   H17 9313   0.586   6.518   7.797 -2.5921  1.7681  1.1251
   93CHL1   C13 9314   0.525   6.386   7.666  0.4264  0.1053  0.3471
   93CHL1   C18 9315   0.418   6.274   7.655 -0.3129 -0.1122  0.1685
   93CHL1  H18A 9316   0.426   6.225   7.556  1.0472 -0.0310  0.2083
   93CHL1  H18B 9317   0.425   6.204   7.741 -0.3473 -0.7547 -0.3434
   93CHL1  H18C 9318   0.321   6.327   7.644  0.6757  1.4333 -1.7004
   93CHL1   C12 9319   0.502   6.504   7.562  0.4501  0.2087 -0.1768
   93CHL1  H12A 9320   0.396   6.539   7.569  0.0878 -0.4778 -1.8382
   93CHL1  H12B 9321   0.572   6.587   7.587  1.7509 -0.8709 -0.1580
   93CHL1   C11 9322   0.513   6.460   7.419  0.3025 -0.9347  0.0577
   93CHL1  H11A 9323   0.438   6.379   7.411 -1.5382  0.7616 -0.7295
   93CHL1  H11B 9324   0.486   6.544   7.351 -1.5380 -1.8035 -0.3608
   93CHL1    C9 9325   0.649   6.392   7.389 -0.7458 -0.3120  0.7939
   93CHL1    H9 9326   0.730   6.468   7.401  1.6573 -2.7650  1.0509
   93CHL1   C10 9327   0.670   6.326   7.244  0.0355 -0.1757  0.9842
   93CHL1   C19 9328   0.546   6.240   7.216  0.1344  0.2949  0.0580
   93CHL1  H19A 9329   0.567   6.200   7.115 -1.3653  0.4858 -0.3574
   93CHL1  H19B 9330   0.538   6.151   7.283  0.0571  0.9053  0.8784
   93CHL1  H19C 9331   0.451   6.298   7.209  1.1503  2.0271  0.2418
   93CHL1    C1 9332   0.687   6.447   7.145 -0.2645  0.0690  1.2301
   93CHL1   H1A 9333   0.595   6.510   7.143  0.3006  0.9841 -1.3670
   93CHL1   H1B 9334   0.774   6.507   7.179  1.0167 -0.7901 -0.3809
   93CHL1    C2 9335   0.732   6.416   7.006  0.0949  0.3351 -0.5383
   93CHL1   H2A 9336   0.760   6.499   6.937 -0.1816  0.1170 -0.9200
   93CHL1   H2B 9337   0.642   6.370   6.961 -0.5850  0.9401  0.1682
   93CHL1   C20 9338   0.415   6.473   7.904 -0.0279  0.3231  0.5143
   93CHL1   H20 9339   0.369   6.542   7.829  0.4458  1.2805  1.0914
   93CHL1   C21 9340   0.464   6.549   8.021  0.7909 -0.2339  0.4771
   93CHL1  H21A 9341   0.376   6.584   8.079  1.9508  2.2974  0.8794
   93CHL1  H21B 9342   0.520   6.639   7.987 -0.7427 -0.0517 -1.7840
   93CHL1  H21C 9343   0.532   6.488   8.085  1.6268 -2.8137 -2.6157
   93CHL1   C22 9344   0.319   6.361   7.951  0.5219  0.3145  0.3231
   93CHL1  H22A 9345   0.281   6.306   7.862  0.9956 -1.8172  1.3794
   93CHL1  H22B 9346   0.382   6.285   8.002  1.9557  1.3858  0.2241
   93CHL1   C23 9347   0.203   6.390   8.045  0.8551 -0.4807  0.2054
   93CHL1  H23A 9348   0.222   6.465   8.124 -1.8959 -0.4461  0.9268
   93CHL1  H23B 9349   0.119   6.429   7.985 -0.3917 -0.2769  2.0067
   93CHL1   C24 9350   0.163   6.259   8.115 -0.3301 -0.4512  0.1397
   93CHL1  H24A 9351   0.146   6.181   8.038 -1.5997 -0.4012  0.3472
   93CHL1  H24B 9352   0.247   6.223   8.179  0.4857 -0.2167 -0.7706
   93CHL1   C25 9353   0.033   6.262   8.196  0.4149 -0.2580  0.2893
   93CHL1   H25 9354  -0.039   6.299   8.120  0.8597  1.8654  0.8279
   93CHL1   C26 9355  -0.009   6.123   8.246  0.3404  0.4074  0.4581
   93CHL1  H26A 9356  -0.033   6.046   8.170 -2.3981 -0.0789  1.6810
   93CHL1  H26B 9357   0.080   6.084   8.300  1.1113  0.5915 -0.6520
   93CHL1  H26C 9358  -0.095   6.119   8.317 -0.8230 -1.7928 -0.9665
   93CHL1   C27 9359   0.050   6.354   8.316  0.4461  0.6902 -0.1413
   93CHL1  H27A 9360   0.011   6.458   8.308 -0.1016  0.4172 -1.1738
   93CHL1  H27B 9361   0.003   6.316   8.409 -0.2840 -0.8945 -1.1213
   93CHL1  H27C 9362   0.159   6.374   8.325  0.2477  1.1310  1.9454
   94CHL1    C3 9363   2.713   1.855   6.817  0.3691 -0.6254  0.0518
   94CHL1    H3 9364   2.616   1.903   6.841  0.2793 -0.7328 -0.0998
   94CHL1    O3 9365   2.725   1.855   6.675 -0.0265  0.0121 -0.4368
   94CHL1   H3' 9366   2.651   1.804   6.640 -0.6533  1.6718 -1.6658
   94CHL1    C4 9367   2.831   1.929   6.878  0.6163  0.6505 -1.1222
   94CHL1   H4A 9368   2.925   1.876   6.852  0.5620 -0.7855  1.3081
   94CHL1   H4B 9369   2.836   2.032   6.837 -0.2012  0.6315 -1.2828
   94CHL1    C5 9370   2.807   1.936   7.032  0.1098  0.2791 -0.4383
   94CHL1    C6 9371   2.800   2.055   7.098 -0.2863 -0.5812  0.2988
   94CHL1    H6 9372   2.832   2.147   7.046  0.5713 -0.3999  1.1275
   94CHL1    C7 9373   2.779   2.073   7.244  0.0230 -0.6949 -0.3481
   94CHL1   H7A 9374   2.851   2.148   7.283 -0.5774 -0.2933  0.0122
   94CHL1   H7B 9375   2.681   2.124   7.260  0.4856 -0.4928  2.2919
   94CHL1    C8 9376   2.788   1.942   7.324  0.0919  0.2236  0.0888
   94CHL1    H8 9377   2.896   1.916   7.327 -0.9730 -5.1280  1.5378
   94CHL1   C14 9378   2.725   1.956   7.460  0.3645  0.5000  0.2588
   94CHL1   H14 9379   2.616   1.963   7.440  0.3547 -0.3401 -0.0380
   94CHL1   C15 9380   2.749   2.071   7.544 -0.7801 -0.6175  0.0319
   94CHL1  H15A 9381   2.851   2.112   7.530 -0.7920 -0.6558 -0.1724
   94CHL1  H15B 9382   2.681   2.157   7.527 -0.9139 -0.4472  1.2792
   94CHL1   C16 9383   2.726   2.032   7.696  0.5068  0.1429  0.5394
   94CHL1  H16A 9384   2.814   2.050   7.761  2.1558 -2.2929 -0.8772
   94CHL1  H16B 9385   2.645   2.084   7.752  0.1365 -0.9419  1.0456
   94CHL1   C17 9386   2.691   1.881   7.698  0.1368  0.9042 -0.3493
   94CHL1   H17 9387   2.580   1.881   7.708  0.1332 -1.0104 -0.0102
   94CHL1   C13 9388   2.751   1.830   7.555  0.3905 -0.1638 -0.0495
   94CHL1   C18 9389   2.900   1.799   7.573  0.3511  0.5212  0.4560
   94CHL1  H18A 9390   2.946   1.784   7.473 -1.4368  1.4955 -0.5478
   94CHL1  H18B 9391   2.934   1.896   7.614  0.6419  0.5693  0.1021
   94CHL1  H18C 9392   2.916   1.703   7.628  0.5723 -1.2802 -2.5052
   94CHL1   C12 9393   2.684   1.711   7.476  0.4330 -1.0534 -0.4809
   94CHL1  H12A 9394   2.689   1.618   7.538 -0.8009 -0.4593  0.5592
   94CHL1  H12B 9395   2.577   1.736   7.467  1.3073  3.2184 -1.2999
   94CHL1   C11 9396   2.731   1.689   7.332 -0.2769 -0.1676  0.1236
   94CHL1  H11A 9397   2.828   1.634   7.342 -1.0487 -1.3049  1.8073
   94CHL1  H11B 9398   2.660   1.621   7.281  0.3093 -1.4902  1.0129
   94CHL1    C9 9399   2.722   1.821   7.249  0.2103 -0.5683 -1.0092
   94CHL1    H9 9400   2.618   1.858   7.243  0.1575 -0.7942 -1.4792
   94CHL1   C10 9401   2.774   1.804   7.106  0.0644 -0.2253  0.5156
   94CHL1   C19 9402   2.921   1.740   7.094  0.3460  0.6314  0.3590
   94CHL1  H19A 9403   2.997   1.801   7.147  0.7303 -0.1407  0.7088
   94CHL1  H19B 9404   2.928   1.636   7.133 -0.4412  0.8924  1.2333
   94CHL1  H19C 9405   2.959   1.721   6.991  3.4926 -1.3904  1.7361
   94CHL1    C1 9406   2.672   1.724   7.019 -0.2549  0.5311  0.3124
   94CHL1   H1A 9407   2.667   1.623   7.065 -2.6538  1.0156  1.2963
   94CHL1   H1B 9408   2.579   1.777   7.048 -0.0436  1.2626 -0.3031
   94CHL1    C2 9409   2.702   1.711   6.869 -0.4028 -0.8502  0.5307
   94CHL1   H2A 9410   2.630   1.645   6.817 -0.3661 -0.9226  0.5723
   94CHL1   H2B 9411   2.801   1.662   6.861 -0.4841 -0.8383 -0.8794
   94CHL1   C20 9412   2.737   1.809   7.830  0.6803  0.0505  0.8858
   94CHL1   H20 9413   2.847   1.822   7.841  0.7800  0.3216 -0.3080
   94CHL1   C21 9414   2.695   1.659   7.830  0.2338 -0.1845  0.0264
   94CHL1  H21A 9415   2.598   1.646   7.777  0.6930 -0.7413 -0.6796
   94CHL1  H21B 9416   2.690   1.631   7.938  1.7386  1.1059  0.4710
   94CHL1  H21C 9417   2.767   1.606   7.765  1.8967  1.3418  0.5271
   94CHL1   C22 9418   2.681   1.882   7.958  0.3471 -0.1148  0.0044
   94CHL1  H22A 9419   2.742   1.840   8.041  0.9024 -0.2639 -0.4794
   94CHL1  H22B 9420   2.701   1.990   7.947 -0.1894 -0.1963 -2.3008
   94CHL1   C23 9421   2.536   1.866   7.997  0.1639 -0.3733 -0.5051
   94CHL1  H23A 9422   2.471   1.881   7.907  0.0364  1.6626 -0.1223
   94CHL1  H23B 9423   2.518   1.763   8.033 -0.7003 -0.0904 -0.1084
   94CHL1   C24 9424   2.480   1.973   8.091 -0.6807  1.2765  0.0217
   94CHL1  H24A 9425   2.541   1.978   8.185  2.2358  1.5131 -1.7627
   94CHL1  H24B 9426   2.503   2.071   8.043 -1.1701 -0.1263 -3.2751
   94CHL1   C25 9427   2.335   1.968   8.125 -0.1965 -0.1353 -0.9078
   94CHL1   H25 9428   2.283   1.961   8.028 -0.2951  0.1133 -0.8746
   94CHL1   C26 9429   2.295   1.852   8.203  0.4259  0.2625  0.0095
   94CHL1  H26A 9430   2.350   1.846   8.299 -0.8769  0.1263  0.7694
   94CHL1  H26B 9431   2.185   1.851   8.218  0.0449  1.4188 -2.3066
   94CHL1  H26C 9432   2.333   1.762   8.151 -1.0760 -0.3630 -0.0648
   94CHL1   C27 9433   2.296   2.091   8.202 -0.2513  0.4564 -0.1628
   94CHL1  H27A 9434   2.322   2.187   8.153  1.0440 -0.1256 -0.6617
   94CHL1  H27B 9435   2.187   2.094   8.224 -0.1953  1.6115  0.0075
   94CHL1  H27C 9436   2.357   2.095   8.294 -0.2030  0.5347 -0.1976
   95CHL1    C3 9437   3.972   6.230   6.640 -0.0450 -0.1518 -0.8840
   95CHL1    H3 9438   3.926   6.326   6.674 -0.0479 -0.6653  0.6412
   95CHL1    O3 9439   3.992   6.230   6.500 -0.3857 -0.0874 -0.7751
   95CHL1   H3' 9440   4.057   6.160   6.493  0.2711  0.5429 -1.1993
   95CHL1    C4 9441   4.110   6.200   6.702 -0.1515  0.4346  0.3489
   95CHL1   H4A 9442   4.151   6.101   6.672  2.9120  1.6084  0.2972
   95CHL1   H4B 9443   4.191   6.265   6.665  0.3752  0.1655  1.0019
   95CHL1    C5 9444   4.092   6.196   6.851 -0.3657 -0.5876 -0.3451
   95CHL1    C6 9445   4.148   6.290   6.929 -0.0552  0.0618  0.0605
   95CHL1    H6 9446   4.215   6.360   6.877 -1.7025 -0.3905 -2.8550
   95CHL1    C7 9447   4.131   6.310   7.078 -0.5414  0.2514 -0.8426
   95CHL1   H7A 9448   4.231   6.331   7.122  0.2723 -1.4310 -1.7833
   95CHL1   H7B 9449   4.069   6.393   7.118  0.0895  0.0749  0.5530
   95CHL1    C8 9450   4.077   6.176   7.152  0.0098 -0.1919  0.4114
   95CHL1    H8 9451   4.156   6.101   7.132 -0.3514 -0.1423 -1.4882
   95CHL1   C14 9452   4.037   6.190   7.291  0.3297 -0.3803 -0.5622
   95CHL1   H14 9453   3.951   6.259   7.295  0.5372 -0.1307 -0.3254
   95CHL1   C15 9454   4.134   6.257   7.387 -0.6988  0.3807 -0.2803
   95CHL1  H15A 9455   4.235   6.210   7.378  0.0886  2.2089 -1.7791
   95CHL1  H15B 9456   4.157   6.365   7.384  1.5285  0.0233  1.1101
   95CHL1   C16 9457   4.064   6.231   7.520  0.2521  0.4287 -0.4394
   95CHL1  H16A 9458   4.138   6.202   7.598  1.7213 -1.5493 -2.4223
   95CHL1  H16B 9459   4.010   6.323   7.553  0.3380  0.9439 -1.6674
   95CHL1   C17 9460   3.953   6.119   7.501  0.1216  0.1117  0.4689
   95CHL1   H17 9461   3.856   6.173   7.492  1.2540  2.4785  1.6121
   95CHL1   C13 9462   3.988   6.062   7.363 -0.6628 -0.8526 -0.2392
   95CHL1   C18 9463   4.109   5.958   7.373  0.7364 -0.6062  0.4273
   95CHL1  H18A 9464   4.157   5.942   7.274 -1.5101 -1.6178 -0.5533
   95CHL1  H18B 9465   4.183   5.966   7.456  0.7840 -3.1771  0.7079
   95CHL1  H18C 9466   4.056   5.867   7.406 -0.3620  0.6879  2.4191
   95CHL1   C12 9467   3.871   6.008   7.280 -0.2192  0.9505  0.2270
   95CHL1  H12A 9468   3.847   5.912   7.329 -2.0387  1.8515  1.1653
   95CHL1  H12B 9469   3.789   6.083   7.287 -0.2678  0.9243 -0.0265
   95CHL1   C11 9470   3.908   5.986   7.133  0.3453  0.4455 -0.5617
   95CHL1  H11A 9471   3.971   5.895   7.123 -0.3587 -0.2688  1.0740
   95CHL1  H11B 9472   3.811   5.953   7.092  0.6362 -3.9152  1.6457
   95CHL1    C9 9473   3.957   6.120   7.065 -0.2461  0.2025 -0.1972
   95CHL1    H9 9474   3.882   6.201   7.080 -0.9735 -0.7026  1.5042
   95CHL1   C10 9475   3.995   6.096   6.911 -0.2106  0.5986 -0.1146
   95CHL1   C19 9476   4.061   5.958   6.898 -0.1822  0.0889  0.1974
   95CHL1  H19A 9477   3.994   5.875   6.931 -1.8831  0.6316 -1.7224
   95CHL1  H19B 9478   4.093   5.926   6.796  1.1388 -0.6610  0.8166
   95CHL1  H19C 9479   4.150   5.953   6.964 -1.1239 -0.0648  1.5122
   95CHL1    C1 9480   3.864   6.116   6.837  0.1073  0.3257  0.5587
   95CHL1   H1A 9481   3.790   6.039   6.865  0.2513 -0.0725 -0.1218
   95CHL1   H1B 9482   3.828   6.215   6.872  1.1378  1.1496 -0.5811
   95CHL1    C2 9483   3.876   6.116   6.684  0.5471 -0.1393  0.1645
   95CHL1   H2A 9484   3.780   6.144   6.638  0.6107  2.3840  1.3965
   95CHL1   H2B 9485   3.924   6.022   6.647  3.5792  0.5246  2.0333
   95CHL1   C20 9486   3.948   6.019   7.622 -0.2489 -0.3408 -0.2322
   95CHL1   H20 9487   4.048   5.970   7.632 -1.2701 -2.9937 -1.9199
   95CHL1   C21 9488   3.849   5.905   7.602 -0.5991 -0.2241 -0.8039
   95CHL1  H21A 9489   3.872   5.831   7.523 -0.8282 -3.1386  1.6657
   95CHL1  H21B 9490   3.755   5.960   7.581 -0.0233  0.8762 -0.5971
   95CHL1  H21C 9491   3.827   5.856   7.700 -2.3323  2.2222  0.1356
   95CHL1   C22 9492   3.921   6.086   7.757 -0.2924  0.6963  0.5918
   95CHL1  H22A 9493   3.979   6.180   7.748  0.3554  0.1405 -2.2494
   95CHL1  H22B 9494   3.817   6.125   7.765 -0.2903  1.7219 -2.6700
   95CHL1   C23 9495   3.977   6.006   7.872  0.1104  0.1090  0.2517
   95CHL1  H23A 9496   3.925   5.908   7.878 -0.8501  0.4808 -1.2942
   95CHL1  H23B 9497   4.082   5.970   7.867 -0.1799 -0.8437  0.6839
   95CHL1   C24 9498   3.951   6.074   8.007 -1.0760 -0.0453 -0.2723
   95CHL1  H24A 9499   3.843   6.101   8.011 -1.2917 -0.7472 -1.0749
   95CHL1  H24B 9500   3.958   6.006   8.094 -0.7989 -1.0134 -1.0297
   95CHL1   C25 9501   4.049   6.195   8.047  0.3020 -0.3996 -0.0133
   95CHL1   H25 9502   4.053   6.255   7.953  0.5447 -0.9487 -0.3643
   95CHL1   C26 9503   3.990   6.263   8.166  0.0066  0.5493 -0.0269
   95CHL1  H26A 9504   3.903   6.330   8.153  0.4511  0.8778 -1.4872
   95CHL1  H26B 9505   3.945   6.184   8.231  2.1251 -0.0739  0.7765
   95CHL1  H26C 9506   4.064   6.311   8.235  1.2303 -1.6187  0.2858
   95CHL1   C27 9507   4.182   6.140   8.085  0.0590  0.9170 -0.1380
   95CHL1  H27A 9508   4.177   6.106   8.191 -0.8415  0.7401 -0.2235
   95CHL1  H27B 9509   4.215   6.059   8.017 -0.0021 -0.7294  1.7301
   95CHL1  H27C 9510   4.260   6.219   8.088 -0.4331  1.3912  0.6373
   96CHL1    C3 9511   5.095   6.038   6.654  0.2518  0.2557 -0.2055
   96CHL1    H3 9512   5.206   6.043   6.653  0.3244 -0.4307 -3.1812
   96CHL1    O3 9513   5.048   6.034   6.519  0.7252 -0.1024 -0.0189
   96CHL1   H3' 9514   4.957   6.001   6.522  1.3412 -2.1666 -1.3508
   96CHL1    C4 9515   5.048   5.904   6.724  0.0172  0.0230 -0.3552
   96CHL1   H4A 9516   4.938   5.887   6.729  0.0604 -0.0771  0.2974
   96CHL1   H4B 9517   5.091   5.820   6.664 -0.3602  0.0902 -0.7276
   96CHL1    C5 9518   5.095   5.896   6.866  0.1063  0.0188  0.5723
   96CHL1    C6 9519   5.159   5.783   6.910 -0.3246  0.0026 -0.6701
   96CHL1    H6 9520   5.176   5.697   6.842 -1.4578 -3.4353  2.9962
   96CHL1    C7 9521   5.200   5.768   7.060 -0.0266 -0.2668 -0.1950
   96CHL1   H7A 9522   5.178   5.663   7.090  2.7459 -1.4844 -2.0202
   96CHL1   H7B 9523   5.306   5.797   7.076  0.0540 -0.6225 -0.0736
   96CHL1    C8 9524   5.114   5.864   7.149  0.0001  0.5872 -0.3333
   96CHL1    H8 9525   5.009   5.828   7.154 -0.1040  1.0307  1.6289
   96CHL1   C14 9526   5.177   5.862   7.291  0.1064  0.2425  0.1600
   96CHL1   H14 9527   5.283   5.892   7.279  0.4275 -0.7540  0.4302
   96CHL1   C15 9528   5.187   5.723   7.361  1.2344 -1.1339  0.7874
   96CHL1  H15A 9529   5.092   5.674   7.331  1.6193 -2.4750  1.6422
   96CHL1  H15B 9530   5.272   5.663   7.322  1.0913 -0.8620  0.0441
   96CHL1   C16 9531   5.204   5.755   7.508 -0.0475  0.8960 -0.6244
   96CHL1  H16A 9532   5.117   5.704   7.555  0.5601  0.4328  0.0254
   96CHL1  H16B 9533   5.295   5.713   7.555 -1.2951 -0.1107  1.0050
   96CHL1   C17 9534   5.191   5.916   7.513  0.1282  0.9763 -0.9824
   96CHL1   H17 9535   5.298   5.946   7.506  0.6119 -0.6357 -1.0858
   96CHL1   C13 9536   5.117   5.962   7.390  0.0278  0.4334  0.1211
   96CHL1   C18 9537   4.965   5.932   7.407 -0.0618 -0.5007  0.5736
   96CHL1  H18A 9538   4.912   6.017   7.457 -1.3479 -0.8214 -0.1985
   96CHL1  H18B 9539   4.912   5.909   7.312  0.9184 -4.7580  0.8909
   96CHL1  H18C 9540   4.949   5.847   7.476 -2.2265  0.1662  1.0002
   96CHL1   C12 9541   5.150   6.104   7.332 -0.1469 -0.7375  0.0736
   96CHL1  H12A 9542   5.091   6.178   7.390 -0.2096 -1.7036  1.2779
   96CHL1  H12B 9543   5.258   6.127   7.341  0.0839 -0.2915 -2.7842
   96CHL1   C11 9544   5.100   6.120   7.189 -0.0523 -0.0322  0.2661
   96CHL1  H11A 9545   4.990   6.118   7.205 -0.0396  2.8230  1.3830
   96CHL1  H11B 9546   5.124   6.219   7.144  2.2998  0.2935  2.0693
   96CHL1    C9 9547   5.135   6.007   7.090 -0.3272  0.1730 -0.8963
   96CHL1    H9 9548   5.243   6.024   7.067 -0.2600  0.6907 -0.2107
   96CHL1   C10 9549   5.057   6.012   6.952 -0.5891 -0.3988 -0.2934
   96CHL1   C19 9550   4.905   6.013   6.974  0.1134  0.6157  0.2920
   96CHL1  H19A 9551   4.878   6.097   7.041  2.5475  0.7758  1.1851
   96CHL1  H19B 9552   4.850   6.035   6.880  0.3194 -0.0119  0.0209
   96CHL1  H19C 9553   4.869   5.917   7.017  0.9953  1.1641  2.4041
   96CHL1    C1 9554   5.091   6.142   6.882  0.7586 -0.2327  0.3866
   96CHL1   H1A 9555   5.063   6.231   6.943 -1.9524 -0.8492  0.1797
   96CHL1   H1B 9556   5.202   6.146   6.876  0.7744 -1.5308 -0.4897
   96CHL1    C2 9557   5.038   6.156   6.739  0.7152  0.4709  0.8701
   96CHL1   H2A 9558   5.064   6.243   6.675 -0.0053  0.1661  0.1541
   96CHL1   H2B 9559   4.929   6.142   6.730  0.8477 -2.2229  2.4020
   96CHL1   C20 9560   5.139   5.967   7.652 -0.1475  0.8474  0.1381
   96CHL1   H20 9561   5.032   5.939   7.660 -0.7885  2.8623 -0.7163
   96CHL1   C21 9562   5.134   6.121   7.656 -0.2365  0.4571  0.3469
   96CHL1  H21A 9563   5.098   6.162   7.753 -0.5415  0.3293  0.2907
   96CHL1  H21B 9564   5.059   6.154   7.580  1.2495  1.1953 -0.8463
   96CHL1  H21C 9565   5.234   6.161   7.628  0.2499 -2.1144 -2.1072
   96CHL1   C22 9566   5.212   5.897   7.774  0.4795  0.3163  0.0284
   96CHL1  H22A 9567   5.182   5.790   7.783 -0.8409  0.6827  0.2363
   96CHL1  H22B 9568   5.321   5.895   7.754  0.4063 -0.1408 -0.3328
   96CHL1   C23 9569   5.170   5.966   7.910  0.6606  0.4469  0.2824
   96CHL1  H23A 9570   5.167   6.077   7.903  0.6016  0.3439 -2.3783
   96CHL1  H23B 9571   5.061   5.945   7.918  0.7752  0.2123  1.3171
   96CHL1   C24 9572   5.244   5.914   8.026 -0.4288 -0.8898 -0.2797
   96CHL1  H24A 9573   5.250   5.803   8.027  0.5658 -0.8384  0.6055
   96CHL1  H24B 9574   5.344   5.962   8.027 -1.2635  1.0175  1.5403
   96CHL1   C25 9575   5.181   5.947   8.164 -0.7549  0.8526 -0.4922
   96CHL1   H25 9576   5.144   6.051   8.161  1.0222  1.4986 -1.1669
   96CHL1   C26 9577   5.049   5.857   8.180 -0.5223  0.1046  0.1066
   96CHL1  H26A 9578   5.077   5.750   8.179  2.5538  0.7914 -0.8982
   96CHL1  H26B 9579   4.992   5.877   8.273 -2.4314  0.7050 -1.1314
   96CHL1  H26C 9580   4.981   5.877   8.094 -1.4354 -1.7626  0.3556
   96CHL1   C27 9581   5.267   5.907   8.289 -0.2132  0.2907 -0.6295
   96CHL1  H27A 9582   5.237   5.957   8.383  0.9885  1.2460 -0.7210
   96CHL1  H27B 9583   5.267   5.797   8.302  0.7605  0.1204 -1.8330
   96CHL1  H27C 9584   5.376   5.928   8.279  0.1326 -0.0499  1.8776
   97OSM      N 9585   1.272   0.660  10.935  1.4121 -0.6256 -0.3015
   97OSM    C15 9586   1.325   0.796  10.977  0.7125 -0.7012  0.0948
   97OSM   H15A 9587   1.292   0.811  11.078  1.2860  1.0048  0.0532
   97OSM   H15B 9588   1.279   0.874  10.919 -0.0455 -0.6146  0.7995
   97OSM   H15C 9589   1.433   0.806  10.976  0.8305 -1.6406  1.1171
   97OSM    C14 9590   1.312   0.634  10.794  0.3973  0.0332 -0.5279
   97OSM   H14A 9591   1.252   0.696  10.728 -0.2382 -1.1653 -1.1132
   97OSM   H14B 9592   1.301   0.527  10.780 -0.2423 -0.4264  2.7266
   97OSM   H14C 9593   1.418   0.651  10.784  0.4735  0.4976  0.9062
   97OSM    C13 9594   1.331   0.563  11.028 -0.2935  0.3379  0.0854
   97OSM   H13A 9595   1.287   0.464  11.024  2.7042 -1.1844  1.2598
   97OSM   H13B 9596   1.326   0.601  11.129 -2.8182  0.6096 -0.0807
   97OSM   H13C 9597   1.434   0.531  11.016  0.1034  0.4750  2.4978
   97OSM    C12 9598   1.121   0.648  10.956 -0.0083  0.1615 -0.2306
   97OSM   H12A 9599   1.099   0.678  11.057  1.5235  4.1663 -0.9166
   97OSM   H12B 9600   1.083   0.547  10.948  0.5803 -0.1050  0.1984
   97OSM    C11 9601   1.040   0.734  10.860 -1.0813 -0.3568  0.8147
   97OSM   H11A 9602   0.938   0.691  10.852 -0.9849 -0.2830 -2.0623
   97OSM   H11B 9603   1.084   0.745  10.758 -1.1455 -1.8213  0.6037
   97OSM      P 9604   0.934   0.945  10.981  0.5460  0.0196 -0.0014
   97OSM    O13 9605   0.874   0.860  11.083 -0.5921  0.1921 -0.1989
   97OSM    O14 9606   0.982   1.083  11.014  0.2235 -0.3391 -0.2040
   97OSM    O11 9607   0.832   0.954  10.856 -0.1136 -0.9177 -0.4527
   97OSM    O12 9608   1.055   0.871  10.907 -0.3702 -0.1600  0.1192
   97OSM    C1S 9609   0.866   1.028  10.737 -0.3498 -0.0277 -0.4286
   97OSM    H1S 9610   0.976   1.039  10.731 -0.1925  1.5977  2.8953
   97OSM    H1T 9611   0.827   1.132  10.743  0.6697  0.4777 -2.1301
   97OSM     NF 9612   0.878   0.986  10.490  0.1906 -0.3299  0.0449
   97OSM    HNF 9613   0.824   1.053  10.439  0.3135  0.5996  1.0844
   97OSM    C2S 9614   0.815   0.950  10.607  0.7355  0.1669 -1.2078
   97OSM    H2S 9615   0.842   0.844  10.625 -0.0109  0.2220  0.4137
   97OSM    C3S 9616   0.658   0.959  10.601  0.1357  0.0610 -0.1064
   97OSM    H3S 9617   0.628   1.058  10.561 -1.6118 -0.3422  0.1539
   97OSM     O3 9618   0.593   0.935  10.718  0.3156 -0.0157  0.5650
   97OSM    HO3 9619   0.663   0.934  10.784  1.3547 -0.2184 -0.5172
   97OSM    C4S 9620   0.598   0.856  10.499 -0.1091 -0.3740 -0.2565
   97OSM    H4S 9621   0.556   0.916  10.418  1.2479 -0.5037 -1.0811
   97OSM    C5S 9622   0.574   0.725  10.503 -0.0882 -0.0956 -1.2369
   97OSM    H5S 9623   0.610   0.666  10.589 -0.6729 -0.5175 -1.2811
   97OSM    C6S 9624   0.501   0.655  10.394  0.6644  0.5339  0.9487
   97OSM    H6S 9625   0.403   0.614  10.427 -0.5961  1.9107 -0.8916
   97OSM    H6T 9626   0.566   0.567  10.376 -1.8763 -1.2307 -0.1236
   97OSM    C7S 9627   0.471   0.714  10.253  0.0177  0.0331  0.1227
   97OSM    H7S 9628   0.559   0.772  10.220  0.0088 -0.6431 -1.1559
   97OSM    H7T 9629   0.388   0.787  10.260  0.1111  0.3132 -1.3838
   97OSM    C8S 9630   0.448   0.602  10.148  0.2492 -0.9025  1.0516
   97OSM    H8S 9631   0.360   0.541  10.177 -0.2750 -1.5218 -1.6334
   97OSM    H8T 9632   0.534   0.535  10.126 -0.1979 -1.3365  0.6092
   97OSM    C9S 9633   0.406   0.678  10.023  0.2199  0.0137  0.4991
   97OSM    H9S 9634   0.487   0.754  10.016 -1.2663  1.7126  0.9610
   97OSM    H9T 9635   0.319   0.748  10.024 -0.6260 -1.0092  0.0267
   97OSM   C10S 9636   0.407   0.571   9.916 -0.2436  0.5132 -0.3635
   97OSM   H10S 9637   0.316   0.507   9.926 -0.7170  1.0104 -1.3482
   97OSM   H10T 9638   0.507   0.523   9.922  0.8114  2.7033  0.8230
   97OSM   C11S 9639   0.398   0.629   9.777  0.5840 -0.4952 -0.0554
   97OSM   H11S 9640   0.470   0.713   9.775  0.3871 -0.2574  1.5248
   97OSM   H11T 9641   0.301   0.679   9.753  1.4771  0.8810 -1.0105
   97OSM   C12S 9642   0.441   0.521   9.679  0.0108  0.8550  0.0615
   97OSM   H12S 9643   0.393   0.426   9.711  1.8299  0.1323  0.8018
   97OSM   H12T 9644   0.550   0.509   9.696  0.2220  1.3849 -0.8746
   97OSM   C13S 9645   0.415   0.556   9.529 -0.6539 -0.2848  0.8204
   97OSM   H13S 9646   0.454   0.658   9.508 -0.9894 -0.6706 -2.0278
   97OSM   H13T 9647   0.306   0.568   9.511 -1.2427 -3.1115  1.8920
   97OSM   C14S 9648   0.476   0.454   9.432 -0.5623  0.7578 -0.1068
   97OSM   H14S 9649   0.429   0.357   9.459  0.3966  0.2353 -0.2588
   97OSM   H14T 9650   0.583   0.456   9.462 -0.5132  1.1669 -0.3087
   97OSM   C15S 9651   0.453   0.484   9.280 -0.7078 -0.3310 -0.9388
   97OSM   H15S 9652   0.485   0.588   9.260 -1.6645  0.2469  0.3981
   97OSM   H15T 9653   0.344   0.473   9.263 -0.8050 -0.6911 -0.1136
   97OSM   C16S 9654   0.539   0.396   9.193 -0.1676  1.2408 -0.0575
   97OSM   H16S 9655   0.500   0.292   9.195 -0.0960  1.1869  2.6889
   97OSM   H16T 9656   0.641   0.410   9.235 -0.9317  3.2569  1.2617
   97OSM   C17S 9657   0.553   0.468   9.058  0.0014 -0.2122 -0.4563
   97OSM   H17S 9658   0.624   0.412   8.994  1.9503 -0.4337  1.7714
   97OSM   H17T 9659   0.606   0.565   9.070  0.8534 -0.7656  0.3961
   97OSM   C18S 9660   0.413   0.485   9.004  0.4330  0.4965  0.2068
   97OSM   H18S 9661   0.429   0.508   8.897  0.3158  2.6197  0.5966
   97OSM   H18T 9662   0.356   0.569   9.050 -2.4097  0.3321 -2.6465
   97OSM   H18U 9663   0.358   0.389   9.007 -0.5333  0.9886 -1.1405
   97OSM    C1F 9664   1.002   0.965  10.447 -0.3252  0.4681 -0.4252
   97OSM     OF 9665   1.083   0.902  10.508  0.1055  0.4956 -0.1530
   97OSM    C2F 9666   1.050   1.026  10.317  0.5021  0.3996  0.6149
   97OSM    H2F 9667   1.025   1.134  10.313 -3.5445 -0.1897  3.6781
   97OSM    H2G 9668   0.999   0.971  10.235 -0.6654 -0.1380  1.6635
   97OSM    C3F 9669   1.202   1.025  10.301  0.5699  0.1741  0.1413
   97OSM    H3F 9670   1.246   0.925  10.318  1.6481  0.5223 -0.5063
   97OSM    H3G 9671   1.239   1.085  10.386  0.0168  0.0119  0.5017
   97OSM    C4F 9672   1.254   1.097  10.173  0.1585 -0.3468  0.4248
   97OSM    H4F 9673   1.354   1.140  10.190  0.6425 -0.7273 -1.2510
   97OSM    H4G 9674   1.181   1.173  10.136 -3.2036 -1.9349  3.1575
   97OSM    C5F 9675   1.259   0.992  10.060 -0.3349  0.0208 -0.2025
   97OSM    H5F 9676   1.158   0.951  10.039 -1.2091  0.6368  2.4323
   97OSM    H5G 9677   1.315   0.899  10.082 -0.5453 -0.1733 -0.4702
   97OSM    C6F 9678   1.311   1.049   9.922 -0.2231  0.5793 -0.4108
   97OSM    H6F 9679   1.414   1.086   9.938 -0.1543  0.0363  0.4415
   97OSM    H6G 9680   1.244   1.130   9.886  0.2047  0.7352 -0.8551
   97OSM    C7F 9681   1.327   0.929   9.826  0.3205 -0.0650 -0.6378
   97OSM    H7F 9682   1.243   0.857   9.832  0.9962 -0.7968  0.4450
   97OSM    H7G 9683   1.419   0.882   9.866  1.4971  2.7987  0.3330
   97OSM    C8F 9684   1.341   0.970   9.679  0.6234 -0.5221 -0.1951
   97OSM    H8F 9685   1.384   0.880   9.631  0.2703 -0.6532 -0.2694
   97OSM    H8G 9686   1.426   1.041   9.685  2.1979 -2.4112  1.1116
   97OSM    C9F 9687   1.221   1.032   9.611  0.0868 -1.0635 -0.2956
   97OSM    H9F 9688   1.194   1.128   9.658  1.2217  1.7036 -4.7278
   97OSM   C10F 9689   1.144   0.990   9.508 -0.0997  0.1770 -0.6562
   97OSM   H10F 9690   1.054   1.042   9.471  1.0502  3.0764  0.3528
   97OSM   C11F 9691   1.169   0.865   9.430  0.4600 -0.4231  0.2259
   97OSM   H11F 9692   1.078   0.807   9.402  1.0608 -0.1059 -2.7616
   97OSM   H11G 9693   1.228   0.799   9.497  0.0577 -0.0158  0.9975
   97OSM   C12F 9694   1.253   0.882   9.294  0.3539 -0.1982  0.0148
   97OSM   H12F 9695   1.359   0.900   9.322  0.6342 -0.6117 -0.7751
   97OSM   H12G 9696   1.219   0.971   9.237  0.5239 -0.8028 -1.0518
   97OSM   C13F 9697   1.246   0.766   9.199 -0.6334 -0.4427 -0.1477
   97OSM   H13F 9698   1.147   0.744   9.156 -1.0328 -0.7388  0.8891
   97OSM   H13G 9699   1.265   0.671   9.254 -1.7847 -0.4842  0.1874
   97OSM   C14F 9700   1.349   0.787   9.081 -0.6146 -0.0572  0.9850
   97OSM   H14F 9701   1.453   0.769   9.116 -0.1193  1.7721  0.5587
   97OSM   H14G 9702   1.343   0.887   9.034  2.9419 -0.7691 -1.3961
   97OSM   C15F 9703   1.334   0.694   8.958  0.1291 -0.7354  0.8168
   97OSM   H15F 9704   1.242   0.714   8.899  0.4979 -1.0206  0.1380
   97OSM   H15G 9705   1.322   0.591   8.998  1.0951 -2.1959 -2.3181
   97OSM   C16F 9706   1.456   0.701   8.864  0.7593 -0.0407 -0.1634
   97OSM   H16F 9707   1.551   0.667   8.911  0.1427  0.0903  1.2048
   97OSM   H16G 9708   1.467   0.804   8.823  0.0536 -0.1047 -0.5267
   97OSM   C17F 9709   1.450   0.620   8.728  0.5612 -0.5217 -0.0072
   97OSM   H17F 9710   1.546   0.628   8.673  0.8484 -0.1240  0.5381
   97OSM   H17G 9711   1.378   0.674   8.663  0.7206 -2.7913 -2.2230
   97OSM   C18F 9712   1.412   0.474   8.733  0.0381  0.2139 -0.4890
   97OSM   H18F 9713   1.489   0.403   8.771  1.1285  1.4266 -0.3670
   97OSM   H18G 9714   1.381   0.442   8.631  0.8021 -0.5281 -0.5007
   97OSM   H18H 9715   1.318   0.462   8.790  0.5880 -1.6851  0.1037
   98OSM      N 9716   6.320   1.569  10.906  0.4361  0.3422 -1.2411
   98OSM    C15 9717   6.306   1.672  11.021 -0.3005 -0.1425  0.7287
   98OSM   H15A 9718   6.231   1.645  11.094 -1.8821  2.3272  0.1309
   98OSM   H15B 9719   6.278   1.764  10.973 -1.4697 -1.5884 -1.5497
   98OSM   H15C 9720   6.402   1.689  11.067  0.6956  2.3981 -1.9772
   98OSM    C14 9721   6.188   1.553  10.837 -0.0114 -0.6003 -0.1709
   98OSM   H14A 9722   6.113   1.525  10.910  0.3752 -0.6536  0.2136
   98OSM   H14B 9723   6.199   1.475  10.764 -1.6511 -1.2897  0.2987
   98OSM   H14C 9724   6.153   1.646  10.795  1.7159  0.2730  0.1947
   98OSM    C13 9725   6.414   1.624  10.802  0.0010 -0.1450 -0.2685
   98OSM   H13A 9726   6.398   1.570  10.709 -0.8669  0.5801 -0.5560
   98OSM   H13B 9727   6.518   1.605  10.823 -0.2316  1.8935  3.4524
   98OSM   H13C 9728   6.401   1.730  10.791  0.3721  0.0746  1.3004
   98OSM    C12 9729   6.374   1.443  10.962  0.4356  0.1377 -0.0850
   98OSM   H12A 9730   6.303   1.397  11.029 -1.1849  1.2620 -0.9477
   98OSM   H12B 9731   6.465   1.462  11.017 -0.4944 -0.1674  1.6513
   98OSM    C11 9732   6.387   1.330  10.863 -0.3433  0.1022  0.2343
   98OSM   H11A 9733   6.434   1.240  10.909 -1.5715 -1.4666 -1.4431
   98OSM   H11B 9734   6.464   1.361  10.789 -0.6864 -0.7165 -0.4881
   98OSM      P 9735   6.181   1.175  10.888 -0.1106  0.3037  0.0756
   98OSM    O13 9736   6.205   1.197  11.035 -0.3590  0.6993  0.2930
   98OSM    O14 9737   6.041   1.187  10.843 -0.1782  0.0022 -0.0354
   98OSM    O11 9738   6.245   1.039  10.848  0.1934  0.9710 -0.8248
   98OSM    O12 9739   6.267   1.277  10.804  0.1694  0.3008  0.1806
   98OSM    C1S 9740   6.227   0.978  10.720 -0.9612  0.1615  0.1952
   98OSM    H1S 9741   6.146   1.022  10.659  2.0667  0.9311 -3.6832
   98OSM    H1T 9742   6.206   0.868  10.721  1.2806 -0.3104  0.3740
   98OSM     NF 9743   6.317   0.941  10.492  0.2369 -0.3144  0.2711
   98OSM    HNF 9744   6.304   0.843  10.480  0.3695 -0.1651 -1.2668
   98OSM    C2S 9745   6.356   0.972  10.631 -0.1825  0.6205 -0.0105
   98OSM    H2S 9746   6.391   1.077  10.627 -1.8475  1.1730 -2.1130
   98OSM    C3S 9747   6.464   0.873  10.698  0.4591  0.5030  0.1883
   98OSM    H3S 9748   6.429   0.770  10.721 -0.3685  1.0681  1.6521
   98OSM     O3 9749   6.502   0.923  10.830  0.1365 -0.1270 -0.4629
   98OSM    HO3 9750   6.427   0.979  10.850 -0.1572 -0.1103 -1.5630
   98OSM    C4S 9751   6.586   0.858  10.611  0.0654 -0.2780 -0.9424
   98OSM    H4S 9752   6.609   0.754  10.583 -0.8452 -0.3907 -1.3297
   98OSM    C5S 9753   6.665   0.962  10.582 -0.0527  0.3771 -0.1811
   98OSM    H5S 9754   6.646   1.065  10.616  0.8680  0.1826  1.0086
   98OSM    C6S 9755   6.792   0.966  10.500 -0.1544  0.5643 -0.1611
   98OSM    H6S 9756   6.882   0.961  10.565 -0.5319 -1.3562  0.2629
   98OSM    H6T 9757   6.781   1.061  10.443  0.1708  0.4509 -0.4133
   98OSM    C7S 9758   6.813   0.847  10.409  0.1031 -0.5921  0.6480
   98OSM    H7S 9759   6.815   0.759  10.476 -0.6290 -2.3084 -1.4443
   98OSM    H7T 9760   6.914   0.855  10.365  0.3976 -0.0744  1.4168
   98OSM    C8S 9761   6.713   0.843  10.297 -0.1352  0.9893 -0.2281
   98OSM    H8S 9762   6.723   0.938  10.240  0.5304  0.6215 -0.7419
   98OSM    H8T 9763   6.608   0.835  10.333  0.4775 -0.8662  1.3620
   98OSM    C9S 9764   6.732   0.722  10.200  0.8090  0.4063 -0.6207
   98OSM    H9S 9765   6.661   0.732  10.116 -2.9217 -0.3224  2.1893
   98OSM    H9T 9766   6.703   0.630  10.255  2.1376 -1.4225 -2.8040
   98OSM   C10S 9767   6.869   0.698  10.131  0.1527 -0.1881 -0.0124
   98OSM   H10S 9768   6.931   0.645  10.207 -2.7761  0.3662  2.9845
   98OSM   H10T 9769   6.913   0.798  10.109  0.9614 -0.6862 -0.7444
   98OSM   C11S 9770   6.849   0.613  10.005  0.2495  0.3417 -0.2344
   98OSM   H11S 9771   6.782   0.528  10.027 -0.2538  0.7853 -0.0364
   98OSM   H11T 9772   6.948   0.569   9.977 -0.3255 -1.0662 -0.1417
   98OSM   C12S 9773   6.799   0.694   9.886 -0.2235 -0.2009  0.2564
   98OSM   H12S 9774   6.860   0.785   9.871  0.6388 -0.5296  1.6417
   98OSM   H12T 9775   6.694   0.722   9.908 -1.0304 -1.5678 -1.5086
   98OSM   C13S 9776   6.812   0.607   9.758 -0.3779 -0.2118 -0.0527
   98OSM   H13S 9777   6.745   0.519   9.768 -2.1789  1.1990  0.8696
   98OSM   H13T 9778   6.920   0.578   9.756  0.1883  1.7683 -0.3157
   98OSM   C14S 9779   6.770   0.671   9.621  0.1062  0.3017 -0.7341
   98OSM   H14S 9780   6.823   0.769   9.615 -0.6282  0.6489 -1.8089
   98OSM   H14T 9781   6.662   0.690   9.608 -0.1872 -0.0040  0.9891
   98OSM   C15S 9782   6.828   0.590   9.500  0.4951 -0.3517 -0.5786
   98OSM   H15S 9783   6.784   0.492   9.528  0.0260 -0.0404 -0.2060
   98OSM   H15T 9784   6.939   0.584   9.502  0.4376 -1.8947 -0.8554
   98OSM   C16S 9785   6.766   0.635   9.373 -0.6973 -0.4086  0.2334
   98OSM   H16S 9786   6.802   0.740   9.370  1.4363 -1.1060 -0.2132
   98OSM   H16T 9787   6.656   0.625   9.375 -0.8014  0.0845 -1.5081
   98OSM   C17S 9788   6.812   0.566   9.246 -0.4287  0.1883 -0.6217
   98OSM   H17S 9789   6.794   0.459   9.266 -0.9795  0.5450  0.9750
   98OSM   H17T 9790   6.921   0.586   9.246 -0.6702  1.6566 -1.1491
   98OSM   C18S 9791   6.730   0.600   9.128  0.2112  0.5577 -0.3432
   98OSM   H18S 9792   6.737   0.709   9.108  1.1960  0.1297 -2.6059
   98OSM   H18T 9793   6.623   0.572   9.140  0.4970 -0.1411  0.6886
   98OSM   H18U 9794   6.767   0.530   9.050 -1.3137 -1.1955  0.4318
   98OSM    C1F 9795   6.256   1.028  10.409  0.1735 -0.3353  0.2198
   98OSM     OF 9796   6.255   1.152  10.422 -0.1988  0.6842  0.0109
   98OSM    C2F 9797   6.190   0.974  10.288 -0.1129  0.3192  0.4321
   98OSM    H2F 9798   6.123   1.052  10.247  0.3936  0.0823 -0.8934
   98OSM    H2G 9799   6.143   0.880  10.323  3.2743 -0.6962  2.8003
   98OSM    C3F 9800   6.296   0.941  10.180 -0.2220  0.2285 -0.5446
   98OSM    H3F 9801   6.372   0.872  10.223 -1.3151  0.2976  1.6436
   98OSM    H3G 9802   6.340   1.036  10.144 -0.1678 -0.0743 -1.3043
   98OSM    C4F 9803   6.244   0.877  10.053  0.1636 -0.0145 -0.4468
   98OSM    H4F 9804   6.171   0.944  10.003  0.1260  1.2512  1.2308
   98OSM    H4G 9805   6.200   0.777  10.074 -0.2283  0.2324 -0.0656
   98OSM    C5F 9806   6.356   0.857   9.946 -0.1126 -0.3322 -0.2829
   98OSM    H5F 9807   6.444   0.807   9.992  0.3839  2.0970  1.6792
   98OSM    H5G 9808   6.391   0.960   9.924  0.8687  0.5594  4.3099
   98OSM    C6F 9809   6.308   0.787   9.816  0.2191 -0.0160  0.1257
   98OSM    H6F 9810   6.235   0.850   9.761  0.9921  2.2996  1.6315
   98OSM    H6G 9811   6.252   0.694   9.843 -1.8076  0.9432 -0.5673
   98OSM    C7F 9812   6.428   0.750   9.726 -0.8087  0.0818  0.1968
   98OSM    H7F 9813   6.486   0.678   9.787 -1.1663  0.0673  0.5204
   98OSM    H7G 9814   6.503   0.830   9.712  0.3369 -0.8315  0.8927
   98OSM    C8F 9815   6.386   0.690   9.591  0.4910  0.2268  0.7474
   98OSM    H8F 9816   6.321   0.607   9.626  0.6489 -0.6080 -0.8632
   98OSM    H8G 9817   6.464   0.628   9.543  0.5114  0.3427  0.6302
   98OSM    C9F 9818   6.327   0.786   9.498  0.9211  0.4417  0.8062
   98OSM    H9F 9819   6.336   0.894   9.517 -0.7372  0.7026  0.3343
   98OSM   C10F 9820   6.260   0.737   9.384 -0.7227 -0.2991  0.0279
   98OSM   H10F 9821   6.214   0.807   9.313  4.3024  0.2593 -3.1840
   98OSM   C11F 9822   6.237   0.594   9.340 -0.7103  0.3604 -0.2436
   98OSM   H11F 9823   6.132   0.573   9.311 -0.2299 -2.9592 -0.0282
   98OSM   H11G 9824   6.262   0.520   9.420 -0.8497  1.2705  0.6619
   98OSM   C12F 9825   6.323   0.545   9.218 -0.2421 -0.4450  0.2847
   98OSM   H12F 9826   6.281   0.455   9.168 -0.9186  0.2792 -0.5054
   98OSM   H12G 9827   6.421   0.518   9.263 -0.1440 -0.2197  0.2094
   98OSM   C13F 9828   6.342   0.653   9.109 -0.4413 -0.4236  0.1654
   98OSM   H13F 9829   6.439   0.703   9.124  0.0587 -0.7693 -1.7092
   98OSM   H13G 9830   6.260   0.728   9.112  0.0507  0.1690 -0.7895
   98OSM   C14F 9831   6.359   0.590   8.966 -0.1092 -0.3197  0.3747
   98OSM   H14F 9832   6.272   0.526   8.942 -0.5898 -0.0584  1.3735
   98OSM   H14G 9833   6.448   0.523   8.975  0.2060 -0.0209 -0.4614
   98OSM   C15F 9834   6.372   0.691   8.844 -0.3371 -0.3372  0.3478
   98OSM   H15F 9835   6.449   0.765   8.876 -2.0851  1.2445  1.0717
   98OSM   H15G 9836   6.280   0.753   8.850  0.5403  1.2733 -1.6892
   98OSM   C16F 9837   6.403   0.645   8.696 -0.0059 -0.1545  0.3633
   98OSM   H16F 9838   6.504   0.599   8.694  0.3351  0.5883 -0.7517
   98OSM   H16G 9839   6.411   0.740   8.638  1.7754  0.2649  1.1933
   98OSM   C17F 9840   6.301   0.556   8.620 -0.4721 -0.0090 -0.3849
   98OSM   H17F 9841   6.201   0.603   8.633 -1.1165 -1.7505  1.3319
   98OSM   H17G 9842   6.302   0.458   8.672  1.8446 -0.3109 -0.9017
   98OSM   C18F 9843   6.345   0.540   8.472 -0.0601 -0.6687  0.3941
   98OSM   H18F 9844   6.282   0.467   8.418  1.6017 -0.1825 -2.4118
   98OSM   H18G 9845   6.452   0.512   8.458 -0.0670 -0.1533 -0.8372
   98OSM   H18H 9846   6.335   0.642   8.429 -3.5149  0.1033  2.6650
   99OSM      N 9847   1.914   3.054  11.033  0.3543 -0.5581  0.0316
   99OSM    C15 9848   1.912   2.908  11.055  0.6398  0.2559  0.2890
   99OSM   H15A 9849   1.982   2.849  10.998 -0.4327  0.2858 -1.1181
   99OSM   H15B 9850   1.819   2.868  11.018  0.5496 -0.1235  0.9156
   99OSM   H15C 9851   1.905   2.889  11.161 -1.3850  3.2489  0.8200
   99OSM    C14 9852   1.825   3.106  11.138  1.0330 -0.0790 -0.2779
   99OSM   H14A 9853   1.839   3.210  11.162 -4.2423  0.8538 -0.0104
   99OSM   H14B 9854   1.843   3.054  11.231  1.8698 -0.9717 -0.9144
   99OSM   H14C 9855   1.720   3.108  11.114  1.0299  1.8532 -0.2363
   99OSM    C13 9856   2.052   3.101  11.064 -0.4090 -0.6043  0.0824
   99OSM   H13A 9857   2.121   3.062  10.991 -3.3022 -1.5367 -2.3676
   99OSM   H13B 9858   2.088   3.063  11.158  0.9760  1.1340  0.3037
   99OSM   H13C 9859   2.069   3.207  11.055  0.6037 -0.7200  0.5328
   99OSM    C12 9860   1.875   3.088  10.888  0.4569 -0.4147  0.4838
   99OSM   H12A 9861   1.872   3.196  10.886  1.5464 -0.3525  1.5016
   99OSM   H12B 9862   1.774   3.054  10.870  0.3106 -1.1781  2.5178
   99OSM    C11 9863   1.963   3.036  10.775  0.2015  0.3413 -0.3510
   99OSM   H11A 9864   2.068   3.055  10.805 -0.3762  3.0471  0.2915
   99OSM   H11B 9865   1.936   3.091  10.683 -0.9642 -1.1095 -0.9126
   99OSM      P 9866   1.805   2.843  10.687 -0.0581 -0.2864 -0.3119
   99OSM    O13 9867   1.782   2.711  10.744 -0.1029  0.3839 -0.2537
   99OSM    O14 9868   1.694   2.937  10.715 -0.8964 -0.3203 -0.6528
   99OSM    O11 9869   1.841   2.827  10.538 -0.2795 -0.0756 -0.4476
   99OSM    O12 9870   1.947   2.895  10.755 -0.6766 -0.1254  0.5999
   99OSM    C1S 9871   1.912   2.922  10.458  0.1923  0.1566  0.1121
   99OSM    H1S 9872   2.019   2.928  10.487  0.2946  2.2647 -0.5098
   99OSM    H1T 9873   1.880   3.028  10.471  0.6263  0.1022  1.8688
   99OSM     NF 9874   2.000   2.958  10.234  0.3168  0.2135 -0.1705
   99OSM    HNF 9875   1.958   3.035  10.186  0.9966 -0.7096 -2.3910
   99OSM    C2S 9876   1.897   2.881  10.304 -0.6246 -0.1968 -0.3452
   99OSM    H2S 9877   1.916   2.771  10.295 -1.6686 -0.4197  0.0448
   99OSM    C3S 9878   1.746   2.892  10.256 -0.3829 -0.3806 -0.7140
   99OSM    H3S 9879   1.724   3.001  10.261  1.5826  0.0167  0.2555
   99OSM     O3 9880   1.655   2.825  10.341  0.1724 -0.2898  0.7923
   99OSM    HO3 9881   1.711   2.796  10.414  1.1334 -0.9588 -0.1705
   99OSM    C4S 9882   1.749   2.854  10.107  0.2717  1.0210  0.3269
   99OSM    H4S 9883   1.806   2.915  10.036  0.2180 -1.4212 -2.0158
   99OSM    C5S 9884   1.695   2.745  10.051  0.1847 -0.1780 -0.4213
   99OSM    H5S 9885   1.635   2.679  10.115  1.6499  0.9203  2.2469
   99OSM    C6S 9886   1.690   2.710   9.909  0.0110 -0.0778  0.1833
   99OSM    H6S 9887   1.591   2.687   9.865  0.1387 -1.8470  0.7349
   99OSM    H6T 9888   1.751   2.617   9.895 -2.1657 -1.5944  0.2823
   99OSM    C7S 9889   1.753   2.805   9.803  0.1166 -0.2740  0.2359
   99OSM    H7S 9890   1.857   2.833   9.829 -0.0028  2.2283 -1.6798
   99OSM    H7T 9891   1.708   2.906   9.819 -1.9466 -1.2819  1.2401
   99OSM    C8S 9892   1.718   2.766   9.658  0.7653  0.5327 -0.4962
   99OSM    H8S 9893   1.608   2.770   9.644  0.4957 -2.9578 -0.2281
   99OSM    H8T 9894   1.742   2.660   9.632 -0.7630  0.6422 -2.6386
   99OSM    C9S 9895   1.792   2.851   9.558  0.1114  0.5218 -0.2594
   99OSM    H9S 9896   1.900   2.826   9.564 -0.3372 -1.4837 -0.0182
   99OSM    H9T 9897   1.781   2.958   9.586  0.1176  0.9138 -1.7113
   99OSM   C10S 9898   1.758   2.835   9.406  0.1666  0.4021  0.0256
   99OSM   H10S 9899   1.648   2.825   9.396  0.2586 -0.4732 -0.2574
   99OSM   H10T 9900   1.804   2.736   9.382 -2.3340 -0.7386 -0.3388
   99OSM   C11S 9901   1.818   2.938   9.317  0.3942  0.2182  0.2998
   99OSM   H11S 9902   1.928   2.939   9.329  0.5865  0.5061 -1.2715
   99OSM   H11T 9903   1.782   3.036   9.355 -0.9780 -0.8667  1.9992
   99OSM   C12S 9904   1.768   2.923   9.173  0.4664  0.1876 -0.6953
   99OSM   H12S 9905   1.788   2.815   9.155  2.3753  0.7854 -2.5533
   99OSM   H12T 9906   1.662   2.953   9.163  0.8186  1.3359 -1.2169
   99OSM   C13S 9907   1.854   2.981   9.058  0.7708 -0.1370  0.0837
   99OSM   H13S 9908   1.929   2.909   9.020 -0.8240 -1.2314 -1.1522
   99OSM   H13T 9909   1.898   3.076   9.093 -1.1071  0.1213  1.9592
   99OSM   C14S 9910   1.770   3.030   8.934 -0.9045  0.0906 -0.0169
   99OSM   H14S 9911   1.692   3.100   8.971 -0.9175 -0.9054  1.9803
   99OSM   H14T 9912   1.733   2.945   8.872  0.3496 -0.5210  0.0377
   99OSM   C15S 9913   1.860   3.117   8.849 -0.2999  0.4195 -0.2268
   99OSM   H15S 9914   1.940   3.046   8.817 -0.0103  1.7937 -2.8694
   99OSM   H15T 9915   1.912   3.192   8.913  1.0349 -0.8117  0.1825
   99OSM   C16S 9916   1.795   3.189   8.726 -0.8829  0.5508  1.2276
   99OSM   H16S 9917   1.753   3.100   8.673  1.0820 -0.5163  1.3722
   99OSM   H16T 9918   1.877   3.228   8.662 -0.1870 -2.0563  0.3925
   99OSM   C17S 9919   1.685   3.290   8.752  0.2149 -0.0192  0.0978
   99OSM   H17S 9920   1.719   3.386   8.795 -1.3047  0.0528  1.2166
   99OSM   H17T 9921   1.615   3.247   8.827  1.8308 -1.1267  1.0304
   99OSM   C18S 9922   1.604   3.326   8.625  0.4731  0.0021 -0.6565
   99OSM   H18S 9923   1.558   3.236   8.580  0.1010 -0.8471  1.3025
   99OSM   H18T 9924   1.667   3.370   8.545 -2.0097  0.5210 -2.4389
   99OSM   H18U 9925   1.532   3.405   8.657  0.5799 -0.0340 -0.3188
   99OSM    C1F 9926   2.132   2.924  10.218  0.3134 -0.2085 -0.2995
   99OSM     OF 9927   2.168   2.816  10.256 -0.0193  0.0022 -0.4916
   99OSM    C2F 9928   2.227   3.018  10.148  0.2091 -0.4298  0.1229
   99OSM    H2F 9929   2.295   3.036  10.234 -2.1767  3.0469  1.4889
   99OSM    H2G 9930   2.178   3.117  10.137  1.3571  0.0528 -0.9152
   99OSM    C3F 9931   2.283   2.957  10.019  0.2684  0.7400  0.7714
   99OSM    H3F 9932   2.352   2.871  10.035  0.1210  0.9498  2.8009
   99OSM    H3G 9933   2.202   2.915   9.956  0.7820  1.0220 -0.0931
   99OSM    C4F 9934   2.367   3.052   9.932 -0.7588  0.0442 -0.4899
   99OSM    H4F 9935   2.432   3.009   9.852  0.7809 -0.8135  1.1442
   99OSM    H4G 9936   2.440   3.106   9.996 -1.1883 -2.9599  2.8986
   99OSM    C5F 9937   2.292   3.164   9.857 -1.0342 -0.2908  0.1673
   99OSM    H5F 9938   2.355   3.213   9.780  1.1495  0.7115  2.4504
   99OSM    H5G 9939   2.276   3.244   9.933 -0.7692  0.1706 -0.2597
   99OSM    C6F 9940   2.156   3.113   9.803 -1.0269 -0.6914 -0.0469
   99OSM    H6F 9941   2.097   3.088   9.894 -0.3251  0.2448  0.6872
   99OSM    H6G 9942   2.162   3.027   9.733 -1.4826 -0.2832 -0.6014
   99OSM    C7F 9943   2.077   3.222   9.725 -0.1225 -1.1107 -0.0275
   99OSM    H7F 9944   2.079   3.308   9.796 -0.8763 -0.8285 -0.3483
   99OSM    H7G 9945   1.971   3.190   9.720  0.1487 -1.8829 -1.5532
   99OSM    C8F 9946   2.130   3.266   9.588 -0.5167  0.5684 -0.3623
   99OSM    H8F 9947   2.229   3.314   9.600 -0.4810  1.3110 -3.0629
   99OSM    H8G 9948   2.065   3.346   9.547 -4.3062 -1.3837  1.2967
   99OSM    C9F 9949   2.139   3.148   9.491  0.7049 -0.7889 -0.5465
   99OSM    H9F 9950   2.047   3.090   9.486  0.2274 -0.0309 -0.7217
   99OSM   C10F 9951   2.247   3.123   9.412  0.1494 -0.2438  0.0157
   99OSM   H10F 9952   2.253   3.036   9.345  2.4572  0.9268 -1.4438
   99OSM   C11F 9953   2.368   3.210   9.405 -0.4697 -0.4737  0.9437
   99OSM   H11F 9954   2.452   3.173   9.469 -1.5275 -3.6293  0.6834
   99OSM   H11G 9955   2.352   3.316   9.435  0.3184 -0.0133 -0.1658
   99OSM   C12F 9956   2.416   3.206   9.255  0.5765  0.4945 -0.0265
   99OSM   H12F 9957   2.480   3.119   9.231  1.7509  1.0512  0.9251
   99OSM   H12G 9958   2.489   3.291   9.257  1.2173 -0.0348 -0.5295
   99OSM   C13F 9959   2.306   3.234   9.142 -0.2595  0.4839  0.6648
   99OSM   H13F 9960   2.230   3.154   9.133  0.6566 -0.3476  0.1201
   99OSM   H13G 9961   2.356   3.246   9.043 -0.4682 -3.7184 -0.1192
   99OSM   C14F 9962   2.242   3.371   9.162 -0.6982  0.3882 -0.1205
   99OSM   H14F 9963   2.324   3.445   9.156 -1.2728  1.1723  1.2786
   99OSM   H14G 9964   2.192   3.381   9.261 -3.1354 -1.8329 -1.0057
   99OSM   C15F 9965   2.138   3.414   9.059 -0.8520 -0.7814 -0.1819
   99OSM   H15F 9966   2.109   3.514   9.098  0.2298 -1.2258  1.9219
   99OSM   H15G 9967   2.043   3.356   9.061 -2.2943  1.4492  1.6275
   99OSM   C16F 9968   2.183   3.412   8.909 -0.1958 -0.4802 -0.2668
   99OSM   H16F 9969   2.225   3.313   8.881  4.7535  1.0630  0.7473
   99OSM   H16G 9970   2.264   3.487   8.901 -2.1747  1.8412  0.4962
   99OSM   C17F 9971   2.071   3.452   8.817  0.0612  0.0784  0.5001
   99OSM   H17F 9972   2.055   3.554   8.859  1.7516  0.3965  0.4571
   99OSM   H17G 9973   1.979   3.390   8.824 -0.4831  0.7591 -0.4040
   99OSM   C18F 9974   2.096   3.468   8.667  0.1802  0.1267 -0.1397
   99OSM   H18F 9975   2.108   3.373   8.612  1.4239 -0.0108  0.3143
   99OSM   H18G 9976   2.191   3.520   8.640  0.1824 -0.2253 -0.8077
   99OSM   H18H 9977   2.002   3.507   8.624  1.0111 -0.1463 -2.3344
  100OSM      N 9978   4.071   3.530  10.956  0.3601  0.9745  0.2820
  100OSM    C15 9979   3.935   3.568  11.005 -0.6831 -0.3017 -0.3190
  100OSM   H15A 9980   3.939   3.618  11.101 -0.4315 -0.8849 -0.0261
  100OSM   H15B 9981   3.867   3.484  11.011 -0.6567 -0.2283  1.8828
  100OSM   H15C 9982   3.903   3.633  10.925  1.7127 -0.2147 -1.2781
  100OSM    C14 9983   4.159   3.655  10.959 -0.0917 -0.1557 -0.6829
  100OSM   H14A 9984   4.258   3.638  10.920  0.4133  1.4682 -0.1797
  100OSM   H14B 9985   4.159   3.701  11.057 -0.4444  0.8211 -1.1338
  100OSM   H14C 9986   4.115   3.738  10.907  0.6847  0.0859 -0.9708
  100OSM    C13 9987   4.122   3.425  11.051 -0.4162  0.2606 -0.1380
  100OSM   H13A 9988   4.211   3.373  11.020  0.8273  2.3224 -0.2381
  100OSM   H13B 9989   4.042   3.353  11.063 -1.5393  1.1945 -1.6521
  100OSM   H13C 9990   4.130   3.463  11.151 -0.5973  2.6990 -0.9782
  100OSM    C12 9991   4.070   3.474  10.815  0.2991 -0.8380  0.6259
  100OSM   H12A 9992   4.018   3.380  10.806 -0.9804  0.0107 -1.8365
  100OSM   H12B 9993   4.171   3.444  10.790  0.4521 -0.3998  0.7059
  100OSM    C11 9994   4.015   3.560  10.700 -0.2728  0.3008  0.2524
  100OSM   H11A 9995   4.050   3.509  10.608 -1.6151 -2.0430  0.9515
  100OSM   H11B 9996   4.072   3.655  10.699  0.1121  0.0824  0.7685
  100OSM      P 9997   3.791   3.437  10.652  0.1260  0.1088 -0.1246
  100OSM    O13 9998   3.812   3.325  10.747  0.2081 -0.1361  0.4150
  100OSM    O14 9999   3.650   3.477  10.629 -0.2989  0.1403 -0.1049
  100OSM    O1110000   3.856   3.396  10.515  0.0857  0.1202  0.1566
  100OSM    O1210001   3.868   3.566  10.694  0.0006 -0.1637 -0.8320
  100OSM    C1S10002   3.827   3.450  10.386  0.3015  0.3815  0.2783
  100OSM    H1S10003   3.803   3.558  10.395  1.7786  0.8227 -0.5667
  100OSM    H1T10004   3.739   3.401  10.340  0.4319 -0.5052  0.9568
  100OSM     NF10005   3.914   3.522  10.169 -0.1722  0.1806  0.3271
  100OSM    HNF10006   3.902   3.468  10.086 -0.0455 -0.2375  0.5785
  100OSM    C2S10007   3.943   3.442  10.293  0.5551 -0.0871  0.9853
  100OSM    H2S10008   4.025   3.502  10.337  0.5240 -0.5260  1.6578
  100OSM    C3S10009   3.987   3.294  10.261  0.2771 -0.1003  0.5370
  100OSM    H3S10010   3.918   3.250  10.186 -1.1242  0.1010  1.6853
  100OSM     O310011   3.977   3.195  10.361 -0.0497 -0.5372  0.1258
  100OSM    HO310012   3.942   3.244  10.435  0.9990  0.3665  0.0435
  100OSM    C4S10013   4.120   3.286  10.184 -0.0326 -0.4206  0.2520
  100OSM    H4S10014   4.107   3.235  10.087 -2.3253  1.2963 -0.4001
  100OSM    C5S10015   4.244   3.319  10.229  0.0812 -0.3525  1.2338
  100OSM    H5S10016   4.246   3.366  10.329 -0.4766  2.0199  0.1989
  100OSM    C6S10017   4.380   3.311  10.160 -0.6687 -0.1658 -0.9914
  100OSM    H6S10018   4.420   3.216  10.200 -1.7235  0.1747  0.9675
  100OSM    H6T10019   4.453   3.387  10.194 -0.3238 -1.0350  0.2759
  100OSM    C7S10020   4.373   3.300  10.011  0.9132  0.0927  0.9750
  100OSM    H7S10021   4.321   3.388   9.967 -1.6882 -0.7762  2.0974
  100OSM    H7T10022   4.313   3.211   9.980 -1.3712  1.3701  1.4857
  100OSM    C8S10023   4.512   3.297   9.942  0.8770 -0.3929 -1.1540
  100OSM    H8S10024   4.557   3.197   9.961  1.3421 -0.1053 -0.7084
  100OSM    H8T10025   4.584   3.367   9.989  0.3643 -1.0764  0.7512
  100OSM    C9S10026   4.503   3.323   9.791  0.0136  0.7822 -0.0959
  100OSM    H9S10027   4.429   3.256   9.741  0.7684  0.2940 -0.5843
  100OSM    H9T10028   4.609   3.295   9.771  0.4794  1.7944  0.8704
  100OSM   C10S10029   4.471   3.467   9.767 -0.2762  0.4594  0.1801
  100OSM   H10S10030   4.528   3.532   9.837 -0.0123 -0.8544  1.2123
  100OSM   H10T10031   4.365   3.499   9.777 -0.3182  0.9238 -1.4083
  100OSM   C11S10032   4.503   3.527   9.624  0.4253  0.2952 -0.0545
  100OSM   H11S10033   4.614   3.540   9.621  0.2139  5.4869  2.8826
  100OSM   H11T10034   4.484   3.636   9.628  0.3439  0.2856 -0.1538
  100OSM   C12S10035   4.454   3.454   9.494 -0.3781  0.2528 -1.0362
  100OSM   H12S10036   4.344   3.446   9.481 -0.2878 -3.2038 -0.4527
  100OSM   H12T10037   4.480   3.347   9.508  2.0033  0.4308 -3.3178
  100OSM   C13S10038   4.534   3.506   9.374 -0.4410 -1.0746  0.0056
  100OSM   H13S10039   4.642   3.481   9.382  0.2368  0.4397 -3.0128
  100OSM   H13T10040   4.544   3.616   9.386  0.3682 -0.9134 -1.7741
  100OSM   C14S10041   4.467   3.480   9.242  0.3749 -0.4347  0.0840
  100OSM   H14S10042   4.356   3.477   9.244  0.3809 -0.7172 -0.0596
  100OSM   H14T10043   4.491   3.376   9.212  0.2767 -0.9268  1.5914
  100OSM   C15S10044   4.514   3.576   9.130 -0.1868  0.5725 -0.4793
  100OSM   H15S10045   4.625   3.581   9.139 -0.1631  1.6640 -1.1532
  100OSM   H15T10046   4.468   3.676   9.150 -3.6633 -0.2571 -3.3455
  100OSM   C16S10047   4.479   3.523   8.988 -0.3158  0.0030 -0.6956
  100OSM   H16S10048   4.368   3.525   8.978 -0.4790 -2.2332  0.2279
  100OSM   H16T10049   4.502   3.415   8.975 -2.1808 -0.5795  0.4034
  100OSM   C17S10050   4.549   3.603   8.879  0.7359  0.6131  0.1358
  100OSM   H17S10051   4.656   3.581   8.899  0.2303 -1.4274  0.8107
  100OSM   H17T10052   4.532   3.713   8.891 -0.0275  0.4705  0.4314
  100OSM   C18S10053   4.496   3.564   8.743 -0.1592  0.2243  0.1254
  100OSM   H18S10054   4.508   3.454   8.733  1.0283  0.4114 -0.7531
  100OSM   H18T10055   4.561   3.612   8.667  0.1802 -0.8250 -0.2685
  100OSM   H18U10056   4.390   3.596   8.733 -1.0648 -2.9720 -2.0434
  100OSM    C1F10057   3.923   3.649  10.164  0.1711  0.3095 -0.1851
  100OSM     OF10058   3.975   3.711  10.251  0.1054 -0.6378 -0.1408
  100OSM    C2F10059   3.872   3.716  10.040  0.0546  0.5778  0.3502
  100OSM    H2F10060   3.810   3.802  10.072  0.8463  1.6353 -0.8308
  100OSM    H2G10061   3.814   3.635   9.990 -1.1807  1.3343  0.5211
  100OSM    C3F10062   3.990   3.757   9.954 -0.2816 -0.4193 -0.4692
  100OSM    H3F10063   4.068   3.679   9.939  1.3104  1.1867 -0.9019
  100OSM    H3G10064   4.050   3.840   9.996  0.3948 -0.4782 -1.2911
  100OSM    C4F10065   3.953   3.786   9.806  0.5288 -0.1369  0.0566
  100OSM    H4F10066   3.883   3.872   9.805 -1.6220 -1.7622 -2.7868
  100OSM    H4G10067   3.904   3.707   9.746  0.1957  1.1684 -1.4375
  100OSM    C5F10068   4.074   3.832   9.726  0.1919 -0.5325 -0.3299
  100OSM    H5F10069   4.152   3.753   9.730  0.6839 -0.0156  0.3684
  100OSM    H5G10070   4.102   3.928   9.773  1.9098 -0.6800 -0.9789
  100OSM    C6F10071   4.051   3.861   9.575 -0.1443  0.8478 -0.1733
  100OSM    H6F10072   3.951   3.906   9.561 -1.7753 -2.5103 -0.3930
  100OSM    H6G10073   4.034   3.760   9.531 -0.0428  0.7785 -0.0573
  100OSM    C7F10074   4.144   3.960   9.511 -0.0132 -0.3244 -0.5433
  100OSM    H7F10075   4.248   3.921   9.523  0.1259 -0.1536 -1.1790
  100OSM    H7G10076   4.138   4.059   9.560 -0.6843 -0.6754  0.1071
  100OSM    C8F10077   4.119   3.968   9.363 -0.1271 -0.7236  0.4798
  100OSM    H8F10078   4.175   4.059   9.337 -1.9137  1.1854  2.8387
  100OSM    H8G10079   4.010   3.979   9.343 -0.3874 -1.7267  1.2716
  100OSM    C9F10080   4.170   3.853   9.284 -0.1736  0.2995  0.6311
  100OSM    H9F10081   4.256   3.795   9.319  0.1851  0.1757 -0.4193
  100OSM   C10F10082   4.118   3.817   9.160 -0.3036  0.2707 -0.3164
  100OSM   H10F10083   4.174   3.736   9.112  1.0540  2.0832 -1.9729
  100OSM   C11F10084   4.004   3.883   9.081 -0.5120  0.3651 -0.0339
  100OSM   H11F10085   3.984   3.989   9.106  1.9943  1.0876 -0.8049
  100OSM   H11G10086   3.909   3.825   9.083 -0.2402 -0.1720 -1.3433
  100OSM   C12F10087   4.027   3.876   8.923  0.4609 -0.1854 -0.3555
  100OSM   H12F10088   4.125   3.920   8.893  0.6431 -0.2300  0.1661
  100OSM   H12G10089   3.950   3.938   8.874  0.2977  0.8952  1.2089
  100OSM   C13F10090   4.042   3.733   8.865  0.1592 -0.2740 -0.0081
  100OSM   H13F10091   3.944   3.682   8.880  1.1156 -2.1477  0.1415
  100OSM   H13G10092   4.109   3.669   8.926 -0.3450 -1.6470 -0.8529
  100OSM   C14F10093   4.079   3.732   8.718 -0.4759  0.4779  1.2151
  100OSM   H14F10094   4.175   3.784   8.695 -0.8229  0.5863 -0.0461
  100OSM   H14G10095   4.002   3.784   8.658  1.2031 -1.9917 -3.6523
  100OSM   C15F10096   4.086   3.586   8.660 -0.9153 -1.0220  0.7738
  100OSM   H15F10097   3.988   3.540   8.687 -0.0791 -3.0721  0.5019
  100OSM   H15G10098   4.161   3.519   8.708  1.7491  1.1654 -0.1031
  100OSM   C16F10099   4.098   3.596   8.510  0.8106 -0.0326 -0.2852
  100OSM   H16F10100   4.133   3.692   8.468 -0.0337  0.7383  0.7225
  100OSM   H16G10101   3.993   3.591   8.472  0.0262 -0.5183  1.7719
  100OSM   C17F10102   4.179   3.481   8.450  0.0807  0.2511 -0.5204
  100OSM   H17F10103   4.130   3.383   8.469  0.3168 -0.3629 -2.7689
  100OSM   H17G10104   4.280   3.489   8.498  0.1394  1.9351 -0.8683
  100OSM   C18F10105   4.201   3.490   8.296  0.0037 -0.3480 -0.5496
  100OSM   H18F10106   4.265   3.580   8.282 -1.8233  1.1603  0.2795
  100OSM   H18G10107   4.111   3.510   8.234  0.2987  1.2421 -0.5156
  100OSM   H18H10108   4.251   3.404   8.247  0.3362 -0.4421 -0.0584
  101OSM      N10109   5.201   1.818  10.884 -0.1026  0.3107 -0.2680
  101OSM    C1510110   5.176   1.954  10.945 -0.4834  0.8325 -0.3569
  101OSM   H15A10111   5.099   2.005  10.890 -0.7528 -1.4423 -2.2602
  101OSM   H15B10112   5.258   2.023  10.939 -0.1431  0.3734 -1.1360
  101OSM   H15C10113   5.140   1.949  11.047 -0.5963  0.6525 -0.4037
  101OSM    C1410114   5.076   1.739  10.867  0.3339  0.2456  0.1729
  101OSM   H14A10115   5.015   1.736  10.956  1.6676 -0.1788  1.1032
  101OSM   H14B10116   5.097   1.640  10.829  1.4384  1.6071 -3.1240
  101OSM   H14C10117   5.011   1.783  10.792  0.3358  0.3535  0.2352
  101OSM    C1310118   5.264   1.841  10.748  0.0215  0.0519  0.6928
  101OSM   H13A10119   5.295   1.746  10.706 -0.2624  0.6251 -0.8876
  101OSM   H13B10120   5.364   1.881  10.746  0.2175 -0.3850 -2.3802
  101OSM   H13C10121   5.209   1.896  10.674 -0.4198 -0.7065  0.4413
  101OSM    C1210122   5.297   1.736  10.979 -0.6708  0.8062  0.5253
  101OSM   H12A10123   5.237   1.704  11.063  0.8855 -0.1568  1.2973
  101OSM   H12B10124   5.375   1.802  11.013 -0.6672  1.5869 -0.9072
  101OSM    C1110125   5.361   1.607  10.913  0.1447  0.8002  0.4869
  101OSM   H11A10126   5.280   1.560  10.854  1.0819 -1.5781  0.9858
  101OSM   H11B10127   5.401   1.547  10.998  0.4625  0.8737  0.3905
  101OSM      P10128   5.599   1.702  10.874  0.0330 -0.3577 -0.2580
  101OSM    O1310129   5.567   1.813  10.962 -0.7932 -0.9103  0.4394
  101OSM    O1410130   5.687   1.588  10.933 -0.2868 -0.0985 -0.4105
  101OSM    O1110131   5.669   1.756  10.745 -0.0078 -0.3170 -0.7446
  101OSM    O1210132   5.460   1.637  10.822  0.0402 -0.0310 -0.0018
  101OSM    C1S10133   5.688   1.672  10.633  0.1555 -0.0061  0.0936
  101OSM    H1S10134   5.584   1.660  10.594 -0.0237 -1.6254  0.9833
  101OSM    H1T10135   5.715   1.571  10.669 -1.7232  0.6752  4.0139
  101OSM     NF10136   5.759   1.646  10.392 -0.4305  0.1660  0.1321
  101OSM    HNF10137   5.822   1.572  10.368 -1.9469 -0.8177 -0.9914
  101OSM    C2S10138   5.783   1.721  10.518  0.2526  0.1251 -0.0854
  101OSM    H2S10139   5.765   1.828  10.493  0.2998  0.0779 -0.3271
  101OSM    C3S10140   5.932   1.712  10.564  0.0193 -0.5896 -0.5708
  101OSM    H3S10141   5.962   1.605  10.562 -1.4937 -1.0602  0.3027
  101OSM     O310142   5.955   1.743  10.703 -0.0564 -0.5593 -0.3691
  101OSM    HO310143   5.872   1.762  10.747  0.0523  1.8881 -1.1052
  101OSM    C4S10144   6.016   1.799  10.477 -0.7370 -0.3521  0.3621
  101OSM    H4S10145   6.048   1.760  10.379  1.5645  0.6988  0.6068
  101OSM    C5S10146   6.042   1.931  10.494  0.5015  0.1641 -0.0571
  101OSM    H5S10147   5.987   1.977  10.577  0.2454  1.4915 -0.9442
  101OSM    C6S10148   6.116   2.018  10.401 -0.1587 -0.3357 -0.0767
  101OSM    H6S10149   6.219   2.037  10.437 -0.7145 -0.2624  1.5297
  101OSM    H6T10150   6.056   2.112  10.402 -0.9610 -0.7813  3.1963
  101OSM    C7S10151   6.136   1.973  10.245  0.6125  0.7012 -0.2937
  101OSM    H7S10152   6.196   1.880  10.251  0.6714  0.7451 -0.2097
  101OSM    H7T10153   6.212   2.046  10.211  3.7068 -1.3860  1.5986
  101OSM    C8S10154   6.016   1.960  10.149 -0.4446  0.3013 -0.4386
  101OSM    H8S10155   5.954   2.051  10.133 -1.8016 -0.7162 -1.1707
  101OSM    H8T10156   5.960   1.869  10.180 -0.7275  0.4742 -0.4442
  101OSM    C9S10157   6.065   1.924  10.009  0.3571 -0.6925 -0.3980
  101OSM    H9S10158   6.150   1.852  10.018  1.7584  0.9301  0.0629
  101OSM    H9T10159   6.124   2.007   9.964 -2.3585  0.6960 -1.5835
  101OSM   C10S10160   5.954   1.878   9.905  1.0596 -0.6774  0.1228
  101OSM   H10S10161   5.873   1.953   9.910  0.2182 -1.5268 -0.3716
  101OSM   H10T10162   5.920   1.784   9.955  0.1385 -0.5504 -0.2583
  101OSM   C11S10163   5.994   1.841   9.762 -1.0212 -0.2931 -0.9439
  101OSM   H11S10164   6.071   1.761   9.769 -0.3595  0.4620  3.2294
  101OSM   H11T10165   6.029   1.933   9.712 -1.5116  0.4925  0.1169
  101OSM   C12S10166   5.877   1.786   9.674  0.1399 -0.4187 -0.5732
  101OSM   H12S10167   5.799   1.865   9.668  1.2877  0.6508 -2.6222
  101OSM   H12T10168   5.835   1.694   9.720  0.3778 -0.2531 -0.0236
  101OSM   C13S10169   5.917   1.753   9.535 -0.0518 -0.0100 -0.6543
  101OSM   H13S10170   5.983   1.664   9.543  1.8872  1.1072 -2.8824
  101OSM   H13T10171   5.973   1.832   9.480 -1.8790  1.3808 -0.6060
  101OSM   C14S10172   5.800   1.721   9.448 -0.2007  0.2887  0.3696
  101OSM   H14S10173   5.720   1.796   9.467 -1.3883 -1.1873  1.4104
  101OSM   H14T10174   5.752   1.628   9.483  0.0413 -0.6515 -1.6449
  101OSM   C15S10175   5.835   1.710   9.296  0.1500  0.6001  0.5578
  101OSM   H15S10176   5.896   1.799   9.271 -0.0251  1.0246  1.6011
  101OSM   H15T10177   5.745   1.727   9.234  0.0600  0.9403  0.7816
  101OSM   C16S10178   5.899   1.578   9.251 -0.0538 -0.4231 -0.1381
  101OSM   H16S10179   5.828   1.494   9.267 -1.7521  1.2473  1.4949
  101OSM   H16T10180   5.981   1.549   9.321 -0.6099 -1.2604  0.1889
  101OSM   C17S10181   5.944   1.588   9.106 -0.8053 -0.1988 -0.0840
  101OSM   H17S10182   6.033   1.651   9.086 -0.4097 -1.2087 -1.6266
  101OSM   H17T10183   5.870   1.640   9.040  1.0218  3.3978  0.4111
  101OSM   C18S10184   6.000   1.459   9.041 -0.4965  0.0635  0.5335
  101OSM   H18S10185   5.934   1.370   9.049  0.1223 -0.5625 -0.9064
  101OSM   H18T10186   6.107   1.442   9.065  0.3280  1.1256 -2.0273
  101OSM   H18U10187   5.999   1.474   8.930 -1.0115  0.8124  0.6337
  101OSM    C1F10188   5.651   1.656  10.320 -0.3191  0.1453  0.4330
  101OSM     OF10189   5.549   1.698  10.370  0.2016  0.6623  0.6095
  101OSM    C2F10190   5.656   1.628  10.172 -0.1571  0.8601 -0.2033
  101OSM    H2F10191   5.656   1.518  10.158  2.0461  0.9854 -1.6809
  101OSM    H2G10192   5.740   1.682  10.122  0.6257 -0.8863 -0.8553
  101OSM    C3F10193   5.540   1.699  10.108  0.0920  0.1476  0.4139
  101OSM    H3F10194   5.543   1.810  10.107  2.4986  0.1616 -1.4847
  101OSM    H3G10195   5.441   1.670  10.146 -0.5074  2.1393  0.4964
  101OSM    C4F10196   5.544   1.666   9.962  0.3905 -0.2880  0.0349
  101OSM    H4F10197   5.580   1.562   9.950  1.6693  0.1363 -0.0093
  101OSM    H4G10198   5.618   1.733   9.914 -0.5110  0.0800 -0.8816
  101OSM    C5F10199   5.413   1.681   9.883 -0.2437 -0.5703  0.1273
  101OSM    H5F10200   5.363   1.771   9.923 -0.1126 -0.3282 -0.2453
  101OSM    H5G10201   5.351   1.591   9.901  1.4812 -1.3989  2.3946
  101OSM    C6F10202   5.429   1.702   9.736 -0.5706 -0.2262 -0.0255
  101OSM    H6F10203   5.489   1.795   9.733 -0.7895  0.0176  1.8598
  101OSM    H6G10204   5.499   1.626   9.695  1.4241  1.4087  0.1904
  101OSM    C7F10205   5.301   1.712   9.653 -0.3699  0.3699 -0.1160
  101OSM    H7F10206   5.252   1.805   9.689 -0.5258  1.5939 -3.1649
  101OSM    H7G10207   5.242   1.620   9.673  2.7123 -1.2458  2.4840
  101OSM    C8F10208   5.330   1.729   9.503  0.4518 -0.1016  0.7445
  101OSM    H8F10209   5.435   1.699   9.483  0.6720  1.8624 -1.4257
  101OSM    H8G10210   5.320   1.837   9.482  2.0947  0.5066  2.7599
  101OSM    C9F10211   5.230   1.658   9.415 -0.6181 -0.0599  0.5228
  101OSM    H9F10212   5.191   1.568   9.465  0.6504 -1.3546 -0.6994
  101OSM   C10F10213   5.170   1.684   9.297 -0.9075  0.0210 -0.6648
  101OSM   H10F10214   5.106   1.606   9.252  0.8019 -0.7781 -1.8403
  101OSM   C11F10215   5.202   1.809   9.221  0.2964  0.0894 -0.6855
  101OSM   H11F10216   5.253   1.883   9.286  1.8680 -1.7663  0.2847
  101OSM   H11G10217   5.102   1.853   9.199  0.7385  0.1868 -2.6833
  101OSM   C12F10218   5.267   1.798   9.074 -0.0968  0.4322 -0.2959
  101OSM   H12F10219   5.378   1.794   9.081  0.0435 -1.8475 -2.4451
  101OSM   H12G10220   5.238   1.892   9.022 -2.5291 -0.3169 -0.4205
  101OSM   C13F10221   5.241   1.667   8.995 -0.2202  0.2715 -0.4235
  101OSM   H13F10222   5.140   1.620   9.001 -0.5689  0.0618 -4.6779
  101OSM   H13G10223   5.306   1.588   9.039 -0.8430  0.8936  1.7471
  101OSM   C14F10224   5.271   1.695   8.854 -0.5510  0.0673  0.6286
  101OSM   H14F10225   5.354   1.766   8.836  0.7782 -1.6437 -0.3059
  101OSM   H14G10226   5.184   1.733   8.795 -0.4608 -0.7979 -0.0849
  101OSM   C15F10227   5.304   1.570   8.764 -0.1190 -0.2911 -0.6496
  101OSM   H15F10228   5.226   1.492   8.777  0.5406 -0.7079  1.1364
  101OSM   H15G10229   5.403   1.535   8.802  0.9731  2.1025 -1.0963
  101OSM   C16F10230   5.308   1.616   8.615  0.4884  0.9435 -0.0631
  101OSM   H16F10231   5.236   1.698   8.596 -1.2557 -0.7994 -1.3712
  101OSM   H16G10232   5.247   1.543   8.557  1.6758  0.3441 -0.5826
  101OSM   C17F10233   5.441   1.663   8.554  0.6805 -0.3559  0.3778
  101OSM   H17F10234   5.462   1.770   8.577 -1.9636  0.9017 -2.2903
  101OSM   H17G10235   5.423   1.669   8.444  1.8595  2.2516  0.2356
  101OSM   C18F10236   5.557   1.564   8.561  0.4011  0.1945  0.1769
  101OSM   H18F10237   5.586   1.530   8.663 -1.8900  1.9064  1.5108
  101OSM   H18G10238   5.644   1.604   8.506  1.0188 -1.6968 -0.2886
  101OSM   H18H10239   5.522   1.473   8.508 -1.5192  1.5684 -1.0440
  102OSM      N10240   6.691   5.230  10.853 -0.0996 -0.9026 -0.7563
  102OSM    C1510241   6.740   5.122  10.942  0.2327  0.1372 -0.8037
  102OSM   H15A10242   6.658   5.064  10.980 -0.8352  0.3263 -2.6599
  102OSM   H15B10243   6.804   5.169  11.015  2.0835 -1.6663 -1.1928
  102OSM   H15C10244   6.798   5.056  10.879  2.6352  1.9955 -0.6647
  102OSM    C1410245   6.582   5.188  10.767  0.1178  0.4903  0.0639
  102OSM   H14A10246   6.597   5.098  10.710 -2.6142  1.0840 -1.7821
  102OSM   H14B10247   6.567   5.253  10.682  0.1453 -1.5574 -1.5857
  102OSM   H14C10248   6.497   5.176  10.832  0.2982  2.5790  0.7604
  102OSM    C1310249   6.633   5.349  10.933 -0.0979  0.1855 -0.7672
  102OSM   H13A10250   6.595   5.420  10.861  2.5019  0.6865 -1.7775
  102OSM   H13B10251   6.719   5.391  10.983 -0.5134  2.7547 -2.0700
  102OSM   H13C10252   6.563   5.321  11.010 -0.2053  0.0307 -0.9194
  102OSM    C1210253   6.802   5.280  10.766  0.3120 -0.1026  0.7796
  102OSM   H12A10254   6.889   5.296  10.827  0.9747 -0.8773  0.0557
  102OSM   H12B10255   6.773   5.376  10.726 -0.2023 -0.8760 -0.8127
  102OSM    C1110256   6.844   5.186  10.647  0.1164  0.5511  0.2773
  102OSM   H11A10257   6.917   5.232  10.579  2.0983 -3.4115 -0.5977
  102OSM   H11B10258   6.760   5.157  10.581 -0.5164 -0.2383  1.3786
  102OSM      P10259   7.051   5.061  10.742 -0.6705 -0.1688  0.1790
  102OSM    O1310260   7.093   5.165  10.837  0.0686 -0.1452  0.4548
  102OSM    O1410261   7.088   4.920  10.777  0.1140  0.4179 -0.3068
  102OSM    O1110262   7.119   5.088  10.599  0.1230 -0.0866 -0.0865
  102OSM    O1210263   6.892   5.060  10.711 -0.1802 -0.1171  0.5687
  102OSM    C1S10264   7.093   5.021  10.483  0.2556  0.0892  0.1132
  102OSM    H1S10265   6.998   4.965  10.496 -0.9298  2.4761  3.2015
  102OSM    H1T10266   7.169   4.946  10.452 -0.3101  0.2819 -1.9084
  102OSM     NF10267   7.036   5.051  10.240 -0.2838  0.1667 -0.3576
  102OSM    HNF10268   7.095   4.990  10.188  1.2191  0.1967  1.2178
  102OSM    C2S10269   7.091   5.116  10.363 -0.1457  0.0434 -0.0244
  102OSM    H2S10270   7.029   5.203  10.396  0.2226  0.4457 -0.4007
  102OSM    C3S10271   7.228   5.180  10.345 -0.3015 -0.2336 -0.3033
  102OSM    H3S10272   7.303   5.104  10.314  1.1518  0.0676  2.1607
  102OSM     O310273   7.286   5.232  10.463  0.2817  0.0647  0.7375
  102OSM    HO310274   7.228   5.212  10.537  1.5610 -0.2895  1.6906
  102OSM    C4S10275   7.222   5.282  10.240 -0.6009  0.2577 -0.3460
  102OSM    H4S10276   7.121   5.310  10.208  0.1722  0.9899 -2.3497
  102OSM    C5S10277   7.328   5.335  10.179  0.2052 -0.2429 -0.1530
  102OSM    H5S10278   7.434   5.312  10.202 -0.0419 -0.3522  0.9137
  102OSM    C6S10279   7.311   5.453  10.080  0.0385  0.5030  0.4526
  102OSM    H6S10280   7.404   5.514  10.082  1.1508 -1.1023  0.0611
  102OSM    H6T10281   7.225   5.521  10.095  0.4451  1.2777 -0.5961
  102OSM    C7S10282   7.282   5.390   9.937 -0.3934  0.1134  0.1528
  102OSM    H7S10283   7.195   5.320   9.933  0.0268 -0.3742 -1.7794
  102OSM    H7T10284   7.372   5.331   9.910 -1.1325 -0.6186 -0.8009
  102OSM    C8S10285   7.249   5.504   9.833  0.3698 -0.2000 -0.5578
  102OSM    H8S10286   7.330   5.580   9.838 -0.0281  0.2195 -0.5088
  102OSM    H8T10287   7.160   5.561   9.866  0.6754  1.7334 -2.8118
  102OSM    C9S10288   7.230   5.457   9.684 -0.2563 -0.7687  0.3121
  102OSM    H9S10289   7.141   5.390   9.686 -1.2868  0.5439 -0.0592
  102OSM    H9T10290   7.319   5.394   9.661  0.1477  0.1708 -0.8041
  102OSM   C10S10291   7.220   5.582   9.594 -0.2336 -0.2462 -0.7376
  102OSM   H10S10292   7.235   5.667   9.664 -0.0279 -1.5465  0.8425
  102OSM   H10T10293   7.121   5.586   9.543  0.5095 -0.5276 -2.2546
  102OSM   C11S10294   7.338   5.588   9.498 -0.2263  0.5036  0.2844
  102OSM   H11S10295   7.339   5.501   9.430  2.1400  0.0409  0.8247
  102OSM   H11T10296   7.431   5.575   9.557  1.1325 -1.2064 -2.0838
  102OSM   C12S10297   7.347   5.722   9.422 -0.5604 -0.1587 -0.7377
  102OSM   H12S10298   7.441   5.744   9.367 -0.4034 -2.2061 -1.3736
  102OSM   H12T10299   7.318   5.798   9.498  0.2008 -2.2104  1.7380
  102OSM   C13S10300   7.237   5.724   9.308  0.1224 -0.4228  0.2767
  102OSM   H13S10301   7.231   5.824   9.259 -0.8056 -0.7153 -0.2399
  102OSM   H13T10302   7.136   5.697   9.346 -0.8520  0.5661 -1.4247
  102OSM   C14S10303   7.258   5.619   9.197 -0.1884  0.8614  0.4009
  102OSM   H14S10304   7.226   5.520   9.235  0.9037  1.1864  2.3110
  102OSM   H14T10305   7.369   5.619   9.184 -0.3071 -1.3849 -1.2169
  102OSM   C15S10306   7.179   5.655   9.070 -0.0218  0.4467 -0.0589
  102OSM   H15S10307   7.179   5.560   9.011 -1.3520  0.2229  0.2789
  102OSM   H15T10308   7.227   5.738   9.014  2.8327 -0.6097  0.6342
  102OSM   C16S10309   7.032   5.675   9.093 -0.2415  0.9124 -0.5086
  102OSM   H16S10310   7.024   5.764   9.161 -0.1090 -1.5268  2.9782
  102OSM   H16T10311   6.993   5.584   9.143 -1.1020  1.4976 -0.0766
  102OSM   C17S10312   6.960   5.709   8.969  0.0707 -0.1907  0.8425
  102OSM   H17S10313   6.990   5.644   8.884 -0.7094 -0.6848  0.9333
  102OSM   H17T10314   6.988   5.813   8.942  2.1393 -0.3075  2.3210
  102OSM   C18S10315   6.805   5.693   8.989 -0.3501 -0.3369  0.1067
  102OSM   H18S10316   6.779   5.742   9.085  2.6359  0.6034  0.5184
  102OSM   H18T10317   6.775   5.586   8.986 -0.6256 -0.2487 -0.5930
  102OSM   H18U10318   6.751   5.743   8.906  0.6217  0.7312  0.0893
  102OSM    C1F10319   6.901   5.034  10.231  0.4622 -0.0773  0.1400
  102OSM     OF10320   6.827   5.112  10.303 -0.2275 -0.0042 -0.5907
  102OSM    C2F10321   6.849   4.926  10.140 -1.0372  0.1691  0.1027
  102OSM    H2F10322   6.850   4.825  10.186  1.1401 -0.2347 -0.6879
  102OSM    H2G10323   6.931   4.912  10.067 -2.0507  1.1879 -1.2635
  102OSM    C3F10324   6.710   4.952  10.085  0.4267 -0.3985  0.2494
  102OSM    H3F10325   6.694   5.059  10.060  0.3463 -0.5684 -0.4697
  102OSM    H3G10326   6.647   4.945  10.176 -1.2018  3.3736 -0.4290
  102OSM    C4F10327   6.675   4.849   9.972 -0.0196 -0.5799  1.1856
  102OSM    H4F10328   6.574   4.861   9.928 -0.2680 -0.5207  1.7675
  102OSM    H4G10329   6.674   4.744  10.009  2.1413 -0.6768  1.0815
  102OSM    C5F10330   6.772   4.853   9.858 -0.5920 -0.2192  0.6932
  102OSM    H5F10331   6.867   4.808   9.893 -0.4040  0.2592  0.8017
  102OSM    H5G10332   6.773   4.957   9.819 -2.1882  0.0280  1.2087
  102OSM    C6F10333   6.717   4.767   9.746  0.5480  0.2158 -0.1756
  102OSM    H6F10334   6.615   4.801   9.719 -0.2157 -2.4714 -1.0295
  102OSM    H6G10335   6.702   4.662   9.779 -1.9808  1.9225  5.3208
  102OSM    C7F10336   6.794   4.778   9.614 -0.1246 -0.6090 -0.6866
  102OSM    H7F10337   6.895   4.733   9.621 -0.9320 -2.4211 -0.0055
  102OSM    H7G10338   6.798   4.887   9.588 -1.1239  0.1226  1.9486
  102OSM    C8F10339   6.725   4.711   9.499  0.1179 -0.2101  0.1108
  102OSM    H8F10340   6.629   4.764   9.478  0.6673 -0.0847 -2.3713
  102OSM    H8G10341   6.712   4.609   9.542  1.9400 -0.2057  0.7543
  102OSM    C9F10342   6.806   4.708   9.367  0.6397 -0.2422 -0.3417
  102OSM    H9F10343   6.873   4.795   9.369 -0.1796  0.4473 -1.8655
  102OSM   C10F10344   6.802   4.615   9.271 -0.0100  0.0652  0.6367
  102OSM   H10F10345   6.862   4.636   9.181 -2.7756  2.3806 -0.8392
  102OSM   C11F10346   6.722   4.484   9.262  0.3641  0.7224 -0.1934
  102OSM   H11F10347   6.661   4.465   9.353 -0.5146 -0.2277 -0.9607
  102OSM   H11G10348   6.789   4.396   9.257  0.7872  0.9648  0.9056
  102OSM   C12F10349   6.623   4.491   9.143  0.4482 -0.1136 -0.5683
  102OSM   H12F10350   6.562   4.583   9.146  0.9277  0.2579 -1.7978
  102OSM   H12G10351   6.546   4.411   9.154  0.7352 -0.3365 -0.1103
  102OSM   C13F10352   6.690   4.479   9.002 -0.2021  0.6323  0.0258
  102OSM   H13F10353   6.788   4.530   8.986 -1.3315  2.7758 -0.4670
  102OSM   H13G10354   6.616   4.536   8.942 -3.1823 -2.2590  0.6619
  102OSM   C14F10355   6.696   4.337   8.948 -0.0486 -0.4122 -0.2158
  102OSM   H14F10356   6.590   4.302   8.954 -0.3308 -0.0972 -2.5234
  102OSM   H14G10357   6.745   4.263   9.015  1.0482  0.7447  0.2953
  102OSM   C15F10358   6.740   4.324   8.805  0.0639 -0.5604 -0.3128
  102OSM   H15F10359   6.850   4.339   8.805  0.0054 -0.1180 -0.6716
  102OSM   H15G10360   6.686   4.399   8.743 -0.4567  1.6167  2.5521
  102OSM   C16F10361   6.717   4.189   8.745 -0.5519 -0.0946  0.3797
  102OSM   H16F10362   6.610   4.160   8.749 -0.8195  0.8616  0.5573
  102OSM   H16G10363   6.768   4.112   8.807  0.0513 -0.0147 -0.0155
  102OSM   C17F10364   6.756   4.189   8.596  1.0288 -0.9302 -0.1095
  102OSM   H17F10365   6.866   4.206   8.590  0.8804 -0.1589 -0.8925
  102OSM   H17G10366   6.704   4.271   8.542 -1.7591 -0.8057  2.5046
  102OSM   C18F10367   6.738   4.055   8.536 -0.1849 -0.3101 -0.1593
  102OSM   H18F10368   6.798   3.976   8.583  0.8412  1.3385  1.4312
  102OSM   H18G10369   6.759   4.076   8.429  0.5506  2.4999  0.4373
  102OSM   H18H10370   6.635   4.014   8.531  0.1642 -1.2139 -0.0180
  103OSM      N10371   1.313   1.381  10.799  0.4099  0.1610 -0.4816
  103OSM    C1510372   1.278   1.521  10.833  0.1738  1.2105  0.6823
  103OSM   H15A10373   1.171   1.534  10.844  0.4329  3.0451  1.3767
  103OSM   H15B10374   1.315   1.584  10.753 -0.4121  0.2342 -0.4005
  103OSM   H15C10375   1.314   1.549  10.930  0.8561 -1.4539  1.2814
  103OSM    C1410376   1.462   1.369  10.806 -0.3888 -0.4993 -0.1774
  103OSM   H14A10377   1.517   1.450  10.760  0.2552 -0.0096  1.3816
  103OSM   H14B10378   1.502   1.275  10.771  0.1941 -1.8846  3.6858
  103OSM   H14C10379   1.492   1.378  10.909  1.4446  1.5545 -0.8110
  103OSM    C1310380   1.236   1.288  10.892  0.0185  0.1068 -0.0165
  103OSM   H13A10381   1.273   1.307  10.992  1.8037  1.0779 -0.8085
  103OSM   H13B10382   1.256   1.184  10.871  0.7273  0.2559 -0.1137
  103OSM   H13C10383   1.130   1.300  10.880 -0.0776 -2.4109 -2.6410
  103OSM    C1210384   1.280   1.355  10.655  0.0379 -0.1991 -0.5414
  103OSM   H12A10385   1.326   1.262  10.623  1.7495  0.3668  0.1799
  103OSM   H12B10386   1.330   1.430  10.595  1.0227  0.8254  1.4795
  103OSM    C1110387   1.132   1.336  10.615  0.1456  0.1640 -0.2477
  103OSM   H11A10388   1.092   1.260  10.686  0.9023  1.1535  1.2968
  103OSM   H11B10389   1.142   1.300  10.511  0.3762 -0.6340  0.0418
  103OSM      P10390   0.940   1.499  10.708 -0.0565  0.1504 -0.4527
  103OSM    O1310391   0.950   1.418  10.833 -0.0943  0.0064 -0.1389
  103OSM    O1410392   0.960   1.643  10.724  0.1329 -0.3738  0.0244
  103OSM    O1110393   0.806   1.468  10.641  0.4494  0.3977  0.1565
  103OSM    O1210394   1.058   1.459  10.617 -0.0084  0.1484 -0.2687
  103OSM    C1S10395   0.803   1.421  10.504 -0.0750 -0.0080  0.3211
  103OSM    H1S10396   0.829   1.313  10.508 -0.4763 -0.1479 -0.6224
  103OSM    H1T10397   0.875   1.476  10.438 -1.3922  1.2102 -0.1519
  103OSM     NF10398   0.674   1.370  10.301  0.4082  0.2797  0.5904
  103OSM    HNF10399   0.648   1.444  10.240  1.0984  1.9014  2.1710
  103OSM    C2S10400   0.665   1.421  10.438  0.3532  0.4251  0.0773
  103OSM    H2S10401   0.601   1.348  10.490 -0.1347 -0.0888 -1.1987
  103OSM    C3S10402   0.581   1.558  10.463 -0.0914 -0.7576  0.3705
  103OSM    H3S10403   0.637   1.643  10.419 -0.3171  0.0066  1.5103
  103OSM     O310404   0.575   1.599  10.600  0.2871  0.0091 -0.3607
  103OSM    HO310405   0.642   1.544  10.640 -1.5756 -1.4055  0.9914
  103OSM    C4S10406   0.439   1.544  10.419  0.1531 -0.0288  0.1082
  103OSM    H4S10407   0.380   1.464  10.465  0.9264 -1.6936 -1.6786
  103OSM    C5S10408   0.375   1.624  10.330  0.2080 -0.4574 -0.4968
  103OSM    H5S10409   0.434   1.706  10.287 -0.0388 -0.2046 -0.3539
  103OSM    C6S10410   0.230   1.605  10.294  0.2357  0.1053 -0.3018
  103OSM    H6S10411   0.176   1.700  10.277 -1.2762 -0.8756 -1.2067
  103OSM    H6T10412   0.175   1.553  10.376 -2.0799  0.4463 -1.5650
  103OSM    C7S10413   0.207   1.521  10.168  0.1089  0.7613 -0.0430
  103OSM    H7S10414   0.099   1.496  10.164  0.6369 -2.0957  1.3978
  103OSM    H7T10415   0.256   1.422  10.174  0.3292  0.8044 -0.8944
  103OSM    C8S10416   0.251   1.590  10.043 -0.1845 -0.5528 -0.7663
  103OSM    H8S10417   0.359   1.612  10.029 -0.1124 -0.2097  0.2275
  103OSM    H8T10418   0.201   1.688  10.024 -0.9672 -1.1334 -1.8132
  103OSM    C9S10419   0.205   1.507   9.915  0.1292  0.4545  0.5785
  103OSM    H9S10420   0.100   1.473   9.929 -0.5359  1.5366 -1.4046
  103OSM    H9T10421   0.279   1.426   9.898  0.6991  1.2510 -0.8821
  103OSM   C10S10422   0.186   1.594   9.784  0.2866  0.2364 -0.1457
  103OSM   H10S10423   0.284   1.642   9.766  1.8635 -1.5919  2.8168
  103OSM   H10T10424   0.110   1.673   9.804 -1.4274 -1.6160  1.1306
  103OSM   C11S10425   0.137   1.509   9.665  0.1374  0.0078  0.0476
  103OSM   H11S10426   0.031   1.500   9.696 -0.0852 -1.7451 -1.1011
  103OSM   H11T10427   0.183   1.408   9.666  1.1692  0.4554  1.1243
  103OSM   C12S10428   0.161   1.573   9.530 -0.2993  0.0272 -0.2607
  103OSM   H12S10429   0.271   1.587   9.532 -0.5803  2.5110  0.0654
  103OSM   H12T10430   0.106   1.667   9.513 -0.9514 -0.4721 -1.0032
  103OSM   C13S10431   0.131   1.470   9.411 -0.7516 -0.5885  0.0315
  103OSM   H13S10432   0.024   1.441   9.419 -0.7103 -0.5360  0.9203
  103OSM   H13T10433   0.191   1.377   9.425  2.1779  0.9451 -1.3476
  103OSM   C14S10434   0.154   1.529   9.277  0.0024 -0.3403  0.5038
  103OSM   H14S10435   0.255   1.570   9.261  0.3632 -1.0516  0.9187
  103OSM   H14T10436   0.086   1.616   9.258 -0.3768 -1.3367 -3.6086
  103OSM   C15S10437   0.104   1.438   9.162  0.3946 -0.0295  0.3275
  103OSM   H15S10438   0.005   1.396   9.187 -0.7788  2.1085 -0.4639
  103OSM   H15T10439   0.175   1.353   9.161  0.3729 -0.1568 -3.4782
  103OSM   C16S10440   0.107   1.510   9.023  0.0447 -0.0108  1.0347
  103OSM   H16S10441   0.205   1.562   9.010  1.4488 -2.1806  2.2340
  103OSM   H16T10442   0.032   1.591   9.025  0.2499  0.2088 -0.0228
  103OSM   C17S10443   0.087   1.418   8.900 -0.0446 -0.7224 -0.7942
  103OSM   H17S10444  -0.002   1.356   8.923 -1.0685  0.9836  0.0143
  103OSM   H17T10445   0.177   1.353   8.898  0.0784 -0.6546  0.9928
  103OSM   C18S10446   0.078   1.484   8.766  0.5674 -0.0482 -0.1845
  103OSM   H18S10447  -0.015   1.544   8.767  0.5767 -0.0273 -0.4996
  103OSM   H18T10448   0.064   1.410   8.684  0.4935 -0.8571  0.5406
  103OSM   H18U10449   0.170   1.542   8.746  0.6799  0.1830  0.9702
  103OSM    C1F10450   0.727   1.252  10.260  0.3178 -0.7805 -0.1250
  103OSM     OF10451   0.744   1.160  10.335  0.0894 -0.1376  0.0587
  103OSM    C2F10452   0.760   1.252  10.112  0.7641  0.4603 -0.1428
  103OSM    H2F10453   0.861   1.298  10.107  0.4636  1.7833  3.2988
  103OSM    H2G10454   0.684   1.312  10.058  1.3431  2.2011  0.9056
  103OSM    C3F10455   0.761   1.101  10.057 -0.4150 -0.0575 -0.6093
  103OSM    H3F10456   0.660   1.058  10.071 -0.4434  0.6004  1.6079
  103OSM    H3G10457   0.835   1.040  10.113  1.0030  0.0355 -2.2770
  103OSM    C4F10458   0.792   1.099   9.912 -0.0465  0.7982 -0.0173
  103OSM    H4F10459   0.892   1.146   9.904 -0.0155  0.7019 -0.1949
  103OSM    H4G10460   0.720   1.166   9.861 -0.4965  1.0931  0.9843
  103OSM    C5F10461   0.801   0.960   9.838  0.5923 -0.9160 -0.0953
  103OSM    H5F10462   0.725   0.895   9.885 -0.3389  0.7540  0.8331
  103OSM    H5G10463   0.902   0.916   9.852 -0.0332 -3.0493 -1.8157
  103OSM    C6F10464   0.789   0.968   9.678  0.1786 -0.5174 -0.1722
  103OSM    H6F10465   0.868   1.027   9.626 -2.1092  0.1683 -3.1461
  103OSM    H6G10466   0.690   1.014   9.658  0.4866 -0.1774 -0.9775
  103OSM    C7F10467   0.797   0.831   9.619  0.1519 -0.5287  0.1544
  103OSM    H7F10468   0.714   0.762   9.647  0.5485 -2.0996 -2.2584
  103OSM    H7G10469   0.889   0.769   9.631  0.4828 -0.2026 -0.6466
  103OSM    C8F10470   0.767   0.855   9.463 -0.4643 -0.0544 -0.1533
  103OSM    H8F10471   0.839   0.935   9.436 -0.2337  0.2104  1.1540
  103OSM    H8G10472   0.668   0.905   9.458 -0.1968  0.3654 -1.5255
  103OSM    C9F10473   0.782   0.730   9.384  0.3604 -0.0121  0.0680
  103OSM    H9F10474   0.744   0.635   9.426  4.9746 -3.1610 -2.0784
  103OSM   C10F10475   0.823   0.727   9.255  0.1237 -0.0772  0.0199
  103OSM   H10F10476   0.829   0.630   9.202  0.7250 -2.4650  4.0628
  103OSM   C11F10477   0.881   0.839   9.178  0.0983 -0.3874 -0.3346
  103OSM   H11F10478   0.911   0.796   9.080  3.7695 -0.0803  0.5032
  103OSM   H11G10479   0.959   0.902   9.226  0.0038 -1.1936  0.9335
  103OSM   C12F10480   0.775   0.942   9.139 -0.9350 -0.6056 -0.3392
  103OSM   H12F10481   0.738   0.990   9.232  2.4628  0.3374  0.6856
  103OSM   H12G10482   0.685   0.893   9.097 -1.5174  1.0246 -1.0512
  103OSM   C13F10483   0.819   1.058   9.048  0.2459 -0.8447  0.3013
  103OSM   H13F10484   0.919   1.096   9.078 -0.5229  0.6073  1.1218
  103OSM   H13G10485   0.744   1.139   9.057  0.8030 -0.0563 -1.7110
  103OSM   C14F10486   0.819   1.016   8.902 -0.0786  0.5598 -0.1446
  103OSM   H14F10487   0.726   0.958   8.886  1.1980 -1.6266  0.0012
  103OSM   H14G10488   0.901   0.943   8.885  0.9798  0.7181  3.3334
  103OSM   C15F10489   0.822   1.128   8.793  0.3313 -0.1448 -0.5931
  103OSM   H15F10490   0.921   1.177   8.779  0.2315 -0.2508 -1.7849
  103OSM   H15G10491   0.762   1.210   8.838  1.0838 -0.3486  0.8191
  103OSM   C16F10492   0.756   1.096   8.666  0.0588 -0.1508 -0.1186
  103OSM   H16F10493   0.727   1.196   8.625 -1.1235  0.6508  2.4328
  103OSM   H16G10494   0.662   1.043   8.692  0.6281 -1.0596  0.0896
  103OSM   C17F10495   0.832   1.011   8.566  0.2206 -0.3342 -0.0483
  103OSM   H17F10496   0.873   0.914   8.603  2.6394  0.4111 -0.6046
  103OSM   H17G10497   0.921   1.067   8.531 -0.7619  2.2138  1.2458
  103OSM   C18F10498   0.736   0.976   8.453 -0.2128 -0.1520  0.3241
  103OSM   H18F10499   0.785   0.931   8.364 -2.0651 -1.9187  0.1228
  103OSM   H18G10500   0.683   1.062   8.408 -0.6914  0.8911  2.7318
  103OSM   H18H10501   0.662   0.899   8.483  0.0495 -0.9953 -1.0854
  104OSM      N10502   3.469   1.558  10.608  0.4163 -0.0267  0.2113
  104OSM    C1510503   3.540   1.440  10.653  0.0808  0.0492  0.0841
  104OSM   H15A10504   3.504   1.415  10.751  0.6378 -3.1869 -0.4149
  104OSM   H15B10505   3.648   1.448  10.655  0.3165 -2.1840 -0.5433
  104OSM   H15C10506   3.498   1.353  10.604 -1.5111  0.7979  0.0730
  104OSM    C1410507   3.502   1.678  10.699  0.0348 -0.7498  0.2645
  104OSM   H14A10508   3.458   1.767  10.656  0.0150 -0.8472  0.0827
  104OSM   H14B10509   3.609   1.695  10.697  0.1936 -1.7371  0.1007
  104OSM   H14C10510   3.457   1.672  10.797 -1.7318 -0.8370 -0.5257
  104OSM    C1310511   3.516   1.590  10.467  0.4830 -0.1995  0.0353
  104OSM   H13A10512   3.620   1.620  10.458  0.2546  0.4400 -0.6093
  104OSM   H13B10513   3.462   1.676  10.427  0.2844 -0.0335  0.6527
  104OSM   H13C10514   3.498   1.509  10.398  0.4719 -1.5046  1.5320
  104OSM    C1210515   3.316   1.547  10.616  0.2731 -0.0233  1.1909
  104OSM   H12A10516   3.275   1.482  10.541 -2.1410  2.4287  0.2405
  104OSM   H12B10517   3.272   1.642  10.590 -0.1230 -0.1083  1.5318
  104OSM    C1110518   3.243   1.518  10.750  0.0194 -0.0053  0.1200
  104OSM   H11A10519   3.289   1.428  10.798 -0.4922 -2.0587 -2.9266
  104OSM   H11B10520   3.139   1.482  10.733 -0.4874  1.1653  0.6710
  104OSM      P10521   3.126   1.736  10.829  0.1275  0.1661  0.5013
  104OSM    O1310522   3.007   1.660  10.869 -0.7357 -0.0168  0.8578
  104OSM    O1410523   3.160   1.848  10.922 -0.1580 -0.3284  0.1188
  104OSM    O1110524   3.114   1.784  10.681 -0.0126  0.0992  0.1040
  104OSM    O1210525   3.248   1.637  10.836  0.4384  0.4956 -0.6485
  104OSM    C1S10526   3.200   1.874  10.613  0.0258  0.7316 -0.0459
  104OSM    H1S10527   3.302   1.830  10.609 -0.1731  0.1952  0.5366
  104OSM    H1T10528   3.197   1.974  10.661 -3.1022  0.3480  0.7755
  104OSM     NF10529   3.249   2.000  10.409 -0.2297 -0.6117  0.4042
  104OSM    HNF10530   3.235   2.096  10.432  0.0901 -0.6660  0.8393
  104OSM    C2S10531   3.158   1.905  10.467  1.1256 -0.8298  1.1496
  104OSM    H2S10532   3.149   1.814  10.405  1.7583 -0.3411  0.3246
  104OSM    C3S10533   3.009   1.967  10.460 -0.9556 -0.0890  0.0533
  104OSM    H3S10534   3.016   2.070  10.500 -0.5062  0.6301 -1.8063
  104OSM     O310535   2.908   1.905  10.544  0.3112  0.3075 -0.0075
  104OSM    HO310536   2.953   1.851  10.610  2.3369  1.3395 -0.4536
  104OSM    C4S10537   2.974   1.971  10.311  0.4562 -0.3519 -0.3571
  104OSM    H4S10538   3.043   2.040  10.260  2.3066 -1.2436  0.8291
  104OSM    C5S10539   2.870   1.906  10.251  0.4225 -0.5808  0.3193
  104OSM    H5S10540   2.808   1.831  10.302 -1.3813  0.9506  0.5010
  104OSM    C6S10541   2.843   1.918  10.109  0.5512  0.6583  0.0421
  104OSM    H6S10542   2.738   1.942  10.081  0.9456 -0.9866 -3.4425
  104OSM    H6T10543   2.869   1.820  10.063  1.0492  0.6157  0.4144
  104OSM    C7S10544   2.907   2.035  10.031  0.0106  0.1878 -0.3832
  104OSM    H7S10545   3.017   2.015  10.030 -0.1377 -0.7927 -2.2729
  104OSM    H7T10546   2.878   2.130  10.080  0.4661 -0.4227  1.1288
  104OSM    C8S10547   2.883   2.026   9.881  0.5230 -0.1083 -0.3686
  104OSM    H8S10548   2.882   1.918   9.856  0.5180 -0.3214  0.5172
  104OSM    H8T10549   2.958   2.078   9.817  0.3884  0.7349  0.1321
  104OSM    C9S10550   2.757   2.102   9.828 -1.1636  0.1058 -0.4943
  104OSM    H9S10551   2.794   2.206   9.844  1.7123 -0.7275 -1.1762
  104OSM    H9T10552   2.671   2.077   9.893 -3.2271  1.9176 -2.3553
  104OSM   C10S10553   2.721   2.074   9.684 -0.5577 -0.1811 -0.0031
  104OSM   H10S10554   2.615   2.105   9.668 -0.5374 -0.8105 -1.5067
  104OSM   H10T10555   2.719   1.967   9.655  0.0610  0.2821 -1.8856
  104OSM   C11S10556   2.805   2.152   9.585  0.0342 -0.6768 -0.2467
  104OSM   H11S10557   2.912   2.124   9.600 -0.8195 -3.5175  1.2209
  104OSM   H11T10558   2.797   2.262   9.595 -2.4308 -0.7547 -0.7542
  104OSM   C12S10559   2.776   2.121   9.431  0.1547  0.6195  0.3525
  104OSM   H12S10560   2.666   2.136   9.416  0.3311  2.5716  0.7347
  104OSM   H12T10561   2.800   2.014   9.414  0.1017  0.5527  0.6851
  104OSM   C13S10562   2.846   2.208   9.332 -0.9218 -0.1282  0.1894
  104OSM   H13S10563   2.953   2.195   9.359 -0.8360 -1.2933 -0.6237
  104OSM   H13T10564   2.833   2.318   9.339  2.3400  0.4196 -0.6744
  104OSM   C14S10565   2.826   2.164   9.185 -0.0966 -0.3579 -0.9188
  104OSM   H14S10566   2.841   2.054   9.180 -0.6239 -0.4309 -0.9694
  104OSM   H14T10567   2.900   2.223   9.127  1.5491  0.9675  2.2753
  104OSM   C15S10568   2.686   2.200   9.124 -0.1837 -0.2287  0.2617
  104OSM   H15S10569   2.666   2.307   9.144  0.7422 -0.1620  0.8994
  104OSM   H15T10570   2.595   2.149   9.162 -1.9114  2.3368 -0.1699
  104OSM   C16S10571   2.685   2.202   8.967 -0.2340  0.5161 -0.0616
  104OSM   H16S10572   2.731   2.298   8.934  3.4545 -1.1967 -0.4643
  104OSM   H16T10573   2.583   2.210   8.925 -0.5625  1.4201  0.8655
  104OSM   C17S10574   2.764   2.083   8.898  0.3277 -0.4366 -0.0173
  104OSM   H17S10575   2.758   1.982   8.944 -0.9060 -1.1733 -1.6753
  104OSM   H17T10576   2.866   2.116   8.928  0.3935 -1.1041  0.5192
  104OSM   C18S10577   2.757   2.085   8.749 -0.5904  0.0153  0.0413
  104OSM   H18S10578   2.653   2.061   8.716 -0.8723  0.2175  0.7722
  104OSM   H18T10579   2.825   2.008   8.706 -0.7991 -0.5279  0.6798
  104OSM   H18U10580   2.782   2.189   8.717  1.2952 -0.0914  1.0426
  104OSM    C1F10581   3.377   1.968  10.385  0.0403 -0.0786  0.2357
  104OSM     OF10582   3.414   1.854  10.362 -0.3933 -0.0597  0.2024
  104OSM    C2F10583   3.477   2.080  10.407  0.7781 -0.0545  0.2106
  104OSM    H2F10584   3.551   2.054  10.485  0.6861  1.9709  1.0380
  104OSM    H2G10585   3.422   2.175  10.422 -0.5843 -0.6872 -0.6502
  104OSM    C3F10586   3.560   2.113  10.276 -0.3962  0.5159  0.1306
  104OSM    H3F10587   3.629   2.030  10.250  0.0021  0.6634  0.7130
  104OSM    H3G10588   3.629   2.195  10.303  2.2661 -1.3187 -0.6597
  104OSM    C4F10589   3.486   2.152  10.141  0.2614  0.7411  0.0976
  104OSM    H4F10590   3.425   2.064  10.110  0.3184  1.1672 -1.3256
  104OSM    H4G10591   3.556   2.170  10.056  1.8223 -2.4483  0.5457
  104OSM    C5F10592   3.388   2.269  10.170 -1.1065 -0.5840  0.4831
  104OSM    H5F10593   3.435   2.350  10.230 -0.0179 -0.5901 -0.3426
  104OSM    H5G10594   3.294   2.230  10.214 -1.3385 -0.7373 -0.1408
  104OSM    C6F10595   3.349   2.353  10.044 -0.2485 -0.3667 -0.4546
  104OSM    H6F10596   3.432   2.420  10.016  1.1230 -2.2681 -1.1911
  104OSM    H6G10597   3.266   2.422  10.071  0.7818  0.9512 -0.5885
  104OSM    C7F10598   3.297   2.283   9.922  0.0037  0.8134  0.3276
  104OSM    H7F10599   3.231   2.196   9.945  2.2478 -1.0760  0.0378
  104OSM    H7G10600   3.380   2.224   9.878 -1.3218 -1.2963  0.4907
  104OSM    C8F10601   3.240   2.375   9.809 -0.0314 -0.0193  0.0142
  104OSM    H8F10602   3.153   2.434   9.846  0.1337 -1.5079  3.0261
  104OSM    H8G10603   3.208   2.293   9.741 -2.2579 -0.4754  1.4992
  104OSM    C9F10604   3.347   2.463   9.741  0.2478  0.1953 -0.6321
  104OSM    H9F10605   3.403   2.525   9.812  0.0008  1.0813 -1.1959
  104OSM   C10F10606   3.390   2.457   9.614  0.3595 -0.2461  0.2843
  104OSM   H10F10607   3.470   2.526   9.584  0.3515  0.5834  2.0007
  104OSM   C11F10608   3.322   2.375   9.512 -0.2544  0.3512 -0.6507
  104OSM   H11F10609   3.215   2.353   9.533 -0.4324 -1.0415 -2.7066
  104OSM   H11G10610   3.366   2.274   9.500 -0.1570  0.3987 -0.6982
  104OSM   C12F10611   3.327   2.438   9.373 -0.1327 -0.1120 -0.2914
  104OSM   H12F10612   3.434   2.454   9.349 -0.1551 -0.1470 -0.4139
  104OSM   H12G10613   3.288   2.543   9.374 -2.9630 -1.0249 -2.0072
  104OSM   C13F10614   3.255   2.360   9.261  0.3724 -0.0364  0.4294
  104OSM   H13F10615   3.148   2.349   9.289  0.5743  1.1218  1.7771
  104OSM   H13G10616   3.301   2.259   9.270  1.8417  0.7141  1.9147
  104OSM   C14F10617   3.273   2.424   9.121 -0.0168  0.6404  0.7376
  104OSM   H14F10618   3.379   2.456   9.117  0.4013 -0.2320  3.0757
  104OSM   H14G10619   3.207   2.511   9.102 -1.8163 -0.3369  2.1767
  104OSM   C15F10620   3.259   2.318   9.009 -0.4632  0.4890 -0.6248
  104OSM   H15F10621   3.171   2.253   9.022  1.1104 -2.1870 -2.3539
  104OSM   H15G10622   3.355   2.263   8.999 -1.3043 -0.8417 -1.7229
  104OSM   C16F10623   3.246   2.389   8.876 -0.3157  0.8551 -0.0583
  104OSM   H16F10624   3.176   2.475   8.880 -3.2377 -1.3805  0.0753
  104OSM   H16G10625   3.210   2.314   8.802  1.2609  1.0548 -1.0989
  104OSM   C17F10626   3.380   2.439   8.817 -0.1241 -0.6026  0.5682
  104OSM   H17F10627   3.472   2.388   8.854  0.2163  0.1544  0.7793
  104OSM   H17G10628   3.403   2.535   8.868  1.6166 -1.3944  1.3417
  104OSM   C18F10629   3.371   2.459   8.669 -0.6168  0.5352 -0.0263
  104OSM   H18F10630   3.295   2.531   8.632 -1.2104 -0.2906 -0.4367
  104OSM   H18G10631   3.346   2.367   8.612  0.2256 -0.1543  0.6927
  104OSM   H18H10632   3.475   2.475   8.632 -0.4261 -0.5484  0.0084
  105OSM      N10633   5.950   5.141  11.015 -0.0943 -0.1674  0.7199
  105OSM    C1510634   5.988   5.283  11.034 -0.2673 -0.5108 -0.4124
  105OSM   H15A10635   6.085   5.300  10.992  0.4992 -0.1686  1.4044
  105OSM   H15B10636   5.986   5.320  11.135 -1.6907  3.3214 -1.6432
  105OSM   H15C10637   5.920   5.342  10.973  2.0264  1.1146 -1.5186
  105OSM    C1410638   6.062   5.053  11.074  0.4090  0.4775  0.8426
  105OSM   H14A10639   6.073   5.073  11.179  2.0007 -3.2953  1.5477
  105OSM   H14B10640   6.157   5.066  11.024  0.6962  0.5481  1.3979
  105OSM   H14C10641   6.034   4.949  11.063 -2.4628  1.3039 -0.4773
  105OSM    C1310642   5.824   5.106  11.093  0.5697  0.7371  0.5274
  105OSM   H13A10643   5.820   5.152  11.190 -1.1140  3.3602 -0.6965
  105OSM   H13B10644   5.809   4.999  11.101  1.1380  0.6636  0.6522
  105OSM   H13C10645   5.741   5.143  11.034  0.9814  0.9513  0.0702
  105OSM    C1210646   5.946   5.125  10.867 -0.0853 -0.1024  0.8034
  105OSM   H12A10647   5.935   5.021  10.838 -1.2222  0.3261 -0.3878
  105OSM   H12B10648   6.035   5.158  10.815 -0.7285 -2.1389 -1.8059
  105OSM    C1110649   5.831   5.197  10.793  0.1295 -0.0038  0.2574
  105OSM   H11A10650   5.733   5.163  10.831  0.9363 -1.1949  1.3395
  105OSM   H11B10651   5.826   5.159  10.688 -2.1812 -0.3349  0.4483
  105OSM      P10652   5.926   5.424  10.703  0.0532 -0.2364 -0.1275
  105OSM    O1310653   5.923   5.566  10.740  0.0626 -0.5341 -0.0065
  105OSM    O1410654   6.061   5.369  10.693 -0.2217  0.3407 -0.9484
  105OSM    O1110655   5.845   5.410  10.563 -0.4833  0.3182 -0.0982
  105OSM    O1210656   5.839   5.340  10.798 -0.0734 -0.3551 -0.8365
  105OSM    C1S10657   5.917   5.367  10.450  0.3319  0.9880 -0.1659
  105OSM    H1S10658   5.928   5.256  10.450  1.7592  1.0996 -0.9738
  105OSM    H1T10659   6.022   5.402  10.448 -0.1083  2.3800  0.4283
  105OSM     NF10660   5.890   5.350  10.200 -0.0983 -0.0428  0.0266
  105OSM    HNF10661   5.958   5.403  10.150 -0.2414 -0.1921 -0.3334
  105OSM    C2S10662   5.834   5.401  10.324 -0.1701  0.3995 -0.1791
  105OSM    H2S10663   5.732   5.364  10.347  0.5798 -0.4757  1.9910
  105OSM    C3S10664   5.823   5.564  10.318 -0.1998 -0.3784  0.4745
  105OSM    H3S10665   5.923   5.605  10.292 -0.3599  0.6507  1.4330
  105OSM     O310666   5.784   5.630  10.441  0.1826  0.0952 -0.1938
  105OSM    HO310667   5.793   5.559  10.504  0.0809 -1.3372 -1.7295
  105OSM    C4S10668   5.729   5.593  10.201 -0.0936 -0.2169  1.1033
  105OSM    H4S10669   5.779   5.627  10.109 -0.0174  0.2542  1.3143
  105OSM    C5S10670   5.596   5.588  10.207  0.1647 -0.1189 -0.2844
  105OSM    H5S10671   5.549   5.569  10.304  1.0785  1.1800  0.4453
  105OSM    C6S10672   5.487   5.608  10.103  0.0015 -0.6608  0.2821
  105OSM    H6S10673   5.433   5.699  10.137  1.8929  1.6112 -2.3970
  105OSM    H6T10674   5.419   5.520  10.100 -2.0062  0.8366 -0.1358
  105OSM    C7S10675   5.545   5.636   9.959 -0.0317  0.4443 -0.0403
  105OSM    H7S10676   5.593   5.537   9.944  0.0031  0.3531  0.6625
  105OSM    H7T10677   5.625   5.713   9.945  1.4450 -1.2820 -1.7117
  105OSM    C8S10678   5.434   5.649   9.847 -0.0222 -0.0745  0.6391
  105OSM    H8S10679   5.375   5.743   9.854 -1.4680 -0.9563  0.7262
  105OSM    H8T10680   5.364   5.563   9.858  1.0264 -1.5485 -2.8325
  105OSM    C9S10681   5.489   5.642   9.708 -0.7159  0.5829 -0.1945
  105OSM    H9S10682   5.506   5.537   9.678 -0.4059 -0.0051  1.9237
  105OSM    H9T10683   5.583   5.701   9.697 -0.3735  0.0374 -0.2109
  105OSM   C10S10684   5.397   5.714   9.610  0.1403  1.3140 -0.4925
  105OSM   H10S10685   5.404   5.825   9.622 -1.3708  1.4602 -0.7266
  105OSM   H10T10686   5.290   5.691   9.629  0.1553  1.5695 -0.0693
  105OSM   C11S10687   5.435   5.680   9.468  0.2990 -0.0050 -0.2290
  105OSM   H11S10688   5.409   5.578   9.435 -2.5985  0.4221  0.4372
  105OSM   H11T10689   5.546   5.677   9.461  0.2574 -3.2600 -0.9934
  105OSM   C12S10690   5.371   5.768   9.359  0.1985 -0.3646  0.4730
  105OSM   H12S10691   5.392   5.875   9.382 -1.6323  0.0537  0.3451
  105OSM   H12T10692   5.262   5.750   9.368  0.2071 -2.3656 -2.2136
  105OSM   C13S10693   5.403   5.711   9.217  0.5199 -0.1502 -0.2308
  105OSM   H13S10694   5.364   5.608   9.207  0.7789 -0.0819 -2.3529
  105OSM   H13T10695   5.513   5.707   9.203  0.2494 -1.0913 -2.4852
  105OSM   C14S10696   5.349   5.800   9.106 -0.9854 -0.1467  0.1215
  105OSM   H14S10697   5.415   5.889   9.107  2.4723 -2.4601 -1.4989
  105OSM   H14T10698   5.239   5.817   9.103 -1.0612 -0.1326  1.8668
  105OSM   C15S10699   5.378   5.724   8.970  0.2721  0.5817  1.1045
  105OSM   H15S10700   5.485   5.707   8.945  0.0943 -0.6977  1.1601
  105OSM   H15T10701   5.352   5.799   8.892  1.0921  0.8018  1.0333
  105OSM   C16S10702   5.280   5.604   8.950 -0.4957 -0.5513 -0.1317
  105OSM   H16S10703   5.225   5.575   9.042  2.7789 -1.9165  1.5530
  105OSM   H16T10704   5.348   5.520   8.923  0.3891 -0.0410  0.4584
  105OSM   C17S10705   5.187   5.621   8.830 -0.9423 -0.2524 -0.2097
  105OSM   H17S10706   5.108   5.695   8.854  0.3997  1.1003  0.1604
  105OSM   H17T10707   5.130   5.527   8.808  0.0835 -1.0988  0.6651
  105OSM   C18S10708   5.261   5.657   8.706 -0.0690  0.2738  0.9972
  105OSM   H18S10709   5.353   5.597   8.691  0.6506  1.7160 -0.7633
  105OSM   H18T10710   5.277   5.766   8.692 -2.9139  0.9168  2.2016
  105OSM   H18U10711   5.195   5.632   8.620  0.8460 -0.0192  0.3677
  105OSM    C1F10712   5.860   5.215  10.179 -0.2529  0.5319  0.1096
  105OSM     OF10713   5.790   5.150  10.253 -0.1644 -0.9975 -0.0899
  105OSM    C2F10714   5.933   5.145  10.058 -0.8066 -0.2867 -0.1277
  105OSM    H2F10715   6.010   5.077  10.101 -1.3069  0.5295  2.2035
  105OSM    H2G10716   5.994   5.218  10.000 -1.1402 -0.2266 -0.4010
  105OSM    C3F10717   5.829   5.087   9.966  0.5970  0.3549  0.2442
  105OSM    H3F10718   5.763   5.167   9.925  1.6959  1.3704  0.4092
  105OSM    H3G10719   5.769   5.020  10.031 -0.2096 -0.6580 -1.4667
  105OSM    C4F10720   5.897   5.016   9.853  0.1154  0.1102 -0.2066
  105OSM    H4F10721   5.961   4.934   9.893  1.2258  0.9637 -0.1824
  105OSM    H4G10722   5.965   5.083   9.797  0.6444  0.2289  0.5600
  105OSM    C5F10723   5.790   4.960   9.756 -0.8789 -0.6863 -0.9741
  105OSM    H5F10724   5.726   5.047   9.731 -1.7792 -0.7644  0.9250
  105OSM    H5G10725   5.723   4.876   9.784 -1.0879  0.2309  1.5438
  105OSM    C6F10726   5.867   4.914   9.626 -0.2557 -0.0073 -0.3810
  105OSM    H6F10727   5.921   4.826   9.667  0.2482 -0.2394 -1.5186
  105OSM    H6G10728   5.948   4.985   9.600  0.1695 -0.5913 -0.6596
  105OSM    C7F10729   5.782   4.864   9.506  0.8233  0.5492 -0.0945
  105OSM    H7F10730   5.768   4.948   9.435  0.5358  0.9567  0.4346
  105OSM    H7G10731   5.680   4.840   9.541 -0.2852  2.6965 -1.6670
  105OSM    C8F10732   5.844   4.743   9.419  0.6515 -0.0869 -0.8376
  105OSM    H8F10733   5.951   4.763   9.398 -0.0253  3.2806 -1.7445
  105OSM    H8G10734   5.795   4.741   9.319 -2.9883  0.1337  0.7617
  105OSM    C9F10735   5.815   4.609   9.488  0.0358  0.3806 -0.2005
  105OSM    H9F10736   5.796   4.611   9.597  0.1989 -0.4259 -0.1507
  105OSM   C10F10737   5.833   4.481   9.444  0.3986 -0.7007  0.1222
  105OSM   H10F10738   5.803   4.397   9.508  0.5986  1.2526  2.9328
  105OSM   C11F10739   5.892   4.440   9.306 -0.2033 -0.1689 -0.0115
  105OSM   H11F10740   5.964   4.519   9.277 -0.5300 -0.4597 -1.6954
  105OSM   H11G10741   5.811   4.438   9.230 -0.1527  1.7381 -0.1446
  105OSM   C12F10742   5.964   4.300   9.317  0.0646 -0.1330 -0.7410
  105OSM   H12F10743   6.039   4.297   9.398 -0.3269  0.8394 -0.3282
  105OSM   H12G10744   6.019   4.286   9.222  2.0108  1.2124  0.1259
  105OSM   C13F10745   5.865   4.182   9.327 -0.6830  0.1116  0.1930
  105OSM   H13F10746   5.799   4.188   9.416 -2.7982  1.9076 -1.3788
  105OSM   H13G10747   5.937   4.098   9.340 -0.1288  0.5110 -0.2095
  105OSM   C14F10748   5.772   4.159   9.207  0.0351 -0.0854  0.0845
  105OSM   H14F10749   5.830   4.132   9.116  0.1710 -0.2682  0.2236
  105OSM   H14G10750   5.710   4.247   9.180  0.9601  0.3717 -0.5848
  105OSM   C15F10751   5.679   4.036   9.222 -0.3981 -0.2018 -0.3640
  105OSM   H15F10752   5.592   4.059   9.287  0.2381  0.3912  0.3040
  105OSM   H15G10753   5.738   3.960   9.277  0.3137  0.1107 -0.6764
  105OSM   C16F10754   5.634   3.975   9.095 -0.2117  0.6885  0.3402
  105OSM   H16F10755   5.570   3.887   9.120 -0.8452  1.2988  0.8910
  105OSM   H16G10756   5.727   3.947   9.041  0.3395  0.2777  1.4633
  105OSM   C17F10757   5.556   4.081   9.014 -0.3473  0.4307 -0.2918
  105OSM   H17F10758   5.635   4.138   8.961  1.6005  0.3256  2.2806
  105OSM   H17G10759   5.501   4.155   9.078  2.0778 -0.7059  3.4173
  105OSM   C18F10760   5.460   4.028   8.913  0.1345 -0.3181 -0.1609
  105OSM   H18F10761   5.394   3.959   8.968  0.8299  0.0173  1.1289
  105OSM   H18G10762   5.509   3.966   8.834 -1.0735 -0.4048 -0.8614
  105OSM   H18H10763   5.395   4.109   8.872  0.5558  0.7625  1.2245
  106OSM      N10764   3.908   4.409  10.882  0.8341  0.3476 -0.2685
  106OSM    C1510765   3.805   4.455  10.784  0.4546  0.4174 -0.0193
  106OSM   H15A10766   3.706   4.423  10.813 -0.1429  1.6796 -0.5625
  106OSM   H15B10767   3.827   4.422  10.684 -0.3316  4.9084 -1.9503
  106OSM   H15C10768   3.803   4.563  10.786  0.0063  0.4043  0.8554
  106OSM    C1410769   4.042   4.448  10.829  0.1373 -0.0426  0.3824
  106OSM   H14A10770   4.057   4.552  10.804 -0.0891 -0.3847 -1.3050
  106OSM   H14B10771   4.059   4.389  10.740 -0.6564  0.6883 -0.2682
  106OSM   H14C10772   4.104   4.427  10.915 -0.2651  0.1882  0.7309
  106OSM    C1310773   3.903   4.491  11.010 -0.3299 -0.6290 -0.5219
  106OSM   H13A10774   3.967   4.436  11.078  0.4103 -0.2166 -0.8688
  106OSM   H13B10775   3.808   4.497  11.061 -0.0072  0.9123 -0.0489
  106OSM   H13C10776   3.947   4.589  10.998 -0.5293 -0.1521  1.9802
  106OSM    C1210777   3.895   4.262  10.917  0.1445  0.0997  0.6333
  106OSM   H12A10778   3.805   4.250  10.977  0.4716 -3.2654  0.6291
  106OSM   H12B10779   3.981   4.232  10.975  1.5330  1.2840 -0.7223
  106OSM    C1110780   3.876   4.161  10.801 -0.0482 -0.0274 -0.4640
  106OSM   H11A10781   3.802   4.204  10.730 -2.5930 -1.5370  1.1132
  106OSM   H11B10782   3.832   4.068  10.845 -0.4676  1.7277  3.2214
  106OSM      P10783   4.119   4.063  10.790 -0.3675  0.1792 -0.5235
  106OSM    O1310784   4.248   4.117  10.742 -0.5641 -0.2673 -0.3258
  106OSM    O1410785   4.110   4.038  10.937 -0.3062 -0.3233 -0.3402
  106OSM    O1110786   4.098   3.926  10.709  0.0294 -0.0675 -0.4692
  106OSM    O1210787   3.999   4.150  10.741 -0.2437 -0.0463  0.5525
  106OSM    C1S10788   4.032   3.919  10.581  0.1422 -1.1142  0.0160
  106OSM    H1S10789   3.948   3.991  10.580  1.0097 -0.0802 -1.4032
  106OSM    H1T10790   3.993   3.817  10.561 -0.8059 -0.4571 -1.7129
  106OSM     NF10791   4.048   3.974  10.342  0.4692  0.6051  0.1768
  106OSM    HNF10792   4.016   3.894  10.292 -1.5070  1.7661 -0.5136
  106OSM    C2S10793   4.126   3.954  10.463  0.3343  0.4148 -0.3368
  106OSM    H2S10794   4.172   4.052  10.488 -0.1793  1.5263 -3.3088
  106OSM    C3S10795   4.235   3.849  10.455 -0.0197 -0.1615 -0.6413
  106OSM    H3S10796   4.189   3.749  10.469  0.5655 -0.1001  2.6297
  106OSM     O310797   4.324   3.840  10.567 -0.8235 -0.1934  0.2500
  106OSM    HO310798   4.284   3.890  10.639  2.1322 -0.2528  2.1175
  106OSM    C4S10799   4.323   3.865  10.335 -0.0935 -0.5186  0.2246
  106OSM    H4S10800   4.361   3.968  10.331  0.8584 -0.8753 -0.0990
  106OSM    C5S10801   4.349   3.783  10.230  0.1456 -0.1532  0.5978
  106OSM    H5S10802   4.307   3.682  10.225 -0.0383 -0.2691  3.1071
  106OSM    C6S10803   4.430   3.829  10.109 -0.0914  0.6618 -0.2681
  106OSM    H6S10804   4.516   3.762  10.088 -0.3815  1.0837 -3.2139
  106OSM    H6T10805   4.473   3.929  10.129  0.0856  0.4908  0.2325
  106OSM    C7S10806   4.352   3.830   9.973 -0.1747 -0.8376  0.3862
  106OSM    H7S10807   4.282   3.915   9.985  3.9520  2.8681  0.2682
  106OSM    H7T10808   4.311   3.727   9.963 -0.7289 -0.5479 -0.4239
  106OSM    C8S10809   4.423   3.866   9.838 -0.8817 -0.2224 -0.4478
  106OSM    H8S10810   4.342   3.897   9.769 -1.9576 -1.2657  0.3127
  106OSM    H8T10811   4.476   3.778   9.794 -0.1083  0.0280 -0.0454
  106OSM    C9S10812   4.518   3.989   9.832  0.0373  0.4751 -0.5112
  106OSM    H9S10813   4.612   3.959   9.884 -0.2005 -1.8061 -1.2746
  106OSM    H9T10814   4.467   4.071   9.887 -1.6543 -2.1210  2.1116
  106OSM   C10S10815   4.521   4.044   9.690  0.2015 -0.1122  0.0371
  106OSM   H10S10816   4.576   4.139   9.683 -1.5054  0.7820 -3.4225
  106OSM   H10T10817   4.422   4.070   9.646  1.7097  1.3724 -2.6708
  106OSM   C11S10818   4.570   3.944   9.581  0.9041  0.7164 -0.7611
  106OSM   H11S10819   4.500   3.858   9.575  0.5474  1.0152 -0.9586
  106OSM   H11T10820   4.666   3.910   9.625  1.2914  1.3091 -1.1357
  106OSM   C12S10821   4.569   4.008   9.438  0.0088  0.6267  0.0034
  106OSM   H12S10822   4.597   4.115   9.449 -2.6046  1.1098  4.2016
  106OSM   H12T10823   4.464   4.009   9.402 -0.6542  0.7708  1.8077
  106OSM   C13S10824   4.645   3.938   9.326 -0.7431  0.2189 -0.1732
  106OSM   H13S10825   4.619   3.830   9.317 -0.7808  0.0427  1.6642
  106OSM   H13T10826   4.750   3.931   9.361 -0.3069  1.2979 -1.1906
  106OSM   C14S10827   4.643   4.007   9.184  0.2386  0.5368 -0.0463
  106OSM   H14S10828   4.687   4.109   9.182  3.4776 -0.7425 -1.4064
  106OSM   H14T10829   4.541   4.012   9.140 -0.2616  1.2615  1.1473
  106OSM   C15S10830   4.728   3.922   9.089  0.5815 -0.2694  0.1480
  106OSM   H15S10831   4.718   3.813   9.108  2.1183 -0.3638  0.6019
  106OSM   H15T10832   4.834   3.943   9.116 -0.2321 -0.0765  3.6236
  106OSM   C16S10833   4.716   3.955   8.939  0.9819  0.2622 -0.3112
  106OSM   H16S10834   4.740   4.063   8.933  1.9328  0.2024  1.7537
  106OSM   H16T10835   4.612   3.933   8.908  1.0318  2.0208 -1.9629
  106OSM   C17S10836   4.822   3.872   8.856 -0.4467 -0.2053  0.0760
  106OSM   H17S10837   4.827   3.764   8.882 -0.1412 -0.7104 -1.8802
  106OSM   H17T10838   4.922   3.918   8.874  0.3000  0.1753 -3.9776
  106OSM   C18S10839   4.780   3.883   8.711 -0.4037  0.4876  0.0252
  106OSM   H18S10840   4.870   3.856   8.651  1.1317  2.5002  1.2706
  106OSM   H18T10841   4.767   3.991   8.693 -0.5689  0.7433  1.5430
  106OSM   H18U10842   4.693   3.821   8.683  0.0470 -1.0637  1.8492
  106OSM    C1F10843   3.972   4.082  10.310 -0.4637  0.6482 -0.8299
  106OSM     OF10844   3.965   4.187  10.374  0.0581 -0.2503 -0.3994
  106OSM    C2F10845   3.904   4.070  10.183 -0.0697 -0.3663  0.3601
  106OSM    H2F10846   3.832   3.985  10.189 -1.3408  0.7673  3.1039
  106OSM    H2G10847   3.975   4.047  10.101 -1.8846 -1.8796 -0.8798
  106OSM    C3F10848   3.840   4.200  10.138 -0.1881 -0.1901  0.4172
  106OSM    H3F10849   3.917   4.279  10.147  0.4003 -0.8318  1.2342
  106OSM    H3G10850   3.761   4.229  10.212  1.7850  2.3749  1.6836
  106OSM    C4F10851   3.774   4.181  10.002  0.8670 -0.3082  0.4129
  106OSM    H4F10852   3.691   4.253   9.988  1.0513 -0.0605  0.5715
  106OSM    H4G10853   3.736   4.077   9.995  0.4453 -0.1503  0.3574
  106OSM    C5F10854   3.875   4.198   9.898  0.1995 -0.1879 -0.1945
  106OSM    H5F10855   3.962   4.129   9.908  0.4565  0.4245  2.2866
  106OSM    H5G10856   3.918   4.300   9.905 -2.0050  0.7796  0.0369
  106OSM    C6F10857   3.827   4.200   9.750 -0.0395 -0.2600 -0.0896
  106OSM    H6F10858   3.738   4.261   9.723 -0.4039 -1.3471 -1.4543
  106OSM    H6G10859   3.813   4.095   9.716 -2.3224 -0.2425  0.5917
  106OSM    C7F10860   3.946   4.261   9.666  0.1281  0.0628  0.7504
  106OSM    H7F10861   4.034   4.197   9.689 -1.5184 -2.9286 -0.6098
  106OSM    H7G10862   3.961   4.363   9.707 -1.9142  0.4799  0.5711
  106OSM    C8F10863   3.922   4.272   9.520  0.8284  1.0500  0.6498
  106OSM    H8F10864   3.892   4.170   9.487  0.9814  1.1295  0.2542
  106OSM    H8G10865   4.018   4.310   9.478 -0.5642  0.3160 -3.7972
  106OSM    C9F10866   3.809   4.359   9.465 -0.2643 -0.6395  0.5873
  106OSM    H9F10867   3.713   4.349   9.517 -0.1204  1.8137  1.4778
  106OSM   C10F10868   3.808   4.437   9.357  0.1419  0.0529 -0.0271
  106OSM   H10F10869   3.713   4.488   9.337 -0.9662 -1.8128  0.2113
  106OSM   C11F10870   3.930   4.442   9.266 -0.1667  0.5110 -0.1023
  106OSM   H11F10871   4.021   4.446   9.330  0.0229 -0.5250 -0.2809
  106OSM   H11G10872   3.928   4.544   9.223 -0.7444  0.0225 -1.2681
  106OSM   C12F10873   3.940   4.331   9.159  0.3271 -0.5362 -0.5534
  106OSM   H12F10874   3.953   4.231   9.206  1.5866  0.0105  0.3237
  106OSM   H12G10875   4.035   4.355   9.106 -0.1383 -0.0403 -1.1795
  106OSM   C13F10876   3.826   4.345   9.059 -0.5378 -0.5359  0.6614
  106OSM   H13F10877   3.818   4.446   9.012  1.0334 -0.9613 -0.6175
  106OSM   H13G10878   3.728   4.326   9.107 -2.0948 -1.0312 -2.4384
  106OSM   C14F10879   3.823   4.251   8.945  0.0045 -0.1938  0.0782
  106OSM   H14F10880   3.724   4.248   8.895  0.1588  1.4987 -0.3865
  106OSM   H14G10881   3.844   4.147   8.980 -0.5956 -1.0171 -1.8280
  106OSM   C15F10882   3.938   4.289   8.846 -0.0843  0.2482  0.1320
  106OSM   H15F10883   4.038   4.278   8.895 -0.6146 -0.3480  1.1067
  106OSM   H15G10884   3.936   4.398   8.825 -3.0521  0.4741  1.1769
  106OSM   C16F10885   3.921   4.210   8.713  0.1679  0.1244 -0.5636
  106OSM   H16F10886   3.818   4.223   8.673  0.6375 -2.0198 -2.7498
  106OSM   H16G10887   3.930   4.102   8.737  6.1199  0.0724 -1.5787
  106OSM   C17F10888   4.017   4.233   8.599  0.1866 -0.2911 -0.1911
  106OSM   H17F10889   4.123   4.224   8.632  0.2463 -0.7512 -0.4920
  106OSM   H17G10890   3.993   4.334   8.559  1.1063  0.9315  2.1868
  106OSM   C18F10891   3.996   4.128   8.485 -1.1383 -0.3118 -0.6631
  106OSM   H18F10892   4.083   4.128   8.416  2.1536  0.8346  3.0816
  106OSM   H18G10893   3.897   4.135   8.434 -1.0161  1.7763 -0.7108
  106OSM   H18H10894   3.986   4.024   8.524 -3.2913 -0.1587 -0.6977
  107OSM      N10895   0.638   1.978  10.808 -0.2291  0.9237 -0.6423
  107OSM    C1510896   0.675   1.832  10.794  0.7554  0.8945  0.7289
  107OSM   H15A10897   0.778   1.822  10.761  0.4166  1.5477 -0.6123
  107OSM   H15B10898   0.605   1.789  10.725 -1.1836  1.1759  2.4196
  107OSM   H15C10899   0.666   1.777  10.887 -0.0086  0.3429  0.3351
  107OSM    C1410900   0.513   1.979  10.892  0.7521  0.5661  0.4847
  107OSM   H14A10901   0.528   1.907  10.971 -0.6758 -0.2856  0.0036
  107OSM   H14B10902   0.431   1.947  10.831  1.4803 -2.3420  0.8905
  107OSM   H14C10903   0.483   2.078  10.922 -0.8556  0.4600 -0.6468
  107OSM    C1310904   0.754   2.026  10.893  0.2191 -0.0135 -0.6028
  107OSM   H13A10905   0.847   2.015  10.838  0.0497  1.6854 -1.2914
  107OSM   H13B10906   0.762   1.967  10.984  0.1940  1.6702  0.5404
  107OSM   H13C10907   0.742   2.127  10.928  0.2636 -0.2088 -0.0116
  107OSM    C1210908   0.624   2.060  10.686 -0.5184 -0.6979 -0.2365
  107OSM   H12A10909   0.616   2.164  10.714 -3.3817 -1.2728  1.4706
  107OSM   H12B10910   0.528   2.036  10.642 -1.2290  0.8022  0.4209
  107OSM    C1110911   0.736   2.041  10.573  0.3191  0.3957  0.9100
  107OSM   H11A10912   0.722   2.111  10.489 -1.7338  2.1897  2.6450
  107OSM   H11B10913   0.720   1.938  10.534 -1.2763 -0.0410  2.5904
  107OSM      P10914   0.977   2.144  10.609 -0.0646 -0.3256 -0.2248
  107OSM    O1310915   0.904   2.268  10.637  0.2561  0.2908  0.5172
  107OSM    O1410916   1.097   2.124  10.692  0.4946  0.3131  0.3769
  107OSM    O1110917   1.009   2.122  10.450 -0.3380 -0.7289 -0.3744
  107OSM    O1210918   0.870   2.034  10.620 -0.0551 -0.5035 -0.4862
  107OSM    C1S10919   0.997   2.231  10.360 -0.5397 -0.1095  0.3276
  107OSM    H1S10920   1.090   2.293  10.358  0.4037 -1.4650 -2.2245
  107OSM    H1T10921   0.909   2.294  10.384 -1.6795 -2.5944  3.2591
  107OSM     NF10922   1.020   2.306  10.122  0.0727 -0.0459 -0.4142
  107OSM    HNF10923   0.941   2.361  10.096 -0.4887  1.1974  3.3245
  107OSM    C2S10924   1.002   2.183  10.211  0.1889 -0.9470  0.1338
  107OSM    H2S10925   1.080   2.105  10.204  1.4725  0.3650 -0.9756
  107OSM    C3S10926   0.876   2.111  10.172  0.2928  0.5575 -0.3403
  107OSM    H3S10927   0.785   2.171  10.196 -0.2091 -0.3334  0.0386
  107OSM     O310928   0.859   1.989  10.248  0.1917 -0.0146  0.4377
  107OSM    HO310929   0.913   2.020  10.321  0.6474  0.0415  0.0777
  107OSM    C4S10930   0.872   2.076  10.026 -0.0212 -0.9987 -0.0817
  107OSM    H4S10931   0.953   2.012   9.988  1.4667  0.4519  0.4562
  107OSM    C5S10932   0.790   2.150   9.942 -0.0857 -0.0218  0.7409
  107OSM    H5S10933   0.743   2.237   9.989  3.0345  1.0233  2.1762
  107OSM    C6S10934   0.788   2.113   9.797 -0.5093 -0.5093 -0.2459
  107OSM    H6S10935   0.696   2.055   9.775  0.3854 -1.2933 -2.1813
  107OSM    H6T10936   0.871   2.044   9.770 -0.5590 -0.2141 -1.2059
  107OSM    C7S10937   0.799   2.233   9.704  0.0796  0.0838 -0.5616
  107OSM    H7S10938   0.898   2.282   9.710 -0.4911  1.1578  0.4147
  107OSM    H7T10939   0.713   2.301   9.718  1.2730  1.2174  1.8838
  107OSM    C8S10940   0.803   2.189   9.560  0.3767  0.0145  0.3555
  107OSM    H8S10941   0.709   2.133   9.539  0.3842 -0.9871  2.6181
  107OSM    H8T10942   0.886   2.117   9.542 -0.3291 -0.4063 -1.4168
  107OSM    C9S10943   0.819   2.295   9.449 -0.6440 -0.3537  0.0462
  107OSM    H9S10944   0.914   2.353   9.458  0.1848 -1.2623 -2.0958
  107OSM    H9T10945   0.734   2.366   9.443  0.3734  0.8056 -1.6251
  107OSM   C10S10946   0.824   2.240   9.305  0.3467 -0.0149 -0.3809
  107OSM   H10S10947   0.922   2.186   9.305  0.3415 -0.1167  1.7933
  107OSM   H10T10948   0.842   2.329   9.241 -2.9157  1.5491  0.6503
  107OSM   C11S10949   0.699   2.161   9.259 -0.2154  0.0599 -0.6806
  107OSM   H11S10950   0.605   2.216   9.279 -0.3886 -0.4731  0.0084
  107OSM   H11T10951   0.694   2.063   9.310  1.8756  0.4226  0.3399
  107OSM   C12S10952   0.708   2.132   9.104  0.3659 -0.1456 -0.2137
  107OSM   H12S10953   0.620   2.066   9.084 -0.1243  0.0166  1.2820
  107OSM   H12T10954   0.799   2.071   9.088  0.2740 -0.3664  0.0755
  107OSM   C13S10955   0.703   2.254   9.019 -0.3351  0.5043 -0.3986
  107OSM   H13S10956   0.805   2.294   9.000  0.6224 -1.0258  1.2816
  107OSM   H13T10957   0.645   2.335   9.069 -0.9499 -1.8328  3.0127
  107OSM   C14S10958   0.637   2.223   8.881 -0.2746 -1.1115 -0.0179
  107OSM   H14S10959   0.563   2.142   8.896  0.0312 -1.9932 -2.7845
  107OSM   H14T10960   0.722   2.181   8.823 -0.2863 -1.8096  0.4560
  107OSM   C15S10961   0.569   2.345   8.818  0.2884  0.1515  0.5252
  107OSM   H15S10962   0.500   2.382   8.897  0.1969 -0.0409  0.5338
  107OSM   H15T10963   0.511   2.307   8.732  0.5871 -0.9280  0.7852
  107OSM   C16S10964   0.656   2.467   8.780 -0.3601  0.4024  0.1726
  107OSM   H16S10965   0.736   2.487   8.854  1.7219 -2.5100 -1.1022
  107OSM   H16T10966   0.589   2.556   8.784  0.1667  0.7727  0.8707
  107OSM   C17S10967   0.711   2.465   8.637 -0.0480  0.5053  0.6729
  107OSM   H17S10968   0.626   2.443   8.570  0.8480 -0.4381 -0.1907
  107OSM   H17T10969   0.768   2.371   8.620 -2.0050 -0.7529  0.8170
  107OSM   C18S10970   0.799   2.578   8.587 -0.5573  0.4238 -0.3018
  107OSM   H18S10971   0.731   2.663   8.566  0.7423  1.7647  0.7693
  107OSM   H18T10972   0.861   2.561   8.496 -0.4627 -4.0495  0.3478
  107OSM   H18U10973   0.862   2.602   8.675 -0.0085 -1.0733 -0.2550
  107OSM    C1F10974   1.142   2.363  10.110 -0.4294  0.3940 -0.1073
  107OSM     OF10975   1.241   2.293  10.135 -0.5007  0.3812  0.1674
  107OSM    C2F10976   1.153   2.500  10.058 -0.3636  0.4366  0.2307
  107OSM    H2F10977   1.104   2.559  10.138  2.0697 -0.9387  2.9180
  107OSM    H2G10978   1.090   2.510   9.968  0.7845  0.2818 -0.6131
  107OSM    C3F10979   1.299   2.545  10.043 -0.1141  0.8936  0.7589
  107OSM    H3F10980   1.346   2.474   9.971 -2.3793  2.1743 -2.1652
  107OSM    H3G10981   1.361   2.545  10.135  1.3174  1.2920 -0.1691
  107OSM    C4F10982   1.306   2.687   9.993 -0.2806 -0.1647 -0.0337
  107OSM    H4F10983   1.408   2.727  10.010  0.8871 -1.8113 -2.6030
  107OSM    H4G10984   1.242   2.751  10.058  1.0781  1.9364 -0.6707
  107OSM    C5F10985   1.253   2.709   9.850  0.6437 -0.7395  1.5906
  107OSM    H5F10986   1.246   2.820   9.839  3.9077 -0.3369  2.5091
  107OSM    H5G10987   1.149   2.669   9.843  0.1467  0.3019  2.5539
  107OSM    C6F10988   1.342   2.651   9.735  0.0717 -0.0288  0.7464
  107OSM    H6F10989   1.406   2.570   9.775 -0.4349 -0.6606  0.2993
  107OSM    H6G10990   1.414   2.729   9.702  0.0820  0.1317  1.1378
  107OSM    C7F10991   1.270   2.596   9.618 -0.1904 -0.0151  0.3240
  107OSM    H7F10992   1.215   2.684   9.579  1.2951  1.1350  0.7185
  107OSM    H7G10993   1.203   2.512   9.646  0.0955  0.2406  1.8968
  107OSM    C8F10994   1.372   2.539   9.516 -0.4953 -0.4554 -0.2123
  107OSM    H8F10995   1.448   2.481   9.573 -0.2498  1.1431  1.1931
  107OSM    H8G10996   1.423   2.628   9.473 -0.1895  0.1637  1.3581
  107OSM    C9F10997   1.310   2.453   9.416 -0.0048  0.2794 -0.4538
  107OSM    H9F10998   1.229   2.388   9.453  0.3939 -0.4551 -0.8676
  107OSM   C10F10999   1.352   2.441   9.291 -0.0862  0.5480 -0.8640
  107OSM   H10F11000   1.307   2.366   9.224  1.0805 -1.5442  0.5701
  107OSM   C11F11001   1.471   2.510   9.229 -0.0459  0.2449 -0.6142
  107OSM   H11F11002   1.527   2.438   9.166  0.6354  1.8890 -1.9578
  107OSM   H11G11003   1.534   2.548   9.312  2.1599 -3.6226 -0.2768
  107OSM   C12F11004   1.420   2.626   9.142 -0.1500 -0.3930  0.1286
  107OSM   H12F11005   1.497   2.705   9.141 -2.2237  1.7656  1.2536
  107OSM   H12G11006   1.341   2.688   9.189  1.1893  1.0452  0.5653
  107OSM   C13F11007   1.389   2.575   9.000 -0.3751 -0.3653 -0.2484
  107OSM   H13F11008   1.286   2.532   8.996 -0.0735 -1.0877 -0.3794
  107OSM   H13G11009   1.455   2.490   8.975 -0.1918  0.5637 -3.3435
  107OSM   C14F11010   1.399   2.690   8.889  0.0348 -0.5365 -0.7074
  107OSM   H14F11011   1.350   2.783   8.923  3.2503  2.1177 -2.6729
  107OSM   H14G11012   1.354   2.658   8.792  2.4890  1.4479 -2.6635
  107OSM   C15F11013   1.547   2.725   8.853  0.0068 -0.1517 -0.1376
  107OSM   H15F11014   1.612   2.738   8.943  0.5605  1.6538 -0.7432
  107OSM   H15G11015   1.537   2.823   8.801 -0.1307  1.0353  2.0147
  107OSM   C16F11016   1.604   2.630   8.752  0.5419  0.4389  1.0263
  107OSM   H16F11017   1.540   2.631   8.661  0.1674 -1.3969  1.2365
  107OSM   H16G11018   1.607   2.526   8.791 -1.6786 -1.0998 -2.3740
  107OSM   C17F11019   1.749   2.669   8.709 -0.3444  0.5889 -0.3838
  107OSM   H17F11020   1.801   2.667   8.807  2.0206  0.5909 -1.5766
  107OSM   H17G11021   1.759   2.767   8.659 -2.6620  0.9163 -0.3225
  107OSM   C18F11022   1.820   2.557   8.626  0.2509 -1.2825 -0.4248
  107OSM   H18F11023   1.758   2.553   8.534 -2.3227  3.2941  0.7904
  107OSM   H18G11024   1.836   2.462   8.681  1.0403 -1.1326 -0.3833
  107OSM   H18H11025   1.921   2.591   8.595 -1.0152  2.7749 -0.6482
  108OSM      N11026   5.888   2.154  10.981 -0.0638  0.7557  0.1826
  108OSM    C1511027   5.814   2.037  11.039  1.0615 -0.3766 -0.0922
  108OSM   H15A11028   5.718   2.029  10.990  0.6433  1.9093  0.2249
  108OSM   H15B11029   5.788   2.057  11.142  1.8613 -3.5456  0.8217
  108OSM   H15C11030   5.876   1.949  11.041 -0.9376 -1.8360  0.4517
  108OSM    C1411031   5.813   2.283  11.001  0.2026 -0.1950 -0.2163
  108OSM   H14A11032   5.788   2.318  11.100  0.1237  1.4483 -0.7901
  108OSM   H14B11033   5.716   2.289  10.954  0.0769 -0.8604 -0.0535
  108OSM   H14C11034   5.869   2.370  10.971  2.5309 -0.9920  1.5229
  108OSM    C1311035   6.022   2.175  11.047 -0.6238 -0.5125  0.2133
  108OSM   H13A11036   6.100   2.110  11.011  1.1411  1.4652  0.2781
  108OSM   H13B11037   6.009   2.177  11.155  1.3518  3.4663  0.5655
  108OSM   H13C11038   6.051   2.277  11.028 -0.9340 -0.5379 -0.4222
  108OSM    C1211039   5.913   2.116  10.830  0.1043  0.4089 -0.3026
  108OSM   H12A11040   5.991   2.042  10.825 -0.3615 -0.2067  1.0707
  108OSM   H12B11041   5.954   2.208  10.791  1.0636  0.9233  1.7791
  108OSM    C1111042   5.795   2.076  10.751  0.1555 -0.1860 -0.3466
  108OSM   H11A11043   5.748   1.980  10.783  0.4782 -0.4697 -0.7068
  108OSM   H11B11044   5.825   2.066  10.644 -1.4897  0.7361 -0.9195
  108OSM      P11045   5.681   2.287  10.636  0.8549  0.3461  0.0385
  108OSM    O1311046   5.558   2.375  10.645 -0.1263  0.1202  0.1651
  108OSM    O1411047   5.807   2.358  10.645 -0.3025 -0.0828  1.1728
  108OSM    O1111048   5.684   2.204  10.498  0.3371 -0.1842 -0.2338
  108OSM    O1211049   5.685   2.174  10.752 -0.4141  0.2015 -0.7650
  108OSM    C1S11050   5.609   2.091  10.473  0.3010  0.1361  0.4916
  108OSM    H1S11051   5.529   2.086  10.549  1.4630  1.0431  1.8110
  108OSM    H1T11052   5.673   2.000  10.469 -0.9785 -0.8530 -3.7975
  108OSM     NF11053   5.448   1.981  10.308 -0.4892 -0.3725 -0.2120
  108OSM    HNF11054   5.481   1.896  10.268 -2.5876 -1.6822  0.6613
  108OSM    C2S11055   5.544   2.091  10.325 -0.6916 -0.5678  0.3362
  108OSM    H2S11056   5.492   2.188  10.308 -0.6718 -0.8377 -1.3470
  108OSM    C3S11057   5.654   2.088  10.210  0.0439 -0.2382 -0.3427
  108OSM    H3S11058   5.689   1.983  10.204  0.1931 -0.2810  0.9339
  108OSM     O311059   5.757   2.187  10.225  0.3682  0.3456  0.4046
  108OSM    HO311060   5.759   2.220  10.315  1.8433  1.4492 -0.0031
  108OSM    C4S11061   5.571   2.109  10.083 -0.4575 -0.1322 -0.5595
  108OSM    H4S11062   5.542   2.215  10.078 -1.4217 -0.3426  0.3012
  108OSM    C5S11063   5.562   2.037   9.969  0.3120 -0.3718 -0.4717
  108OSM    H5S11064   5.612   1.940   9.951  1.3665 -0.0223  0.4742
  108OSM    C6S11065   5.486   2.096   9.851 -0.1626  0.2716  1.2307
  108OSM    H6S11066   5.448   2.197   9.875  0.7337  1.3230 -1.4256
  108OSM    H6T11067   5.396   2.035   9.828  1.1388 -1.5424  0.7332
  108OSM    C7S11068   5.568   2.099   9.722  0.9425  0.3468 -0.5222
  108OSM    H7S11069   5.607   1.999   9.691 -1.7877 -0.7652 -0.6281
  108OSM    H7T11070   5.656   2.166   9.738  0.4414  0.3805  2.6195
  108OSM    C8S11071   5.492   2.162   9.605  0.1530  0.2137  0.7571
  108OSM    H8S11072   5.442   2.250   9.651 -1.1172 -0.6000  0.9825
  108OSM    H8T11073   5.410   2.100   9.563 -0.5666  1.7264 -0.1866
  108OSM    C9S11074   5.600   2.206   9.497  0.0047 -0.1661 -0.8467
  108OSM    H9S11075   5.673   2.125   9.481  1.4452  0.9152  0.0493
  108OSM    H9T11076   5.655   2.290   9.544 -1.6397  0.4468  0.0794
  108OSM   C10S11077   5.545   2.230   9.363  0.1512 -0.0003  0.4412
  108OSM   H10S11078   5.475   2.315   9.378 -1.5805 -1.0878 -1.0789
  108OSM   H10T11079   5.489   2.142   9.326 -1.1864 -0.1668  2.6823
  108OSM   C11S11080   5.663   2.276   9.276 -0.0702 -0.2557 -0.0652
  108OSM   H11S11081   5.750   2.214   9.306  0.2946  1.4456  2.7893
  108OSM   H11T11082   5.692   2.374   9.320 -2.5021  0.0540  1.0414
  108OSM   C12S11083   5.636   2.301   9.131  0.2037  0.2551 -0.0704
  108OSM   H12S11084   5.586   2.211   9.090  2.4039 -0.4199 -1.4411
  108OSM   H12T11085   5.725   2.333   9.073  0.1131  0.2203 -0.2296
  108OSM   C13S11086   5.522   2.412   9.118 -0.1459  0.1351  0.1519
  108OSM   H13S11087   5.550   2.499   9.180  0.8429  0.7925 -1.1877
  108OSM   H13T11088   5.427   2.372   9.160  0.5520  0.0615  1.7087
  108OSM   C14S11089   5.505   2.451   8.973  0.7745 -0.1844 -0.0278
  108OSM   H14S11090   5.470   2.371   8.904  1.3276  0.9303 -1.6631
  108OSM   H14T11091   5.612   2.451   8.943  0.6980 -2.8259 -0.5138
  108OSM   C15S11092   5.448   2.596   8.952  0.3462 -0.0875 -1.0960
  108OSM   H15S11093   5.503   2.667   9.018 -2.1909  0.7858  0.2072
  108OSM   H15T11094   5.343   2.597   8.987  0.8889  1.7241  0.6317
  108OSM   C16S11095   5.459   2.652   8.807 -0.4395  0.3384 -0.2811
  108OSM   H16S11096   5.567   2.667   8.788 -0.2750 -0.3555  0.0692
  108OSM   H16T11097   5.418   2.755   8.801 -1.6198  0.1890  3.1729
  108OSM   C17S11098   5.398   2.556   8.706  0.1779  0.5987  0.1069
  108OSM   H17S11099   5.293   2.520   8.717  1.1178 -2.1077  0.9071
  108OSM   H17T11100   5.454   2.460   8.709 -0.9674 -0.0818  0.5167
  108OSM   C18S11101   5.399   2.626   8.568 -0.7293 -0.8737 -0.3754
  108OSM   H18S11102   5.498   2.672   8.550 -1.2720  2.8633  4.2546
  108OSM   H18T11103   5.329   2.713   8.571 -1.9916 -1.8887  1.6563
  108OSM   H18U11104   5.362   2.558   8.489 -0.9917  0.4707 -1.4582
  108OSM    C1F11105   5.339   1.972  10.392  0.8597 -0.2111 -0.3331
  108OSM     OF11106   5.320   2.042  10.491 -0.8699 -0.9384 -0.2200
  108OSM    C2F11107   5.234   1.856  10.357 -0.1497 -1.1096  0.2584
  108OSM    H2F11108   5.283   1.766  10.399  0.6535 -0.5995  0.4545
  108OSM    H2G11109   5.238   1.846  10.246  2.2755 -0.6941  0.2454
  108OSM    C3F11110   5.082   1.883  10.400 -0.1221  0.5649  0.4282
  108OSM    H3F11111   5.078   1.886  10.511  1.7299  2.2851  0.5055
  108OSM    H3G11112   5.029   1.788  10.376  0.1993  0.4275  0.2456
  108OSM    C4F11113   5.011   1.999  10.331  0.0380 -0.3376 -0.2713
  108OSM    H4F11114   5.089   2.073  10.302  0.4451 -0.0426  1.4499
  108OSM    H4G11115   4.946   2.057  10.400  0.9262  1.3462 -0.8072
  108OSM    C5F11116   4.917   1.947  10.216  0.5389 -0.1581 -0.0725
  108OSM    H5F11117   4.857   2.029  10.171  1.7723  1.1869  0.6570
  108OSM    H5G11118   4.839   1.883  10.262  2.2319 -2.8621 -0.6883
  108OSM    C6F11119   4.985   1.865  10.099 -0.5309 -0.4303 -0.5800
  108OSM    H6F11120   5.059   1.790  10.133 -1.0030 -0.8228 -0.3958
  108OSM    H6G11121   5.041   1.949  10.052  0.9472 -0.0884  1.6092
  108OSM    C7F11122   4.891   1.799   9.991 -0.5548 -0.1332 -0.1499
  108OSM    H7F11123   4.819   1.882   9.975 -1.1458 -0.4674  0.7333
  108OSM    H7G11124   4.833   1.718  10.040 -1.7769  0.0807 -1.2018
  108OSM    C8F11125   4.975   1.749   9.874  0.0052  0.0423  0.2122
  108OSM    H8F11126   5.061   1.684   9.904 -0.9881 -1.8180 -0.8002
  108OSM    H8G11127   5.019   1.839   9.827  0.2357 -1.0483 -1.7718
  108OSM    C9F11128   4.910   1.668   9.763 -0.8924  0.3888 -0.2984
  108OSM    H9F11129   4.908   1.558   9.766 -2.6848  0.4149  1.4924
  108OSM   C10F11130   4.844   1.726   9.666  0.1307 -0.0880  0.6345
  108OSM   H10F11131   4.812   1.664   9.580  0.3499 -0.1609  0.6041
  108OSM   C11F11132   4.818   1.876   9.659  0.4663 -0.4400  0.2683
  108OSM   H11F11133   4.818   1.934   9.753  0.8139  1.4928 -0.8610
  108OSM   H11G11134   4.718   1.901   9.618  0.5932 -0.3173  0.0299
  108OSM   C12F11135   4.919   1.937   9.555  0.3449  0.1238 -0.6933
  108OSM   H12F11136   5.024   1.929   9.591  0.5327  0.1833 -1.2168
  108OSM   H12G11137   4.901   2.046   9.542 -1.3203 -0.4129 -3.4951
  108OSM   C13F11138   4.921   1.872   9.417 -0.0628  0.5057  0.8149
  108OSM   H13F11139   4.953   1.766   9.424 -1.7041 -0.3027 -2.0824
  108OSM   H13G11140   5.002   1.926   9.364 -0.1737 -1.2872 -1.3309
  108OSM   C14F11141   4.792   1.879   9.333  0.3525  0.0117  0.2055
  108OSM   H14F11142   4.757   1.984   9.335 -2.7255 -0.9079 -0.5376
  108OSM   H14G11143   4.715   1.825   9.393 -2.7901  1.5862 -2.1205
  108OSM   C15F11144   4.798   1.824   9.186 -0.0085 -0.3098 -0.4268
  108OSM   H15F11145   4.799   1.713   9.191  1.1439 -0.2685  1.0040
  108OSM   H15G11146   4.891   1.865   9.141  0.1939 -0.1236  0.1458
  108OSM   C16F11147   4.685   1.854   9.096 -0.4601 -0.0767  0.2381
  108OSM   H16F11148   4.672   1.963   9.080 -1.2792 -0.3180 -0.8628
  108OSM   H16G11149   4.593   1.818   9.147 -1.5382  1.3827 -0.5995
  108OSM   C17F11150   4.692   1.793   8.954  0.8023 -0.1030  0.2083
  108OSM   H17F11151   4.687   1.687   8.988  1.6817 -0.0882  0.4023
  108OSM   H17G11152   4.794   1.794   8.911  0.4890  1.4861 -0.5760
  108OSM   C18F11153   4.590   1.829   8.837 -0.5234 -0.2142 -0.7328
  108OSM   H18F11154   4.600   1.939   8.824  1.5184 -0.3643 -0.7765
  108OSM   H18G11155   4.486   1.797   8.860 -1.4157  1.6412 -1.9390
  108OSM   H18H11156   4.615   1.784   8.738  0.1806  1.0509 -1.1519
  109OSM      N11157   1.179   1.786  10.483  0.1245  0.0657 -0.4212
  109OSM    C1511158   1.240   1.886  10.401 -0.3655  0.6620 -0.0916
  109OSM   H15A11159   1.342   1.908  10.429 -0.7018 -0.2265  2.0151
  109OSM   H15B11160   1.188   1.977  10.426 -1.4165  0.2852 -0.8418
  109OSM   H15C11161   1.231   1.863  10.296 -0.8087 -1.1356  0.3051
  109OSM    C1411162   1.196   1.829  10.630 -0.3627  0.4833  0.4408
  109OSM   H14A11163   1.149   1.926  10.639  0.1373  0.8089 -0.2996
  109OSM   H14B11164   1.299   1.814  10.658 -0.5330  0.8928  1.2906
  109OSM   H14C11165   1.137   1.765  10.693  1.1865 -1.2768  0.2116
  109OSM    C1311166   1.034   1.779  10.447 -0.6488  0.6149 -0.8456
  109OSM   H13A11167   0.988   1.698  10.502 -3.9955  3.5278  1.1378
  109OSM   H13B11168   1.011   1.779  10.342  1.5965  1.4652 -1.3896
  109OSM   H13C11169   0.985   1.866  10.489 -1.1800 -1.2191  2.7423
  109OSM    C1211170   1.251   1.651  10.459  0.1916 -0.2437 -0.8004
  109OSM   H12A11171   1.228   1.616  10.360 -0.5373  0.5237 -0.9183
  109OSM   H12B11172   1.197   1.578  10.517 -1.5533 -0.6517 -2.8216
  109OSM    C1111173   1.404   1.649  10.481  0.2077 -0.3105  0.4109
  109OSM   H11A11174   1.441   1.735  10.421  0.3640 -0.0114  0.9275
  109OSM   H11B11175   1.455   1.557  10.445  1.4534 -0.1169  1.5799
  109OSM      P11176   1.583   1.692  10.654 -0.1246 -0.5391 -0.3074
  109OSM    O1311177   1.593   1.769  10.780  0.6211  0.0636 -1.1401
  109OSM    O1411178   1.653   1.561  10.653  0.4935  0.1058  0.3150
  109OSM    O1111179   1.654   1.781  10.539  0.1063  0.1264 -0.1396
  109OSM    O1211180   1.439   1.667  10.615  0.5421 -0.1287 -0.4382
  109OSM    C1S11181   1.627   1.909  10.489 -0.4928 -0.2835  0.3185
  109OSM    H1S11182   1.660   1.982  10.567  0.9745 -1.0201  0.4183
  109OSM    H1T11183   1.516   1.918  10.486 -0.4607  0.0883  0.2466
  109OSM     NF11184   1.619   2.057  10.302 -0.2700 -0.1586 -0.2403
  109OSM    HNF11185   1.552   2.053  10.229  0.3530  0.5843 -0.8674
  109OSM    C2S11186   1.684   1.934  10.349  0.1837 -0.0899 -0.0608
  109OSM    H2S11187   1.794   1.952  10.350 -0.1066  2.1431 -1.4399
  109OSM    C3S11188   1.665   1.805  10.253  0.0399 -0.1358 -0.0262
  109OSM    H3S11189   1.557   1.790  10.232  0.2614 -2.2196  0.1494
  109OSM     O311190   1.717   1.679  10.315 -0.4358  0.0178  0.1424
  109OSM    HO311191   1.732   1.698  10.408  1.9932  0.1928 -0.2177
  109OSM    C4S11192   1.729   1.838  10.123 -0.4038  1.0417 -0.3988
  109OSM    H4S11193   1.661   1.839  10.037 -0.0978 -3.3729 -0.9002
  109OSM    C5S11194   1.865   1.833  10.099  0.6348  0.0369 -0.1364
  109OSM    H5S11195   1.934   1.812  10.183  1.2017  2.3460  0.0610
  109OSM    C6S11196   1.929   1.857   9.963  0.4491  0.7065  0.0301
  109OSM    H6S11197   2.028   1.808   9.957  0.8074  1.2959  0.8819
  109OSM    H6T11198   1.947   1.966   9.953 -0.3252  1.2270  3.1202
  109OSM    C7S11199   1.846   1.796   9.841 -0.3135 -0.4223 -0.8674
  109OSM    H7S11200   1.747   1.845   9.833  0.0230  0.6892  1.0491
  109OSM    H7T11201   1.821   1.690   9.864  1.1895 -0.3396  1.5394
  109OSM    C8S11202   1.922   1.805   9.708  0.6425  0.2058 -0.4600
  109OSM    H8S11203   2.006   1.734   9.696 -0.2410 -1.1754  1.1393
  109OSM    H8T11204   1.970   1.902   9.684 -0.5277  1.1656  0.9031
  109OSM    C9S11205   1.837   1.757   9.591 -0.6809 -0.2173 -0.1706
  109OSM    H9S11206   1.741   1.812   9.601 -0.5728  0.3699 -1.9821
  109OSM    H9T11207   1.805   1.651   9.602 -2.9948  0.3336 -1.0298
  109OSM   C10S11208   1.911   1.774   9.456 -0.3745 -0.2574  0.2283
  109OSM   H10S11209   1.995   1.702   9.460 -1.1863 -1.1798  1.3028
  109OSM   H10T11210   1.957   1.875   9.466  0.9529 -0.9120  1.0530
  109OSM   C11S11211   1.826   1.736   9.334  0.8659  0.6017 -0.2324
  109OSM   H11S11212   1.727   1.787   9.329  0.6275  0.1477 -0.1772
  109OSM   H11T11213   1.802   1.628   9.346 -0.0522  0.8116 -0.0654
  109OSM   C12S11214   1.908   1.774   9.215 -0.4310  0.0680  0.0836
  109OSM   H12S11215   2.007   1.730   9.239 -1.5582 -2.2829  0.7221
  109OSM   H12T11216   1.932   1.882   9.208  2.3071 -0.4512  0.4094
  109OSM   C13S11217   1.856   1.711   9.081 -0.0536  0.6760 -0.1570
  109OSM   H13S11218   1.766   1.772   9.058 -0.4695  0.1875  0.1759
  109OSM   H13T11219   1.822   1.609   9.107  1.2440  0.6221  1.5185
  109OSM   C14S11220   1.950   1.734   8.968 -0.3851 -0.0218 -0.3417
  109OSM   H14S11221   2.052   1.706   9.004  0.0895  1.0726 -0.7912
  109OSM   H14T11222   1.959   1.844   8.956 -0.3980 -0.0193 -0.3276
  109OSM   C15S11223   1.931   1.650   8.847  0.2110  0.3691  0.2146
  109OSM   H15S11224   1.912   1.548   8.887 -1.4241  0.3263 -0.5759
  109OSM   H15T11225   2.013   1.650   8.771 -0.6883 -1.8107 -0.8464
  109OSM   C16S11226   1.806   1.680   8.767 -0.2661  0.1112  0.8951
  109OSM   H16S11227   1.829   1.765   8.700  0.2884 -2.9504 -3.1514
  109OSM   H16T11228   1.716   1.691   8.832  0.9874  2.2961  2.3900
  109OSM   C17S11229   1.775   1.557   8.676 -0.2170  0.4070 -0.0689
  109OSM   H17S11230   1.769   1.462   8.733 -1.4965  0.3692 -0.2400
  109OSM   H17T11231   1.872   1.552   8.622 -0.1173 -0.8231  0.1851
  109OSM   C18S11232   1.651   1.576   8.587 -0.4384  0.5775  0.0825
  109OSM   H18S11233   1.644   1.665   8.520  1.2173  1.1367  0.6082
  109OSM   H18T11234   1.574   1.586   8.667  0.0986 -1.0687  0.8494
  109OSM   H18U11235   1.625   1.480   8.537 -2.2833  1.2795 -0.3819
  109OSM    C1F11236   1.659   2.175  10.350  0.6163  0.8028  0.5623
  109OSM     OF11237   1.762   2.178  10.416 -0.2504  0.3006  0.3035
  109OSM    C2F11238   1.585   2.296  10.298  0.3036 -0.2717 -0.0718
  109OSM    H2F11239   1.503   2.325  10.367  0.5530  0.9824 -0.2849
  109OSM    H2G11240   1.545   2.272  10.197 -1.7725  1.3044  0.3098
  109OSM    C3F11241   1.677   2.415  10.284  0.1191 -0.0109  0.2492
  109OSM    H3F11242   1.715   2.445  10.384  1.6580 -1.4603  0.1413
  109OSM    H3G11243   1.622   2.501  10.241 -1.1394 -0.3897  1.0346
  109OSM    C4F11244   1.792   2.398  10.178 -0.0873  0.0671  0.0797
  109OSM    H4F11245   1.885   2.362  10.227 -0.0826  0.1004  0.0960
  109OSM    H4G11246   1.824   2.500  10.147 -0.8637  0.1338 -0.5255
  109OSM    C5F11247   1.749   2.328  10.047 -0.0722 -0.1486 -0.0058
  109OSM    H5F11248   1.650   2.370  10.021  0.2743  0.6955 -0.0049
  109OSM    H5G11249   1.736   2.220  10.069 -0.0934 -0.0901  0.2699
  109OSM    C6F11250   1.842   2.337   9.921 -0.4235 -0.3814  0.2764
  109OSM    H6F11251   1.924   2.262   9.913 -0.4341 -0.3076 -0.5906
  109OSM    H6G11252   1.887   2.439   9.917 -3.2924  0.9490 -0.4323
  109OSM    C7F11253   1.748   2.315   9.803 -0.0129  0.2631  1.1030
  109OSM    H7F11254   1.668   2.392   9.808 -0.7240 -0.4547  1.0738
  109OSM    H7G11255   1.703   2.213   9.805  0.7489 -0.2033 -1.5547
  109OSM    C8F11256   1.816   2.334   9.660 -0.2482 -0.3056 -0.2327
  109OSM    H8F11257   1.895   2.256   9.673  0.0330  0.1692  1.0822
  109OSM    H8G11258   1.854   2.438   9.665 -0.6007 -0.1086 -1.4980
  109OSM    C9F11259   1.731   2.313   9.541 -0.3487 -0.2365 -0.3797
  109OSM    H9F11260   1.634   2.362   9.551  0.8920  2.3331 -0.1360
  109OSM   C10F11261   1.758   2.245   9.421 -0.6450  0.6726 -1.2014
  109OSM   H10F11262   1.679   2.262   9.347 -2.7510 -0.9262  0.5536
  109OSM   C11F11263   1.881   2.175   9.378 -0.0378 -0.0129 -0.2292
  109OSM   H11F11264   1.857   2.067   9.388  0.7536 -0.2204 -0.4808
  109OSM   H11G11265   1.960   2.200   9.452 -0.5509 -0.3145  0.4241
  109OSM   C12F11266   1.932   2.208   9.239  0.3415 -0.3839 -0.5580
  109OSM   H12F11267   2.021   2.143   9.225 -0.9159 -2.2193 -0.3158
  109OSM   H12G11268   1.948   2.318   9.237 -0.5744 -0.1072  2.2914
  109OSM   C13F11269   1.828   2.177   9.129 -0.3333 -0.8289 -0.5999
  109OSM   H13F11270   1.734   2.236   9.134  0.6674  0.9827 -1.8823
  109OSM   H13G11271   1.797   2.071   9.139 -0.0411 -0.8577  0.0653
  109OSM   C14F11272   1.899   2.211   8.990 -0.1852  0.8007  0.7824
  109OSM   H14F11273   2.006   2.242   8.990 -0.1986  1.2657 -2.6251
  109OSM   H14G11274   1.849   2.306   8.963  0.3777  1.2527  1.3078
  109OSM   C15F11275   1.892   2.118   8.863 -0.4308  0.8796  0.6019
  109OSM   H15F11276   1.945   2.020   8.868 -3.5360 -0.8681  2.3109
  109OSM   H15G11277   1.946   2.177   8.786 -2.3170  0.7954 -0.8821
  109OSM   C16F11278   1.753   2.081   8.818  0.0226  0.0083 -0.5330
  109OSM   H16F11279   1.698   2.026   8.897 -1.2266 -0.4607 -1.6987
  109OSM   H16G11280   1.752   2.020   8.725 -0.7778  0.8943 -1.1198
  109OSM   C17F11281   1.665   2.199   8.780 -0.4917 -0.0831  0.1012
  109OSM   H17F11282   1.710   2.259   8.697 -0.2623  2.2428  1.8120
  109OSM   H17G11283   1.629   2.257   8.867 -1.7613  0.1130 -0.5197
  109OSM   C18F11284   1.529   2.141   8.719 -0.4186  0.3918 -0.6510
  109OSM   H18F11285   1.539   2.070   8.634  0.2188 -2.4055  1.5892
  109OSM   H18G11286   1.473   2.231   8.688  1.2970  2.2056  1.1931
  109OSM   H18H11287   1.470   2.079   8.790 -0.4879  0.2144 -0.8635
  110OSM      N11288   4.281   6.004  11.034 -0.4415 -0.1821  1.0007
  110OSM    C1511289   4.308   5.872  11.106 -0.0476  0.6000 -0.6832
  110OSM   H15A11290   4.286   5.883  11.211  2.0157  1.5568 -0.2918
  110OSM   H15B11291   4.414   5.856  11.091  0.2780  0.9055  1.1068
  110OSM   H15C11292   4.244   5.799  11.059 -1.4748  2.5720 -1.9589
  110OSM    C1411293   4.139   6.025  11.032 -0.1603  0.2176 -0.2195
  110OSM   H14A11294   4.119   6.131  11.020 -1.4838 -0.1638 -1.7095
  110OSM   H14B11295   4.091   5.980  11.118 -3.2424 -0.2651 -2.0302
  110OSM   H14C11296   4.101   5.969  10.948 -0.5288 -0.4734  0.3971
  110OSM    C1311297   4.352   6.109  11.115  0.4207  0.6537  0.5982
  110OSM   H13A11298   4.329   6.209  11.080  0.6513 -0.0371 -1.6851
  110OSM   H13B11299   4.459   6.094  11.110  0.8494  2.7948  2.0526
  110OSM   H13C11300   4.322   6.096  11.218  1.1567  0.5679  0.8087
  110OSM    C1211301   4.341   6.003  10.887  1.1706  0.2438 -0.0698
  110OSM   H12A11302   4.313   6.091  10.831 -4.0505  0.8236  2.8710
  110OSM   H12B11303   4.290   5.918  10.843 -0.3029 -0.6653  3.1023
  110OSM    C1111304   4.494   5.979  10.874  0.0754  0.6888  0.5160
  110OSM   H11A11305   4.516   5.941  10.772 -0.3318  0.0600  0.6573
  110OSM   H11B11306   4.519   5.894  10.941 -2.9154 -1.3913 -0.7954
  110OSM      P11307   4.576   6.211  10.796 -0.4295  0.0330  0.1927
  110OSM    O1311308   4.456   6.221  10.715  0.6260 -0.0473  0.4227
  110OSM    O1411309   4.634   6.331  10.858 -0.2726  0.3908 -0.0456
  110OSM    O1111310   4.692   6.143  10.711  0.8620  0.0558  0.1831
  110OSM    O1211311   4.559   6.097  10.911 -0.1854 -0.1976 -0.4581
  110OSM    C1S11312   4.696   6.137  10.572  0.6018 -0.2088  0.1253
  110OSM    H1S11313   4.733   6.238  10.545  0.9051 -0.8160 -1.9466
  110OSM    H1T11314   4.591   6.133  10.536  0.2154  0.0713  1.1850
  110OSM     NF11315   4.784   6.045  10.360  0.8016  0.5411 -0.1005
  110OSM    HNF11316   4.726   5.992  10.299  1.2383  1.9924 -1.8446
  110OSM    C2S11317   4.780   6.027  10.508 -0.4828 -0.4410  0.4673
  110OSM    H2S11318   4.887   6.041  10.537 -0.5647  2.6487 -0.3963
  110OSM    C3S11319   4.737   5.886  10.558 -0.1916 -0.1001  0.4187
  110OSM    H3S11320   4.631   5.874  10.529 -0.0209 -0.8701  0.0889
  110OSM     O311321   4.726   5.868  10.695 -0.3095 -0.2587 -0.3734
  110OSM    HO311322   4.739   5.959  10.724 -0.1500 -0.5748  0.5873
  110OSM    C4S11323   4.815   5.772  10.498 -0.6894  1.1483  0.0798
  110OSM    H4S11324   4.912   5.742  10.541 -1.0674 -1.5816 -0.7667
  110OSM    C5S11325   4.769   5.685  10.408 -0.1668  0.1838  0.1831
  110OSM    H5S11326   4.665   5.691  10.371 -0.5684  0.5963  1.3078
  110OSM    C6S11327   4.845   5.565  10.359 -0.1751  1.0725 -0.4006
  110OSM    H6S11328   4.789   5.471  10.377 -0.9527  1.4271 -0.9005
  110OSM    H6T11329   4.938   5.546  10.417 -1.1726 -3.8269  0.0252
  110OSM    C7S11330   4.876   5.564  10.208 -0.0022  0.0301  0.7060
  110OSM    H7S11331   4.934   5.653  10.174  1.5767 -1.8944 -1.9699
  110OSM    H7T11332   4.774   5.571  10.164  0.0760  3.8187  0.7940
  110OSM    C8S11333   4.949   5.441  10.147 -0.5377 -0.3140 -0.3743
  110OSM    H8S11334   4.875   5.362  10.124 -1.5016  0.3126  0.4762
  110OSM    H8T11335   5.022   5.409  10.225  0.6406  1.6076 -0.6038
  110OSM    C9S11336   5.033   5.466  10.017  0.1337 -0.4043 -0.5510
  110OSM    H9S11337   5.077   5.365   9.998 -1.1891 -2.2252  4.4291
  110OSM    H9T11338   5.119   5.531  10.041  0.8220 -1.7097  0.6873
  110OSM   C10S11339   4.954   5.521   9.898  0.3152  0.2273 -0.0222
  110OSM   H10S11340   4.907   5.616   9.931  0.0402  0.2676 -0.5289
  110OSM   H10T11341   4.878   5.441   9.884 -0.9249  1.6274 -1.7440
  110OSM   C11S11342   5.032   5.536   9.769  0.2383  0.4007 -0.3103
  110OSM   H11S11343   5.087   5.439   9.761 -1.3597 -0.3931 -2.5547
  110OSM   H11T11344   5.105   5.620   9.772 -0.7446  1.2563  0.6395
  110OSM   C12S11345   4.952   5.530   9.638  0.6378 -0.5677 -0.7364
  110OSM   H12S11346   4.876   5.611   9.645 -1.6374 -2.6786  0.4144
  110OSM   H12T11347   4.881   5.445   9.621  0.2848 -0.5941  0.7211
  110OSM   C13S11348   5.038   5.544   9.512 -0.4662 -1.0225 -0.0218
  110OSM   H13S11349   5.117   5.467   9.501 -0.4714 -0.9008 -0.9740
  110OSM   H13T11350   5.087   5.643   9.521  0.2328 -1.4874  1.9227
  110OSM   C14S11351   4.954   5.556   9.383 -0.4936  0.6027 -0.2401
  110OSM   H14S11352   4.862   5.609   9.415  0.8278  1.5447  2.2493
  110OSM   H14T11353   4.917   5.455   9.355  0.0432 -0.8333  3.6130
  110OSM   C15S11354   5.009   5.627   9.259  0.7414  0.4052  0.1237
  110OSM   H15S11355   5.107   5.581   9.233  0.3798  0.6129 -1.7108
  110OSM   H15T11356   5.022   5.732   9.291 -0.7140  0.6017  0.1221
  110OSM   C16S11357   4.938   5.631   9.125  0.1576 -0.5746 -0.3388
  110OSM   H16S11358   5.006   5.688   9.057  0.3235 -0.7187 -0.2937
  110OSM   H16T11359   4.843   5.683   9.149  1.4944  0.5694  3.1238
  110OSM   C17S11360   4.906   5.492   9.070  0.0924  0.6909  0.4101
  110OSM   H17S11361   4.831   5.456   9.143 -1.2661  1.8094 -0.3872
  110OSM   H17T11362   4.998   5.429   9.058 -1.3114 -1.1832 -1.2193
  110OSM   C18S11363   4.830   5.484   8.934  0.0491 -0.1081  0.3481
  110OSM   H18S11364   4.739   5.546   8.931 -0.3483 -0.6748  0.5507
  110OSM   H18T11365   4.809   5.381   8.896  0.6626  1.1449 -3.9737
  110OSM   H18U11366   4.902   5.525   8.859  0.7725 -2.3545 -0.2873
  110OSM    C1F11367   4.834   6.160  10.314 -0.1484  0.2661  0.5843
  110OSM     OF11368   4.938   6.205  10.371  0.3412  0.5606  0.7856
  110OSM    C2F11369   4.761   6.230  10.206 -0.0714  0.1491  0.3077
  110OSM    H2F11370   4.712   6.325  10.234 -0.3929  1.3460 -3.6301
  110OSM    H2G11371   4.688   6.163  10.156 -0.3185  2.7290 -3.1874
  110OSM    C3F11372   4.857   6.269  10.089  0.1189 -0.4149  0.4127
  110OSM    H3F11373   4.922   6.185  10.058  2.0222  0.7400  1.1065
  110OSM    H3G11374   4.929   6.348  10.119 -0.7244 -0.1642  1.8911
  110OSM    C4F11375   4.761   6.320   9.971 -0.8224 -0.1914  0.1278
  110OSM    H4F11376   4.731   6.421  10.007  2.0884  0.3859  1.3162
  110OSM    H4G11377   4.669   6.258   9.965 -1.0962  0.1683  0.5624
  110OSM    C5F11378   4.829   6.329   9.836 -0.7395 -0.8816 -0.0871
  110OSM    H5F11379   4.858   6.229   9.797 -0.5595 -0.2732 -1.5942
  110OSM    H5G11380   4.924   6.387   9.831 -0.0427 -2.0003 -0.1526
  110OSM    C6F11381   4.734   6.378   9.720  0.1417 -0.1668  0.6072
  110OSM    H6F11382   4.710   6.486   9.731 -2.9738 -0.6254 -0.6768
  110OSM    H6G11383   4.638   6.323   9.716  0.0356  0.0656 -2.0496
  110OSM    C7F11384   4.785   6.342   9.583  0.3752  0.5446  0.2778
  110OSM    H7F11385   4.810   6.234   9.591  0.8196  0.6324  0.0764
  110OSM    H7G11386   4.883   6.395   9.576  0.6694 -0.2363 -2.7691
  110OSM    C8F11387   4.693   6.373   9.462  0.1052 -0.0953  0.9089
  110OSM    H8F11388   4.590   6.343   9.493 -0.0195  0.1598  0.7517
  110OSM    H8G11389   4.722   6.309   9.376 -0.3208  0.9759 -0.0715
  110OSM    C9F11390   4.659   6.515   9.420 -0.2571 -0.0356  0.0107
  110OSM    H9F11391   4.599   6.572   9.493 -1.4665  0.1750 -1.0998
  110OSM   C10F11392   4.705   6.580   9.310 -1.3189 -0.7975 -0.0786
  110OSM   H10F11393   4.686   6.688   9.300 -0.1423 -0.5731 -0.1340
  110OSM   C11F11394   4.796   6.516   9.206 -0.1543  0.8994  0.5921
  110OSM   H11F11395   4.813   6.410   9.234 -2.4394  0.4441  0.4467
  110OSM   H11G11396   4.893   6.569   9.211  0.4582 -0.1561  0.2360
  110OSM   C12F11397   4.739   6.516   9.057  0.0606 -0.2452 -0.1541
  110OSM   H12F11398   4.648   6.452   9.053  0.5652 -0.9628 -0.2762
  110OSM   H12G11399   4.821   6.456   9.012  0.8433 -0.0648  0.9953
  110OSM   C13F11400   4.715   6.653   8.999  0.7593  0.0789  0.3740
  110OSM   H13F11401   4.816   6.677   8.958 -0.2067 -3.2075 -4.9348
  110OSM   H13G11402   4.681   6.731   9.070  0.5678 -0.9273  1.4064
  110OSM   C14F11403   4.621   6.664   8.873 -0.4454  0.8459 -0.4885
  110OSM   H14F11404   4.521   6.631   8.907 -0.0155  0.6721  0.6478
  110OSM   H14G11405   4.656   6.581   8.809 -0.3300  0.3270  0.2400
  110OSM   C15F11406   4.632   6.798   8.799  0.0596  0.2499  0.4203
  110OSM   H15F11407   4.640   6.882   8.872 -1.8081 -0.6032  1.6796
  110OSM   H15G11408   4.550   6.820   8.727  1.3533  0.6425 -1.0017
  110OSM   C16F11409   4.755   6.816   8.710  0.8039  0.3555  0.3077
  110OSM   H16F11410   4.845   6.812   8.774 -0.2881  1.2791  1.9557
  110OSM   H16G11411   4.748   6.915   8.661 -0.3175  0.1799  0.0765
  110OSM   C17F11412   4.756   6.708   8.591 -0.0289 -0.2846 -0.0077
  110OSM   H17F11413   4.652   6.707   8.551  0.2999 -0.1356 -0.8966
  110OSM   H17G11414   4.783   6.609   8.635  1.0546  0.8208  1.9584
  110OSM   C18F11415   4.858   6.742   8.480  0.1001  0.0518  0.5408
  110OSM   H18F11416   4.888   6.651   8.425 -0.6310 -0.2774  0.6773
  110OSM   H18G11417   4.937   6.809   8.520  0.3579  0.3924 -0.5168
  110OSM   H18H11418   4.815   6.806   8.400 -2.1697  1.0611  2.4195
  111OSM      N11419   5.383   4.457  10.628 -0.1001 -0.0030 -0.5353
  111OSM    C1511420   5.406   4.536  10.500  0.0181  0.3420 -0.4339
  111OSM   H15A11421   5.324   4.597  10.465 -0.5103 -0.5602 -0.8065
  111OSM   H15B11422   5.422   4.468  10.417 -1.7029 -0.5347 -0.0972
  111OSM   H15C11423   5.495   4.597  10.499 -1.1832  2.1863 -0.5903
  111OSM    C1411424   5.502   4.362  10.637  0.0489  0.1041 -0.2632
  111OSM   H14A11425   5.501   4.297  10.551 -0.8943 -0.1574 -0.0678
  111OSM   H14B11426   5.514   4.311  10.732  2.3228 -0.8500 -0.9888
  111OSM   H14C11427   5.595   4.416  10.634  0.8479 -1.1740  0.3661
  111OSM    C1311428   5.378   4.559  10.735 -0.1415 -0.2304  0.0972
  111OSM   H13A11429   5.470   4.614  10.746  0.3306 -1.2354  1.6567
  111OSM   H13B11430   5.344   4.520  10.830 -0.3192  0.3385  0.2708
  111OSM   H13C11431   5.301   4.630  10.708  1.6716  0.9851 -2.2662
  111OSM    C1211432   5.258   4.373  10.619 -0.2518  0.0484 -0.1304
  111OSM   H12A11433   5.232   4.312  10.704  2.3088 -0.3894  0.4034
  111OSM   H12B11434   5.286   4.308  10.537  0.0627  3.2374 -2.7548
  111OSM    C1111435   5.122   4.439  10.567 -0.2077 -0.2987  0.6745
  111OSM   H11A11436   5.049   4.355  10.564 -0.9791  0.3626  0.3601
  111OSM   H11B11437   5.145   4.464  10.461 -0.4804 -0.6074  0.5357
  111OSM      P11438   5.057   4.686  10.601  0.3412  0.0843  0.2540
  111OSM    O1311439   4.980   4.769  10.695 -0.1100  0.3511 -0.4573
  111OSM    O1411440   5.186   4.743  10.549  0.4981 -0.0443 -0.6217
  111OSM    O1111441   4.959   4.655  10.483  0.0021 -0.0306 -0.0325
  111OSM    O1211442   5.083   4.539  10.655 -0.1892 -0.1399  0.1071
  111OSM    C1S11443   4.829   4.605  10.492  0.6414 -0.2531 -0.7692
  111OSM    H1S11444   4.768   4.674  10.553  1.4581 -0.2564  0.0769
  111OSM    H1T11445   4.822   4.501  10.528 -0.4320  0.5520  1.5249
  111OSM     NF11446   4.615   4.607  10.357  1.0282 -0.2462  0.4628
  111OSM    HNF11447   4.566   4.522  10.337 -0.1006  0.4489  0.1936
  111OSM    C2S11448   4.763   4.607  10.353 -0.0059  1.0366 -0.0831
  111OSM    H2S11449   4.809   4.692  10.297 -0.2450 -0.4375 -2.6982
  111OSM    C3S11450   4.811   4.472  10.271 -0.1164 -0.2479  0.5445
  111OSM    H3S11451   4.743   4.392  10.306 -1.6972 -0.2267 -2.1991
  111OSM     O311452   4.946   4.435  10.301 -0.0903 -0.2870  0.0795
  111OSM    HO311453   4.978   4.490  10.372  0.9668 -2.1349  1.1270
  111OSM    C4S11454   4.781   4.481  10.118 -0.6326 -0.4370  0.3527
  111OSM    H4S11455   4.680   4.440  10.099 -0.1554 -0.8007 -1.5758
  111OSM    C5S11456   4.867   4.519  10.022  0.1195  0.2823  0.5873
  111OSM    H5S11457   4.972   4.542  10.046  0.7837 -0.8610 -1.0517
  111OSM    C6S11458   4.844   4.530   9.877  0.1853 -0.0246  0.1293
  111OSM    H6S11459   4.913   4.459   9.826 -1.4547 -0.8859 -1.0310
  111OSM    H6T11460   4.889   4.626   9.845  0.0780  0.6133  1.8065
  111OSM    C7S11461   4.701   4.533   9.822 -0.1720  0.5064  0.6208
  111OSM    H7S11462   4.632   4.608   9.866 -1.7356  1.2074 -2.7004
  111OSM    H7T11463   4.673   4.429   9.847  1.2883  0.5755  2.8917
  111OSM    C8S11464   4.707   4.538   9.665 -0.1501  0.3842  0.1376
  111OSM    H8S11465   4.603   4.529   9.627 -0.5445 -0.8535  1.4226
  111OSM    H8T11466   4.766   4.448   9.637  1.2211  0.9900  0.9235
  111OSM    C9S11467   4.759   4.672   9.607 -0.1381 -0.8004  0.1742
  111OSM    H9S11468   4.870   4.666   9.613 -0.0119 -0.0015 -1.0458
  111OSM    H9T11469   4.737   4.754   9.678  0.4510  0.7058 -1.3095
  111OSM   C10S11470   4.690   4.719   9.474  0.4265  0.7304  0.1099
  111OSM   H10S11471   4.704   4.826   9.448 -1.6613  0.8015 -0.9506
  111OSM   H10T11472   4.582   4.701   9.495  1.2676 -1.8851  2.8461
  111OSM   C11S11473   4.739   4.639   9.358 -0.0605  0.0143  0.3333
  111OSM   H11S11474   4.738   4.529   9.376  1.1878 -0.0876 -0.1149
  111OSM   H11T11475   4.846   4.669   9.352  0.7609 -2.7311 -0.3356
  111OSM   C12S11476   4.662   4.669   9.228 -0.3187  0.3452 -0.5211
  111OSM   H12S11477   4.692   4.773   9.204 -0.7509  0.6075  0.0352
  111OSM   H12T11478   4.554   4.676   9.253  0.3353  4.9400  2.1328
  111OSM   C13S11479   4.717   4.582   9.115 -0.2003 -0.3982  0.9015
  111OSM   H13S11480   4.702   4.475   9.141  0.2848  0.0690  3.3540
  111OSM   H13T11481   4.823   4.610   9.097 -0.1059 -1.9718 -1.3946
  111OSM   C14S11482   4.655   4.612   8.976 -0.0735  0.2765 -0.2839
  111OSM   H14S11483   4.641   4.718   8.948 -1.9729 -0.6463 -3.4178
  111OSM   H14T11484   4.551   4.574   8.964  0.3430 -0.4367 -2.0668
  111OSM   C15S11485   4.747   4.557   8.863  0.0909  0.7914 -0.2645
  111OSM   H15S11486   4.765   4.448   8.873  0.5775  0.8660 -0.2881
  111OSM   H15T11487   4.850   4.595   8.881  0.5029 -0.2085 -0.4146
  111OSM   C16S11488   4.702   4.605   8.728 -0.1444 -0.0143  0.5453
  111OSM   H16S11489   4.797   4.610   8.670  1.5919  1.6496  3.3178
  111OSM   H16T11490   4.654   4.705   8.733 -0.1989 -0.0014 -0.1615
  111OSM   C17S11491   4.605   4.523   8.646 -0.1100 -0.1525 -0.1109
  111OSM   H17S11492   4.526   4.476   8.709  0.4393 -0.4841  0.3415
  111OSM   H17T11493   4.670   4.437   8.617 -0.0661 -0.3330  0.5151
  111OSM   C18S11494   4.553   4.592   8.524  0.3331  0.1477 -0.1567
  111OSM   H18S11495   4.509   4.519   8.453 -0.2566 -0.1198  0.4781
  111OSM   H18T11496   4.622   4.663   8.472  0.0325  1.7766  1.5339
  111OSM   H18U11497   4.476   4.666   8.555  2.1254  0.8504  3.0051
  111OSM    C1F11498   4.552   4.721  10.384  0.5620  0.5683 -0.9638
  111OSM     OF11499   4.609   4.827  10.399  1.0401  0.2105  0.0369
  111OSM    C2F11500   4.401   4.708  10.375 -0.3316  0.5074 -1.1279
  111OSM    H2F11501   4.358   4.741  10.472 -0.8546 -0.5442 -0.9881
  111OSM    H2G11502   4.372   4.601  10.372  1.0186  0.0192  1.1052
  111OSM    C3F11503   4.351   4.800  10.257 -0.2703 -0.3176 -0.0575
  111OSM    H3F11504   4.392   4.903  10.272 -0.5717 -0.0174 -1.2315
  111OSM    H3G11505   4.240   4.808  10.267 -0.4494 -1.0269 -1.3366
  111OSM    C4F11506   4.397   4.752  10.122  0.7462  0.5911  0.2261
  111OSM    H4F11507   4.390   4.643  10.105 -0.4667  0.8803 -1.4521
  111OSM    H4G11508   4.505   4.771  10.105  1.0911  0.7257  2.3460
  111OSM    C5F11509   4.335   4.830  10.004  0.1238 -0.4195  0.0106
  111OSM    H5F11510   4.379   4.932  10.000  2.0336 -1.2428 -1.0925
  111OSM    H5G11511   4.226   4.845  10.022  0.4371  0.6096  1.2500
  111OSM    C6F11512   4.366   4.755   9.872  0.0718 -0.6399  0.3286
  111OSM    H6F11513   4.306   4.663   9.890 -0.0635 -0.7684 -0.7388
  111OSM    H6G11514   4.475   4.737   9.863  0.2390  0.7238 -0.8460
  111OSM    C7F11515   4.311   4.833   9.744 -0.1431  0.0498  0.2919
  111OSM    H7F11516   4.386   4.906   9.707 -0.6509  0.4275 -0.0106
  111OSM    H7G11517   4.219   4.891   9.770  1.7097  3.0097  0.6789
  111OSM    C8F11518   4.278   4.746   9.621  0.8987 -0.0631  0.1641
  111OSM    H8F11519   4.224   4.652   9.647 -0.0294  0.5161  0.3808
  111OSM    H8G11520   4.376   4.705   9.589  2.2575  1.3457  2.2804
  111OSM    C9F11521   4.207   4.831   9.522  0.6518  0.4060  0.7855
  111OSM    H9F11522   4.158   4.922   9.559 -1.1755 -0.7124  1.2348
  111OSM   C10F11523   4.191   4.811   9.392  0.5300  0.9741  0.2321
  111OSM   H10F11524   4.128   4.877   9.331  0.9148  0.2909 -0.9347
  111OSM   C11F11525   4.230   4.688   9.311 -0.2322  0.7856  0.1288
  111OSM   H11F11526   4.148   4.616   9.291  1.6426 -1.3641 -0.2117
  111OSM   H11G11527   4.312   4.629   9.356 -0.4360 -0.6680 -1.3230
  111OSM   C12F11528   4.294   4.723   9.168  0.4950  0.7361 -0.1454
  111OSM   H12F11529   4.353   4.636   9.131  2.5341  2.0339 -0.1298
  111OSM   H12G11530   4.356   4.814   9.182  1.4752 -0.2302  2.4731
  111OSM   C13F11531   4.180   4.773   9.074 -0.1629  0.1911 -0.0102
  111OSM   H13F11532   4.238   4.840   9.008  0.2129 -0.3698 -0.2532
  111OSM   H13G11533   4.089   4.818   9.121 -1.4948 -3.1210  0.8767
  111OSM   C14F11534   4.123   4.657   8.989 -0.4743 -0.4191 -0.5748
  111OSM   H14F11535   4.068   4.576   9.043 -0.2479 -0.5688 -0.5654
  111OSM   H14G11536   4.215   4.615   8.941  0.0504 -0.6585  0.5873
  111OSM   C15F11537   4.038   4.716   8.878  0.3390 -0.1445 -0.2238
  111OSM   H15F11538   4.021   4.824   8.896 -0.2026 -0.1802 -0.4931
  111OSM   H15G11539   3.942   4.660   8.869  0.6415 -1.1334  2.0620
  111OSM   C16F11540   4.105   4.696   8.738 -0.7411  0.2942 -0.7414
  111OSM   H16F11541   4.198   4.758   8.740  0.8561 -2.0048  0.6385
  111OSM   H16G11542   4.037   4.746   8.665 -0.1374 -0.8464 -2.1360
  111OSM   C17F11543   4.139   4.564   8.687 -0.2273 -0.0719  0.4100
  111OSM   H17F11544   4.064   4.488   8.719  0.1587 -0.8137 -0.3957
  111OSM   H17G11545   4.237   4.545   8.734 -1.4563 -0.1057  3.1306
  111OSM   C18F11546   4.145   4.566   8.532  0.2165  0.2765  0.1769
  111OSM   H18F11547   4.055   4.596   8.474  1.8718 -0.7621 -3.1730
  111OSM   H18G11548   4.176   4.467   8.494 -1.7366 -0.1568 -0.4047
  111OSM   H18H11549   4.230   4.631   8.503  1.3689 -0.0423  2.6245
  112OSM      N11550   4.522   2.227  11.015  0.3803  0.3274 -0.3280
  112OSM    C1511551   4.519   2.081  11.047 -0.3020  0.2073 -0.4364
  112OSM   H15A11552   4.612   2.034  11.020 -0.0473  1.3405 -1.6186
  112OSM   H15B11553   4.443   2.037  10.985  2.3844 -1.6625 -2.6069
  112OSM   H15C11554   4.517   2.076  11.155 -0.2905  2.2041 -0.2994
  112OSM    C1411555   4.404   2.282  11.086  0.0355  0.1291 -0.7246
  112OSM   H14A11556   4.395   2.241  11.186 -1.3191 -1.9357 -1.6289
  112OSM   H14B11557   4.317   2.258  11.027 -0.8132  2.2544 -0.4474
  112OSM   H14C11558   4.407   2.390  11.093 -0.2274  0.0868  0.2920
  112OSM    C1311559   4.638   2.283  11.091 -0.0188 -0.2687 -0.1176
  112OSM   H13A11560   4.635   2.239  11.189 -0.3117 -1.3076 -0.5752
  112OSM   H13B11561   4.632   2.390  11.102  3.4153 -0.0475  0.7896
  112OSM   H13C11562   4.727   2.255  11.037 -0.5756 -2.2243 -0.1055
  112OSM    C1211563   4.534   2.261  10.868  0.4061  0.4780  0.2387
  112OSM   H12A11564   4.625   2.212  10.840  0.5662  1.1073 -0.3697
  112OSM   H12B11565   4.547   2.368  10.857  0.8750  0.2744 -1.4126
  112OSM    C1111566   4.407   2.223  10.786  0.4166 -0.3930 -0.9336
  112OSM   H11A11567   4.390   2.119  10.820 -3.2029  0.6831  0.9803
  112OSM   H11B11568   4.432   2.230  10.677  2.4838  0.5099 -0.4528
  112OSM      P11569   4.150   2.268  10.758 -0.1718  0.1814  0.0247
  112OSM    O1311570   4.149   2.155  10.658 -0.4820 -0.4255 -0.3312
  112OSM    O1411571   4.056   2.246  10.867  0.6481 -0.2903 -0.2574
  112OSM    O1111572   4.113   2.403  10.672  0.0517  0.1261  0.1623
  112OSM    O1211573   4.292   2.298  10.826  0.0303  0.0757 -0.0329
  112OSM    C1S11574   4.185   2.435  10.554 -0.1781  0.2509  0.1672
  112OSM    H1S11575   4.278   2.380  10.530 -0.6896 -0.5196 -0.1216
  112OSM    H1T11576   4.225   2.538  10.564  0.3418  0.1530 -0.8349
  112OSM     NF11577   4.176   2.452  10.301 -0.2254 -0.2520  0.1305
  112OSM    HNF11578   4.175   2.545  10.264 -1.5385  0.3026  1.4480
  112OSM    C2S11579   4.100   2.432  10.422 -0.4846  0.1819 -0.4621
  112OSM    H2S11580   4.053   2.332  10.420 -0.6870  0.1320  2.3856
  112OSM    C3S11581   3.983   2.537  10.441  0.6661  0.0549 -0.3360
  112OSM    H3S11582   4.027   2.637  10.460  0.7643 -0.1369  0.4654
  112OSM     O311583   3.902   2.515  10.556  0.2760 -0.2582  0.2505
  112OSM    HO311584   3.960   2.463  10.611  0.6652  0.3596  0.4318
  112OSM    C4S11585   3.914   2.536  10.315  0.0222 -0.2733  0.1987
  112OSM    H4S11586   3.952   2.609  10.242 -0.2378 -0.2848  0.0479
  112OSM    C5S11587   3.798   2.473  10.281  0.2799  0.2356  0.2744
  112OSM    H5S11588   3.737   2.418  10.354  0.1950 -0.5943 -0.4153
  112OSM    C6S11589   3.736   2.491  10.150 -0.1068  0.9908  1.2029
  112OSM    H6S11590   3.725   2.593  10.109 -3.0322  0.4175  0.3541
  112OSM    H6T11591   3.635   2.445  10.149  0.6878 -1.1748 -2.7906
  112OSM    C7S11592   3.822   2.413  10.041 -0.3597 -0.0462 -0.7310
  112OSM    H7S11593   3.830   2.303  10.057  0.6875 -0.3101 -2.7263
  112OSM    H7T11594   3.924   2.456  10.036 -0.9850  1.9812  1.9397
  112OSM    C8S11595   3.752   2.426   9.901 -0.4343  0.0133 -0.3679
  112OSM    H8S11596   3.727   2.529   9.868 -1.4609 -0.6611 -1.8093
  112OSM    H8T11597   3.651   2.382   9.916 -1.0998  1.8116  0.7257
  112OSM    C9S11598   3.832   2.368   9.782  0.3593 -0.0084  0.5260
  112OSM    H9S11599   3.873   2.266   9.802 -0.8435 -0.3376  1.5022
  112OSM    H9T11600   3.915   2.438   9.763 -0.4951  0.7083 -0.6984
  112OSM   C10S11601   3.734   2.370   9.665 -0.3084 -0.1956  0.3327
  112OSM   H10S11602   3.695   2.474   9.657 -0.4026 -0.3649 -2.2428
  112OSM   H10T11603   3.650   2.303   9.691 -1.2954  1.4227  1.4844
  112OSM   C11S11604   3.806   2.330   9.539  0.6199  0.0261  0.4131
  112OSM   H11S11605   3.849   2.227   9.546 -1.0242 -0.6231  1.5334
  112OSM   H11T11606   3.890   2.394   9.505  0.1214 -0.2348 -1.4473
  112OSM   C12S11607   3.703   2.333   9.425 -0.1701 -0.4341  0.1115
  112OSM   H12S11608   3.654   2.431   9.439 -1.6605 -1.2316  0.7838
  112OSM   H12T11609   3.626   2.255   9.442 -0.7389  0.3346  1.1476
  112OSM   C13S11610   3.769   2.326   9.282  0.8804  0.7943  0.0533
  112OSM   H13S11611   3.852   2.252   9.282  1.3107  1.1518  3.1981
  112OSM   H13T11612   3.805   2.429   9.258 -1.4834  1.6678  0.0497
  112OSM   C14S11613   3.675   2.287   9.172 -1.0345  0.3569 -0.6681
  112OSM   H14S11614   3.579   2.338   9.193 -1.4268 -0.6412  0.0010
  112OSM   H14T11615   3.662   2.178   9.156 -4.1593  0.7514 -1.5743
  112OSM   C15S11616   3.716   2.349   9.038 -0.5611 -0.1017 -0.2434
  112OSM   H15S11617   3.823   2.378   9.046 -1.2231  2.6050 -0.2597
  112OSM   H15T11618   3.654   2.441   9.027  0.3411  0.5428 -0.0257
  112OSM   C16S11619   3.699   2.252   8.920 -0.2612 -0.2399 -0.5163
  112OSM   H16S11620   3.592   2.226   8.908 -0.8536  1.8716 -0.1971
  112OSM   H16T11621   3.764   2.165   8.944 -0.5730 -0.1651  0.6357
  112OSM   C17S11622   3.732   2.320   8.790 -0.2731  0.0566  0.6456
  112OSM   H17S11623   3.838   2.354   8.798 -0.3336  1.0389 -1.7165
  112OSM   H17T11624   3.668   2.410   8.777  0.4928  0.8962  2.3199
  112OSM   C18S11625   3.708   2.228   8.666 -0.0676 -0.2383 -0.6718
  112OSM   H18S11626   3.719   2.125   8.706  0.2290  1.0146  2.8790
  112OSM   H18T11627   3.785   2.242   8.587 -0.5190  1.1491 -0.8985
  112OSM   H18U11628   3.603   2.246   8.637 -0.3614 -2.0114 -0.8116
  112OSM    C1F11629   4.267   2.362  10.263 -0.2323 -0.2615 -0.1478
  112OSM     OF11630   4.285   2.259  10.322  0.1576  0.3953 -0.2557
  112OSM    C2F11631   4.355   2.389  10.140  0.5871 -0.1435  0.2535
  112OSM    H2F11632   4.439   2.452  10.176 -0.2123  0.9864  0.1947
  112OSM    H2G11633   4.296   2.446  10.065  1.8968  0.9373  0.0185
  112OSM    C3F11634   4.413   2.271  10.084 -0.3080  0.6500  0.5792
  112OSM    H3F11635   4.343   2.189  10.058  1.2573 -0.4747 -0.3100
  112OSM    H3G11636   4.472   2.225  10.167 -0.3859 -0.9484 -0.2187
  112OSM    C4F11637   4.501   2.303   9.957  0.3275 -0.3829 -0.6426
  112OSM    H4F11638   4.588   2.367   9.984 -0.1578  0.0175  0.0132
  112OSM    H4G11639   4.442   2.369   9.890  0.7217  0.8357  0.1755
  112OSM    C5F11640   4.552   2.178   9.879 -0.1739 -0.3605 -0.9578
  112OSM    H5F11641   4.477   2.097   9.885 -0.2413 -0.3492 -1.5835
  112OSM    H5G11642   4.643   2.134   9.925 -1.6192 -1.9036  0.5459
  112OSM    C6F11643   4.581   2.196   9.730  0.1179 -0.2972 -0.3386
  112OSM    H6F11644   4.639   2.106   9.701  0.4635 -0.1385 -0.1418
  112OSM    H6G11645   4.638   2.290   9.717 -0.3798 -0.0748 -0.9965
  112OSM    C7F11646   4.460   2.196   9.629  0.3347  0.5239  0.2826
  112OSM    H7F11647   4.401   2.288   9.652 -1.2792 -0.7670  1.5739
  112OSM    H7G11648   4.384   2.116   9.642  0.2189  0.5161 -0.4032
  112OSM    C8F11649   4.498   2.184   9.487  0.1516 -0.3314 -0.8868
  112OSM    H8F11650   4.412   2.140   9.432 -0.5871  0.7697 -0.6571
  112OSM    H8G11651   4.584   2.114   9.482 -0.4091 -0.9422 -2.7071
  112OSM    C9F11652   4.529   2.316   9.424  1.0519  0.0475  0.2711
  112OSM    H9F11653   4.518   2.407   9.484  1.1065  1.2673 -1.4738
  112OSM   C10F11654   4.593   2.331   9.304  0.0438  0.2247 -0.0645
  112OSM   H10F11655   4.615   2.433   9.267 -0.5524 -0.9645 -4.2739
  112OSM   C11F11656   4.620   2.222   9.202 -0.1493 -0.2261 -0.1917
  112OSM   H11F11657   4.581   2.122   9.232 -0.6880  0.1776  0.4691
  112OSM   H11G11658   4.731   2.214   9.212 -0.4092 -0.5802  5.0759
  112OSM   C12F11659   4.572   2.253   9.057 -0.2072 -0.2393 -0.7722
  112OSM   H12F11660   4.463   2.264   9.045  0.0862  1.0438 -2.6774
  112OSM   H12G11661   4.592   2.162   8.996 -1.6540 -1.0128 -0.1277
  112OSM   C13F11662   4.640   2.374   8.992 -0.3162  0.0553 -0.3554
  112OSM   H13F11663   4.749   2.373   9.012 -0.2468 -1.4900 -0.6796
  112OSM   H13G11664   4.585   2.464   9.028 -1.0552 -1.0376  1.3479
  112OSM   C14F11665   4.605   2.385   8.843  0.0558 -0.4348 -0.0830
  112OSM   H14F11666   4.665   2.469   8.802  0.3233  0.1161  1.4033
  112OSM   H14G11667   4.498   2.411   8.833 -0.4217 -1.9296  0.8307
  112OSM   C15F11668   4.638   2.259   8.754 -0.2935  0.7303  0.6950
  112OSM   H15F11669   4.547   2.195   8.762 -0.5664  0.9866 -0.3203
  112OSM   H15G11670   4.735   2.219   8.790 -0.5223  0.8204  1.4287
  112OSM   C16F11671   4.662   2.294   8.605  0.4427 -0.5466 -0.3508
  112OSM   H16F11672   4.764   2.338   8.597  0.6978 -1.4316 -2.6016
  112OSM   H16G11673   4.585   2.363   8.563  2.1623  0.1171 -2.6112
  112OSM   C17F11674   4.665   2.171   8.514  0.0686  0.0342 -0.6534
  112OSM   H17F11675   4.559   2.144   8.497  0.5128 -0.3218 -3.2987
  112OSM   H17G11676   4.711   2.091   8.576  1.2009  0.2198 -1.2251
  112OSM   C18F11677   4.724   2.194   8.375 -0.2749 -0.0487  0.0112
  112OSM   H18F11678   4.828   2.228   8.391  0.0924 -2.0898  2.6195
  112OSM   H18G11679   4.668   2.270   8.317  1.7155  0.1472 -1.7729
  112OSM   H18H11680   4.723   2.102   8.312 -1.6615 -0.2474  0.2773
  113OSM      N11681   5.906   0.595  11.181  0.1328 -0.4397  0.1623
  113OSM    C1511682   5.927   0.546  11.041 -0.0784 -0.3218 -0.2367
  113OSM   H15A11683   6.005   0.607  10.997  0.4297  1.0850  2.4350
  113OSM   H15B11684   5.833   0.557  10.988 -0.7497 -2.2984  0.4735
  113OSM   H15C11685   5.954   0.442  11.037  3.7230  0.3516  2.3177
  113OSM    C1411686   6.033   0.580  11.245  0.3422  0.2944  0.5168
  113OSM   H14A11687   6.063   0.476  11.254  1.7097  0.7626  1.7718
  113OSM   H14B11688   6.030   0.608  11.350  0.7364  3.3610 -0.2006
  113OSM   H14C11689   6.111   0.640  11.201 -0.3207  1.3600  0.7679
  113OSM    C1311690   5.873   0.739  11.169  0.4242  0.3665  0.9080
  113OSM   H13A11691   5.854   0.788  11.263 -1.3375  0.4717  0.5231
  113OSM   H13B11692   5.780   0.751  11.115  1.7361 -0.3702 -1.6968
  113OSM   H13C11693   5.949   0.793  11.115 -1.4696  2.0891 -0.1460
  113OSM    C1211694   5.795   0.517  11.243 -0.3962  0.9165  0.2851
  113OSM   H12A11695   5.700   0.549  11.204 -1.4792 -0.0136  2.0294
  113OSM   H12B11696   5.798   0.536  11.349 -0.6827  0.0390  0.4598
  113OSM    C1111697   5.799   0.362  11.231  0.1926  0.7020  0.7581
  113OSM   H11A11698   5.726   0.324  11.307 -0.7489  0.0462 -0.4383
  113OSM   H11B11699   5.897   0.325  11.269 -0.9484 -2.4325  0.9599
  113OSM      P11700   5.653   0.240  11.041 -0.2448 -0.2822  0.3690
  113OSM    O1311701   5.640   0.105  11.108 -0.0512 -0.5981 -0.2208
  113OSM    O1411702   5.533   0.327  11.046 -0.1288 -0.6490 -0.0904
  113OSM    O1111703   5.693   0.215  10.890  0.1992  0.1005 -0.5539
  113OSM    O1211704   5.778   0.303  11.100  0.3100  0.2952  0.5600
  113OSM    C1S11705   5.829   0.178  10.854  0.1877  0.0561  0.0102
  113OSM    H1S11706   5.856   0.078  10.894  1.8679 -0.0350 -1.2026
  113OSM    H1T11707   5.904   0.250  10.894 -0.2492  1.0214 -0.8602
  113OSM     NF11708   5.974   0.127  10.675  0.1190 -0.0719 -0.8473
  113OSM    HNF11709   6.043   0.198  10.662 -0.7292  1.3929  1.7681
  113OSM    C2S11710   5.841   0.177  10.698  0.3396 -0.6984 -0.2414
  113OSM    H2S11711   5.772   0.097  10.665 -1.6270  0.5333  0.7032
  113OSM    C3S11712   5.810   0.317  10.640  0.1499 -0.7981 -0.4374
  113OSM    H3S11713   5.875   0.386  10.698 -1.4528 -1.1163  1.8564
  113OSM     O311714   5.677   0.362  10.664  0.0360  0.0345  0.0805
  113OSM    HO311715   5.652   0.316  10.744 -0.1529 -2.5924 -1.3946
  113OSM    C4S11716   5.827   0.298  10.498  0.5255 -0.4262  0.0182
  113OSM    H4S11717   5.765   0.228  10.440 -0.8628  1.1583 -0.4984
  113OSM    C5S11718   5.912   0.381  10.424  0.3158  0.8120  0.2378
  113OSM    H5S11719   5.959   0.465  10.477  0.1376  0.9662  0.1527
  113OSM    C6S11720   5.938   0.364  10.280  0.1931  0.4712 -0.2369
  113OSM    H6S11721   5.890   0.274  10.237  0.8305 -0.2034  0.4545
  113OSM    H6T11722   6.047   0.347  10.273  1.0162  4.2124  0.9814
  113OSM    C7S11723   5.887   0.484  10.200  0.6872 -0.2220  0.2013
  113OSM    H7S11724   5.938   0.572  10.245  1.0053 -0.8283  1.0668
  113OSM    H7T11725   5.777   0.501  10.193  0.8458  0.9241  0.1933
  113OSM    C8S11726   5.944   0.489  10.058 -0.2583 -0.5027  0.1402
  113OSM    H8S11727   5.898   0.420   9.984  0.0762  1.4873 -2.0300
  113OSM    H8T11728   6.054   0.474  10.048 -0.5119 -2.1014 -0.6131
  113OSM    C9S11729   5.909   0.623   9.993 -0.6485  0.1542 -0.0634
  113OSM    H9S11730   5.963   0.704  10.047 -0.8242  1.3480 -1.6061
  113OSM    H9T11731   5.800   0.642   9.996 -1.0140 -1.7767 -0.0190
  113OSM   C10S11732   5.952   0.625   9.848 -0.3074 -0.6068  0.1206
  113OSM   H10S11733   5.919   0.538   9.788 -0.5857 -1.5858  1.6200
  113OSM   H10T11734   6.063   0.629   9.839 -0.3966  1.7462 -0.5014
  113OSM   C11S11735   5.895   0.740   9.765  0.4092 -0.4426 -0.1433
  113OSM   H11S11736   5.951   0.831   9.795  0.8186 -1.2176  1.5370
  113OSM   H11T11737   5.788   0.753   9.794  1.1424  1.0708  2.1740
  113OSM   C12S11738   5.901   0.714   9.617 -0.1256  0.1930 -0.8736
  113OSM   H12S11739   6.001   0.675   9.589  0.2152  0.1761  0.3305
  113OSM   H12T11740   5.893   0.816   9.572 -2.0736  1.5230  2.1548
  113OSM   C13S11741   5.794   0.620   9.562  0.0443 -0.7494 -0.6998
  113OSM   H13S11742   5.692   0.661   9.578  0.2457 -0.1502 -0.9464
  113OSM   H13T11743   5.781   0.528   9.624 -2.3596  0.1002  0.1578
  113OSM   C14S11744   5.802   0.586   9.416 -0.4127 -0.0741  0.3809
  113OSM   H14S11745   5.732   0.501   9.400  1.1747 -1.9005  2.5230
  113OSM   H14T11746   5.906   0.550   9.397 -0.3404 -0.2056  1.0170
  113OSM   C15S11747   5.757   0.699   9.322  0.7632 -0.0111 -0.0602
  113OSM   H15S11748   5.800   0.793   9.362  0.1961  1.0445 -1.8284
  113OSM   H15T11749   5.647   0.711   9.332  1.0131  1.1234  1.7784
  113OSM   C16S11750   5.779   0.684   9.168 -0.3396 -0.5139  0.0901
  113OSM   H16S11751   5.727   0.593   9.132 -3.0574  0.9948 -0.0551
  113OSM   H16T11752   5.887   0.676   9.144 -0.5403  2.2513 -2.2963
  113OSM   C17S11753   5.721   0.807   9.096 -0.5075 -0.3614 -0.5888
  113OSM   H17S11754   5.775   0.898   9.130 -2.5256 -0.0320  2.0813
  113OSM   H17T11755   5.618   0.835   9.125 -0.5313 -0.6581 -0.3771
  113OSM   C18S11756   5.717   0.798   8.947  0.0303  0.0552 -0.0521
  113OSM   H18S11757   5.636   0.727   8.919  0.6748 -0.8079  0.2129
  113OSM   H18T11758   5.810   0.748   8.913  1.1792  0.6885  1.9809
  113OSM   H18U11759   5.694   0.896   8.901 -0.5929  0.7367  1.6137
  113OSM    C1F11760   6.013   0.001  10.698 -0.2331  0.3653 -0.4242
  113OSM     OF11761   5.931  -0.089  10.724 -0.2349 -0.0106  0.3117
  113OSM    C2F11762   6.160  -0.017  10.680  0.0291  0.3212 -0.4940
  113OSM    H2F11763   6.199  -0.101  10.742 -0.4253 -0.2973 -1.0417
  113OSM    H2G11764   6.213   0.078  10.701 -0.0939  0.7491 -2.0389
  113OSM    C3F11765   6.201  -0.054  10.538 -0.4756  0.1873 -0.8887
  113OSM    H3F11766   6.149  -0.150  10.519 -0.6900  0.1615 -0.1792
  113OSM    H3G11767   6.310  -0.073  10.542 -0.3705  0.5132 -1.8274
  113OSM    C4F11768   6.173   0.054  10.427 -0.4290  0.4343 -0.1904
  113OSM    H4F11769   6.217   0.149  10.464 -0.0023  0.3320 -0.4220
  113OSM    H4G11770   6.066   0.073  10.409 -0.5128  0.2934  0.1402
  113OSM    C5F11771   6.234   0.003  10.301 -0.5965  0.0179  0.0499
  113OSM    H5F11772   6.175  -0.084  10.265  0.0899 -0.8547  0.9849
  113OSM    H5G11773   6.334  -0.042  10.319 -1.2470 -2.9568 -2.6847
  113OSM    C6F11774   6.243   0.109  10.193 -0.1436 -0.2083 -0.2463
  113OSM    H6F11775   6.331   0.087  10.130  0.3933 -0.5424  0.6081
  113OSM    H6G11776   6.262   0.203  10.251 -1.2265 -1.1339  1.7308
  113OSM    C7F11777   6.112   0.114  10.101 -0.6139 -0.2339 -0.8214
  113OSM    H7F11778   6.114   0.217  10.059 -2.3299 -0.0187 -0.4270
  113OSM    H7G11779   6.024   0.108  10.168  0.5948  0.8951  0.9685
  113OSM    C8F11780   6.116   0.015   9.990 -0.2626  0.5068  0.2351
  113OSM    H8F11781   6.127  -0.085  10.038  2.2683  1.2639  1.3925
  113OSM    H8G11782   6.210   0.032   9.932 -0.1762  1.6140  0.6854
  113OSM    C9F11783   5.991   0.041   9.903 -0.5174  0.7315 -0.4321
  113OSM    H9F11784   5.922  -0.045   9.895  1.2100 -0.7735  0.0818
  113OSM   C10F11785   5.971   0.137   9.813  0.2314 -0.3287  0.1484
  113OSM   H10F11786   5.873   0.134   9.762 -0.9913  1.8610  2.1427
  113OSM   C11F11787   6.073   0.244   9.765 -0.1913 -0.1097  0.1081
  113OSM   H11F11788   6.175   0.202   9.769 -0.0299  0.1142 -1.2961
  113OSM   H11G11789   6.086   0.332   9.832  2.6026  0.4132 -0.9898
  113OSM   C12F11790   6.025   0.313   9.631 -0.8040  0.0321  0.4258
  113OSM   H12F11791   6.087   0.404   9.616 -1.4871  0.4585  0.1744
  113OSM   H12G11792   5.922   0.351   9.645 -1.2510 -1.7566  2.5502
  113OSM   C13F11793   6.048   0.228   9.507  0.0725 -0.1329 -0.4518
  113OSM   H13F11794   5.986   0.138   9.527 -0.0925 -0.5048 -2.3920
  113OSM   H13G11795   6.153   0.197   9.489 -0.2213 -1.6008  0.1818
  113OSM   C14F11796   6.002   0.291   9.376 -0.3676  0.3683  0.2643
  113OSM   H14F11797   6.073   0.370   9.346  0.2134 -0.6981 -1.2809
  113OSM   H14G11798   5.897   0.326   9.389 -0.2458  0.0050  2.6909
  113OSM   C15F11799   5.989   0.190   9.261 -0.0607 -0.6182 -0.1348
  113OSM   H15F11800   5.943   0.098   9.303  1.5311 -0.6368  1.7174
  113OSM   H15G11801   6.091   0.161   9.228  2.1968  2.1534  3.5285
  113OSM   C16F11802   5.905   0.254   9.149  0.3779 -0.1498 -0.4648
  113OSM   H16F11803   5.812   0.297   9.191 -0.5468 -0.9501 -1.6234
  113OSM   H16G11804   5.872   0.182   9.071  1.1893  0.5828 -1.5279
  113OSM   C17F11805   5.984   0.359   9.069  0.2175  0.9767 -0.3311
  113OSM   H17F11806   6.086   0.318   9.052  0.1449 -1.1681  3.3181
  113OSM   H17G11807   5.993   0.453   9.128  0.2620  0.7389  0.0436
  113OSM   C18F11808   5.929   0.390   8.935  0.4641 -0.2499  0.5245
  113OSM   H18F11809   5.907   0.295   8.882 -0.4206  1.5098 -2.5419
  113OSM   H18G11810   5.994   0.462   8.881 -0.1368  1.1740  1.6192
  113OSM   H18H11811   5.829   0.436   8.952  0.1506 -1.7917  3.4057
  114OSM      N11812   0.079   6.686  11.472 -0.4268  0.2994 -0.4149
  114OSM    C1511813   0.184   6.588  11.434 -0.1556  0.5137  0.1971
  114OSM   H15A11814   0.136   6.513  11.372  1.0663 -0.5565  0.4971
  114OSM   H15B11815   0.239   6.546  11.516 -1.0142 -0.0497  0.5011
  114OSM   H15C11816   0.257   6.638  11.373  0.6342  0.6726  1.2412
  114OSM    C1411817  -0.031   6.614  11.544  0.0040 -0.1890 -0.0143
  114OSM   H14A11818  -0.107   6.681  11.582  1.7495  2.1339 -0.3757
  114OSM   H14B11819   0.009   6.552  11.622 -0.1068 -1.8514 -1.2274
  114OSM   H14C11820  -0.077   6.544  11.476 -0.5038 -1.2459  1.3898
  114OSM    C1311821   0.134   6.776  11.574 -0.2584 -0.4054  0.6236
  114OSM   H13A11822   0.214   6.836  11.534  0.4229 -0.6507  1.6058
  114OSM   H13B11823   0.185   6.735  11.659  1.9436  2.4429  0.8309
  114OSM   H13C11824   0.058   6.841  11.616  2.0040  2.8984  0.0159
  114OSM    C1211825   0.025   6.763  11.350  0.1755 -0.6441  0.2274
  114OSM   H12A11826   0.106   6.820  11.308  1.9950 -2.8632  0.5556
  114OSM   H12B11827  -0.050   6.834  11.384  1.9101  0.2706  2.3699
  114OSM    C1111828  -0.044   6.686  11.235 -0.1308 -0.4248  0.4475
  114OSM   H11A11829   0.027   6.602  11.215 -0.3571 -0.4285 -0.3969
  114OSM   H11B11830  -0.050   6.740  11.138  3.0335 -3.2530 -1.5683
  114OSM      P11831  -0.302   6.691  11.239 -0.2984 -0.3190 -0.2377
  114OSM    O1311832  -0.408   6.589  11.268 -0.2680  0.4098  0.1630
  114OSM    O1411833  -0.325   6.820  11.315 -0.3505 -0.6336  0.3152
  114OSM    O1111834  -0.296   6.715  11.082  0.4184 -1.1146  0.2147
  114OSM    O1211835  -0.164   6.617  11.272 -0.1687 -1.0844  0.4517
  114OSM    C1S11836  -0.268   6.616  10.985 -0.4833  0.1034  0.0680
  114OSM    H1S11837  -0.337   6.530  10.999 -1.2121  0.1837 -2.4906
  114OSM    H1T11838  -0.160   6.592  10.996 -0.3403  1.4168  2.0191
  114OSM     NF11839  -0.283   6.561  10.743  0.4318  0.2245  0.3534
  114OSM    HNF11840  -0.203   6.546  10.685  0.9988 -1.6778  1.5398
  114OSM    C2S11841  -0.284   6.669  10.840 -0.9765  0.4599  0.4967
  114OSM    H2S11842  -0.377   6.728  10.827 -0.0603  1.8072 -0.1916
  114OSM    C3S11843  -0.177   6.780  10.810 -0.5211 -0.0815 -0.1332
  114OSM    H3S11844  -0.075   6.736  10.816 -0.7339 -0.4766  0.7766
  114OSM     O311845  -0.186   6.894  10.904  0.0097 -0.3623 -0.2168
  114OSM    HO311846  -0.232   6.853  10.978 -0.0896  0.6576  0.3019
  114OSM    C4S11847  -0.190   6.832  10.672  0.5804  0.1662  0.2157
  114OSM    H4S11848  -0.108   6.786  10.615  0.4299 -1.7402  1.4578
  114OSM    C5S11849  -0.275   6.912  10.607  0.0655  0.7200  0.0420
  114OSM    H5S11850  -0.354   6.961  10.665 -2.0506 -2.9322  0.5609
  114OSM    C6S11851  -0.275   6.929  10.458 -0.0915 -0.2712  0.1997
  114OSM    H6S11852  -0.258   7.035  10.427  1.0629 -0.1761  1.0763
  114OSM    H6T11853  -0.377   6.905  10.422 -0.5599 -0.8205  1.8254
  114OSM    C7S11854  -0.165   6.854  10.379  0.4174 -0.3139 -0.2444
  114OSM    H7S11855  -0.164   6.750  10.418 -1.9318  0.4647  2.2185
  114OSM    H7T11856  -0.067   6.900  10.407 -0.3605  1.0569  0.3305
  114OSM    C8S11857  -0.198   6.869  10.223 -0.5855 -0.6866  0.0543
  114OSM    H8S11858  -0.221   6.977  10.206  1.5385 -0.3558 -0.9917
  114OSM    H8T11859  -0.298   6.827  10.202 -1.0387  0.7144 -0.7672
  114OSM    C9S11860  -0.092   6.802  10.135  0.0662 -0.2637  0.4109
  114OSM    H9S11861  -0.108   6.693  10.152  0.2078 -0.2782  0.4453
  114OSM    H9T11862   0.011   6.840  10.151  0.1054  0.1598 -0.7286
  114OSM   C10S11863  -0.119   6.821   9.985  0.0513  0.2755  0.0756
  114OSM   H10S11864  -0.056   6.760   9.918 -1.8572 -0.4508 -1.1517
  114OSM   H10T11865  -0.087   6.924   9.962 -1.6932  0.4263 -1.9831
  114OSM   C11S11866  -0.263   6.798   9.941  0.1858 -0.4688  0.3429
  114OSM   H11S11867  -0.323   6.878   9.990  1.8335  2.0422 -1.4839
  114OSM   H11T11868  -0.298   6.704   9.988  1.5855 -0.9756  0.4116
  114OSM   C12S11869  -0.276   6.790   9.790 -0.0724 -0.7268 -0.4150
  114OSM   H12S11870  -0.214   6.868   9.741  0.3196  0.3330  1.6765
  114OSM   H12T11871  -0.382   6.818   9.769  0.0954  0.0974 -0.1750
  114OSM   C13S11872  -0.244   6.649   9.727 -0.3754 -0.7811 -0.1507
  114OSM   H13S11873  -0.343   6.600   9.743 -1.3090  0.6451 -1.3329
  114OSM   H13T11874  -0.163   6.591   9.777  1.4293 -0.8591 -2.9695
  114OSM   C14S11875  -0.205   6.665   9.583  0.0265  0.7557  0.1601
  114OSM   H14S11876  -0.120   6.735   9.565  1.5203 -0.7999  0.9126
  114OSM   H14T11877  -0.283   6.727   9.533  1.5241  1.2984 -1.6300
  114OSM   C15S11878  -0.172   6.536   9.510  0.2284 -0.3615  0.3208
  114OSM   H15S11879  -0.260   6.468   9.508 -0.9013  0.9823 -2.9184
  114OSM   H15T11880  -0.074   6.502   9.549  1.0037 -0.3531 -1.4960
  114OSM   C16S11881  -0.152   6.569   9.363 -0.6443 -0.0913 -0.6648
  114OSM   H16S11882  -0.092   6.662   9.351 -1.3290  0.3115 -1.0001
  114OSM   H16T11883  -0.251   6.591   9.317 -0.5287  0.2791 -0.7383
  114OSM   C17S11884  -0.079   6.461   9.292 -0.0695 -0.2418 -0.7264
  114OSM   H17S11885  -0.135   6.365   9.292  1.3650 -1.2637 -4.4684
  114OSM   H17T11886   0.018   6.445   9.345 -0.9133 -1.5338  0.4918
  114OSM   C18S11887  -0.048   6.484   9.141 -0.4961 -0.2759  0.0289
  114OSM   H18S11888  -0.006   6.388   9.105  0.7424  0.0155  0.6396
  114OSM   H18T11889   0.013   6.576   9.132 -1.3881  0.2745 -0.5311
  114OSM   H18U11890  -0.147   6.510   9.098 -0.7012  1.0683  1.2245
  114OSM    C1F11891  -0.393   6.485  10.727  0.3071  0.1383 -0.3582
  114OSM     OF11892  -0.488   6.495  10.808 -0.7061 -0.5425  0.3987
  114OSM    C2F11893  -0.405   6.388  10.613  0.2784 -0.3773  0.7389
  114OSM    H2F11894  -0.388   6.283  10.648 -3.3661 -0.5632  2.5330
  114OSM    H2G11895  -0.329   6.412  10.536  0.6156  0.8299  1.4308
  114OSM    C3F11896  -0.554   6.375  10.562 -0.3853 -1.0977 -0.2236
  114OSM    H3F11897  -0.595   6.467  10.514 -0.3484 -1.3213 -0.6862
  114OSM    H3G11898  -0.623   6.372  10.648 -1.2836  1.5280 -0.7519
  114OSM    C4F11899  -0.578   6.260  10.469  0.4193  0.1397  0.0719
  114OSM    H4F11900  -0.684   6.258  10.436  0.9437 -0.5640 -1.7133
  114OSM    H4G11901  -0.558   6.165  10.522  1.9409 -0.1132 -0.8790
  114OSM    C5F11902  -0.503   6.272  10.337 -0.0209  0.2238  0.3311
  114OSM    H5F11903  -0.527   6.183  10.275  0.0450 -0.6807  1.5522
  114OSM    H5G11904  -0.393   6.268  10.353  0.0753 -0.7469 -0.4538
  114OSM    C6F11905  -0.538   6.391  10.254  0.0688 -0.3271 -1.2243
  114OSM    H6F11906  -0.484   6.478  10.298 -1.3375 -0.0631  0.0416
  114OSM    H6G11907  -0.644   6.425  10.250  0.0404  0.1921  1.8608
  114OSM    C7F11908  -0.498   6.388  10.103  0.8761 -0.3266 -0.1529
  114OSM    H7F11909  -0.388   6.375  10.099  1.0900  1.3231 -0.2631
  114OSM    H7G11910  -0.506   6.494  10.070  2.0373  0.1240  0.9366
  114OSM    C8F11911  -0.560   6.275  10.013 -0.2995 -0.7941  0.2712
  114OSM    H8F11912  -0.528   6.175  10.047  1.3903 -0.9021 -1.4419
  114OSM    H8G11913  -0.511   6.298   9.916  2.3345 -2.4114  1.0945
  114OSM    C9F11914  -0.710   6.280  10.001  0.1758 -0.0879  0.6810
  114OSM    H9F11915  -0.761   6.247  10.093 -0.2137 -0.8513  0.1965
  114OSM   C10F11916  -0.786   6.324   9.897 -0.7666 -0.3689 -0.0984
  114OSM   H10F11917  -0.893   6.322   9.922 -0.7515  0.7275  0.0731
  114OSM   C11F11918  -0.740   6.374   9.760  1.1604  0.3085  0.5021
  114OSM   H11F11919  -0.832   6.378   9.697  0.2639 -0.4348  1.7016
  114OSM   H11G11920  -0.672   6.297   9.718 -0.8343 -0.8599 -0.8012
  114OSM   C12F11921  -0.687   6.512   9.765 -0.1474  0.3798  0.3398
  114OSM   H12F11922  -0.583   6.511   9.803 -0.1035 -1.3033  0.2159
  114OSM   H12G11923  -0.756   6.576   9.825 -3.7532 -0.6208 -2.3856
  114OSM   C13F11924  -0.683   6.585   9.626  0.6557 -0.1945 -0.6384
  114OSM   H13F11925  -0.653   6.692   9.629  0.7475 -0.2373  1.1598
  114OSM   H13G11926  -0.789   6.579   9.595 -0.2187  0.2411  1.9718
  114OSM   C14F11927  -0.585   6.544   9.516 -0.3294  0.0793  0.2281
  114OSM   H14F11928  -0.593   6.434   9.502  0.4234 -0.2866  2.3268
  114OSM   H14G11929  -0.481   6.550   9.556 -0.5225 -0.7896  0.8692
  114OSM   C15F11930  -0.592   6.619   9.383 -0.0326 -0.5007  0.3995
  114OSM   H15F11931  -0.523   6.561   9.318  0.0191 -3.4855  2.9202
  114OSM   H15G11932  -0.550   6.720   9.399 -2.9257  0.7640  0.7611
  114OSM   C16F11933  -0.735   6.620   9.337 -0.1652  0.6571  0.2107
  114OSM   H16F11934  -0.792   6.689   9.402  0.9247  1.4621  0.3330
  114OSM   H16G11935  -0.777   6.517   9.346  0.8313  0.1160 -0.9070
  114OSM   C17F11936  -0.760   6.669   9.194 -1.0260 -0.3263  0.4673
  114OSM   H17F11937  -0.719   6.771   9.186  0.4889 -0.9953 -0.7415
  114OSM   H17G11938  -0.871   6.670   9.190 -0.9886  0.2255 -0.6785
  114OSM   C18F11939  -0.710   6.572   9.100  0.0796 -0.2398 -0.1947
  114OSM   H18F11940  -0.601   6.549   9.097  0.1711  0.1416  0.1118
  114OSM   H18G11941  -0.737   6.595   8.995 -1.7121  1.1786  0.5313
  114OSM   H18H11942  -0.765   6.478   9.123  0.2167 -0.0780  0.8351
  115OSM      N11943   1.578   2.956   6.423 -0.1421 -0.1062  0.1454
  115OSM    C1511944   1.553   2.943   6.567  0.0190 -0.4096  0.0880
  115OSM   H15A11945   1.577   3.038   6.613 -1.1965 -0.5630  1.1101
  115OSM   H15B11946   1.599   2.854   6.608  0.7526 -0.8568 -1.6391
  115OSM   H15C11947   1.448   2.922   6.584 -0.2954 -0.4497 -1.7225
  115OSM    C1411948   1.504   2.838   6.350  0.0780 -0.1109  0.4024
  115OSM   H14A11949   1.399   2.862   6.363 -0.4830 -1.0169 -1.9824
  115OSM   H14B11950   1.533   2.743   6.394 -0.6825 -2.1490 -3.1440
  115OSM   H14C11951   1.522   2.824   6.245 -0.7330  0.3250  0.1986
  115OSM    C1311952   1.527   3.086   6.369 -1.1121  0.1880 -0.0761
  115OSM   H13A11953   1.602   3.164   6.362 -1.9561  0.9942 -0.3780
  115OSM   H13B11954   1.440   3.123   6.421 -2.0622 -1.9310 -0.0625
  115OSM   H13C11955   1.493   3.072   6.268 -0.5091  3.1463 -0.7895
  115OSM    C1211956   1.729   2.936   6.391  0.5428 -0.5115 -0.3433
  115OSM   H12A11957   1.743   2.919   6.285 -1.9560 -1.3058 -0.6144
  115OSM   H12B11958   1.769   2.848   6.439  0.4931 -0.6053 -0.4733
  115OSM    C1111959   1.828   3.041   6.433 -0.3304 -0.4257  0.3368
  115OSM   H11A11960   1.926   2.991   6.421  0.4065  0.9838  0.2481
  115OSM   H11B11961   1.809   3.073   6.538 -1.1041 -0.3741  0.1839
  115OSM      P11962   1.904   3.277   6.335 -0.0424  0.5377 -0.2337
  115OSM    O1311963   2.026   3.253   6.258 -0.6189  0.0504  0.0102
  115OSM    O1411964   1.820   3.390   6.299  0.7345  0.3976 -0.3039
  115OSM    O1111965   1.948   3.298   6.484  0.1643 -0.0773 -0.5829
  115OSM    O1211966   1.811   3.148   6.342 -0.0893  0.1130  0.1882
  115OSM    C1S11967   1.841   3.353   6.568 -0.4457  0.9166  0.8391
  115OSM    H1S11968   1.745   3.299   6.552  0.5592 -1.0930  1.3154
  115OSM    H1T11969   1.822   3.460   6.544 -0.6934  0.8564  0.7646
  115OSM     NF11970   1.745   3.396   6.780  0.1213  0.0019 -0.3581
  115OSM    HNF11971   1.723   3.493   6.792 -0.7259 -0.4411  2.0900
  115OSM    C2S11972   1.865   3.350   6.720  0.3721  0.4581  0.4231
  115OSM    H2S11973   1.893   3.250   6.760 -1.7701  0.3182  1.7245
  115OSM    C3S11974   1.998   3.437   6.759 -0.3628 -0.3418  0.3102
  115OSM    H3S11975   1.975   3.541   6.728 -0.5061  1.0249  4.3781
  115OSM     O311976   2.115   3.404   6.681  0.1205  0.3251 -0.2059
  115OSM    HO311977   2.075   3.358   6.607 -3.4551 -0.8188  2.1881
  115OSM    C4S11978   2.016   3.439   6.903 -0.3219 -0.6321  0.2321
  115OSM    H4S11979   2.023   3.348   6.963 -0.5086  0.2843  1.6996
  115OSM    C5S11980   2.037   3.552   6.977 -0.7818 -0.0380  0.3321
  115OSM    H5S11981   2.043   3.645   6.919  1.7438 -1.0380 -1.1708
  115OSM    C6S11982   2.064   3.555   7.122  0.2438 -0.3164 -0.3147
  115OSM    H6S11983   2.002   3.479   7.174 -2.6341  1.6310 -0.6320
  115OSM    H6T11984   2.015   3.648   7.157 -0.3120 -0.5881 -0.3429
  115OSM    C7S11985   2.208   3.552   7.182 -0.0270 -0.5630 -0.4874
  115OSM    H7S11986   2.251   3.649   7.149 -0.8010 -1.2703 -3.9804
  115OSM    H7T11987   2.275   3.474   7.139 -0.7971 -0.8474 -1.2064
  115OSM    C8S11988   2.215   3.541   7.339 -0.1324  0.9745  0.6086
  115OSM    H8S11989   2.307   3.495   7.381 -0.0496  1.4048  0.9005
  115OSM    H8T11990   2.131   3.475   7.370 -0.6670  0.6880 -1.2705
  115OSM    C9S11991   2.202   3.674   7.408  1.0403  0.1519 -0.1889
  115OSM    H9S11992   2.139   3.746   7.351  0.1947 -1.7950 -1.8985
  115OSM    H9T11993   2.303   3.720   7.404  1.0018  0.1500 -2.2196
  115OSM   C10S11994   2.151   3.668   7.554  0.0483  0.3855 -0.1458
  115OSM   H10S11995   2.208   3.588   7.607  0.5713  0.8585  0.0210
  115OSM   H10T11996   2.043   3.647   7.544 -0.0948  0.5247  0.9586
  115OSM   C11S11997   2.176   3.806   7.625  0.3835 -0.1271 -0.1593
  115OSM   H11S11998   2.114   3.876   7.566 -0.3780 -1.3276 -0.8158
  115OSM   H11T11999   2.280   3.841   7.608  0.1770  1.0864  0.9492
  115OSM   C12S12000   2.157   3.818   7.781  0.4808 -1.6071  0.3928
  115OSM   H12S12001   2.063   3.764   7.807 -0.1653 -0.6562  0.0655
  115OSM   H12T12002   2.148   3.928   7.793  0.9463 -1.3469 -1.3302
  115OSM   C13S12003   2.265   3.734   7.847  0.1411 -0.5024 -0.1034
  115OSM   H13S12004   2.362   3.758   7.798 -0.1702  0.9586 -0.0343
  115OSM   H13T12005   2.254   3.627   7.818 -0.3711 -0.3447 -0.4927
  115OSM   C14S12006   2.280   3.760   8.005 -0.1296  1.1666 -0.2547
  115OSM   H14S12007   2.183   3.772   8.056  0.6821  1.5066  1.2676
  115OSM   H14T12008   2.319   3.864   8.012 -1.1535  1.5132  0.5476
  115OSM   C15S12009   2.384   3.667   8.074  0.6814  0.0674 -0.5826
  115OSM   H15S12010   2.486   3.687   8.035  1.2337  1.5740  1.4656
  115OSM   H15T12011   2.360   3.559   8.059 -0.3505 -0.1574  2.1233
  115OSM   C16S12012   2.381   3.678   8.229  0.2701 -0.1844  0.3374
  115OSM   H16S12013   2.283   3.635   8.260  0.4569  0.3510  1.7408
  115OSM   H16T12014   2.383   3.789   8.236 -1.8155 -0.0766 -0.1550
  115OSM   C17S12015   2.512   3.615   8.285  0.4920 -0.5671  0.3768
  115OSM   H17S12016   2.597   3.633   8.216  0.4005 -0.1292  0.3765
  115OSM   H17T12017   2.506   3.504   8.285  1.4174 -0.6240 -0.2641
  115OSM   C18S12018   2.553   3.662   8.427  0.8827 -0.3484 -0.3193
  115OSM   H18S12019   2.642   3.614   8.473  0.2115  0.5511  2.0705
  115OSM   H18T12020   2.471   3.652   8.501  1.1389 -1.7002 -0.1923
  115OSM   H18U12021   2.561   3.773   8.424 -1.2669 -0.0793  1.5459
  115OSM    C1F12022   1.643   3.313   6.792  0.6292 -0.1943 -0.0498
  115OSM     OF12023   1.662   3.197   6.763 -0.4180  0.0513  0.0883
  115OSM    C2F12024   1.505   3.360   6.828 -0.2114  0.0358  0.5287
  115OSM    H2F12025   1.435   3.284   6.868 -0.5590 -0.3993 -0.8388
  115OSM    H2G12026   1.471   3.388   6.726  1.1249 -0.1019  0.0205
  115OSM    C3F12027   1.507   3.472   6.936  0.0541  0.1718  0.0837
  115OSM    H3F12028   1.404   3.512   6.950 -0.1921 -1.1182  2.4631
  115OSM    H3G12029   1.564   3.558   6.895 -0.6832  1.0609  0.8662
  115OSM    C4F12030   1.559   3.433   7.074 -0.5555 -0.5299 -0.0423
  115OSM    H4F12031   1.652   3.371   7.072 -1.3549 -1.7471 -1.5751
  115OSM    H4G12032   1.489   3.354   7.109 -0.2372 -2.0932 -2.6723
  115OSM    C5F12033   1.561   3.545   7.168 -0.5503 -0.5370  0.6995
  115OSM    H5F12034   1.470   3.606   7.151  1.1718  1.5791 -1.7412
  115OSM    H5G12035   1.653   3.597   7.134 -1.2642  1.7594  2.0846
  115OSM    C6F12036   1.585   3.497   7.316 -0.3852  0.3052  0.4999
  115OSM    H6F12037   1.682   3.443   7.326 -1.7238 -2.5155 -0.4541
  115OSM    H6G12038   1.503   3.427   7.342 -0.4503  0.0889 -0.2702
  115OSM    C7F12039   1.570   3.611   7.408 -0.5141 -0.1069 -0.2420
  115OSM    H7F12040   1.575   3.572   7.512 -0.0437  1.9167  0.5487
  115OSM    H7G12041   1.476   3.670   7.398 -0.8117  0.6901  4.6275
  115OSM    C8F12042   1.697   3.702   7.400 -0.1719  0.1213 -0.2854
  115OSM    H8F12043   1.711   3.735   7.295  0.0838  1.0313  0.0286
  115OSM    H8G12044   1.789   3.645   7.427 -0.7400 -0.6816 -0.0272
  115OSM    C9F12045   1.687   3.816   7.491  0.4965  0.4496  0.2557
  115OSM    H9F12046   1.634   3.904   7.452 -0.3237 -0.5934 -1.0724
  115OSM   C10F12047   1.734   3.821   7.615 -0.0409 -0.0042 -0.7653
  115OSM   H10F12048   1.728   3.917   7.669 -1.7570 -0.5486  0.0926
  115OSM   C11F12049   1.800   3.703   7.692  0.5496  0.1648 -0.1831
  115OSM   H11F12050   1.910   3.694   7.681  0.7561  2.2851 -0.1379
  115OSM   H11G12051   1.758   3.605   7.660 -2.1621  1.2487 -0.2095
  115OSM   C12F12052   1.787   3.706   7.850 -0.0551 -0.1406 -0.1928
  115OSM   H12F12053   1.805   3.813   7.875 -0.2957 -0.5705  2.0745
  115OSM   H12G12054   1.862   3.642   7.901 -0.0778 -1.5787 -1.8916
  115OSM   C13F12055   1.646   3.654   7.898 -0.6008 -0.2380 -0.2724
  115OSM   H13F12056   1.634   3.545   7.882 -1.9911 -0.2807  0.8961
  115OSM   H13G12057   1.573   3.714   7.838  0.0410  0.7800 -0.0688
  115OSM   C14F12058   1.609   3.674   8.045  0.7526 -0.3130  0.1743
  115OSM   H14F12059   1.706   3.654   8.095 -0.0026 -1.7580  1.1118
  115OSM   H14G12060   1.533   3.601   8.079 -0.3150  0.3549 -0.7107
  115OSM   C15F12061   1.544   3.814   8.075 -0.1485 -0.1840 -0.2736
  115OSM   H15F12062   1.444   3.819   8.027  0.2342 -1.0077 -1.1943
  115OSM   H15G12063   1.612   3.887   8.027  0.0842 -0.1686  0.0771
  115OSM   C16F12064   1.538   3.857   8.221 -0.1649  0.2524  0.7424
  115OSM   H16F12065   1.513   3.965   8.212 -0.0395  0.2187 -0.0662
  115OSM   H16G12066   1.630   3.840   8.282  0.2298 -0.0204  0.0842
  115OSM   C17F12067   1.432   3.783   8.304  0.3831 -0.0816  0.5417
  115OSM   H17F12068   1.450   3.674   8.300 -0.6772 -0.2329 -1.1891
  115OSM   H17G12069   1.333   3.801   8.255 -0.0914 -0.4963  1.3307
  115OSM   C18F12070   1.414   3.823   8.449  0.1186 -0.0999 -0.7456
  115OSM   H18F12071   1.321   3.777   8.488  0.9667 -1.1210  0.1288
  115OSM   H18G12072   1.401   3.933   8.461 -2.0244 -0.4073  0.0914
  115OSM   H18H12073   1.490   3.791   8.524 -3.9917 -0.6640  3.6252
  116OSM      N12074   6.555   0.919   6.273  0.0918  0.3624  0.0115
  116OSM    C1512075   6.408   0.955   6.269  0.6763 -0.7403 -0.0980
  116OSM   H15A12076   6.383   1.008   6.360  0.4886 -2.3908  0.8716
  116OSM   H15B12077   6.351   0.864   6.260  0.5301 -0.6524 -0.0571
  116OSM   H15C12078   6.390   1.017   6.183 -1.4043  1.5822  1.8629
  116OSM    C1412079   6.588   0.835   6.398  0.1480 -0.0033 -0.0425
  116OSM   H14A12080   6.692   0.805   6.399  0.5266  1.2359  1.5522
  116OSM   H14B12081   6.517   0.753   6.403  2.3099 -1.9046  1.0242
  116OSM   H14C12082   6.577   0.888   6.491  0.8444 -0.7600  0.4845
  116OSM    C1312083   6.591   0.834   6.156 -0.3617  0.7573  1.0290
  116OSM   H13A12084   6.698   0.829   6.142 -0.7518 -0.8952 -2.5546
  116OSM   H13B12085   6.548   0.878   6.067 -0.3883  2.6313  1.9201
  116OSM   H13C12086   6.557   0.731   6.160  0.8719  0.1891 -1.3862
  116OSM    C1212087   6.638   1.048   6.280  0.2175  0.4410  0.1022
  116OSM   H12A12088   6.737   1.008   6.294  0.7077  2.2189  2.1415
  116OSM   H12B12089   6.614   1.099   6.372 -0.0183 -1.8304  1.3603
  116OSM    C1112090   6.613   1.140   6.162  0.3961  0.4581 -0.1507
  116OSM   H11A12091   6.637   1.080   6.071  2.7575  1.1070 -0.0208
  116OSM   H11B12092   6.685   1.224   6.160 -0.5706  1.3141 -1.3265
  116OSM      P12093   6.427   1.307   6.265  0.1876 -0.1413  0.3311
  116OSM    O1312094   6.469   1.443   6.218 -0.1534 -0.3643 -0.1768
  116OSM    O1412095   6.286   1.271   6.281  0.7531  0.0401  0.1514
  116OSM    O1112096   6.487   1.282   6.402  0.4553 -0.3667 -0.1106
  116OSM    O1212097   6.483   1.197   6.163  0.3231 -0.8370  1.0121
  116OSM    C1S12098   6.500   1.382   6.503 -0.0973  0.7147 -0.1285
  116OSM    H1S12099   6.440   1.475   6.498  1.1458  1.5616  0.1050
  116OSM    H1T12100   6.606   1.415   6.504  0.4170 -0.8404 -0.5301
  116OSM     NF12101   6.523   1.401   6.752 -0.0468 -0.4580  0.8459
  116OSM    HNF12102   6.601   1.366   6.802  0.1114  0.0809  0.9871
  116OSM    C2S12103   6.474   1.319   6.642  0.4001 -0.0907 -0.2295
  116OSM    H2S12104   6.363   1.320   6.654  0.0535 -1.0234 -2.7937
  116OSM    C3S12105   6.523   1.176   6.656  0.0311 -0.7200 -0.5432
  116OSM    H3S12106   6.629   1.167   6.625 -0.2570  0.9073 -2.2028
  116OSM     O312107   6.450   1.082   6.573 -0.5303  0.5321  0.1125
  116OSM    HO312108   6.424   1.141   6.501 -1.7193  0.4448  0.4448
  116OSM    C4S12109   6.520   1.122   6.801 -0.2833  0.1219 -0.3289
  116OSM    H4S12110   6.614   1.136   6.857 -0.0570  0.0998 -0.6984
  116OSM    C5S12111   6.418   1.064   6.868  0.1266  0.0278  0.4319
  116OSM    H5S12112   6.314   1.052   6.833  0.2864  0.1462 -0.0976
  116OSM    C6S12113   6.428   1.012   7.014  0.2832  1.0735  0.0553
  116OSM    H6S12114   6.409   0.903   7.010  1.3827  0.8975 -1.6031
  116OSM    H6T12115   6.345   1.068   7.062 -0.8094  2.2501 -2.9555
  116OSM    C7S12116   6.557   1.035   7.095  0.3787  0.2288 -0.2724
  116OSM    H7S12117   6.590   1.141   7.093  1.4576 -0.0520  1.3508
  116OSM    H7T12118   6.631   0.975   7.038  0.1632 -0.1685 -0.1421
  116OSM    C8S12119   6.547   0.990   7.247  0.2324  0.0186  0.2517
  116OSM    H8S12120   6.534   0.880   7.245 -0.2240  0.0738 -1.7464
  116OSM    H8T12121   6.452   1.036   7.280 -0.8173 -0.7416 -1.5695
  116OSM    C9S12122   6.669   1.034   7.339  0.7688  0.8892  0.3205
  116OSM    H9S12123   6.679   1.144   7.348 -0.8674  0.9200  2.9087
  116OSM    H9T12124   6.762   1.003   7.286  0.6521 -0.6403  0.9619
  116OSM   C10S12125   6.651   0.955   7.471  0.6661  0.0531  0.3597
  116OSM   H10S12126   6.730   0.975   7.547  1.4326 -1.0682 -0.1075
  116OSM   H10T12127   6.663   0.846   7.451 -3.5792 -0.4634 -0.2701
  116OSM   C11S12128   6.514   0.966   7.539 -0.1660  0.8311  0.1230
  116OSM   H11S12129   6.430   0.921   7.481  0.3576 -1.2592  0.9060
  116OSM   H11T12130   6.490   1.068   7.576  1.3856  0.5480  2.0180
  116OSM   C12S12131   6.504   0.886   7.670 -0.1931 -0.2455 -0.5093
  116OSM   H12S12132   6.550   0.787   7.648  0.3586 -0.1058 -0.0176
  116OSM   H12T12133   6.402   0.868   7.710  0.3327 -1.4495  0.3696
  116OSM   C13S12134   6.570   0.948   7.786  0.4666 -0.8359 -0.5078
  116OSM   H13S12135   6.511   1.030   7.832  0.5541 -0.8501 -0.3706
  116OSM   H13T12136   6.659   0.996   7.742  2.0519 -4.3519 -1.4890
  116OSM   C14S12137   6.613   0.846   7.893  0.6990  0.1703  0.3712
  116OSM   H14S12138   6.691   0.901   7.951 -1.1165 -0.1079  3.2629
  116OSM   H14T12139   6.662   0.762   7.840 -0.4912 -0.6407  0.5331
  116OSM   C15S12140   6.503   0.790   7.980 -0.6302  0.1439  0.2217
  116OSM   H15S12141   6.540   0.706   8.042  1.1140 -0.6127 -1.7357
  116OSM   H15T12142   6.434   0.736   7.911 -2.4184 -1.6163  3.1576
  116OSM   C16S12143   6.442   0.892   8.079 -0.2297  0.0360  0.1542
  116OSM   H16S12144   6.357   0.853   8.139  2.3659 -1.0617  3.4338
  116OSM   H16T12145   6.393   0.980   8.033 -0.1713 -0.1307 -0.2324
  116OSM   C17S12146   6.539   0.940   8.182  0.2179  0.3618 -0.6715
  116OSM   H17S12147   6.483   1.008   8.249 -3.4130 -1.3205 -1.7312
  116OSM   H17T12148   6.606   1.000   8.118 -1.4777  2.2121 -0.8109
  116OSM   C18S12149   6.605   0.837   8.281 -0.2115 -0.1645  0.3550
  116OSM   H18S12150   6.669   0.904   8.342  2.1446 -0.8310 -1.2443
  116OSM   H18T12151   6.666   0.761   8.228  1.6058  2.6778 -1.8940
  116OSM   H18U12152   6.531   0.787   8.348  0.4179 -0.7906  0.5930
  116OSM    C1F12153   6.480   1.523   6.779  0.5762 -0.0302 -0.1132
  116OSM     OF12154   6.386   1.570   6.715  0.3550  0.1336 -0.5819
  116OSM    C2F12155   6.552   1.597   6.894 -0.1434 -0.5162  0.5009
  116OSM    H2F12156   6.651   1.620   6.850 -0.1634 -0.3355  0.5487
  116OSM    H2G12157   6.569   1.535   6.985 -4.6489  1.1237  2.8064
  116OSM    C3F12158   6.476   1.720   6.950 -0.4689  0.2949 -0.0402
  116OSM    H3F12159   6.368   1.695   6.964  0.2277 -2.5321  0.7341
  116OSM    H3G12160   6.477   1.802   6.875 -0.4400 -0.7944 -1.2645
  116OSM    C4F12161   6.534   1.782   7.082  0.1689  0.1312 -0.5373
  116OSM    H4F12162   6.633   1.821   7.051 -0.7312  1.4724 -1.8979
  116OSM    H4G12163   6.543   1.693   7.147 -1.4069 -0.4076 -1.0138
  116OSM    C5F12164   6.440   1.890   7.142  0.7413 -0.1211  0.0010
  116OSM    H5F12165   6.347   1.834   7.164 -0.6688  1.2222 -2.1590
  116OSM    H5G12166   6.414   1.971   7.071  0.6066  0.6138  0.8613
  116OSM    C6F12167   6.495   1.957   7.269  0.6802  0.5235  0.2767
  116OSM    H6F12168   6.433   2.043   7.302  0.7805  0.7855 -0.2065
  116OSM    H6G12169   6.596   1.990   7.236 -0.0950  2.5653 -0.1820
  116OSM    C7F12170   6.491   1.857   7.390  0.3767  0.4442 -0.2036
  116OSM    H7F12171   6.510   1.749   7.371 -1.7581  0.0549 -0.3871
  116OSM    H7G12172   6.386   1.854   7.427 -0.3755 -0.7535 -2.2360
  116OSM    C8F12173   6.570   1.908   7.502 -0.0375  0.5257  0.4078
  116OSM    H8F12174   6.547   1.839   7.587 -2.3434  0.6477 -0.0505
  116OSM    H8G12175   6.533   2.011   7.522  0.0018  0.2167  2.3077
  116OSM    C9F12176   6.720   1.900   7.464  0.1739 -0.3613  1.1340
  116OSM    H9F12177   6.739   1.855   7.365  0.0268  2.1679 -0.1246
  116OSM   C10F12178   6.813   1.958   7.542 -0.6721  0.6552 -0.0549
  116OSM   H10F12179   6.922   1.952   7.522 -0.9090  1.5076 -1.8399
  116OSM   C11F12180   6.786   2.015   7.672 -0.9742 -0.1917 -0.6429
  116OSM   H11F12181   6.857   1.961   7.737  0.8203  2.4202 -0.2511
  116OSM   H11G12182   6.686   1.977   7.702 -0.9537 -1.2951 -1.8919
  116OSM   C12F12183   6.787   2.172   7.694 -0.2596  0.1711 -0.4958
  116OSM   H12F12184   6.713   2.214   7.623  0.5112  2.0797 -0.2364
  116OSM   H12G12185   6.883   2.216   7.662  0.9941 -0.0993  2.5077
  116OSM   C13F12186   6.752   2.203   7.835  0.2533  0.2741  0.0132
  116OSM   H13F12187   6.650   2.160   7.851 -0.5848  2.5647  1.2640
  116OSM   H13G12188   6.735   2.312   7.840  1.4355  0.5176 -0.9639
  116OSM   C14F12189   6.847   2.166   7.957 -0.3501 -0.5957  0.4310
  116OSM   H14F12190   6.945   2.210   7.930 -0.7741 -0.2986 -0.6701
  116OSM   H14G12191   6.857   2.057   7.976  0.2712 -0.8620 -1.2083
  116OSM   C15F12192   6.808   2.245   8.077 -0.0296 -0.4127 -0.3309
  116OSM   H15F12193   6.705   2.215   8.106 -0.2200 -1.5940 -2.0568
  116OSM   H15G12194   6.798   2.349   8.040 -2.1963 -0.4812 -0.0516
  116OSM   C16F12195   6.895   2.217   8.202  0.7484 -0.0686  0.5083
  116OSM   H16F12196   7.001   2.245   8.185  0.2231  1.8006  0.0850
  116OSM   H16G12197   6.885   2.107   8.211  2.0977 -0.4890 -2.2706
  116OSM   C17F12198   6.834   2.284   8.328  0.6951 -0.1676  0.1509
  116OSM   H17F12199   6.724   2.294   8.321  0.5433 -2.1826 -1.1714
  116OSM   H17G12200   6.872   2.388   8.335 -0.4257  0.5222 -2.7056
  116OSM   C18F12201   6.873   2.198   8.448  0.5665 -0.7223  0.0848
  116OSM   H18F12202   6.846   2.240   8.547 -0.0038 -0.8772 -0.0053
  116OSM   H18G12203   6.983   2.184   8.442  0.8104  0.4985  1.0851
  116OSM   H18H12204   6.822   2.103   8.425 -1.1956  0.3393 -0.5996
  117OSM      N12205   5.965   2.567   6.251 -0.0324 -0.4846 -0.6692
  117OSM    C1512206   6.024   2.503   6.127  0.0036  1.1513 -0.1545
  117OSM   H15A12207   6.079   2.567   6.060  0.1308  1.0888 -0.1100
  117OSM   H15B12208   5.948   2.457   6.065  0.1803 -0.1930  0.5846
  117OSM   H15C12209   6.078   2.414   6.155 -1.9188 -1.1278 -2.9902
  117OSM    C1412210   6.066   2.637   6.335 -0.8248  0.0715  0.5914
  117OSM   H14A12211   6.120   2.709   6.275  0.1074 -0.7415  0.4279
  117OSM   H14B12212   6.126   2.558   6.377 -0.4545  0.4688  0.8305
  117OSM   H14C12213   6.024   2.698   6.414 -1.2513  2.4773 -1.3412
  117OSM    C1312214   5.866   2.666   6.202  0.1665 -0.2005 -0.2144
  117OSM   H13A12215   5.906   2.726   6.122 -1.1388  0.2621 -0.5531
  117OSM   H13B12216   5.845   2.739   6.278  0.9319 -0.9287  0.7184
  117OSM   H13C12217   5.785   2.611   6.154  0.6849 -1.7670  0.6345
  117OSM    C1212218   5.888   2.470   6.336 -0.2926  0.0519 -0.2291
  117OSM   H12A12219   5.790   2.457   6.293 -0.7987 -0.8858  1.1404
  117OSM   H12B12220   5.864   2.524   6.427 -2.9395 -0.7399 -0.3726
  117OSM    C1112221   5.950   2.329   6.365  0.4506 -0.6763 -0.7255
  117OSM   H11A12222   5.900   2.279   6.451  0.1527 -1.3533 -1.2872
  117OSM   H11B12223   6.054   2.356   6.392  0.2118  0.4011 -0.8287
  117OSM      P12224   5.828   2.169   6.190  0.3336  0.2552 -0.1751
  117OSM    O1312225   5.745   2.275   6.123 -0.4919  0.6379  0.3577
  117OSM    O1412226   5.865   2.054   6.110 -0.8182 -0.0717  0.4568
  117OSM    O1112227   5.756   2.114   6.325  0.7281 -0.5282 -0.2953
  117OSM    O1212228   5.956   2.240   6.253  0.1333 -0.4938  0.0682
  117OSM    C1S12229   5.805   2.021   6.420 -0.2185 -0.2880  0.0727
  117OSM    H1S12230   5.913   2.036   6.440 -0.7083  0.4975  2.4615
  117OSM    H1T12231   5.774   1.921   6.384 -1.7700  1.1751 -3.0763
  117OSM     NF12232   5.781   1.946   6.656 -0.5591  0.0344 -0.6849
  117OSM    HNF12233   5.718   1.872   6.677  1.6257 -1.8121 -0.2613
  117OSM    C2S12234   5.734   2.039   6.556  0.0758 -0.3024 -0.6651
  117OSM    H2S12235   5.742   2.143   6.593 -1.8954  0.1578 -1.4084
  117OSM    C3S12236   5.576   2.044   6.539  0.7378 -0.9167  1.1726
  117OSM    H3S12237   5.551   1.941   6.505  0.8077 -0.4414 -0.3848
  117OSM     O312238   5.524   2.135   6.440 -0.2135  0.6129 -0.0469
  117OSM    HO312239   5.594   2.137   6.375  0.9948 -3.5807  0.8262
  117OSM    C4S12240   5.514   2.048   6.672 -0.5344  0.2098 -0.0003
  117OSM    H4S12241   5.477   1.948   6.701 -1.2187 -0.2253 -2.1460
  117OSM    C5S12242   5.504   2.146   6.764 -0.1926 -0.2341  0.6165
  117OSM    H5S12243   5.540   2.248   6.743  0.5423 -0.5615  0.2527
  117OSM    C6S12244   5.441   2.127   6.894 -0.2330  0.2909  0.2249
  117OSM    H6S12245   5.422   2.020   6.914 -0.6758  0.2397 -0.4375
  117OSM    H6T12246   5.348   2.186   6.906 -0.9184 -0.9084  1.0023
  117OSM    C7S12247   5.534   2.164   7.006 -0.2334 -0.1945  0.1275
  117OSM    H7S12248   5.556   2.273   7.000  0.0323 -0.3271 -1.8155
  117OSM    H7T12249   5.624   2.099   6.997 -1.4533 -2.2633  2.0146
  117OSM    C8S12250   5.482   2.134   7.150 -0.2917 -0.1378 -0.1942
  117OSM    H8S12251   5.441   2.032   7.158 -2.2395  0.7192  1.2897
  117OSM    H8T12252   5.396   2.202   7.166  0.5042  0.5892  1.2111
  117OSM    C9S12253   5.572   2.161   7.268 -0.7328  0.1951 -0.7343
  117OSM    H9S12254   5.590   2.269   7.283 -1.3550 -0.0292  2.3511
  117OSM    H9T12255   5.665   2.106   7.245 -0.6731  0.3569 -0.8793
  117OSM   C10S12256   5.511   2.098   7.392 -0.3226 -0.2901 -0.6043
  117OSM   H10S12257   5.474   1.994   7.384  1.6767 -1.1095  0.0906
  117OSM   H10T12258   5.423   2.160   7.421 -1.8881 -2.4855 -0.4031
  117OSM   C11S12259   5.611   2.096   7.511 -0.1125  0.0310 -0.0285
  117OSM   H11S12260   5.656   2.197   7.526  0.7270 -0.7170  3.0564
  117OSM   H11T12261   5.695   2.031   7.481 -0.1150 -0.4430  0.9613
  117OSM   C12S12262   5.553   2.035   7.634 -0.3080 -0.2543 -0.4888
  117OSM   H12S12263   5.532   1.930   7.606  3.6334 -1.7867  1.5466
  117OSM   H12T12264   5.459   2.092   7.655  0.4093  1.1737 -0.9945
  117OSM   C13S12265   5.652   2.027   7.752 -0.1708 -0.0628 -0.3570
  117OSM   H13S12266   5.654   2.126   7.803 -1.5701 -0.8120  1.2532
  117OSM   H13T12267   5.755   2.005   7.714 -1.1100 -1.3020 -2.3678
  117OSM   C14S12268   5.604   1.926   7.861  0.3133  0.2469  0.1457
  117OSM   H14S12269   5.577   1.828   7.817 -0.8193  0.8270 -0.5109
  117OSM   H14T12270   5.507   1.957   7.904  1.4146  1.7767  1.6510
  117OSM   C15S12271   5.691   1.904   7.983 -0.3554 -0.4330 -0.2314
  117OSM   H15S12272   5.707   2.006   8.024 -1.3074  0.2293 -1.4424
  117OSM   H15T12273   5.788   1.860   7.952 -0.6089 -1.4278  0.3380
  117OSM   C16S12274   5.628   1.828   8.096  0.4594  0.8095 -0.1761
  117OSM   H16S12275   5.694   1.821   8.185 -0.1020 -1.4539  0.1370
  117OSM   H16T12276   5.594   1.724   8.075 -0.1056  0.0159  3.7797
  117OSM   C17S12277   5.501   1.901   8.163  0.8794 -0.3609  0.5872
  117OSM   H17S12278   5.466   1.842   8.251  2.4340 -3.7170 -0.8785
  117OSM   H17T12279   5.421   1.873   8.092 -0.2098 -1.3257  2.1269
  117OSM   C18S12280   5.515   2.050   8.195  0.1977  1.0745 -0.2741
  117OSM   H18S12281   5.429   2.078   8.260  1.0106  1.5944  0.6051
  117OSM   H18T12282   5.515   2.107   8.100  1.5635 -1.6587 -2.0491
  117OSM   H18U12283   5.597   2.081   8.262 -0.5528 -1.4041  1.9445
  117OSM    C1F12284   5.908   1.953   6.697  0.0752 -0.3463  0.2491
  117OSM     OF12285   5.973   2.053   6.668 -0.0170  0.2307 -0.4860
  117OSM    C2F12286   5.965   1.835   6.770 -0.6665 -0.1166  0.1884
  117OSM    H2F12287   6.026   1.777   6.698 -0.5204 -1.5081  1.3750
  117OSM    H2G12288   5.888   1.765   6.808  0.2708 -1.9153 -1.0642
  117OSM    C3F12289   6.052   1.881   6.889 -0.3075  0.6378 -0.0246
  117OSM    H3F12290   6.134   1.946   6.850  0.7593 -0.6474 -0.0043
  117OSM    H3G12291   6.109   1.793   6.927 -0.1996  1.3297  1.4963
  117OSM    C4F12292   5.971   1.943   7.002 -0.1535 -0.1112  0.2851
  117OSM    H4F12293   5.896   1.872   7.043  0.3405 -1.4145 -0.9984
  117OSM    H4G12294   5.918   2.030   6.958 -0.8201 -0.0799  1.1116
  117OSM    C5F12295   6.066   1.997   7.120  0.3926 -0.1306  0.4562
  117OSM    H5F12296   6.153   2.057   7.086  2.4365 -3.4727 -0.6812
  117OSM    H5G12297   6.121   1.910   7.162  0.5208  0.2106  1.0017
  117OSM    C6F12298   5.983   2.057   7.232 -0.5757  0.2890  0.2020
  117OSM    H6F12299   5.906   1.991   7.276 -0.7460  1.1619  1.2746
  117OSM    H6G12300   5.933   2.141   7.181  2.0812  0.8954 -1.6226
  117OSM    C7F12301   6.063   2.099   7.353  0.2910 -0.2989  0.2282
  117OSM    H7F12302   6.145   2.162   7.316 -0.3943 -0.2901 -1.3487
  117OSM    H7G12303   6.103   2.001   7.388  0.0412 -0.9348 -1.1911
  117OSM    C8F12304   5.980   2.177   7.461  0.2330 -0.1049  0.0989
  117OSM    H8F12305   6.057   2.197   7.538  0.7616  2.7341 -1.0188
  117OSM    H8G12306   5.899   2.110   7.497  0.1510  0.8498  1.7779
  117OSM    C9F12307   5.922   2.310   7.430  0.2508 -0.3933  0.6141
  117OSM    H9F12308   5.932   2.333   7.323  0.1393  1.1369  0.9177
  117OSM   C10F12309   5.859   2.393   7.516 -0.1757 -0.3740 -0.0973
  117OSM   H10F12310   5.861   2.500   7.491  1.5360  0.7837  4.0002
  117OSM   C11F12311   5.850   2.361   7.666  0.3196  0.6056  0.3398
  117OSM   H11F12312   5.871   2.253   7.679 -0.9868  0.2253 -0.4574
  117OSM   H11G12313   5.746   2.373   7.703 -1.2259 -0.1752 -3.2809
  117OSM   C12F12314   5.941   2.453   7.749  0.8177  0.1566 -0.3886
  117OSM   H12F12315   5.912   2.559   7.734 -3.0600 -0.7701 -0.6329
  117OSM   H12G12316   6.042   2.448   7.704  0.8418 -0.2764 -0.2938
  117OSM   C13F12317   5.952   2.420   7.904 -0.0589  0.8848  0.1849
  117OSM   H13F12318   6.046   2.451   7.955  0.5358 -2.5572  1.4285
  117OSM   H13G12319   5.964   2.311   7.920  1.8125  0.8896 -0.8373
  117OSM   C14F12320   5.833   2.476   7.983  0.1410 -0.6505  0.2096
  117OSM   H14F12321   5.744   2.482   7.917  1.1382  0.4831 -1.1077
  117OSM   H14G12322   5.864   2.578   8.015  2.0710 -1.6596  1.6789
  117OSM   C15F12323   5.800   2.385   8.105 -0.0034 -0.2188  0.2329
  117OSM   H15F12324   5.900   2.346   8.135  0.8800 -0.6733 -2.9494
  117OSM   H15G12325   5.748   2.292   8.074  1.9020 -1.1465 -0.3122
  117OSM   C16F12326   5.713   2.447   8.223 -0.4449  0.1279  0.4995
  117OSM   H16F12327   5.620   2.497   8.189  0.4506  1.6846  0.2126
  117OSM   H16G12328   5.774   2.535   8.252 -0.3629  0.6901 -1.2305
  117OSM   C17F12329   5.688   2.356   8.346 -0.7637  0.1726 -0.2418
  117OSM   H17F12330   5.683   2.422   8.435  0.9754  1.2453 -0.8834
  117OSM   H17G12331   5.585   2.317   8.334  0.0784 -1.7638 -1.7748
  117OSM   C18F12332   5.797   2.249   8.378  0.5562  0.5329  0.3265
  117OSM   H18F12333   5.831   2.200   8.284  2.2556  0.1993  1.0684
  117OSM   H18G12334   5.759   2.164   8.438  1.3384 -0.6127 -0.7413
  117OSM   H18H12335   5.885   2.297   8.426 -0.6665  2.9549  0.2664
  118OSM      N12336   3.373   6.490   6.337 -0.1792  0.4250 -0.7824
  118OSM    C1512337   3.319   6.359   6.400 -0.3203  0.6670  0.6419
  118OSM   H15A12338   3.318   6.288   6.319  1.5362  0.3702  0.8459
  118OSM   H15B12339   3.212   6.372   6.414 -0.6883  0.9604 -2.0248
  118OSM   H15C12340   3.377   6.336   6.489  0.3408  1.9814  0.5777
  118OSM    C1412341   3.305   6.520   6.212  0.0621 -0.0171  0.0373
  118OSM   H14A12342   3.366   6.471   6.137 -0.8025  0.8732 -1.2882
  118OSM   H14B12343   3.304   6.624   6.182  0.4349  0.1123  0.4696
  118OSM   H14C12344   3.204   6.481   6.204 -0.7446  1.9615  0.1143
  118OSM    C1312345   3.345   6.598   6.437  0.0350  0.0514  1.1460
  118OSM   H13A12346   3.240   6.592   6.463 -0.0539 -0.9210  0.6442
  118OSM   H13B12347   3.366   6.696   6.397  0.0947  0.3113  1.8073
  118OSM   H13C12348   3.405   6.592   6.526  1.1640  1.1686  0.4892
  118OSM    C1212349   3.522   6.480   6.315 -0.7208  0.3785  0.2358
  118OSM   H12A12350   3.552   6.386   6.271 -0.4462 -0.3140  1.8314
  118OSM   H12B12351   3.568   6.491   6.412  2.7884 -3.2552 -0.7329
  118OSM    C1112352   3.571   6.600   6.227 -0.0157  0.0306 -0.0819
  118OSM   H11A12353   3.512   6.691   6.253 -2.2114 -1.8770  2.0706
  118OSM   H11B12354   3.559   6.586   6.118 -0.4625  0.5615 -0.1051
  118OSM      P12355   3.826   6.538   6.220 -0.1184 -0.2617  0.2245
  118OSM    O1312356   3.785   6.401   6.235  0.0146  0.1327  0.2079
  118OSM    O1412357   3.872   6.582   6.088 -0.1070 -0.4254 -0.3455
  118OSM    O1112358   3.936   6.564   6.332  0.0697  0.3237  0.4421
  118OSM    O1212359   3.705   6.631   6.260  0.2885 -0.2453  0.2855
  118OSM    C1S12360   3.901   6.659   6.439  0.0656 -0.2723  0.5196
  118OSM    H1S12361   3.799   6.655   6.483  0.4324  2.3210  1.7814
  118OSM    H1T12362   3.923   6.763   6.409  2.3304 -0.6460  0.7232
  118OSM     NF12363   3.944   6.712   6.677  0.1428  0.0852  0.4256
  118OSM    HNF12364   3.947   6.812   6.682 -0.6465  0.2168 -1.1794
  118OSM    C2S12365   4.000   6.645   6.564 -0.4191 -0.8643  0.9234
  118OSM    H2S12366   4.017   6.537   6.584  1.4911 -0.3988  1.9964
  118OSM    C3S12367   4.137   6.701   6.527 -0.2151 -0.7292  0.1242
  118OSM    H3S12368   4.127   6.809   6.501 -0.7483 -0.5508  1.0198
  118OSM     O312369   4.206   6.640   6.413 -0.0799  0.1095  0.2647
  118OSM    HO312370   4.131   6.595   6.373  0.7124  0.3687 -1.6149
  118OSM    C4S12371   4.227   6.678   6.642  0.4078 -0.4185 -0.3605
  118OSM    H4S12372   4.276   6.580   6.650 -1.2076 -1.2123  0.1744
  118OSM    C5S12373   4.266   6.776   6.735  0.1442 -0.4384  0.0167
  118OSM    H5S12374   4.238   6.881   6.719  0.1942 -0.5953 -1.2115
  118OSM    C6S12375   4.360   6.751   6.847 -0.2998  1.0479 -0.4729
  118OSM    H6S12376   4.431   6.835   6.859  0.1196  0.6134  0.2032
  118OSM    H6T12377   4.429   6.666   6.830  1.0768  2.5649 -3.0345
  118OSM    C7S12378   4.275   6.738   6.974  0.3448 -0.0418  0.6687
  118OSM    H7S12379   4.211   6.648   6.962 -3.6108  2.7010 -0.9094
  118OSM    H7T12380   4.212   6.829   6.979  0.2428 -0.1314  1.0026
  118OSM    C8S12381   4.356   6.708   7.093  0.0713 -0.2871  0.0242
  118OSM    H8S12382   4.410   6.805   7.090 -0.9593  0.2830 -1.3165
  118OSM    H8T12383   4.420   6.617   7.092  0.6481  0.1146  0.0807
  118OSM    C9S12384   4.275   6.705   7.223  0.3694 -0.0006  0.2282
  118OSM    H9S12385   4.221   6.608   7.219  1.2730 -0.7045  3.1102
  118OSM    H9T12386   4.214   6.797   7.215  0.4480 -0.1050 -3.6478
  118OSM   C10S12387   4.363   6.710   7.346 -0.0938  0.1177  0.3300
  118OSM   H10S12388   4.368   6.814   7.384 -2.2131 -0.5219  2.6016
  118OSM   H10T12389   4.468   6.674   7.331 -0.7790 -2.0502  0.3894
  118OSM   C11S12390   4.297   6.646   7.465  0.2109 -0.4256 -0.6690
  118OSM   H11S12391   4.356   6.653   7.559  1.5125 -5.1222 -0.8836
  118OSM   H11T12392   4.292   6.539   7.436 -1.0359 -1.0930  1.7838
  118OSM   C12S12393   4.154   6.687   7.502 -0.0510 -0.1373  0.4824
  118OSM   H12S12394   4.088   6.648   7.422  0.7601 -0.0095 -0.2640
  118OSM   H12T12395   4.144   6.797   7.502 -0.4636 -0.1560 -1.0359
  118OSM   C13S12396   4.098   6.629   7.632 -0.0307  0.1461 -0.1111
  118OSM   H13S12397   4.162   6.635   7.723  1.9400  0.6608 -1.4458
  118OSM   H13T12398   4.096   6.523   7.597  0.3090  0.0182  0.2458
  118OSM   C14S12399   3.945   6.665   7.657 -0.9584  0.1756 -0.3676
  118OSM   H14S12400   3.892   6.635   7.564 -0.7729 -0.5730 -0.2356
  118OSM   H14T12401   3.927   6.772   7.681  0.1737  1.0037 -2.8537
  118OSM   C15S12402   3.906   6.582   7.781  0.4404  0.5161 -0.4659
  118OSM   H15S12403   3.967   6.612   7.869 -0.2091 -0.0302  0.1829
  118OSM   H15T12404   3.933   6.475   7.765 -1.8765 -0.2280  0.2453
  118OSM   C16S12405   3.760   6.585   7.814 -0.5833 -0.4864 -0.4104
  118OSM   H16S12406   3.690   6.571   7.728 -0.3645  0.4696 -0.7585
  118OSM   H16T12407   3.741   6.690   7.844 -0.2424 -0.5073 -0.1170
  118OSM   C17S12408   3.717   6.510   7.942 -0.3031  0.2644 -0.0748
  118OSM   H17S12409   3.768   6.558   8.028  1.3207 -1.4606 -0.0071
  118OSM   H17T12410   3.741   6.401   7.940 -0.8334  0.1328  0.3665
  118OSM   C18S12411   3.564   6.509   7.973 -0.4772 -0.2562  0.0326
  118OSM   H18S12412   3.518   6.610   7.986 -0.1837 -0.2156  0.7564
  118OSM   H18T12413   3.545   6.443   8.060  1.0556 -0.0468  0.5577
  118OSM   H18U12414   3.512   6.462   7.887  1.7442 -0.6046 -1.1781
  118OSM    C1F12415   3.861   6.642   6.756  0.2823 -0.2767 -0.6192
  118OSM     OF12416   3.830   6.524   6.725  0.2732  0.0476  0.4416
  118OSM    C2F12417   3.819   6.708   6.882 -0.1298 -0.4924  0.0832
  118OSM    H2F12418   3.709   6.719   6.892 -0.1280 -1.4499  1.4593
  118OSM    H2G12419   3.863   6.809   6.871  1.3263 -1.1645 -0.5113
  118OSM    C3F12420   3.891   6.644   7.011 -0.2568  0.1264 -0.7568
  118OSM    H3F12421   3.996   6.619   6.988 -0.7489 -1.9730 -0.9624
  118OSM    H3G12422   3.850   6.543   7.036 -1.7155  0.5637 -1.2251
  118OSM    C4F12423   3.893   6.743   7.132 -0.4723  0.5641  0.4359
  118OSM    H4F12424   3.929   6.840   7.091 -0.2873 -0.3339 -1.6251
  118OSM    H4G12425   3.965   6.711   7.210 -0.5838  1.7684  1.0562
  118OSM    C5F12426   3.761   6.774   7.201 -0.1201  0.1275 -0.0992
  118OSM    H5F12427   3.720   6.692   7.265  4.0700 -0.1552  2.5913
  118OSM    H5G12428   3.679   6.789   7.128 -1.0551  1.8946  1.2322
  118OSM    C6F12429   3.765   6.906   7.281 -0.0001 -0.0527 -0.8086
  118OSM    H6F12430   3.661   6.942   7.289  0.6206  1.3528  2.1787
  118OSM    H6G12431   3.822   6.982   7.222 -0.8168  0.4896 -0.9133
  118OSM    C7F12432   3.842   6.910   7.420 -0.1539 -0.5179 -0.3934
  118OSM    H7F12433   3.949   6.887   7.401 -0.1912  0.3644 -1.8576
  118OSM    H7G12434   3.788   6.836   7.484 -1.3273 -0.1650 -0.9540
  118OSM    C8F12435   3.826   7.048   7.489  0.5182  0.0011 -0.0716
  118OSM    H8F12436   3.724   7.092   7.488  0.3206 -0.4068 -1.8920
  118OSM    H8G12437   3.879   7.127   7.432  0.6955  0.7572  1.1264
  118OSM    C9F12438   3.885   7.035   7.636  0.6099 -0.2059 -0.0430
  118OSM    H9F12439   3.994   7.050   7.648  0.4007  1.5269 -0.0390
  118OSM   C10F12440   3.810   7.007   7.745  0.5694 -0.1688 -0.3037
  118OSM   H10F12441   3.851   7.000   7.847  0.0846 -0.2245 -0.1124
  118OSM   C11F12442   3.656   6.986   7.747 -0.1853  0.6624 -0.4733
  118OSM   H11F12443   3.637   6.877   7.762 -0.7403  0.8029 -0.1339
  118OSM   H11G12444   3.606   7.006   7.650  0.1512 -1.5773 -1.1766
  118OSM   C12F12445   3.585   7.057   7.861 -0.4274  0.1681  0.8537
  118OSM   H12F12446   3.475   7.060   7.843 -0.5056  4.6502  0.8861
  118OSM   H12G12447   3.615   7.164   7.860  0.8704 -0.1554  2.2438
  118OSM   C13F12448   3.609   7.000   8.006  0.3480  0.5036  0.4848
  118OSM   H13F12449   3.700   7.034   8.060 -0.4986 -0.3496  2.5481
  118OSM   H13G12450   3.612   6.890   7.992 -0.3285  0.3874  1.1686
  118OSM   C14F12451   3.489   7.025   8.090  0.3614 -0.0806  0.4232
  118OSM   H14F12452   3.503   6.961   8.180 -0.3458  0.7040  1.0995
  118OSM   H14G12453   3.398   6.997   8.033  1.2165  0.1128 -1.0944
  118OSM   C15F12454   3.476   7.169   8.143  0.1749  0.3574 -0.0002
  118OSM   H15F12455   3.437   7.232   8.061 -1.3188 -3.0501 -2.1543
  118OSM   H15G12456   3.580   7.203   8.160  0.1359  0.7608 -0.5635
  118OSM   C16F12457   3.394   7.181   8.275 -0.1582  0.7019 -0.3971
  118OSM   H16F12458   3.405   7.089   8.337 -2.4242  2.3015  2.6796
  118OSM   H16G12459   3.291   7.171   8.235 -0.7667  2.5770  0.5989
  118OSM   C17F12460   3.410   7.316   8.352  0.5278  0.1410  0.2632
  118OSM   H17F12461   3.317   7.347   8.405  0.0041 -2.5533  1.0531
  118OSM   H17G12462   3.430   7.379   8.262  2.3302 -1.9023 -0.8486
  118OSM   C18F12463   3.521   7.326   8.452 -0.0969 -0.0880  0.3525
  118OSM   H18F12464   3.617   7.284   8.417  1.2405  1.3039  2.1682
  118OSM   H18G12465   3.492   7.270   8.544  1.9633  1.2989  1.9395
  118OSM   H18H12466   3.531   7.431   8.488 -0.0845 -0.7766  2.5508
  119OSM      N12467   3.284   3.133   5.466  0.3183  0.6456 -0.9579
  119OSM    C1512468   3.384   3.054   5.399 -0.5523  0.6982  0.2601
  119OSM   H15A12469   3.364   3.020   5.298 -0.9019 -1.5221  1.0043
  119OSM   H15B12470   3.385   2.954   5.440  3.1987  0.3385 -0.3714
  119OSM   H15C12471   3.487   3.086   5.398  0.0080 -0.9025  1.6380
  119OSM    C1412472   3.219   3.236   5.377  0.1856 -0.0157  0.3356
  119OSM   H14A12473   3.147   3.303   5.423 -0.5299  0.5802 -1.5747
  119OSM   H14B12474   3.163   3.191   5.297  0.5513 -2.2484  1.2773
  119OSM   H14C12475   3.293   3.293   5.323  1.0651 -2.7785 -1.5720
  119OSM    C1312476   3.177   3.042   5.515 -0.0192  0.7196  0.1582
  119OSM   H13A12477   3.088   3.096   5.546  1.0013  1.5886  1.6814
  119OSM   H13B12478   3.211   2.982   5.598 -1.3532  0.0944  0.2747
  119OSM   H13C12479   3.144   2.972   5.440  0.4148  1.5012 -0.7925
  119OSM    C1212480   3.343   3.211   5.584 -0.3995 -0.4899 -0.1092
  119OSM   H12A12481   3.256   3.253   5.632 -2.8756 -2.9955 -2.0539
  119OSM   H12B12482   3.397   3.297   5.547 -0.6045 -0.9171 -1.4830
  119OSM    C1112483   3.419   3.134   5.694  0.4290  0.4302  0.1098
  119OSM   H11A12484   3.455   3.204   5.773  0.8344 -0.1726  0.4634
  119OSM   H11B12485   3.516   3.092   5.660  0.5999 -0.1955  1.3199
  119OSM      P12486   3.250   3.053   5.870 -0.1171 -0.4951  0.1982
  119OSM    O1312487   3.180   3.183   5.854 -0.3520  0.4444  0.4812
  119OSM    O1412488   3.166   2.935   5.899 -0.1973  0.1172  0.3852
  119OSM    O1112489   3.359   3.068   5.980  0.2472  0.0531  0.2710
  119OSM    O1212490   3.340   3.020   5.746  0.3293 -0.5258 -0.1380
  119OSM    C1S12491   3.335   3.177   6.075 -0.5024  0.5447  0.8797
  119OSM    H1S12492   3.229   3.196   6.103  0.0247  1.0518  2.6712
  119OSM    H1T12493   3.374   3.272   6.032 -1.7347  0.3520 -0.7639
  119OSM     NF12494   3.344   3.244   6.315  0.3838 -0.0094 -0.4048
  119OSM    HNF12495   3.403   3.318   6.346  0.2082  0.6354 -1.5471
  119OSM    C2S12496   3.402   3.150   6.217 -0.1274  0.0629  0.7726
  119OSM    H2S12497   3.389   3.043   6.243  1.7569 -0.0921  1.2396
  119OSM    C3S12498   3.556   3.166   6.189 -0.2573  0.1039 -0.4051
  119OSM    H3S12499   3.580   3.269   6.155  1.3056 -0.4399 -1.0501
  119OSM     O312500   3.600   3.075   6.087 -0.5396  0.0938 -0.1356
  119OSM    HO312501   3.538   3.068   6.014  0.8352 -0.6180 -1.2863
  119OSM    C4S12502   3.631   3.145   6.320  0.4121 -0.6208  0.7240
  119OSM    H4S12503   3.665   3.229   6.383  1.2893 -0.5107  0.1286
  119OSM    C5S12504   3.686   3.036   6.370  0.5408 -0.0992 -0.2187
  119OSM    H5S12505   3.677   2.940   6.316 -1.4592 -0.2171  0.2570
  119OSM    C6S12506   3.762   3.028   6.501  0.7383 -0.0212 -0.8859
  119OSM    H6S12507   3.873   3.036   6.493  0.8684 -2.7270 -3.4950
  119OSM    H6T12508   3.741   2.930   6.547  1.9394 -0.7599 -1.8601
  119OSM    C7S12509   3.718   3.132   6.614  0.9552  0.0567 -0.1218
  119OSM    H7S12510   3.609   3.114   6.628  0.9574 -0.1998 -0.4142
  119OSM    H7T12511   3.728   3.234   6.572  0.1711  0.7135  1.2128
  119OSM    C8S12512   3.798   3.103   6.738 -0.3623  0.6890 -0.6818
  119OSM    H8S12513   3.908   3.117   6.724  0.2273 -1.9464  0.5936
  119OSM    H8T12514   3.794   2.993   6.757 -1.2432  0.7375 -0.5522
  119OSM    C9S12515   3.768   3.195   6.856  0.1341  0.1945 -0.0227
  119OSM    H9S12516   3.660   3.198   6.881  0.1622  1.1647  0.0378
  119OSM    H9T12517   3.802   3.300   6.837 -0.3795  0.2859 -0.4470
  119OSM   C10S12518   3.848   3.152   6.979  0.2311  0.2893  0.3893
  119OSM   H10S12519   3.958   3.152   6.968  0.1988  1.2028  0.0107
  119OSM   H10T12520   3.821   3.045   6.995  2.2074 -0.6660 -1.9918
  119OSM   C11S12521   3.815   3.244   7.099 -0.9191 -0.8013 -0.5284
  119OSM   H11S12522   3.706   3.238   7.123 -1.1617  3.5447  0.1964
  119OSM   H11T12523   3.840   3.347   7.066 -1.5527 -0.4462  0.0737
  119OSM   C12S12524   3.898   3.199   7.223 -0.5393  0.3866  0.2993
  119OSM   H12S12525   3.995   3.155   7.189 -1.1177  0.6956 -1.9109
  119OSM   H12T12526   3.837   3.119   7.270  0.3584  0.8968  2.4609
  119OSM   C13S12527   3.934   3.314   7.319  1.1665  0.1136  0.7742
  119OSM   H13S12528   3.849   3.386   7.319  0.7349 -0.3825  0.0354
  119OSM   H13T12529   4.026   3.367   7.286  0.1102  2.8977  1.9763
  119OSM   C14S12530   3.957   3.269   7.460  0.2929  0.4553  0.0977
  119OSM   H14S12531   3.858   3.244   7.504 -0.7240  4.2952  0.3424
  119OSM   H14T12532   3.989   3.347   7.531 -0.0345  1.3244 -0.6894
  119OSM   C15S12533   4.056   3.156   7.480  0.6634  0.5178  0.2631
  119OSM   H15S12534   4.143   3.183   7.416 -1.5471  2.7010 -2.0885
  119OSM   H15T12535   4.018   3.061   7.438 -1.3904  0.4911  2.0364
  119OSM   C16S12536   4.101   3.128   7.629 -0.3915 -0.4877  1.3890
  119OSM   H16S12537   4.147   3.224   7.660  0.5996 -0.2794 -0.5641
  119OSM   H16T12538   4.188   3.060   7.620  0.1185  0.0845  1.9776
  119OSM   C17S12539   3.997   3.074   7.714 -0.6931 -0.1151 -0.6664
  119OSM   H17S12540   3.893   3.104   7.692 -0.7232  1.6116  1.4305
  119OSM   H17T12541   4.013   3.096   7.822  0.1598 -2.2386 -0.3192
  119OSM   C18S12542   3.985   2.919   7.714  0.0434 -0.3748  0.6294
  119OSM   H18S12543   3.948   2.895   7.611 -0.5139  0.0570  0.7239
  119OSM   H18T12544   3.904   2.884   7.781 -1.1687  2.1188  0.5969
  119OSM   H18U12545   4.080   2.864   7.729 -0.0877 -1.3942 -1.7776
  119OSM    C1F12546   3.223   3.223   6.366  0.5802 -0.5280  0.6143
  119OSM     OF12547   3.133   3.159   6.307 -0.2619 -0.7877  0.3414
  119OSM    C2F12548   3.200   3.278   6.504  0.1091  0.6068 -0.2071
  119OSM    H2F12549   3.177   3.192   6.571  0.2586  0.8867  0.2087
  119OSM    H2G12550   3.117   3.352   6.498 -0.3718 -0.0506 -2.8452
  119OSM    C3F12551   3.330   3.332   6.571  0.6061 -0.0062  0.4424
  119OSM    H3F12552   3.372   3.416   6.512  1.9846 -1.8686 -1.3825
  119OSM    H3G12553   3.405   3.252   6.592  0.3535  0.1750  2.1859
  119OSM    C4F12554   3.308   3.395   6.714 -0.7439  0.1368  0.5402
  119OSM    H4F12555   3.269   3.318   6.784  0.3478 -0.4181  0.5652
  119OSM    H4G12556   3.243   3.485   6.702 -1.2398 -0.4461 -1.7733
  119OSM    C5F12557   3.442   3.452   6.773  0.3464 -0.5490  0.4409
  119OSM    H5F12558   3.502   3.506   6.697 -1.0036  4.0095  2.3122
  119OSM    H5G12559   3.505   3.370   6.816  1.1242  1.2649  3.0275
  119OSM    C6F12560   3.435   3.555   6.886 -0.3695  0.2105 -0.1557
  119OSM    H6F12561   3.363   3.636   6.866 -0.6789 -0.6821 -3.0866
  119OSM    H6G12562   3.535   3.602   6.893  0.8696 -2.3235  0.2337
  119OSM    C7F12563   3.407   3.498   7.022  0.0540  0.1520 -0.3430
  119OSM    H7F12564   3.491   3.429   7.042  0.3755  0.5459 -0.3156
  119OSM    H7G12565   3.314   3.438   7.027  0.9865 -1.4434 -1.4963
  119OSM    C8F12566   3.403   3.603   7.134 -0.4347  0.0373  0.5157
  119OSM    H8F12567   3.338   3.684   7.093 -0.6976 -0.2848  0.2944
  119OSM    H8G12568   3.505   3.644   7.153 -0.2704 -0.2516  0.2648
  119OSM    C9F12569   3.340   3.557   7.259  0.1565 -0.0924 -0.4311
  119OSM    H9F12570   3.234   3.528   7.254 -0.4405  1.7023  0.8943
  119OSM   C10F12571   3.407   3.533   7.374 -0.0356 -0.1859 -0.4844
  119OSM   H10F12572   3.360   3.501   7.467  0.5965 -1.7001 -0.6502
  119OSM   C11F12573   3.561   3.536   7.394  1.2264 -0.2732  0.4448
  119OSM   H11F12574   3.609   3.554   7.296 -0.9670 -1.2464 -0.9000
  119OSM   H11G12575   3.594   3.436   7.428  0.5352 -1.7677 -2.9321
  119OSM   C12F12576   3.598   3.660   7.475 -0.3333 -0.7533  0.4549
  119OSM   H12F12577   3.530   3.671   7.563 -1.6938 -0.1543 -0.6340
  119OSM   H12G12578   3.586   3.754   7.417 -0.8015  0.8498  2.9737
  119OSM   C13F12579   3.750   3.658   7.517 -0.4647  0.2066 -0.4478
  119OSM   H13F12580   3.755   3.751   7.578 -3.8335 -1.3360  2.6025
  119OSM   H13G12581   3.821   3.668   7.433  1.3406 -2.2378  0.6569
  119OSM   C14F12582   3.785   3.537   7.608  0.5060  0.1789 -0.0003
  119OSM   H14F12583   3.895   3.551   7.618  0.4788  2.2038 -1.7544
  119OSM   H14G12584   3.764   3.446   7.549 -0.7952  0.8898 -0.6601
  119OSM   C15F12585   3.716   3.534   7.737  0.6442  0.2847 -0.4269
  119OSM   H15F12586   3.607   3.546   7.725  0.5529  0.9674  0.8709
  119OSM   H15G12587   3.752   3.627   7.787  0.6803 -0.0441  0.1660
  119OSM   C16F12588   3.748   3.407   7.815  0.4712 -1.2056  0.4369
  119OSM   H16F12589   3.734   3.316   7.752  0.5505 -1.4164  0.7202
  119OSM   H16G12590   3.686   3.403   7.906 -0.3786  1.8556  0.0805
  119OSM   C17F12591   3.893   3.404   7.865  0.3145  0.2534  0.4511
  119OSM   H17F12592   3.965   3.378   7.785 -1.2809 -0.0150 -0.9616
  119OSM   H17G12593   3.909   3.326   7.942 -1.3089 -0.1701  0.3975
  119OSM   C18F12594   3.938   3.532   7.931  0.1414 -0.7629 -0.7369
  119OSM   H18F12595   4.040   3.517   7.970 -0.0866  0.6368  0.4866
  119OSM   H18G12596   3.857   3.559   8.002  1.1812 -1.1158  0.6230
  119OSM   H18H12597   3.945   3.611   7.853  0.9547 -1.1064 -1.0192
  120OSM      N12598   1.248   0.762   6.382  0.6261 -0.2986  0.6062
  120OSM    C1512599   1.387   0.818   6.420  0.5180  0.1377 -0.2906
  120OSM   H15A12600   1.461   0.756   6.370  0.8679  0.1720  0.1821
  120OSM   H15B12601   1.420   0.823   6.522 -0.7900  2.9258  0.0835
  120OSM   H15C12602   1.401   0.919   6.386 -0.2092  1.1083  2.1032
  120OSM    C1412603   1.250   0.771   6.230  0.1234 -0.7623 -0.2128
  120OSM   H14A12604   1.159   0.728   6.190 -0.5707  1.5562 -1.3146
  120OSM   H14B12605   1.332   0.714   6.189  0.7135  1.5499 -2.5072
  120OSM   H14C12606   1.254   0.874   6.198 -1.9834 -0.8033 -0.7430
  120OSM    C1312607   1.237   0.634   6.443 -0.1411 -0.0499 -0.3856
  120OSM   H13A12608   1.215   0.650   6.548 -1.8084 -0.4452 -0.6428
  120OSM   H13B12609   1.329   0.577   6.443 -0.5788 -1.1295  3.8940
  120OSM   H13C12610   1.167   0.568   6.394 -1.3534  0.7719  0.1965
  120OSM    C1212611   1.146   0.859   6.435 -0.2679 -0.4383 -1.0250
  120OSM   H12A12612   1.154   0.843   6.541  0.5655  0.2794 -0.9669
  120OSM   H12B12613   1.046   0.822   6.417 -0.1364 -0.5322 -1.6061
  120OSM    C1112614   1.151   1.013   6.392 -0.3265 -0.0292 -0.7373
  120OSM   H11A12615   1.258   1.040   6.382 -0.0162 -0.7680  0.4560
  120OSM   H11B12616   1.096   1.075   6.466 -1.5405 -2.8922  0.9511
  120OSM      P12617   0.939   1.051   6.232  0.3772 -0.2358  0.1073
  120OSM    O1312618   0.935   1.177   6.161 -0.5438  0.2185  0.0513
  120OSM    O1412619   0.885   0.934   6.159 -0.0748 -0.5972  0.4290
  120OSM    O1112620   0.880   1.070   6.376  0.7578  0.1927  0.1715
  120OSM    O1212621   1.094   1.019   6.266  0.2430  0.2897 -0.5853
  120OSM    C1S12622   0.805   0.978   6.457  0.7147  0.6537  0.6665
  120OSM    H1S12623   0.845   0.877   6.432 -0.4138  0.5118 -0.6906
  120OSM    H1T12624   0.698   0.981   6.427  0.4517  2.1365  1.6295
  120OSM     NF12625   0.716   0.913   6.675  0.1041 -0.6810  0.4827
  120OSM    HNF12626   0.624   0.945   6.693 -0.2371 -0.2368 -1.7631
  120OSM    C2S12627   0.812   1.003   6.611 -0.2393 -0.0211 -0.0426
  120OSM    H2S12628   0.918   0.981   6.635 -0.1243  0.8488  0.2947
  120OSM    C3S12629   0.777   1.149   6.654 -0.2155 -0.4994  0.7916
  120OSM    H3S12630   0.670   1.170   6.636  0.3009  2.1135  0.3370
  120OSM     O312631   0.836   1.248   6.567 -0.0600 -0.1880  0.1749
  120OSM    HO312632   0.866   1.203   6.488 -0.4125 -0.9653  0.4783
  120OSM    C4S12633   0.802   1.175   6.799 -0.7606 -0.6547  0.3061
  120OSM    H4S12634   0.726   1.128   6.863 -0.7378  0.2448  1.0203
  120OSM    C5S12635   0.900   1.240   6.865 -0.2266  0.3990 -0.7884
  120OSM    H5S12636   0.972   1.297   6.804  1.2766 -0.1432  0.4045
  120OSM    C6S12637   0.903   1.248   7.019  0.0869 -0.1476 -0.7866
  120OSM    H6S12638   0.856   1.348   7.032  0.0801 -0.1508 -0.7876
  120OSM    H6T12639   1.011   1.252   7.045  0.6702  0.6620 -3.0804
  120OSM    C7S12640   0.825   1.136   7.094 -0.0124 -0.4432  0.2432
  120OSM    H7S12641   0.864   1.037   7.062 -1.1223 -0.4546 -1.1414
  120OSM    H7T12642   0.717   1.131   7.066 -0.3127 -0.0309  1.2487
  120OSM    C8S12643   0.841   1.139   7.247  0.2216  0.5051 -0.8371
  120OSM    H8S12644   0.950   1.155   7.263  0.8062 -0.8878 -2.9840
  120OSM    H8T12645   0.804   1.050   7.302  0.1899  0.8568 -0.2872
  120OSM    C9S12646   0.769   1.261   7.321 -0.2324  0.0021  0.3946
  120OSM    H9S12647   0.665   1.227   7.342  0.0739  0.3934  2.8759
  120OSM    H9T12648   0.766   1.343   7.246  0.0300 -0.0836  0.2912
  120OSM   C10S12649   0.846   1.309   7.447  0.0014  0.1806  0.1236
  120OSM   H10S12650   0.826   1.416   7.472  0.6608  0.2426  0.4231
  120OSM   H10T12651   0.955   1.294   7.433  0.1494  0.6643  0.6984
  120OSM   C11S12652   0.795   1.231   7.574 -0.1565 -0.0519  0.4067
  120OSM   H11S12653   0.862   1.261   7.657 -1.1382  1.8904  0.5680
  120OSM   H11T12654   0.804   1.122   7.553 -0.3329 -0.2785  1.4677
  120OSM   C12S12655   0.660   1.271   7.638 -0.2477  0.6255 -0.0027
  120OSM   H12S12656   0.653   1.224   7.738  0.7788 -1.2979 -0.7953
  120OSM   H12T12657   0.583   1.226   7.572  2.6111 -1.7158 -2.0042
  120OSM   C13S12658   0.641   1.428   7.648 -0.0732  0.8467 -0.9389
  120OSM   H13S12659   0.625   1.490   7.557 -0.3261  1.0463 -0.7596
  120OSM   H13T12660   0.730   1.460   7.706 -0.6510  2.8925 -1.0979
  120OSM   C14S12661   0.512   1.473   7.718  0.2667 -0.6262  0.2319
  120OSM   H14S12662   0.418   1.428   7.680  0.5286 -0.1736 -1.0278
  120OSM   H14T12663   0.499   1.583   7.704  1.9123 -0.4694 -0.2778
  120OSM   C15S12664   0.523   1.446   7.864  0.2946  0.7788 -0.2377
  120OSM   H15S12665   0.623   1.473   7.903  1.1613 -1.0357 -1.0869
  120OSM   H15T12666   0.527   1.338   7.890 -0.2938  1.0576  1.1082
  120OSM   C16S12667   0.419   1.516   7.953 -0.0487 -0.8399 -0.7165
  120OSM   H16S12668   0.318   1.514   7.907 -1.0026 -2.5479  1.3057
  120OSM   H16T12669   0.453   1.622   7.962 -0.6570 -0.7946  2.0344
  120OSM   C17S12670   0.412   1.467   8.103 -0.0082 -0.5564  0.3764
  120OSM   H17S12671   0.502   1.493   8.162  1.3720 -1.5929 -1.2002
  120OSM   H17T12672   0.432   1.358   8.097  2.1117 -0.4374  3.2003
  120OSM   C18S12673   0.275   1.492   8.157  0.3076  0.1945 -0.3321
  120OSM   H18S12674   0.251   1.598   8.179  0.2810 -0.3974  2.8993
  120OSM   H18T12675   0.252   1.441   8.253 -0.2908 -0.9345 -1.0576
  120OSM   H18U12676   0.209   1.453   8.076  0.9825  0.4625 -1.0295
  120OSM    C1F12677   0.751   0.787   6.689 -0.0513 -0.2255 -0.7966
  120OSM     OF12678   0.863   0.753   6.643  0.2838 -0.2553  0.0810
  120OSM    C2F12679   0.649   0.693   6.747 -0.0154  0.1875  0.1553
  120OSM    H2F12680   0.644   0.605   6.678  0.1486  0.6296 -0.4261
  120OSM    H2G12681   0.552   0.746   6.757  0.9127  1.7109  1.5189
  120OSM    C3F12682   0.685   0.630   6.883  0.0592  0.0254 -0.0985
  120OSM    H3F12683   0.780   0.574   6.875  0.2022  0.3836 -1.0749
  120OSM    H3G12684   0.615   0.552   6.919  1.1518 -0.7547  0.3837
  120OSM    C4F12685   0.693   0.739   6.990  0.3821  0.4795 -0.5618
  120OSM    H4F12686   0.614   0.817   6.980 -1.5668 -1.4458 -1.0980
  120OSM    H4G12687   0.792   0.786   6.982  0.7418 -0.0779  0.3715
  120OSM    C5F12688   0.690   0.669   7.129 -0.2149 -0.0249  0.3381
  120OSM    H5F12689   0.761   0.585   7.142 -0.6275 -0.7625 -1.8156
  120OSM    H5G12690   0.593   0.618   7.150  0.8099 -1.6084  1.4904
  120OSM    C6F12691   0.715   0.759   7.251  0.5223  0.0103 -0.2086
  120OSM    H6F12692   0.649   0.848   7.256 -0.2595 -0.6174  1.3098
  120OSM    H6G12693   0.819   0.797   7.244 -0.2634  3.1951  2.5272
  120OSM    C7F12694   0.692   0.674   7.379  0.8078 -0.1435 -0.2258
  120OSM    H7F12695   0.760   0.588   7.361 -0.0186 -1.1080  1.0351
  120OSM    H7G12696   0.591   0.629   7.391  1.2815 -1.0765  0.3793
  120OSM    C8F12697   0.730   0.751   7.499 -0.3183  0.0508  0.0615
  120OSM    H8F12698   0.830   0.795   7.476 -0.6329  0.7491 -0.0058
  120OSM    H8G12699   0.747   0.683   7.585 -0.6490  0.0593  0.1315
  120OSM    C9F12700   0.626   0.847   7.552  0.8458  0.2507  0.4143
  120OSM    H9F12701   0.542   0.880   7.488 -0.5833 -2.1890  0.8762
  120OSM   C10F12702   0.610   0.889   7.678 -0.0571  0.1717 -0.5146
  120OSM   H10F12703   0.507   0.922   7.698 -0.8616 -0.9353 -2.5040
  120OSM   C11F12704   0.687   0.857   7.803 -0.7103  0.3734  0.1515
  120OSM   H11F12705   0.702   0.957   7.850  0.0363 -1.2542  3.6834
  120OSM   H11G12706   0.788   0.816   7.778 -1.1929 -0.6790 -0.1100
  120OSM   C12F12707   0.616   0.756   7.892  0.3501 -0.1545 -0.2972
  120OSM   H12F12708   0.619   0.654   7.847 -1.7025  0.5913 -2.3289
  120OSM   H12G12709   0.511   0.793   7.893  0.3341 -0.2087  0.4311
  120OSM   C13F12710   0.670   0.749   8.039  0.4433  0.0861  0.3730
  120OSM   H13F12711   0.597   0.799   8.106  0.5488  0.3924  0.2594
  120OSM   H13G12712   0.770   0.792   8.058  1.3196 -1.9011  0.4412
  120OSM   C14F12713   0.692   0.604   8.089 -0.3227 -0.2553 -0.0617
  120OSM   H14F12714   0.776   0.550   8.039 -0.9018 -1.4942  0.2683
  120OSM   H14G12715   0.605   0.539   8.065  0.3233 -1.2069  0.1057
  120OSM   C15F12716   0.714   0.597   8.244  0.0761  0.4509 -0.3612
  120OSM   H15F12717   0.626   0.628   8.304  1.5245 -1.5234  3.0876
  120OSM   H15G12718   0.796   0.660   8.284 -0.0732  0.0807  0.5508
  120OSM   C16F12719   0.771   0.453   8.272  0.3369 -0.0111  0.5916
  120OSM   H16F12720   0.820   0.449   8.372  3.1164  1.5783 -0.5738
  120OSM   H16G12721   0.851   0.421   8.201 -1.3459  0.0850 -1.4342
  120OSM   C17F12722   0.662   0.341   8.281  1.1583 -0.9763  0.9205
  120OSM   H17F12723   0.598   0.346   8.191  1.1042 -1.6798  0.9175
  120OSM   H17G12724   0.596   0.383   8.361 -1.0828  1.0258 -1.7917
  120OSM   C18F12725   0.703   0.194   8.298 -0.5903 -0.5417  0.1857
  120OSM   H18F12726   0.771   0.180   8.384  1.5910 -0.9663 -1.5090
  120OSM   H18G12727   0.773   0.158   8.219  0.5262 -0.7343  1.2359
  120OSM   H18H12728   0.611   0.134   8.313 -0.4932 -0.6259  0.4424
  121OSM      N12729   2.380   2.030   5.879  0.1464 -0.2072 -0.4438
  121OSM    C1512730   2.364   1.893   5.937 -0.8497  0.1432 -0.0753
  121OSM   H15A12731   2.457   1.856   5.977 -0.4996  1.4568  0.3839
  121OSM   H15B12732   2.334   1.821   5.862  2.8729 -3.0195  1.1170
  121OSM   H15C12733   2.294   1.897   6.019  0.4837 -0.5269  1.1320
  121OSM    C1412734   2.500   2.029   5.792 -0.0780 -0.4720 -0.6637
  121OSM   H14A12735   2.526   2.125   5.750 -0.1014 -0.5085 -0.7634
  121OSM   H14B12736   2.487   1.958   5.711 -0.5685 -0.8887 -0.2216
  121OSM   H14C12737   2.582   1.986   5.848 -0.4213 -1.8571 -1.1871
  121OSM    C1312738   2.256   2.062   5.797 -0.5272 -0.1814  0.6792
  121OSM   H13A12739   2.242   2.164   5.765 -0.7741 -0.2828  0.4504
  121OSM   H13B12740   2.165   2.052   5.855  0.3581 -1.2919  1.9334
  121OSM   H13C12741   2.251   2.007   5.704 -0.2731  4.0844 -2.1400
  121OSM    C1212742   2.405   2.132   5.989  0.0168  0.3389  0.1093
  121OSM   H12A12743   2.440   2.230   5.959 -2.3792  1.0025 -0.7166
  121OSM   H12B12744   2.482   2.081   6.046 -1.5019 -1.3120  0.7874
  121OSM    C1112745   2.283   2.149   6.088 -0.6566 -0.1725  0.3104
  121OSM   H11A12746   2.316   2.164   6.193  0.6730 -1.2746  0.0794
  121OSM   H11B12747   2.237   2.048   6.080  0.2679 -0.4438 -2.6530
  121OSM      P12748   2.233   2.406   6.059  0.1732  0.5820 -0.1583
  121OSM    O1312749   2.363   2.424   5.991 -0.7975 -0.0105 -0.4656
  121OSM    O1412750   2.120   2.483   6.003 -0.0408  0.1186 -0.7050
  121OSM    O1112751   2.248   2.432   6.214  0.5275  0.1350 -0.4037
  121OSM    O1212752   2.196   2.248   6.042 -0.5828  0.3531 -0.6990
  121OSM    C1S12753   2.155   2.361   6.308 -0.7258 -0.3159 -0.0260
  121OSM    H1S12754   2.157   2.250   6.303 -1.7671 -0.3544  0.3377
  121OSM    H1T12755   2.052   2.401   6.303 -1.1682 -1.3730  0.3894
  121OSM     NF12756   2.154   2.295   6.553 -0.6567 -0.0143  0.0068
  121OSM    HNF12757   2.083   2.323   6.618 -0.8352 -0.5666  0.0541
  121OSM    C2S12758   2.203   2.398   6.452 -0.2213 -0.3587  0.6965
  121OSM    H2S12759   2.313   2.385   6.444 -0.2726  0.1257 -1.1788
  121OSM    C3S12760   2.174   2.546   6.495 -0.6291  0.8856 -1.2143
  121OSM    H3S12761   2.068   2.556   6.526  0.2988  0.8678  2.5504
  121OSM     O312762   2.195   2.636   6.388 -0.3157 -0.4751  0.3802
  121OSM    HO312763   2.229   2.586   6.314  1.4258  1.7248 -0.4012
  121OSM    C4S12764   2.248   2.588   6.616  0.1701  0.2183 -0.6153
  121OSM    H4S12765   2.183   2.597   6.704  0.2584  3.8709 -0.7341
  121OSM    C5S12766   2.373   2.627   6.642  0.3103 -0.1580  0.3901
  121OSM    H5S12767   2.446   2.643   6.561 -0.0667  0.4993  0.1722
  121OSM    C6S12768   2.424   2.681   6.771  0.5065 -0.7337 -0.0074
  121OSM    H6S12769   2.425   2.792   6.766 -2.0558 -0.6480  0.4442
  121OSM    H6T12770   2.527   2.640   6.783  0.3070 -2.1950 -2.5618
  121OSM    C7S12771   2.356   2.650   6.904 -0.0540  0.5123 -0.3462
  121OSM    H7S12772   2.356   2.542   6.929 -0.6935  0.6286  0.1809
  121OSM    H7T12773   2.252   2.688   6.904 -1.0837 -1.9996  1.8824
  121OSM    C8S12774   2.427   2.711   7.026 -0.4577 -0.4146  0.6497
  121OSM    H8S12775   2.488   2.800   7.001 -0.5132 -0.2094  1.2391
  121OSM    H8T12776   2.508   2.639   7.051  0.8967  0.6470 -0.5309
  121OSM    C9S12777   2.338   2.729   7.143  0.1699  0.5605 -0.0971
  121OSM    H9S12778   2.262   2.649   7.151 -0.0993  0.9420  1.3795
  121OSM    H9T12779   2.283   2.823   7.123  0.4510  0.0670 -4.0560
  121OSM   C10S12780   2.406   2.761   7.275  0.0962 -0.2884 -0.4958
  121OSM   H10S12781   2.466   2.855   7.272  0.5227 -0.5356  0.0434
  121OSM   H10T12782   2.470   2.672   7.291  0.1762 -0.3063 -0.9313
  121OSM   C11S12783   2.313   2.780   7.397  0.6764  0.2370  0.1026
  121OSM   H11S12784   2.246   2.693   7.410  0.0394  0.6697 -0.1861
  121OSM   H11T12785   2.237   2.858   7.373  1.5298  1.1824  0.3719
  121OSM   C12S12786   2.380   2.816   7.530  0.5688  0.1376 -0.1083
  121OSM   H12S12787   2.419   2.920   7.535 -2.9320  1.6189 -0.6170
  121OSM   H12T12788   2.472   2.757   7.551  1.4158  1.4717  0.0427
  121OSM   C13S12789   2.284   2.780   7.648  0.4268 -0.2020  0.0129
  121OSM   H13S12790   2.248   2.675   7.649  0.0289 -0.0684 -0.1017
  121OSM   H13T12791   2.191   2.839   7.630  1.3642  0.9385 -1.3544
  121OSM   C14S12792   2.338   2.807   7.793 -0.0671  0.5842  0.9522
  121OSM   H14S12793   2.344   2.918   7.787  0.3258  0.4995 -0.5317
  121OSM   H14T12794   2.443   2.772   7.800 -0.2981 -0.0821  1.1363
  121OSM   C15S12795   2.245   2.748   7.903 -0.1053  0.5253  0.9120
  121OSM   H15S12796   2.251   2.638   7.894 -0.8190  0.3630  2.1732
  121OSM   H15T12797   2.149   2.801   7.884 -1.1798 -1.3747  0.8530
  121OSM   C16S12798   2.308   2.783   8.041 -0.3086  0.0980 -0.4017
  121OSM   H16S12799   2.318   2.893   8.046  2.0070 -0.0992  1.5115
  121OSM   H16T12800   2.410   2.738   8.045 -0.1007  0.4582 -1.3846
  121OSM   C17S12801   2.207   2.737   8.155  0.4723  1.0444 -0.7150
  121OSM   H17S12802   2.176   2.632   8.140 -0.4537  1.1457  0.3734
  121OSM   H17T12803   2.122   2.808   8.145 -0.2754  0.3021  0.1848
  121OSM   C18S12804   2.267   2.749   8.292  0.8081 -0.0799  0.1155
  121OSM   H18S12805   2.328   2.659   8.312  1.1077 -0.1486 -1.0470
  121OSM   H18T12806   2.179   2.760   8.359  1.3342  1.3210  0.6135
  121OSM   H18U12807   2.313   2.846   8.322 -1.4457  0.4464  2.2615
  121OSM    C1F12808   2.181   2.166   6.551  0.0237 -0.2717 -0.3538
  121OSM     OF12809   2.240   2.115   6.457 -0.1073 -0.1355 -0.6846
  121OSM    C2F12810   2.125   2.087   6.661  0.2087 -0.3996  0.0300
  121OSM    H2F12811   2.047   2.020   6.619 -0.6481  0.6900 -0.1886
  121OSM    H2G12812   2.083   2.159   6.735 -0.8678 -1.7833  0.8229
  121OSM    C3F12813   2.232   2.002   6.732  0.2485 -0.1932  0.3321
  121OSM    H3F12814   2.323   2.066   6.734 -0.7919  1.3361  1.0595
  121OSM    H3G12815   2.251   1.919   6.661 -0.1279  1.6451 -2.0376
  121OSM    C4F12816   2.192   1.956   6.871 -1.0355 -0.7533 -0.1469
  121OSM    H4F12817   2.127   1.867   6.860 -0.9106 -0.6753 -1.7101
  121OSM    H4G12818   2.129   2.035   6.919 -1.3547 -1.2216  0.2134
  121OSM    C5F12819   2.314   1.919   6.956  0.0738 -0.0456 -0.0390
  121OSM    H5F12820   2.397   1.992   6.961  0.6944 -0.7306 -0.1386
  121OSM    H5G12821   2.356   1.835   6.896  1.5141  0.1581  0.6500
  121OSM    C6F12822   2.275   1.867   7.094  0.7682 -1.1561 -1.1530
  121OSM    H6F12823   2.362   1.806   7.124  1.7471  0.3696 -0.8023
  121OSM    H6G12824   2.186   1.801   7.085 -1.5317  1.1892  1.8761
  121OSM    C7F12825   2.254   1.980   7.198 -0.9300  0.4846 -1.1356
  121OSM    H7F12826   2.159   2.029   7.170 -1.1932 -0.6724 -2.3658
  121OSM    H7G12827   2.343   2.047   7.194  0.9214 -1.4645  2.6098
  121OSM    C8F12828   2.235   1.929   7.343 -0.3001  0.7391 -0.1289
  121OSM    H8F12829   2.304   1.843   7.356 -2.1316 -0.7138  0.3898
  121OSM    H8G12830   2.140   1.874   7.360  2.5318 -3.8150  3.1415
  121OSM    C9F12831   2.275   2.029   7.443 -0.6573  0.8653 -0.1278
  121OSM    H9F12832   2.329   2.121   7.418  0.0138  0.3394 -0.6597
  121OSM   C10F12833   2.240   2.017   7.579  0.1553  0.0339 -0.4181
  121OSM   H10F12834   2.263   2.102   7.643 -0.7596 -0.9807  1.3525
  121OSM   C11F12835   2.151   1.915   7.643  0.4154  0.2429  0.5932
  121OSM   H11F12836   2.207   1.861   7.722  1.0043 -2.3947 -1.4909
  121OSM   H11G12837   2.121   1.839   7.568 -1.1455  2.3798 -1.1136
  121OSM   C12F12838   2.024   1.968   7.716 -0.2181  0.5116  0.0241
  121OSM   H12F12839   1.956   1.881   7.732  0.0174  0.3292  0.0304
  121OSM   H12G12840   1.970   2.039   7.649 -0.3789 -0.4364 -0.8821
  121OSM   C13F12841   2.049   2.035   7.858 -0.6714 -0.1744 -0.0975
  121OSM   H13F12842   2.126   2.113   7.844 -1.3403  0.6489  0.6953
  121OSM   H13G12843   2.095   1.955   7.921  0.3389 -1.3654 -2.2531
  121OSM   C14F12844   1.929   2.095   7.927  0.4044  0.0669 -0.1753
  121OSM   H14F12845   1.865   2.006   7.949  1.2755 -0.4604  0.2469
  121OSM   H14G12846   1.867   2.161   7.863 -0.5738 -1.2278 -0.6320
  121OSM   C15F12847   1.968   2.175   8.047 -0.2623 -0.4424 -0.8269
  121OSM   H15F12848   2.038   2.260   8.031 -1.1665  0.4278 -0.2337
  121OSM   H15G12849   2.014   2.097   8.112 -1.4717 -1.3486 -1.0141
  121OSM   C16F12850   1.848   2.233   8.126  0.0482 -0.1280  0.8608
  121OSM   H16F12851   1.780   2.153   8.160 -1.2132  1.1209  1.3877
  121OSM   H16G12852   1.781   2.300   8.068 -0.3454 -1.2664 -0.0302
  121OSM   C17F12853   1.878   2.305   8.257 -0.4813  0.5745 -0.1203
  121OSM   H17F12854   1.913   2.236   8.337  1.4867  2.5808  0.8687
  121OSM   H17G12855   1.777   2.340   8.288 -0.5219  1.0873 -0.8085
  121OSM   C18F12856   1.968   2.432   8.249 -0.2044  0.4373  0.3189
  121OSM   H18F12857   1.924   2.505   8.177 -2.0913 -0.1292  0.8547
  121OSM   H18G12858   2.073   2.413   8.217  1.0779 -1.0741  4.8012
  121OSM   H18H12859   1.977   2.478   8.350  0.3741  0.5963  0.2017
  122OSM      N12860   1.661   5.791   6.230  0.5336  0.9154  0.0359
  122OSM    C1512861   1.680   5.836   6.374  0.0965 -0.3589  0.1297
  122OSM   H15A12862   1.770   5.893   6.390  1.3916 -2.3660  0.3247
  122OSM   H15B12863   1.680   5.751   6.440 -0.3341  1.2472  2.2909
  122OSM   H15C12864   1.594   5.898   6.395  0.8024  0.6756  0.0520
  122OSM    C1412865   1.770   5.696   6.199 -0.1388  0.4851  0.0481
  122OSM   H14A12866   1.776   5.613   6.269  1.8519 -0.8661 -1.6136
  122OSM   H14B12867   1.862   5.749   6.214  1.0197 -1.3011 -0.4899
  122OSM   H14C12868   1.774   5.645   6.104 -1.5887 -3.2869  1.7580
  122OSM    C1312869   1.533   5.707   6.235 -0.7099 -0.0220  0.1590
  122OSM   H13A12870   1.544   5.634   6.314 -0.9445  1.4909  1.6298
  122OSM   H13B12871   1.515   5.648   6.146 -1.4936 -3.3508  2.3601
  122OSM   H13C12872   1.445   5.768   6.247  0.4754  2.4953 -2.6059
  122OSM    C1212873   1.667   5.905   6.139  0.2121  0.2127  0.2224
  122OSM   H12A12874   1.659   5.876   6.035  4.1192  2.3357 -0.8562
  122OSM   H12B12875   1.766   5.947   6.133  1.0504 -1.8236 -3.2920
  122OSM    C1112876   1.552   6.014   6.150  1.0100  0.4953  0.0249
  122OSM   H11A12877   1.544   6.067   6.248  0.2936 -1.0625  0.8389
  122OSM   H11B12878   1.458   5.956   6.152 -0.4190  2.6788  1.9633
  122OSM      P12879   1.631   6.241   6.055  0.0078  0.4678  0.1227
  122OSM    O1312880   1.738   6.264   5.955  0.5317 -0.1036 -0.3125
  122OSM    O1412881   1.542   6.355   6.063  0.2120  0.0965  0.3315
  122OSM    O1112882   1.696   6.212   6.196  0.1817  0.2596  0.0430
  122OSM    O1212883   1.562   6.102   6.037  0.7233  0.2812 -1.0119
  122OSM    C1S12884   1.699   6.318   6.296 -1.1319  0.3795 -0.7263
  122OSM    H1S12885   1.601   6.365   6.317 -0.2715  2.8229 -1.8041
  122OSM    H1T12886   1.762   6.398   6.251 -0.4696 -0.2416 -0.9182
  122OSM     NF12887   1.749   6.388   6.523 -0.5548  0.4390  0.3369
  122OSM    HNF12888   1.839   6.419   6.551  0.2111 -1.9778  0.8115
  122OSM    C2S12889   1.752   6.275   6.432  0.3435  0.4758  1.0379
  122OSM    H2S12890   1.686   6.199   6.478 -1.2696  0.4947 -1.1104
  122OSM    C3S12891   1.900   6.213   6.422  0.0473 -0.5984 -0.4584
  122OSM    H3S12892   1.959   6.296   6.377 -0.3102  0.0318  0.2055
  122OSM     O312893   1.904   6.101   6.341  0.3621  0.5321 -0.3188
  122OSM    HO312894   1.819   6.104   6.296 -0.7925 -0.0560  1.6899
  122OSM    C4S12895   1.964   6.170   6.561  0.5040 -1.2743 -0.6049
  122OSM    H4S12896   2.055   6.219   6.598  0.6741 -2.0095 -0.0104
  122OSM    C5S12897   1.918   6.063   6.633  0.0902 -0.3950  0.1170
  122OSM    H5S12898   1.838   5.999   6.593  0.4392  0.3172 -1.8653
  122OSM    C6S12899   1.982   6.004   6.761 -0.7277 -0.5873 -0.1992
  122OSM    H6S12900   2.047   6.082   6.806 -2.3389  0.0085  1.2250
  122OSM    H6T12901   2.035   5.913   6.727  0.5349 -0.8741  2.3185
  122OSM    C7S12902   1.892   5.941   6.871 -0.6653  0.0434  0.3790
  122OSM    H7S12903   1.946   5.859   6.923  0.1788  0.6932  0.5473
  122OSM    H7T12904   1.801   5.893   6.829 -1.2497 -0.8050  2.4467
  122OSM    C8S12905   1.831   6.048   6.962  0.0475 -0.0994 -0.2970
  122OSM    H8S12906   1.744   6.104   6.923  1.6406  3.1697  0.5235
  122OSM    H8T12907   1.912   6.121   6.982  0.7619 -0.9497 -0.0066
  122OSM    C9S12908   1.778   5.981   7.093  0.5178  0.2029  0.2148
  122OSM    H9S12909   1.863   5.922   7.133  0.9052  0.5623 -0.0600
  122OSM    H9T12910   1.696   5.908   7.080  0.0660  0.6033  0.7595
  122OSM   C10S12911   1.738   6.079   7.195  0.8582 -0.1430  0.2582
  122OSM   H10S12912   1.638   6.121   7.170  0.0024 -1.6018  1.0921
  122OSM   H10T12913   1.816   6.158   7.200  0.7359 -0.0805  3.4448
  122OSM   C11S12914   1.733   6.034   7.343  0.4142 -0.4712  0.3829
  122OSM   H11S12915   1.728   6.130   7.398 -0.3931 -0.1149 -0.2740
  122OSM   H11T12916   1.824   5.974   7.364  0.0474 -0.2098  2.9666
  122OSM   C12S12917   1.617   5.941   7.384 -1.3081 -0.9445  1.3930
  122OSM   H12S12918   1.633   5.847   7.327 -0.5662  0.0977 -0.2280
  122OSM   H12T12919   1.521   5.992   7.360 -0.2400 -0.1604 -1.7273
  122OSM   C13S12920   1.616   5.906   7.532 -0.2414 -0.0541  0.2616
  122OSM   H13S12921   1.714   5.853   7.540 -0.5923 -0.9806 -1.1457
  122OSM   H13T12922   1.527   5.839   7.541 -0.4265 -0.0210 -1.1493
  122OSM   C14S12923   1.593   6.023   7.617  0.1560  0.5569 -0.1202
  122OSM   H14S12924   1.520   6.089   7.566 -0.0333  1.3668  1.1552
  122OSM   H14T12925   1.687   6.078   7.639  1.5136 -0.7790 -2.1786
  122OSM   C15S12926   1.529   5.968   7.747 -0.2881  1.0071  0.5510
  122OSM   H15S12927   1.458   5.884   7.728  1.7471 -0.5499 -0.6717
  122OSM   H15T12928   1.483   6.040   7.818  0.6100  1.4575  0.6866
  122OSM   C16S12929   1.636   5.891   7.832 -0.2108  0.8694 -0.3443
  122OSM   H16S12930   1.717   5.967   7.835 -0.0867  0.7367  2.1728
  122OSM   H16T12931   1.668   5.798   7.780 -0.6369 -1.1818  2.7968
  122OSM   C17S12932   1.582   5.861   7.970  0.3495  0.2279 -0.1075
  122OSM   H17S12933   1.483   5.812   7.966 -0.5582  1.8969  0.7690
  122OSM   H17T12934   1.576   5.948   8.039  0.3191 -1.2596  1.8684
  122OSM   C18S12935   1.694   5.784   8.042  0.5298 -0.1005 -0.0506
  122OSM   H18S12936   1.675   5.771   8.151 -1.9060 -2.2619 -0.6558
  122OSM   H18T12937   1.796   5.829   8.043  2.0142 -2.9038 -3.2633
  122OSM   H18U12938   1.719   5.692   7.984 -1.4130 -0.4716 -0.3527
  122OSM    C1F12939   1.641   6.445   6.568  0.0014 -0.3840 -0.0045
  122OSM     OF12940   1.535   6.392   6.540  0.1215 -0.5959 -0.3934
  122OSM    C2F12941   1.660   6.574   6.652  0.3996  0.2628 -0.3746
  122OSM    H2F12942   1.639   6.662   6.587  2.3009  0.9987 -0.0806
  122OSM    H2G12943   1.769   6.590   6.672 -0.4418  4.6245  2.1016
  122OSM    C3F12944   1.568   6.572   6.782  0.4367  0.3815 -0.0397
  122OSM    H3F12945   1.462   6.565   6.748  0.6724  0.6624 -0.8502
  122OSM    H3G12946   1.579   6.672   6.828 -1.6820  0.2852  0.8222
  122OSM    C4F12947   1.582   6.453   6.876 -0.3432  0.0343 -0.0608
  122OSM    H4F12948   1.545   6.363   6.821 -1.9244  0.6111  0.0003
  122OSM    H4G12949   1.508   6.456   6.960 -1.5886  1.3527 -1.1511
  122OSM    C5F12950   1.723   6.440   6.923  0.2271 -0.6407 -0.0398
  122OSM    H5F12951   1.803   6.432   6.847  0.1372 -1.6195 -0.0350
  122OSM    H5G12952   1.716   6.335   6.956  2.4884 -0.6462  0.5932
  122OSM    C6F12953   1.753   6.524   7.052 -0.5475  0.6024  0.2914
  122OSM    H6F12954   1.759   6.631   7.024 -1.2661 -0.0347 -2.7323
  122OSM    H6G12955   1.854   6.493   7.085 -0.7540 -0.9347 -0.3996
  122OSM    C7F12956   1.644   6.510   7.164 -0.4804  0.6880 -0.1329
  122OSM    H7F12957   1.609   6.407   7.183 -0.8292  1.1251  1.9103
  122OSM    H7G12958   1.551   6.558   7.127 -0.5671 -1.0151 -2.2670
  122OSM    C8F12959   1.687   6.556   7.310 -1.2120  0.4101  0.4135
  122OSM    H8F12960   1.757   6.639   7.287 -0.2547 -0.2246  0.9856
  122OSM    H8G12961   1.743   6.470   7.353 -0.6226  0.6003  0.0353
  122OSM    C9F12962   1.573   6.610   7.394 -0.1751  0.6305 -0.4061
  122OSM    H9F12963   1.531   6.701   7.350 -2.4142 -0.2234 -0.1375
  122OSM   C10F12964   1.525   6.570   7.515  0.2360 -0.7012 -0.0013
  122OSM   H10F12965   1.444   6.633   7.554  2.1205  1.7047  0.2272
  122OSM   C11F12966   1.578   6.445   7.587  0.2463 -0.5705 -0.3897
  122OSM   H11F12967   1.688   6.447   7.602  0.6469 -2.2348 -2.5968
  122OSM   H11G12968   1.570   6.358   7.518  0.8733 -0.6096 -0.4213
  122OSM   C12F12969   1.491   6.415   7.714 -1.0503  0.3006  0.8238
  122OSM   H12F12970   1.512   6.311   7.746 -2.2019 -0.8112 -1.7405
  122OSM   H12G12971   1.382   6.413   7.689 -0.5215 -0.5090 -1.6937
  122OSM   C13F12972   1.514   6.506   7.842 -0.5750  0.3842 -0.0873
  122OSM   H13F12973   1.482   6.611   7.828  0.5925  0.8948  0.9324
  122OSM   H13G12974   1.622   6.495   7.868 -0.3779 -0.1668 -1.0564
  122OSM   C14F12975   1.422   6.462   7.953 -0.0436 -0.0445 -0.1741
  122OSM   H14F12976   1.425   6.354   7.979  2.8597 -0.1338 -0.5807
  122OSM   H14G12977   1.316   6.473   7.920  0.2266  0.4938 -0.8950
  122OSM   C15F12978   1.440   6.553   8.078 -0.6795  0.0869  0.3930
  122OSM   H15F12979   1.427   6.654   8.034  0.6240  0.5318  0.9795
  122OSM   H15G12980   1.547   6.548   8.108 -0.3730  0.1637 -0.6381
  122OSM   C16F12981   1.345   6.523   8.196  0.5908 -0.0618  0.1758
  122OSM   H16F12982   1.383   6.434   8.251  0.6753 -0.5332 -0.6286
  122OSM   H16G12983   1.245   6.488   8.162 -0.7665 -0.1979  3.8471
  122OSM   C17F12984   1.329   6.649   8.285 -0.2388  0.0386 -0.4097
  122OSM   H17F12985   1.303   6.738   8.224 -0.6504  0.0285 -0.2533
  122OSM   H17G12986   1.436   6.663   8.313 -0.0541  1.0253 -1.5427
  122OSM   C18F12987   1.236   6.630   8.403 -0.0457  0.0930 -0.2897
  122OSM   H18F12988   1.131   6.622   8.369 -0.7318  2.4430  1.0197
  122OSM   H18G12989   1.247   6.720   8.467 -0.5216 -1.0611  1.4497
  122OSM   H18H12990   1.265   6.533   8.448 -0.7201 -0.8367 -1.7673
  123OSM      N12991   5.041   1.452   6.004  0.1700 -0.1504  1.3828
  123OSM    C1512992   5.173   1.402   5.969  0.3270  1.1025 -0.0288
  123OSM   H15A12993   5.224   1.345   6.045 -1.3705  0.0555  0.3814
  123OSM   H15B12994   5.235   1.485   5.941  0.1888  0.8344 -1.2138
  123OSM   H15C12995   5.170   1.327   5.891  1.4253  0.6452  0.3458
  123OSM    C1412996   5.045   1.541   6.127  0.6816 -0.1513 -0.2202
  123OSM   H14A12997   4.958   1.514   6.186 -1.0789  1.2256 -2.0529
  123OSM   H14B12998   5.059   1.647   6.110  0.7489 -0.0031  0.7023
  123OSM   H14C12999   5.134   1.509   6.179 -0.2449 -1.4740  0.6217
  123OSM    C1313000   4.982   1.530   5.887  0.5799 -0.4687 -0.0176
  123OSM   H13A13001   4.954   1.462   5.808 -1.5679  1.1299 -0.7011
  123OSM   H13B13002   5.062   1.591   5.849  2.6433 -2.3331  1.0769
  123OSM   H13C13003   4.898   1.587   5.924 -0.1384 -0.5866 -1.4211
  123OSM    C1213004   4.952   1.327   6.025  0.4278  0.3144  0.2531
  123OSM   H12A13005   4.953   1.274   5.931 -3.0194 -3.4803  2.0186
  123OSM   H12B13006   4.848   1.354   6.040 -0.3884 -1.2120 -2.0309
  123OSM    C1113007   4.978   1.219   6.134 -0.4468 -0.4842 -0.6832
  123OSM   H11A13008   5.067   1.158   6.108  1.4769  1.1321  1.7112
  123OSM   H11B13009   4.886   1.156   6.132 -1.2143  0.5778  0.0418
  123OSM      P13010   4.859   1.317   6.344 -0.0912 -0.2876  0.6076
  123OSM    O1313011   4.786   1.409   6.256 -0.0217  0.0570  0.3582
  123OSM    O1413012   4.784   1.196   6.383 -0.0791  0.0369  0.2364
  123OSM    O1113013   4.916   1.400   6.466  0.1610 -0.4523 -0.1903
  123OSM    O1213014   4.993   1.286   6.265  0.1977 -0.1580 -0.5001
  123OSM    C1S13015   4.967   1.350   6.589 -0.5578  0.0375 -0.6113
  123OSM    H1S13016   5.077   1.347   6.577 -0.1045  0.8226  2.4194
  123OSM    H1T13017   4.932   1.246   6.604  2.4947 -0.9707  0.3342
  123OSM     NF13018   4.996   1.376   6.830  0.2512  0.7202 -0.2199
  123OSM    HNF13019   4.947   1.310   6.886  2.8831 -0.1847  1.1660
  123OSM    C2S13020   4.928   1.433   6.715  0.9020 -0.3774 -0.3818
  123OSM    H2S13021   4.966   1.534   6.688 -0.7269  1.0187  2.1896
  123OSM    C3S13022   4.771   1.441   6.729 -0.7076 -0.2094 -0.5462
  123OSM    H3S13023   4.726   1.340   6.738 -1.5334  0.3046  1.8282
  123OSM     O313024   4.701   1.497   6.618 -0.3182  0.2958  0.5456
  123OSM    HO313025   4.768   1.503   6.549  0.0721 -1.5328  0.7204
  123OSM    C4S13026   4.738   1.513   6.861 -0.0003 -0.1500 -0.8505
  123OSM    H4S13027   4.696   1.443   6.934 -2.6896 -1.0974 -3.1052
  123OSM    C5S13028   4.745   1.640   6.893  0.2479 -0.4742 -0.3259
  123OSM    H5S13029   4.798   1.697   6.815  0.4751 -0.8279 -0.4305
  123OSM    C6S13030   4.728   1.714   7.025 -0.5258  0.0335 -0.4131
  123OSM    H6S13031   4.622   1.734   7.050 -0.1451 -0.6064  1.9448
  123OSM    H6T13032   4.766   1.819   7.026  1.5285 -0.6481  0.9429
  123OSM    C7S13033   4.781   1.630   7.148  0.0784  0.5173  0.1627
  123OSM    H7S13034   4.881   1.598   7.112 -0.6589 -1.2410 -0.4403
  123OSM    H7T13035   4.725   1.534   7.155 -0.4126  0.8499  0.9194
  123OSM    C8S13036   4.769   1.706   7.285 -0.5961 -0.5734 -0.1832
  123OSM    H8S13037   4.664   1.739   7.296 -1.6664 -3.4734 -0.8782
  123OSM    H8T13038   4.828   1.799   7.299 -0.2049 -0.5780 -1.6251
  123OSM    C9S13039   4.798   1.614   7.399 -0.2922  0.0618 -0.0796
  123OSM    H9S13040   4.899   1.571   7.381 -0.6090 -0.2781 -1.1484
  123OSM    H9T13041   4.729   1.526   7.403  0.0919 -0.2722 -0.5771
  123OSM   C10S13042   4.789   1.686   7.531  0.8661  0.1360  0.3190
  123OSM   H10S13043   4.690   1.733   7.542  0.2240 -0.5915 -1.7682
  123OSM   H10T13044   4.872   1.760   7.530 -0.0705  1.2617 -1.9490
  123OSM   C11S13045   4.793   1.574   7.640 -0.1114  0.2183 -0.4385
  123OSM   H11S13046   4.871   1.498   7.620 -0.7420 -1.5438  3.1535
  123OSM   H11T13047   4.686   1.543   7.634 -0.4925  1.6057 -1.6237
  123OSM   C12S13048   4.832   1.620   7.783  0.3090  0.1217  0.0650
  123OSM   H12S13049   4.942   1.631   7.782  0.5394 -1.7383 -1.9962
  123OSM   H12T13050   4.804   1.535   7.848  1.5628 -0.1605  0.2512
  123OSM   C13S13051   4.763   1.752   7.827 -0.3151  1.0390  0.7206
  123OSM   H13S13052   4.657   1.730   7.803  0.0617  1.1354 -1.1277
  123OSM   H13T13053   4.798   1.835   7.762 -0.0110  0.8068  0.5799
  123OSM   C14S13054   4.777   1.786   7.975  0.1361 -0.5273 -0.4487
  123OSM   H14S13055   4.725   1.704   8.029  0.2838  0.3255  1.0457
  123OSM   H14T13056   4.726   1.885   7.986 -0.8060 -1.3249  4.4334
  123OSM   C15S13057   4.922   1.809   8.012  0.5876 -0.7644  0.4602
  123OSM   H15S13058   4.969   1.874   7.935  0.0352  0.7057  1.3224
  123OSM   H15T13059   4.983   1.716   8.002  1.8885  0.0870  0.1531
  123OSM   C16S13060   4.924   1.881   8.150 -0.5226  0.3124  0.1057
  123OSM   H16S13061   4.853   1.833   8.221  0.5054 -0.8472  0.3924
  123OSM   H16T13062   4.894   1.988   8.148  1.7595  1.0992  2.5255
  123OSM   C17S13063   5.060   1.870   8.229 -0.3439 -0.6589 -0.5906
  123OSM   H17S13064   5.047   1.925   8.325  1.7328 -0.4700 -0.3801
  123OSM   H17T13065   5.149   1.908   8.174  0.3285  0.5378  1.2283
  123OSM   C18S13066   5.077   1.725   8.285  0.4781  0.1104  0.1578
  123OSM   H18S13067   5.070   1.637   8.218  0.0924  0.0662  0.2513
  123OSM   H18T13068   5.010   1.710   8.373 -1.7190 -1.4412 -1.6588
  123OSM   H18U13069   5.175   1.726   8.337  0.5360  1.8308  0.0754
  123OSM    C1F13070   5.125   1.389   6.853  0.2762  0.0961  0.1664
  123OSM     OF13071   5.191   1.442   6.764  0.1110  0.7151  0.2111
  123OSM    C2F13072   5.183   1.325   6.977 -1.0357  0.1046 -0.6893
  123OSM    H2F13073   5.132   1.226   6.975 -0.4343 -0.1931 -1.6508
  123OSM    H2G13074   5.145   1.372   7.070  2.9499 -0.5919  1.4762
  123OSM    C3F13075   5.338   1.298   6.976 -0.7830  0.1524 -0.5303
  123OSM    H3F13076   5.378   1.395   6.939  0.4140 -0.4735 -0.8950
  123OSM    H3G13077   5.351   1.217   6.902 -2.4486  1.9811 -2.9721
  123OSM    C4F13078   5.383   1.265   7.118  0.8711  0.0731 -0.0343
  123OSM    H4F13079   5.306   1.204   7.172 -0.0162  0.5293 -0.7468
  123OSM    H4G13080   5.398   1.361   7.171  1.3342  0.7588 -1.3733
  123OSM    C5F13081   5.505   1.174   7.119  0.1084  0.0312  0.1908
  123OSM    H5F13082   5.592   1.219   7.067 -0.5201 -0.4823 -1.3985
  123OSM    H5G13083   5.469   1.088   7.058 -2.1927  0.4430  0.8680
  123OSM    C6F13084   5.536   1.144   7.267 -0.2829  0.4198  0.3065
  123OSM    H6F13085   5.554   1.036   7.286 -1.7801  0.0017 -0.4257
  123OSM    H6G13086   5.444   1.161   7.328 -1.7071 -0.5457 -1.4644
  123OSM    C7F13087   5.656   1.214   7.322  0.2789 -0.3163  0.2198
  123OSM    H7F13088   5.648   1.314   7.274 -2.0499 -0.4768  0.1578
  123OSM    H7G13089   5.751   1.168   7.288 -0.7710 -1.8371 -0.8055
  123OSM    C8F13090   5.645   1.238   7.474 -0.8132 -0.3313  0.0258
  123OSM    H8F13091   5.547   1.284   7.500 -0.1335  0.1034  1.9697
  123OSM    H8G13092   5.717   1.318   7.500  0.2212 -0.6927 -1.5871
  123OSM    C9F13093   5.668   1.111   7.557  0.7001  0.8310 -0.0157
  123OSM    H9F13094   5.767   1.065   7.557  0.8094  1.0239  1.2987
  123OSM   C10F13095   5.585   1.049   7.640 -0.2092  0.0344 -0.4323
  123OSM   H10F13096   5.621   0.961   7.695  0.3183  0.1554 -0.5828
  123OSM   C11F13097   5.440   1.084   7.674  0.3497 -0.1372  0.2597
  123OSM   H11F13098   5.378   1.001   7.634 -1.1127  1.4546 -0.9950
  123OSM   H11G13099   5.416   1.173   7.611 -0.4143 -0.0068  0.7240
  123OSM   C12F13100   5.431   1.124   7.824  0.7625  0.0581  0.1636
  123OSM   H12F13101   5.335   1.177   7.842  1.0712  0.4099  0.8361
  123OSM   H12G13102   5.506   1.204   7.842  0.8471 -0.0947  0.5027
  123OSM   C13F13103   5.432   1.016   7.924 -0.0056 -0.1117  0.6087
  123OSM   H13F13104   5.510   0.942   7.895 -0.2995 -0.4288  0.6174
  123OSM   H13G13105   5.334   0.965   7.919  0.0637 -0.4674  2.2380
  123OSM   C14F13106   5.453   1.061   8.067 -0.2551  0.0975 -0.9858
  123OSM   H14F13107   5.375   1.135   8.093 -0.0454  0.2894 -0.9049
  123OSM   H14G13108   5.552   1.109   8.084 -0.3679 -0.4027  1.4880
  123OSM   C15F13109   5.441   0.946   8.172  0.6810  0.3085  0.1452
  123OSM   H15F13110   5.526   0.878   8.152  0.2142 -0.5463  0.9963
  123OSM   H15G13111   5.357   0.876   8.153  0.9415  0.1204 -0.3128
  123OSM   C16F13112   5.433   0.990   8.321 -0.1785 -0.7791  0.1111
  123OSM   H16F13113   5.357   0.938   8.381  1.1279 -1.4985  1.2023
  123OSM   H16G13114   5.394   1.094   8.314  1.1725 -0.2870 -0.7061
  123OSM   C17F13115   5.568   1.019   8.383 -0.4019 -0.0723  0.0020
  123OSM   H17F13116   5.630   1.060   8.301 -0.3044 -0.1424  0.0403
  123OSM   H17G13117   5.611   0.919   8.408 -2.7346 -1.2697 -0.5060
  123OSM   C18F13118   5.578   1.110   8.501  0.4978 -0.6694 -0.4418
  123OSM   H18F13119   5.686   1.114   8.526  0.8180  3.9428 -1.7449
  123OSM   H18G13120   5.518   1.071   8.586  0.1678  0.5474 -0.0936
  123OSM   H18H13121   5.549   1.214   8.477 -0.5581 -1.2342 -1.8102
  124OSM      N13122   5.999   3.786   5.778 -0.4121 -0.1952  0.6262
  124OSM    C1513123   5.898   3.685   5.746  0.0465 -0.0723  0.2898
  124OSM   H15A13124   5.804   3.739   5.745 -1.6072 -2.7279  1.7979
  124OSM   H15B13125   5.885   3.607   5.819 -0.6688  0.1678  0.4279
  124OSM   H15C13126   5.913   3.644   5.648 -1.4989  1.9909 -0.8758
  124OSM    C1413127   6.134   3.733   5.751 -0.1046  0.7850  0.3398
  124OSM   H14A13128   6.155   3.714   5.647  1.9695  1.5692  0.5697
  124OSM   H14B13129   6.146   3.640   5.805  0.9037  0.4368 -0.4557
  124OSM   H14C13130   6.217   3.796   5.777  1.5144 -1.3815  0.6548
  124OSM    C1313131   5.980   3.910   5.695 -0.6023 -0.2779 -0.2892
  124OSM   H13A13132   6.042   3.985   5.743  0.3996 -1.2993  0.0537
  124OSM   H13B13133   5.875   3.934   5.691 -0.5236 -0.0761 -1.5672
  124OSM   H13C13134   6.012   3.917   5.592 -2.1878  1.6800 -0.7133
  124OSM    C1213135   5.997   3.823   5.922  0.0562  0.4533 -0.2064
  124OSM   H12A13136   6.079   3.892   5.938  0.5489 -0.5584  2.0884
  124OSM   H12B13137   6.026   3.746   5.992  2.5203  1.6972  0.2491
  124OSM    C1113138   5.866   3.890   5.971  0.1247 -1.0186  0.3606
  124OSM   H11A13139   5.870   3.985   5.914  0.0673 -0.0872  1.8507
  124OSM   H11B13140   5.877   3.938   6.071  0.1269  0.1597 -0.1878
  124OSM      P13141   5.711   3.700   6.054  0.6891  0.2887 -0.0046
  124OSM    O1313142   5.567   3.713   6.086  0.2351  0.0422  0.4398
  124OSM    O1413143   5.759   3.564   6.006  0.6293 -0.3657 -0.0509
  124OSM    O1113144   5.782   3.733   6.194  0.6361 -0.6689 -0.6746
  124OSM    O1213145   5.743   3.819   5.959 -0.0069  0.0487 -0.0794
  124OSM    C1S13146   5.735   3.644   6.297  1.1492  0.6099  0.0875
  124OSM    H1S13147   5.755   3.537   6.277  3.0428  1.1514 -1.2448
  124OSM    H1T13148   5.626   3.648   6.317  0.8455 -2.1411 -0.7038
  124OSM     NF13149   5.778   3.601   6.536  0.3305 -0.2971 -0.1236
  124OSM    HNF13150   5.699   3.616   6.594  2.3902  1.1956  2.5087
  124OSM    C2S13151   5.805   3.690   6.419  0.1527  0.0581 -0.2746
  124OSM    H2S13152   5.915   3.687   6.402  0.2974 -1.9935  0.7489
  124OSM    C3S13153   5.755   3.835   6.449  0.6696  0.4378  0.1485
  124OSM    H3S13154   5.647   3.828   6.476  1.2206  1.0991  2.8317
  124OSM     O313155   5.771   3.933   6.351  1.2842  0.3262  0.0804
  124OSM    HO313156   5.795   3.883   6.273 -2.2368 -0.1279 -0.9090
  124OSM    C4S13157   5.830   3.868   6.575  0.3041  1.0607 -0.2395
  124OSM    H4S13158   5.939   3.888   6.571 -0.0662  3.1890 -1.1618
  124OSM    C5S13159   5.770   3.875   6.695  0.3769  0.0563  0.2951
  124OSM    H5S13160   5.661   3.887   6.702  0.2941 -0.4048 -0.0946
  124OSM    C6S13161   5.834   3.907   6.826 -0.1428 -0.3810  0.0943
  124OSM    H6S13162   5.753   3.935   6.897 -1.4676 -3.4039 -0.0623
  124OSM    H6T13163   5.891   4.001   6.815  3.3429 -2.4765 -1.4624
  124OSM    C7S13164   5.911   3.802   6.894  0.0815  0.4378  0.2751
  124OSM    H7S13165   5.969   3.837   6.982  0.8061 -1.1310  0.4484
  124OSM    H7T13166   5.978   3.751   6.821  0.5579 -1.3119  1.8793
  124OSM    C8S13167   5.823   3.692   6.958  0.5133  0.0606 -0.0322
  124OSM    H8S13168   5.892   3.614   6.996  1.1435  1.3321  1.5502
  124OSM    H8T13169   5.753   3.661   6.878  0.1552  1.5929 -0.3452
  124OSM    C9S13170   5.738   3.728   7.080 -0.5082  0.0488  0.4361
  124OSM    H9S13171   5.657   3.795   7.045 -1.4757 -2.2375 -1.9988
  124OSM    H9T13172   5.799   3.777   7.159 -0.6168 -1.3383  1.4101
  124OSM   C10S13173   5.667   3.613   7.141  0.2303  0.4939  0.2260
  124OSM   H10S13174   5.735   3.526   7.157  0.7296  0.9144  0.3966
  124OSM   H10T13175   5.590   3.570   7.073 -0.1019  0.7603  0.4257
  124OSM   C11S13176   5.588   3.652   7.273 -0.4897 -0.2253  0.1140
  124OSM   H11S13177   5.503   3.721   7.255  2.0228  3.4372  1.1752
  124OSM   H11T13178   5.658   3.705   7.342 -0.2239 -0.0065 -0.3161
  124OSM   C12S13179   5.529   3.525   7.339  0.1667  0.5212 -0.3319
  124OSM   H12S13180   5.613   3.465   7.381  0.9210  0.6066 -1.6511
  124OSM   H12T13181   5.463   3.472   7.268  1.6432  0.1226 -1.4395
  124OSM   C13S13182   5.423   3.556   7.450 -0.6034 -0.1462 -0.2554
  124OSM   H13S13183   5.348   3.474   7.447  1.4284 -2.0920 -1.3247
  124OSM   H13T13184   5.376   3.655   7.437 -0.0890  0.0952 -0.3283
  124OSM   C14S13185   5.479   3.560   7.592  0.2188 -0.5128  0.6167
  124OSM   H14S13186   5.572   3.620   7.600 -1.3698  2.3173 -0.5868
  124OSM   H14T13187   5.505   3.454   7.609  0.2943 -0.9129 -1.6427
  124OSM   C15S13188   5.383   3.610   7.699 -0.2684 -0.7666  0.1402
  124OSM   H15S13189   5.279   3.588   7.669 -0.6578 -0.7960  1.4670
  124OSM   H15T13190   5.401   3.719   7.687  1.1909 -0.9925  0.0327
  124OSM   C16S13191   5.427   3.571   7.832  0.3139 -0.5298  0.0126
  124OSM   H16S13192   5.524   3.618   7.860 -0.1652  0.6288 -0.2480
  124OSM   H16T13193   5.449   3.462   7.840 -1.4073 -0.8613  0.6980
  124OSM   C17S13194   5.318   3.604   7.929 -0.0992  0.0623 -1.4165
  124OSM   H17S13195   5.228   3.550   7.892  1.6568 -3.8040 -0.6023
  124OSM   H17T13196   5.285   3.710   7.935 -0.9941 -0.2652 -0.1388
  124OSM   C18S13197   5.358   3.544   8.064 -0.2243  0.3387 -0.0079
  124OSM   H18S13198   5.430   3.615   8.109 -2.9512  3.1829  0.1622
  124OSM   H18T13199   5.414   3.449   8.050  1.2018  0.9825  1.0501
  124OSM   H18U13200   5.282   3.528   8.143  0.6523 -0.0398  0.7843
  124OSM    C1F13201   5.844   3.491   6.570 -0.1791  0.1105 -0.1609
  124OSM     OF13202   5.952   3.474   6.514  0.0374 -0.0231  0.2605
  124OSM    C2F13203   5.793   3.407   6.682  0.0663 -0.9371 -0.7613
  124OSM    H2F13204   5.700   3.356   6.651 -0.0316 -1.4494  0.3407
  124OSM    H2G13205   5.751   3.482   6.753 -0.2161  0.2498 -2.1143
  124OSM    C3F13206   5.879   3.296   6.734  0.2995 -0.4374 -0.3585
  124OSM    H3F13207   5.971   3.327   6.788  0.4861 -1.3465 -0.1297
  124OSM    H3G13208   5.929   3.222   6.667  0.1457  0.0628 -1.0314
  124OSM    C4F13209   5.807   3.202   6.834 -0.5816 -0.2732 -0.3723
  124OSM    H4F13210   5.893   3.135   6.857 -0.1247  0.2318 -0.5910
  124OSM    H4G13211   5.730   3.135   6.790 -1.2003 -0.1186  0.4616
  124OSM    C5F13212   5.754   3.265   6.960  0.3235 -0.6305  0.3202
  124OSM    H5F13213   5.665   3.319   6.922 -1.2059 -3.0176  0.2707
  124OSM    H5G13214   5.827   3.333   7.008 -0.0072  1.1725 -1.5904
  124OSM    C6F13215   5.713   3.162   7.068 -0.5172  0.3899  0.4024
  124OSM    H6F13216   5.805   3.099   7.075 -0.4897  0.2956 -0.5617
  124OSM    H6G13217   5.639   3.087   7.034  2.3462 -2.3938 -0.2192
  124OSM    C7F13218   5.675   3.225   7.201  0.3031 -0.6373 -0.1283
  124OSM    H7F13219   5.592   3.295   7.178 -0.3702 -1.9666 -1.9566
  124OSM    H7G13220   5.768   3.268   7.246  0.2243 -1.9680  1.3518
  124OSM    C8F13221   5.620   3.118   7.300  0.7309  0.9533  0.1198
  124OSM    H8F13222   5.693   3.040   7.329  0.3046  0.8225  0.8529
  124OSM    H8G13223   5.542   3.064   7.242  1.1605  0.5296 -0.0634
  124OSM    C9F13224   5.556   3.185   7.422 -0.0058  0.0607  0.8547
  124OSM    H9F13225   5.483   3.265   7.404 -0.4429 -0.3112  0.9377
  124OSM   C10F13226   5.588   3.157   7.544 -0.3823 -0.4079 -0.0091
  124OSM   H10F13227   5.529   3.202   7.625  0.8088 -0.1820  0.7722
  124OSM   C11F13228   5.693   3.056   7.593 -0.9322  0.0343 -0.3462
  124OSM   H11F13229   5.794   3.102   7.582 -0.1030 -1.8045 -0.8615
  124OSM   H11G13230   5.702   2.964   7.530 -0.4044 -0.6982  0.7649
  124OSM   C12F13231   5.696   3.017   7.741 -0.2756 -0.5764  0.3070
  124OSM   H12F13232   5.607   2.959   7.773 -1.0862  0.1014 -0.6783
  124OSM   H12G13233   5.715   3.098   7.814  0.0095 -0.8226  0.5103
  124OSM   C13F13234   5.821   2.933   7.763 -0.4227  0.1784  0.2632
  124OSM   H13F13235   5.906   2.983   7.711 -0.3036  0.0522  0.3393
  124OSM   H13G13236   5.805   2.830   7.725 -0.6704  0.3386 -0.0767
  124OSM   C14F13237   5.856   2.925   7.909  0.8738 -0.2824 -0.9544
  124OSM   H14F13238   5.773   2.865   7.949 -0.3351  1.2458 -1.0795
  124OSM   H14G13239   5.847   3.021   7.964  1.9782 -0.1040 -1.0511
  124OSM   C15F13240   5.999   2.872   7.936 -0.2001  0.6247  0.0223
  124OSM   H15F13241   6.077   2.931   7.884  0.6329 -1.0864 -0.7487
  124OSM   H15G13242   6.017   2.773   7.888  1.5844  1.2286 -0.6333
  124OSM   C16F13243   6.033   2.856   8.080  0.0405  0.1501 -0.1606
  124OSM   H16F13244   5.965   2.773   8.109 -0.6116  0.3417 -1.1016
  124OSM   H16G13245   5.999   2.946   8.135 -0.3412 -0.4075  0.5280
  124OSM   C17F13246   6.181   2.824   8.099 -0.2245 -0.2493  0.4146
  124OSM   H17F13247   6.238   2.907   8.053  1.2189 -1.0673  0.6662
  124OSM   H17G13248   6.213   2.738   8.037 -1.8839 -0.2518 -0.4926
  124OSM   C18F13249   6.213   2.811   8.245  0.9590 -0.4245  0.2263
  124OSM   H18F13250   6.321   2.800   8.267  1.7220  3.8248 -0.4934
  124OSM   H18G13251   6.159   2.724   8.287  2.2960  0.1011  3.2399
  124OSM   H18H13252   6.181   2.898   8.306 -0.0529 -1.0024  0.5422
  125OSM      N13253   3.542   2.713   6.059  0.8445 -0.2975  0.6051
  125OSM    C1513254   3.444   2.624   5.985  0.2812 -0.0507 -0.0562
  125OSM   H15A13255   3.356   2.679   5.957  0.4652  1.1912  1.6344
  125OSM   H15B13256   3.415   2.543   6.050 -1.3837 -0.1521 -0.8763
  125OSM   H15C13257   3.491   2.584   5.896 -1.4927  0.9597 -1.5146
  125OSM    C1413258   3.592   2.816   5.963  0.0998 -0.0412 -0.4611
  125OSM   H14A13259   3.670   2.872   6.012 -0.5335  0.9084 -0.5029
  125OSM   H14B13260   3.517   2.891   5.940 -0.8336 -0.4642  1.0377
  125OSM   H14C13261   3.633   2.772   5.874  2.1582 -1.3678  1.0353
  125OSM    C1313262   3.473   2.777   6.174  0.0917  0.8058 -0.5472
  125OSM   H13A13263   3.551   2.811   6.241  1.0295 -0.8639 -0.7312
  125OSM   H13B13264   3.411   2.714   6.237 -0.7572  2.7394  0.6317
  125OSM   H13C13265   3.409   2.859   6.146 -1.0084  0.4904  0.8978
  125OSM    C1213266   3.658   2.625   6.106  0.9678 -0.6655  0.0973
  125OSM   H12A13267   3.616   2.547   6.168 -0.9757  0.4188  0.2392
  125OSM   H12B13268   3.710   2.686   6.178 -0.3131  1.6064 -0.7902
  125OSM    C1113269   3.739   2.547   6.007 -0.9683  0.5769 -0.2022
  125OSM   H11A13270   3.825   2.516   6.070  0.0156  0.6981 -1.4511
  125OSM   H11B13271   3.782   2.612   5.928  0.3029 -1.3787 -1.1959
  125OSM      P13272   3.627   2.303   6.021 -0.2488 -0.3193  0.2713
  125OSM    O1313273   3.544   2.222   5.930  0.0869  0.3125  0.4561
  125OSM    O1413274   3.741   2.231   6.079  0.0582  0.1111 -0.2088
  125OSM    O1113275   3.534   2.342   6.140 -0.0206  0.6626  0.1242
  125OSM    O1213276   3.667   2.442   5.949 -0.2053 -0.2514 -0.8344
  125OSM    C1S13277   3.585   2.340   6.273  0.0121  0.1066 -0.4736
  125OSM    H1S13278   3.675   2.406   6.275  0.6997 -0.8211 -0.2441
  125OSM    H1T13279   3.618   2.240   6.306  1.5024  0.2962 -1.3021
  125OSM     NF13280   3.572   2.433   6.501  0.4512  0.1557  0.1130
  125OSM    HNF13281   3.584   2.358   6.566 -1.4181 -0.4756 -0.2282
  125OSM    C2S13282   3.497   2.408   6.379 -0.2495  0.7347 -0.0202
  125OSM    H2S13283   3.470   2.505   6.333  0.2917  0.4708 -0.9125
  125OSM    C3S13284   3.371   2.320   6.394 -0.0402  0.4681  0.0994
  125OSM    H3S13285   3.399   2.215   6.420  1.2395  1.3146  2.5722
  125OSM     O313286   3.297   2.296   6.276  0.2223  0.1944  0.0157
  125OSM    HO313287   3.353   2.334   6.208  0.7457  1.8585  1.3236
  125OSM    C4S13288   3.275   2.366   6.498 -0.4962 -0.1862 -0.4714
  125OSM    H4S13289   3.222   2.455   6.462  2.1671  2.1195  0.9465
  125OSM    C5S13290   3.236   2.298   6.607 -0.2463  0.0408  0.7402
  125OSM    H5S13291   3.275   2.197   6.626  0.7445  0.4817  1.0804
  125OSM    C6S13292   3.129   2.349   6.701  0.2729  0.0130 -0.2664
  125OSM    H6S13293   3.030   2.309   6.670  0.0768 -0.0531  0.4193
  125OSM    H6T13294   3.121   2.458   6.681 -0.0262 -0.0616 -0.5559
  125OSM    C7S13295   3.148   2.317   6.852  0.1432  0.7725 -0.1234
  125OSM    H7S13296   3.249   2.358   6.874 -0.1222  1.6005 -0.4039
  125OSM    H7T13297   3.146   2.206   6.850  2.7247  0.6690 -1.3072
  125OSM    C8S13298   3.034   2.364   6.941 -0.2915 -0.3107 -0.9311
  125OSM    H8S13299   2.936   2.320   6.910  0.3890  0.2367 -4.2993
  125OSM    H8T13300   3.025   2.474   6.944  0.3552 -0.2462  2.3921
  125OSM    C9S13301   3.065   2.339   7.094 -0.2078 -0.3871  0.1345
  125OSM    H9S13302   3.163   2.385   7.118  0.0490 -0.3312 -0.9857
  125OSM    H9T13303   3.082   2.230   7.109  2.5402  0.0592  0.7463
  125OSM   C10S13304   2.957   2.403   7.182  0.3317 -0.0762  0.2537
  125OSM   H10S13305   2.859   2.349   7.183  1.5563 -2.4103  1.2519
  125OSM   H10T13306   2.946   2.509   7.150  0.4906  0.6419  2.4680
  125OSM   C11S13307   3.002   2.402   7.329 -0.1230  0.1911  0.3049
  125OSM   H11S13308   3.108   2.435   7.338 -0.5544  1.9001 -0.3985
  125OSM   H11T13309   3.000   2.303   7.379 -1.7300 -0.8183 -1.6316
  125OSM   C12S13310   2.917   2.500   7.414  0.1814  0.0383  1.0074
  125OSM   H12S13311   2.813   2.463   7.399 -0.1649  1.4721 -0.4429
  125OSM   H12T13312   2.924   2.597   7.360  0.5431 -0.4708  0.1161
  125OSM   C13S13313   2.951   2.524   7.552 -0.0883  0.1691 -0.1874
  125OSM   H13S13314   2.907   2.615   7.599  0.3342 -0.1443  0.8375
  125OSM   H13T13315   3.058   2.554   7.553  0.0684 -0.3766 -0.2799
  125OSM   C14S13316   2.936   2.402   7.652 -0.2903  0.2668  0.5167
  125OSM   H14S13317   2.972   2.309   7.604 -0.2603  1.0620 -1.0725
  125OSM   H14T13318   2.827   2.387   7.668 -0.4832  1.9687  0.9860
  125OSM   C15S13319   3.002   2.437   7.786 -0.1320  0.0203 -0.3543
  125OSM   H15S13320   2.957   2.531   7.824  0.6956  0.1497  0.3313
  125OSM   H15T13321   3.104   2.476   7.770 -1.4914  4.1933  0.0420
  125OSM   C16S13322   3.003   2.325   7.891 -0.4647 -0.2316 -0.6438
  125OSM   H16S13323   3.040   2.233   7.840 -0.5163 -0.0470 -1.0235
  125OSM   H16T13324   2.901   2.319   7.933  0.4717 -1.5910  1.5685
  125OSM   C17S13325   3.087   2.351   8.017 -0.8856  0.1811 -0.2877
  125OSM   H17S13326   3.067   2.452   8.060 -2.2509 -0.1388 -0.1388
  125OSM   H17T13327   3.191   2.358   7.978 -1.0298  1.2448 -0.5222
  125OSM   C18S13328   3.068   2.233   8.118 -1.1696 -0.4991  0.5670
  125OSM   H18S13329   3.036   2.271   8.217  0.9176  0.8442  0.7902
  125OSM   H18T13330   3.167   2.187   8.140 -2.0122 -1.4002  2.6518
  125OSM   H18U13331   2.999   2.160   8.070  0.9846 -1.3659 -1.4443
  125OSM    C1F13332   3.652   2.536   6.507 -0.0054 -0.6639  0.7156
  125OSM     OF13333   3.670   2.616   6.415 -0.2077 -0.4950 -0.0906
  125OSM    C2F13334   3.729   2.546   6.634 -0.2304  0.4794 -0.3602
  125OSM    H2F13335   3.829   2.507   6.606  1.2838  2.9016  1.2960
  125OSM    H2G13336   3.677   2.479   6.706  0.7154 -2.3759 -2.1636
  125OSM    C3F13337   3.760   2.684   6.689  0.4314 -0.8592 -0.9226
  125OSM    H3F13338   3.671   2.747   6.668  0.5804 -0.8300 -1.4689
  125OSM    H3G13339   3.846   2.722   6.631  0.2042 -0.0004 -0.7170
  125OSM    C4F13340   3.800   2.686   6.835  0.7110  0.3857  0.1338
  125OSM    H4F13341   3.874   2.768   6.844 -0.9119  2.5165 -3.7058
  125OSM    H4G13342   3.834   2.584   6.863 -3.0144 -1.2341 -0.6375
  125OSM    C5F13343   3.683   2.718   6.925 -0.4021 -0.1496 -0.1994
  125OSM    H5F13344   3.594   2.655   6.901 -0.3920  0.7320 -2.9524
  125OSM    H5G13345   3.649   2.823   6.915 -0.3613 -0.2624 -1.7707
  125OSM    C6F13346   3.718   2.677   7.065 -0.5907  0.2468 -0.3417
  125OSM    H6F13347   3.735   2.568   7.076 -0.9728  0.4192  3.1450
  125OSM    H6G13348   3.634   2.694   7.136 -1.3259 -0.9567 -0.8852
  125OSM    C7F13349   3.845   2.741   7.125 -0.5722  0.2094 -0.2064
  125OSM    H7F13350   3.842   2.852   7.129  0.7821  0.2617  3.0550
  125OSM    H7G13351   3.929   2.706   7.061 -1.4920 -3.9387  0.5942
  125OSM    C8F13352   3.871   2.695   7.274  0.2192 -0.0701 -0.3315
  125OSM    H8F13353   3.977   2.719   7.297 -0.1315  0.2596  1.0025
  125OSM    H8G13354   3.859   2.584   7.271 -2.9006  0.1975 -0.4610
  125OSM    C9F13355   3.783   2.768   7.375 -0.4113  0.1856  0.9945
  125OSM    H9F13356   3.815   2.873   7.378  0.1096  0.2786 -2.6446
  125OSM   C10F13357   3.689   2.719   7.450  0.2775  0.6056  0.1498
  125OSM   H10F13358   3.640   2.789   7.520  1.0021  1.3133 -0.0328
  125OSM   C11F13359   3.639   2.579   7.462  0.3441 -0.2031 -0.0030
  125OSM   H11F13360   3.695   2.508   7.397 -2.1360 -0.2306 -2.3217
  125OSM   H11G13361   3.531   2.566   7.436 -0.3654  0.6711  2.2928
  125OSM   C12F13362   3.644   2.528   7.605 -0.1954 -0.9188  0.0013
  125OSM   H12F13363   3.602   2.428   7.628  3.4414 -2.6440 -0.1785
  125OSM   H12G13364   3.586   2.592   7.675 -0.6557 -1.4461  0.1101
  125OSM   C13F13365   3.786   2.511   7.660  0.2444  0.2233 -0.0183
  125OSM   H13F13366   3.828   2.614   7.670  0.7432 -0.0992  1.4886
  125OSM   H13G13367   3.860   2.459   7.595  1.1074 -1.3046  2.0915
  125OSM   C14F13368   3.793   2.437   7.789 -0.0636  0.2418 -0.3728
  125OSM   H14F13369   3.897   2.427   7.824 -0.0802 -2.4241 -0.9037
  125OSM   H14G13370   3.754   2.333   7.784  2.2553 -1.0625  3.8531
  125OSM   C15F13371   3.713   2.514   7.899 -0.1719 -0.2332 -0.7359
  125OSM   H15F13372   3.616   2.553   7.863 -0.5427 -0.8981 -0.4561
  125OSM   H15G13373   3.771   2.606   7.926  1.9106 -2.1984  2.2026
  125OSM   C16F13374   3.704   2.434   8.024  0.6387  1.0405  0.3211
  125OSM   H16F13375   3.771   2.483   8.098  0.9195  0.6190  0.3469
  125OSM   H16G13376   3.739   2.330   8.004 -0.8547  0.9753 -2.5236
  125OSM   C17F13377   3.558   2.438   8.086 -0.3408  0.2331  1.0757
  125OSM   H17F13378   3.481   2.412   8.009  2.7411  1.0811 -2.6223
  125OSM   H17G13379   3.539   2.540   8.125  0.7568  1.3439 -1.0853
  125OSM   C18F13380   3.543   2.337   8.196 -0.2245 -0.2633  0.2007
  125OSM   H18F13381   3.564   2.233   8.163 -1.0813 -1.1281  2.1504
  125OSM   H18G13382   3.442   2.332   8.244 -0.0261 -4.9558  0.6117
  125OSM   H18H13383   3.615   2.368   8.275  0.6838  2.0018 -1.4268
  126OSM      N13384   1.224   6.327   6.284 -0.1329  0.7202  0.5362
  126OSM    C1513385   1.331   6.428   6.288 -0.1958 -0.1291 -0.3315
  126OSM   H15A13386   1.403   6.408   6.366 -1.7111  2.4935  1.9222
  126OSM   H15B13387   1.299   6.528   6.314 -1.7393 -0.7391  0.2167
  126OSM   H15C13388   1.375   6.433   6.189  0.7840 -2.3841 -0.0759
  126OSM    C1413389   1.130   6.370   6.180  0.4624 -1.2519 -0.0077
  126OSM   H14A13390   1.185   6.420   6.102  1.1802 -0.4504  0.9958
  126OSM   H14B13391   1.071   6.454   6.213 -0.4553 -1.4983 -0.9409
  126OSM   H14C13392   1.055   6.301   6.144 -0.2476 -0.4218 -0.1581
  126OSM    C1313393   1.290   6.193   6.234 -0.0139  0.5008  0.1344
  126OSM   H13A13394   1.373   6.163   6.296  0.2588 -0.1051 -0.5198
  126OSM   H13B13395   1.334   6.201   6.136  0.3816  0.7574  0.3326
  126OSM   H13C13396   1.210   6.121   6.234 -1.3261  1.7835 -2.8701
  126OSM    C1213397   1.154   6.311   6.413  0.1101 -0.3078  0.1949
  126OSM   H12A13398   1.133   6.410   6.450 -1.9486 -0.7373  0.3077
  126OSM   H12B13399   1.219   6.263   6.485  0.8152 -0.4018 -0.4905
  126OSM    C1113400   1.024   6.232   6.422  0.3396 -0.2575 -0.4571
  126OSM   H11A13401   0.943   6.268   6.355  0.1722 -2.1559 -1.3632
  126OSM   H11B13402   0.982   6.227   6.525 -4.3389 -0.5163 -2.1323
  126OSM      P13403   0.947   5.983   6.421 -0.4677  0.0285 -0.2923
  126OSM    O1313404   0.814   6.036   6.385 -0.7400 -1.0590  0.2189
  126OSM    O1413405   0.987   5.852   6.371  0.3633  0.4628  0.1093
  126OSM    O1113406   0.952   5.977   6.577  0.3695  0.0640  0.4205
  126OSM    O1213407   1.044   6.096   6.383  0.0112 -0.9436  0.0355
  126OSM    C1S13408   1.075   5.981   6.658 -0.2996  0.5409  0.2572
  126OSM    H1S13409   1.111   6.086   6.663  1.4167  0.3758 -4.0052
  126OSM    H1T13410   1.157   5.930   6.603 -1.1528 -0.2004 -0.3465
  126OSM     NF13411   1.160   5.953   6.893  0.0369 -0.3610  0.4579
  126OSM    HNF13412   1.217   5.880   6.930 -0.4710 -0.6914  0.5983
  126OSM    C2S13413   1.044   5.928   6.798 -0.7463 -0.4878 -0.1183
  126OSM    H2S13414   0.953   5.989   6.820 -0.0603  1.6136 -2.6954
  126OSM    C3S13415   0.997   5.782   6.789  0.3952 -0.4776 -0.5487
  126OSM    H3S13416   1.084   5.717   6.763  1.0236 -0.3031  1.0246
  126OSM     O313417   0.901   5.748   6.691 -0.2842  0.1113 -0.0730
  126OSM    HO313418   0.895   5.820   6.628 -0.0111  0.4986  0.3388
  126OSM    C4S13419   0.956   5.733   6.931 -0.5765  0.5115  0.0029
  126OSM    H4S13420   1.038   5.710   7.000  0.0150  1.8038 -0.2398
  126OSM    C5S13421   0.832   5.737   6.977  0.9462 -0.1591 -0.1498
  126OSM    H5S13422   0.753   5.775   6.910 -0.3827 -2.1907  0.1627
  126OSM    C6S13423   0.779   5.706   7.115  0.1086 -0.4990 -0.1740
  126OSM    H6S13424   0.737   5.603   7.108 -0.0130 -0.4039 -0.8374
  126OSM    H6T13425   0.694   5.774   7.137  0.1881 -0.7233  0.9128
  126OSM    C7S13426   0.880   5.707   7.231  0.1587 -0.0725 -0.4913
  126OSM    H7S13427   0.939   5.801   7.219  1.0833 -0.6598 -0.5807
  126OSM    H7T13428   0.956   5.628   7.219 -0.3401 -0.7462  0.7138
  126OSM    C8S13429   0.820   5.698   7.374  0.2611 -0.3196  0.4108
  126OSM    H8S13430   0.870   5.618   7.432 -1.1170 -2.9577 -1.7655
  126OSM    H8T13431   0.714   5.666   7.361  0.2257 -0.4133  0.9177
  126OSM    C9S13432   0.823   5.834   7.443  0.1412  0.6445  0.2832
  126OSM    H9S13433   0.787   5.923   7.388 -1.5187  0.3277  0.7918
  126OSM    H9T13434   0.931   5.852   7.462  0.7866 -0.3757 -2.0403
  126OSM   C10S13435   0.739   5.846   7.572  0.7097  0.4038 -0.0215
  126OSM   H10S13436   0.645   5.788   7.560 -0.9848  2.5466  2.0611
  126OSM   H10T13437   0.707   5.952   7.577 -3.5011 -0.5030 -3.0503
  126OSM   C11S13438   0.805   5.779   7.693  0.2434 -0.2729 -0.3744
  126OSM   H11S13439   0.887   5.843   7.732 -0.6094  0.0548  0.9456
  126OSM   H11T13440   0.839   5.678   7.660  2.6418  0.9280 -1.8984
  126OSM   C12S13441   0.697   5.778   7.809 -0.6020  0.4120  0.1245
  126OSM   H12S13442   0.616   5.712   7.773  0.6242 -0.6811 -0.7184
  126OSM   H12T13443   0.667   5.885   7.818 -0.2900  0.5877 -0.7412
  126OSM   C13S13444   0.745   5.736   7.950  0.2890 -0.0312 -0.4962
  126OSM   H13S13445   0.796   5.638   7.941 -1.2212 -1.0442  1.2653
  126OSM   H13T13446   0.656   5.714   8.013 -0.5755  0.8660 -1.3688
  126OSM   C14S13447   0.837   5.841   8.019 -0.5219 -0.3566 -0.0704
  126OSM   H14S13448   0.934   5.854   7.965 -1.5064 -0.2552 -1.8851
  126OSM   H14T13449   0.863   5.808   8.122 -3.4029  0.4420  1.0192
  126OSM   C15S13450   0.778   5.977   8.048 -0.0868 -0.2657  1.4728
  126OSM   H15S13451   0.769   6.024   7.948 -1.7125  2.9438  2.9696
  126OSM   H15T13452   0.852   6.029   8.113  0.4799  0.0009  0.6207
  126OSM   C16S13453   0.642   5.975   8.117 -0.0561  0.0832 -0.4201
  126OSM   H16S13454   0.576   5.896   8.074 -1.2874  1.3721 -0.9962
  126OSM   H16T13455   0.590   6.071   8.096 -0.2069  0.0082 -0.3962
  126OSM   C17S13456   0.653   5.953   8.273 -0.8411 -0.3855 -0.4515
  126OSM   H17S13457   0.722   5.868   8.290 -0.2530  0.1887  0.0602
  126OSM   H17T13458   0.552   5.916   8.304 -1.4454  1.3552 -0.2519
  126OSM   C18S13459   0.685   6.072   8.363 -0.2858  0.2102 -0.5202
  126OSM   H18S13460   0.788   6.111   8.347 -0.7235  1.5484 -0.1879
  126OSM   H18T13461   0.675   6.030   8.466 -0.0116  0.1842 -0.5013
  126OSM   H18U13462   0.609   6.152   8.355 -1.2480 -0.6920 -0.5811
  126OSM    C1F13463   1.190   6.070   6.924 -0.4460 -0.7530  0.5325
  126OSM     OF13464   1.110   6.156   6.895  0.4095  0.4756  0.2716
  126OSM    C2F13465   1.318   6.096   6.984 -0.6051  0.8624  0.8241
  126OSM    H2F13466   1.368   6.169   6.917 -0.4668  1.1447  1.2241
  126OSM    H2G13467   1.382   6.005   6.985  0.0767  1.3078 -0.4716
  126OSM    C3F13468   1.308   6.178   7.118  0.1883  0.2840  0.0155
  126OSM    H3F13469   1.223   6.250   7.115  1.2436  1.5437 -3.0275
  126OSM    H3G13470   1.396   6.243   7.138 -1.8212  2.6151  1.9376
  126OSM    C4F13471   1.290   6.081   7.237 -0.2212 -0.5229 -0.3409
  126OSM    H4F13472   1.378   6.014   7.242 -0.1717 -0.4386 -0.0536
  126OSM    H4G13473   1.199   6.016   7.233 -0.3232 -0.3689 -0.5316
  126OSM    C5F13474   1.263   6.154   7.370 -0.4556  0.4848 -0.1294
  126OSM    H5F13475   1.191   6.238   7.361  0.9105  1.7899  0.6625
  126OSM    H5G13476   1.360   6.208   7.378 -0.2490  0.2714 -1.0365
  126OSM    C6F13477   1.232   6.056   7.483 -0.7323 -0.3371  0.3636
  126OSM    H6F13478   1.302   5.970   7.493  0.4677  0.5460 -0.1764
  126OSM    H6G13479   1.126   6.027   7.470 -0.9864  0.1285  1.3522
  126OSM    C7F13480   1.222   6.136   7.615 -0.7489 -0.5866 -0.8147
  126OSM    H7F13481   1.165   6.227   7.587 -0.2485 -0.3232 -0.9752
  126OSM    H7G13482   1.325   6.160   7.649 -1.5456  1.6064  0.2017
  126OSM    C8F13483   1.140   6.070   7.723 -0.1164 -0.0879 -0.3071
  126OSM    H8F13484   1.190   5.977   7.758 -3.3072 -1.2531  1.5645
  126OSM    H8G13485   1.039   6.027   7.704 -1.0346  1.5546  0.6728
  126OSM    C9F13486   1.109   6.160   7.833  0.0072  0.2089 -0.0712
  126OSM    H9F13487   1.053   6.249   7.800 -2.2181 -0.8982  0.5000
  126OSM   C10F13488   1.154   6.152   7.957  0.5908  0.4288  0.1122
  126OSM   H10F13489   1.122   6.224   8.034  0.5393 -0.3211  0.8030
  126OSM   C11F13490   1.226   6.047   8.027 -0.5528 -0.0550  0.5075
  126OSM   H11F13491   1.335   6.068   8.025 -0.5893  0.1980 -1.7751
  126OSM   H11G13492   1.210   5.948   7.977 -0.1841 -1.0621  2.2998
  126OSM   C12F13493   1.182   6.034   8.174  0.2282 -0.1109 -0.5497
  126OSM   H12F13494   1.223   5.939   8.214 -1.9117 -1.2265 -0.8692
  126OSM   H12G13495   1.073   6.031   8.190 -0.2496 -0.5124 -3.3760
  126OSM   C13F13496   1.218   6.146   8.270 -0.1850 -0.1243  0.1678
  126OSM   H13F13497   1.192   6.246   8.228 -0.8419 -0.3458  0.0391
  126OSM   H13G13498   1.328   6.143   8.277 -0.0397  0.0614 -1.5985
  126OSM   C14F13499   1.154   6.137   8.411  0.2732  0.7812 -0.1981
  126OSM   H14F13500   1.058   6.192   8.417 -1.4586 -1.8661 -1.6888
  126OSM   H14G13501   1.222   6.199   8.474 -0.4677  1.7466 -0.3395
  126OSM   C15F13502   1.136   5.997   8.475 -0.0650  0.1035  0.1780
  126OSM   H15F13503   1.238   5.953   8.468 -0.2650 -0.3918  0.3241
  126OSM   H15G13504   1.062   5.945   8.410  0.2439  1.6672 -1.5023
  126OSM   C16F13505   1.103   6.003   8.623 -0.6563 -0.5833 -0.2081
  126OSM   H16F13506   1.012   6.058   8.654  0.9739  1.9519  0.4002
  126OSM   H16G13507   1.185   6.066   8.663 -1.6686 -0.8382  2.4867
  126OSM   C17F13508   1.096   5.869   8.703  0.0926 -0.4643 -0.0792
  126OSM   H17F13509   1.025   5.798   8.655 -0.5658  0.3473 -0.3243
  126OSM   H17G13510   1.057   5.893   8.804 -1.3869 -2.0326 -0.2402
  126OSM   C18F13511   1.231   5.798   8.719  0.2247  0.0168  0.0079
  126OSM   H18F13512   1.220   5.692   8.750 -1.6754  0.9967  3.0743
  126OSM   H18G13513   1.288   5.855   8.796  0.9493 -0.2482 -0.3157
  126OSM   H18H13514   1.294   5.804   8.627 -0.0805 -0.1481 -0.2129
  127OSM      N13515   5.923   1.378   6.118  0.3319 -0.2665  0.1387
  127OSM    C1513516   5.838   1.378   5.992  0.0814  0.3315  0.0368
  127OSM   H15A13517   5.825   1.284   5.940  3.6074  0.7630 -1.9320
  127OSM   H15B13518   5.893   1.441   5.924 -0.8980  1.3499  0.1524
  127OSM   H15C13519   5.739   1.419   6.008 -0.4869 -1.7831  2.7421
  127OSM    C1413520   6.049   1.289   6.096 -0.6478  0.1387  0.1927
  127OSM   H14A13521   6.024   1.189   6.063  1.4567 -0.2802 -0.2551
  127OSM   H14B13522   6.113   1.288   6.183 -0.6021  0.5851  0.1625
  127OSM   H14C13523   6.108   1.327   6.014  2.0053 -0.4741  1.7029
  127OSM    C1313524   5.966   1.525   6.134 -0.1314 -0.1377  0.2391
  127OSM   H13A13525   6.011   1.530   6.233 -0.0721  1.6669  0.1449
  127OSM   H13B13526   5.882   1.591   6.122  0.8192  0.6201 -2.9416
  127OSM   H13C13527   6.036   1.551   6.056 -1.4250  0.0053 -0.9093
  127OSM    C1213528   5.848   1.329   6.242 -0.2657  0.7935 -0.3676
  127OSM   H12A13529   5.922   1.324   6.320  0.7175 -0.1778 -1.3286
  127OSM   H12B13530   5.820   1.225   6.232  2.5619 -0.0519 -0.2345
  127OSM    C1113531   5.722   1.404   6.296  0.1424 -0.3661 -0.1262
  127OSM   H11A13532   5.743   1.511   6.318  1.4852 -0.8679  1.1120
  127OSM   H11B13533   5.702   1.350   6.391  1.7449 -0.6846  0.0451
  127OSM      P13534   5.487   1.472   6.185 -0.3681 -0.2619  0.2734
  127OSM    O1313535   5.491   1.547   6.056 -0.9939  0.2594 -0.3014
  127OSM    O1413536   5.372   1.384   6.207 -0.1695  0.0564  0.3715
  127OSM    O1113537   5.501   1.576   6.303 -0.3099 -0.0689  0.5533
  127OSM    O1213538   5.618   1.385   6.197 -0.0187 -0.3701 -0.0508
  127OSM    C1S13539   5.502   1.546   6.443  0.2735 -0.8142 -0.8468
  127OSM    H1S13540   5.604   1.550   6.489 -0.4065  1.3577  0.6461
  127OSM    H1T13541   5.458   1.445   6.453  1.2337 -1.3257 -1.5942
  127OSM     NF13542   5.445   1.616   6.674  0.2437  0.2207 -0.1597
  127OSM    HNF13543   5.385   1.549   6.717  1.1789 -0.9256 -0.5874
  127OSM    C2S13544   5.422   1.650   6.530  0.3600  0.0783  0.5050
  127OSM    H2S13545   5.442   1.759   6.523  2.5737 -0.3138 -0.1075
  127OSM    C3S13546   5.275   1.641   6.480 -0.2433 -0.0543  0.0930
  127OSM    H3S13547   5.224   1.542   6.487  0.1513 -0.1589  1.8461
  127OSM     O313548   5.267   1.671   6.341  0.2234 -0.1873 -1.1047
  127OSM    HO313549   5.355   1.658   6.304  0.5811 -1.6516  0.1474
  127OSM    C4S13550   5.189   1.724   6.570  0.3057  0.0386  0.4275
  127OSM    H4S13551   5.101   1.672   6.611 -0.5077  2.1934  1.5387
  127OSM    C5S13552   5.187   1.860   6.571 -0.1545  0.5544  0.1472
  127OSM    H5S13553   5.249   1.912   6.497 -1.1475  1.5805  0.0196
  127OSM    C6S13554   5.094   1.939   6.651  0.0395 -0.2735  0.4966
  127OSM    H6S13555   5.010   1.966   6.584  2.2599 -0.1480 -2.3962
  127OSM    H6T13556   5.140   2.038   6.672  0.0842  0.3656 -2.3037
  127OSM    C7S13557   5.041   1.865   6.774 -0.1961  0.9336 -0.9011
  127OSM    H7S13558   4.993   1.767   6.758  1.6921 -0.3344  0.6650
  127OSM    H7T13559   4.966   1.934   6.819 -0.3218 -1.0951  2.3040
  127OSM    C8S13560   5.151   1.855   6.886  0.9182 -0.8512 -0.4770
  127OSM    H8S13561   5.167   1.952   6.937  0.8809 -1.7528  1.3435
  127OSM    H8T13562   5.255   1.836   6.853  0.6879  2.3869 -3.5398
  127OSM    C9S13563   5.108   1.760   7.000  0.6142  0.4089  0.3629
  127OSM    H9S13564   5.100   1.658   6.956  0.3160  0.3112  0.6370
  127OSM    H9T13565   5.001   1.780   7.022 -0.0266 -0.8793 -1.3035
  127OSM   C10S13566   5.195   1.763   7.125  0.0741 -0.3936  0.0842
  127OSM   H10S13567   5.171   1.864   7.165  2.5779  0.7711 -1.1201
  127OSM   H10T13568   5.298   1.766   7.084  0.5865 -3.0709  0.9839
  127OSM   C11S13569   5.177   1.647   7.223  0.1414  0.5603  0.7034
  127OSM   H11S13570   5.202   1.552   7.171 -0.6126  0.0119  1.3121
  127OSM   H11T13571   5.067   1.639   7.240  0.3087 -2.1362  0.9828
  127OSM   C12S13572   5.244   1.663   7.350  0.1990 -0.1298  0.2589
  127OSM   H12S13573   5.185   1.736   7.410 -1.9394 -1.6603  0.1280
  127OSM   H12T13574   5.350   1.692   7.334  0.6394 -0.8541  1.7006
  127OSM   C13S13575   5.240   1.530   7.429 -0.4452 -0.7195 -0.3696
  127OSM   H13S13576   5.330   1.471   7.402  1.5753  2.1944 -0.4792
  127OSM   H13T13577   5.155   1.470   7.390 -0.3724 -0.2297 -1.3241
  127OSM   C14S13578   5.234   1.565   7.577 -0.3200 -0.1509 -0.7222
  127OSM   H14S13579   5.171   1.486   7.621 -0.3482  0.9713  1.3872
  127OSM   H14T13580   5.180   1.662   7.585  2.4549  1.9193 -3.9231
  127OSM   C15S13581   5.368   1.552   7.642 -0.1305 -0.0855 -1.0152
  127OSM   H15S13582   5.414   1.650   7.620 -0.0638  0.7788  2.3323
  127OSM   H15T13583   5.426   1.469   7.596  0.3288  0.4562 -1.4075
  127OSM   C16S13584   5.376   1.530   7.796 -0.2063  0.6060  0.4851
  127OSM   H16S13585   5.479   1.520   7.836 -0.2558  2.4682  1.1657
  127OSM   H16T13586   5.316   1.437   7.808 -1.6211  1.3825 -0.3230
  127OSM   C17S13587   5.295   1.631   7.873  0.2094 -0.2937  0.0878
  127OSM   H17S13588   5.195   1.643   7.826  0.7248 -3.5580 -2.1499
  127OSM   H17T13589   5.343   1.731   7.865 -2.4242  0.9784 -0.9689
  127OSM   C18S13590   5.271   1.606   8.022  0.2704 -0.2764 -0.1808
  127OSM   H18S13591   5.367   1.597   8.076  0.1072  1.8772  0.5507
  127OSM   H18T13592   5.225   1.506   8.041 -2.8697  1.2107  0.7394
  127OSM   H18U13593   5.206   1.684   8.068  0.1941  0.0790 -0.8681
  127OSM    C1F13594   5.563   1.646   6.736 -0.4648 -0.2250  0.1256
  127OSM     OF13595   5.655   1.707   6.680 -0.4200  0.2894  0.1861
  127OSM    C2F13596   5.579   1.594   6.877  0.6542  0.6156  0.7881
  127OSM    H2F13597   5.643   1.503   6.877 -1.5862 -1.0317  0.2842
  127OSM    H2G13598   5.479   1.560   6.912  0.1130  2.2606  0.9114
  127OSM    C3F13599   5.608   1.705   6.977  0.1800  0.1008 -0.0126
  127OSM    H3F13600   5.550   1.797   6.953  1.2810  0.1860 -2.5582
  127OSM    H3G13601   5.715   1.723   6.955  0.2546 -1.4422 -0.9847
  127OSM    C4F13602   5.597   1.648   7.108 -0.5878 -0.1420 -0.1137
  127OSM    H4F13603   5.666   1.561   7.113  1.0252  1.1385  0.8977
  127OSM    H4G13604   5.492   1.614   7.128 -1.3334  1.7782 -0.6070
  127OSM    C5F13605   5.645   1.734   7.218  0.2132 -0.4716 -0.0284
  127OSM    H5F13606   5.567   1.810   7.241  1.2590  1.3679 -2.2479
  127OSM    H5G13607   5.736   1.790   7.188 -1.4277  2.3121 -0.1950
  127OSM    C6F13608   5.653   1.658   7.352 -0.2425 -0.1738 -0.0933
  127OSM    H6F13609   5.684   1.552   7.337  1.0752 -0.0441  1.4578
  127OSM    H6G13610   5.552   1.660   7.398 -0.5188 -1.5297 -0.6209
  127OSM    C7F13611   5.749   1.723   7.446  0.1239  0.0844 -0.3291
  127OSM    H7F13612   5.711   1.819   7.487  1.1903  0.0392  0.8398
  127OSM    H7G13613   5.849   1.735   7.400  1.7504 -1.9178  2.3825
  127OSM    C8F13614   5.769   1.624   7.562 -0.0424  0.3954  1.0768
  127OSM    H8F13615   5.802   1.523   7.531 -1.9561 -0.9090  2.9841
  127OSM    H8G13616   5.671   1.590   7.602  0.8526 -3.1377  0.6157
  127OSM    C9F13617   5.867   1.680   7.661 -0.9014  0.1492  1.0595
  127OSM    H9F13618   5.898   1.783   7.641 -0.9615  0.2519  1.4935
  127OSM   C10F13619   5.907   1.618   7.773 -0.5399 -0.0931  0.9956
  127OSM   H10F13620   5.971   1.677   7.840  1.1534 -1.5294  0.7564
  127OSM   C11F13621   5.880   1.478   7.830  0.5999 -0.2242  0.1918
  127OSM   H11F13622   5.970   1.414   7.825  1.1790  0.5766  0.0620
  127OSM   H11G13623   5.803   1.432   7.764 -1.9265  1.9151  1.4542
  127OSM   C12F13624   5.836   1.485   7.976  0.1788 -0.9171  0.9139
  127OSM   H12F13625   5.755   1.562   7.971  0.6333 -0.4534  0.6521
  127OSM   H12G13626   5.925   1.522   8.031 -0.2164  1.6495 -0.0387
  127OSM   C13F13627   5.786   1.351   8.029  0.3959  0.0223  0.2460
  127OSM   H13F13628   5.866   1.277   8.007 -0.7861 -1.3170  0.3300
  127OSM   H13G13629   5.693   1.321   7.977  0.0809 -0.7942  1.2427
  127OSM   C14F13630   5.785   1.346   8.183 -0.5858 -0.4591 -0.0859
  127OSM   H14F13631   5.733   1.251   8.211  1.3099 -1.2385  0.9692
  127OSM   H14G13632   5.728   1.437   8.213  0.3763  0.3631 -0.7278
  127OSM   C15F13633   5.926   1.348   8.249  0.8177 -0.0478 -0.1887
  127OSM   H15F13634   5.974   1.443   8.215 -1.4592  1.1949 -0.1654
  127OSM   H15G13635   5.983   1.258   8.218 -0.4506 -1.3741  1.1742
  127OSM   C16F13636   5.910   1.351   8.401  0.7696  0.1049 -0.0250
  127OSM   H16F13637   5.852   1.261   8.430  0.7273  0.3812  0.7901
  127OSM   H16G13638   5.843   1.434   8.432 -0.9928 -1.2453 -0.0737
  127OSM   C17F13639   6.041   1.363   8.485 -0.1983 -0.0954  0.2849
  127OSM   H17F13640   6.116   1.435   8.444  0.3181 -1.4516 -1.2486
  127OSM   H17G13641   6.075   1.258   8.488  3.2083  0.8864  1.4447
  127OSM   C18F13642   6.022   1.397   8.633 -0.4267  0.1683 -0.4534
  127OSM   H18F13643   5.954   1.322   8.678 -1.0329  0.9322 -0.0773
  127OSM   H18G13644   5.989   1.501   8.652  1.7372  0.5831  1.5113
  127OSM   H18H13645   6.125   1.393   8.674 -0.1559 -1.2894 -1.1756
  128OSM      N13646   5.374   2.910   6.238 -0.1418  0.5827 -0.2846
  128OSM    C1513647   5.232   2.859   6.241 -0.3897 -0.0465 -0.1524
  128OSM   H15A13648   5.202   2.850   6.138  0.1762 -2.3522 -0.1865
  128OSM   H15B13649   5.173   2.930   6.297 -1.2725 -1.6489  1.0476
  128OSM   H15C13650   5.229   2.766   6.296 -1.3827  0.3708  0.5271
  128OSM    C1413651   5.418   2.932   6.382  0.0640 -0.0072  0.2131
  128OSM   H14A13652   5.348   2.997   6.432 -1.5479 -0.2469 -1.6255
  128OSM   H14B13653   5.522   2.962   6.384  0.5971 -1.6033 -1.5661
  128OSM   H14C13654   5.425   2.833   6.425 -1.1485  0.4470  1.5394
  128OSM    C1313655   5.465   2.809   6.167  0.3766 -0.4078 -0.0260
  128OSM   H13A13656   5.558   2.849   6.131  0.7443  0.2718  1.5972
  128OSM   H13B13657   5.412   2.777   6.078  0.5997  1.4118 -0.8720
  128OSM   H13C13658   5.495   2.728   6.231  2.9016  0.7763  0.4066
  128OSM    C1213659   5.369   3.043   6.160 -0.0024  0.6148 -0.1389
  128OSM   H12A13660   5.318   3.020   6.068 -1.9163  2.5912  0.3228
  128OSM   H12B13661   5.470   3.077   6.143  0.3869  1.1478  2.6825
  128OSM    C1113662   5.283   3.154   6.226  0.0001  0.0772  0.6241
  128OSM   H11A13663   5.182   3.108   6.233  0.6142 -1.4050  0.0944
  128OSM   H11B13664   5.268   3.238   6.154  1.4139 -1.5073 -1.6304
  128OSM      P13665   5.479   3.288   6.344 -0.4367  0.0464 -0.2153
  128OSM    O1313666   5.583   3.197   6.402  0.9354  0.4395 -0.3481
  128OSM    O1413667   5.509   3.338   6.209  0.4848 -0.4569  0.0140
  128OSM    O1113668   5.458   3.416   6.449 -0.2417  1.0017  0.3900
  128OSM    O1213669   5.340   3.202   6.344  0.2783 -0.1953  0.2244
  128OSM    C1S13670   5.349   3.505   6.433 -0.1513  0.4489  0.1573
  128OSM    H1S13671   5.280   3.464   6.356  2.0767 -1.5391 -0.9402
  128OSM    H1T13672   5.381   3.604   6.394  0.0175  0.4759  0.3615
  128OSM     NF13673   5.158   3.600   6.570  0.0884  0.8854  0.3185
  128OSM    HNF13674   5.160   3.699   6.560  0.0698  1.0138  1.4898
  128OSM    C2S13675   5.286   3.535   6.570  0.2905  0.5694  0.2115
  128OSM    H2S13676   5.271   3.437   6.621  0.0810  0.5197  0.0549
  128OSM    C3S13677   5.387   3.616   6.649  0.4607  0.2085  0.2083
  128OSM    H3S13678   5.404   3.713   6.597 -0.9156  0.0075 -0.6685
  128OSM     O313679   5.515   3.558   6.660  0.4393 -0.1398  0.0899
  128OSM    HO313680   5.513   3.502   6.582  0.2812  0.8887 -0.6575
  128OSM    C4S13681   5.342   3.647   6.789  0.4840 -0.0327 -0.0191
  128OSM    H4S13682   5.283   3.738   6.809 -1.4995 -1.2344 -0.0788
  128OSM    C5S13683   5.360   3.580   6.907  0.1204  0.6543  0.1680
  128OSM    H5S13684   5.423   3.490   6.910 -0.1117  0.4694 -0.3398
  128OSM    C6S13685   5.312   3.639   7.036 -0.5738 -0.2665 -0.4250
  128OSM    H6S13686   5.376   3.724   7.066 -1.2606 -0.2710  1.1933
  128OSM    H6T13687   5.332   3.562   7.114 -1.4940 -1.0097 -0.8972
  128OSM    C7S13688   5.172   3.681   7.044  0.4513 -0.1191 -0.7990
  128OSM    H7S13689   5.113   3.621   6.972 -0.6466  0.9646 -0.8234
  128OSM    H7T13690   5.160   3.791   7.037 -1.4818 -0.2210  0.3989
  128OSM    C8S13691   5.105   3.633   7.178 -0.2571  0.1021 -0.1400
  128OSM    H8S13692   5.161   3.678   7.263 -1.2859  0.2376  0.4845
  128OSM    H8T13693   5.104   3.526   7.207 -2.1768  0.4813  1.3958
  128OSM    C9S13694   4.957   3.677   7.193  0.4194  0.2887  0.5919
  128OSM    H9S13695   4.915   3.624   7.105  2.1891 -1.1801  0.5754
  128OSM    H9T13696   4.948   3.787   7.180  2.8803  0.4224 -0.4442
  128OSM   C10S13697   4.897   3.632   7.323  0.6444  0.8411  0.6948
  128OSM   H10S13698   4.914   3.525   7.348 -2.0812 -0.4325 -2.1962
  128OSM   H10T13699   4.788   3.656   7.331  1.0381  2.2700  2.6275
  128OSM   C11S13700   4.955   3.700   7.448  0.1349  1.2075 -0.1356
  128OSM   H11S13701   4.983   3.806   7.428 -1.3461  1.5654 -0.5163
  128OSM   H11T13702   5.050   3.647   7.468  0.5881  2.0077 -0.1138
  128OSM   C12S13703   4.854   3.683   7.562  0.2739 -0.1997  0.3290
  128OSM   H12S13704   4.755   3.706   7.517  0.3733 -1.8331 -0.8331
  128OSM   H12T13705   4.867   3.764   7.636 -3.1676  3.2518 -2.4358
  128OSM   C13S13706   4.867   3.539   7.613 -0.4584  0.1687  0.6732
  128OSM   H13S13707   4.968   3.495   7.605 -0.2642  0.2321  2.3470
  128OSM   H13T13708   4.805   3.484   7.539 -1.5208 -0.2230  1.8181
  128OSM   C14S13709   4.797   3.513   7.743 -0.0226  0.3744 -0.3397
  128OSM   H14S13710   4.770   3.405   7.738  0.2771  0.3174 -0.8384
  128OSM   H14T13711   4.698   3.564   7.752 -0.6153 -0.8313  0.1160
  128OSM   C15S13712   4.890   3.556   7.859 -0.5345 -0.4752 -0.3921
  128OSM   H15S13713   4.901   3.666   7.844  0.5786 -0.4455  0.4804
  128OSM   H15T13714   4.989   3.506   7.849 -0.6070 -0.4777 -1.1890
  128OSM   C16S13715   4.831   3.524   7.994 -0.5136  0.2040 -0.8618
  128OSM   H16S13716   4.818   3.415   8.006 -1.1394  0.3783  0.1472
  128OSM   H16T13717   4.729   3.564   8.010 -0.0207  0.7571  1.2561
  128OSM   C17S13718   4.928   3.577   8.105  0.5327 -0.5341 -0.5996
  128OSM   H17S13719   4.974   3.672   8.072  2.0492 -0.3889  1.6875
  128OSM   H17T13720   5.013   3.506   8.095  0.4467 -0.8353  0.6341
  128OSM   C18S13721   4.887   3.562   8.249  0.3728  0.3884 -0.0544
  128OSM   H18S13722   4.820   3.645   8.280 -0.6275 -0.8933  1.3539
  128OSM   H18T13723   4.970   3.573   8.322  0.8183 -0.3903 -0.4347
  128OSM   H18U13724   4.852   3.460   8.276  3.7277 -0.3244  2.3231
  128OSM    C1F13725   5.056   3.536   6.516  0.0223  0.3514 -0.1032
  128OSM     OF13726   5.068   3.422   6.467  0.0667  0.2877  0.2283
  128OSM    C2F13727   4.926   3.617   6.509  0.9771  0.3482  0.5364
  128OSM    H2F13728   4.906   3.638   6.402 -2.0615  3.2422  1.5037
  128OSM    H2G13729   4.946   3.715   6.556  2.9634  0.8118 -1.1265
  128OSM    C3F13730   4.804   3.544   6.566 -0.2304  0.2452 -0.3774
  128OSM    H3F13731   4.811   3.442   6.524  0.9360  0.4709 -0.7484
  128OSM    H3G13732   4.709   3.587   6.528 -0.1151  0.9028  0.0548
  128OSM    C4F13733   4.807   3.530   6.722 -0.8791 -1.2037 -0.3319
  128OSM    H4F13734   4.829   3.628   6.768 -0.8659 -0.1786 -2.4300
  128OSM    H4G13735   4.893   3.470   6.758 -1.2440 -1.0534  0.8230
  128OSM    C5F13736   4.681   3.479   6.780 -0.0442  0.4869 -0.3892
  128OSM    H5F13737   4.685   3.501   6.889  1.1966  2.0746 -0.7145
  128OSM    H5G13738   4.686   3.370   6.758  1.6087  0.9162 -2.4653
  128OSM    C6F13739   4.545   3.531   6.729 -0.6844  0.0271 -0.4503
  128OSM    H6F13740   4.515   3.507   6.624  0.7090  0.9465 -1.0785
  128OSM    H6G13741   4.550   3.642   6.732 -0.8765  0.0233  1.0000
  128OSM    C7F13742   4.437   3.479   6.819 -0.0769 -0.1745 -0.4975
  128OSM    H7F13743   4.468   3.480   6.925 -2.1397  2.0223  0.1485
  128OSM    H7G13744   4.419   3.372   6.792  0.3453 -0.1674 -0.8283
  128OSM    C8F13745   4.297   3.550   6.810  0.0563 -0.2364 -0.4635
  128OSM    H8F13746   4.293   3.572   6.701 -0.1941  1.3918 -0.1413
  128OSM    H8G13747   4.304   3.648   6.860  0.1641 -0.2469 -0.4577
  128OSM    C9F13748   4.184   3.476   6.874 -0.5604  0.8361  0.9694
  128OSM    H9F13749   4.150   3.387   6.819 -1.0124  0.1464  2.3037
  128OSM   C10F13750   4.128   3.501   6.996 -0.2158  0.6048  0.0651
  128OSM   H10F13751   4.049   3.436   7.036 -0.0223  0.3084 -0.0216
  128OSM   C11F13752   4.156   3.616   7.097 -0.2533  0.2754 -0.5416
  128OSM   H11F13753   4.264   3.643   7.096  0.4216 -2.2109 -0.4648
  128OSM   H11G13754   4.133   3.580   7.199 -0.0881 -2.7811 -1.4779
  128OSM   C12F13755   4.071   3.744   7.070 -0.1262  0.4031 -0.2566
  128OSM   H12F13756   4.055   3.759   6.961 -2.1497 -1.5965 -0.2893
  128OSM   H12G13757   4.116   3.827   7.129  0.8017 -1.7481  2.2118
  128OSM   C13F13758   3.925   3.742   7.121 -0.0528 -0.5850 -0.6203
  128OSM   H13F13759   3.921   3.733   7.232 -1.2448 -1.0528 -0.6875
  128OSM   H13G13760   3.868   3.653   7.087 -1.2120  0.4583 -1.4860
  128OSM   C14F13761   3.840   3.867   7.088 -0.9596 -0.5039  0.1139
  128OSM   H14F13762   3.839   3.877   6.977 -2.2509 -1.3807  0.0187
  128OSM   H14G13763   3.883   3.964   7.120 -0.3135 -0.4739 -0.7980
  128OSM   C15F13764   3.693   3.850   7.125 -0.1488 -0.0762 -0.6437
  128OSM   H15F13765   3.697   3.800   7.224  0.2709 -0.4088 -0.8244
  128OSM   H15G13766   3.648   3.785   7.046 -1.8098 -0.2487  0.4131
  128OSM   C16F13767   3.619   3.979   7.140 -0.0880 -0.6980 -0.1705
  128OSM   H16F13768   3.627   4.032   7.043  1.8066  2.1095  1.3785
  128OSM   H16G13769   3.664   4.046   7.216  0.2359 -1.5885  0.4461
  128OSM   C17F13770   3.472   3.947   7.168  0.5135  1.1102  0.6950
  128OSM   H17F13771   3.467   3.896   7.266 -1.5290  0.2977  0.2063
  128OSM   H17G13772   3.431   3.884   7.087 -0.9755 -0.5419  2.6552
  128OSM   C18F13773   3.380   4.066   7.185 -0.6443  0.2348  0.3844
  128OSM   H18F13774   3.274   4.033   7.171 -0.1549 -1.1140 -0.3171
  128OSM   H18G13775   3.396   4.148   7.112 -1.4101  0.5013  0.4978
  128OSM   H18H13776   3.381   4.097   7.292 -0.8418 -1.5012  0.9113
  129OSM      N13777   3.186   0.505   5.951 -0.8066  0.2253 -0.0042
  129OSM    C1513778   3.046   0.504   5.889  0.0164  0.1650  0.0891
  129OSM   H15A13779   3.001   0.407   5.878 -1.9932  1.0475  0.1053
  129OSM   H15B13780   3.051   0.551   5.792 -3.9837  0.4284 -0.1232
  129OSM   H15C13781   2.974   0.562   5.945  0.8697  1.5149 -0.1593
  129OSM    C1413782   3.281   0.411   5.884  0.3884  0.6796  0.7226
  129OSM   H14A13783   3.247   0.308   5.888 -0.0957  0.7996 -0.0562
  129OSM   H14B13784   3.380   0.415   5.927  1.5683 -0.0488 -1.7358
  129OSM   H14C13785   3.302   0.437   5.782 -2.2760  1.0283  0.1982
  129OSM    C1313786   3.242   0.641   5.949 -0.3170  0.0978 -0.6729
  129OSM   H13A13787   3.244   0.694   5.854  1.5348  2.5215  0.5951
  129OSM   H13B13788   3.344   0.627   5.982  0.2003 -0.0158 -2.2069
  129OSM   H13C13789   3.191   0.706   6.018  0.7740 -0.0890  0.3297
  129OSM    C1213790   3.173   0.454   6.091  0.0346  0.8205  0.3747
  129OSM   H12A13791   3.097   0.509   6.145 -0.9150 -0.6039  0.5612
  129OSM   H12B13792   3.268   0.463   6.142  0.4034 -0.9522  0.0614
  129OSM    C1113793   3.124   0.307   6.117 -0.2040  0.0118  0.1031
  129OSM   H11A13794   3.018   0.306   6.084 -0.6679  1.0516  1.4658
  129OSM   H11B13795   3.110   0.302   6.227 -1.6287  3.1080  0.1800
  129OSM      P13796   3.317   0.126   6.117  0.3679 -0.0250 -0.1007
  129OSM    O1313797   3.290  -0.014   6.147 -0.0418 -0.4992 -0.5797
  129OSM    O1413798   3.440   0.134   6.040 -0.3532  0.2740  0.5708
  129OSM    O1113799   3.342   0.201   6.259  0.2026 -0.9085  0.1590
  129OSM    O1213800   3.189   0.196   6.056 -0.4874 -0.1293 -0.0103
  129OSM    C1S13801   3.298   0.146   6.383 -0.0779  0.3786 -0.3105
  129OSM    H1S13802   3.356   0.053   6.405  0.2771  0.6641 -0.0248
  129OSM    H1T13803   3.189   0.130   6.382 -0.1050  0.5345 -0.0819
  129OSM     NF13804   3.273   0.174   6.632  0.2425  0.1479 -0.4238
  129OSM    HNF13805   3.210   0.230   6.685  0.4466  1.2350 -1.2890
  129OSM    C2S13806   3.323   0.238   6.503 -0.3204 -0.8015  0.3616
  129OSM    H2S13807   3.431   0.258   6.514 -0.5317 -0.6377  2.5925
  129OSM    C3S13808   3.253   0.370   6.475  0.0837 -0.1019 -0.5933
  129OSM    H3S13809   3.153   0.345   6.435 -0.1005 -0.7980  0.2784
  129OSM     O313810   3.311   0.450   6.368 -0.0276 -0.1978 -0.4352
  129OSM    HO313811   3.392   0.398   6.363  0.1721 -0.1271  1.2909
  129OSM    C4S13812   3.244   0.454   6.605  0.1518  0.5520 -0.1673
  129OSM    H4S13813   3.150   0.443   6.660 -0.1917  1.2012 -0.6086
  129OSM    C5S13814   3.348   0.532   6.650  0.9285  0.0625  0.1501
  129OSM    H5S13815   3.440   0.528   6.590  1.3541 -0.2380  0.8055
  129OSM    C6S13816   3.344   0.621   6.775  0.2135 -0.6289  0.3557
  129OSM    H6S13817   3.368   0.723   6.738  3.3974 -1.3393  0.2255
  129OSM    H6T13818   3.425   0.584   6.840  2.8944  2.4532 -0.9640
  129OSM    C7S13819   3.206   0.621   6.848  0.3704  0.0008 -0.3833
  129OSM    H7S13820   3.177   0.517   6.873  1.6951  0.1787  2.2316
  129OSM    H7T13821   3.126   0.653   6.778 -0.0625  2.1689  1.0003
  129OSM    C8S13822   3.205   0.707   6.966  0.1496 -0.5130 -0.1775
  129OSM    H8S13823   3.251   0.805   6.942 -1.1007  0.9102  2.7561
  129OSM    H8T13824   3.256   0.661   7.052 -1.3906  1.6333  2.0252
  129OSM    C9S13825   3.059   0.753   6.998  0.3415  0.0943  0.6807
  129OSM    H9S13826   2.985   0.671   7.008  1.9504 -1.6961 -1.2774
  129OSM    H9T13827   3.022   0.820   6.917 -0.4415  1.0672  1.8102
  129OSM   C10S13828   3.058   0.854   7.117  0.8692  0.3154  0.2644
  129OSM   H10S13829   2.967   0.917   7.108  2.0179  1.9250 -0.5965
  129OSM   H10T13830   3.141   0.928   7.117  0.7060  0.5143 -0.9303
  129OSM   C11S13831   3.027   0.782   7.254 -0.4941 -0.8807  0.0818
  129OSM   H11S13832   3.103   0.702   7.272  2.2643  0.5420 -3.7842
  129OSM   H11T13833   2.924   0.740   7.252 -0.2635 -1.4549 -1.3395
  129OSM   C12S13834   3.048   0.869   7.370  0.1736 -0.7455 -0.2928
  129OSM   H12S13835   2.995   0.964   7.348  0.1075 -0.7224 -0.0344
  129OSM   H12T13836   3.158   0.889   7.372 -0.0040  0.2764 -0.0775
  129OSM   C13S13837   2.997   0.822   7.513 -0.8691  0.1017 -0.0364
  129OSM   H13S13838   3.049   0.885   7.589 -0.7218  0.8368 -0.7365
  129OSM   H13T13839   3.028   0.716   7.528 -0.0880  0.3160 -0.0755
  129OSM   C14S13840   2.850   0.847   7.524  1.0354  0.2131 -0.5726
  129OSM   H14S13841   2.802   0.758   7.479  1.8425  0.2256 -1.4808
  129OSM   H14T13842   2.810   0.935   7.469 -3.5578 -1.7973 -0.9627
  129OSM   C15S13843   2.804   0.858   7.671  0.7686 -0.6411  0.3092
  129OSM   H15S13844   2.702   0.902   7.678  0.9372 -0.2759  0.5261
  129OSM   H15T13845   2.874   0.929   7.721  1.0403  0.8275 -2.0164
  129OSM   C16S13846   2.823   0.728   7.756 -0.5512 -0.1211  0.5163
  129OSM   H16S13847   2.929   0.695   7.760 -1.3814 -3.2117 -0.4925
  129OSM   H16T13848   2.774   0.649   7.696 -1.8902  1.1027 -0.0609
  129OSM   C17S13849   2.757   0.741   7.896  0.2060 -0.0241  0.0460
  129OSM   H17S13850   2.646   0.744   7.889  0.1761 -1.5720 -0.5336
  129OSM   H17T13851   2.801   0.830   7.946 -0.7074  2.6747 -3.5726
  129OSM   C18S13852   2.791   0.615   7.974 -0.2856  0.1669  0.2407
  129OSM   H18S13853   2.762   0.529   7.910  1.8276 -0.9422  0.6696
  129OSM   H18T13854   2.724   0.614   8.063 -2.3082 -0.2567 -1.2185
  129OSM   H18U13855   2.893   0.601   8.015 -1.0581  0.7696  2.5277
  129OSM    C1F13856   3.324   0.066   6.693  0.7010 -0.0280 -0.1388
  129OSM     OF13857   3.430   0.010   6.656 -0.1994 -0.9495 -0.0703
  129OSM    C2F13858   3.269   0.021   6.823  0.7839 -0.3205 -0.2196
  129OSM    H2F13859   3.159   0.038   6.832  0.7175 -0.2617 -1.0348
  129OSM    H2G13860   3.310   0.094   6.896 -0.2386 -0.7932  0.8664
  129OSM    C3F13861   3.306  -0.122   6.875 -0.5681  0.0256  0.3493
  129OSM    H3F13862   3.416  -0.129   6.864 -0.5160 -2.2012  1.7571
  129OSM    H3G13863   3.249  -0.205   6.826  0.5873  0.2504 -1.4998
  129OSM    C4F13864   3.292  -0.133   7.030 -0.3517  0.4827  0.0084
  129OSM    H4F13865   3.286  -0.241   7.055  0.2428  0.0585 -1.5415
  129OSM    H4G13866   3.197  -0.082   7.056 -0.2844  1.8221 -2.1862
  129OSM    C5F13867   3.396  -0.069   7.121 -0.9274  0.4193 -0.0154
  129OSM    H5F13868   3.443   0.018   7.070 -0.0523 -0.9501 -1.6114
  129OSM    H5G13869   3.481  -0.133   7.152  0.1237  1.8270  0.1091
  129OSM    C6F13870   3.337  -0.002   7.242 -0.7753 -0.1317 -0.3415
  129OSM    H6F13871   3.249   0.057   7.209 -0.6682  1.7407  2.3991
  129OSM    H6G13872   3.401   0.083   7.276 -1.1295 -0.2378  0.6289
  129OSM    C7F13873   3.309  -0.099   7.352 -0.0851 -0.3688 -0.4085
  129OSM    H7F13874   3.406  -0.137   7.389  1.3817  2.9489 -0.5112
  129OSM    H7G13875   3.246  -0.182   7.312 -1.9487  0.4778  0.5887
  129OSM    C8F13876   3.226  -0.035   7.471 -0.1427  0.2776  1.1999
  129OSM    H8F13877   3.192  -0.121   7.532  0.1375 -0.3276  0.5255
  129OSM    H8G13878   3.142   0.025   7.431  0.6268 -0.7429 -2.3146
  129OSM    C9F13879   3.302   0.058   7.564 -0.6992 -0.4397  0.6146
  129OSM    H9F13880   3.411   0.046   7.560 -0.8312 -1.3021 -1.5095
  129OSM   C10F13881   3.251   0.145   7.648 -0.3024  0.5908  0.0416
  129OSM   H10F13882   3.323   0.208   7.703  0.4048 -1.1670  1.2220
  129OSM   C11F13883   3.101   0.164   7.664  0.1088 -0.5553 -0.0683
  129OSM   H11F13884   3.040   0.106   7.592 -0.1893 -0.2443 -0.0686
  129OSM   H11G13885   3.098   0.266   7.619 -0.2496 -0.8923 -0.8340
  129OSM   C12F13886   3.050   0.137   7.804 -0.1994  0.3259  0.6635
  129OSM   H12F13887   2.940   0.153   7.805 -0.6105 -1.8890 -0.7344
  129OSM   H12G13888   3.097   0.212   7.871  0.1073 -0.1664  1.0103
  129OSM   C13F13889   3.074  -0.012   7.847  0.6421 -0.2974 -0.8231
  129OSM   H13F13890   3.184  -0.023   7.843  0.5058 -1.6650 -1.6538
  129OSM   H13G13891   3.030  -0.083   7.774 -3.0811  0.0885  0.8074
  129OSM   C14F13892   3.021  -0.056   7.982 -0.4052 -0.5270 -0.2726
  129OSM   H14F13893   3.034  -0.167   7.982  0.0157 -0.4884 -1.1171
  129OSM   H14G13894   2.919  -0.014   7.994  0.0605  0.9205 -1.1462
  129OSM   C15F13895   3.105  -0.011   8.101 -0.6281 -0.4424  0.8040
  129OSM   H15F13896   3.139   0.090   8.069 -3.8751  0.7944  0.9615
  129OSM   H15G13897   3.190  -0.080   8.119 -0.6164 -0.4812  0.6067
  129OSM   C16F13898   3.027   0.014   8.229  0.2555  0.1146  0.4145
  129OSM   H16F13899   2.987  -0.083   8.267  1.9008 -0.6106  0.3534
  129OSM   H16G13900   2.932   0.071   8.219 -0.1497 -0.9541 -3.2818
  129OSM   C17F13901   3.116   0.075   8.339  0.5411  0.1487 -0.2719
  129OSM   H17F13902   3.056   0.118   8.422 -2.0982  1.3855 -2.6726
  129OSM   H17G13903   3.174   0.155   8.288  3.5929 -0.0515  2.4899
  129OSM   C18F13904   3.207  -0.020   8.417 -0.6690  0.1753 -0.5215
  129OSM   H18F13905   3.280  -0.076   8.355  2.2047 -0.1923  2.9014
  129OSM   H18G13906   3.162  -0.101   8.478  2.3869 -1.3942 -0.1765
  129OSM   H18H13907   3.268   0.038   8.489 -2.2238  3.3782 -1.5777
  130OSM      N13908   6.051   4.708   6.028 -0.2861  0.4278  0.8442
  130OSM    C1513909   6.132   4.706   5.900  0.6930  0.0345  0.0011
  130OSM   H15A13910   6.227   4.660   5.921  0.7760  0.3681  0.3897
  130OSM   H15B13911   6.157   4.807   5.870  0.5886 -0.2730 -1.1284
  130OSM   H15C13912   6.079   4.657   5.820  0.4485  1.8550 -1.0182
  130OSM    C1413913   6.147   4.758   6.130  0.0779  0.8252  0.5067
  130OSM   H14A13914   6.227   4.691   6.156 -0.4693  0.0695  0.2797
  130OSM   H14B13915   6.087   4.786   6.215 -0.7604  1.9236 -0.4112
  130OSM   H14C13916   6.184   4.850   6.088 -0.5381 -0.2846 -2.7473
  130OSM    C1313917   5.950   4.808   6.009  0.0586  0.1064  0.5102
  130OSM   H13A13918   5.985   4.893   5.953 -1.8890  0.5933 -0.0449
  130OSM   H13B13919   5.907   4.849   6.099 -1.2257  1.2163 -0.5533
  130OSM   H13C13920   5.873   4.762   5.949  1.7607 -0.1432 -1.5879
  130OSM    C1213921   5.991   4.575   6.066 -0.2246  0.3419 -0.0194
  130OSM   H12A13922   6.058   4.498   6.031 -1.4385 -0.4216 -0.7636
  130OSM   H12B13923   5.903   4.545   6.011 -0.6682 -2.4343  1.9915
  130OSM    C1113924   5.944   4.555   6.213 -0.3701  0.0120  0.4558
  130OSM   H11A13925   6.041   4.549   6.268  1.8397  0.0453 -3.1449
  130OSM   H11B13926   5.887   4.461   6.225 -0.3603  0.0606  0.9124
  130OSM      P13927   5.721   4.680   6.226 -0.1328  0.1703 -0.2032
  130OSM    O1313928   5.686   4.825   6.213  0.3373  0.2932 -0.6875
  130OSM    O1413929   5.689   4.599   6.103 -0.0799  0.6112 -0.5557
  130OSM    O1113930   5.659   4.617   6.353 -0.0563  0.4136  0.0667
  130OSM    O1213931   5.871   4.662   6.262  0.7288 -0.1279  0.2945
  130OSM    C1S13932   5.691   4.657   6.487 -0.3250  0.2363 -0.1708
  130OSM    H1S13933   5.658   4.760   6.512  0.8158  0.7104 -0.5138
  130OSM    H1T13934   5.802   4.658   6.494 -0.2955  0.5707 -0.6723
  130OSM     NF13935   5.653   4.624   6.724  0.6960  0.3056  0.3186
  130OSM    HNF13936   5.728   4.585   6.777 -0.6171 -2.0873  0.5750
  130OSM    C2S13937   5.632   4.569   6.593 -0.7016  0.1180 -0.0538
  130OSM    H2S13938   5.525   4.562   6.567 -0.3738 -0.6069 -1.2968
  130OSM    C3S13939   5.690   4.436   6.580 -0.1233 -0.0316  0.0539
  130OSM    H3S13940   5.795   4.445   6.615  0.0829  0.0874 -0.5910
  130OSM     O313941   5.683   4.369   6.454  0.1830  0.0727 -0.1593
  130OSM    HO313942   5.676   4.429   6.379  0.2162 -0.5978 -0.7032
  130OSM    C4S13943   5.620   4.351   6.683  0.2104 -0.1357  0.3587
  130OSM    H4S13944   5.527   4.393   6.724  1.2450  1.1698  1.4902
  130OSM    C5S13945   5.654   4.234   6.746  0.2115  0.4372 -0.2553
  130OSM    H5S13946   5.752   4.198   6.711  0.0487  2.0554 -2.6637
  130OSM    C6S13947   5.573   4.156   6.846  0.7929  0.7113  0.3222
  130OSM    H6S13948   5.647   4.100   6.907  3.9936  0.5055 -3.3478
  130OSM    H6T13949   5.530   4.066   6.796 -0.8781  1.7733 -0.2607
  130OSM    C7S13950   5.462   4.226   6.938 -0.6213  0.1051  0.1389
  130OSM    H7S13951   5.361   4.224   6.893 -1.4940 -5.6391  1.5533
  130OSM    H7T13952   5.484   4.331   6.967 -2.5805  0.2532  1.2451
  130OSM    C8S13953   5.451   4.139   7.071  0.5425  0.1278 -0.0641
  130OSM    H8S13954   5.549   4.138   7.124  0.1368  2.9251  0.9162
  130OSM    H8T13955   5.435   4.036   7.033  2.2666 -0.2590  0.1629
  130OSM    C9S13956   5.339   4.170   7.164 -0.1951  0.3179  0.6047
  130OSM    H9S13957   5.246   4.181   7.103 -0.3165  1.4801  0.9870
  130OSM    H9T13958   5.346   4.275   7.198 -0.3497  1.1213 -1.6712
  130OSM   C10S13959   5.324   4.061   7.261  0.1846  0.3058 -0.2592
  130OSM   H10S13960   5.422   4.043   7.311  0.4269  2.8189  0.3018
  130OSM   H10T13961   5.299   3.959   7.224  0.0556  0.0166  0.5865
  130OSM   C11S13962   5.228   4.101   7.372 -0.3847 -0.4088 -0.1949
  130OSM   H11S13963   5.131   4.104   7.319 -1.4985  0.7262  1.8063
  130OSM   H11T13964   5.261   4.201   7.407 -0.9771 -0.5805  0.8835
  130OSM   C12S13965   5.224   4.000   7.485 -0.3122 -0.6883  0.7499
  130OSM   H12S13966   5.327   3.976   7.519 -0.0919  0.0908  0.6373
  130OSM   H12T13967   5.181   3.902   7.455 -2.1805  0.3303 -0.0158
  130OSM   C13S13968   5.140   4.052   7.598  0.5834  0.2442 -0.2447
  130OSM   H13S13969   5.043   4.091   7.561  0.3967  0.6947  0.6975
  130OSM   H13T13970   5.181   4.148   7.636  0.3730  0.9765 -1.8054
  130OSM   C14S13971   5.110   3.961   7.721  0.0218  0.4825  0.4192
  130OSM   H14S13972   5.207   3.907   7.729  0.1284  0.5453 -0.3589
  130OSM   H14T13973   5.036   3.883   7.697 -1.3440  1.1523  2.2179
  130OSM   C15S13974   5.074   4.042   7.842  0.2473  0.4912 -0.3794
  130OSM   H15S13975   4.989   4.107   7.812 -1.9611 -2.2454 -0.4528
  130OSM   H15T13976   5.152   4.117   7.868  0.1332  0.3222  0.4796
  130OSM   C16S13977   5.036   3.951   7.965  0.1030  0.6003  0.3774
  130OSM   H16S13978   5.114   3.872   7.976 -1.5649 -1.2110 -0.2294
  130OSM   H16T13979   4.944   3.900   7.928 -0.6466  1.8984  0.3971
  130OSM   C17S13980   5.013   4.033   8.092  0.0957 -0.1727  0.2900
  130OSM   H17S13981   4.931   4.106   8.080  0.5468  0.4247  0.7987
  130OSM   H17T13982   5.110   4.086   8.108  1.1630 -1.6670 -0.9129
  130OSM   C18S13983   4.971   3.947   8.212  0.4741  0.9528  0.4953
  130OSM   H18S13984   5.037   3.859   8.224 -0.2442  0.3238 -0.0402
  130OSM   H18T13985   4.865   3.916   8.198  1.8193 -3.8987 -0.6363
  130OSM   H18U13986   4.971   4.005   8.307  0.9098 -0.6342  1.4918
  130OSM    C1F13987   5.574   4.713   6.768  0.2930 -0.7405 -0.4611
  130OSM     OF13988   5.476   4.741   6.707  0.3516 -0.4622  0.0643
  130OSM    C2F13989   5.615   4.779   6.897  0.5104  0.1652  0.1018
  130OSM    H2F13990   5.679   4.868   6.881 -0.5292  1.2711  1.6944
  130OSM    H2G13991   5.679   4.707   6.954  0.8185 -0.9204 -1.5635
  130OSM    C3F13992   5.501   4.822   6.993  0.1909 -0.2518  0.9600
  130OSM    H3F13993   5.447   4.906   6.945 -1.8910 -1.7895  0.4568
  130OSM    H3G13994   5.555   4.847   7.087  1.6045  3.1208 -0.5947
  130OSM    C4F13995   5.394   4.712   7.015  0.5869 -0.1468  0.5967
  130OSM    H4F13996   5.456   4.620   7.026  1.5169  0.4707  0.6135
  130OSM    H4G13997   5.325   4.706   6.927 -0.6235  1.9832  1.3376
  130OSM    C5F13998   5.309   4.729   7.137 -0.9489  0.9940 -0.7403
  130OSM    H5F13999   5.242   4.641   7.149  2.0333 -1.3426 -0.0228
  130OSM    H5G14000   5.237   4.812   7.123 -0.9338  1.2206  0.4327
  130OSM    C6F14001   5.384   4.748   7.264 -0.2253 -0.2404 -0.0287
  130OSM    H6F14002   5.435   4.847   7.254 -1.2690  0.2372 -0.8851
  130OSM    H6G14003   5.467   4.674   7.271  0.3522  0.3982 -0.0227
  130OSM    C7F14004   5.303   4.724   7.393 -0.3297 -0.1470 -0.5133
  130OSM    H7F14005   5.270   4.617   7.398  1.0643 -0.6588 -1.5793
  130OSM    H7G14006   5.218   4.795   7.400  0.6547  0.9591  0.6498
  130OSM    C8F14007   5.391   4.738   7.520 -0.1874  0.0002 -0.0088
  130OSM    H8F14008   5.433   4.840   7.508  1.8744 -1.1206 -4.1457
  130OSM    H8G14009   5.468   4.657   7.518  0.4841  0.6190  0.1826
  130OSM    C9F14010   5.308   4.730   7.647  0.4039  0.5364  0.9071
  130OSM    H9F14011   5.249   4.820   7.669 -2.7272 -0.4623 -2.5369
  130OSM   C10F14012   5.279   4.620   7.726  0.4453 -0.3821 -0.3600
  130OSM   H10F14013   5.210   4.632   7.811 -1.0025  2.1993 -1.7687
  130OSM   C11F14014   5.340   4.487   7.694 -0.0286 -0.7344  0.4280
  130OSM   H11F14015   5.450   4.483   7.684 -0.1108 -1.6198 -0.2072
  130OSM   H11G14016   5.300   4.446   7.599 -0.6211 -1.3759  0.9452
  130OSM   C12F14017   5.306   4.379   7.798  0.1090 -0.0866  0.0408
  130OSM   H12F14018   5.315   4.282   7.744  0.4072 -0.6644  1.1017
  130OSM   H12G14019   5.202   4.396   7.833  0.4851  0.6759  0.8250
  130OSM   C13F14020   5.392   4.381   7.921  0.4209  0.1657 -0.5244
  130OSM   H13F14021   5.403   4.489   7.944 -1.0335  0.4950 -1.2841
  130OSM   H13G14022   5.493   4.337   7.905 -0.4793 -3.1475  1.7548
  130OSM   C14F14023   5.340   4.295   8.038 -0.0131 -0.4506 -0.5268
  130OSM   H14F14024   5.321   4.190   8.005 -0.4014 -0.3458 -0.6353
  130OSM   H14G14025   5.241   4.330   8.073 -0.7168 -0.6891 -2.2095
  130OSM   C15F14026   5.433   4.282   8.159  1.0286  0.4653  1.1352
  130OSM   H15F14027   5.446   4.385   8.198  0.7763  0.3772  1.4524
  130OSM   H15G14028   5.537   4.254   8.128  0.6093  1.0460 -0.9798
  130OSM   C16F14029   5.378   4.195   8.270 -0.3954  0.2186  0.1241
  130OSM   H16F14030   5.345   4.107   8.212  1.2251 -0.3898  0.0735
  130OSM   H16G14031   5.293   4.250   8.315 -1.0964 -0.9950  0.3250
  130OSM   C17F14032   5.479   4.168   8.379 -0.3596 -0.3896  0.2737
  130OSM   H17F14033   5.502   4.257   8.441 -3.9534 -0.5087  2.0162
  130OSM   H17G14034   5.571   4.124   8.333 -0.4268 -2.5602  2.0391
  130OSM   C18F14035   5.425   4.062   8.472  0.5169 -0.3033 -0.1673
  130OSM   H18F14036   5.394   3.962   8.433  0.5469 -0.4324  0.1403
  130OSM   H18G14037   5.333   4.103   8.519  0.2050 -0.6176 -0.4899
  130OSM   H18H14038   5.501   4.044   8.551 -0.8728 -0.7624  1.0985
  131OSM      N14039   4.334   0.994   5.892 -0.2353  0.2527  0.4166
  131OSM    C1514040   4.350   0.988   6.046 -1.3361 -0.6054  0.5127
  131OSM   H15A14041   4.255   0.987   6.097 -2.5105  1.2163 -1.4659
  131OSM   H15B14042   4.393   1.077   6.089 -3.4101  0.2265  0.9843
  131OSM   H15C14043   4.411   0.906   6.082 -2.1308 -0.8020  1.4429
  131OSM    C1414044   4.463   0.948   5.831 -0.5618 -0.7298  0.5816
  131OSM   H14A14045   4.465   0.943   5.723  2.0756 -0.1221  0.5308
  131OSM   H14B14046   4.490   0.851   5.870  0.8997 -0.6400 -0.1400
  131OSM   H14C14047   4.543   1.017   5.853  0.3688 -1.9043  0.9588
  131OSM    C1314048   4.217   0.907   5.859 -0.2212 -0.0653 -0.4298
  131OSM   H13A14049   4.231   0.811   5.906  2.3272  1.2881  1.8496
  131OSM   H13B14050   4.211   0.893   5.752  2.5584 -0.7364 -0.5800
  131OSM   H13C14051   4.129   0.946   5.908  1.4681  1.7242  1.3447
  131OSM    C1214052   4.305   1.141   5.853 -0.2589  0.7932  0.1577
  131OSM   H12A14053   4.209   1.173   5.891 -0.9914  0.6484 -1.4875
  131OSM   H12B14054   4.290   1.131   5.747  0.4487  0.3401  0.0898
  131OSM    C1114055   4.404   1.249   5.883 -0.1116  0.9350  0.5169
  131OSM   H11A14056   4.383   1.348   5.836 -1.6289 -0.4313 -1.9286
  131OSM   H11B14057   4.500   1.215   5.840 -0.3474  0.5372  0.3029
  131OSM      P14058   4.297   1.344   6.097 -0.2286  0.4197 -0.0358
  131OSM    O1314059   4.304   1.487   6.054 -0.0820  0.4049 -0.0591
  131OSM    O1414060   4.176   1.260   6.087  0.0441 -0.5038  0.2638
  131OSM    O1114061   4.349   1.330   6.242  0.1687 -0.3574 -0.0166
  131OSM    O1214062   4.414   1.266   6.024  0.2669  0.0101 -0.1298
  131OSM    C1S14063   4.444   1.420   6.303 -0.4092 -0.8906 -0.0951
  131OSM    H1S14064   4.489   1.493   6.233 -0.4136  0.0786  0.8722
  131OSM    H1T14065   4.533   1.367   6.343 -0.4878 -1.3281 -0.5007
  131OSM     NF14066   4.485   1.594   6.467  0.2877 -0.3333 -0.1177
  131OSM    HNF14067   4.552   1.554   6.528 -0.0366 -0.1336  0.3712
  131OSM    C2S14068   4.391   1.495   6.432  0.1763  0.1823 -0.3182
  131OSM    H2S14069   4.296   1.549   6.411  0.6499  1.4570  0.6560
  131OSM    C3S14070   4.360   1.391   6.547  0.0812  0.5569 -0.1089
  131OSM    H3S14071   4.459   1.347   6.570  0.3314  0.9261 -0.4722
  131OSM     O314072   4.276   1.288   6.505  0.2697  0.5705 -0.8803
  131OSM    HO314073   4.262   1.285   6.410 -1.1645 -5.0695 -0.8565
  131OSM    C4S14074   4.298   1.463   6.657 -0.2923 -0.6464  0.1454
  131OSM    H4S14075   4.192   1.485   6.638 -0.1588  0.3569  0.5439
  131OSM    C5S14076   4.356   1.505   6.767 -0.7270 -0.6448 -0.4286
  131OSM    H5S14077   4.458   1.471   6.794 -0.7930 -0.7346 -0.2948
  131OSM    C6S14078   4.290   1.580   6.868  0.1979  0.1887 -0.4768
  131OSM    H6S14079   4.191   1.616   6.832  0.2923 -0.6248 -1.6055
  131OSM    H6T14080   4.356   1.666   6.890  1.1631 -0.8144  0.6989
  131OSM    C7S14081   4.262   1.499   6.997  0.4626 -0.2721 -0.2563
  131OSM    H7S14082   4.211   1.404   6.972  1.2145 -0.7055 -0.1629
  131OSM    H7T14083   4.198   1.563   7.062 -0.1257 -0.4661 -0.6386
  131OSM    C8S14084   4.386   1.443   7.078  0.6076 -0.1813  0.6387
  131OSM    H8S14085   4.463   1.422   7.001  0.2925  2.6109 -0.5723
  131OSM    H8T14086   4.361   1.346   7.125  0.1943 -1.3427 -1.8450
  131OSM    C9S14087   4.437   1.521   7.200 -0.6017  0.0684  0.4769
  131OSM    H9S14088   4.476   1.620   7.169 -0.0613  0.0955  1.2293
  131OSM    H9T14089   4.528   1.471   7.239  1.2184  0.4009 -2.9990
  131OSM   C10S14090   4.329   1.543   7.310  0.2249  0.4114 -0.4148
  131OSM   H10S14091   4.255   1.461   7.295 -0.3070  1.2510 -2.8286
  131OSM   H10T14092   4.266   1.631   7.286 -1.3982 -0.6318 -0.1926
  131OSM   C11S14093   4.387   1.546   7.455 -0.8760 -0.8821  0.1961
  131OSM   H11S14094   4.465   1.624   7.468 -0.7566 -0.9686 -0.0063
  131OSM   H11T14095   4.440   1.450   7.472 -0.6427 -0.5953  1.1614
  131OSM   C12S14096   4.274   1.541   7.557 -0.0798 -0.0903 -0.8967
  131OSM   H12S14097   4.197   1.463   7.542 -0.2224 -0.1904  0.2767
  131OSM   H12T14098   4.218   1.637   7.557 -0.2016 -0.0089  2.6782
  131OSM   C13S14099   4.331   1.516   7.696 -0.0620 -0.6664 -0.7463
  131OSM   H13S14100   4.404   1.596   7.721 -0.1343 -1.8264  4.1381
  131OSM   H13T14101   4.391   1.423   7.685  0.6975 -0.3412  0.5065
  131OSM   C14S14102   4.228   1.516   7.808  0.3527  0.2955 -0.3101
  131OSM   H14S14103   4.148   1.440   7.796  0.1586  0.5212 -0.4258
  131OSM   H14T14104   4.169   1.610   7.810  0.1380  0.1483  0.6637
  131OSM   C15S14105   4.296   1.504   7.949  0.3401 -0.5168 -0.5057
  131OSM   H15S14106   4.379   1.575   7.969  0.1128 -0.8384  1.8566
  131OSM   H15T14107   4.310   1.394   7.942 -0.3539 -0.6505  0.1196
  131OSM   C16S14108   4.204   1.529   8.068 -0.7126 -0.5257 -0.4547
  131OSM   H16S14109   4.255   1.497   8.161 -1.3309  3.6651  1.5905
  131OSM   H16T14110   4.111   1.468   8.060 -1.2218 -0.1513  1.8785
  131OSM   C17S14111   4.144   1.670   8.091 -0.0044  0.0948 -0.0590
  131OSM   H17S14112   4.099   1.682   8.192  0.7353  0.3062  0.2495
  131OSM   H17T14113   4.063   1.682   8.016  0.4951  0.4965 -0.5302
  131OSM   C18S14114   4.228   1.790   8.085 -0.1332 -0.4944 -0.5958
  131OSM   H18S14115   4.318   1.783   8.150 -2.5117 -0.3748  3.0017
  131OSM   H18T14116   4.165   1.878   8.107  0.3248 -0.7823  2.3103
  131OSM   H18U14117   4.273   1.803   7.985 -0.4441 -0.2595 -0.7052
  131OSM    C1F14118   4.507   1.698   6.392  0.8876 -0.8972 -0.6183
  131OSM     OF14119   4.423   1.752   6.325  0.2931 -0.1871 -0.3260
  131OSM    C2F14120   4.648   1.753   6.398 -0.1837 -0.4940  0.2241
  131OSM    H2F14121   4.698   1.742   6.300  0.8269 -0.9946  0.7728
  131OSM    H2G14122   4.711   1.680   6.455 -1.0264 -0.5180  1.1492
  131OSM    C3F14123   4.663   1.896   6.465 -0.1761  0.3770 -0.1282
  131OSM    H3F14124   4.598   1.960   6.401 -0.6814 -0.6187 -0.6201
  131OSM    H3G14125   4.763   1.933   6.435 -0.1564 -0.0512 -0.5926
  131OSM    C4F14126   4.641   1.895   6.613  0.0466 -0.4260 -0.5739
  131OSM    H4F14127   4.700   1.817   6.666 -0.0890 -0.2585 -0.1706
  131OSM    H4G14128   4.532   1.875   6.623 -0.0039  0.0056 -0.2573
  131OSM    C5F14129   4.670   2.027   6.678  0.6482  0.5197  0.1843
  131OSM    H5F14130   4.605   2.099   6.625 -1.1418 -0.1459  1.3833
  131OSM    H5G14131   4.777   2.056   6.672  0.4388  1.4809  0.9609
  131OSM    C6F14132   4.636   2.044   6.826 -0.4859 -0.3724 -0.5623
  131OSM    H6F14133   4.679   2.143   6.854 -1.6956  0.0815 -0.2553
  131OSM    H6G14134   4.702   1.969   6.875 -3.1318 -1.0188  2.3481
  131OSM    C7F14135   4.495   2.030   6.878  0.2473  0.0938 -0.6600
  131OSM    H7F14136   4.447   1.935   6.848 -0.1094  0.1823 -0.3692
  131OSM    H7G14137   4.435   2.116   6.842 -1.5530  0.0946  2.0410
  131OSM    C8F14138   4.477   2.030   7.032 -0.5080 -0.1993 -0.3469
  131OSM    H8F14139   4.505   1.926   7.059  1.9048  0.2615 -0.8617
  131OSM    H8G14140   4.371   2.050   7.059 -0.1904 -1.8413  2.5508
  131OSM    C9F14141   4.561   2.130   7.099 -0.6014 -0.6181 -0.3625
  131OSM    H9F14142   4.581   2.216   7.034 -2.2433  0.5008  0.5194
  131OSM   C10F14143   4.599   2.120   7.227  0.1926 -0.6020  0.7345
  131OSM   H10F14144   4.655   2.204   7.272 -0.1879 -0.0873  0.2603
  131OSM   C11F14145   4.560   2.018   7.328 -0.1715 -0.2661 -0.2887
  131OSM   H11F14146   4.644   1.946   7.336 -1.4454 -2.0704 -2.1683
  131OSM   H11G14147   4.471   1.966   7.288 -0.6150  0.2035  0.0851
  131OSM   C12F14148   4.542   2.080   7.467  0.5239 -0.2046  0.0629
  131OSM   H12F14149   4.479   2.171   7.463 -2.5821 -2.1412  1.2949
  131OSM   H12G14150   4.641   2.098   7.512 -1.4905 -0.5767  5.3074
  131OSM   C13F14151   4.471   1.968   7.556  0.0701 -0.2926  0.0119
  131OSM   H13F14152   4.532   1.877   7.580  2.0219  0.7225 -0.8469
  131OSM   H13G14153   4.384   1.926   7.501  1.2985  1.2339 -3.3661
  131OSM   C14F14154   4.424   2.030   7.687 -0.7038  0.2901 -0.0304
  131OSM   H14F14155   4.354   1.962   7.741 -0.3814  0.2775  0.3686
  131OSM   H14G14156   4.357   2.115   7.662  0.9193  2.0598  1.4150
  131OSM   C15F14157   4.542   2.079   7.772  0.0904 -0.3606  0.0461
  131OSM   H15F14158   4.579   2.178   7.738  0.1317 -0.1351  0.7501
  131OSM   H15G14159   4.636   2.021   7.762 -0.6236 -1.3282 -1.5046
  131OSM   C16F14160   4.511   2.092   7.918  0.1087  0.0876 -0.5831
  131OSM   H16F14161   4.597   2.131   7.977  0.7982 -1.8629 -0.2456
  131OSM   H16G14162   4.495   1.987   7.951  0.6919 -0.0464 -0.7124
  131OSM   C17F14163   4.390   2.182   7.923 -0.2307  0.4910 -0.9107
  131OSM   H17F14164   4.303   2.144   7.865  0.7704 -1.2811 -1.3537
  131OSM   H17G14165   4.415   2.276   7.870 -0.8978  1.0577 -0.2328
  131OSM   C18F14166   4.358   2.224   8.065  0.2907  0.2479 -0.2566
  131OSM   H18F14167   4.304   2.142   8.117 -1.4168  1.6164  0.2304
  131OSM   H18G14168   4.279   2.302   8.069 -1.2518 -1.2953  1.3335
  131OSM   H18H14169   4.443   2.259   8.128 -0.1280  1.1596 -0.1697
  132OSM      N14170   5.505   4.158   6.138 -0.8121  0.5389  0.4019
  132OSM    C1514171   5.478   4.070   6.261  0.0169 -0.1801  0.2655
  132OSM   H15A14172   5.450   3.971   6.230 -2.8039  0.6857 -0.2374
  132OSM   H15B14173   5.392   4.107   6.316 -0.3178  0.4900 -0.6864
  132OSM   H15C14174   5.562   4.073   6.329  1.9541 -1.0425 -1.9895
  132OSM    C1414175   5.616   4.091   6.057  1.0592  0.0700 -0.4158
  132OSM   H14A14176   5.578   4.005   6.004 -2.7987  0.7064  0.9814
  132OSM   H14B14177   5.702   4.058   6.113  0.6734  1.9531  1.4032
  132OSM   H14C14178   5.657   4.166   5.992  0.6083  1.2763  0.6414
  132OSM    C1314179   5.376   4.159   6.056 -0.0926 -0.0144 -0.3180
  132OSM   H13A14180   5.359   4.056   6.030  3.1745 -0.9798  0.8860
  132OSM   H13B14181   5.382   4.221   5.967 -0.2426  1.5862  0.7354
  132OSM   H13C14182   5.283   4.183   6.106 -0.8855  0.4510 -1.9387
  132OSM    C1214183   5.538   4.292   6.185  0.2784 -1.2400  0.2942
  132OSM   H12A14184   5.551   4.352   6.096 -0.3313 -0.8317  0.4752
  132OSM   H12B14185   5.627   4.308   6.244 -0.1830  0.7314  0.5143
  132OSM    C1114186   5.419   4.372   6.255 -1.0632 -0.3942 -0.3534
  132OSM   H11A14187   5.456   4.454   6.320 -0.9205  0.0383 -0.9737
  132OSM   H11B14188   5.357   4.300   6.313 -0.8982 -0.2053  0.0657
  132OSM      P14189   5.195   4.470   6.156 -0.2036  0.2147 -0.2405
  132OSM    O1314190   5.171   4.594   6.081 -0.3165 -0.2960  0.3405
  132OSM    O1414191   5.113   4.352   6.117 -0.4615 -0.2459  0.0599
  132OSM    O1114192   5.169   4.504   6.302  0.0045  0.1609 -0.4351
  132OSM    O1214193   5.348   4.426   6.146 -0.1016 -0.5223 -0.9492
  132OSM    C1S14194   5.219   4.615   6.377  0.5965  0.0973  0.4159
  132OSM    H1S14195   5.188   4.702   6.316  1.5134 -1.0447 -1.8095
  132OSM    H1T14196   5.329   4.626   6.378  0.4535  1.8065  0.2539
  132OSM     NF14197   5.198   4.743   6.601 -1.2379  0.1936 -1.0586
  132OSM    HNF14198   5.285   4.751   6.649 -1.7682  0.6722 -0.1423
  132OSM    C2S14199   5.175   4.613   6.531 -0.1365 -0.8116  0.3893
  132OSM    H2S14200   5.066   4.596   6.544 -0.4793  1.6083  1.2526
  132OSM    C3S14201   5.239   4.494   6.605 -0.2823  0.8311 -0.3865
  132OSM    H3S14202   5.344   4.511   6.635 -0.6903  1.7080  0.6219
  132OSM     O314203   5.253   4.370   6.526  0.1816 -0.0148 -1.0955
  132OSM    HO314204   5.239   4.409   6.439 -1.8182 -1.0485 -1.2783
  132OSM    C4S14205   5.171   4.475   6.741  0.2712  0.6284 -0.5611
  132OSM    H4S14206   5.166   4.561   6.810  2.9281 -0.4458  1.1116
  132OSM    C5S14207   5.102   4.359   6.785 -0.0544 -0.1782 -0.2639
  132OSM    H5S14208   5.107   4.272   6.718  1.9661 -0.9941  0.8465
  132OSM    C6S14209   5.029   4.338   6.910  0.1319  0.1487 -0.3162
  132OSM    H6S14210   5.042   4.232   6.941 -0.0986  0.4670  0.9126
  132OSM    H6T14211   4.922   4.365   6.897  0.4191  1.3360 -0.3169
  132OSM    C7S14212   5.076   4.416   7.036 -0.2397  0.8388 -0.0423
  132OSM    H7S14213   5.071   4.525   7.016  1.9700  1.1860  0.9796
  132OSM    H7T14214   5.181   4.394   7.066 -0.9191  0.4405  2.2193
  132OSM    C8S14215   4.983   4.383   7.155  0.0380 -0.8589 -0.1087
  132OSM    H8S14216   4.984   4.275   7.180  4.2109 -1.4472 -1.9259
  132OSM    H8T14217   4.882   4.397   7.111  1.6048 -0.0239 -3.8710
  132OSM    C9S14218   4.985   4.480   7.282  0.8208 -0.2215 -0.2270
  132OSM    H9S14219   4.946   4.579   7.250 -1.1758 -0.8466  0.1390
  132OSM    H9T14220   5.093   4.480   7.306  0.3314 -0.1507  2.1682
  132OSM   C10S14221   4.914   4.423   7.410  0.4281  0.8791 -0.4300
  132OSM   H10S14222   4.962   4.329   7.444  1.1619  1.3001 -0.2681
  132OSM   H10T14223   4.805   4.414   7.390  0.5704 -0.9752 -0.4818
  132OSM   C11S14224   4.929   4.516   7.533  0.0973 -0.8506  0.5703
  132OSM   H11S14225   4.868   4.603   7.500  1.4306 -0.0501  0.1233
  132OSM   H11T14226   5.034   4.548   7.552 -0.1322 -0.0981  0.6246
  132OSM   C12S14227   4.871   4.469   7.663  0.3096 -0.0253 -0.3721
  132OSM   H12S14228   4.936   4.389   7.705  0.5606  1.1068  1.5310
  132OSM   H12T14229   4.768   4.429   7.650 -0.6725  2.3213 -0.3103
  132OSM   C13S14230   4.858   4.578   7.774  1.0001  0.1881  0.5885
  132OSM   H13S14231   4.817   4.670   7.727  1.0176 -0.7403 -1.3881
  132OSM   H13T14232   4.957   4.591   7.822  0.5495  1.5524  1.2097
  132OSM   C14S14233   4.764   4.526   7.881  0.1200  0.1143 -0.2248
  132OSM   H14S14234   4.786   4.421   7.910  0.0952  0.7783  2.4026
  132OSM   H14T14235   4.656   4.523   7.858  0.5386 -0.0636 -2.4561
  132OSM   C15S14236   4.754   4.618   8.007 -0.1082  0.4399 -0.2580
  132OSM   H15S14237   4.724   4.723   7.984 -2.2630 -0.0773  0.0350
  132OSM   H15T14238   4.855   4.616   8.054 -1.3523  1.3163  2.6434
  132OSM   C16S14239   4.651   4.578   8.110  0.2376 -0.5017  0.3620
  132OSM   H16S14240   4.666   4.638   8.203  0.1484 -0.1870  0.1769
  132OSM   H16T14241   4.674   4.476   8.148 -2.7701 -1.1223  0.8038
  132OSM   C17S14242   4.516   4.601   8.064  0.0496 -0.0480 -0.2878
  132OSM   H17S14243   4.483   4.522   7.993  0.0332  1.0112 -1.5070
  132OSM   H17T14244   4.506   4.698   8.009 -0.3894 -1.0747 -2.0968
  132OSM   C18S14245   4.414   4.608   8.177  0.2121 -0.0880 -0.3055
  132OSM   H18S14246   4.443   4.668   8.266  0.5464 -1.3810  0.4804
  132OSM   H18T14247   4.402   4.503   8.209  1.3997  0.0092  0.5366
  132OSM   H18U14248   4.321   4.652   8.135 -0.5136 -1.7983 -0.5621
  132OSM    C1F14249   5.135   4.856   6.567  0.6155  0.5213 -0.3885
  132OSM     OF14250   5.038   4.851   6.498  0.5538  0.4791  0.1601
  132OSM    C2F14251   5.182   4.989   6.616  0.3060 -0.4349 -0.6472
  132OSM    H2F14252   5.194   5.045   6.521  0.1887  0.8512  0.0576
  132OSM    H2G14253   5.281   4.996   6.667 -0.0234 -1.6449  0.1860
  132OSM    C3F14254   5.075   5.046   6.714  0.1688  0.2272  0.8882
  132OSM    H3F14255   4.977   5.050   6.662 -1.0956  0.9485  3.1640
  132OSM    H3G14256   5.103   5.152   6.736  3.3020 -0.5089  0.8672
  132OSM    C4F14257   5.051   4.962   6.846  0.6918  0.1856  0.4483
  132OSM    H4F14258   5.151   4.967   6.895  1.1108  0.3549 -0.4152
  132OSM    H4G14259   5.034   4.855   6.821 -0.0679  0.7302 -1.5008
  132OSM    C5F14260   4.944   5.017   6.937  0.5057  0.3347 -0.0611
  132OSM    H5F14261   4.847   5.009   6.883  0.8483  0.4707 -0.6981
  132OSM    H5G14262   4.982   5.119   6.959  0.3190  0.2088  0.8946
  132OSM    C6F14263   4.934   4.940   7.070  0.4572  0.1489  0.6574
  132OSM    H6F14264   5.041   4.930   7.100  1.1052  1.5187 -0.9977
  132OSM    H6G14265   4.881   4.845   7.051  1.3311 -0.2066 -0.0835
  132OSM    C7F14266   4.850   5.014   7.174 -0.4566 -0.0249  0.0170
  132OSM    H7F14267   4.767   5.060   7.117  0.2613 -0.5865 -1.5444
  132OSM    H7G14268   4.912   5.091   7.226 -0.8431 -0.3939  1.0376
  132OSM    C8F14269   4.802   4.915   7.278 -0.4483 -0.5099  0.1690
  132OSM    H8F14270   4.757   4.829   7.223  0.2667  0.2919 -1.7542
  132OSM    H8G14271   4.718   4.952   7.341 -0.2052 -0.3695  0.4099
  132OSM    C9F14272   4.925   4.862   7.357 -0.0629  0.4384  0.0318
  132OSM    H9F14273   4.979   4.784   7.301 -2.7052 -1.9215  0.4719
  132OSM   C10F14274   4.957   4.902   7.480 -0.0082  0.9049 -0.1422
  132OSM   H10F14275   5.049   4.864   7.527  0.2057  1.6745  0.0670
  132OSM   C11F14276   4.888   5.012   7.556 -0.0165 -0.0838  0.0426
  132OSM   H11F14277   4.819   5.069   7.490 -0.3798 -0.4961  0.0650
  132OSM   H11G14278   4.964   5.083   7.594 -0.2837 -0.4173  1.2781
  132OSM   C12F14279   4.819   4.951   7.676 -0.2336 -0.2456  0.8554
  132OSM   H12F14280   4.761   4.864   7.637  1.6093 -0.2746 -2.0989
  132OSM   H12G14281   4.745   5.024   7.716 -1.0605 -0.2711 -0.5440
  132OSM   C13F14282   4.918   4.926   7.801  0.1491  0.2605 -0.4829
  132OSM   H13F14283   4.982   4.838   7.778 -1.4231 -0.6163 -1.7675
  132OSM   H13G14284   4.848   4.908   7.886 -1.4086 -1.1700 -1.9731
  132OSM   C14F14285   4.993   5.044   7.851 -0.3798  0.2480 -0.1555
  132OSM   H14F14286   4.921   5.128   7.864  0.7461  0.9788  1.8378
  132OSM   H14G14287   5.075   5.069   7.780 -0.6960  1.5053 -0.1082
  132OSM   C15F14288   5.059   5.025   7.984  0.7060  0.2938  0.6147
  132OSM   H15F14289   5.125   4.935   7.981 -0.8562 -0.9136  1.4321
  132OSM   H15G14290   4.985   5.030   8.066 -3.0520  4.6429 -2.5152
  132OSM   C16F14291   5.157   5.134   8.020  0.2421 -0.7579  0.7539
  132OSM   H16F14292   5.100   5.229   8.016 -1.5418 -1.6686  2.5602
  132OSM   H16G14293   5.235   5.141   7.941 -0.6573  3.0215 -0.0061
  132OSM   C17F14294   5.216   5.125   8.155 -0.5560  0.0759 -0.0498
  132OSM   H17F14295   5.146   5.110   8.241  1.2623  0.0806  1.4850
  132OSM   H17G14296   5.254   5.228   8.168  0.4832 -0.5148  2.0545
  132OSM   C18F14297   5.334   5.026   8.163  0.4994 -0.1734 -0.1317
  132OSM   H18F14298   5.403   5.054   8.080  0.5475 -0.2822 -0.1287
  132OSM   H18G14299   5.310   4.920   8.143 -0.9314 -0.4290  2.5518
  132OSM   H18H14300   5.385   5.038   8.261 -1.4664  0.5253  0.8573
  133SAPE     N14301   4.994   6.611  10.650  0.1455 -0.4919  0.7676
  133SAPE   HN114302   4.903   6.597  10.698 -0.3362  0.6768  0.2361
  133SAPE   HN214303   4.990   6.549  10.566  0.2839 -1.2369  1.3034
  133SAPE   HN314304   5.072   6.578  10.710 -0.5839 -0.2094  1.8905
  133SAPE   C1214305   5.018   6.759  10.609  0.3284  0.0776 -0.4462
  133SAPE  H12A14306   4.990   6.821  10.697 -1.6627  0.2082 -1.1077
  133SAPE  H12B14307   4.933   6.771  10.538  0.7087 -3.3390 -1.7112
  133SAPE   C1114308   5.157   6.778  10.558  0.3471 -0.1801 -0.2387
  133SAPE  H11A14309   5.175   6.886  10.539 -1.9550  0.2294 -0.4321
  133SAPE  H11B14310   5.167   6.729  10.458 -1.8589  0.5419 -0.8802
  133SAPE     P14311   5.352   6.821  10.731  0.0114  0.3549 -0.2295
  133SAPE   O1314312   5.273   6.925  10.799 -0.6888  0.0076 -0.1975
  133SAPE   O1414313   5.433   6.722  10.810  0.1456  0.0280  0.0870
  133SAPE   O1214314   5.260   6.731  10.651 -0.4383 -0.0803  0.0542
  133SAPE   O1114315   5.440   6.885  10.612  0.1551  0.0712  0.0479
  133SAPE    C114316   5.560   6.828  10.572 -0.2372  0.4966 -0.2225
  133SAPE    HA14317   5.620   6.907  10.523 -1.5534 -0.2931 -3.3647
  133SAPE    HB14318   5.621   6.798  10.660  1.6668  0.0146 -1.6578
  133SAPE    C214319   5.551   6.713  10.466  0.0898  0.1471 -0.1683
  133SAPE    HS14320   5.500   6.625  10.510  2.2044 -1.0805 -0.0564
  133SAPE   O2114321   5.686   6.686  10.434 -0.5173 -0.4327  0.2485
  133SAPE   C2114322   5.762   6.606  10.514 -0.2423  0.9877  0.3342
  133SAPE   O2214323   5.724   6.554  10.618  0.7711  0.3534  1.2587
  133SAPE   C2214324   5.901   6.579  10.457 -0.2435  0.6243 -0.0801
  133SAPE   H2R14325   5.966   6.649  10.514  0.1147  0.2696 -0.0453
  133SAPE   H2S14326   5.927   6.475  10.487 -1.9434  0.3490  0.5276
  133SAPE    C314327   5.481   6.750  10.336  0.4737 -0.4737  0.1419
  133SAPE    HX14328   5.370   6.752  10.348  0.6120  0.3906  1.4391
  133SAPE    HY14329   5.501   6.666  10.266  0.3983 -1.2291  1.0028
  133SAPE   O3114330   5.535   6.870  10.286  0.5032 -0.1593  0.5769
  133SAPE   C3114331   5.470   6.917  10.184 -0.1886  0.5622  0.6471
  133SAPE   O3214332   5.362   6.877  10.138  0.1925 -0.2637 -0.0241
  133SAPE   C3214333   5.562   7.022  10.122 -0.0886  0.3439 -0.1823
  133SAPE   H2X14334   5.666   6.988  10.105 -0.6510 -0.5312 -2.2350
  133SAPE   H2Y14335   5.554   7.111  10.188 -2.5391  0.9830 -1.2051
  133SAPE   C2314336   5.913   6.596  10.306 -0.1776 -0.7012 -0.0007
  133SAPE   H3R14337   6.012   6.645  10.300 -0.4095 -0.3478 -1.2144
  133SAPE   H3S14338   5.842   6.674  10.271 -1.8700 -0.2171  3.9005
  133SAPE   C2414339   5.908   6.469  10.216 -0.6235 -0.4788  0.1663
  133SAPE   H4R14340   5.971   6.395  10.270  1.1206  0.4365 -0.5143
  133SAPE   H4S14341   5.958   6.488  10.119  0.0732 -1.8811  0.2294
  133SAPE   C2514342   5.767   6.421  10.199 -0.7693  0.6615 -0.2988
  133SAPE   H5R14343   5.724   6.343  10.262 -3.6647 -0.1470 -3.0526
  133SAPE   C2614344   5.694   6.467  10.092  0.5403  0.4722 -0.1033
  133SAPE   H6R14345   5.593   6.429  10.069 -0.0953  1.7749  0.4330
  133SAPE   C2714346   5.736   6.573   9.994  0.0644 -0.5042 -0.1621
  133SAPE   H7R14347   5.780   6.511   9.912 -0.4682 -1.3015  0.1420
  133SAPE   H7S14348   5.820   6.632  10.036 -0.7660  1.1284 -0.7197
  133SAPE   C2814349   5.639   6.665   9.923  0.2094  0.0468  0.9054
  133SAPE   H8R14350   5.569   6.720   9.988  0.0910  3.0306 -1.5238
  133SAPE   C2914351   5.631   6.695   9.792 -0.4933 -0.1074 -0.0600
  133SAPE   H9R14352   5.544   6.746   9.748  0.7723  1.2631 -1.0883
  133SAPE  C21014353   5.724   6.637   9.686 -0.3376 -0.4364  0.2962
  133SAPE  H10R14354   5.669   6.569   9.618  2.1923 -2.0784 -0.2674
  133SAPE  H10S14355   5.801   6.565   9.722  0.5689 -0.1489 -1.0059
  133SAPE  C21114356   5.781   6.748   9.601 -0.0488 -0.0681 -0.1423
  133SAPE  H11R14357   5.880   6.782   9.635 -0.8452  1.0044  1.2049
  133SAPE  C21214358   5.723   6.804   9.493 -0.4330  0.2650 -0.3048
  133SAPE  H12R14359   5.774   6.872   9.424 -2.5797  1.3232 -0.9622
  133SAPE  C21314360   5.595   6.764   9.426  0.1120  0.2907  0.4484
  133SAPE  H13R14361   5.559   6.662   9.454  1.1704 -0.1828  0.1431
  133SAPE  H13S14362   5.615   6.762   9.317 -0.3434 -0.3665  0.3703
  133SAPE  C21414363   5.488   6.863   9.461  0.0601 -0.1777  0.1515
  133SAPE  H14R14364   5.458   6.853   9.566  0.6224  0.9946  0.4305
  133SAPE  C21514365   5.429   6.951   9.377 -0.0823 -0.8043  0.0038
  133SAPE  H15R14366   5.347   7.009   9.421 -1.1078 -2.4551  0.3773
  133SAPE  C21614367   5.442   6.977   9.233  0.3523 -0.1485 -0.4057
  133SAPE  H16R14368   5.348   6.947   9.182 -0.0836  0.7433 -0.1344
  133SAPE  H16S14369   5.524   6.917   9.187  0.5811  0.4134 -0.7425
  133SAPE  C21714370   5.477   7.115   9.184 -0.7267  0.4083  0.4983
  133SAPE  H17R14371   5.585   7.124   9.209  0.8939 -4.6730 -3.1869
  133SAPE  H17S14372   5.410   7.188   9.235 -0.6991  0.9810 -0.2668
  133SAPE  C21814373   5.465   7.136   9.038 -0.1807 -0.2450 -0.0829
  133SAPE  H18R14374   5.357   7.124   9.015 -0.9486  1.0726  2.4365
  133SAPE  H18S14375   5.519   7.050   8.992  1.0395  0.2114  0.4533
  133SAPE  C21914376   5.518   7.273   8.989  0.1921 -0.8663  0.1605
  133SAPE  H19R14377   5.624   7.276   9.023  0.2966 -3.1515  0.1992
  133SAPE  H19S14378   5.464   7.357   9.038 -0.3038 -2.3561  2.2923
  133SAPE  C22014379   5.511   7.280   8.838 -0.3292 -0.5491  0.1728
  133SAPE  H20R14380   5.544   7.191   8.782  1.3712  0.1614  0.0061
  133SAPE  H20S14381   5.572   7.369   8.810 -1.4104 -0.2054 -1.2141
  133SAPE  H20T14382   5.407   7.293   8.801  0.2940 -3.4950 -3.0196
  133SAPE   C3314383   5.517   7.048   9.975  0.1661 -0.1388 -0.3537
  133SAPE   H3X14384   5.414   7.089   9.971  0.7361  1.2716 -1.3256
  133SAPE   H3Y14385   5.489   6.947   9.939 -3.3027  0.2404  0.8098
  133SAPE   C3414386   5.613   7.131   9.885  0.2346 -0.1740  0.0391
  133SAPE   H4X14387   5.709   7.077   9.896  0.4230  0.0053 -0.7322
  133SAPE   H4Y14388   5.609   7.233   9.929 -0.9548 -0.2339  0.1159
  133SAPE   C3514389   5.562   7.142   9.741 -0.1017 -0.7341  0.0961
  133SAPE   H5X14390   5.545   7.040   9.700  0.8256 -2.2354  3.1368
  133SAPE   H5Y14391   5.645   7.187   9.683  0.2328  1.4599  2.1263
  133SAPE   C3614392   5.442   7.240   9.729 -0.0717  0.2795 -0.0765
  133SAPE   H6X14393   5.454   7.324   9.800 -2.1851 -1.6328  2.7937
  133SAPE   H6Y14394   5.352   7.188   9.770  0.9021 -1.1482  0.3600
  133SAPE   C3714395   5.416   7.274   9.581  0.0437  0.5213  0.2493
  133SAPE   H7X14396   5.363   7.184   9.541  1.5448 -0.9065  1.3435
  133SAPE   H7Y14397   5.512   7.286   9.527  0.5774  2.9723  1.6196
  133SAPE   C3814398   5.328   7.393   9.563 -0.2761 -0.3815 -0.2864
  133SAPE   H8X14399   5.376   7.476   9.619 -0.0637 -0.9824  0.4472
  133SAPE   H8Y14400   5.237   7.373   9.624  0.3752 -1.3205  0.4202
  133SAPE   C3914401   5.301   7.432   9.418 -0.1515 -0.3041  1.0618
  133SAPE   H9X14402   5.230   7.363   9.368 -0.9519  1.1903  0.0407
  133SAPE   H9Y14403   5.397   7.437   9.362 -0.3216  0.8039  0.8356
  133SAPE  C31014404   5.228   7.576   9.422 -0.4015  0.6887  0.5799
  133SAPE  H10X14405   5.305   7.651   9.449 -0.0698  0.0078  1.5749
  133SAPE  H10Y14406   5.145   7.570   9.495 -0.5706 -0.9068  0.3033
  133SAPE  C31114407   5.163   7.630   9.294 -0.4061 -0.1707  0.1897
  133SAPE  H11X14408   5.115   7.728   9.314  0.9215  0.8618 -1.3932
  133SAPE  H11Y14409   5.092   7.554   9.254  0.2194  0.2211 -1.7712
  133SAPE  C31214410   5.272   7.650   9.183  0.3440 -0.2855 -0.2188
  133SAPE  H12X14411   5.326   7.554   9.167 -0.6026 -0.8182 -0.3186
  133SAPE  H12Y14412   5.340   7.720   9.236 -0.6111  2.0635 -1.9006
  133SAPE  C31314413   5.224   7.714   9.052  0.0851  0.1020  0.4313
  133SAPE  H13X14414   5.156   7.797   9.082 -0.4799 -0.4594  0.7256
  133SAPE  H13Y14415   5.165   7.639   8.997  1.8499 -1.9739  1.2273
  133SAPE  C31414416   5.344   7.760   8.965 -0.8882  0.1859 -0.5645
  133SAPE  H14X14417   5.421   7.681   8.953  1.1225  1.7272  1.1901
  133SAPE  H14Y14418   5.397   7.841   9.021  0.9647 -0.4945 -1.2819
  133SAPE  C31514419   5.302   7.790   8.820  0.8499 -0.8135 -0.3246
  133SAPE  H15X14420   5.236   7.716   8.770 -0.4539  0.8194 -1.1380
  133SAPE  H15Y14421   5.389   7.796   8.750  0.2974 -1.2624 -1.0730
  133SAPE  C31614422   5.220   7.924   8.806  0.1045  0.5321 -0.8220
  133SAPE  H16X14423   5.265   8.009   8.861 -0.7876  0.3147  0.2639
  133SAPE  H16Y14424   5.126   7.897   8.858  1.3320  2.1867  2.5611
  133SAPE  C31714425   5.201   7.962   8.665 -0.6444  1.0108  0.4844
  133SAPE  H17X14426   5.156   7.879   8.607  1.3313  0.2345 -0.0308
  133SAPE  H17Y14427   5.305   7.972   8.627 -0.2215 -1.2560  0.9223
  133SAPE  C31814428   5.137   8.095   8.634  0.5418  0.6244  0.6908
  133SAPE  H18X14429   5.153   8.110   8.525 -0.2100 -2.8185 -0.0090
  133SAPE  H18Y14430   5.200   8.168   8.689  0.3492 -0.0375  1.8276
  133SAPE  H18Z14431   5.030   8.104   8.660 -0.1718 -0.1470 -1.6883
  134SAPE     N14432   3.407   5.085  10.498  0.9099 -0.3264 -0.4372
  134SAPE   HN114433   3.378   5.107  10.595 -0.2524  0.8566 -1.0157
  134SAPE   HN214434   3.510   5.081  10.495  0.8989 -0.0821 -1.3641
  134SAPE   HN314435   3.359   5.160  10.445 -0.8968  1.0688  2.8552
  134SAPE   C1214436   3.350   4.947  10.476 -0.6718 -0.0591 -0.0032
  134SAPE  H12A14437   3.397   4.869  10.539  0.0787  0.8588  0.6000
  134SAPE  H12B14438   3.379   4.932  10.371 -0.5650  0.1663 -0.0054
  134SAPE   C1114439   3.196   4.945  10.490 -0.1252  0.0008  0.3710
  134SAPE  H11A14440   3.154   4.845  10.465 -1.7029  0.5811  0.5918
  134SAPE  H11B14441   3.154   5.014  10.414  0.5622 -2.9720 -2.9902
  134SAPE     P14442   3.016   4.952  10.681 -0.2625  0.1197 -0.2854
  134SAPE   O1314443   3.054   4.843  10.775 -0.3350  0.1457  0.2346
  134SAPE   O1414444   2.939   5.065  10.738  0.2702  0.4641 -0.2098
  134SAPE   O1214445   3.150   5.001  10.607 -0.2454  0.4540  0.1372
  134SAPE   O1114446   2.928   4.894  10.573  0.0162  0.3386 -0.1918
  134SAPE    C114447   2.804   4.826  10.583  0.4532  0.3065 -0.1054
  134SAPE    HA14448   2.798   4.747  10.660 -0.5338 -0.6518 -1.1410
  134SAPE    HB14449   2.725   4.899  10.611  0.2434 -0.5788  1.7131
  134SAPE    C214450   2.770   4.749  10.456 -0.0342 -0.2248 -0.5646
  134SAPE    HS14451   2.820   4.649  10.455  3.0952  1.1899  1.1147
  134SAPE   O2114452   2.799   4.821  10.335 -0.3391  0.0407  0.2013
  134SAPE   C2114453   2.929   4.787  10.291  0.8626  0.3558 -0.5391
  134SAPE   O2214454   2.993   4.693  10.329  0.2294 -0.0281 -0.2033
  134SAPE   C2214455   2.966   4.883  10.179 -0.0499  0.9230 -0.9734
  134SAPE   H2R14456   2.888   4.869  10.102  1.5730  0.9647 -2.7101
  134SAPE   H2S14457   2.967   4.988  10.217  2.8976  1.2876 -1.7729
  134SAPE    C314458   2.618   4.715  10.442  0.2056 -0.2612 -0.1706
  134SAPE    HX14459   2.560   4.804  10.412  2.8063  1.7944  0.5448
  134SAPE    HY14460   2.590   4.674  10.542  1.5898  0.4697  0.5459
  134SAPE   O3114461   2.600   4.601  10.347  0.1953 -0.6708 -0.9126
  134SAPE   C3114462   2.467   4.584  10.324 -0.3748 -0.7156  0.5506
  134SAPE   O3214463   2.384   4.651  10.384  0.3117 -0.0054 -0.6188
  134SAPE   C3214464   2.460   4.464  10.226  0.0186  0.2505  0.7103
  134SAPE   H2X14465   2.370   4.403  10.246  1.7898 -2.6046  0.5753
  134SAPE   H2Y14466   2.544   4.393  10.240 -0.7729 -0.9299 -0.2880
  134SAPE   C2314467   3.103   4.848  10.101 -0.2989 -0.1960  0.2182
  134SAPE   H3R14468   3.105   4.741  10.070 -0.9880 -0.7289  1.8836
  134SAPE   H3S14469   3.195   4.851  10.163  0.5239 -0.5162 -0.9619
  134SAPE   C2414470   3.124   4.949   9.986 -0.2915 -0.1503  0.3440
  134SAPE   H4R14471   3.114   5.050  10.033  2.1444 -0.2817  1.2993
  134SAPE   H4S14472   3.040   4.943   9.913  0.2233 -1.8140 -0.1604
  134SAPE   C2514473   3.262   4.943   9.922 -0.6236  0.1880  0.6683
  134SAPE   H5R14474   3.346   4.920   9.989 -1.4788 -0.6033  1.4918
  134SAPE   C2614475   3.280   4.975   9.791 -0.6830  0.3680 -0.1449
  134SAPE   H6R14476   3.381   4.965   9.749 -0.0339 -1.0295  1.6248
  134SAPE   C2714477   3.189   5.017   9.684  0.8748 -0.1471  0.4323
  134SAPE   H7R14478   3.143   5.110   9.722 -0.2334 -1.6983  3.1917
  134SAPE   H7S14479   3.101   4.951   9.672 -0.1260  0.9993  1.2804
  134SAPE   C2814480   3.255   5.047   9.543 -0.1057  0.4637  0.0197
  134SAPE   H8R14481   3.345   5.111   9.549  1.9104 -1.8256 -2.9078
  134SAPE   C2914482   3.216   5.006   9.420 -0.6896 -0.7911 -0.1724
  134SAPE   H9R14483   3.285   5.026   9.337  0.5888 -0.5589  0.9154
  134SAPE  C21014484   3.108   4.920   9.386  0.5188 -0.5108  0.0205
  134SAPE  H10R14485   3.045   4.896   9.474  0.4795 -1.1427 -0.1708
  134SAPE  H10S14486   3.138   4.825   9.337  0.6852 -0.3900 -0.1146
  134SAPE  C21114487   3.012   4.989   9.285  0.1079 -0.1307 -0.3443
  134SAPE  H11R14488   2.948   5.067   9.330  1.5235  0.6846  0.3216
  134SAPE  C21214489   3.032   5.003   9.151  0.3225  0.5219 -0.1058
  134SAPE  H12R14490   2.946   5.047   9.099 -0.7061 -0.3007  0.8457
  134SAPE  C21314491   3.142   4.945   9.067  0.7195  0.3869  0.1070
  134SAPE  H13R14492   3.091   4.870   9.002  2.1492 -0.9587  0.4609
  134SAPE  H13S14493   3.218   4.888   9.125 -0.3031 -1.6341 -0.4590
  134SAPE  C21414494   3.186   5.049   8.963 -0.3091 -0.0526  0.8578
  134SAPE  H14R14495   3.264   5.113   9.005  0.7960  0.0203 -1.2113
  134SAPE  C21514496   3.138   5.083   8.847  0.5083 -0.1549  0.5293
  134SAPE  H15R14497   3.187   5.162   8.789  0.6533 -0.7642 -0.1856
  134SAPE  C21614498   3.017   5.024   8.774 -0.6473 -0.2585  0.0191
  134SAPE  H16R14499   3.002   4.919   8.807  1.9773 -0.2265  1.6212
  134SAPE  H16S14500   3.031   5.004   8.665 -1.9945 -0.1072 -0.1936
  134SAPE  C21714501   2.880   5.089   8.797 -0.6826  0.0533 -0.2516
  134SAPE  H17R14502   2.859   5.152   8.708 -0.9214  0.0373 -0.2070
  134SAPE  H17S14503   2.880   5.163   8.881 -0.1485  0.2117 -0.3900
  134SAPE  C21814504   2.764   4.995   8.828 -0.0205 -0.0530 -0.6309
  134SAPE  H18R14505   2.799   4.942   8.919 -0.2985 -1.0440 -1.0786
  134SAPE  H18S14506   2.758   4.921   8.744  1.6643  0.0614 -0.8857
  134SAPE  C21914507   2.625   5.064   8.851 -0.0081  0.6225 -0.0731
  134SAPE  H19R14508   2.661   5.169   8.861 -1.0038  0.9107  0.7556
  134SAPE  H19S14509   2.579   5.044   8.951 -0.9568  3.0107  0.0406
  134SAPE  C22014510   2.521   5.046   8.743 -0.7008 -0.3062  1.0870
  134SAPE  H20R14511   2.431   5.098   8.783 -1.8216 -0.1923 -1.3775
  134SAPE  H20S14512   2.504   4.938   8.723  0.5945 -0.6729  1.8820
  134SAPE  H20T14513   2.548   5.097   8.648 -1.8991  1.2381  1.5268
  134SAPE   C3314514   2.471   4.523  10.082  0.0987 -0.1915 -0.5166
  134SAPE   H3X14515   2.386   4.593  10.065  0.6927  0.9797  1.0576
  134SAPE   H3Y14516   2.443   4.438  10.016 -1.7661 -0.6365  0.7875
  134SAPE   C3414517   2.613   4.561  10.051 -0.3194 -0.1418  0.1048
  134SAPE   H4X14518   2.690   4.507  10.110 -0.2057 -0.1148 -0.0194
  134SAPE   H4Y14519   2.626   4.669  10.074  1.5380  0.1317 -1.9081
  134SAPE   C3514520   2.654   4.548   9.906  0.2374  0.0260 -0.2189
  134SAPE   H5X14521   2.644   4.441   9.877 -0.7903 -0.3651  1.4615
  134SAPE   H5Y14522   2.763   4.570   9.898  0.2280  0.7175  1.2468
  134SAPE   C3614523   2.568   4.633   9.805  0.3572 -0.0014  0.3364
  134SAPE   H6X14524   2.558   4.741   9.832 -0.5694  0.1987 -0.7057
  134SAPE   H6Y14525   2.466   4.589   9.808  0.6254 -0.5797  1.1937
  134SAPE   C3714526   2.605   4.616   9.662  0.2571 -0.2984 -0.0394
  134SAPE   H7X14527   2.661   4.523   9.640  2.0421  0.3290  1.5618
  134SAPE   H7Y14528   2.670   4.703   9.636  0.5734 -0.8956 -1.2900
  134SAPE   C3814529   2.486   4.620   9.562 -0.3232 -0.3680  0.3724
  134SAPE   H8X14530   2.443   4.721   9.578 -2.3169 -0.7427 -1.9715
  134SAPE   H8Y14531   2.408   4.542   9.578 -1.8720  0.1214 -3.6216
  134SAPE   C3914532   2.531   4.596   9.420 -0.2113 -0.3238  0.4898
  134SAPE   H9X14533   2.583   4.498   9.408 -0.1895 -0.3716  0.9799
  134SAPE   H9Y14534   2.606   4.675   9.397  0.8239 -0.5630  2.7571
  134SAPE  C31014535   2.408   4.596   9.334  0.8753 -0.1040 -0.0804
  134SAPE  H10X14536   2.350   4.680   9.377  0.6908 -0.3358  0.1310
  134SAPE  H10Y14537   2.345   4.507   9.357 -0.7771  1.1995  0.7049
  134SAPE  C31114538   2.429   4.621   9.192 -0.0531  0.1759 -0.3285
  134SAPE  H11X14539   2.446   4.517   9.159 -3.3778 -0.8511  0.8100
  134SAPE  H11Y14540   2.521   4.680   9.172 -0.5846  0.6370 -1.4956
  134SAPE  C31214541   2.307   4.663   9.119  0.2879 -0.4996 -0.9682
  134SAPE  H12X14542   2.275   4.755   9.172 -0.3764 -2.1986  1.7757
  134SAPE  H12Y14543   2.223   4.596   9.146 -0.7814  0.2089 -2.3678
  134SAPE  C31314544   2.329   4.682   8.968  0.5510  0.1015  0.4320
  134SAPE  H13X14545   2.350   4.583   8.923  0.4657 -0.5839  1.8673
  134SAPE  H13Y14546   2.418   4.749   8.964  0.3076  0.3887 -0.4358
  134SAPE  C31414547   2.202   4.750   8.897 -0.5053 -0.1135 -0.3338
  134SAPE  H14X14548   2.173   4.850   8.936  3.1017  1.1687 -0.5888
  134SAPE  H14Y14549   2.119   4.677   8.883 -0.2294 -0.2307 -1.4853
  134SAPE  C31514550   2.245   4.797   8.751  1.0989 -0.0848 -1.1397
  134SAPE  H15X14551   2.246   4.699   8.699 -0.1949 -0.4895 -0.4412
  134SAPE  H15Y14552   2.351   4.830   8.758  0.8617  0.4502  0.2512
  134SAPE  C31614553   2.147   4.891   8.686  0.6148  1.0652 -0.7245
  134SAPE  H16X14554   2.126   4.974   8.757  2.9921  0.6769  0.5512
  134SAPE  H16Y14555   2.045   4.848   8.681  1.0812 -0.4304  1.1804
  134SAPE  C31714556   2.186   4.940   8.547 -0.1514  0.3690  1.1942
  134SAPE  H17X14557   2.203   4.849   8.486  0.5555 -0.7189  2.9275
  134SAPE  H17Y14558   2.289   4.978   8.563  1.3760 -2.3768 -1.1339
  134SAPE  C31814559   2.100   5.048   8.481  0.6271 -0.4309  0.1748
  134SAPE  H18X14560   2.143   5.103   8.394 -1.2527  3.1133  1.2762
  134SAPE  H18Y14561   2.085   5.130   8.555  1.7040 -0.3215  0.2857
  134SAPE  H18Z14562   2.001   5.006   8.453  0.4270  0.6309 -0.8055
  135SAPE     N14563   1.287   2.729  10.624 -0.1660 -0.2051  0.3497
  135SAPE   HN114564   1.221   2.806  10.603 -0.5789 -0.7187 -0.2678
  135SAPE   HN214565   1.331   2.753  10.716 -3.9744  0.6201  2.1295
  135SAPE   HN314566   1.351   2.721  10.542 -0.8348  0.1972 -0.2145
  135SAPE   C1214567   1.209   2.600  10.630 -0.1822 -1.0071  0.0660
  135SAPE  H12A14568   1.143   2.603  10.719  1.1783  1.5305  1.0998
  135SAPE  H12B14569   1.289   2.522  10.627  2.9280  1.9200  0.1574
  135SAPE   C1114570   1.121   2.581  10.507  0.3437 -0.1359 -0.4677
  135SAPE  H11A14571   1.060   2.489  10.519  0.6404 -0.1261  1.3546
  135SAPE  H11B14572   1.184   2.560  10.418 -1.6626 -0.6933 -1.8352
  135SAPE     P14573   0.918   2.695  10.395 -0.6795 -0.3754 -0.4882
  135SAPE   O1314574   0.883   2.559  10.361 -0.2098  0.2316 -0.2800
  135SAPE   O1414575   0.813   2.781  10.452  0.4292 -0.0609 -0.6472
  135SAPE   O1214576   1.042   2.698  10.488  0.4557 -0.1653  0.5123
  135SAPE   O1114577   0.959   2.758  10.264 -0.2054 -0.4787  0.0930
  135SAPE    C114578   1.057   2.860  10.268 -0.4004  0.0416  0.3041
  135SAPE    HA14579   1.142   2.825  10.331  0.3917 -1.1228 -1.3213
  135SAPE    HB14580   1.099   2.867  10.165  0.7471  0.3090  0.7713
  135SAPE    C214581   1.005   2.995  10.315  0.3466  0.2152  0.0029
  135SAPE    HS14582   0.975   2.985  10.421 -0.6424 -0.2098 -0.3079
  135SAPE   O2114583   0.884   3.024  10.237 -0.2830  0.1608  0.4786
  135SAPE   C2114584   0.800   3.108  10.291  0.3144  0.0158 -0.2445
  135SAPE   O2214585   0.815   3.165  10.395  0.0382 -0.3793 -0.2195
  135SAPE   C2214586   0.689   3.128  10.199  0.5514 -0.4099 -0.4122
  135SAPE   H2R14587   0.684   3.230  10.155  0.7428 -0.5004 -0.6477
  135SAPE   H2S14588   0.698   3.058  10.112 -1.5444  1.4566 -2.2512
  135SAPE    C314589   1.113   3.118  10.326 -0.2357 -0.0037 -0.2872
  135SAPE    HX14590   1.187   3.072  10.395 -1.1254 -1.2504 -0.1214
  135SAPE    HY14591   1.059   3.200  10.377 -0.7493 -0.7961  0.4837
  135SAPE   O3114592   1.172   3.150  10.194  0.4019 -0.4148 -0.2386
  135SAPE   C3114593   1.277   3.083  10.156 -0.2964 -1.2874 -0.1593
  135SAPE   O3214594   1.327   2.987  10.212 -0.2545  0.2277 -0.5108
  135SAPE   C3214595   1.330   3.134  10.020 -0.1960  0.1827 -0.7387
  135SAPE   H2X14596   1.320   3.244  10.014  0.1002  0.2563 -0.0571
  135SAPE   H2Y14597   1.270   3.079   9.945 -0.2423  0.1259 -0.6602
  135SAPE   C2314598   0.555   3.096  10.267  0.8554  0.3935  0.5739
  135SAPE   H3R14599   0.530   3.175  10.341  0.6044 -1.8613  3.0433
  135SAPE   H3S14600   0.576   3.001  10.320  0.9404 -0.2709 -0.6204
  135SAPE   C2414601   0.440   3.068  10.170  0.0488  1.1192 -0.3078
  135SAPE   H4R14602   0.368   2.999  10.219  0.9777 -0.4465 -1.0622
  135SAPE   H4S14603   0.475   3.001  10.088  0.3254 -0.9315  1.4170
  135SAPE   C2514604   0.369   3.188  10.121  0.3916 -0.2098 -0.0185
  135SAPE   H5R14605   0.349   3.270  10.191 -2.3600  0.4491 -1.4512
  135SAPE   C2614606   0.349   3.216   9.990  0.6452  0.5898 -0.1663
  135SAPE   H6R14607   0.295   3.310   9.972  0.7001  0.2845 -2.0894
  135SAPE   C2714608   0.370   3.134   9.867 -0.4705  0.0190 -0.2380
  135SAPE   H7R14609   0.298   3.167   9.789  0.4435  1.5422 -0.4803
  135SAPE   H7S14610   0.326   3.032   9.875 -0.5989 -0.0563 -1.6350
  135SAPE   C2814611   0.508   3.121   9.809 -0.0682 -0.3378 -0.8691
  135SAPE   H8R14612   0.581   3.049   9.849  1.2006  0.4906 -1.6148
  135SAPE   C2914613   0.557   3.193   9.709 -0.6615 -0.1024 -0.1238
  135SAPE   H9R14614   0.660   3.176   9.675  0.0442 -0.9809  2.2793
  135SAPE  C21014615   0.476   3.302   9.636  0.2837  0.4842  0.1699
  135SAPE  H10R14616   0.519   3.400   9.668 -1.8938  1.3757  0.5236
  135SAPE  H10S14617   0.369   3.304   9.666  0.0890 -3.9505  0.3315
  135SAPE  C21114618   0.495   3.285   9.487 -0.6782  0.1803  0.3794
  135SAPE  H11R14619   0.434   3.207   9.440 -0.4486 -0.5836  1.2977
  135SAPE  C21214620   0.579   3.356   9.407  0.4730 -0.0713  0.3710
  135SAPE  H12R14621   0.587   3.338   9.299 -0.8045  0.2636  0.2029
  135SAPE  C21314622   0.662   3.478   9.463 -0.1987 -1.2038  0.7982
  135SAPE  H13R14623   0.723   3.433   9.545 -0.3726 -0.4444  1.3586
  135SAPE  H13S14624   0.592   3.550   9.512 -0.7290  0.3598 -2.0775
  135SAPE  C21414625   0.743   3.558   9.366  0.1205 -0.2322  0.2922
  135SAPE  H14R14626   0.700   3.658   9.346  0.9459 -0.1430 -1.1614
  135SAPE  C21514627   0.869   3.536   9.330 -0.1678  0.1936  0.2757
  135SAPE  H15R14628   0.920   3.612   9.269  3.0373 -1.3351  0.8327
  135SAPE  C21614629   0.955   3.419   9.375 -0.0957  0.0554  0.1338
  135SAPE  H16R14630   0.907   3.364   9.459 -3.0977  1.4706 -0.4895
  135SAPE  H16S14631   1.054   3.447   9.417 -0.0769 -1.3340  1.0890
  135SAPE  C21714632   0.989   3.314   9.269  0.4288 -0.1291  0.0352
  135SAPE  H17R14633   1.080   3.264   9.308  1.8121  2.5102  0.3988
  135SAPE  H17S14634   1.016   3.362   9.173 -0.1337  1.2949  0.5609
  135SAPE  C21814635   0.877   3.211   9.243 -0.4863  1.0288  0.2398
  135SAPE  H18R14636   0.806   3.187   9.324  0.6478  0.8578  1.2141
  135SAPE  H18S14637   0.924   3.116   9.210  0.0410  1.2608  0.3028
  135SAPE  C21914638   0.804   3.251   9.114  0.7928  0.2442 -0.5939
  135SAPE  H19R14639   0.743   3.340   9.140  0.0298 -0.1194 -1.1172
  135SAPE  H19S14640   0.738   3.164   9.096 -0.5925  1.0312  0.4977
  135SAPE  C22014641   0.877   3.276   8.986 -0.6255  0.1065  0.0789
  135SAPE  H20R14642   0.934   3.371   8.992 -0.7381  0.1203  1.0168
  135SAPE  H20S14643   0.816   3.276   8.893  0.6392  0.6707 -0.7886
  135SAPE  H20T14644   0.951   3.196   8.966 -1.3480 -0.4286 -0.5243
  135SAPE   C3314645   1.481   3.099   9.997  0.4404 -0.5365  0.3889
  135SAPE   H3X14646   1.501   2.991  10.006 -0.4917 -0.9812 -2.1324
  135SAPE   H3Y14647   1.545   3.148  10.074 -0.1681  2.1335 -0.6869
  135SAPE   C3414648   1.520   3.135   9.853  0.0464  0.2853  0.3913
  135SAPE   H4X14649   1.465   3.070   9.783 -2.2501  1.1403  1.3068
  135SAPE   H4Y14650   1.627   3.105   9.842 -0.8252 -2.5664 -1.3221
  135SAPE   C3514651   1.488   3.276   9.797 -0.8236  0.4904 -0.3293
  135SAPE   H5X14652   1.516   3.359   9.865 -0.5179  0.7228 -0.7345
  135SAPE   H5Y14653   1.380   3.290   9.775 -0.8438 -1.1632 -1.4981
  135SAPE   C3614654   1.549   3.306   9.659 -0.2361  0.5335 -0.2898
  135SAPE   H6X14655   1.515   3.403   9.617 -0.8680 -0.1985 -1.5162
  135SAPE   H6Y14656   1.513   3.237   9.580  0.5285 -1.9049  1.3770
  135SAPE   C3714657   1.698   3.311   9.640 -0.4334 -0.1795 -0.0336
  135SAPE   H7X14658   1.754   3.220   9.671  2.2507  0.3207 -2.8687
  135SAPE   H7Y14659   1.745   3.399   9.688 -1.6094 -1.2234  3.3229
  135SAPE   C3814660   1.734   3.319   9.484  0.2407  0.2528 -0.1940
  135SAPE   H8X14661   1.698   3.224   9.439  0.9621  0.3143 -0.9156
  135SAPE   H8Y14662   1.843   3.308   9.472 -0.0559 -4.0650 -0.7544
  135SAPE   C3914663   1.686   3.437   9.400  0.2174 -0.6709 -0.8184
  135SAPE   H9X14664   1.725   3.532   9.444 -1.7020 -0.5254  0.7146
  135SAPE   H9Y14665   1.577   3.454   9.394  0.1736  1.2066  2.3785
  135SAPE  C31014666   1.738   3.435   9.256  0.2581 -0.4739  0.2349
  135SAPE  H10X14667   1.703   3.345   9.200  0.8946  0.0281 -1.0043
  135SAPE  H10Y14668   1.848   3.445   9.244  0.0429 -0.4263 -2.1253
  135SAPE  C31114669   1.689   3.561   9.173  0.0948 -0.3720  0.0096
  135SAPE  H11X14670   1.724   3.643   9.240 -0.5195 -0.0997  0.0119
  135SAPE  H11Y14671   1.578   3.563   9.162 -0.0875 -1.1256  1.3620
  135SAPE  C31214672   1.758   3.568   9.037  0.7595 -0.3540 -0.0320
  135SAPE  H12X14673   1.759   3.478   8.971 -1.7388 -0.9202  0.6057
  135SAPE  H12Y14674   1.865   3.590   9.053  0.8729 -0.2409 -0.9018
  135SAPE  C31314675   1.711   3.682   8.941  0.5409 -0.0717  0.1386
  135SAPE  H13X14676   1.695   3.777   8.997 -1.4970 -0.4047  0.1716
  135SAPE  H13Y14677   1.606   3.662   8.913 -0.7244  1.5076  3.2311
  135SAPE  C31414678   1.795   3.681   8.816  0.1474 -0.2224  0.6937
  135SAPE  H14X14679   1.812   3.578   8.777 -1.3002 -0.3394  0.3408
  135SAPE  H14Y14680   1.895   3.727   8.835  0.7311 -1.6115  1.1204
  135SAPE  C31514681   1.749   3.772   8.698  0.0213 -0.7710  0.3967
  135SAPE  H15X14682   1.643   3.746   8.675 -0.1855 -2.3113  2.7475
  135SAPE  H15Y14683   1.806   3.753   8.605 -1.2067  0.9763 -0.7634
  135SAPE  C31614684   1.762   3.921   8.736 -0.4128  0.2501 -0.7291
  135SAPE  H16X14685   1.872   3.938   8.740 -0.3435 -0.3583  0.2893
  135SAPE  H16Y14686   1.718   3.944   8.835  1.1644 -0.7121  0.2464
  135SAPE  C31714687   1.709   4.017   8.633  0.5819  0.0006  0.4263
  135SAPE  H17X14688   1.600   4.014   8.614  0.8640  1.8574 -2.0686
  135SAPE  H17Y14689   1.759   3.995   8.536 -1.2998  1.4188 -0.9530
  135SAPE  C31814690   1.738   4.170   8.653  0.0608  0.0470 -0.1813
  135SAPE  H18X14691   1.712   4.190   8.760  1.1295  2.2987 -0.2926
  135SAPE  H18Y14692   1.678   4.235   8.586  2.0862  1.8216 -0.3784
  135SAPE  H18Z14693   1.846   4.189   8.642 -0.1401  1.1685 -0.3146
  136SAPE     N14694   5.798   4.133  11.012 -0.5309 -0.1904 -0.4119
  136SAPE   HN114695   5.738   4.173  11.088 -1.4613  0.8616 -1.6575
  136SAPE   HN214696   5.759   4.059  10.950  0.0711 -0.3303 -0.6268
  136SAPE   HN314697   5.887   4.109  11.060  0.1240  2.4968 -0.1124
  136SAPE   C1214698   5.835   4.244  10.920 -0.5166  0.1778  0.4539
  136SAPE  H12A14699   5.896   4.318  10.976 -0.9183  1.0777 -0.2838
  136SAPE  H12B14700   5.739   4.289  10.886 -1.9017 -1.9765  1.2622
  136SAPE   C1114701   5.915   4.192  10.804 -0.2735 -0.0458  0.4911
  136SAPE  H11A14702   5.898   4.260  10.718 -1.0662 -0.0385  0.6477
  136SAPE  H11B14703   5.882   4.090  10.778  0.7014 -1.2395  3.4553
  136SAPE     P14704   6.155   4.300  10.832 -0.2281  0.0092 -0.2431
  136SAPE   O1314705   6.108   4.411  10.921  0.3507  0.1734 -0.3242
  136SAPE   O1414706   6.290   4.241  10.855 -0.0874  0.3968 -0.0198
  136SAPE   O1214707   6.051   4.179  10.833 -0.7613 -0.1004 -0.5568
  136SAPE   O1114708   6.152   4.352  10.684  0.5949 -0.2109 -0.0895
  136SAPE    C114709   6.221   4.290  10.574  0.3771 -0.4305  0.1220
  136SAPE    HA14710   6.246   4.375  10.507  1.1017 -0.0614  0.8363
  136SAPE    HB14711   6.316   4.236  10.595  1.3779 -0.0083 -2.7866
  136SAPE    C214712   6.136   4.187  10.490 -0.0703  0.6464  0.7045
  136SAPE    HS14713   6.032   4.226  10.484 -1.3418 -2.2634  1.9101
  136SAPE   O2114714   6.148   4.059  10.560 -0.3425  0.3150 -0.1448
  136SAPE   C2114715   6.043   3.976  10.559  0.0062  0.6052 -0.1046
  136SAPE   O2214716   5.936   4.004  10.519  0.4513  0.1822 -0.1138
  136SAPE   C2214717   6.077   3.843  10.619 -0.1016 -0.0501  0.4358
  136SAPE   H2R14718   6.187   3.826  10.619  0.0902  0.4247 -2.9605
  136SAPE   H2S14719   6.040   3.870  10.720 -0.3536  1.9930 -0.1513
  136SAPE    C314720   6.197   4.171  10.344  0.5431 -0.2134  0.4507
  136SAPE    HX14721   6.304   4.147  10.363  0.8845  0.9525  0.0869
  136SAPE    HY14722   6.191   4.270  10.295  0.7919 -1.8297 -3.1376
  136SAPE   O3114723   6.124   4.071  10.269  0.2654  1.3385  0.6214
  136SAPE   C3114724   6.011   4.106  10.205 -0.7981  0.0824  0.7363
  136SAPE   O3214725   5.970   4.222  10.209 -0.0007 -0.3162  0.1141
  136SAPE   C3214726   5.942   3.994  10.126 -0.1142  0.6221 -0.3143
  136SAPE   H2X14727   5.991   3.896  10.147 -0.6706  0.1872 -0.9758
  136SAPE   H2Y14728   5.960   4.018  10.019  1.0335  1.8309  0.1255
  136SAPE   C2314729   5.998   3.721  10.561 -0.4932 -0.4995  0.3065
  136SAPE   H3R14730   5.888   3.735  10.562 -0.3250  0.9851  1.6399
  136SAPE   H3S14731   6.025   3.645  10.637  0.4796  0.0810  0.5582
  136SAPE   C2414732   6.036   3.677  10.421  0.3139  0.3208  0.4104
  136SAPE   H4R14733   6.135   3.708  10.382  0.0501 -0.5197 -1.0120
  136SAPE   H4S14734   5.963   3.716  10.346  0.3051 -0.6145 -0.0917
  136SAPE   C2514735   6.040   3.522  10.406 -0.5951  0.4446 -0.0048
  136SAPE   H5R14736   6.109   3.475  10.477  0.9653  2.3083 -0.1753
  136SAPE   C2614737   5.972   3.437  10.327  0.1249  0.4062  0.8540
  136SAPE   H6R14738   6.008   3.333  10.321  0.9023  0.7645 -1.4390
  136SAPE   C2714739   5.862   3.468  10.235 -0.0288  0.6225  0.1961
  136SAPE   H7R14740   5.901   3.466  10.131 -1.3992  1.6866 -0.3653
  136SAPE   H7S14741   5.818   3.568  10.253 -0.1207  0.3097  1.8883
  136SAPE   C2814742   5.751   3.363  10.243 -0.2432 -0.2494  0.4593
  136SAPE   H8R14743   5.668   3.386  10.311 -0.9515  1.8354 -1.0338
  136SAPE   C2914744   5.729   3.265  10.156  0.7892  0.2728  0.0928
  136SAPE   H9R14745   5.643   3.200  10.179  0.6234  0.5291  0.2009
  136SAPE  C21014746   5.803   3.226  10.037 -0.3264 -0.1638  0.1927
  136SAPE  H10R14747   5.862   3.133  10.050 -1.2858 -1.0641 -1.6119
  136SAPE  H10S14748   5.884   3.300  10.014  0.1136 -0.0973  1.8190
  136SAPE  C21114749   5.723   3.208   9.908 -0.7321 -0.8301  0.1396
  136SAPE  H11R14750   5.616   3.189   9.926 -0.6753  0.7615  2.6856
  136SAPE  C21214751   5.760   3.205   9.777 -0.4214 -0.2832  0.2354
  136SAPE  H12R14752   5.681   3.194   9.701  1.1004  0.8916 -1.5989
  136SAPE  C21314753   5.893   3.222   9.712 -0.3426  0.2836  0.4353
  136SAPE  H13R14754   5.974   3.245   9.785  0.5918 -2.0937  0.2410
  136SAPE  H13S14755   5.900   3.321   9.661 -1.2890 -0.0365 -0.3452
  136SAPE  C21414756   5.921   3.113   9.616  0.0087 -0.3923  0.5452
  136SAPE  H14R14757   5.944   3.146   9.514 -1.2882 -2.6235 -0.5246
  136SAPE  C21514758   5.920   2.977   9.634  0.2467  0.1856 -0.0840
  136SAPE  H15R14759   5.946   2.903   9.556  2.2262  0.0273  0.6628
  136SAPE  C21614760   5.891   2.900   9.760 -0.2705 -0.6932  0.4511
  136SAPE  H16R14761   5.909   2.973   9.842 -0.3554 -2.2142  1.8708
  136SAPE  H16S14762   5.972   2.826   9.773  0.7191 -0.0364 -1.5248
  136SAPE  C21714763   5.756   2.832   9.774  0.4423 -0.7989  0.9198
  136SAPE  H17R14764   5.679   2.912   9.766  0.7429 -0.5849  0.0004
  136SAPE  H17S14765   5.736   2.795   9.877 -0.8646  0.8910  1.3199
  136SAPE  C21814766   5.732   2.721   9.667  0.3693  1.1557 -0.1788
  136SAPE  H18R14767   5.798   2.636   9.694 -0.2418  0.2586 -1.4082
  136SAPE  H18S14768   5.778   2.745   9.569 -0.2029  1.1254 -0.4582
  136SAPE  C21914769   5.590   2.678   9.663 -0.3197 -0.6473 -0.0025
  136SAPE  H19R14770   5.559   2.657   9.558 -0.6118  0.7145 -0.2151
  136SAPE  H19S14771   5.520   2.756   9.702  1.4007  1.3753 -0.7906
  136SAPE  C22014772   5.550   2.545   9.735 -0.6473  0.3973 -0.8058
  136SAPE  H20R14773   5.617   2.465   9.700  0.4085  0.2132  1.4866
  136SAPE  H20S14774   5.444   2.515   9.720 -0.4436  0.1436 -1.8206
  136SAPE  H20T14775   5.563   2.541   9.845  0.3701 -0.7098 -0.9487
  136SAPE   C3314776   5.792   4.001  10.143  0.8215  0.3813 -0.5482
  136SAPE   H3X14777   5.748   4.103  10.136  0.6010  0.2348 -1.3974
  136SAPE   H3Y14778   5.768   3.942  10.234  0.7700  0.0973 -0.7456
  136SAPE   C3414779   5.728   3.911  10.031 -0.6554  0.1273  0.0928
  136SAPE   H4X14780   5.720   3.986   9.949 -0.8777 -1.7536 -1.6580
  136SAPE   H4Y14781   5.630   3.878  10.072 -0.7783  0.8795  0.4419
  136SAPE   C3514782   5.811   3.781  10.007  0.5752 -0.4128  0.4256
  136SAPE   H5X14783   5.842   3.746  10.107  1.1742  0.6789  0.6383
  136SAPE   H5Y14784   5.904   3.818   9.957  1.4955  1.2072  3.1346
  136SAPE   C3614785   5.731   3.678   9.929 -0.5451 -0.0463  0.1361
  136SAPE   H6X14786   5.630   3.656   9.969 -0.8014 -0.5102 -0.7351
  136SAPE   H6Y14787   5.784   3.581   9.923 -1.4508 -0.4673 -2.0827
  136SAPE   C3714788   5.722   3.719   9.775  0.4537 -0.2762 -0.0300
  136SAPE   H7X14789   5.827   3.745   9.750  0.2992 -0.0992 -0.5010
  136SAPE   H7Y14790   5.665   3.813   9.765  0.6688 -0.0633  0.7076
  136SAPE   C3814791   5.669   3.621   9.679  0.0805  0.0405  0.5875
  136SAPE   H8X14792   5.561   3.599   9.693  0.2229 -1.4031 -0.3900
  136SAPE   H8Y14793   5.716   3.523   9.702 -0.1789 -0.6734 -1.6380
  136SAPE   C3914794   5.717   3.662   9.534  0.1641  0.2658  0.0543
  136SAPE   H9X14795   5.771   3.758   9.519  1.0665 -0.4777 -1.6859
  136SAPE   H9Y14796   5.633   3.675   9.462 -0.0676 -0.8631  0.1103
  136SAPE  C31014797   5.814   3.555   9.478 -0.3167  0.3275 -0.1015
  136SAPE  H10X14798   5.761   3.458   9.481  1.3404 -0.6008  2.9012
  136SAPE  H10Y14799   5.911   3.545   9.531  0.4754 -1.1095 -1.7291
  136SAPE  C31114800   5.848   3.584   9.326  0.0574  0.0539  0.5377
  136SAPE  H11X14801   5.761   3.638   9.284  0.9494  1.3142  0.2579
  136SAPE  H11Y14802   5.847   3.489   9.267 -3.2729  1.5492 -2.1520
  136SAPE  C31214803   5.975   3.668   9.297  0.0334 -0.0189 -0.4287
  136SAPE  H12X14804   6.064   3.611   9.331  0.0302  0.4883  0.4500
  136SAPE  H12Y14805   5.981   3.753   9.368 -0.8827  0.6395 -1.1119
  136SAPE  C31314806   5.984   3.721   9.163 -0.4088 -1.0739  0.0096
  136SAPE  H13X14807   6.080   3.777   9.161 -0.3844 -1.1224 -1.2665
  136SAPE  H13Y14808   5.903   3.795   9.148 -0.0469  0.0395  2.9529
  136SAPE  C31414809   5.986   3.622   9.045 -0.3710 -0.4473 -0.3375
  136SAPE  H14X14810   5.886   3.579   9.021 -0.3734 -0.5287 -0.1855
  136SAPE  H14Y14811   6.055   3.541   9.077 -0.9053 -0.6024  0.4792
  136SAPE  C31514812   6.024   3.675   8.913  0.4284 -0.7634  0.3378
  136SAPE  H15X14813   6.023   3.588   8.844 -0.9704 -1.1440  0.7909
  136SAPE  H15Y14814   6.128   3.711   8.902  0.1625 -0.3271 -0.9542
  136SAPE  C31614815   5.922   3.780   8.863  0.3236 -0.5924  0.7904
  136SAPE  H16X14816   5.920   3.866   8.934 -3.3771  1.1547 -1.1662
  136SAPE  H16Y14817   5.816   3.749   8.853  0.3067 -0.0326 -1.1635
  136SAPE  C31714818   5.948   3.831   8.723  0.4146 -0.3196 -0.0589
  136SAPE  H17X14819   5.885   3.769   8.657 -3.5479  1.7685  1.4079
  136SAPE  H17Y14820   6.055   3.818   8.699  0.2828  0.2489 -1.0021
  136SAPE  C31814821   5.904   3.975   8.698  0.5391  0.3602 -0.9796
  136SAPE  H18X14822   5.929   4.008   8.595  0.2900  1.5800 -0.6651
  136SAPE  H18Y14823   5.960   4.042   8.767  0.2204  1.9385 -2.1965
  136SAPE  H18Z14824   5.798   4.001   8.721  0.9740  1.3398  0.0059
  137SAPE     N14825   2.896   0.283  10.808  0.2097 -0.0694 -0.3693
  137SAPE   HN114826   2.831   0.349  10.760 -0.1529 -0.8374 -0.9594
  137SAPE   HN214827   2.886   0.186  10.770 -2.1674 -0.4211  0.9637
  137SAPE   HN314828   2.864   0.290  10.906 -1.8272  0.5083 -1.0185
  137SAPE   C1214829   3.037   0.323  10.833 -0.0302 -0.1295  0.2549
  137SAPE  H12A14830   3.035   0.423  10.880 -0.1590  0.0667 -0.1678
  137SAPE  H12B14831   3.081   0.329  10.732 -0.9515 -3.0010 -0.4258
  137SAPE   C1114832   3.117   0.234  10.929  0.5681 -0.0335  0.1850
  137SAPE  H11A14833   3.076   0.233  11.033 -1.6459 -1.7764 -0.6195
  137SAPE  H11B14834   3.217   0.279  10.948  1.2128 -1.2283 -0.2935
  137SAPE     P14835   3.248   0.061  10.788  0.5086 -0.4034 -0.2433
  137SAPE   O1314836   3.373   0.076  10.872  0.2093  0.0285  0.1563
  137SAPE   O1414837   3.220  -0.067  10.721 -0.0098  0.2954  0.1643
  137SAPE   O1214838   3.114   0.096  10.879  0.3684  0.0821  0.5615
  137SAPE   O1114839   3.256   0.177  10.678  0.2479  0.5280  0.1928
  137SAPE    C114840   3.354   0.153  10.574  0.0631 -0.4498 -0.1616
  137SAPE    HA14841   3.449   0.107  10.607 -0.3572 -2.4603 -1.5635
  137SAPE    HB14842   3.320   0.087  10.491  2.1043 -1.9166  0.0958
  137SAPE    C214843   3.395   0.294  10.523 -0.3072 -0.4721  1.3951
  137SAPE    HS14844   3.419   0.353  10.614 -0.0496  0.2152  0.8929
  137SAPE   O2114845   3.283   0.361  10.453  0.4356 -0.3919 -0.1321
  137SAPE   C2114846   3.288   0.493  10.443  0.3007  0.2990  0.7446
  137SAPE   O2214847   3.374   0.559  10.496  1.0249 -0.2442  0.1409
  137SAPE   C2214848   3.168   0.545  10.373  0.3256 -0.5341  0.7015
  137SAPE   H2R14849   3.139   0.477  10.290  0.1665  1.3847 -0.8958
  137SAPE   H2S14850   3.091   0.547  10.453 -1.2876  0.6591 -0.7794
  137SAPE    C314851   3.528   0.299  10.450 -0.0407  0.0070  0.6907
  137SAPE    HX14852   3.596   0.248  10.522  0.5607 -0.4301 -0.1669
  137SAPE    HY14853   3.563   0.403  10.430  0.1201  0.1064  1.4701
  137SAPE   O3114854   3.515   0.216  10.330 -0.3462  0.1228 -0.0187
  137SAPE   C3114855   3.635   0.207  10.264 -0.4009 -0.1037 -0.3861
  137SAPE   O3214856   3.738   0.263  10.301  0.6404 -0.3691  0.8933
  137SAPE   C3214857   3.619   0.128  10.136  0.2031  0.5460  0.5657
  137SAPE   H2X14858   3.563   0.034  10.153  2.4042 -1.0324 -0.4111
  137SAPE   H2Y14859   3.718   0.093  10.100 -1.2088 -0.8956 -2.1787
  137SAPE   C2314860   3.177   0.691  10.324 -0.1173 -0.0724  0.6060
  137SAPE   H3R14861   3.273   0.705  10.270  0.9441 -0.7836  2.2376
  137SAPE   H3S14862   3.164   0.766  10.405 -2.4851  0.4559 -0.1677
  137SAPE   C2414863   3.068   0.715  10.224 -0.4502 -0.2645 -0.1004
  137SAPE   H4R14864   2.972   0.684  10.271 -0.4089 -0.4075 -0.1110
  137SAPE   H4S14865   3.057   0.656  10.130 -1.7205 -0.8568  0.4008
  137SAPE   C2514866   3.051   0.869  10.198 -0.1067 -0.2843 -0.2309
  137SAPE   H5R14867   3.022   0.930  10.285 -1.8349  1.3723 -1.8671
  137SAPE   C2614868   3.067   0.930  10.079 -0.0857 -0.1181 -0.9592
  137SAPE   H6R14869   3.045   1.038  10.076  0.2613 -0.0134 -0.0336
  137SAPE   C2714870   3.114   0.868   9.955  0.2028  0.1497  0.2618
  137SAPE   H7R14871   3.176   0.784   9.993  0.1572  0.2322  0.5148
  137SAPE   H7S14872   3.182   0.936   9.899 -2.2756  1.7586 -0.9506
  137SAPE   C2814873   3.003   0.816   9.857 -0.1241 -0.0607 -0.6267
  137SAPE   H8R14874   2.911   0.788   9.910  1.1117  0.4343  1.9007
  137SAPE   C2914875   3.013   0.807   9.724  0.3040 -0.6416  0.3714
  137SAPE   H9R14876   2.915   0.796   9.673  0.5396 -4.0373  0.4304
  137SAPE  C21014877   3.130   0.830   9.636 -0.0188 -0.2852 -0.6940
  137SAPE  H10R14878   3.224   0.806   9.690 -0.3768  0.2963  0.2116
  137SAPE  H10S14879   3.133   0.939   9.612 -0.1890 -0.6619 -2.6063
  137SAPE  C21114880   3.135   0.748   9.517  0.6770  0.1904 -0.0511
  137SAPE  H11R14881   3.164   0.644   9.535  0.5073  0.1360 -0.0841
  137SAPE  C21214882   3.084   0.775   9.396  0.3790  0.4337  0.2989
  137SAPE  H12R14883   3.107   0.715   9.307  0.7588  0.2373  0.5277
  137SAPE  C21314884   3.012   0.899   9.356  0.3976 -0.8678  0.2165
  137SAPE  H13R14885   3.071   0.944   9.273 -0.4152  0.6574  0.4344
  137SAPE  H13S14886   2.997   0.966   9.443 -1.3122  0.1708 -0.8181
  137SAPE  C21414887   2.882   0.885   9.275 -0.8503  0.2759 -0.4258
  137SAPE  H14R14888   2.788   0.882   9.331 -1.5657  1.2467 -1.5304
  137SAPE  C21514889   2.871   0.861   9.144 -0.0155  0.2489  0.3836
  137SAPE  H15R14890   2.770   0.859   9.100 -0.2723 -0.1183  0.9792
  137SAPE  C21614891   2.984   0.835   9.050  0.0623  0.6120  0.9413
  137SAPE  H16R14892   3.089   0.816   9.080  0.9685  0.1000 -2.1492
  137SAPE  H16S14893   2.996   0.912   8.971 -0.7812 -0.2728 -0.0997
  137SAPE  C21714894   2.932   0.721   8.958 -0.0051  0.0469 -1.2565
  137SAPE  H17R14895   2.837   0.743   8.905 -1.7893 -3.6242  0.0820
  137SAPE  H17S14896   2.902   0.632   9.018  2.9530 -1.2620 -1.5787
  137SAPE  C21814897   3.029   0.658   8.854  0.2743  0.1112 -0.1193
  137SAPE  H18R14898   3.033   0.743   8.782 -0.2964  0.7383  0.5703
  137SAPE  H18S14899   2.980   0.571   8.805  1.4594 -0.9298  0.4986
  137SAPE  C21914900   3.167   0.622   8.913  0.2036  0.5290  0.6381
  137SAPE  H19R14901   3.218   0.709   8.960  0.1666  0.3072  1.0916
  137SAPE  H19S14902   3.238   0.590   8.835  1.8455  3.4546  0.7732
  137SAPE  C22014903   3.162   0.509   9.018 -0.6456 -0.3641 -1.0051
  137SAPE  H20R14904   3.265   0.469   9.030 -0.1502  1.0913  0.0364
  137SAPE  H20S14905   3.101   0.426   8.978  2.4738 -2.7605 -1.1804
  137SAPE  H20T14906   3.117   0.548   9.112  0.3203  0.8776 -1.0245
  137SAPE   C3314907   3.552   0.218  10.034  0.7507 -0.2882  0.2808
  137SAPE   H3X14908   3.608   0.311  10.011  1.0302 -0.9255 -1.9116
  137SAPE   H3Y14909   3.450   0.250  10.062  0.5805  0.9312 -1.6047
  137SAPE   C3414910   3.531   0.155   9.898  0.4138 -0.0425  0.5388
  137SAPE   H4X14911   3.630   0.119   9.864  0.2657 -0.2199  0.2889
  137SAPE   H4Y14912   3.510   0.239   9.829  2.0102 -0.2420 -0.2330
  137SAPE   C3514913   3.433   0.035   9.887 -0.3845 -0.4425 -0.7347
  137SAPE   H5X14914   3.331   0.080   9.881  0.9856  2.9069 -0.8049
  137SAPE   H5Y14915   3.431  -0.012   9.987 -1.4345  1.0250 -0.0259
  137SAPE   C3614916   3.443  -0.069   9.776 -0.3122  0.8083 -0.1138
  137SAPE   H6X14917   3.353  -0.134   9.776  1.1768 -1.4244 -1.8572
  137SAPE   H6Y14918   3.529  -0.131   9.810 -1.5037 -0.0796  1.4151
  137SAPE   C3714919   3.453   0.003   9.640  0.0198 -0.3678 -0.5072
  137SAPE   H7X14920   3.543   0.067   9.646  0.7572 -1.5170  2.0197
  137SAPE   H7Y14921   3.374   0.079   9.628 -0.4314 -0.7103  0.2247
  137SAPE   C3814922   3.458  -0.098   9.528 -0.0084 -0.3941  0.4177
  137SAPE   H8X14923   3.362  -0.154   9.524 -0.6739  0.7451  0.1766
  137SAPE   H8Y14924   3.543  -0.165   9.552  0.9432  0.2471 -1.0104
  137SAPE   C3914925   3.477  -0.038   9.391 -0.2582  0.5722  0.5653
  137SAPE   H9X14926   3.432   0.063   9.397 -1.9396 -0.1693  1.1023
  137SAPE   H9Y14927   3.427  -0.097   9.311  2.4438 -0.6352 -0.3384
  137SAPE  C31014928   3.627  -0.025   9.348 -0.6721  0.6629  0.4131
  137SAPE  H10X14929   3.682  -0.118   9.375 -0.8992 -0.0807 -1.4889
  137SAPE  H10Y14930   3.664   0.049   9.422  0.3766  0.2885  0.2780
  137SAPE  C31114931   3.661  -0.014   9.205  0.2622  0.1996 -0.0257
  137SAPE  H11X14932   3.617   0.080   9.165 -0.1850  0.9359  2.0862
  137SAPE  H11Y14933   3.620  -0.098   9.144  0.6864 -0.7045  0.9112
  137SAPE  C31214934   3.816  -0.016   9.185  0.2258 -0.1624 -0.8738
  137SAPE  H12X14935   3.853  -0.117   9.215 -1.6940  0.1488  3.3426
  137SAPE  H12Y14936   3.863   0.056   9.254 -1.0250 -1.5726  1.6225
  137SAPE  C31314937   3.856   0.010   9.042 -0.3262  0.0194 -0.4229
  137SAPE  H13X14938   3.967   0.008   9.043 -0.2877 -2.8750  0.7978
  137SAPE  H13Y14939   3.840   0.111   8.999 -0.9600 -0.9195 -2.4949
  137SAPE  C31414940   3.808  -0.074   8.930 -0.1385  0.1374 -0.2780
  137SAPE  H14X14941   3.697  -0.086   8.929 -0.1316 -1.0990  2.7022
  137SAPE  H14Y14942   3.828  -0.176   8.968 -1.7450  0.3562  1.3634
  137SAPE  C31514943   3.864  -0.050   8.788 -0.1499  0.4451 -0.9756
  137SAPE  H15X14944   3.854  -0.148   8.737 -0.3490 -1.5014  2.4739
  137SAPE  H15Y14945   3.974  -0.040   8.799  0.1821 -2.0533 -1.2925
  137SAPE  C31614946   3.803   0.060   8.704 -0.1006  0.2077  0.8569
  137SAPE  H16X14947   3.829   0.155   8.756  3.0689  0.0620 -0.2439
  137SAPE  H16Y14948   3.692   0.052   8.695 -0.2222  2.5097 -0.6694
  137SAPE  C31714949   3.854   0.067   8.557 -0.4489 -0.1506  0.3890
  137SAPE  H17X14950   3.829  -0.033   8.516 -0.3903  0.5677 -1.4990
  137SAPE  H17Y14951   3.964   0.081   8.547 -0.5324  0.4551  0.2689
  137SAPE  C31814952   3.784   0.170   8.472  0.3989 -0.3651  0.2911
  137SAPE  H18X14953   3.804   0.277   8.495 -0.6025 -0.0001 -0.4341
  137SAPE  H18Y14954   3.673   0.165   8.482  0.3349 -0.0703 -0.2019
  137SAPE  H18Z14955   3.797   0.150   8.363 -1.0060  0.4009 -0.0550
  138SAPE     N14956   3.095   6.591  10.872 -0.4201  0.6919  0.2785
  138SAPE   HN114957   3.107   6.635  10.779  1.7107 -1.4826 -0.5964
  138SAPE   HN214958   3.176   6.626  10.927 -0.0425 -1.0789  0.9284
  138SAPE   HN314959   3.100   6.487  10.865 -0.4224  0.8087 -2.1821
  138SAPE   C1214960   2.964   6.645  10.929 -0.0095 -0.1317  0.5217
  138SAPE  H12A14961   2.974   6.753  10.951  0.0911 -0.5339  2.5885
  138SAPE  H12B14962   2.943   6.593  11.024 -0.8318 -2.0297 -0.6325
  138SAPE   C1114963   2.856   6.611  10.826 -0.4600 -0.3205 -0.5568
  138SAPE  H11A14964   2.764   6.656  10.870 -0.8080  1.4716 -2.8715
  138SAPE  H11B14965   2.851   6.500  10.824  2.6833 -0.5322 -0.7715
  138SAPE     P14966   2.818   6.775  10.627 -0.4080 -0.2044  0.2191
  138SAPE   O1314967   2.702   6.729  10.551  0.0826 -0.1588 -0.0790
  138SAPE   O1414968   2.811   6.878  10.732  0.5409  0.2018 -0.2905
  138SAPE   O1214969   2.883   6.651  10.691  0.5738  0.4221 -0.1234
  138SAPE   O1114970   2.933   6.818  10.520 -0.1165  0.0047 -0.0417
  138SAPE    C114971   3.012   6.721  10.454  0.1025  0.0537  0.1109
  138SAPE    HA14972   3.116   6.757  10.470  0.3040 -1.1299  1.6519
  138SAPE    HB14973   3.006   6.623  10.505  0.2477 -0.7508 -1.3814
  138SAPE    C214974   2.983   6.679  10.302  0.7401  0.5481 -0.8506
  138SAPE    HS14975   3.064   6.618  10.257 -0.7408 -1.0809 -1.4372
  138SAPE   O2114976   2.955   6.793  10.218  0.5457 -0.0905 -0.0215
  138SAPE   C2114977   3.059   6.872  10.196 -0.0902 -0.1007 -0.2741
  138SAPE   O2214978   3.173   6.851  10.226 -0.4333  0.4019  0.1149
  138SAPE   C2214979   3.016   7.000  10.119  0.2134 -0.0374 -0.8238
  138SAPE   H2R14980   2.928   6.977  10.055 -1.9999 -2.5692  2.7174
  138SAPE   H2S14981   3.001   7.081  10.195  1.6471  0.0922 -0.6634
  138SAPE    C314982   2.857   6.588  10.290 -0.7011 -0.0938 -0.3543
  138SAPE    HX14983   2.771   6.647  10.328  0.8436  2.3630 -0.4595
  138SAPE    HY14984   2.864   6.498  10.356  0.0034 -0.4896 -0.9537
  138SAPE   O3114985   2.825   6.538  10.159  0.9827 -0.0950  0.3699
  138SAPE   C3114986   2.713   6.587  10.095  0.0670 -0.2636  0.3771
  138SAPE   O3214987   2.636   6.665  10.140 -0.1403 -0.6771 -0.0947
  138SAPE   C3214988   2.707   6.534   9.955 -0.2269 -0.2716  0.4099
  138SAPE   H2X14989   2.612   6.544   9.899  0.4060 -1.4448 -0.9210
  138SAPE   H2Y14990   2.713   6.423   9.966 -0.6960 -0.2120  1.3830
  138SAPE   C2314991   3.138   7.044  10.037 -0.0990 -0.1344  0.4923
  138SAPE   H3R14992   3.164   6.964   9.965 -0.1339  0.2864  0.0046
  138SAPE   H3S14993   3.225   7.072  10.100 -0.5624  2.0438  0.2543
  138SAPE   C2414994   3.116   7.176   9.952 -0.2758  0.1746  0.5279
  138SAPE   H4R14995   3.096   7.254  10.028  2.1090  1.6188 -0.2356
  138SAPE   H4S14996   3.015   7.164   9.907 -0.8422  0.7257  1.6157
  138SAPE   C2514997   3.225   7.227   9.862 -0.3841  0.0094 -0.8729
  138SAPE   H5R14998   3.307   7.279   9.913  0.6097 -0.5149 -1.8799
  138SAPE   C2614999   3.238   7.212   9.729  0.9655  0.0745  0.8612
  138SAPE   H6R15000   3.303   7.275   9.667  0.6535 -1.1596 -0.7921
  138SAPE   C2715001   3.140   7.142   9.634  0.9845 -0.6394  0.6946
  138SAPE   H7R15002   3.041   7.130   9.683 -0.4166  0.3015 -1.7612
  138SAPE   H7S15003   3.181   7.042   9.611 -0.1834 -1.5171  2.2147
  138SAPE   C2815004   3.107   7.215   9.499 -0.3937 -0.8747  0.1860
  138SAPE   H8R15005   3.008   7.262   9.502  0.3078  0.6103  0.8820
  138SAPE   C2915006   3.182   7.234   9.392 -0.5861  0.9031  0.2701
  138SAPE   H9R15007   3.152   7.296   9.306  0.9915  0.2922 -0.7603
  138SAPE  C21015008   3.325   7.175   9.371  0.3253  0.0153 -1.4882
  138SAPE  H10R15009   3.334   7.123   9.273 -0.4287 -0.9870 -1.0430
  138SAPE  H10S15010   3.338   7.097   9.449 -1.2117 -0.1359 -1.3580
  138SAPE  C21115011   3.421   7.287   9.392 -0.5984  0.0127 -0.2269
  138SAPE  H11R15012   3.416   7.332   9.492 -0.0172  2.8943 -1.4013
  138SAPE  C21215013   3.513   7.323   9.302  0.8195 -0.7424 -0.5118
  138SAPE  H12R15014   3.571   7.412   9.330 -2.5412  1.3395  0.4458
  138SAPE  C21315015   3.534   7.262   9.159 -0.9340 -0.4191  0.1006
  138SAPE  H13R15016   3.447   7.202   9.126 -1.0053  1.3392 -3.3361
  138SAPE  H13S15017   3.618   7.191   9.174 -1.6280 -1.0768  1.0218
  138SAPE  C21415018   3.581   7.347   9.044 -0.3429  0.3168 -0.1749
  138SAPE  H14R15019   3.616   7.450   9.057 -0.2064  0.3904 -1.0696
  138SAPE  C21515020   3.579   7.305   8.921 -0.9940 -0.2618 -0.1614
  138SAPE  H15R15021   3.626   7.367   8.843 -1.3878 -0.2359 -0.3818
  138SAPE  C21615022   3.545   7.172   8.865 -0.6146  0.4977 -0.2385
  138SAPE  H16R15023   3.539   7.097   8.946  1.4019  0.2535 -0.2584
  138SAPE  H16S15024   3.631   7.135   8.805 -0.7387  0.8713 -0.6558
  138SAPE  C21715025   3.416   7.165   8.789  0.9389  0.0357 -0.5489
  138SAPE  H17R15026   3.407   7.252   8.721 -0.7119  0.9829  0.7772
  138SAPE  H17S15027   3.339   7.177   8.869  1.5781 -0.9181  0.2348
  138SAPE  C21815028   3.386   7.033   8.715  0.0491 -0.5841  0.2067
  138SAPE  H18R15029   3.455   7.025   8.628 -0.3298 -0.2091 -0.1380
  138SAPE  H18S15030   3.287   7.052   8.668  0.0158  1.7996  1.0878
  138SAPE  C21915031   3.364   6.904   8.795 -0.5427 -0.0929 -0.3366
  138SAPE  H19R15032   3.458   6.852   8.823 -2.0148 -1.4986  2.5327
  138SAPE  H19S15033   3.319   6.829   8.726 -1.5295 -0.1491  0.3442
  138SAPE  C22015034   3.287   6.921   8.920  0.1023 -0.0408  0.0367
  138SAPE  H20R15035   3.223   6.833   8.940 -0.6608  0.8069  1.4679
  138SAPE  H20S15036   3.213   7.003   8.911  0.4796  0.1825 -1.3087
  138SAPE  H20T15037   3.359   6.941   9.002  1.2194 -2.0248 -0.3837
  138SAPE   C3315038   2.817   6.555   9.862 -0.5223 -0.1685 -0.4611
  138SAPE   H3X15039   2.793   6.513   9.763  1.2880 -0.9137 -0.6255
  138SAPE   H3Y15040   2.901   6.486   9.888 -0.6699 -0.8031 -1.6120
  138SAPE   C3415041   2.854   6.706   9.845  0.6787  0.1484 -0.0743
  138SAPE   H4X15042   2.889   6.748   9.941 -1.0880  0.6553  0.3979
  138SAPE   H4Y15043   2.760   6.752   9.808  0.3329 -0.1141  0.4646
  138SAPE   C3515044   2.970   6.732   9.739 -0.1190  0.3385 -0.8573
  138SAPE   H5X15045   3.045   6.650   9.749 -0.6593 -0.0266  0.4607
  138SAPE   H5Y15046   3.016   6.830   9.763  0.4702  0.2722 -1.6817
  138SAPE   C3615047   2.916   6.747   9.599 -0.1305  0.2496  0.3101
  138SAPE   H6X15048   2.841   6.828   9.588  2.1001  2.6466  1.5013
  138SAPE   H6Y15049   2.863   6.652   9.574  1.8202 -0.4213 -1.5036
  138SAPE   C3715050   3.025   6.771   9.492  0.4539 -0.4795 -0.2963
  138SAPE   H7X15051   3.103   6.692   9.488  0.4186 -0.4819 -1.4245
  138SAPE   H7Y15052   3.067   6.873   9.509  1.0236 -0.7056 -0.3350
  138SAPE   C3815053   2.957   6.777   9.355 -0.6364 -0.3650  0.2757
  138SAPE   H8X15054   2.873   6.850   9.351 -0.1586  0.2253  0.8912
  138SAPE   H8Y15055   2.935   6.673   9.322  1.6489 -0.6596 -0.4977
  138SAPE   C3915056   3.049   6.847   9.251  0.0124  0.2874 -0.4406
  138SAPE   H9X15057   3.124   6.772   9.218 -0.6246 -0.5994  0.0833
  138SAPE   H9Y15058   3.101   6.927   9.307  0.0959 -0.4401  0.5521
  138SAPE  C31015059   2.977   6.899   9.126 -0.2441 -0.5556  0.3652
  138SAPE  H10X15060   3.062   6.948   9.075  2.3228 -1.5998  3.3032
  138SAPE  H10Y15061   2.898   6.971   9.156 -0.2265 -1.0005  1.5562
  138SAPE  C31115062   2.909   6.783   9.050  0.3637  0.3589  0.2840
  138SAPE  H11X15063   2.828   6.742   9.114  0.3953  1.2529  0.9116
  138SAPE  H11Y15064   2.991   6.711   9.027 -1.2455 -1.4130 -0.2274
  138SAPE  C31215065   2.832   6.834   8.926  0.4098  0.0946 -0.4713
  138SAPE  H12X15066   2.742   6.892   8.956  1.1842  1.5761 -0.9021
  138SAPE  H12Y15067   2.801   6.745   8.867  3.1909 -0.4681 -1.2720
  138SAPE  C31315068   2.932   6.920   8.839 -0.3247 -0.7677 -0.3097
  138SAPE  H13X15069   3.020   6.867   8.796  0.0761  1.2152 -2.1592
  138SAPE  H13Y15070   2.978   7.000   8.900  1.2849 -2.4959  0.8401
  138SAPE  C31415071   2.864   6.984   8.722  0.0457 -0.3511  0.3569
  138SAPE  H14X15072   2.775   7.034   8.766  0.6997 -1.8344  3.7324
  138SAPE  H14Y15073   2.831   6.916   8.640 -1.5963  1.9358 -0.9813
  138SAPE  C31515074   2.954   7.099   8.662  0.1606 -0.0975  0.1402
  138SAPE  H15X15075   3.042   7.046   8.620 -0.6384  0.5722 -2.5590
  138SAPE  H15Y15076   2.997   7.160   8.744 -0.0458 -0.6984  0.7052
  138SAPE  C31615077   2.895   7.195   8.551  0.0151  0.3051 -0.2735
  138SAPE  H16X15078   2.830   7.271   8.599  1.9220  0.6678  1.9385
  138SAPE  H16Y15079   2.848   7.154   8.459 -1.1173  1.6402 -0.3173
  138SAPE  C31715080   3.009   7.299   8.500  0.0599  0.3090  0.0382
  138SAPE  H17X15081   3.081   7.230   8.452 -2.2581 -0.9714 -1.7827
  138SAPE  H17Y15082   3.072   7.347   8.578 -0.2405  0.4342  0.2047
  138SAPE  C31815083   2.959   7.393   8.385 -0.2087 -0.3585 -0.1229
  138SAPE  H18X15084   2.917   7.331   8.303 -0.6938 -1.0168  0.6087
  138SAPE  H18Y15085   3.047   7.442   8.337 -0.5025 -0.5269 -0.8371
  138SAPE  H18Z15086   2.883   7.470   8.409  1.4964  1.9268 -1.6074
  139SAPE     N15087   5.970   4.615  11.037  0.4714 -0.4091  0.2915
  139SAPE   HN115088   6.012   4.696  11.088 -0.3678 -0.2483  0.7579
  139SAPE   HN215089   5.902   4.573  11.104 -0.5201  0.9838  0.2012
  139SAPE   HN315090   6.039   4.548  10.997  1.8230  2.4430 -2.5972
  139SAPE   C1215091   5.901   4.664  10.914  0.2898 -0.5317  0.3505
  139SAPE  H12A15092   5.827   4.738  10.950 -0.8211 -1.1219 -0.6364
  139SAPE  H12B15093   5.840   4.578  10.877  0.1036 -0.8398  1.3376
  139SAPE   C1115094   5.988   4.722  10.803 -0.2849  1.0624  0.1875
  139SAPE  H11A15095   5.928   4.741  10.712 -0.4290 -0.8089 -0.1292
  139SAPE  H11B15096   6.057   4.643  10.768 -0.5614  0.6132  0.6540
  139SAPE     P15097   6.199   4.864  10.786 -0.4063 -0.1649  0.0570
  139SAPE   O1315098   6.232   5.006  10.801 -0.5233 -0.0039  0.3679
  139SAPE   O1415099   6.295   4.777  10.861  0.1716 -0.4924  0.5372
  139SAPE   O1215100   6.058   4.834  10.839  0.4129  0.2700 -0.3758
  139SAPE   O1115101   6.200   4.819  10.636  0.4481 -0.3530 -0.0994
  139SAPE    C115102   6.105   4.858  10.544  0.7407 -0.5777  0.1928
  139SAPE    HA15103   6.071   4.770  10.486 -1.6750 -0.7047  1.6451
  139SAPE    HB15104   6.006   4.888  10.585 -0.1923 -0.1742 -2.2456
  139SAPE    C215105   6.165   4.956  10.441  0.4257 -0.4854 -0.1042
  139SAPE    HS15106   6.088   4.983  10.365 -0.2105  0.8110  0.9455
  139SAPE   O2115107   6.278   4.892  10.373  0.2837  0.3210 -0.7681
  139SAPE   C2115108   6.256   4.829  10.258  0.3489 -0.0863  0.1795
  139SAPE   O2215109   6.156   4.830  10.191 -0.1029  0.0128  0.8901
  139SAPE   C2215110   6.382   4.752  10.216 -0.2854  0.1127 -0.3278
  139SAPE   H2R15111   6.404   4.781  10.111 -0.2420  1.2798 -0.0096
  139SAPE   H2S15112   6.465   4.789  10.281  0.8469 -1.5434 -0.7662
  139SAPE    C315113   6.216   5.092  10.493 -0.2675  0.3052 -0.2734
  139SAPE    HX15114   6.312   5.076  10.547 -0.2754  2.5502  0.5140
  139SAPE    HY15115   6.141   5.124  10.569  0.5884 -1.8454  1.6128
  139SAPE   O3115116   6.218   5.187  10.379 -0.3197 -0.0611 -0.4208
  139SAPE   C3115117   6.342   5.240  10.362  0.4257  0.4884  0.3294
  139SAPE   O3215118   6.423   5.245  10.450 -0.5389  0.3963 -0.2070
  139SAPE   C3215119   6.357   5.285  10.223 -0.2215  0.3249 -0.3449
  139SAPE   H2X15120   6.425   5.372  10.233  1.8161 -1.2727  0.3715
  139SAPE   H2Y15121   6.258   5.324  10.190 -1.4132 -0.4079  2.0845
  139SAPE   C2315122   6.377   4.600  10.245 -0.4457  0.0722 -0.0362
  139SAPE   H3R15123   6.306   4.585  10.329 -2.2821  0.3649 -1.4848
  139SAPE   H3S15124   6.478   4.568  10.278 -0.3626  0.1898 -0.1741
  139SAPE   C2415125   6.337   4.514  10.126  0.5743 -0.0077  0.6570
  139SAPE   H4R15126   6.353   4.409  10.158  2.2044  0.3148  0.9591
  139SAPE   H4S15127   6.416   4.537  10.051  0.8637 -0.0245  0.9573
  139SAPE   C2515128   6.206   4.552  10.065  0.1312  0.9790  0.0622
  139SAPE   H5R15129   6.124   4.537  10.137 -1.0858  3.1870 -0.7810
  139SAPE   C2615130   6.182   4.613   9.953  0.3776 -0.1813  0.5389
  139SAPE   H6R15131   6.077   4.634   9.927  0.7479 -1.2398 -2.0181
  139SAPE   C2715132   6.276   4.668   9.850 -0.4743 -0.1750  0.6850
  139SAPE   H7R15133   6.303   4.583   9.784 -2.7298 -1.1831  0.9652
  139SAPE   H7S15134   6.374   4.704   9.889 -1.6637  2.6950  1.2639
  139SAPE   C2815135   6.210   4.783   9.771 -0.1101  0.5297  0.2950
  139SAPE   H8R15136   6.171   4.869   9.827 -1.6448  0.2820 -0.3425
  139SAPE   C2915137   6.181   4.784   9.634 -0.4296 -0.6534 -0.0216
  139SAPE   H9R15138   6.129   4.869   9.588  0.7678 -1.1863 -2.5404
  139SAPE  C21015139   6.212   4.677   9.549 -0.0699 -1.0434 -0.0805
  139SAPE  H10R15140   6.124   4.673   9.481 -0.2465 -2.1073  0.1881
  139SAPE  H10S15141   6.197   4.581   9.603 -1.4820 -1.1010 -0.5153
  139SAPE  C21115142   6.343   4.695   9.483  0.2476 -0.2250  0.6713
  139SAPE  H11R15143   6.421   4.697   9.560  0.2691  4.5142  0.7767
  139SAPE  C21215144   6.365   4.705   9.350  0.0225  0.0337 -0.0631
  139SAPE  H12R15145   6.468   4.723   9.316 -0.2371  3.7159  0.6741
  139SAPE  C21315146   6.264   4.696   9.237 -0.3187  0.0214 -0.1577
  139SAPE  H13R15147   6.313   4.747   9.151 -0.9821  2.4803  0.8219
  139SAPE  H13S15148   6.172   4.755   9.258  1.8834  3.5959  0.3814
  139SAPE  C21415149   6.218   4.551   9.218  0.2792  0.0976 -0.0848
  139SAPE  H14R15150   6.195   4.493   9.309  1.2014 -0.2694 -0.0774
  139SAPE  C21515151   6.220   4.484   9.100 -0.3207 -0.1134  0.1944
  139SAPE  H15R15152   6.189   4.379   9.096 -0.6530 -0.0222 -3.4259
  139SAPE  C21615153   6.267   4.538   8.968 -0.3143 -0.2303  0.0529
  139SAPE  H16R15154   6.345   4.473   8.921  0.9122  0.1944  1.4161
  139SAPE  H16S15155   6.306   4.642   8.977 -2.1610  0.6112 -1.0982
  139SAPE  C21715156   6.167   4.562   8.861 -0.4132  0.0572 -0.0500
  139SAPE  H17R15157   6.124   4.464   8.828 -0.4406  0.7894 -2.3937
  139SAPE  H17S15158   6.208   4.615   8.773 -0.0209  0.3796  0.3257
  139SAPE  C21815159   6.057   4.653   8.908 -0.0238 -0.6027  0.1972
  139SAPE  H18R15160   6.109   4.744   8.946  0.4361 -1.5643  1.9660
  139SAPE  H18S15161   5.996   4.624   8.996 -0.4566 -1.2176 -0.2961
  139SAPE  C21915162   5.951   4.694   8.804  0.0419  0.3108 -0.1127
  139SAPE  H19R15163   5.913   4.595   8.772  0.3652 -0.8658  2.8344
  139SAPE  H19S15164   5.989   4.734   8.708 -2.2924  3.4719  0.1246
  139SAPE  C22015165   5.847   4.787   8.861 -0.4951  0.3714 -0.0215
  139SAPE  H20R15166   5.795   4.841   8.779 -0.7880  0.8725  0.4863
  139SAPE  H20S15167   5.884   4.865   8.932  0.5984 -1.4048  1.4511
  139SAPE  H20T15168   5.771   4.728   8.917 -2.0118 -1.0374 -3.3338
  139SAPE   C3315169   6.401   5.185  10.122  0.4691  0.2873  0.4713
  139SAPE   H3X15170   6.346   5.088  10.127 -0.7995  1.0332  1.3426
  139SAPE   H3Y15171   6.502   5.145  10.149 -0.2013 -1.6983  0.1995
  139SAPE   C3415172   6.391   5.233   9.984  0.0868  0.4249 -0.1331
  139SAPE   H4X15173   6.466   5.315   9.977  1.6362 -0.8917  0.2678
  139SAPE   H4Y15174   6.291   5.267   9.949 -0.1573 -1.2201 -1.1508
  139SAPE   C3515175   6.446   5.135   9.870  0.3272  0.0006 -0.4695
  139SAPE   H5X15176   6.399   5.035   9.866  0.1256  0.0881 -0.2931
  139SAPE   H5Y15177   6.554   5.130   9.894  0.6485  1.5972 -1.4236
  139SAPE   C3615178   6.434   5.190   9.729  0.7134  0.3356 -0.7678
  139SAPE   H6X15179   6.511   5.140   9.666  0.9562  0.3716 -0.5025
  139SAPE   H6Y15180   6.453   5.298   9.710 -1.6487  0.9244 -0.0603
  139SAPE   C3715181   6.308   5.149   9.653 -0.3552  0.4798  0.2727
  139SAPE   H7X15182   6.227   5.206   9.705  0.9582  2.5344  0.1553
  139SAPE   H7Y15183   6.289   5.040   9.663  1.1740 -0.1195 -2.5043
  139SAPE   C3815184   6.326   5.182   9.503 -0.1416 -0.0008 -0.2238
  139SAPE   H8X15185   6.427   5.155   9.464  0.0237 -1.1728  0.9297
  139SAPE   H8Y15186   6.308   5.291   9.494  0.4880  0.1659  0.3973
  139SAPE   C3915187   6.212   5.109   9.424  0.2476 -0.4271 -0.1706
  139SAPE   H9X15188   6.116   5.127   9.475  0.0168 -1.1206 -0.3499
  139SAPE   H9Y15189   6.215   4.998   9.434 -1.3052 -0.5121 -0.4032
  139SAPE  C31015190   6.195   5.138   9.276 -0.8343 -0.6051 -0.1899
  139SAPE  H10X15191   6.177   5.244   9.246 -2.2220 -1.0969 -1.2000
  139SAPE  H10Y15192   6.109   5.074   9.248 -2.1186  0.9052  0.1059
  139SAPE  C31115193   6.315   5.104   9.187  0.5183  0.1362 -0.2095
  139SAPE  H11X15194   6.328   4.995   9.205 -1.3928 -0.0521  0.2387
  139SAPE  H11Y15195   6.405   5.159   9.222 -0.4471  0.9237  1.0767
  139SAPE  C31215196   6.296   5.127   9.033 -0.3701 -0.4093  0.6258
  139SAPE  H12X15197   6.293   5.237   9.013 -0.6363 -0.4114  0.6503
  139SAPE  H12Y15198   6.198   5.088   8.999  0.6204 -0.5677 -2.3394
  139SAPE  C31315199   6.414   5.067   8.950  0.5763 -0.5120 -0.5219
  139SAPE  H13X15200   6.423   4.961   8.980 -0.2665 -0.9833 -1.8681
  139SAPE  H13Y15201   6.509   5.111   8.990  1.3331 -2.3321 -0.2338
  139SAPE  C31415202   6.392   5.077   8.796 -0.5083  0.3898 -0.1070
  139SAPE  H14X15203   6.393   5.185   8.769 -0.7820  0.0921 -1.3124
  139SAPE  H14Y15204   6.297   5.034   8.760 -2.3845  4.1249 -0.1357
  139SAPE  C31515205   6.503   5.009   8.714 -0.3386  0.1433 -0.2486
  139SAPE  H15X15206   6.603   5.057   8.722 -0.0349 -0.0766 -2.2053
  139SAPE  H15Y15207   6.477   5.014   8.606  0.5577 -2.3079 -0.6663
  139SAPE  C31615208   6.504   4.858   8.744  0.2883  0.6190  0.4849
  139SAPE  H16X15209   6.543   4.842   8.847  0.2768  0.9287  0.5394
  139SAPE  H16Y15210   6.409   4.802   8.739 -0.6182  1.8021  2.6752
  139SAPE  C31715211   6.600   4.780   8.649 -0.2140 -0.0851 -0.4043
  139SAPE  H17X15212   6.612   4.680   8.695  0.1134  0.7973  1.5356
  139SAPE  H17Y15213   6.697   4.831   8.665  1.0526 -2.7913  1.2727
  139SAPE  C31815214   6.579   4.779   8.499  0.4251  1.0311  0.2059
  139SAPE  H18X15215   6.487   4.730   8.461  0.3006  2.2385 -1.1064
  139SAPE  H18Y15216   6.664   4.720   8.459 -0.8816 -0.3940 -0.5833
  139SAPE  H18Z15217   6.570   4.884   8.463 -0.7101 -0.2354 -3.5978
  140SAPE     N15218   3.535   2.568  10.668 -0.3472  0.4575  0.5882
  140SAPE   HN115219   3.621   2.609  10.709  0.3497 -1.0251  0.6945
  140SAPE   HN215220   3.554   2.467  10.655 -0.2243  0.1477  2.7443
  140SAPE   HN315221   3.539   2.614  10.575  1.0948  0.8223  0.8064
  140SAPE   C1215222   3.405   2.584  10.742  0.2094 -0.0772  0.4462
  140SAPE  H12A15223   3.404   2.507  10.822  2.8337 -0.5826  0.0861
  140SAPE  H12B15224   3.324   2.559  10.670 -0.4705  0.3682  1.0433
  140SAPE   C1115225   3.376   2.724  10.795 -0.0259  0.4249  0.3307
  140SAPE  H11A15226   3.292   2.709  10.865  1.0648  0.0420  1.5885
  140SAPE  H11B15227   3.341   2.777  10.703  1.0809 -1.0420 -0.9830
  140SAPE     P15228   3.496   2.932  10.910 -0.0473 -0.3408 -0.1314
  140SAPE   O1315229   3.397   2.975  11.012  0.3835  0.4607 -0.3205
  140SAPE   O1415230   3.639   2.962  10.944  0.3090 -0.7912 -0.5183
  140SAPE   O1215231   3.490   2.790  10.857 -0.1544 -0.6982  0.7354
  140SAPE   O1115232   3.464   3.005  10.776  0.4857 -0.1123 -0.0336
  140SAPE    C115233   3.554   3.001  10.657 -0.9566  0.1219 -0.4887
  140SAPE    HA15234   3.656   3.028  10.692 -0.2877 -1.5242 -1.0603
  140SAPE    HB15235   3.572   2.896  10.625 -4.7402 -0.0715 -2.5024
  140SAPE    C215236   3.501   3.084  10.540 -0.0241 -0.0800  0.5090
  140SAPE    HS15237   3.449   3.175  10.579  1.3767  1.3779 -0.9082
  140SAPE   O2115238   3.415   2.996  10.468  0.0287  0.3585  0.1444
  140SAPE   C2115239   3.318   3.064  10.406 -0.2030 -0.0183  0.5474
  140SAPE   O2215240   3.306   3.182  10.399  0.8939 -0.4563  0.0482
  140SAPE   C2215241   3.225   2.972  10.330 -0.4684  0.2760  0.1806
  140SAPE   H2R15242   3.288   2.925  10.252 -0.2886  0.7028  0.0672
  140SAPE   H2S15243   3.191   2.896  10.404 -0.5112  1.1455  1.0847
  140SAPE    C315244   3.614   3.132  10.444 -0.2447  0.1767  0.0092
  140SAPE    HX15245   3.679   3.187  10.516 -0.9478  1.0029  0.0321
  140SAPE    HY15246   3.569   3.207  10.374 -0.3156  1.6123  1.5284
  140SAPE   O3115247   3.691   3.019  10.399 -0.5792  0.0715 -0.1508
  140SAPE   C3115248   3.688   2.999  10.270 -0.1659 -1.0291 -0.0490
  140SAPE   O3215249   3.633   3.069  10.190  0.0846  0.5226 -0.1906
  140SAPE   C3215250   3.753   2.861  10.238  0.8957  0.3585  0.1358
  140SAPE   H2X15251   3.675   2.806  10.182 -0.0176  0.1166  1.5627
  140SAPE   H2Y15252   3.765   2.802  10.331  0.3031 -1.2351 -0.7719
  140SAPE   C2315253   3.103   3.049  10.273 -0.9022 -0.0369  0.0980
  140SAPE   H3R15254   3.072   3.132  10.340  1.0462  0.6923  0.1471
  140SAPE   H3S15255   3.010   2.990  10.256 -1.8557  1.6268 -0.8150
  140SAPE   C2415256   3.128   3.112  10.130  0.1496  0.1978  0.0432
  140SAPE   H4R15257   3.213   3.183  10.144  1.9332 -2.0150  1.2429
  140SAPE   H4S15258   3.035   3.165  10.103 -0.1689  0.1626  1.0292
  140SAPE   C2515259   3.156   3.002  10.027  0.4368 -0.4524 -0.4805
  140SAPE   H5R15260   3.089   2.917  10.045 -0.3837  0.3865  0.5065
  140SAPE   C2615261   3.254   2.992   9.937 -0.2217  0.3647  0.0552
  140SAPE   H6R15262   3.242   2.906   9.870 -3.1092  0.4394  0.3574
  140SAPE   C2715263   3.365   3.094   9.913  0.0934 -0.1428 -0.1627
  140SAPE   H7R15264   3.459   3.040   9.933 -0.3245 -0.9895 -0.4325
  140SAPE   H7S15265   3.364   3.177   9.987 -0.8881  1.9138 -2.3214
  140SAPE   C2815266   3.375   3.167   9.769  0.2096 -0.5945 -0.7619
  140SAPE   H8R15267   3.385   3.276   9.782 -1.3687 -0.5067 -0.0482
  140SAPE   C2915268   3.378   3.114   9.643 -0.5181  0.4623 -0.3210
  140SAPE   H9R15269   3.370   3.185   9.559 -2.7331 -0.6488 -1.1358
  140SAPE  C21015270   3.372   2.968   9.607  0.4091 -0.0975 -0.3078
  140SAPE  H10R15271   3.401   2.918   9.701  2.2470  0.8125 -0.3572
  140SAPE  H10S15272   3.461   2.951   9.543  1.2876  2.2237  0.1851
  140SAPE  C21115273   3.233   2.943   9.547  0.5792 -0.1942  0.4793
  140SAPE  H11R15274   3.152   2.973   9.616  0.9516  0.5510  0.6051
  140SAPE  C21215275   3.205   2.882   9.433  0.0329  0.6630  0.0870
  140SAPE  H12R15276   3.101   2.851   9.416  0.9243 -1.7425 -1.6103
  140SAPE  C21315277   3.303   2.829   9.335  0.2587 -0.2647 -0.5745
  140SAPE  H13R15278   3.263   2.746   9.274 -0.7154  0.2145 -0.6034
  140SAPE  H13S15279   3.396   2.791   9.383  2.1190 -0.1060 -3.7169
  140SAPE  C21415280   3.348   2.935   9.237 -0.1244  0.5510  0.0004
  140SAPE  H14R15281   3.391   3.019   9.294 -0.5968  0.0659  1.1048
  140SAPE  C21515282   3.351   2.930   9.105 -0.0824 -0.5013 -0.4849
  140SAPE  H15R15283   3.371   3.027   9.056  2.0951  0.6812  2.4698
  140SAPE  C21615284   3.306   2.810   9.020  0.0430  0.5935 -0.2941
  140SAPE  H16R15285   3.261   2.725   9.076  0.2209  0.7208  0.0447
  140SAPE  H16S15286   3.394   2.780   8.960 -1.1691  0.4686 -2.0932
  140SAPE  C21715287   3.201   2.848   8.917 -0.1575 -0.2770  0.0859
  140SAPE  H17R15288   3.239   2.926   8.848 -0.7105 -0.3877 -0.3451
  140SAPE  H17S15289   3.113   2.890   8.970 -1.1375  0.2187 -1.8728
  140SAPE  C21815290   3.149   2.733   8.824 -0.2889 -0.2496 -0.4757
  140SAPE  H18R15291   3.116   2.655   8.897 -3.3907  1.0345 -0.3377
  140SAPE  H18S15292   3.231   2.691   8.763  0.1913 -0.2923  0.1825
  140SAPE  C21915293   3.028   2.761   8.742  0.1968  0.9978 -1.2485
  140SAPE  H19R15294   3.064   2.823   8.657 -0.1341  1.1881 -1.2532
  140SAPE  H19S15295   2.947   2.810   8.801 -0.4547 -1.2971 -0.0949
  140SAPE  C22015296   2.959   2.637   8.687 -0.7211  0.4146  0.3563
  140SAPE  H20R15297   2.886   2.666   8.609 -1.5190 -1.0254  0.5544
  140SAPE  H20S15298   2.909   2.576   8.765  0.1935 -3.0385 -1.5704
  140SAPE  H20T15299   3.038   2.574   8.641 -1.6694 -0.4646 -0.1025
  140SAPE   C3315300   3.882   2.888  10.164 -0.8678 -0.2738 -0.2533
  140SAPE   H3X15301   3.938   2.792  10.163 -1.8578 -0.8974  0.9829
  140SAPE   H3Y15302   3.949   2.966  10.206 -0.2163 -0.7701 -0.3572
  140SAPE   C3415303   3.865   2.927  10.015 -0.1040  0.7321  0.3793
  140SAPE   H4X15304   3.965   2.941   9.968  0.5895  0.5992  1.7760
  140SAPE   H4Y15305   3.805   3.020  10.003 -1.5787 -0.3592 -1.1475
  140SAPE   C3515306   3.797   2.833   9.925  0.1050 -0.4742  0.3598
  140SAPE   H5X15307   3.691   2.821   9.955 -0.4190 -0.6485 -1.4611
  140SAPE   H5Y15308   3.847   2.735   9.933 -0.6177 -0.7980  1.0614
  140SAPE   C3615309   3.810   2.876   9.778  0.0349  0.7461  0.3592
  140SAPE   H6X15310   3.916   2.904   9.758  0.8329 -1.6753  0.8134
  140SAPE   H6Y15311   3.744   2.962   9.754 -2.6770 -1.4910 -0.9147
  140SAPE   C3715312   3.753   2.770   9.683  0.7001 -0.0341  0.8854
  140SAPE   H7X15313   3.648   2.738   9.695  0.3551 -0.5420 -2.4904
  140SAPE   H7Y15314   3.819   2.681   9.692  0.0412 -0.9661 -2.2551
  140SAPE   C3815315   3.756   2.823   9.537  0.3784 -0.0246 -0.3081
  140SAPE   H8X15316   3.862   2.851   9.520 -0.6149  4.9227  0.2771
  140SAPE   H8Y15317   3.692   2.912   9.517  0.7093  0.0134 -1.2222
  140SAPE   C3915318   3.725   2.712   9.439 -0.3002  0.3026  0.5170
  140SAPE   H9X15319   3.639   2.649   9.471 -0.3532 -1.1540 -2.1751
  140SAPE   H9Y15320   3.804   2.634   9.438 -1.8789 -1.4101  1.5087
  140SAPE  C31015321   3.689   2.753   9.292  0.5662  0.2834  0.2120
  140SAPE  H10X15322   3.605   2.826   9.297 -1.4987 -1.8406 -1.2397
  140SAPE  H10Y15323   3.654   2.656   9.250  1.5716  0.3777 -0.9098
  140SAPE  C31115324   3.802   2.795   9.204 -0.2350  0.4123 -0.2227
  140SAPE  H11X15325   3.877   2.714   9.190  0.2729  1.0176 -1.0692
  140SAPE  H11Y15326   3.851   2.876   9.260 -1.3566  0.3672  0.8697
  140SAPE  C31215327   3.758   2.834   9.065 -0.4222  0.0297  0.7976
  140SAPE  H12X15328   3.851   2.871   9.016 -1.0149 -1.4438 -1.6352
  140SAPE  H12Y15329   3.676   2.909   9.062 -0.1449  0.3042 -0.9481
  140SAPE  C31315330   3.710   2.708   8.985  0.1041  0.4795  0.3226
  140SAPE  H13X15331   3.613   2.696   9.039 -1.0513  2.5303 -1.1233
  140SAPE  H13Y15332   3.782   2.629   9.012  0.4428  0.2378 -1.2324
  140SAPE  C31415333   3.705   2.713   8.830 -0.5819 -0.3105  0.2445
  140SAPE  H14X15334   3.669   2.614   8.795  1.7981 -1.1566  0.0666
  140SAPE  H14Y15335   3.805   2.720   8.782 -1.0295  0.2133 -0.6414
  140SAPE  C31515336   3.613   2.823   8.769 -0.0477 -0.4969 -0.6098
  140SAPE  H15X15337   3.675   2.915   8.760  0.9176 -1.1699 -1.0312
  140SAPE  H15Y15338   3.533   2.857   8.838  1.4614 -1.2128  1.5614
  140SAPE  C31615339   3.552   2.779   8.633  0.1435 -0.2094 -0.5144
  140SAPE  H16X15340   3.500   2.863   8.583 -0.9345  0.1725  1.1362
  140SAPE  H16Y15341   3.473   2.703   8.652  1.5403 -1.5260  0.2900
  140SAPE  C31715342   3.658   2.721   8.534 -0.2513  0.2332 -0.8565
  140SAPE  H17X15343   3.709   2.629   8.568 -0.0981  0.6152 -0.0256
  140SAPE  H17Y15344   3.724   2.810   8.528 -1.3586  1.2007  0.7076
  140SAPE  C31815345   3.602   2.696   8.399 -0.5852  0.2936 -0.5294
  140SAPE  H18X15346   3.674   2.647   8.331 -1.3048  0.8460 -1.7367
  140SAPE  H18Y15347   3.571   2.795   8.360  2.5477  1.5382 -0.0948
  140SAPE  H18Z15348   3.517   2.625   8.409  1.9038 -2.6809  1.4598
  141SAPE     N15349   2.695   0.672  10.973 -0.3621  0.0425  0.3276
  141SAPE   HN115350   2.622   0.631  11.035 -1.0591 -0.0528 -0.5282
  141SAPE   HN215351   2.648   0.748  10.918 -0.6155 -0.6203 -0.3834
  141SAPE   HN315352   2.726   0.594  10.912  1.2517  0.0250  1.1382
  141SAPE   C1215353   2.806   0.732  11.046 -0.7565  0.3826 -0.8453
  141SAPE  H12A15354   2.850   0.656  11.113 -1.4184 -0.1056 -0.9470
  141SAPE  H12B15355   2.760   0.819  11.099  0.0969 -0.3147  1.1150
  141SAPE   C1115356   2.906   0.786  10.940  0.0635  0.1864 -0.0692
  141SAPE  H11A15357   2.998   0.814  10.996 -0.4422 -1.0065  1.4196
  141SAPE  H11B15358   2.853   0.871  10.892 -1.5907 -1.1769 -0.7540
  141SAPE     P15359   2.991   0.714  10.697  0.6025  0.5825  0.5748
  141SAPE   O1315360   3.141   0.718  10.691  0.4351 -0.1626  0.1723
  141SAPE   O1415361   2.929   0.611  10.610  0.2921 -0.5917  0.3675
  141SAPE   O1215362   2.941   0.685  10.845 -0.5299 -0.6592 -0.0027
  141SAPE   O1115363   2.928   0.846  10.649 -0.3903  0.1526  0.3696
  141SAPE    C115364   3.003   0.965  10.636  0.3239 -0.5366 -0.1073
  141SAPE    HA15365   3.032   1.008  10.734 -1.4727  3.3711 -1.0823
  141SAPE    HB15366   3.096   0.950  10.576 -0.5109  0.1663 -1.6426
  141SAPE    C215367   2.912   1.075  10.567  1.1525  0.1237 -0.0707
  141SAPE    HS15368   2.840   1.105  10.646  0.5338  0.4683 -0.7533
  141SAPE   O2115369   2.839   1.036  10.447 -0.1758  0.5918  0.0730
  141SAPE   C2115370   2.723   0.970  10.465 -0.8577  0.0910  0.1973
  141SAPE   O2215371   2.654   0.992  10.560  0.5038  0.0047 -0.3572
  141SAPE   C2215372   2.686   0.900  10.338 -0.4438 -0.7245  0.1791
  141SAPE   H2R15373   2.770   0.899  10.265 -1.1202  2.2514 -0.7901
  141SAPE   H2S15374   2.671   0.793  10.361 -1.1894 -0.8499 -0.8044
  141SAPE    C315375   3.002   1.195  10.519  0.1111 -0.0025 -0.4642
  141SAPE    HX15376   3.057   1.235  10.607  1.6204 -3.2972  0.2594
  141SAPE    HY15377   2.940   1.269  10.463  1.3217  1.2199 -0.2434
  141SAPE   O3115378   3.106   1.140  10.430 -0.4966  0.0054  0.0429
  141SAPE   C3115379   3.219   1.207  10.407 -0.0366  0.0627 -0.0729
  141SAPE   O3215380   3.244   1.313  10.464  0.0450 -0.8014  0.0761
  141SAPE   C3215381   3.298   1.137  10.303  0.6757  0.2759  0.3411
  141SAPE   H2X15382   3.238   1.107  10.214 -0.1007  3.3008 -0.2573
  141SAPE   H2Y15383   3.325   1.038  10.346  1.5645 -0.0130 -0.8241
  141SAPE   C2315384   2.554   0.939  10.270 -0.1885  1.0475 -0.8288
  141SAPE   H3R15385   2.465   0.922  10.334  0.7960 -1.2410  0.0510
  141SAPE   H3S15386   2.551   0.858  10.193  1.5790 -0.7306  0.8662
  141SAPE   C2415387   2.552   1.073  10.195  1.1738 -0.1154  0.0181
  141SAPE   H4R15388   2.545   1.156  10.268 -1.3882  0.1061 -0.4054
  141SAPE   H4S15389   2.461   1.076  10.131  2.2838  2.3774 -1.5889
  141SAPE   C2515390   2.670   1.111  10.104  0.0725  0.3447 -0.4813
  141SAPE   H5R15391   2.745   1.183  10.141  0.5556  1.4009 -3.2841
  141SAPE   C2615392   2.680   1.065   9.980 -0.2039  0.7207 -0.4139
  141SAPE   H6R15393   2.763   1.100   9.916  1.2166 -0.9067  0.4757
  141SAPE   C2715394   2.585   0.971   9.919  0.0830 -0.6502 -0.3338
  141SAPE   H7R15395   2.553   0.897   9.995 -1.5018  0.2254 -0.0918
  141SAPE   H7S15396   2.638   0.914   9.840 -0.1405  1.0575 -1.8004
  141SAPE   C2815397   2.472   1.036   9.847 -0.5011 -0.4515  0.0703
  141SAPE   H8R15398   2.381   1.023   9.907 -0.3839  1.0638  0.6157
  141SAPE   C2915399   2.471   1.090   9.721 -0.8991 -0.2806  0.2049
  141SAPE   H9R15400   2.376   1.109   9.669 -0.4717  0.9190 -0.1814
  141SAPE  C21015401   2.590   1.089   9.627 -0.0812  0.1174  0.5646
  141SAPE  H10R15402   2.681   1.044   9.672 -2.0114 -2.5499  2.0878
  141SAPE  H10S15403   2.607   1.197   9.607  1.5822  0.0432  1.4186
  141SAPE  C21115404   2.556   1.027   9.491 -0.0709 -0.1655 -1.2671
  141SAPE  H11R15405   2.537   0.919   9.502  1.5005 -0.4568 -1.2333
  141SAPE  C21215406   2.560   1.079   9.367  0.5306 -0.3618 -0.3934
  141SAPE  H12R15407   2.527   1.016   9.282  0.5509 -0.2470 -0.4865
  141SAPE  C21315408   2.580   1.224   9.330  0.2447  0.0883 -0.5596
  141SAPE  H13R15409   2.570   1.287   9.421 -0.1320 -1.3036  0.3993
  141SAPE  H13S15410   2.495   1.260   9.269  0.5723 -1.3843 -1.9481
  141SAPE  C21415411   2.717   1.252   9.265  0.5700  0.3655  0.9308
  141SAPE  H14R15412   2.806   1.246   9.329  0.7860 -2.6653  0.4887
  141SAPE  C21515413   2.728   1.269   9.129  0.8342 -0.3768 -0.0236
  141SAPE  H15R15414   2.831   1.288   9.094  1.8069 -1.4738  2.0555
  141SAPE  C21615415   2.617   1.266   9.023 -0.0929 -0.8522  0.1288
  141SAPE  H16R15416   2.595   1.371   8.995  3.9259  0.5075  1.4622
  141SAPE  H16S15417   2.520   1.224   9.057 -1.4712  1.7318 -0.3651
  141SAPE  C21715418   2.658   1.169   8.909  0.7875  0.6341 -0.1641
  141SAPE  H17R15419   2.567   1.157   8.846 -1.0320  1.1685  2.2461
  141SAPE  H17S15420   2.669   1.070   8.958 -2.5460 -0.3944 -1.2640
  141SAPE  C21815421   2.781   1.204   8.834 -0.2746  0.1647  0.1055
  141SAPE  H18R15422   2.854   1.259   8.897 -0.4364 -0.4299  0.8271
  141SAPE  H18S15423   2.754   1.283   8.761  0.7499  0.3268 -0.1171
  141SAPE  C21915424   2.852   1.077   8.764 -0.5243 -0.3189 -0.6822
  141SAPE  H19R15425   2.805   1.025   8.678  1.0901 -0.8745 -1.2705
  141SAPE  H19S15426   2.866   0.990   8.832  0.5354  0.4669  0.1337
  141SAPE  C22015427   2.996   1.112   8.729 -0.8908  0.9003 -0.0334
  141SAPE  H20R15428   2.999   1.205   8.668 -0.0229 -0.5654 -2.3768
  141SAPE  H20S15429   3.048   1.029   8.676 -0.4985  0.7703  0.5465
  141SAPE  H20T15430   3.060   1.129   8.818  1.9578  0.4759 -1.8537
  141SAPE   C3315431   3.420   1.223  10.256 -0.1945 -0.1109 -0.4771
  141SAPE   H3X15432   3.487   1.230  10.344 -0.0790  0.4015 -0.5998
  141SAPE   H3Y15433   3.386   1.325  10.226  1.5606 -0.0524 -2.5077
  141SAPE   C3415434   3.498   1.166  10.147 -1.0746  0.3635 -0.4170
  141SAPE   H4X15435   3.537   1.064  10.167  0.4125  1.2425  1.5085
  141SAPE   H4Y15436   3.597   1.214  10.128 -1.3137  2.1281  2.3282
  141SAPE   C3515437   3.429   1.169  10.012 -0.6717 -0.2164  0.3940
  141SAPE   H5X15438   3.387   1.270   9.993  2.7527  1.5625  1.2734
  141SAPE   H5Y15439   3.347   1.096   9.998  0.6870 -1.7613  0.2194
  141SAPE   C3615440   3.523   1.146   9.888 -0.3858  0.1312  0.2962
  141SAPE   H6X15441   3.566   1.045   9.904 -1.2905 -0.2703  0.2611
  141SAPE   H6Y15442   3.612   1.212   9.887  0.8076 -1.3823 -1.4151
  141SAPE   C3715443   3.465   1.166   9.745 -0.1626 -0.8127  0.1074
  141SAPE   H7X15444   3.438   1.273   9.730 -0.0615 -0.7040  0.6601
  141SAPE   H7Y15445   3.372   1.107   9.735 -0.2262 -0.5080 -1.3459
  141SAPE   C3815446   3.559   1.104   9.643 -0.1618  0.2106 -0.2297
  141SAPE   H8X15447   3.590   1.000   9.665 -2.4131 -1.0643 -2.5570
  141SAPE   H8Y15448   3.651   1.167   9.645  0.1278 -0.1633 -1.1562
  141SAPE   C3915449   3.490   1.106   9.506 -0.0643 -0.3657 -0.7066
  141SAPE   H9X15450   3.473   1.214   9.487  1.2787 -0.2249 -1.2172
  141SAPE   H9Y15451   3.392   1.054   9.504  0.5543 -1.5309 -1.6527
  141SAPE  C31015452   3.567   1.050   9.382 -1.1168 -0.0966  0.1920
  141SAPE  H10X15453   3.677   1.067   9.386 -1.0094 -0.8763  0.5849
  141SAPE  H10Y15454   3.528   1.122   9.307  1.2112 -0.2860 -1.3050
  141SAPE  C31115455   3.529   0.905   9.356  0.2238 -0.2157  0.1313
  141SAPE  H11X15456   3.420   0.890   9.369  0.2059  0.0100  0.2358
  141SAPE  H11Y15457   3.589   0.846   9.429  0.5485  1.5548  1.3332
  141SAPE  C31215458   3.559   0.865   9.213 -0.3719  0.4782  0.0302
  141SAPE  H12X15459   3.541   0.755   9.209 -0.6505  0.5445 -0.5792
  141SAPE  H12Y15460   3.660   0.884   9.171 -0.3026 -2.3504 -1.3706
  141SAPE  C31315461   3.457   0.927   9.119 -0.5329  0.5996 -0.3346
  141SAPE  H13X15462   3.444   1.037   9.134 -0.7216  0.4825  0.4005
  141SAPE  H13Y15463   3.362   0.879   9.151 -0.0620  0.0477  0.2418
  141SAPE  C31415464   3.504   0.902   8.979 -0.3111 -0.2069  0.2506
  141SAPE  H14X15465   3.521   0.792   8.971  0.1137 -0.0796 -0.7550
  141SAPE  H14Y15466   3.608   0.937   8.961 -0.5111 -0.8035 -2.4810
  141SAPE  C31515467   3.416   0.968   8.873  0.0113 -0.5590  0.5676
  141SAPE  H15X15468   3.426   1.078   8.870 -0.8907 -0.3931  2.2979
  141SAPE  H15Y15469   3.310   0.944   8.897 -0.3129 -1.3807 -1.4238
  141SAPE  C31615470   3.447   0.906   8.734 -0.0963  0.0339 -0.5835
  141SAPE  H16X15471   3.455   0.796   8.736  2.0168  0.1095  2.5428
  141SAPE  H16Y15472   3.548   0.937   8.701  0.0443 -0.3395 -0.5031
  141SAPE  C31715473   3.340   0.941   8.632 -0.0138 -0.0380  0.5219
  141SAPE  H17X15474   3.356   1.042   8.588  0.7079 -0.7477 -0.9140
  141SAPE  H17Y15475   3.244   0.941   8.689 -1.8531  1.8550 -2.3381
  141SAPE  C31815476   3.321   0.830   8.522 -0.7341 -0.0681 -0.0314
  141SAPE  H18X15477   3.245   0.852   8.445  1.2979 -1.0192 -2.4467
  141SAPE  H18Y15478   3.290   0.733   8.564 -1.3343  0.1298 -0.0145
  141SAPE  H18Z15479   3.419   0.799   8.480 -0.4406 -0.3681  0.8542
  142SAPE     N15480   4.598   0.050  11.029 -0.0758  0.6838 -0.4028
  142SAPE   HN115481   4.521   0.116  11.008 -1.6565 -0.4579  1.4557
  142SAPE   HN215482   4.658   0.088  11.105 -0.5013  0.5439  0.0045
  142SAPE   HN315483   4.653   0.040  10.941 -0.8674 -3.4273 -0.6248
  142SAPE   C1215484   4.539  -0.075  11.084 -0.1820 -0.0559 -0.3653
  142SAPE  H12A15485   4.487  -0.054  11.180 -2.4177 -0.5217 -1.4055
  142SAPE  H12B15486   4.626  -0.137  11.113 -1.0700 -0.0545  2.6882
  142SAPE   C1115487   4.447  -0.140  10.976  0.8273 -0.6101 -0.3056
  142SAPE  H11A15488   4.393  -0.214  11.038  1.7793 -0.8236  0.2864
  142SAPE  H11B15489   4.504  -0.188  10.893  0.1273 -2.9455  0.4878
  142SAPE     P15490   4.240  -0.064  10.843  0.1104  0.1938  0.4068
  142SAPE   O1315491   4.255  -0.194  10.777  1.0673  0.0914  0.2757
  142SAPE   O1415492   4.120  -0.045  10.926  0.4559  0.2595 -0.1468
  142SAPE   O1215493   4.369  -0.033  10.932  0.4991 -0.4895  0.2300
  142SAPE   O1115494   4.245   0.047  10.732  0.3086  0.3594 -0.3746
  142SAPE    C115495   4.366   0.088  10.671 -0.2418 -0.4011  0.0397
  142SAPE    HA15496   4.382   0.196  10.693  4.9704 -0.5422 -1.6817
  142SAPE    HB15497   4.455   0.038  10.714  1.3399  2.3299  0.2095
  142SAPE    C215498   4.367   0.070  10.518 -1.1060  0.1306 -0.3184
  142SAPE    HS15499   4.464   0.110  10.480  0.2908 -0.3213  2.5362
  142SAPE   O2115500   4.248   0.122  10.458  0.4992 -0.5118  0.6132
  142SAPE   C2115501   4.261   0.186  10.346  1.0351 -0.0471  0.4702
  142SAPE   O2215502   4.365   0.172  10.273  0.2562  0.4590  0.2017
  142SAPE   C2215503   4.134   0.273  10.317 -0.3689  0.5097 -0.4909
  142SAPE   H2R15504   4.050   0.200  10.312  1.2882 -1.4743 -0.5286
  142SAPE   H2S15505   4.115   0.337  10.406  2.4850  1.4752 -0.4787
  142SAPE    C315506   4.372  -0.080  10.486 -0.1309  0.1243 -0.2200
  142SAPE    HX15507   4.285  -0.126  10.537  0.3893 -1.8960 -1.0387
  142SAPE    HY15508   4.455  -0.130  10.541 -0.3194  0.0181 -0.0322
  142SAPE   O3115509   4.371  -0.104  10.344 -0.4816 -0.2030 -0.5071
  142SAPE   C3115510   4.497  -0.111  10.285  0.1305 -0.4067  0.2974
  142SAPE   O3215511   4.598  -0.116  10.353  0.1069 -0.6647  0.4848
  142SAPE   C3215512   4.485  -0.110  10.136 -0.2317  0.2795 -0.2616
  142SAPE   H2X15513   4.570  -0.057  10.089 -1.6329  2.5770 -0.3296
  142SAPE   H2Y15514   4.398  -0.048  10.105 -0.6836 -0.2366 -0.0442
  142SAPE   C2315515   4.136   0.353  10.186 -0.1380  0.3901 -0.4414
  142SAPE   H3R15516   4.242   0.344  10.155  0.1798 -1.0535  0.9312
  142SAPE   H3S15517   4.116   0.459  10.209  1.4105  0.1430  2.5581
  142SAPE   C2415518   4.040   0.287  10.077 -0.7217  0.0706  0.6638
  142SAPE   H4R15519   4.030   0.340   9.980 -1.8402 -0.3738  0.5236
  142SAPE   H4S15520   3.935   0.291  10.113 -0.8403 -2.7750  0.8487
  142SAPE   C2515521   4.075   0.139  10.059  0.1420 -0.3519 -0.8073
  142SAPE   H5R15522   4.009   0.072  10.117  0.3252 -2.1215 -2.5294
  142SAPE   C2615523   4.163   0.096   9.973 -0.1709  0.0527  0.2240
  142SAPE   H6R15524   4.180  -0.012   9.956  1.4056  0.3829 -0.4590
  142SAPE   C2715525   4.249   0.174   9.883 -0.2132 -0.4267 -0.5606
  142SAPE   H7R15526   4.246   0.279   9.920  0.4401 -1.0585  1.3882
  142SAPE   H7S15527   4.224   0.164   9.775  1.5504 -0.0376 -1.0404
  142SAPE   C2815528   4.392   0.140   9.909 -0.2857  0.2030  0.2665
  142SAPE   H8R15529   4.416   0.135  10.017  1.0431  1.4725  0.0724
  142SAPE   C2915530   4.491   0.133   9.822 -0.2591 -0.0727  0.6058
  142SAPE   H9R15531   4.587   0.089   9.854  0.9913  1.2716 -1.1648
  142SAPE  C21015532   4.477   0.162   9.676  0.1069 -0.5864 -0.8848
  142SAPE  H10R15533   4.569   0.210   9.637  0.0072  0.4427  0.0942
  142SAPE  H10S15534   4.398   0.240   9.664 -0.1623 -0.3029  2.1477
  142SAPE  C21115535   4.471   0.036   9.603 -0.1860  0.6945  0.0907
  142SAPE  H11R15536   4.443  -0.053   9.661 -1.9086  0.5012 -0.9565
  142SAPE  C21215537   4.474   0.031   9.467 -0.0840  0.7942 -0.2260
  142SAPE  H12R15538   4.472  -0.067   9.418  1.7944  0.7238 -0.2420
  142SAPE  C21315539   4.497   0.155   9.387 -0.6080  0.1455 -0.0117
  142SAPE  H13R15540   4.560   0.220   9.451 -1.1765 -0.7997  1.5622
  142SAPE  H13S15541   4.398   0.202   9.369  1.0563  3.2938 -1.7142
  142SAPE  C21415542   4.555   0.139   9.250  0.0918 -0.2787 -0.3391
  142SAPE  H14R15543   4.661   0.162   9.234 -0.1077  1.6763  0.7915
  142SAPE  C21515544   4.489   0.078   9.150  1.0218 -0.0215  0.1585
  142SAPE  H15R15545   4.537   0.083   9.051  0.3460  0.3367 -0.1613
  142SAPE  C21615546   4.345   0.023   9.141  0.4150 -0.0371 -0.2533
  142SAPE  H16R15547   4.301   0.020   9.243  0.6880 -0.0867 -0.1358
  142SAPE  H16S15548   4.348  -0.084   9.112 -0.5514 -0.0008 -0.5153
  142SAPE  C21715549   4.254   0.101   9.045  0.2834 -0.5519 -0.0012
  142SAPE  H17R15550   4.171   0.031   9.021  0.2656 -0.0649 -1.5116
  142SAPE  H17S15551   4.290   0.120   8.941 -1.2487 -1.2553 -0.6916
  142SAPE  C21815552   4.194   0.231   9.105 -0.0580 -0.2268  0.1943
  142SAPE  H18R15553   4.276   0.306   9.103  0.0158 -0.3095 -0.8744
  142SAPE  H18S15554   4.175   0.213   9.213 -2.2488 -2.4771 -0.4530
  142SAPE  C21915555   4.071   0.292   9.043  0.1590  0.8850  1.3513
  142SAPE  H19R15556   3.977   0.241   9.075 -0.2942  1.2137  0.5685
  142SAPE  H19S15557   4.073   0.296   8.932  2.1845  1.5945  1.3763
  142SAPE  C22015558   4.048   0.434   9.099  0.0299  0.2729 -0.1103
  142SAPE  H20R15559   3.984   0.445   9.190  0.8053  0.0283  0.4725
  142SAPE  H20S15560   3.989   0.488   9.021  1.3605  1.4252 -0.3625
  142SAPE  H20T15561   4.145   0.486   9.115 -0.0658 -0.0236  1.6014
  142SAPE   C3315562   4.477  -0.249  10.075 -0.3724 -1.2384 -1.0702
  142SAPE   H3X15563   4.397  -0.313  10.118 -0.6596  0.1796  0.6297
  142SAPE   H3Y15564   4.573  -0.301  10.098 -0.0598 -0.0333  0.5686
  142SAPE   C3415565   4.432  -0.229   9.936 -1.4255 -0.3658 -0.1321
  142SAPE   H4X15566   4.524  -0.194   9.886 -0.2373  0.0574  2.2065
  142SAPE   H4Y15567   4.368  -0.139   9.930 -0.0288  0.6237 -0.6946
  142SAPE   C3515568   4.373  -0.347   9.870  0.4879  0.1509 -0.3604
  142SAPE   H5X15569   4.293  -0.394   9.931  2.1698  1.4768  3.1227
  142SAPE   H5Y15570   4.451  -0.421   9.842  0.3737  0.2388 -0.9255
  142SAPE   C3615571   4.339  -0.293   9.729 -0.3069  0.3504 -0.3796
  142SAPE   H6X15572   4.432  -0.254   9.683  1.1751 -1.3205  1.0667
  142SAPE   H6Y15573   4.255  -0.221   9.739  0.1381  0.6534  1.5440
  142SAPE   C3715574   4.286  -0.397   9.628  0.4463 -0.0751 -0.9056
  142SAPE   H7X15575   4.215  -0.462   9.683 -0.1848  0.2131 -1.3623
  142SAPE   H7Y15576   4.376  -0.451   9.593  1.4375 -0.6615  2.2423
  142SAPE   C3815577   4.224  -0.323   9.502  0.4712  0.1018 -0.8245
  142SAPE   H8X15578   4.302  -0.266   9.445  0.3006 -0.5936 -1.7816
  142SAPE   H8Y15579   4.133  -0.269   9.536  0.1603 -0.0153 -1.4541
  142SAPE   C3915580   4.175  -0.435   9.402 -0.2072 -0.4609  0.1133
  142SAPE   H9X15581   4.107  -0.503   9.458  1.0278 -2.2541 -0.4758
  142SAPE   H9Y15582   4.268  -0.490   9.376  0.8465  0.8902  0.9043
  142SAPE  C31015583   4.122  -0.381   9.268 -0.5332 -0.0456 -0.0027
  142SAPE  H10X15584   4.200  -0.321   9.216  0.5703 -2.5849 -1.4647
  142SAPE  H10Y15585   4.039  -0.311   9.291  1.9566  1.9255  4.0270
  142SAPE  C31115586   4.075  -0.489   9.167 -0.2418  0.3121 -1.4399
  142SAPE  H11X15587   3.989  -0.546   9.210  0.8542 -0.1712  0.2046
  142SAPE  H11Y15588   4.155  -0.565   9.161  0.2423  0.6601  0.1662
  142SAPE  C31215589   4.028  -0.446   9.029  0.6299  0.3226  0.2559
  142SAPE  H12X15590   4.114  -0.386   8.991  3.7658 -0.5075  5.1272
  142SAPE  H12Y15591   3.940  -0.380   9.037 -1.7959 -2.3616 -1.9669
  142SAPE  C31315592   4.001  -0.568   8.930  0.1664 -0.0370  0.2789
  142SAPE  H13X15593   3.918  -0.622   8.981 -0.9400  0.1495 -1.2293
  142SAPE  H13Y15594   4.099  -0.620   8.930  0.7925  1.0942  1.0117
  142SAPE  C31415595   3.964  -0.527   8.786  0.3733 -0.8130  0.0234
  142SAPE  H14X15596   4.029  -0.441   8.762 -1.5143  0.8114  0.4179
  142SAPE  H14Y15597   3.857  -0.497   8.778  0.7717  0.7215  0.0464
  142SAPE  C31515598   3.998  -0.638   8.679 -0.0386 -0.1372  0.0229
  142SAPE  H15X15599   3.935  -0.726   8.704  0.8145 -1.0114 -0.7994
  142SAPE  H15Y15600   4.106  -0.662   8.688  0.2573  0.9088 -0.5507
  142SAPE  C31615601   3.979  -0.593   8.537  0.3549  0.5486  0.2893
  142SAPE  H16X15602   4.041  -0.665   8.479  1.0875 -0.2184  1.9485
  142SAPE  H16Y15603   4.003  -0.487   8.512  0.8247  0.4884  0.4788
  142SAPE  C31715604   3.834  -0.607   8.483  0.3855 -0.2846 -0.2658
  142SAPE  H17X15605   3.830  -0.557   8.384  0.8436 -0.3879 -0.3398
  142SAPE  H17Y15606   3.763  -0.544   8.541 -0.1420 -0.7692 -0.3655
  142SAPE  C31815607   3.773  -0.751   8.459 -0.1306 -0.0274  0.4050
  142SAPE  H18X15608   3.830  -0.800   8.378  0.2174 -2.2319  1.8836
  142SAPE  H18Y15609   3.671  -0.740   8.417  0.7512 -0.7572 -2.0802
  142SAPE  H18Z15610   3.791  -0.820   8.545  0.8985  0.5386  0.6642
  143SAPE     N15611   5.306   0.335  10.892 -0.5120  0.0939 -0.0323
  143SAPE   HN115612   5.253   0.347  10.981 -1.9298 -0.4075 -0.7838
  143SAPE   HN215613   5.293   0.234  10.872 -1.1784  0.1713 -0.0187
  143SAPE   HN315614   5.403   0.360  10.920 -1.2487  3.9307 -0.3207
  143SAPE   C1215615   5.254   0.426  10.781 -0.4957 -0.0179  0.2376
  143SAPE  H12A15616   5.146   0.407  10.767 -0.9990  2.9165 -0.5461
  143SAPE  H12B15617   5.306   0.405  10.685  0.1489  0.9132  0.3661
  143SAPE   C1115618   5.288   0.575  10.817 -0.4706 -0.3586 -0.7716
  143SAPE  H11A15619   5.227   0.617  10.900  0.9437  0.1092  0.0618
  143SAPE  H11B15620   5.281   0.636  10.724  3.2765  1.9645  0.2459
  143SAPE     P15621   5.502   0.707  10.896 -0.0741 -0.0542  0.0479
  143SAPE   O1315622   5.399   0.807  10.932  0.5095 -0.3549  0.7739
  143SAPE   O1415623   5.588   0.675  11.009 -0.0027  0.6311  0.2486
  143SAPE   O1215624   5.426   0.577  10.850 -0.0048 -0.2574 -0.2019
  143SAPE   O1115625   5.586   0.757  10.769 -0.0424  0.1852  0.0420
  143SAPE    C115626   5.672   0.676  10.704 -0.1167 -0.2961  0.6485
  143SAPE    HA15627   5.778   0.702  10.724  0.1201  0.1731 -1.0578
  143SAPE    HB15628   5.673   0.576  10.754 -1.6061  0.3883  2.1691
  143SAPE    C215629   5.649   0.673  10.552  0.0756  0.5299 -0.9429
  143SAPE    HS15630   5.707   0.604  10.486  0.6511 -0.1753  0.2643
  143SAPE   O2115631   5.660   0.803  10.494 -0.1859  0.6671 -0.4976
  143SAPE   C2115632   5.786   0.824  10.455  0.3061 -0.2515 -0.4030
  143SAPE   O2215633   5.882   0.754  10.477 -0.0963  0.5119 -0.0097
  143SAPE   C2215634   5.786   0.950  10.371 -0.1494 -0.3135 -0.9073
  143SAPE   H2R15635   5.701   1.019  10.388 -0.8188 -1.4940  0.7513
  143SAPE   H2S15636   5.873   1.013  10.401 -0.1997 -1.0476  0.9198
  143SAPE    C315637   5.492   0.628  10.533 -0.2132 -0.2977 -0.3716
  143SAPE    HX15638   5.420   0.710  10.553 -0.2913 -0.2606 -0.7995
  143SAPE    HY15639   5.478   0.551  10.612  0.8339  0.6007  0.7320
  143SAPE   O3115640   5.474   0.566  10.398  0.9786 -0.4171 -0.0992
  143SAPE   C3115641   5.429   0.645  10.302  0.6158 -0.3341  0.0535
  143SAPE   O3215642   5.375   0.752  10.317 -0.1172  0.3421 -0.3877
  143SAPE   C3215643   5.460   0.582  10.166  0.1017 -0.6582 -0.4076
  143SAPE   H2X15644   5.525   0.495  10.191 -1.5456 -1.3763  1.6388
  143SAPE   H2Y15645   5.516   0.657  10.106  3.2456 -2.3182  0.2343
  143SAPE   C2315646   5.811   0.913  10.223 -0.1408 -0.3498 -0.3874
  143SAPE   H3R15647   5.736   0.843  10.179  1.3870 -1.4554 -1.3230
  143SAPE   H3S15648   5.903   0.852  10.214  1.5558  2.1890 -1.1164
  143SAPE   C2415649   5.821   1.036  10.123  0.6126  0.3261 -0.1351
  143SAPE   H4R15650   5.858   0.995  10.027  0.2428 -1.9581  0.6323
  143SAPE   H4S15651   5.905   1.093  10.168  1.1819 -1.0552  0.6383
  143SAPE   C2515652   5.690   1.109  10.125  0.4929 -0.3439 -0.1376
  143SAPE   H5R15653   5.652   1.159  10.215 -2.2507 -0.4456 -1.1529
  143SAPE   C2615654   5.605   1.121  10.019 -0.0465  0.7071 -0.1745
  143SAPE   H6R15655   5.504   1.163  10.032 -0.8695 -0.1228 -3.1229
  143SAPE   C2715656   5.621   1.066   9.882 -0.1225  0.0370 -0.5526
  143SAPE   H7R15657   5.728   1.083   9.859  0.4245  1.1877  2.3524
  143SAPE   H7S15658   5.569   1.113   9.796  2.4343 -0.5335 -2.5243
  143SAPE   C2815659   5.577   0.920   9.867 -0.5598 -0.8583  0.8027
  143SAPE   H8R15660   5.624   0.850   9.938  2.1281  0.4183  0.3914
  143SAPE   C2915661   5.488   0.879   9.778  0.5200  0.3050  0.2615
  143SAPE   H9R15662   5.478   0.769   9.774 -2.8840  0.4742  0.6269
  143SAPE  C21015663   5.421   0.953   9.671 -0.2176  0.2071  0.6056
  143SAPE  H10R15664   5.378   1.052   9.700  0.2696  0.6580 -0.1717
  143SAPE  H10S15665   5.334   0.903   9.624 -0.3631  1.2079 -0.2302
  143SAPE  C21115666   5.514   0.977   9.550 -0.2233 -0.6841 -0.0974
  143SAPE  H11R15667   5.604   0.914   9.540  0.6510  0.7800 -2.1213
  143SAPE  C21215668   5.497   1.061   9.451  0.6270 -0.0087 -0.4225
  143SAPE  H12R15669   5.561   1.070   9.362  1.4254 -2.4957 -0.1684
  143SAPE  C21315670   5.381   1.155   9.455  0.7148  0.0204 -0.2361
  143SAPE  H13R15671   5.415   1.255   9.490  2.9518 -0.8110  0.1902
  143SAPE  H13S15672   5.299   1.120   9.521 -0.8463  1.1906 -1.4797
  143SAPE  C21415673   5.317   1.153   9.314 -0.2559 -0.3635  0.4885
  143SAPE  H14R15674   5.238   1.078   9.295 -0.9883  0.7449 -1.0706
  143SAPE  C21515675   5.345   1.235   9.207  0.1173  0.3769 -0.4150
  143SAPE  H15R15676   5.309   1.215   9.105  2.4282  1.6022 -1.5540
  143SAPE  C21615677   5.456   1.342   9.206 -0.0695  0.5420 -0.6149
  143SAPE  H16R15678   5.547   1.312   9.262 -0.4189 -0.1464 -0.4109
  143SAPE  H16S15679   5.417   1.439   9.244 -0.6803  0.0184  0.1097
  143SAPE  C21715680   5.508   1.378   9.067 -0.2646 -0.0795  0.2703
  143SAPE  H17R15681   5.568   1.469   9.086  1.2902 -0.7365 -1.1931
  143SAPE  H17S15682   5.421   1.403   9.002 -0.1716  1.6114  0.7565
  143SAPE  C21815683   5.587   1.271   8.996 -0.1900 -0.0015 -1.0465
  143SAPE  H18R15684   5.542   1.170   9.004 -0.9089  0.2969 -1.2934
  143SAPE  H18S15685   5.689   1.273   9.042 -0.1200  1.6165 -1.2048
  143SAPE  C21915686   5.610   1.305   8.852 -0.2763  0.3666  0.0061
  143SAPE  H19R15687   5.631   1.413   8.833  1.5296  0.4040  1.8166
  143SAPE  H19S15688   5.512   1.285   8.804 -0.2573  2.6415 -1.1136
  143SAPE  C22015689   5.718   1.228   8.777 -0.5780 -0.0986 -0.4200
  143SAPE  H20R15690   5.815   1.228   8.830  0.2220 -0.6754 -1.8418
  143SAPE  H20S15691   5.738   1.275   8.679  0.7701 -1.3819 -0.7963
  143SAPE  H20T15692   5.692   1.120   8.769 -0.2511 -0.3566  1.4760
  143SAPE   C3315693   5.334   0.534  10.088  0.7426 -0.3059 -0.1254
  143SAPE   H3X15694   5.279   0.452  10.140  1.9917 -0.6789  0.6412
  143SAPE   H3Y15695   5.380   0.497   9.994  0.1997  0.0503 -0.5382
  143SAPE   C3415696   5.248   0.647  10.048  0.3321 -0.3149 -0.2562
  143SAPE   H4X15697   5.307   0.729  10.001 -1.1970  0.5023 -0.8045
  143SAPE   H4Y15698   5.187   0.703  10.122 -2.6292  1.3678 -3.6743
  143SAPE   C3515699   5.154   0.608   9.937 -0.1727 -0.2356  0.2759
  143SAPE   H5X15700   5.082   0.535   9.978 -0.6322  0.1340  0.1378
  143SAPE   H5Y15701   5.199   0.564   9.846  1.8556  1.6428  0.2807
  143SAPE   C3615702   5.073   0.728   9.880  0.4616 -0.1850 -0.8598
  143SAPE   H6X15703   5.143   0.803   9.837 -1.4091  0.5346 -2.8409
  143SAPE   H6Y15704   5.024   0.773   9.969 -0.3021 -0.0123 -1.3633
  143SAPE   C3715705   4.965   0.693   9.776 -1.0523 -0.0191 -0.5814
  143SAPE   H7X15706   4.876   0.653   9.829 -1.8358  1.7230 -0.5415
  143SAPE   H7Y15707   4.991   0.614   9.702 -2.5017 -1.1427  0.0729
  143SAPE   C3815708   4.916   0.819   9.700  0.5595 -0.1917  0.4014
  143SAPE   H8X15709   5.008   0.866   9.659  2.0942 -2.9757  0.3763
  143SAPE   H8Y15710   4.863   0.889   9.768  2.5263  1.1878  0.6057
  143SAPE   C3915711   4.813   0.783   9.586 -0.6061 -0.1344  0.5702
  143SAPE   H9X15712   4.719   0.750   9.636 -1.1124  1.5241  0.7723
  143SAPE   H9Y15713   4.857   0.707   9.519  0.3846  0.7339  0.2004
  143SAPE  C31015714   4.779   0.901   9.489 -0.6382  0.3937  0.1572
  143SAPE  H10X15715   4.879   0.932   9.451 -1.0923  0.4831 -0.9975
  143SAPE  H10Y15716   4.733   0.986   9.542 -0.1708  1.4129 -1.0200
  143SAPE  C31115717   4.689   0.859   9.367  0.0636 -0.5992 -0.7599
  143SAPE  H11X15718   4.595   0.818   9.411  0.0406  0.4894  0.2463
  143SAPE  H11Y15719   4.735   0.770   9.318  1.3332 -0.4578  0.1301
  143SAPE  C31215720   4.643   0.969   9.276 -0.0150  0.6549  0.2586
  143SAPE  H12X15721   4.730   0.997   9.212  0.2729 -0.6705  0.0395
  143SAPE  H12Y15722   4.612   1.057   9.337  1.3397  0.8922  0.6454
  143SAPE  C31315723   4.516   0.930   9.198  0.0068  0.4371  0.1761
  143SAPE  H13X15724   4.467   1.020   9.156  0.1079  1.0240  1.2482
  143SAPE  H13Y15725   4.449   0.895   9.279 -0.4265  1.2124  0.1588
  143SAPE  C31415726   4.534   0.814   9.096 -0.1910 -0.2936 -0.0003
  143SAPE  H14X15727   4.588   0.736   9.152 -0.1595  0.3427  0.8715
  143SAPE  H14Y15728   4.600   0.848   9.013 -1.8857  0.8016 -0.9892
  143SAPE  C31515729   4.399   0.774   9.037 -0.5120 -0.3858  0.0606
  143SAPE  H15X15730   4.336   0.860   9.005 -2.6907 -2.4662 -1.5966
  143SAPE  H15Y15731   4.336   0.728   9.116 -0.7316 -1.4720 -0.7253
  143SAPE  C31615732   4.396   0.674   8.917  0.3656  1.0073 -0.3874
  143SAPE  H16X15733   4.431   0.724   8.825 -0.4533  2.7983  0.2203
  143SAPE  H16Y15734   4.290   0.647   8.900  0.0729  1.5473  0.4667
  143SAPE  C31715735   4.457   0.532   8.938  0.3985 -0.0046  0.5568
  143SAPE  H17X15736   4.443   0.490   9.040  3.1639 -0.9094  0.6454
  143SAPE  H17Y15737   4.567   0.543   8.930  0.3360  0.6473  0.6061
  143SAPE  C31815738   4.417   0.428   8.829  0.1849  0.2565  0.0638
  143SAPE  H18X15739   4.317   0.382   8.844  0.5298 -0.0722  1.4705
  143SAPE  H18Y15740   4.489   0.343   8.823  0.1338  0.2968 -2.1836
  143SAPE  H18Z15741   4.426   0.456   8.722  0.3232  0.1728  0.0524
  144SAPE     N15742   2.293   0.962  11.187  0.0187 -0.2768  0.1200
  144SAPE   HN115743   2.278   0.991  11.285 -1.3863 -1.6051  0.3487
  144SAPE   HN215744   2.244   0.870  11.182 -1.4549  0.5254 -1.3944
  144SAPE   HN315745   2.393   0.940  11.172 -0.2022 -1.8168  0.6564
  144SAPE   C1215746   2.231   1.067  11.096 -0.0005  0.7678  0.3910
  144SAPE  H12A15747   2.301   1.153  11.105  0.5933  0.4210 -0.6839
  144SAPE  H12B15748   2.129   1.079  11.137 -0.3461 -1.9648  0.5223
  144SAPE   C1115749   2.215   1.037  10.940 -0.6277  0.6207  0.4296
  144SAPE  H11A15750   2.315   1.044  10.892 -0.3137  1.2201  1.1342
  144SAPE  H11B15751   2.154   1.119  10.897  0.6261 -0.3966 -3.7007
  144SAPE     P15752   2.193   0.816  10.796 -0.0453  0.3796  0.1988
  144SAPE   O1315753   2.295   0.875  10.709 -0.3744 -0.0341  0.7225
  144SAPE   O1415754   2.234   0.688  10.858  0.3746 -0.2779  0.2156
  144SAPE   O1215755   2.156   0.913  10.912  0.3711  0.3385  0.1048
  144SAPE   O1115756   2.060   0.799  10.719  0.1785  0.9089  0.1548
  144SAPE    C115757   2.051   0.700  10.617 -0.6153  0.4282 -0.5374
  144SAPE    HA15758   2.126   0.618  10.620  1.0507  1.8193 -1.7144
  144SAPE    HB15759   1.955   0.644  10.613 -1.1483  1.2892 -0.0755
  144SAPE    C215760   2.079   0.755  10.476  0.1138 -0.3279  0.6108
  144SAPE    HS15761   2.182   0.798  10.480 -0.0599  0.7457 -3.0201
  144SAPE   O2115762   2.003   0.870  10.441  0.0469 -0.6101 -0.2455
  144SAPE   C2115763   1.865   0.859  10.441 -0.0366  0.3914  0.3191
  144SAPE   O2215764   1.802   0.754  10.446 -0.3507 -0.3486  0.4098
  144SAPE   C2215765   1.800   0.997  10.423 -0.2766  0.6067  0.4177
  144SAPE   H2R15766   1.692   1.012  10.442  0.0446  2.3320  1.0384
  144SAPE   H2S15767   1.857   1.064  10.490  0.2461 -0.1828  0.7800
  144SAPE    C315768   2.083   0.638  10.359 -0.5156 -0.6114  0.4103
  144SAPE    HX15769   1.984   0.589  10.360 -1.4999  1.2599 -0.8224
  144SAPE    HY15770   2.172   0.576  10.384  0.1097 -0.5007 -1.4136
  144SAPE   O3115771   2.096   0.679  10.215 -0.3059  0.4685 -0.1517
  144SAPE   C3115772   2.215   0.730  10.197  0.0550  0.5648  0.0089
  144SAPE   O3215773   2.310   0.709  10.272 -0.1437 -0.4368 -0.5382
  144SAPE   C3215774   2.233   0.804  10.066  0.7561  0.1008 -0.6008
  144SAPE   H2X15775   2.335   0.847  10.066  0.6486  0.3922  0.4674
  144SAPE   H2Y15776   2.158   0.886  10.060  1.5935  0.8141 -1.5277
  144SAPE   C2315777   1.815   1.043  10.275 -0.3325 -0.6589 -1.0743
  144SAPE   H3R15778   1.906   1.003  10.226 -0.2008  0.0896 -1.4528
  144SAPE   H3S15779   1.823   1.152  10.293  0.5677 -0.8516 -0.2901
  144SAPE   C2415780   1.706   1.004  10.178  0.6921 -0.1379  0.0068
  144SAPE   H4R15781   1.731   1.061  10.086  2.1448 -2.5373 -1.1779
  144SAPE   H4S15782   1.607   1.038  10.213  0.6935  1.2847 -1.2436
  144SAPE   C2515783   1.722   0.861  10.138  0.2758 -0.1537  0.1894
  144SAPE   H5R15784   1.679   0.794  10.214  1.1603 -2.4799 -1.2574
  144SAPE   C2615785   1.774   0.808  10.024  0.0953 -0.2634 -0.1874
  144SAPE   H6R15786   1.768   0.698  10.021 -3.7732 -0.1984  0.6103
  144SAPE   C2715787   1.838   0.875   9.903  0.0081  0.2737 -0.2033
  144SAPE   H7R15788   1.875   0.787   9.845  1.3872 -1.1561  2.6514
  144SAPE   H7S15789   1.927   0.933   9.935  1.0006 -1.3363  0.0618
  144SAPE   C2815790   1.728   0.954   9.834  0.0095  0.1554 -0.4171
  144SAPE   H8R15791   1.664   1.013   9.901 -4.0249 -2.2864 -1.7582
  144SAPE   C2915792   1.702   0.958   9.700 -0.4501  0.6447 -0.9457
  144SAPE   H9R15793   1.632   1.039   9.673  0.8719  1.7974 -1.0217
  144SAPE  C21015794   1.786   0.900   9.595 -0.5422  0.4789  0.2652
  144SAPE  H10R15795   1.891   0.912   9.626  0.7675 -3.0300 -2.1603
  144SAPE  H10S15796   1.769   0.967   9.507 -0.0523  0.7802  0.3988
  144SAPE  C21115797   1.781   0.757   9.552 -0.3248  0.4359 -0.0713
  144SAPE  H11R15798   1.773   0.686   9.635 -0.2854 -0.9113 -1.1880
  144SAPE  C21215799   1.794   0.713   9.422 -0.7049  0.4534 -0.0894
  144SAPE  H12R15800   1.817   0.606   9.409 -0.0042  0.5609  0.2127
  144SAPE  C21315801   1.818   0.797   9.299 -0.0497 -0.3140  1.3544
  144SAPE  H13R15802   1.862   0.715   9.238  0.3383 -0.4889  1.8633
  144SAPE  H13S15803   1.891   0.879   9.314  2.3244 -1.6646 -1.6375
  144SAPE  C21415804   1.693   0.856   9.248 -0.2593  0.4452  0.2951
  144SAPE  H14R15805   1.616   0.873   9.324  0.6184 -0.3849  1.4188
  144SAPE  C21515806   1.684   0.903   9.119  0.3019  0.6123 -0.0672
  144SAPE  H15R15807   1.594   0.960   9.090  0.0947  0.0052 -0.6552
  144SAPE  C21615808   1.791   0.888   9.009 -0.1589  0.1654  0.3290
  144SAPE  H16R15809   1.754   0.842   8.916  1.4745  0.8593 -0.7169
  144SAPE  H16S15810   1.867   0.818   9.050  1.2596  0.4290 -1.6957
  144SAPE  C21715811   1.852   1.020   8.971 -0.0982 -0.0068 -0.1391
  144SAPE  H17R15812   1.946   1.006   8.914 -0.3505 -0.4563 -0.4444
  144SAPE  H17S15813   1.897   1.069   9.060  2.6528  2.5970 -2.7211
  144SAPE  C21815814   1.769   1.131   8.896 -0.3159 -0.2912  0.5774
  144SAPE  H18R15815   1.815   1.228   8.926 -0.5413 -0.3420  1.0913
  144SAPE  H18S15816   1.665   1.118   8.931 -1.1364 -0.7571 -1.8400
  144SAPE  C21915817   1.763   1.131   8.745  0.1297 -0.8738  0.4116
  144SAPE  H19R15818   1.858   1.171   8.701  0.6484  0.1792  2.3788
  144SAPE  H19S15819   1.683   1.195   8.704  0.0497 -1.4271 -0.3253
  144SAPE  C22015820   1.744   0.988   8.690 -0.0562  0.7346 -0.1993
  144SAPE  H20R15821   1.829   0.921   8.718 -0.8044  0.3954  1.3358
  144SAPE  H20S15822   1.742   1.000   8.579 -0.3735 -0.0807 -0.2884
  144SAPE  H20T15823   1.647   0.967   8.740  0.4193  2.0775  1.3545
  144SAPE   C3315824   2.209   0.717   9.944 -0.1187  0.3606 -0.2166
  144SAPE   H3X15825   2.103   0.685   9.933  0.1744 -1.0139  0.7443
  144SAPE   H3Y15826   2.268   0.623   9.951  0.2969  0.5789 -0.7342
  144SAPE   C3415827   2.246   0.786   9.814  0.2923  0.5881  0.4733
  144SAPE   H4X15828   2.356   0.799   9.806  0.6402 -0.6919  2.6059
  144SAPE   H4Y15829   2.213   0.890   9.838  0.0655  0.3612  1.1648
  144SAPE   C3515830   2.179   0.729   9.689  0.4272  0.2606  0.0835
  144SAPE   H5X15831   2.071   0.721   9.713  0.4146  1.6283  0.5689
  144SAPE   H5Y15832   2.213   0.628   9.657  1.2112  0.8276 -0.9233
  144SAPE   C3615833   2.196   0.816   9.567  0.2344  0.1053 -0.4477
  144SAPE   H6X15834   2.298   0.857   9.553 -0.4762  1.8906 -0.6787
  144SAPE   H6Y15835   2.113   0.890   9.564  0.8910  0.8387 -1.4472
  144SAPE   C3715836   2.166   0.748   9.433 -0.1790  0.1305  0.2403
  144SAPE   H7X15837   2.063   0.710   9.413 -0.1205  1.4629 -3.2361
  144SAPE   H7Y15838   2.245   0.670   9.425 -1.5053 -1.1027 -1.8350
  144SAPE   C3815839   2.200   0.842   9.317 -0.8667 -0.3858  0.1007
  144SAPE   H8X15840   2.304   0.881   9.320 -0.8794 -0.0984 -2.0136
  144SAPE   H8Y15841   2.137   0.934   9.320  0.9530  0.9837 -1.3236
  144SAPE   C3915842   2.186   0.782   9.174 -0.0740 -0.7563 -0.1112
  144SAPE   H9X15843   2.090   0.727   9.160 -1.2594  0.9161  1.1050
  144SAPE   H9Y15844   2.267   0.709   9.155 -0.8816 -1.8467  0.5317
  144SAPE  C31015845   2.181   0.890   9.061  0.2022  0.1626  0.6015
  144SAPE  H10X15846   2.123   0.980   9.088 -0.9272 -0.6233  0.8392
  144SAPE  H10Y15847   2.149   0.835   8.970  0.4407  1.8271 -0.5437
  144SAPE  C31115848   2.326   0.921   9.013  0.4164 -0.2497 -0.2100
  144SAPE  H11X15849   2.385   0.954   9.102 -0.6034 -0.4876  0.5697
  144SAPE  H11Y15850   2.334   0.999   8.935  2.9144 -2.1501 -2.0244
  144SAPE  C31215851   2.399   0.803   8.945  0.6425  0.1035  0.2761
  144SAPE  H12X15852   2.323   0.728   8.915  1.1379 -0.5928  0.7194
  144SAPE  H12Y15853   2.455   0.744   9.022  2.8882  0.3870 -1.0563
  144SAPE  C31315854   2.493   0.826   8.826  0.0358  0.1958 -1.0141
  144SAPE  H13X15855   2.556   0.735   8.824  1.4736  1.0881  0.5873
  144SAPE  H13Y15856   2.562   0.912   8.839 -0.3022  0.3401 -0.0476
  144SAPE  C31415857   2.404   0.856   8.705 -0.3909 -0.3353 -0.5254
  144SAPE  H14X15858   2.349   0.953   8.708  1.0208  0.4703  0.3233
  144SAPE  H14Y15859   2.332   0.775   8.685  0.3549 -1.1401 -0.0256
  144SAPE  C31515860   2.494   0.880   8.584  0.1271 -0.2706  0.4276
  144SAPE  H15X15861   2.560   0.792   8.569  0.1614 -0.0489 -0.8468
  144SAPE  H15Y15862   2.552   0.974   8.589 -1.6756  0.9148  0.0163
  144SAPE  C31615863   2.426   0.886   8.447 -0.1894  0.5752  0.3703
  144SAPE  H16X15864   2.357   0.973   8.447  1.2414  1.8741 -2.9534
  144SAPE  H16Y15865   2.398   0.788   8.404 -1.2367  1.1055 -0.2031
  144SAPE  C31715866   2.533   0.935   8.343 -0.1241  0.7132 -0.3513
  144SAPE  H17X15867   2.582   1.029   8.376  0.6435  0.1303  0.2169
  144SAPE  H17Y15868   2.482   0.960   8.248 -1.5814  0.5380  0.3615
  144SAPE  C31815869   2.644   0.831   8.305 -0.6767  0.5607  0.4698
  144SAPE  H18X15870   2.604   0.767   8.224 -1.0377  1.9873 -0.5126
  144SAPE  H18Y15871   2.673   0.771   8.394 -1.4931  0.6504  0.8036
  144SAPE  H18Z15872   2.727   0.882   8.251 -2.9205  2.4710 -1.3997
  145SAPE     N15873   0.353   0.827  10.821  0.0560  0.8227  0.2674
  145SAPE   HN115874   0.302   0.875  10.899 -1.4240  0.8993 -0.7140
  145SAPE   HN215875   0.397   0.736  10.845  2.3229  1.8247  0.2002
  145SAPE   HN315876   0.419   0.895  10.779 -1.1076  0.6111 -2.0779
  145SAPE   C1215877   0.234   0.807  10.732 -0.0985  0.1315 -0.7740
  145SAPE  H12A15878   0.248   0.744  10.642 -0.6709  1.1318 -1.5846
  145SAPE  H12B15879   0.209   0.906  10.689  3.1003  1.0111 -0.8530
  145SAPE   C1115880   0.113   0.748  10.824 -0.1146  0.7003  0.3888
  145SAPE  H11A15881   0.024   0.724  10.762  0.0223 -2.4180  1.2208
  145SAPE  H11B15882   0.086   0.820  10.904 -2.9850 -1.4060  1.4987
  145SAPE     P15883   0.078   0.562  11.009 -0.0967 -0.1085 -0.3414
  145SAPE   O1315884   0.131   0.424  11.038 -0.0990  0.2244  0.5645
  145SAPE   O1415885   0.078   0.653  11.122  0.5788 -0.6969 -0.6973
  145SAPE   O1215886   0.148   0.630  10.889  0.8721 -0.5774 -0.1137
  145SAPE   O1115887  -0.076   0.546  10.966  0.2985 -0.0188  0.2618
  145SAPE    C115888  -0.113   0.420  10.901  0.4860  0.0433 -0.5773
  145SAPE    HA15889  -0.049   0.332  10.924 -1.0994 -0.9393  0.2024
  145SAPE    HB15890  -0.210   0.401  10.951  1.1013  0.7492  0.9411
  145SAPE    C215891  -0.151   0.418  10.750 -0.2056 -0.0591 -0.1504
  145SAPE    HS15892  -0.189   0.316  10.730  3.6943 -1.2211 -2.9060
  145SAPE   O2115893  -0.039   0.445  10.659 -0.5942 -0.2454 -0.0392
  145SAPE   C2115894   0.068   0.368  10.665  0.1870 -0.2332  0.0743
  145SAPE   O2215895   0.064   0.259  10.721 -0.4088 -0.4552 -0.1619
  145SAPE   C2215896   0.194   0.415  10.592  0.0119 -0.8923 -0.2505
  145SAPE   H2R15897   0.161   0.497  10.525 -0.5187  0.3457  1.4711
  145SAPE   H2S15898   0.260   0.458  10.670  0.9852 -0.3161 -1.3606
  145SAPE    C315899  -0.269   0.510  10.735 -0.1602  0.0944 -0.0115
  145SAPE    HX15900  -0.236   0.603  10.785  3.1209 -1.8432  1.8109
  145SAPE    HY15901  -0.354   0.475  10.798  2.1878  0.0986  3.4217
  145SAPE   O3115902  -0.294   0.523  10.596  0.4351  0.0812  0.2179
  145SAPE   C3115903  -0.393   0.445  10.551 -0.8529  0.0959  0.0361
  145SAPE   O3215904  -0.426   0.341  10.605 -0.1988 -0.0059  0.7267
  145SAPE   C3215905  -0.435   0.494  10.412  0.0932  0.2840 -0.0416
  145SAPE   H2X15906  -0.406   0.600  10.396  0.5548  0.5412  2.1145
  145SAPE   H2Y15907  -0.546   0.498  10.408  0.1273  3.2768 -0.5964
  145SAPE   C2315908   0.265   0.296  10.520 -0.1358 -0.4871  0.9003
  145SAPE   H3R15909   0.294   0.220  10.595  1.1813 -0.3472  0.5561
  145SAPE   H3S15910   0.350   0.344  10.466 -1.0680  0.6796  0.4045
  145SAPE   C2415911   0.178   0.237  10.400 -0.1322  0.2278  0.4698
  145SAPE   H4R15912   0.157   0.319  10.328 -1.4037 -0.3832  0.1195
  145SAPE   H4S15913   0.080   0.195  10.432 -0.4359 -1.9075 -2.7310
  145SAPE   C2515914   0.267   0.130  10.338  0.4909  0.0009 -0.1293
  145SAPE   H5R15915   0.322   0.063  10.405 -0.4196 -1.9711 -1.2566
  145SAPE   C2615916   0.282   0.120  10.207  0.3917  0.0412  0.7346
  145SAPE   H6R15917   0.330   0.024  10.185  1.9360  1.3851 -2.3247
  145SAPE   C2715918   0.220   0.201  10.096 -0.3001 -0.3798 -0.0042
  145SAPE   H7R15919   0.246   0.305  10.127 -1.1817 -0.6246  1.6881
  145SAPE   H7S15920   0.110   0.189  10.091 -0.4588  0.9487 -0.0395
  145SAPE   C2815921   0.296   0.169   9.969 -0.2343  0.7551  0.7773
  145SAPE   H8R15922   0.398   0.127   9.975 -1.0252 -1.4874 -0.4243
  145SAPE   C2915923   0.253   0.192   9.841 -0.9994 -0.2828 -0.6297
  145SAPE   H9R15924   0.321   0.177   9.756  0.1380 -0.0149  0.2040
  145SAPE  C21015925   0.133   0.264   9.790  0.5262  0.1260  0.2412
  145SAPE  H10R15926   0.181   0.348   9.736 -1.9648  2.6507  1.6607
  145SAPE  H10S15927   0.069   0.313   9.866 -0.2658  0.2454 -0.4955
  145SAPE  C21115928   0.044   0.201   9.689 -0.3778 -0.0307  0.1319
  145SAPE  H11R15929  -0.037   0.143   9.737  0.5604 -0.6357  1.0306
  145SAPE  C21215930   0.051   0.196   9.555 -0.1641  0.7554 -0.1785
  145SAPE  H12R15931  -0.027   0.141   9.500 -1.4613  3.3001 -1.0189
  145SAPE  C21315932   0.161   0.251   9.468 -0.1548 -0.1035  0.0426
  145SAPE  H13R15933   0.230   0.315   9.529  0.4842 -0.9882  0.2681
  145SAPE  H13S15934   0.119   0.324   9.395  0.3137  0.4955  0.3520
  145SAPE  C21415935   0.227   0.135   9.396 -0.0434 -0.4174 -0.4714
  145SAPE  H14R15936   0.310   0.095   9.455  0.3345  0.8887 -0.1017
  145SAPE  C21515937   0.191   0.077   9.279  0.1614  0.9342  0.4949
  145SAPE  H15R15938   0.248  -0.006   9.235  0.0156  1.6975 -1.1986
  145SAPE  C21615939   0.078   0.126   9.188 -0.3015 -0.2290 -0.6907
  145SAPE  H16R15940   0.045   0.227   9.219  0.5655  0.5203 -2.1014
  145SAPE  H16S15941  -0.009   0.057   9.193 -0.1720 -0.3081  0.9916
  145SAPE  C21715942   0.119   0.153   9.038  0.0288  0.1401  0.0172
  145SAPE  H17R15943   0.113   0.055   8.987 -1.1529 -0.3901  1.1224
  145SAPE  H17S15944   0.225   0.185   9.030  0.2350 -0.1786  1.2889
  145SAPE  C21815945   0.047   0.262   8.964  0.5451 -0.6711 -0.2762
  145SAPE  H18R15946   0.063   0.362   9.009  0.9745 -1.9849  2.7299
  145SAPE  H18S15947  -0.060   0.232   8.972  0.8971 -2.0882 -0.5158
  145SAPE  C21915948   0.083   0.282   8.819  0.9639  0.4250  0.6964
  145SAPE  H19R15949   0.056   0.192   8.761 -0.7512  1.4260 -0.1119
  145SAPE  H19S15950   0.193   0.301   8.814  0.7043  1.7397 -2.2525
  145SAPE  C22015951   0.013   0.395   8.753 -1.0041  0.0059 -0.0150
  145SAPE  H20R15952   0.042   0.489   8.806  2.8593 -0.4432 -1.0511
  145SAPE  H20S15953  -0.098   0.398   8.756 -1.0382 -0.7998 -0.3320
  145SAPE  H20T15954   0.053   0.404   8.650 -0.7023 -0.9909  0.0128
  145SAPE   C3315955  -0.377   0.403  10.297 -0.4677 -0.3428 -0.7846
  145SAPE   H3X15956  -0.409   0.298  10.313 -0.9335 -0.2525 -1.1058
  145SAPE   H3Y15957  -0.268   0.394  10.317 -0.6703 -3.8923 -0.6881
  145SAPE   C3415958  -0.404   0.451  10.159 -0.2672  0.1768 -0.4556
  145SAPE   H4X15959  -0.359   0.552  10.146 -0.3977  0.3789  0.5778
  145SAPE   H4Y15960  -0.511   0.474  10.137  0.1205 -0.7992 -4.0873
  145SAPE   C3515961  -0.348   0.355  10.047  0.4675  0.4359  0.5247
  145SAPE   H5X15962  -0.402   0.260  10.063  1.5682 -0.0858  1.2708
  145SAPE   H5Y15963  -0.238   0.339  10.060  0.3459 -0.3602  0.5938
  145SAPE   C3615964  -0.361   0.399   9.894 -0.2107 -1.2121 -0.2490
  145SAPE   H6X15965  -0.312   0.498   9.889 -1.6658 -0.4069  0.8036
  145SAPE   H6Y15966  -0.467   0.432   9.885 -0.4562 -1.9470 -0.1650
  145SAPE   C3715967  -0.334   0.289   9.794 -0.0674 -1.1740  0.1333
  145SAPE   H7X15968  -0.399   0.201   9.814 -1.3431 -0.1806  0.5666
  145SAPE   H7Y15969  -0.228   0.256   9.803 -0.0726 -1.0563  0.6594
  145SAPE   C3815970  -0.359   0.344   9.649 -0.0765  0.5024 -0.1663
  145SAPE   H8X15971  -0.293   0.431   9.629 -0.8137  1.1816  0.2996
  145SAPE   H8Y15972  -0.464   0.378   9.641  0.0765  0.7465 -1.1848
  145SAPE   C3915973  -0.341   0.235   9.540  0.4196  0.9067 -0.8388
  145SAPE   H9X15974  -0.426   0.164   9.537 -1.0913  2.4092  2.0167
  145SAPE   H9Y15975  -0.245   0.181   9.560  0.2741  0.2463 -1.8723
  145SAPE  C31015976  -0.303   0.301   9.410  0.1971 -0.6708 -0.0222
  145SAPE  H10X15977  -0.216   0.369   9.424  1.4143 -2.4523  1.6312
  145SAPE  H10Y15978  -0.393   0.356   9.374  1.3495  1.1332 -0.2996
  145SAPE  C31115979  -0.258   0.194   9.308 -0.2437  0.0160 -0.2733
  145SAPE  H11X15980  -0.171   0.138   9.348  0.2124  1.5248  0.9609
  145SAPE  H11Y15981  -0.227   0.242   9.213 -0.7528 -1.4535 -1.2247
  145SAPE  C31215982  -0.367   0.090   9.271  0.5503 -0.0335 -0.7176
  145SAPE  H12X15983  -0.461   0.132   9.229 -0.5195 -2.8703 -1.4004
  145SAPE  H12Y15984  -0.385   0.044   9.371  0.9495 -2.6770 -1.7660
  145SAPE  C31315985  -0.331  -0.016   9.162  0.5297  0.2933 -0.3962
  145SAPE  H13X15986  -0.421  -0.081   9.155  0.5896  0.1395  0.1948
  145SAPE  H13Y15987  -0.254  -0.074   9.217  0.6801  0.7944 -0.0673
  145SAPE  C31415988  -0.294   0.031   9.023 -0.2035 -0.2000 -0.7176
  145SAPE  H14X15989  -0.291  -0.057   8.955  0.4348 -0.4322 -0.3960
  145SAPE  H14Y15990  -0.187   0.057   9.037 -0.5249  0.6492  0.2799
  145SAPE  C31515991  -0.360   0.158   8.956 -0.6319  0.2885 -0.2676
  145SAPE  H15X15992  -0.304   0.190   8.865  1.5009 -0.2510  0.7839
  145SAPE  H15Y15993  -0.349   0.235   9.036  2.4627  0.4795 -0.7219
  145SAPE  C31615994  -0.507   0.136   8.930 -0.2441 -0.3286 -0.0998
  145SAPE  H16X15995  -0.564   0.224   8.893  1.2326  0.0261 -1.6503
  145SAPE  H16Y15996  -0.565   0.112   9.022 -0.2098  0.6525  0.1914
  145SAPE  C31715997  -0.527   0.027   8.822 -0.3436  0.0134 -0.4003
  145SAPE  H17X15998  -0.476  -0.061   8.867 -1.2810  0.5605  1.8516
  145SAPE  H17Y15999  -0.477   0.059   8.728  1.2648  1.0554  0.7792
  145SAPE  C31816000  -0.676  -0.005   8.807 -0.5898  0.4732 -0.7731
  145SAPE  H18X16001  -0.688  -0.101   8.753 -0.1681 -0.9210  1.4865
  145SAPE  H18Y16002  -0.739   0.070   8.755 -0.8020  0.5798 -0.3692
  145SAPE  H18Z16003  -0.732  -0.015   8.902  1.8750  0.4551  0.7608
  146SAPE     N16004   3.949   1.055  10.886 -0.2046 -0.2913  0.0681
  146SAPE   HN116005   3.957   0.975  10.820  0.3059 -1.0848  1.0579
  146SAPE   HN216006   4.030   1.121  10.878  0.2658 -0.7679  0.7469
  146SAPE   HN316007   3.945   1.008  10.978 -1.3585 -2.5614 -1.0665
  146SAPE   C1216008   3.816   1.128  10.887 -0.2806  0.6038 -0.4164
  146SAPE  H12A16009   3.804   1.194  10.975 -0.2199  0.5170 -0.3433
  146SAPE  H12B16010   3.737   1.049  10.891  1.0414 -0.9369 -2.6909
  146SAPE   C1116011   3.803   1.211  10.756  0.4288 -0.1126 -0.2827
  146SAPE  H11A16012   3.698   1.242  10.776  0.3568  1.0003 -2.1703
  146SAPE  H11B16013   3.810   1.145  10.666  0.0104 -1.9224  0.9509
  146SAPE     P16014   4.027   1.363  10.741 -0.3460  0.2738 -0.6509
  146SAPE   O1316015   4.043   1.507  10.769 -0.2175 -0.3367 -0.2242
  146SAPE   O1416016   4.102   1.276  10.833 -0.4973  0.4611  0.5383
  146SAPE   O1216017   3.876   1.332  10.764  0.5210 -0.4119  0.1878
  146SAPE   O1116018   4.058   1.333  10.591  0.1441  0.6301  0.5972
  146SAPE    C116019   4.164   1.395  10.524  0.9713 -0.6486  0.7361
  146SAPE    HA16020   4.245   1.425  10.594 -0.4338  0.1144  2.0859
  146SAPE    HB16021   4.201   1.322  10.448 -0.5299 -1.5826  0.8542
  146SAPE    C216022   4.120   1.522  10.443 -0.5817  0.0350  0.0503
  146SAPE    HS16023   4.079   1.592  10.518 -0.2452 -0.2817  0.5304
  146SAPE   O2116024   4.023   1.477  10.345  0.5401  0.0025 -0.2055
  146SAPE   C2116025   3.894   1.503  10.368  0.0626  0.3334  0.1409
  146SAPE   O2216026   3.858   1.573  10.457 -0.3586  0.3907 -0.5210
  146SAPE   C2216027   3.805   1.445  10.262 -0.4174 -0.5998 -0.5484
  146SAPE   H2R16028   3.840   1.340  10.248  0.9154 -0.5655  1.9666
  146SAPE   H2S16029   3.702   1.453  10.302 -0.3266  0.5093 -0.5079
  146SAPE    C316030   4.247   1.579  10.364 -0.5091  0.9079 -1.0092
  146SAPE    HX16031   4.266   1.490  10.301  1.3442 -0.1251  0.8823
  146SAPE    HY16032   4.331   1.587  10.436 -0.8287  0.0636 -0.5380
  146SAPE   O3116033   4.233   1.701  10.276  0.3060 -0.4099 -0.4200
  146SAPE   C3116034   4.187   1.810  10.341  0.2543  0.2847  0.3080
  146SAPE   O3216035   4.159   1.817  10.459 -0.3778 -0.2567  0.8777
  146SAPE   C3216036   4.157   1.906  10.242 -0.1407 -0.3270 -0.0124
  146SAPE   H2X16037   4.123   1.866  10.144 -0.6448  4.4409 -2.0547
  146SAPE   H2Y16038   4.247   1.970  10.231 -0.1627 -0.4361 -0.9054
  146SAPE   C2316039   3.808   1.527  10.128  0.2085 -0.6115  0.4029
  146SAPE   H3R16040   3.734   1.609  10.146  0.2952 -0.7915  1.6785
  146SAPE   H3S16041   3.751   1.468  10.053 -1.5391  0.3300  0.9202
  146SAPE   C2416042   3.944   1.571  10.082 -0.4008 -0.3370 -0.3064
  146SAPE   H4R16043   4.007   1.621  10.159  0.3367  0.2286 -1.2526
  146SAPE   H4S16044   3.935   1.655  10.009  0.7186  1.4354  1.4770
  146SAPE   C2516045   4.016   1.457  10.013 -0.9819  0.3818 -0.3017
  146SAPE   H5R16046   4.058   1.387  10.086  1.1513  0.9578 -0.9254
  146SAPE   C2616047   4.025   1.426   9.881  0.1233  0.6028  0.1910
  146SAPE   H6R16048   4.083   1.337   9.853  0.8567  0.7542  1.1954
  146SAPE   C2716049   3.971   1.512   9.770 -0.8358 -0.1328 -0.3023
  146SAPE   H7R16050   4.032   1.484   9.682 -2.2204  1.4704 -1.8642
  146SAPE   H7S16051   3.985   1.620   9.792 -0.3833 -0.2183 -0.1585
  146SAPE   C2816052   3.824   1.486   9.754  0.3341  0.7988 -0.3354
  146SAPE   H8R16053   3.766   1.489   9.847  1.0818 -0.8038  0.2164
  146SAPE   C2916054   3.756   1.464   9.639 -0.0214 -0.5062  0.3420
  146SAPE   H9R16055   3.647   1.449   9.639 -0.1736  0.5317  0.1200
  146SAPE  C21016056   3.807   1.474   9.495  0.1628  0.7029  0.3892
  146SAPE  H10R16057   3.914   1.503   9.496  1.0014 -2.0310 -0.4991
  146SAPE  H10S16058   3.753   1.555   9.441 -1.6751 -0.2303  0.7543
  146SAPE  C21116059   3.788   1.341   9.417 -0.1682 -0.0064 -0.1556
  146SAPE  H11R16060   3.821   1.254   9.475 -0.6565 -0.5475 -0.6671
  146SAPE  C21216061   3.751   1.321   9.288  0.2900  0.0296 -0.6443
  146SAPE  H12R16062   3.751   1.216   9.255  2.3167 -0.8010  1.7187
  146SAPE  C21316063   3.720   1.428   9.188 -0.3861 -1.0028 -0.3086
  146SAPE  H13R16064   3.802   1.503   9.182 -0.8548 -0.5240 -0.7745
  146SAPE  H13S16065   3.637   1.493   9.222 -0.3490 -0.1710 -1.7496
  146SAPE  C21416066   3.676   1.368   9.055  0.2079  0.2904  0.0501
  146SAPE  H14R16067   3.571   1.399   9.039  0.9236  1.8861 -2.2743
  146SAPE  C21516068   3.753   1.315   8.961  0.2478  0.3968 -0.0298
  146SAPE  H15R16069   3.703   1.287   8.867 -1.1354  0.4980  0.6419
  146SAPE  C21616070   3.906   1.288   8.964 -0.0437 -0.1645 -0.1454
  146SAPE  H16R16071   3.944   1.302   9.068  0.2002  0.1904 -0.2790
  146SAPE  H16S16072   3.961   1.365   8.906  0.2478  0.3124  0.7372
  146SAPE  C21716073   3.943   1.156   8.897 -0.7454  0.5327 -0.8032
  146SAPE  H17R16074   4.054   1.157   8.888 -0.7389 -1.1418 -1.1159
  146SAPE  H17S16075   3.906   1.150   8.793 -0.3142  0.3127 -0.9448
  146SAPE  C21816076   3.904   1.027   8.973  0.2579  0.4135 -0.0453
  146SAPE  H18R16077   3.796   1.033   8.999 -0.7937 -1.9295 -3.3298
  146SAPE  H18S16078   3.952   1.017   9.073 -0.9082  0.2229  0.5147
  146SAPE  C21916079   3.919   0.896   8.896 -0.2901 -0.9129 -0.3994
  146SAPE  H19R16080   4.018   0.847   8.904  0.5144  0.8144  0.8775
  146SAPE  H19S16081   3.877   0.912   8.794  1.8538 -2.3795 -1.5657
  146SAPE  C22016082   3.837   0.784   8.966 -0.2685  0.0121  0.0173
  146SAPE  H20R16083   3.844   0.797   9.076 -2.3564 -0.2886  0.2278
  146SAPE  H20S16084   3.878   0.682   8.949 -1.7519 -0.8522  1.3612
  146SAPE  H20T16085   3.729   0.775   8.940 -0.2986 -2.0562  0.6623
  146SAPE   C3316086   4.039   1.995  10.293  0.0455  0.0048 -0.0345
  146SAPE   H3X16087   4.062   2.081  10.227 -0.0914  1.6586  1.9609
  146SAPE   H3Y16088   4.064   2.031  10.395  0.4043 -0.9258  0.2223
  146SAPE   C3416089   3.900   1.934  10.281  0.0212  1.0658  0.1516
  146SAPE   H4X16090   3.833   2.005  10.334  0.2091  0.3982  1.3198
  146SAPE   H4Y16091   3.901   1.831  10.323  1.6262  0.1580 -1.9140
  146SAPE   C3516092   3.850   1.912  10.139  0.7343 -0.7617 -0.0431
  146SAPE   H5X16093   3.751   1.863  10.150  1.0695 -1.1568  1.4625
  146SAPE   H5Y16094   3.917   1.844  10.082  0.7229 -0.3556 -0.5423
  146SAPE   C3616095   3.841   2.043  10.063  0.1225  1.0145 -0.0478
  146SAPE   H6X16096   3.945   2.082  10.055  0.1280  1.1284  0.5624
  146SAPE   H6Y16097   3.782   2.120  10.117  0.8535 -0.6923  3.4202
  146SAPE   C3716098   3.776   2.031   9.917  0.0770  0.5883 -0.0411
  146SAPE   H7X16099   3.749   2.133   9.884 -1.9276  0.7886  2.0200
  146SAPE   H7Y16100   3.688   1.966   9.936  2.0689 -2.4146 -0.2615
  146SAPE   C3816101   3.864   1.952   9.813 -0.4062  0.0575 -0.2813
  146SAPE   H8X16102   3.864   1.844   9.838 -0.6427 -0.1106 -0.9865
  146SAPE   H8Y16103   3.972   1.978   9.808  0.3464 -2.0849  2.5286
  146SAPE   C3916104   3.801   1.954   9.676 -0.5367  0.5738 -0.2095
  146SAPE   H9X16105   3.763   2.057   9.660 -0.1789  0.6384 -0.6608
  146SAPE   H9Y16106   3.707   1.894   9.680 -0.6626  0.7571 -0.3901
  146SAPE  C31016107   3.893   1.902   9.560 -0.1191 -0.0459 -0.7227
  146SAPE  H10X16108   3.948   1.815   9.602 -0.7393  0.0764  0.3659
  146SAPE  H10Y16109   3.972   1.975   9.532  1.3067 -1.9577 -1.9501
  146SAPE  C31116110   3.808   1.856   9.444 -0.2146 -0.1027  0.1906
  146SAPE  H11X16111   3.743   1.942   9.419  2.3236  2.3818  1.6574
  146SAPE  H11Y16112   3.742   1.771   9.474 -0.7520 -0.4379 -1.7853
  146SAPE  C31216113   3.900   1.823   9.321 -0.1542 -0.0969  0.3997
  146SAPE  H12X16114   3.956   1.734   9.357  0.6186  0.1370 -0.1995
  146SAPE  H12Y16115   3.976   1.904   9.314 -0.1639 -0.1993 -1.0208
  146SAPE  C31316116   3.815   1.799   9.204 -0.3368  0.2457  0.4731
  146SAPE  H13X16117   3.727   1.866   9.210 -0.1321  0.4681  1.0970
  146SAPE  H13Y16118   3.753   1.707   9.204  0.8746 -0.6353 -1.7174
  146SAPE  C31416119   3.899   1.793   9.080  0.6703 -0.2786  0.2008
  146SAPE  H14X16120   3.947   1.693   9.073  1.3455  0.0890 -0.6870
  146SAPE  H14Y16121   3.976   1.873   9.081  0.9542 -0.5392  1.6763
  146SAPE  C31516122   3.826   1.817   8.946 -0.1281  0.6978  0.0848
  146SAPE  H15X16123   3.900   1.816   8.864 -0.9584 -2.5651 -0.7595
  146SAPE  H15Y16124   3.769   1.912   8.947 -1.1305  0.1144  1.3192
  146SAPE  C31616125   3.721   1.709   8.920  0.1527 -0.0430 -0.6820
  146SAPE  H16X16126   3.646   1.735   8.997  0.5050  0.4256 -0.4901
  146SAPE  H16Y16127   3.749   1.606   8.951  1.6742  0.5942  0.1628
  146SAPE  C31716128   3.670   1.719   8.779 -0.2200  0.2844  0.0247
  146SAPE  H17X16129   3.745   1.667   8.715 -0.5767 -0.9262  0.5590
  146SAPE  H17Y16130   3.672   1.824   8.741  0.6753 -0.0228 -0.8272
  146SAPE  C31816131   3.534   1.652   8.769  0.2766  0.5976 -0.3124
  146SAPE  H18X16132   3.549   1.542   8.772  1.6643  0.7462 -1.0992
  146SAPE  H18Y16133   3.486   1.693   8.678  0.5281  0.6442 -0.4252
  146SAPE  H18Z16134   3.470   1.685   8.854 -1.5861  1.2228 -1.8902
  147SAPE     N16135   2.161   3.602   6.206 -0.3218 -0.4199 -0.3030
  147SAPE   HN116136   2.200   3.696   6.186 -1.8526  0.7288  1.7367
  147SAPE   HN216137   2.187   3.528   6.138 -0.6516  0.3822 -1.3318
  147SAPE   HN316138   2.059   3.609   6.184 -1.1494 -4.7719  1.0375
  147SAPE   C1216139   2.191   3.556   6.338  0.0145  0.1470 -0.0962
  147SAPE  H12A16140   2.298   3.528   6.343 -0.2815 -1.0199  0.1068
  147SAPE  H12B16141   2.132   3.463   6.352  0.3405  0.0443  0.6203
  147SAPE   C1116142   2.144   3.648   6.452  0.2587 -0.3382 -0.2453
  147SAPE  H11A16143   2.210   3.629   6.539 -0.3823 -2.4796 -0.1771
  147SAPE  H11B16144   2.042   3.613   6.479  0.2666 -0.8093 -0.7993
  147SAPE     P16145   2.039   3.900   6.448  0.0061  0.0835 -0.3275
  147SAPE   O1316146   2.067   4.024   6.366 -0.0638  0.4350  0.2491
  147SAPE   O1416147   1.908   3.845   6.429 -0.6154 -0.3502 -0.4589
  147SAPE   O1216148   2.147   3.788   6.419 -0.3765 -0.0819  0.2749
  147SAPE   O1116149   2.060   3.934   6.602  0.0525 -0.5068 -0.1466
  147SAPE    C116150   2.193   3.901   6.653  0.0916 -1.0085  0.1436
  147SAPE    HA16151   2.196   3.806   6.711 -0.0544 -1.0413  0.0983
  147SAPE    HB16152   2.269   3.898   6.573  0.1624 -1.0050  0.2102
  147SAPE    C216153   2.236   4.027   6.733  0.4375 -1.1050  0.1031
  147SAPE    HS16154   2.195   4.113   6.678 -0.3397 -1.5950 -0.0961
  147SAPE   O2116155   2.375   4.030   6.740  0.1470 -0.5541 -0.7611
  147SAPE   C2116156   2.439   4.144   6.763 -0.3801  0.2666  0.3390
  147SAPE   O2216157   2.391   4.253   6.770  0.7064 -0.5908  0.4233
  147SAPE   C2216158   2.584   4.109   6.767  0.0302 -0.2047  0.6990
  147SAPE   H2R16159   2.621   4.027   6.832  0.2511 -1.7846 -1.3501
  147SAPE   H2S16160   2.613   4.090   6.662  0.3593  0.4605  0.6648
  147SAPE    C316161   2.166   4.034   6.871  0.2034 -0.2341 -0.3657
  147SAPE    HX16162   2.222   3.957   6.928  0.8802 -0.5525 -1.4211
  147SAPE    HY16163   2.066   3.989   6.853 -0.2882 -0.0466  1.6275
  147SAPE   O3116164   2.171   4.160   6.940  0.4915  0.1027  0.2128
  147SAPE   C3116165   2.078   4.248   6.900 -0.5617  0.2582 -0.3775
  147SAPE   O3216166   1.986   4.223   6.827  0.6847  0.5239  0.1443
  147SAPE   C3216167   2.109   4.384   6.964  0.2387 -0.5575  0.6518
  147SAPE   H2X16168   2.185   4.443   6.909 -2.9963  1.4754 -2.0173
  147SAPE   H2Y16169   2.139   4.368   7.070 -2.0073  0.4382  1.5072
  147SAPE   C2316170   2.658   4.234   6.815  0.3721 -0.0980 -0.2388
  147SAPE   H3R16171   2.628   4.327   6.763  1.6593 -0.4603 -1.7216
  147SAPE   H3S16172   2.765   4.225   6.785  1.0121 -1.5968  2.2579
  147SAPE   C2416173   2.659   4.246   6.967 -0.0778  0.8986  0.0098
  147SAPE   H4R16174   2.715   4.157   7.004 -2.3044 -0.9326 -0.8064
  147SAPE   H4S16175   2.557   4.252   7.008 -0.4523  1.7329 -1.0067
  147SAPE   C2516176   2.736   4.365   7.014  0.2496 -0.4562  0.1404
  147SAPE   H5R16177   2.837   4.366   6.970  0.0400 -0.0536 -0.3439
  147SAPE   C2616178   2.687   4.466   7.089 -0.3116 -0.6690 -0.0056
  147SAPE   H6R16179   2.738   4.561   7.113 -0.7327 -0.2395 -0.7989
  147SAPE   C2716180   2.547   4.470   7.149 -0.2861 -0.6456 -0.5274
  147SAPE   H7R16181   2.473   4.442   7.071 -1.8468 -2.2452  1.3987
  147SAPE   H7S16182   2.508   4.568   7.185 -2.9842 -1.9870  0.5229
  147SAPE   C2816183   2.521   4.374   7.258  0.2395 -0.0087  0.0318
  147SAPE   H8R16184   2.552   4.272   7.230  0.7638  0.0327  0.4436
  147SAPE   C2916185   2.451   4.391   7.371  0.7375 -0.1943  0.0627
  147SAPE   H9R16186   2.462   4.317   7.452 -0.7347  2.3864  2.7794
  147SAPE  C21016187   2.388   4.520   7.413  0.4516 -0.4015  0.0182
  147SAPE  H10R16188   2.299   4.497   7.474  1.3785  1.1817  2.1202
  147SAPE  H10S16189   2.359   4.566   7.316  0.0934 -2.9920 -1.1796
  147SAPE  C21116190   2.472   4.620   7.487 -0.3089  0.1383 -0.0204
  147SAPE  H11R16191   2.476   4.720   7.443  0.3937  0.3982  0.6220
  147SAPE  C21216192   2.550   4.593   7.597  0.6229  0.6469 -0.6397
  147SAPE  H12R16193   2.628   4.666   7.624  1.3698  0.6328 -2.5909
  147SAPE  C21316194   2.562   4.459   7.667  0.3690  0.1315 -0.6648
  147SAPE  H13R16195   2.629   4.383   7.620 -0.2991 -0.9897  0.1393
  147SAPE  H13S16196   2.464   4.407   7.676  0.7961 -0.6625 -0.4822
  147SAPE  C21416197   2.621   4.480   7.803  0.9842 -0.0894 -0.1913
  147SAPE  H14R16198   2.727   4.510   7.800  1.2781 -1.1105 -0.4231
  147SAPE  C21516199   2.565   4.461   7.925  0.2887  0.7235  0.4928
  147SAPE  H15R16200   2.613   4.504   8.014  0.9051 -0.2166  0.6249
  147SAPE  C21616201   2.424   4.405   7.959  0.2486 -0.4692  0.3503
  147SAPE  H16R16202   2.397   4.321   7.892  0.9187 -1.5538  1.4039
  147SAPE  H16S16203   2.349   4.481   7.930 -0.0742 -0.5277  1.0119
  147SAPE  C21716204   2.407   4.349   8.101  0.4954 -0.0121 -0.0353
  147SAPE  H17R16205   2.300   4.321   8.102  1.2658 -3.2804  1.5956
  147SAPE  H17S16206   2.420   4.434   8.172 -3.0170  0.3459  0.3725
  147SAPE  C21816207   2.499   4.235   8.133 -0.4421 -0.2774  0.4016
  147SAPE  H18R16208   2.471   4.210   8.238 -0.0326  0.6438  0.7359
  147SAPE  H18S16209   2.607   4.261   8.128 -0.3227 -0.8701 -0.4767
  147SAPE  C21916210   2.482   4.113   8.039  0.3549 -0.0725  0.0343
  147SAPE  H19R16211   2.517   4.141   7.937  1.7998 -2.2072 -0.1319
  147SAPE  H19S16212   2.376   4.083   8.028  0.7540 -1.4182 -0.3735
  147SAPE  C22016213   2.559   3.993   8.092 -0.0966  0.2449  0.5202
  147SAPE  H20R16214   2.666   4.018   8.110  0.5586 -2.1796  0.2756
  147SAPE  H20S16215   2.557   3.913   8.015 -1.3410 -1.3960  2.1843
  147SAPE  H20T16216   2.539   3.968   8.198 -0.4736 -0.8855  0.1894
  147SAPE   C3316217   1.980   4.469   6.953  0.1567  0.0914  0.5095
  147SAPE   H3X16218   1.886   4.419   6.986 -0.4072  0.1750 -0.8847
  147SAPE   H3Y16219   1.962   4.487   6.845 -0.3069  0.6352  0.6729
  147SAPE   C3416220   1.971   4.607   7.014  0.2918  0.4107  0.1940
  147SAPE   H4X16221   1.871   4.651   6.995  0.7355  1.5756  0.4882
  147SAPE   H4Y16222   2.053   4.658   6.959 -0.6479 -0.5935 -2.2887
  147SAPE   C3516223   2.014   4.632   7.165  0.4735 -0.3205  0.1769
  147SAPE   H5X16224   2.046   4.737   7.180 -1.8392  0.3549  0.7924
  147SAPE   H5Y16225   2.098   4.569   7.200  0.0854 -2.2808 -2.1448
  147SAPE   C3616226   1.895   4.608   7.267  0.4790  0.0955 -0.6136
  147SAPE   H6X16227   1.862   4.503   7.257 -0.3658  0.4610 -1.8398
  147SAPE   H6Y16228   1.814   4.682   7.251  1.9738  1.9511 -0.0293
  147SAPE   C3716229   1.948   4.627   7.412  0.1861  0.4035  0.1781
  147SAPE   H7X16230   2.050   4.583   7.409 -0.4501 -1.0957 -1.6995
  147SAPE   H7Y16231   1.891   4.567   7.487  0.8363 -2.5227 -1.4833
  147SAPE   C3816232   1.961   4.769   7.459  0.6670  0.8153 -0.2022
  147SAPE   H8X16233   1.864   4.822   7.449 -1.5340 -2.5768  1.4264
  147SAPE   H8Y16234   2.038   4.829   7.405 -0.5685  1.6031 -1.1225
  147SAPE   C3916235   2.004   4.782   7.607 -0.1913 -1.2257  0.0118
  147SAPE   H9X16236   1.930   4.739   7.678  0.0585  0.0891  1.1262
  147SAPE   H9Y16237   2.002   4.889   7.637 -0.5597 -1.6376  1.5655
  147SAPE  C31016238   2.152   4.732   7.645  0.3926  0.3881 -0.4672
  147SAPE  H10X16239   2.232   4.800   7.612 -1.4753  3.7637  1.4230
  147SAPE  H10Y16240   2.173   4.639   7.587 -1.9250 -0.4852 -0.0387
  147SAPE  C31116241   2.173   4.716   7.792  0.0820  0.1706 -0.1772
  147SAPE  H11X16242   2.282   4.694   7.805  0.5705  0.7859 -2.6882
  147SAPE  H11Y16243   2.114   4.630   7.830 -1.3603  0.0790 -2.4362
  147SAPE  C31216244   2.130   4.837   7.879  0.2129  0.0333  0.6167
  147SAPE  H12X16245   2.020   4.847   7.878  0.1530 -0.6055 -0.3897
  147SAPE  H12Y16246   2.167   4.932   7.834 -1.5363  0.1857 -0.5864
  147SAPE  C31316247   2.171   4.815   8.023 -0.4728  0.1659 -0.4901
  147SAPE  H13X16248   2.122   4.726   8.068  3.0203 -0.9831  1.3982
  147SAPE  H13Y16249   2.138   4.891   8.097  0.5151  0.7649 -0.6500
  147SAPE  C31416250   2.322   4.811   8.040 -0.2284 -0.0361 -0.9748
  147SAPE  H14X16251   2.353   4.911   8.003 -0.2119  1.6718  3.0849
  147SAPE  H14Y16252   2.370   4.722   7.994  0.8782 -0.6838  1.2863
  147SAPE  C31516253   2.367   4.815   8.189  0.5056  0.8900  0.2140
  147SAPE  H15X16254   2.355   4.714   8.236 -0.1202  0.8668  0.0163
  147SAPE  H15Y16255   2.301   4.881   8.250  0.3499  2.4498 -1.5679
  147SAPE  C31616256   2.506   4.872   8.207 -0.2332 -0.1814  0.3108
  147SAPE  H16X16257   2.511   4.948   8.126  1.9466 -1.6377 -1.0548
  147SAPE  H16Y16258   2.582   4.791   8.196  1.1564  0.8847  1.6248
  147SAPE  C31716259   2.536   4.922   8.351  0.8483 -0.3923  0.1155
  147SAPE  H17X16260   2.491   4.850   8.423 -0.2898  0.7957  0.6457
  147SAPE  H17Y16261   2.479   5.017   8.361 -0.8413 -1.3478 -0.0334
  147SAPE  C31816262   2.678   4.941   8.380  0.1030 -0.4702  0.1766
  147SAPE  H18X16263   2.731   4.854   8.335 -2.0382 -1.7501 -0.0558
  147SAPE  H18Y16264   2.695   4.953   8.489 -1.4236 -0.4755  0.4450
  147SAPE  H18Z16265   2.724   5.020   8.318  1.7763 -1.8971 -0.4645
  148SAPE     N16266   1.016   4.247   6.419  0.1863 -0.6292  0.8106
  148SAPE   HN116267   0.951   4.313   6.370 -0.3577 -0.4322  1.7851
  148SAPE   HN216268   0.973   4.199   6.499 -0.0809  0.1165  1.1232
  148SAPE   HN316269   1.087   4.314   6.456 -0.8852  2.1377 -1.7445
  148SAPE   C1216270   1.076   4.157   6.315 -0.3885  0.0964  0.2181
  148SAPE  H12A16271   1.156   4.213   6.261  3.0888 -1.2684  3.4502
  148SAPE  H12B16272   0.999   4.130   6.240  1.2974 -1.7006 -0.9990
  148SAPE   C1116273   1.115   4.024   6.376 -0.3076  0.0586 -0.1639
  148SAPE  H11A16274   1.036   3.991   6.446 -0.3660 -1.9815 -1.0979
  148SAPE  H11B16275   1.208   4.026   6.437 -0.4535 -2.5553  0.2796
  148SAPE     P16276   1.247   3.928   6.182 -0.0679 -0.5482  0.1020
  148SAPE   O1316277   1.195   3.923   6.042 -0.7386 -0.1956  1.1627
  148SAPE   O1416278   1.346   4.033   6.216 -0.0301 -0.4009  0.4268
  148SAPE   O1216279   1.115   3.924   6.275  0.1254  0.2395 -0.1355
  148SAPE   O1116280   1.323   3.792   6.214  0.2053 -1.3643 -0.5871
  148SAPE    C116281   1.430   3.785   6.313 -0.3626 -0.2476  0.0526
  148SAPE    HA16282   1.522   3.759   6.257  0.4452 -0.6902  1.5212
  148SAPE    HB16283   1.451   3.881   6.366 -1.9463 -1.0739  2.3473
  148SAPE    C216284   1.405   3.684   6.416 -0.3771 -0.3065 -0.4134
  148SAPE    HS16285   1.374   3.586   6.372  0.1745 -1.4131  1.5270
  148SAPE   O2116286   1.305   3.732   6.501  0.5626 -0.4475  0.0568
  148SAPE   C2116287   1.249   3.639   6.581 -1.0035  0.7365 -0.2965
  148SAPE   O2216288   1.284   3.520   6.588  0.5717 -0.1333 -0.1695
  148SAPE   C2216289   1.145   3.704   6.677 -0.0250  1.0995 -0.0047
  148SAPE   H2R16290   1.125   3.803   6.632 -0.6777  0.6306 -0.7746
  148SAPE   H2S16291   1.055   3.639   6.678  2.0622 -2.0015  0.5339
  148SAPE    C316292   1.540   3.656   6.496  0.4407  0.2902 -0.0890
  148SAPE    HX16293   1.619   3.606   6.437  2.0794  1.4146  1.0862
  148SAPE    HY16294   1.515   3.595   6.585  2.0790  0.0106  0.2060
  148SAPE   O3116295   1.592   3.783   6.536 -0.7455 -0.3180 -0.3423
  148SAPE   C3116296   1.655   3.774   6.658 -0.3511  0.7012 -0.1778
  148SAPE   O3216297   1.689   3.670   6.713  0.2279  0.4064  0.1206
  148SAPE   C3216298   1.678   3.923   6.715  0.3218  0.2952  0.4747
  148SAPE   H2X16299   1.575   3.958   6.737  0.1599  1.7183 -2.1795
  148SAPE   H2Y16300   1.715   3.978   6.625 -2.0365 -1.1997 -1.5499
  148SAPE   C2316301   1.204   3.707   6.819 -0.3391 -0.1279 -0.4796
  148SAPE   H3R16302   1.214   3.601   6.848 -0.4096 -0.7574 -2.6135
  148SAPE   H3S16303   1.132   3.751   6.891  1.5444  0.7959  0.9259
  148SAPE   C2416304   1.345   3.783   6.841 -0.6124  0.7620 -0.5356
  148SAPE   H4R16305   1.422   3.737   6.775  1.4271 -0.1595  2.2929
  148SAPE   H4S16306   1.383   3.761   6.943 -1.4084 -1.5962 -0.6955
  148SAPE   C2516307   1.330   3.927   6.813 -0.2458  0.0644  0.4173
  148SAPE   H5R16308   1.311   3.948   6.707  0.2124  2.0857  0.6969
  148SAPE   C2616309   1.312   4.023   6.902  0.0636 -0.0497 -0.0185
  148SAPE   H6R16310   1.307   4.125   6.862 -0.4198 -0.0197  0.1074
  148SAPE   C2716311   1.309   4.014   7.054 -0.1332 -0.5614 -0.6745
  148SAPE   H7R16312   1.339   4.113   7.094 -0.8428  0.2643 -2.0921
  148SAPE   H7S16313   1.393   3.949   7.089  0.6982 -0.0388 -1.6464
  148SAPE   C2816314   1.176   3.969   7.112  1.2742 -0.1197  0.0617
  148SAPE   H8R16315   1.100   3.950   7.035  0.4100  0.2550  0.8065
  148SAPE   C2916316   1.133   3.977   7.237 -0.0852  0.7541 -0.1328
  148SAPE   H9R16317   1.042   3.925   7.269  0.6251  0.4033  1.4275
  148SAPE  C21016318   1.226   4.030   7.344 -0.0551  0.0714  0.0319
  148SAPE  H10R16319   1.260   4.133   7.321  3.3426 -1.0337 -0.5204
  148SAPE  H10S16320   1.323   3.976   7.347  0.9179  1.7869  1.7369
  148SAPE  C21116321   1.157   4.032   7.483  0.1950  0.2956 -0.5097
  148SAPE  H11R16322   1.079   4.109   7.494 -1.0575 -1.0148  0.1807
  148SAPE  C21216323   1.194   3.953   7.588  0.3583  0.1373  0.4843
  148SAPE  H12R16324   1.128   3.968   7.675 -1.8228  0.5741 -1.1828
  148SAPE  C21316325   1.304   3.845   7.598 -0.4111  0.1254  0.5099
  148SAPE  H13R16326   1.392   3.884   7.655  0.0546 -0.4030  0.1693
  148SAPE  H13S16327   1.351   3.812   7.503  1.4060 -1.2759  1.8008
  148SAPE  C21416328   1.268   3.716   7.665 -0.1254  0.2311  0.2388
  148SAPE  H14R16329   1.335   3.688   7.748  0.2861 -0.2746 -0.2605
  148SAPE  C21516330   1.175   3.625   7.627 -1.2206 -0.2908 -0.6976
  148SAPE  H15R16331   1.154   3.535   7.687 -3.7848  0.0872 -0.9223
  148SAPE  C21616332   1.082   3.638   7.503 -0.1788  0.3227 -0.9096
  148SAPE  H16R16333   1.064   3.746   7.484  1.4313  0.5766 -1.1178
  148SAPE  H16S16334   0.984   3.591   7.528  0.4723 -1.0622 -0.8383
  148SAPE  C21716335   1.137   3.575   7.376 -0.3021  0.8769  0.8185
  148SAPE  H17R16336   1.225   3.630   7.336  1.2677  0.5082  3.5414
  148SAPE  H17S16337   1.057   3.590   7.301  1.5230 -0.2924 -1.4808
  148SAPE  C21816338   1.174   3.427   7.377 -1.0656 -0.1061 -0.5910
  148SAPE  H18R16339   1.089   3.385   7.435 -1.1080 -0.7830 -1.1387
  148SAPE  H18S16340   1.270   3.412   7.430  0.5991  0.1352 -3.3205
  148SAPE  C21916341   1.174   3.352   7.238  0.8421 -0.1056 -0.4906
  148SAPE  H19R16342   1.245   3.419   7.184 -0.1915  1.7358  0.3245
  148SAPE  H19S16343   1.074   3.355   7.191  1.0790  0.2830 -0.9798
  148SAPE  C22016344   1.219   3.211   7.253 -0.4354  0.1411  0.0149
  148SAPE  H20R16345   1.151   3.149   7.316  2.2577 -3.7700 -0.5560
  148SAPE  H20S16346   1.317   3.203   7.304  0.2392  0.8326 -1.1489
  148SAPE  H20T16347   1.218   3.158   7.155 -2.4012 -2.5120  1.3202
  148SAPE   C3316348   1.787   3.932   6.831  1.2023  0.2802  0.1507
  148SAPE   H3X16349   1.816   4.039   6.846  0.6118  0.6990 -1.4358
  148SAPE   H3Y16350   1.872   3.875   6.788 -1.8184 -2.2720 -3.0406
  148SAPE   C3416351   1.754   3.849   6.956 -0.5120 -0.2549 -0.3807
  148SAPE   H4X16352   1.723   3.743   6.938  0.4353 -0.8257  1.1778
  148SAPE   H4Y16353   1.672   3.894   7.016 -0.8526 -0.8340 -0.3950
  148SAPE   C3516354   1.872   3.846   7.057  0.7339  0.5217  0.5101
  148SAPE   H5X16355   1.970   3.830   7.007  0.7613 -0.2279  0.7977
  148SAPE   H5Y16356   1.859   3.762   7.128  0.4025  0.5161  0.4476
  148SAPE   C3616357   1.874   3.977   7.135  0.7124  0.1817  0.0456
  148SAPE   H6X16358   1.775   3.990   7.184  0.9085 -0.0097  0.5003
  148SAPE   H6Y16359   1.895   4.063   7.069  1.1684  0.1202  0.1053
  148SAPE   C3716360   1.969   3.970   7.253  0.4341  0.4041  0.2481
  148SAPE   H7X16361   2.066   3.932   7.215 -0.0336 -0.2803 -0.2812
  148SAPE   H7Y16362   1.922   3.888   7.312  0.2661  0.6786  0.4997
  148SAPE   C3816363   1.995   4.097   7.341 -0.6056 -0.8739 -0.8691
  148SAPE   H8X16364   1.918   4.112   7.420 -1.3004  3.3173 -2.1065
  148SAPE   H8Y16365   1.985   4.184   7.273  2.2914  0.3571  0.1070
  148SAPE   C3916366   2.137   4.121   7.387  0.0238  0.1586 -0.2961
  148SAPE   H9X16367   2.202   4.137   7.299 -0.5672 -0.2512 -0.8090
  148SAPE   H9Y16368   2.163   4.020   7.427  1.5536  0.3443 -0.7685
  148SAPE  C31016369   2.152   4.241   7.479 -0.4882  0.4636  0.2872
  148SAPE  H10X16370   2.100   4.328   7.432 -1.3087 -1.1230 -1.9145
  148SAPE  H10Y16371   2.257   4.267   7.504 -0.3747 -1.2179  1.6528
  148SAPE  C31116372   2.088   4.229   7.612  0.2798  0.0612 -0.2202
  148SAPE  H11X16373   2.136   4.154   7.678  0.7914 -0.2639 -0.9532
  148SAPE  H11Y16374   1.982   4.202   7.593  0.4437  0.2710 -1.5305
  148SAPE  C31216375   2.099   4.365   7.687  0.7432 -0.7667  0.4748
  148SAPE  H12X16376   2.083   4.452   7.621  0.6558 -1.6400 -0.6880
  148SAPE  H12Y16377   2.205   4.372   7.719  0.9829 -2.4422  0.1469
  148SAPE  C31316378   1.989   4.376   7.796  0.2982  0.5815  0.8574
  148SAPE  H13X16379   1.890   4.356   7.751  0.3009 -0.8551  1.4167
  148SAPE  H13Y16380   1.991   4.474   7.848 -1.9718 -0.7898  3.8681
  148SAPE  C31416381   2.019   4.290   7.918 -0.6906  0.3362  0.0059
  148SAPE  H14X16382   2.121   4.298   7.960 -0.2169 -2.3000 -0.4777
  148SAPE  H14Y16383   2.009   4.182   7.892  0.5160 -0.5169  2.7260
  148SAPE  C31516384   1.935   4.323   8.033  0.4471  0.0640 -0.0002
  148SAPE  H15X16385   1.827   4.315   8.006  0.9954  1.9395 -3.2208
  148SAPE  H15Y16386   1.945   4.432   8.049  1.8786 -0.2093  1.2005
  148SAPE  C31616387   1.979   4.250   8.164  0.0464  0.5632  0.6764
  148SAPE  H16X16388   2.087   4.273   8.179  0.4653  0.2661 -1.5269
  148SAPE  H16Y16389   1.977   4.140   8.147 -0.0847  0.7488 -0.6777
  148SAPE  C31716390   1.890   4.270   8.288  0.2537 -0.1313 -0.0222
  148SAPE  H17X16391   1.883   4.378   8.313 -3.1478 -0.7774  2.4858
  148SAPE  H17Y16392   1.946   4.221   8.370 -0.2735 -1.2443 -0.2964
  148SAPE  C31816393   1.743   4.218   8.272 -0.2732  0.2610 -0.3629
  148SAPE  H18X16394   1.747   4.122   8.218  0.8878 -1.7032  2.8936
  148SAPE  H18Y16395   1.679   4.293   8.221  0.6938 -0.2289 -2.3812
  148SAPE  H18Z16396   1.696   4.207   8.373  1.3624  1.0636  0.5342
  149SAPE     N16397   5.943   3.375   6.069  0.0664 -0.4578  0.3078
  149SAPE   HN116398   5.863   3.434   6.037 -0.1783 -0.3148  1.1668
  149SAPE   HN216399   5.899   3.298   6.122 -0.0424 -1.1117 -0.7097
  149SAPE   HN316400   6.007   3.432   6.128  0.3716  0.8947 -1.2388
  149SAPE   C1216401   6.027   3.318   5.955 -0.2701  0.5264 -0.2621
  149SAPE  H12A16402   6.135   3.342   5.968  0.1599 -1.6603  0.8223
  149SAPE  H12B16403   5.983   3.369   5.867 -3.4420 -0.9207  0.3376
  149SAPE   C1116404   6.018   3.164   5.967 -0.5558  0.2811 -0.6409
  149SAPE  H11A16405   6.060   3.119   5.875  1.3683 -0.1402  0.3870
  149SAPE  H11B16406   5.912   3.133   5.977 -0.7915  1.1158 -0.4020
  149SAPE     P16407   6.068   2.992   6.148 -0.0323  0.2612 -0.3472
  149SAPE   O1316408   5.965   2.918   6.074 -0.5031 -0.1281  0.0906
  149SAPE   O1416409   6.193   2.913   6.169  0.5425  0.0987  0.0014
  149SAPE   O1216410   6.104   3.125   6.076 -0.0611 -0.0094  0.3353
  149SAPE   O1116411   6.020   3.059   6.283 -0.1067  0.2600 -0.1984
  149SAPE    C116412   6.104   3.155   6.355 -0.4305  0.3109 -0.0943
  149SAPE    HA16413   6.159   3.221   6.285 -0.8593  0.8952  0.1086
  149SAPE    HB16414   6.039   3.222   6.415 -2.2687  0.9326 -2.6052
  149SAPE    C216415   6.215   3.103   6.446  0.2058  0.0844 -0.6094
  149SAPE    HS16416   6.272   3.021   6.397 -0.9120 -1.4800  0.5847
  149SAPE   O2116417   6.152   3.068   6.568  0.4318 -0.0286 -0.2956
  149SAPE   C2116418   6.182   2.950   6.616 -0.4216  0.8243 -0.2207
  149SAPE   O2216419   6.256   2.872   6.562 -0.2074 -0.1151  0.1458
  149SAPE   C2216420   6.122   2.937   6.755  0.3180 -0.0539  0.4681
  149SAPE   H2R16421   6.074   3.033   6.782 -1.5956 -0.3871 -1.5043
  149SAPE   H2S16422   6.040   2.866   6.732  1.6666 -1.1985 -1.0368
  149SAPE    C316423   6.327   3.205   6.484 -0.0633  0.1239 -0.1355
  149SAPE    HX16424   6.291   3.281   6.556  2.3164 -0.0003  1.2949
  149SAPE    HY16425   6.364   3.262   6.397  1.4023 -2.0598 -1.0161
  149SAPE   O3116426   6.438   3.141   6.546 -0.2826 -0.4177 -0.2502
  149SAPE   C3116427   6.537   3.228   6.584  0.7639  0.6830 -0.6998
  149SAPE   O3216428   6.543   3.348   6.570  0.5085 -0.9618 -0.3830
  149SAPE   C3216429   6.644   3.150   6.661 -0.2345 -0.3497 -0.0061
  149SAPE   H2X16430   6.698   3.101   6.577 -0.4156  0.1694 -0.4250
  149SAPE   H2Y16431   6.583   3.072   6.710 -0.5689 -0.1551 -0.1128
  149SAPE   C2316432   6.222   2.890   6.863 -0.1431 -0.5514 -0.3687
  149SAPE   H3R16433   6.319   2.860   6.818  0.0308 -0.4700 -0.0466
  149SAPE   H3S16434   6.179   2.802   6.915 -1.9745 -0.0928 -1.0014
  149SAPE   C2416435   6.240   3.004   6.969 -0.0012  0.9003 -0.5964
  149SAPE   H4R16436   6.296   3.092   6.932  2.3207 -1.2269 -2.5077
  149SAPE   H4S16437   6.311   2.955   7.040 -0.5391 -0.1415 -0.7630
  149SAPE   C2516438   6.112   3.045   7.029  0.5124 -0.2479 -0.0509
  149SAPE   H5R16439   6.042   3.099   6.964 -0.2516  0.8863  1.6505
  149SAPE   C2616440   6.088   3.040   7.162 -1.0928 -0.4423 -0.2823
  149SAPE   H6R16441   5.985   3.071   7.182 -1.3309 -0.5780 -1.2374
  149SAPE   C2716442   6.167   2.985   7.281 -0.4806 -0.2953 -0.3066
  149SAPE   H7R16443   6.269   3.025   7.260 -0.9986  0.2382 -1.9901
  149SAPE   H7S16444   6.181   2.876   7.260  2.6771  0.0926 -0.6726
  149SAPE   C2816445   6.118   3.013   7.417  0.4126 -0.5778 -1.1223
  149SAPE   H8R16446   6.038   3.088   7.424  2.5866  1.7640  0.0539
  149SAPE   C2916447   6.175   2.964   7.528  0.3388 -0.3432 -0.2911
  149SAPE   H9R16448   6.136   2.979   7.630  0.4814 -1.2194 -0.0961
  149SAPE  C21016449   6.297   2.868   7.531  0.4581 -0.5266 -0.3972
  149SAPE  H10R16450   6.384   2.920   7.574 -1.0994  2.1592 -0.2412
  149SAPE  H10S16451   6.326   2.839   7.428 -1.8471 -0.6158 -1.0774
  149SAPE  C21116452   6.261   2.753   7.609  0.0297  0.1871  0.0111
  149SAPE  H11R16453   6.161   2.709   7.594  0.2949  0.3451 -2.5637
  149SAPE  C21216454   6.323   2.698   7.711  0.3753  0.6512  0.4414
  149SAPE  H12R16455   6.287   2.601   7.747  0.7607 -0.3978 -1.8236
  149SAPE  C21316456   6.460   2.738   7.756 -0.4650  0.9886 -0.3636
  149SAPE  H13R16457   6.451   2.815   7.836 -0.5655  0.3692  0.2314
  149SAPE  H13S16458   6.503   2.792   7.669 -0.7914 -0.7866 -1.6758
  149SAPE  C21416459   6.556   2.632   7.798 -0.4320  0.2257  0.2179
  149SAPE  H14R16460   6.651   2.622   7.744  0.0566  0.4684  1.0186
  149SAPE  C21516461   6.552   2.551   7.908  0.0373 -0.3434 -0.7316
  149SAPE  H15R16462   6.625   2.471   7.926  0.1372  0.2639  1.9849
  149SAPE  C21616463   6.437   2.547   8.009  0.1555 -0.8188  0.1676
  149SAPE  H16R16464   6.339   2.548   7.957 -0.5941 -1.2659  1.5120
  149SAPE  H16S16465   6.437   2.643   8.065 -0.4884 -0.4917 -0.3873
  149SAPE  C21716466   6.440   2.428   8.106 -0.4596 -0.6469 -0.7964
  149SAPE  H17R16467   6.546   2.420   8.137 -0.8680 -1.0941  0.5822
  149SAPE  H17S16468   6.423   2.334   8.050 -2.2660 -2.6147  2.6712
  149SAPE  C21816469   6.338   2.449   8.222  0.0535 -0.0258  0.0770
  149SAPE  H18R16470   6.241   2.473   8.174  0.3880  0.0383 -0.5841
  149SAPE  H18S16471   6.369   2.530   8.291  1.3816 -0.7479  0.3684
  149SAPE  C21916472   6.317   2.317   8.292 -0.7907 -1.0244 -0.2156
  149SAPE  H19R16473   6.410   2.303   8.351 -1.4311  2.2200  1.8214
  149SAPE  H19S16474   6.308   2.229   8.224  0.4431 -0.7133 -0.8128
  149SAPE  C22016475   6.192   2.317   8.382  0.3245  0.2714  0.1888
  149SAPE  H20R16476   6.180   2.420   8.422 -1.9814 -0.8041  2.5531
  149SAPE  H20S16477   6.194   2.234   8.456  0.2957 -0.7015 -0.8637
  149SAPE  H20T16478   6.105   2.295   8.316  1.1339 -1.2592 -0.4187
  149SAPE   C3316479   6.738   3.229   6.755  0.1062 -0.4369 -0.0125
  149SAPE   H3X16480   6.786   3.316   6.705 -0.4723 -0.4751 -0.6404
  149SAPE   H3Y16481   6.820   3.159   6.782 -0.3794  0.2645  3.8773
  149SAPE   C3416482   6.664   3.266   6.879  0.4613 -0.0204 -0.3960
  149SAPE   H4X16483   6.571   3.319   6.849 -0.6203 -1.8835 -0.4849
  149SAPE   H4Y16484   6.718   3.342   6.940 -1.4602  1.4109 -0.3713
  149SAPE   C3516485   6.613   3.154   6.973  0.5863  0.1337 -0.5249
  149SAPE   H5X16486   6.695   3.086   7.005  0.6910  0.6931  0.4310
  149SAPE   H5Y16487   6.525   3.105   6.927  0.9491 -0.1536 -0.9143
  149SAPE   C3616488   6.551   3.221   7.097 -0.1702  0.2834  0.2890
  149SAPE   H6X16489   6.455   3.268   7.069 -0.5900 -0.5266  0.3504
  149SAPE   H6Y16490   6.633   3.292   7.123 -0.7925  1.2432 -0.3050
  149SAPE   C3716491   6.540   3.121   7.216  0.0509  0.2282  0.0018
  149SAPE   H7X16492   6.641   3.085   7.245  0.0765  1.5931  1.7530
  149SAPE   H7Y16493   6.489   3.030   7.178 -0.3308  1.3214 -2.2752
  149SAPE   C3816494   6.465   3.166   7.348 -0.5976 -0.5824 -0.2566
  149SAPE   H8X16495   6.475   3.073   7.408 -2.1509 -1.0882 -0.7424
  149SAPE   H8Y16496   6.358   3.190   7.332 -1.2658 -2.2528  1.3153
  149SAPE   C3916497   6.533   3.286   7.422 -0.0034  0.3037  0.3536
  149SAPE   H9X16498   6.564   3.359   7.344  1.6704  0.2921  0.9705
  149SAPE   H9Y16499   6.633   3.256   7.460  0.3691  0.0826 -0.7781
  149SAPE  C31016500   6.448   3.357   7.523  0.8160  0.0262 -0.0965
  149SAPE  H10X16501   6.357   3.402   7.478  0.5093  1.0364  1.4700
  149SAPE  H10Y16502   6.513   3.438   7.564  0.4624 -0.0531  0.6255
  149SAPE  C31116503   6.409   3.257   7.635 -0.8935  0.2298  0.0061
  149SAPE  H11X16504   6.506   3.207   7.651  1.1744  2.3990 -4.1928
  149SAPE  H11Y16505   6.350   3.173   7.592  1.1551 -1.7273  0.8709
  149SAPE  C31216506   6.334   3.316   7.759 -0.6924  0.0945  1.3160
  149SAPE  H12X16507   6.236   3.360   7.733 -2.4296 -3.3265  1.4338
  149SAPE  H12Y16508   6.392   3.405   7.790  1.8434 -1.7716  2.2961
  149SAPE  C31316509   6.324   3.236   7.888 -0.5182  0.5579 -0.1944
  149SAPE  H13X16510   6.428   3.204   7.905  0.5686  2.5284 -2.4953
  149SAPE  H13Y16511   6.253   3.154   7.866  0.3254  0.0462 -1.0926
  149SAPE  C31416512   6.274   3.312   8.011  0.2266  0.2554 -0.0010
  149SAPE  H14X16513   6.177   3.359   7.986 -0.2058 -0.2106  0.7682
  149SAPE  H14Y16514   6.346   3.393   8.035  3.6284 -1.7401 -2.6027
  149SAPE  C31516515   6.238   3.231   8.135  0.2647  0.3351  0.3751
  149SAPE  H15X16516   6.181   3.142   8.103  3.2107 -0.9783 -1.6275
  149SAPE  H15Y16517   6.175   3.293   8.203 -2.1437  1.4338 -2.6130
  149SAPE  C31616518   6.358   3.177   8.203  0.5187 -0.0890 -1.1434
  149SAPE  H16X16519   6.423   3.122   8.132 -0.1482 -4.0962  1.0767
  149SAPE  H16Y16520   6.317   3.104   8.276  0.4389  0.0629 -1.0344
  149SAPE  C31716521   6.428   3.292   8.277 -0.7651 -0.2245  0.2046
  149SAPE  H17X16522   6.350   3.329   8.348 -1.7055  2.4246 -2.0443
  149SAPE  H17Y16523   6.447   3.364   8.195 -0.2852 -1.1149 -0.4903
  149SAPE  C31816524   6.554   3.248   8.345 -0.0964  0.0576  1.1046
  149SAPE  H18X16525   6.534   3.174   8.425 -0.9113  0.2605  1.1044
  149SAPE  H18Y16526   6.596   3.339   8.394  1.4175 -0.9038  1.6581
  149SAPE  H18Z16527   6.625   3.218   8.266 -0.5246  0.6245  0.4975
  150SAPE     N16528   0.595   3.035   6.230  0.0998  0.4718 -0.5804
  150SAPE   HN116529   0.647   3.124   6.218  0.1410  0.2533 -2.3281
  150SAPE   HN216530   0.513   3.060   6.288  0.3320 -0.5272  0.2009
  150SAPE   HN316531   0.658   2.975   6.287 -0.4128  0.0334 -0.4626
  150SAPE   C1216532   0.555   2.978   6.099 -0.0517  0.4091  0.6147
  150SAPE  H12A16533   0.650   2.967   6.042  1.0082  1.2147  2.1414
  150SAPE  H12B16534   0.490   3.054   6.051 -2.3192 -0.5003  2.0814
  150SAPE   C1116535   0.474   2.847   6.095  0.1029 -0.2385  0.7182
  150SAPE  H11A16536   0.547   2.768   6.126  1.8359  1.2477  0.5966
  150SAPE  H11B16537   0.453   2.824   5.988 -2.5950  2.0330  0.6485
  150SAPE     P16538   0.222   2.813   6.123 -0.3222  0.5262  0.0397
  150SAPE   O1316539   0.160   2.942   6.076  0.6402  0.3656  0.0575
  150SAPE   O1416540   0.228   2.700   6.022 -0.0032 -0.0172 -0.4565
  150SAPE   O1216541   0.362   2.842   6.180  0.2741 -0.4223 -0.1286
  150SAPE   O1116542   0.144   2.755   6.242 -1.0846 -0.6023  0.0471
  150SAPE    C116543   0.117   2.844   6.355 -0.2156 -0.0824 -0.4498
  150SAPE    HA16544   0.165   2.944   6.354 -2.0813  0.8736 -0.9116
  150SAPE    HB16545   0.007   2.862   6.363 -0.3277 -0.3470 -1.3665
  150SAPE    C216546   0.139   2.785   6.497 -0.0463 -0.4605  0.2784
  150SAPE    HS16547   0.247   2.780   6.523 -0.5429 -1.7973  2.3463
  150SAPE   O2116548   0.074   2.657   6.504  0.4802  0.1216  0.3074
  150SAPE   C2116549   0.120   2.577   6.596 -0.1653 -0.4383  0.4978
  150SAPE   O2216550   0.213   2.599   6.668 -0.1912  0.1320  0.3087
  150SAPE   C2216551   0.035   2.451   6.594  0.8031 -0.0132 -0.1625
  150SAPE   H2R16552  -0.071   2.471   6.623  1.1414  2.0267 -0.2011
  150SAPE   H2S16553   0.025   2.416   6.489 -1.1261 -1.0700  0.3207
  150SAPE    C316554   0.071   2.881   6.604  0.1092  0.5117 -0.4125
  150SAPE    HX16555  -0.039   2.872   6.589 -0.0013 -0.2948  0.7708
  150SAPE    HY16556   0.089   2.987   6.574 -1.3723  0.4102 -1.8222
  150SAPE   O3116557   0.099   2.840   6.742  0.3506  0.5584  0.5040
  150SAPE   C3116558   0.208   2.897   6.790  0.4146  0.7900 -0.1172
  150SAPE   O3216559   0.277   2.978   6.734 -0.3413 -0.4354 -0.0931
  150SAPE   C3216560   0.234   2.852   6.927 -0.5224 -0.2987  0.8313
  150SAPE   H2X16561   0.286   2.754   6.930  1.9919  0.9605  1.3716
  150SAPE   H2Y16562   0.143   2.831   6.988 -0.1091  3.1783  2.9267
  150SAPE   C2316563   0.087   2.339   6.687 -0.0994  0.0630  0.7349
  150SAPE   H3R16564   0.069   2.368   6.793  0.1380 -2.8752  1.6626
  150SAPE   H3S16565   0.192   2.320   6.657 -0.5209 -2.4296  0.6119
  150SAPE   C2416566   0.012   2.203   6.663 -0.2506 -0.4660 -0.1216
  150SAPE   H4R16567   0.068   2.133   6.728  0.2455 -0.0076 -0.0422
  150SAPE   H4S16568   0.013   2.173   6.557 -0.5085  0.6359 -0.4547
  150SAPE   C2516569  -0.134   2.218   6.703  0.7460  0.5433  0.2342
  150SAPE   H5R16570  -0.208   2.240   6.624 -1.5655  0.6963  2.3045
  150SAPE   C2616571  -0.188   2.180   6.824  0.0581  0.6143 -0.3289
  150SAPE   H6R16572  -0.298   2.188   6.824  0.1244  2.0871 -2.0710
  150SAPE   C2716573  -0.113   2.121   6.946  0.0603  0.3001 -0.0841
  150SAPE   H7R16574  -0.005   2.116   6.921 -0.4217 -0.3138 -2.2757
  150SAPE   H7S16575  -0.143   2.015   6.950 -0.3817  0.4606  1.3049
  150SAPE   C2816576  -0.129   2.196   7.071  0.1024 -0.1315  0.3388
  150SAPE   H8R16577  -0.223   2.242   7.104  0.8151 -0.7691  3.6374
  150SAPE   C2916578  -0.040   2.189   7.175  0.1593  0.3562  0.2645
  150SAPE   H9R16579  -0.065   2.230   7.274  2.2012 -0.6731  1.2705
  150SAPE  C21016580   0.079   2.104   7.181 -0.2408 -0.4198  0.4603
  150SAPE  H10R16581   0.145   2.136   7.098 -2.2003  0.1687 -0.9533
  150SAPE  H10S16582   0.061   1.994   7.174  1.6082 -0.7199 -0.1495
  150SAPE  C21116583   0.148   2.118   7.310  0.4476  0.1927  0.0979
  150SAPE  H11R16584   0.106   2.171   7.397 -0.4955 -1.4479  0.7015
  150SAPE  C21216585   0.261   2.050   7.341 -0.4348 -0.3094  0.3873
  150SAPE  H12R16586   0.307   2.053   7.441  0.0680 -0.8048  0.1743
  150SAPE  C21316587   0.352   1.964   7.255 -0.2913 -0.2915 -0.0006
  150SAPE  H13R16588   0.455   1.977   7.295 -0.7326  1.6188  0.6476
  150SAPE  H13S16589   0.348   1.987   7.146 -2.2584 -0.0125  0.1112
  150SAPE  C21416590   0.319   1.823   7.292  0.0709  0.2461  1.5002
  150SAPE  H14R16591   0.211   1.812   7.308 -0.3292  1.8890  0.2345
  150SAPE  C21516592   0.402   1.716   7.308 -0.1714 -0.3607 -0.3296
  150SAPE  H15R16593   0.362   1.614   7.323 -0.1067 -0.3368  0.0054
  150SAPE  C21616594   0.552   1.731   7.290  0.5812 -0.2273 -0.1777
  150SAPE  H16R16595   0.591   1.635   7.331  1.9887  0.7143  0.7903
  150SAPE  H16S16596   0.594   1.803   7.363  1.3723 -1.5911  0.7554
  150SAPE  C21716597   0.631   1.756   7.156  0.2616 -0.1881  0.1427
  150SAPE  H17R16598   0.738   1.752   7.185  0.8865  0.4573 -1.8841
  150SAPE  H17S16599   0.596   1.856   7.119 -0.9157  0.3503  2.4973
  150SAPE  C21816600   0.601   1.650   7.045 -0.8813 -0.7315  0.1073
  150SAPE  H18R16601   0.491   1.635   7.058 -1.0668  0.4771  0.1048
  150SAPE  H18S16602   0.643   1.554   7.081  1.3004 -0.1239 -0.6852
  150SAPE  C21916603   0.642   1.679   6.904 -0.0378 -0.1823 -0.3505
  150SAPE  H19R16604   0.751   1.698   6.909 -0.0292 -0.2779 -0.1941
  150SAPE  H19S16605   0.596   1.776   6.875 -0.7014 -0.2551  0.4158
  150SAPE  C22016606   0.614   1.568   6.798 -0.0065 -0.1481 -0.3455
  150SAPE  H20R16607   0.652   1.470   6.835  0.2516  0.2676  0.5347
  150SAPE  H20S16608   0.673   1.592   6.707  0.5503 -0.5546 -0.1003
  150SAPE  H20T16609   0.506   1.569   6.774 -0.1559  0.3806  0.3183
  150SAPE   C3316610   0.330   2.937   7.008 -0.1085  0.6155  0.3636
  150SAPE   H3X16611   0.267   3.011   7.062 -0.7829  1.8850 -2.0106
  150SAPE   H3Y16612   0.397   2.999   6.944 -0.0156  3.1949  2.7318
  150SAPE   C3416613   0.422   2.860   7.108 -0.1686  0.0004  0.1563
  150SAPE   H4X16614   0.491   2.792   7.052  0.2171 -0.7466  1.4744
  150SAPE   H4Y16615   0.359   2.793   7.170 -1.5092 -0.7924 -1.9478
  150SAPE   C3516616   0.502   2.953   7.196  0.0483  0.7530 -0.0285
  150SAPE   H5X16617   0.552   3.033   7.138  3.6745 -0.9103  0.5620
  150SAPE   H5Y16618   0.579   2.888   7.241  0.9889  1.4302 -0.6268
  150SAPE   C3616619   0.411   3.021   7.305 -0.6295  0.2216 -0.7695
  150SAPE   H6X16620   0.324   2.953   7.318 -0.5839  0.0312 -1.4315
  150SAPE   H6Y16621   0.373   3.121   7.278 -0.0593 -0.0503 -2.7661
  150SAPE   C3716622   0.488   3.019   7.435 -0.6206 -0.7943 -0.2196
  150SAPE   H7X16623   0.547   3.112   7.449 -1.3442 -0.1314 -1.4085
  150SAPE   H7Y16624   0.556   2.931   7.440 -0.9475 -1.0256  0.1649
  150SAPE   C3816625   0.395   3.002   7.560 -0.0536 -0.2574  0.0099
  150SAPE   H8X16626   0.334   2.912   7.536  0.2042  0.0033 -1.7391
  150SAPE   H8Y16627   0.329   3.092   7.559  0.9508  0.5008  0.4743
  150SAPE   C3916628   0.473   2.996   7.689  0.0247 -0.1598  0.0094
  150SAPE   H9X16629   0.519   3.097   7.692 -3.0698  1.3398  0.3225
  150SAPE   H9Y16630   0.558   2.924   7.681  0.1555  0.1345 -1.3764
  150SAPE  C31016631   0.395   2.954   7.807  0.8422 -0.9634  0.3524
  150SAPE  H10X16632   0.344   2.857   7.790  2.6442 -2.0620  0.8749
  150SAPE  H10Y16633   0.318   3.024   7.846  3.0932  1.4306  0.8001
  150SAPE  C31116634   0.490   2.935   7.931 -0.0432 -0.3903  0.5064
  150SAPE  H11X16635   0.546   3.031   7.930  0.8287 -0.8816 -1.0067
  150SAPE  H11Y16636   0.562   2.850   7.919  0.5938 -0.8733  5.4381
  150SAPE  C31216637   0.410   2.924   8.058 -0.0795 -0.3014 -0.2798
  150SAPE  H12X16638   0.321   2.858   8.048 -0.9400  0.7798  0.0513
  150SAPE  H12Y16639   0.378   3.028   8.082  0.1934 -0.5843  1.3873
  150SAPE  C31316640   0.499   2.893   8.175 -0.3901  0.6708  0.8507
  150SAPE  H13X16641   0.544   2.987   8.213 -0.3577  0.5299  1.1619
  150SAPE  H13Y16642   0.581   2.825   8.144 -1.0476  0.0556  0.4180
  150SAPE  C31416643   0.416   2.819   8.281 -0.0815 -0.3493  0.3191
  150SAPE  H14X16644   0.378   2.725   8.236  1.2859 -1.2437  0.9691
  150SAPE  H14Y16645   0.327   2.883   8.300  0.7868  0.8783  0.3533
  150SAPE  C31516646   0.486   2.769   8.401 -0.2866  0.1190 -0.3981
  150SAPE  H15X16647   0.531   2.847   8.466 -1.1056  0.5706 -0.3509
  150SAPE  H15Y16648   0.574   2.715   8.361  0.7876  0.6874  1.1150
  150SAPE  C31616649   0.389   2.697   8.495 -0.3956 -0.0404 -0.2626
  150SAPE  H16X16650   0.310   2.771   8.519 -1.4659 -1.3328  0.3070
  150SAPE  H16Y16651   0.450   2.690   8.588 -0.0031  1.2611 -0.3893
  150SAPE  C31716652   0.348   2.558   8.453  0.3473 -0.9320  0.0113
  150SAPE  H17X16653   0.439   2.499   8.429  1.1252  0.4785 -0.6375
  150SAPE  H17Y16654   0.290   2.564   8.358  0.4008  1.2189  0.0642
  150SAPE  C31816655   0.274   2.493   8.565  0.0774 -0.1670 -0.0936
  150SAPE  H18X16656   0.339   2.483   8.654  1.6651 -1.2981 -1.3310
  150SAPE  H18Y16657   0.268   2.388   8.530  2.0105 -0.2414 -0.2982
  150SAPE  H18Z16658   0.166   2.519   8.580 -0.3257 -1.0981 -1.2287
  151SAPE     N16659   0.595   2.429   6.103 -0.3779 -0.6807  0.4038
  151SAPE   HN116660   0.572   2.478   6.014  1.1596 -0.2081  0.2309
  151SAPE   HN216661   0.535   2.346   6.119 -1.5744  0.5447  2.7357
  151SAPE   HN316662   0.574   2.503   6.173  1.3120  0.6019 -0.3575
  151SAPE   C1216663   0.736   2.392   6.104 -0.4223  0.6309  0.0892
  151SAPE  H12A16664   0.766   2.318   6.025 -4.9056  0.2437 -1.5285
  151SAPE  H12B16665   0.754   2.339   6.200  1.3514 -0.6588 -0.8947
  151SAPE   C1116666   0.817   2.525   6.114 -0.6888  0.2082 -0.4608
  151SAPE  H11A16667   0.812   2.576   6.016 -1.3523  2.9081  0.8820
  151SAPE  H11B16668   0.922   2.489   6.124 -1.3617 -1.3152  2.5370
  151SAPE     P16669   0.823   2.750   6.234 -0.0998  0.2745 -0.1613
  151SAPE   O1316670   0.838   2.801   6.099  0.2633  0.1531 -0.3314
  151SAPE   O1416671   0.739   2.825   6.326 -0.2197  0.0952 -0.5118
  151SAPE   O1216672   0.773   2.604   6.224 -0.2733  0.0607  0.1291
  151SAPE   O1116673   0.964   2.734   6.301 -0.3166  0.1659  0.4617
  151SAPE    C116674   1.003   2.614   6.374  0.4852  0.3420 -0.6207
  151SAPE    HA16675   0.978   2.519   6.321 -0.4892  1.1256 -1.6149
  151SAPE    HB16676   1.108   2.623   6.408  0.1030  0.2842  0.6369
  151SAPE    C216677   0.936   2.606   6.521 -0.2804  0.9610  0.4728
  151SAPE    HS16678   0.826   2.614   6.506 -0.1372  0.8556 -0.7666
  151SAPE   O2116679   0.996   2.712   6.598 -0.3344 -0.1216  0.8320
  151SAPE   C2116680   0.909   2.790   6.662 -0.1037 -0.5792  0.8410
  151SAPE   O2216681   0.787   2.785   6.658 -0.3946 -0.5140 -0.3539
  151SAPE   C2216682   0.995   2.881   6.749 -0.4343 -0.0718 -0.7968
  151SAPE   H2R16683   1.004   2.980   6.699  1.1634  0.2602  0.0856
  151SAPE   H2S16684   0.941   2.890   6.846 -2.2979  1.9167 -1.9088
  151SAPE    C316685   0.946   2.462   6.598  0.5741  0.1793  0.5661
  151SAPE    HX16686   1.054   2.450   6.620 -0.3507 -0.5741  5.8787
  151SAPE    HY16687   0.893   2.385   6.538  1.1739  0.6918 -0.6608
  151SAPE   O3116688   0.890   2.470   6.731 -0.1765 -0.2803  0.4565
  151SAPE   C3116689   0.759   2.449   6.750  0.3555 -0.5841  0.4996
  151SAPE   O3216690   0.686   2.400   6.665  0.4633  0.2505 -0.0351
  151SAPE   C3216691   0.713   2.513   6.878 -0.4321 -0.1684 -0.1766
  151SAPE   H2X16692   0.604   2.499   6.896 -0.0559 -0.6105  2.0271
  151SAPE   H2Y16693   0.719   2.623   6.866 -4.6864  0.1469 -1.0189
  151SAPE   C2316694   1.146   2.842   6.785  0.6346 -0.0794 -0.3965
  151SAPE   H3R16695   1.192   2.823   6.686 -0.1365 -2.4164 -0.3731
  151SAPE   H3S16696   1.148   2.746   6.841 -0.4896  0.0057 -0.1901
  151SAPE   C2416697   1.207   2.943   6.879  0.2121  0.4205 -0.1682
  151SAPE   H4R16698   1.160   2.948   6.980 -0.7830  0.9546 -0.6456
  151SAPE   H4S16699   1.193   3.049   6.850  0.3814  1.3312  2.8093
  151SAPE   C2516700   1.355   2.922   6.882 -0.7371  1.1553 -0.0027
  151SAPE   H5R16701   1.413   2.957   6.796  2.0781 -0.2507  1.1936
  151SAPE   C2616702   1.423   2.848   6.965 -0.9829 -0.1888 -0.0524
  151SAPE   H6R16703   1.530   2.832   6.944 -0.9514 -1.8970  1.1622
  151SAPE   C2716704   1.377   2.764   7.082 -0.4270  0.2089  0.5794
  151SAPE   H7R16705   1.362   2.662   7.040  1.8583 -0.4400  1.2297
  151SAPE   H7S16706   1.285   2.808   7.126  0.2671  2.0819  0.2446
  151SAPE   C2816707   1.485   2.749   7.189  0.2756 -0.0855  0.4119
  151SAPE   H8R16708   1.584   2.733   7.143 -0.5496 -0.2691 -1.4133
  151SAPE   C2916709   1.477   2.762   7.324  0.2638  0.6185  0.3088
  151SAPE   H9R16710   1.562   2.739   7.389 -1.1866  0.4276  2.2259
  151SAPE  C21016711   1.337   2.785   7.383 -0.4350  0.5564  0.1716
  151SAPE  H10R16712   1.260   2.735   7.321 -0.5881  0.6229  0.3071
  151SAPE  H10S16713   1.304   2.891   7.381  0.0194  0.6965 -1.1187
  151SAPE  C21116714   1.335   2.727   7.524 -1.1648  0.4344  0.4990
  151SAPE  H11R16715   1.316   2.619   7.530  2.1683 -0.2857  0.0774
  151SAPE  C21216716   1.329   2.797   7.641  0.2874 -0.2874  0.1903
  151SAPE  H12R16717   1.324   2.743   7.737 -0.8173 -0.1665  0.2223
  151SAPE  C21316718   1.334   2.946   7.654  0.1532 -0.0425 -0.0151
  151SAPE  H13R16719   1.260   2.970   7.732 -0.1945 -0.0954 -0.3285
  151SAPE  H13S16720   1.303   3.001   7.562  1.5489  1.0706  0.1355
  151SAPE  C21416721   1.467   2.994   7.700  0.3903  0.5844 -1.2154
  151SAPE  H14R16722   1.549   2.973   7.629  3.2614  1.6176  1.5771
  151SAPE  C21516723   1.498   3.041   7.819 -0.7077 -0.0334  0.0608
  151SAPE  H15R16724   1.603   3.067   7.839 -0.6297  1.0767 -1.5577
  151SAPE  C21616725   1.406   3.058   7.938 -0.1969  0.6458 -0.6337
  151SAPE  H16R16726   1.413   2.965   7.999 -0.1420  1.0996  0.0631
  151SAPE  H16S16727   1.301   3.061   7.903 -0.0841  0.7873 -0.9579
  151SAPE  C21716728   1.446   3.186   8.021  0.5833  0.0126 -0.0000
  151SAPE  H17R16729   1.453   3.283   7.966  0.6240  1.0539  1.7551
  151SAPE  H17S16730   1.542   3.160   8.070  0.4910  0.4143  0.3993
  151SAPE  C21816731   1.365   3.214   8.149 -0.2564 -0.3694 -0.1411
  151SAPE  H18R16732   1.365   3.124   8.214 -1.5815 -0.1679  0.1690
  151SAPE  H18S16733   1.263   3.244   8.115  1.1876  2.0740 -2.6567
  151SAPE  C21916734   1.429   3.330   8.222  0.4303  0.1687  0.1718
  151SAPE  H19R16735   1.428   3.429   8.171 -0.4498  0.9382  1.6072
  151SAPE  H19S16736   1.533   3.315   8.258  0.9725  3.4341  0.2806
  151SAPE  C22016737   1.349   3.362   8.343  0.5271  0.1370  0.0876
  151SAPE  H20R16738   1.333   3.264   8.393  0.3508 -0.9624 -2.0014
  151SAPE  H20S16739   1.405   3.428   8.413  0.8338  0.1697 -0.1908
  151SAPE  H20T16740   1.249   3.396   8.308 -0.0361 -2.8459 -1.4498
  151SAPE   C3316741   0.787   2.455   7.000  0.7340  0.6072 -0.2284
  151SAPE   H3X16742   0.826   2.355   6.969  0.3456 -0.9613  3.7974
  151SAPE   H3Y16743   0.717   2.434   7.083 -0.7940  0.4289 -1.5279
  151SAPE   C3416744   0.905   2.541   7.050  0.5555  0.5299 -0.1263
  151SAPE   H4X16745   0.969   2.562   6.962  1.1044 -0.2499  0.0663
  151SAPE   H4Y16746   0.980   2.491   7.115  0.1357  0.0378 -0.0077
  151SAPE   C3516747   0.864   2.659   7.141 -0.1026 -0.1089  0.0398
  151SAPE   H5X16748   0.823   2.623   7.238 -1.4791 -0.8720 -0.7841
  151SAPE   H5Y16749   0.779   2.715   7.095  1.6665  2.5169 -0.2182
  151SAPE   C3616750   0.984   2.751   7.158 -0.4815  0.4129 -0.5896
  151SAPE   H6X16751   1.036   2.755   7.060  0.4084  0.4313 -0.1302
  151SAPE   H6Y16752   1.055   2.698   7.226  0.4470  0.9523 -1.1137
  151SAPE   C3716753   0.944   2.889   7.215 -0.0067 -0.0763  0.0684
  151SAPE   H7X16754   0.855   2.918   7.155  0.6890 -1.6262 -1.8260
  151SAPE   H7Y16755   1.025   2.954   7.174 -0.2681  0.8289  0.9451
  151SAPE   C3816756   0.925   2.895   7.368 -0.1825 -0.4447 -0.9656
  151SAPE   H8X16757   1.018   2.861   7.419 -1.5637 -0.4024  1.7919
  151SAPE   H8Y16758   0.861   2.811   7.403  1.4443 -1.5110 -0.3820
  151SAPE   C3916759   0.879   3.027   7.424  0.0295 -0.4350 -0.6868
  151SAPE   H9X16760   0.784   3.070   7.384  0.1994 -0.1205 -0.7612
  151SAPE   H9Y16761   0.963   3.097   7.403 -1.1922  2.3226  2.6500
  151SAPE  C31016762   0.859   3.023   7.577 -0.2304 -0.2793 -0.1525
  151SAPE  H10X16763   0.841   2.918   7.608  2.0097 -0.1194  1.9847
  151SAPE  H10Y16764   0.761   3.075   7.586  0.3930  0.9287 -0.1172
  151SAPE  C31116765   0.971   3.067   7.673  0.3423 -0.2131  0.5954
  151SAPE  H11X16766   1.020   3.156   7.629 -1.7780  0.2917 -0.8368
  151SAPE  H11Y16767   1.052   2.991   7.680 -0.9431 -1.7780 -0.7355
  151SAPE  C31216768   0.908   3.098   7.808 -0.1007 -1.0555 -1.1536
  151SAPE  H12X16769   0.847   3.019   7.856  0.7401 -0.2758  1.3224
  151SAPE  H12Y16770   0.841   3.187   7.813 -0.9412 -1.7509  0.6505
  151SAPE  C31316771   1.014   3.129   7.913 -0.0257  0.2379 -0.5674
  151SAPE  H13X16772   1.104   3.180   7.871  3.2732 -0.5293  4.6343
  151SAPE  H13Y16773   1.056   3.035   7.955  1.2806  0.6152 -0.9722
  151SAPE  C31416774   0.958   3.226   8.024  0.0688  0.3713 -0.1254
  151SAPE  H14X16775   0.949   3.326   7.977 -1.7147 -0.2338 -1.2180
  151SAPE  H14Y16776   1.038   3.218   8.100  0.9821 -1.8907 -1.2162
  151SAPE  C31516777   0.819   3.182   8.083 -0.5851  0.3748  0.1932
  151SAPE  H15X16778   0.827   3.082   8.131 -0.9339  1.6946  3.2892
  151SAPE  H15Y16779   0.738   3.191   8.008 -2.7297 -0.0125  2.3563
  151SAPE  C31616780   0.765   3.270   8.206 -0.3473  0.1612  0.5205
  151SAPE  H16X16781   0.829   3.262   8.296 -0.0295  1.7498  0.4649
  151SAPE  H16Y16782   0.666   3.228   8.236  1.1362 -2.5713  2.0132
  151SAPE  C31716783   0.752   3.419   8.171 -0.2283  0.6173 -0.1861
  151SAPE  H17X16784   0.698   3.433   8.075  0.5458 -3.4884 -1.4424
  151SAPE  H17Y16785   0.850   3.468   8.154 -0.9396  2.5789  1.0041
  151SAPE  C31816786   0.679   3.491   8.283  0.1623 -1.2157 -1.0872
  151SAPE  H18X16787   0.575   3.454   8.293 -0.3026  0.2374 -0.1304
  151SAPE  H18Y16788   0.685   3.600   8.263  0.4448 -1.0925 -0.3882
  151SAPE  H18Z16789   0.738   3.477   8.377  0.4772 -0.5451 -1.1781
  152SAPE     N16790   0.104   3.398   6.219  0.4517  0.1658 -0.2248
  152SAPE   HN116791   0.026   3.467   6.218 -0.6882 -1.1039 -1.2647
  152SAPE   HN216792   0.156   3.423   6.132 -0.1594 -1.4009 -1.0715
  152SAPE   HN316793   0.066   3.303   6.205 -0.3056  0.0481  2.2349
  152SAPE   C1216794   0.177   3.390   6.351 -0.1567  0.4000  0.6868
  152SAPE  H12A16795   0.260   3.464   6.349 -0.2564  0.5058 -1.1547
  152SAPE  H12B16796   0.222   3.290   6.370  2.1175  1.8700  4.0694
  152SAPE   C1116797   0.082   3.413   6.469  1.1104 -0.5820  0.2449
  152SAPE  H11A16798   0.138   3.419   6.564 -0.4356  0.1517  1.1495
  152SAPE  H11B16799   0.010   3.329   6.485  0.3348 -0.2080 -1.0640
  152SAPE     P16800   0.058   3.670   6.459  0.2293 -0.4843 -0.1975
  152SAPE   O1316801   0.192   3.688   6.400 -0.0935  0.1081 -0.0222
  152SAPE   O1416802  -0.042   3.775   6.426 -0.4177 -0.2219  0.2926
  152SAPE   O1216803   0.001   3.530   6.430  0.7585  0.0657  0.3157
  152SAPE   O1116804   0.076   3.662   6.614  0.0284 -0.2184 -0.5078
  152SAPE    C116805  -0.022   3.621   6.707  0.4131 -0.4437 -0.2208
  152SAPE    HA16806  -0.094   3.552   6.658 -0.1072  0.9915 -1.5710
  152SAPE    HB16807   0.021   3.582   6.802 -1.1611 -2.5960 -0.3162
  152SAPE    C216808  -0.114   3.735   6.756 -0.6865  0.0888 -0.1194
  152SAPE    HS16809  -0.136   3.792   6.663 -0.9511 -0.1483 -0.2024
  152SAPE   O2116810  -0.036   3.809   6.847  0.3541 -0.4715  0.5132
  152SAPE   C2116811  -0.082   3.934   6.861  0.5242 -0.6805 -1.1600
  152SAPE   O2216812  -0.168   3.987   6.793  0.7709 -0.1374 -0.2463
  152SAPE   C2216813  -0.021   3.999   6.982 -0.7244 -0.2312 -0.5715
  152SAPE   H2R16814  -0.023   3.929   7.068 -1.8114  1.7028  1.0667
  152SAPE   H2S16815   0.078   4.031   6.943  0.8520  0.3129  3.4026
  152SAPE    C316816  -0.240   3.680   6.815  0.4318 -0.3694 -0.2536
  152SAPE    HX16817  -0.288   3.611   6.743  0.4216 -1.1744  0.5090
  152SAPE    HY16818  -0.314   3.762   6.820  2.0845  1.1722 -0.0689
  152SAPE   O3116819  -0.218   3.618   6.946 -0.5638  0.4911  0.5131
  152SAPE   C3116820  -0.250   3.692   7.059 -0.2514 -0.3236  0.3779
  152SAPE   O3216821  -0.302   3.800   7.056 -0.0469  0.3322 -0.3703
  152SAPE   C3216822  -0.218   3.603   7.183  0.5802  0.2487  0.1331
  152SAPE   H2X16823  -0.107   3.591   7.176  0.6409  1.0312 -0.4673
  152SAPE   H2Y16824  -0.275   3.508   7.175  0.1483  0.5004  0.2088
  152SAPE   C2316825  -0.083   4.130   7.024 -0.7772  0.7100 -0.0133
  152SAPE   H3R16826  -0.189   4.104   7.044 -0.7288  1.3791  1.1728
  152SAPE   H3S16827  -0.085   4.216   6.953  1.1245  1.9262  1.3186
  152SAPE   C2416828  -0.028   4.204   7.147  0.3547 -0.3882  0.0574
  152SAPE   H4R16829   0.071   4.242   7.113 -0.5285 -0.1214 -2.4246
  152SAPE   H4S16830  -0.016   4.143   7.239 -0.9505 -0.0535  0.4737
  152SAPE   C2516831  -0.113   4.324   7.178 -0.4161 -0.0632 -0.6152
  152SAPE   H5R16832  -0.146   4.386   7.094  1.9030  0.6325 -1.0872
  152SAPE   C2616833  -0.140   4.366   7.304 -0.3464 -0.2707  0.1970
  152SAPE   H6R16834  -0.199   4.459   7.310  0.7134  0.4332 -0.0307
  152SAPE   C2716835  -0.093   4.306   7.434  1.1055  0.9189 -0.5996
  152SAPE   H7R16836   0.012   4.337   7.456  0.8056  1.8510 -0.4056
  152SAPE   H7S16837  -0.084   4.196   7.439 -0.1402  0.8204 -0.0387
  152SAPE   C2816838  -0.175   4.351   7.554 -0.1521 -0.1371 -0.4566
  152SAPE   H8R16839  -0.275   4.388   7.525 -1.7404 -2.5933  1.3862
  152SAPE   C2916840  -0.132   4.362   7.678 -0.3968 -0.7773 -0.0808
  152SAPE   H9R16841  -0.192   4.422   7.749  2.1305 -1.9718  3.3519
  152SAPE  C21016842   0.006   4.324   7.737  0.3125 -0.5537 -0.9110
  152SAPE  H10R16843   0.013   4.364   7.841  1.9508 -1.5123 -0.6274
  152SAPE  H10S16844   0.082   4.376   7.675  0.9172  0.7300  0.8111
  152SAPE  C21116845   0.045   4.181   7.749 -0.5618 -0.1056  0.0626
  152SAPE  H11R16846   0.138   4.159   7.694 -0.0746  1.3343  0.2640
  152SAPE  C21216847  -0.003   4.083   7.823 -0.3832  0.6538 -0.6626
  152SAPE  H12R16848   0.067   3.999   7.819  1.2242  1.8399  1.1066
  152SAPE  C21316849  -0.122   4.088   7.921  0.4291 -0.4165  0.3195
  152SAPE  H13R16850  -0.129   4.173   7.992  2.1327 -1.4653  1.8252
  152SAPE  H13S16851  -0.114   4.005   7.994 -2.0695 -1.2155 -0.2011
  152SAPE  C21416852  -0.255   4.083   7.846 -0.1948 -0.1124  0.5527
  152SAPE  H14R16853  -0.229   4.098   7.740  0.7604  0.7436  0.8857
  152SAPE  C21516854  -0.381   4.057   7.896 -0.0196  0.3214 -0.2323
  152SAPE  H15R16855  -0.473   4.063   7.837 -1.5137  3.3798  2.1110
  152SAPE  C21616856  -0.408   4.032   8.042  0.2387  0.1254  0.2466
  152SAPE  H16R16857  -0.322   4.044   8.111  0.3140 -0.2203  0.2132
  152SAPE  H16S16858  -0.435   3.925   8.053 -0.9538  0.3388 -0.4544
  152SAPE  C21716859  -0.536   4.113   8.087 -0.7075  0.3123  0.7840
  152SAPE  H17R16860  -0.623   4.104   8.019  0.2597  0.9140 -0.5716
  152SAPE  H17S16861  -0.500   4.218   8.079  0.3529 -0.0812  0.1858
  152SAPE  C21816862  -0.568   4.083   8.233  0.2077  0.3734  0.4285
  152SAPE  H18R16863  -0.497   4.139   8.297  0.6877  0.9490 -0.5926
  152SAPE  H18S16864  -0.558   3.973   8.247 -2.1026  0.2670  1.7832
  152SAPE  C21916865  -0.712   4.141   8.268  0.4982 -0.0346 -0.0506
  152SAPE  H19R16866  -0.722   4.238   8.215 -2.0669 -0.1247  0.1449
  152SAPE  H19S16867  -0.698   4.149   8.378  0.2075  1.0259 -0.0793
  152SAPE  C22016868  -0.828   4.058   8.218  0.3595 -0.3628 -0.3621
  152SAPE  H20R16869  -0.843   3.963   8.273  1.1332 -0.2336  0.0810
  152SAPE  H20S16870  -0.830   4.047   8.107 -1.4723  1.3808 -0.5744
  152SAPE  H20T16871  -0.919   4.119   8.239 -0.5200 -1.1692 -1.6819
  152SAPE   C3316872  -0.268   3.660   7.314  0.4575 -0.6298  0.5366
  152SAPE   H3X16873  -0.338   3.598   7.373  0.9092  0.4063  2.2096
  152SAPE   H3Y16874  -0.320   3.757   7.296 -0.0986 -0.8191  1.1057
  152SAPE   C3416875  -0.161   3.702   7.404 -0.5517  0.3145 -0.8427
  152SAPE   H4X16876  -0.079   3.757   7.353  0.2772 -1.1699 -1.1731
  152SAPE   H4Y16877  -0.123   3.605   7.444 -0.4399  0.6750 -0.0484
  152SAPE   C3516878  -0.193   3.791   7.521 -0.0166 -0.4113 -0.0269
  152SAPE   H5X16879  -0.285   3.843   7.487  0.2890 -0.4285 -0.9091
  152SAPE   H5Y16880  -0.104   3.855   7.539 -0.0778 -0.5412  0.7707
  152SAPE   C3616881  -0.236   3.708   7.644  0.3839  0.0334 -0.4980
  152SAPE   H6X16882  -0.313   3.635   7.614  0.3323 -0.1006 -0.0463
  152SAPE   H6Y16883  -0.300   3.765   7.715  0.4749 -1.3421  0.7353
  152SAPE   C3716884  -0.120   3.645   7.723 -0.8460  0.6208 -0.0442
  152SAPE   H7X16885  -0.059   3.732   7.755 -0.4662  0.7186 -0.9889
  152SAPE   H7Y16886  -0.055   3.578   7.662 -0.3651  0.9389  0.1124
  152SAPE   C3816887  -0.164   3.583   7.857  0.1760 -0.1439  0.4776
  152SAPE   H8X16888  -0.069   3.547   7.904  1.2647 -0.6209 -1.9049
  152SAPE   H8Y16889  -0.219   3.491   7.828 -0.6625  1.1759 -2.4843
  152SAPE   C3916890  -0.240   3.676   7.951  0.1354 -0.7337 -0.1777
  152SAPE   H9X16891  -0.342   3.696   7.912  1.1604 -0.8509 -3.1078
  152SAPE   H9Y16892  -0.208   3.780   7.932 -2.4149  0.1060 -0.2030
  152SAPE  C31016893  -0.242   3.644   8.097  0.3465 -0.2171 -0.2087
  152SAPE  H10X16894  -0.254   3.534   8.109 -0.3011 -0.0351  1.0033
  152SAPE  H10Y16895  -0.322   3.695   8.155  1.5777 -1.4967  2.8645
  152SAPE  C31116896  -0.114   3.688   8.165  0.5811  0.1090  0.1811
  152SAPE  H11X16897  -0.110   3.798   8.152 -3.1837  0.2108 -1.2992
  152SAPE  H11Y16898  -0.034   3.642   8.103 -0.9734 -3.4323  0.5541
  152SAPE  C31216899  -0.102   3.647   8.311  0.2679  0.2269  0.0711
  152SAPE  H12X16900  -0.137   3.541   8.310 -0.0585  0.2545  2.5243
  152SAPE  H12Y16901  -0.181   3.702   8.365  0.4118 -0.0289  0.5454
  152SAPE  C31316902   0.017   3.664   8.400  0.3394  0.1470  0.1153
  152SAPE  H13X16903   0.032   3.771   8.427 -0.5342  0.6455 -1.2621
  152SAPE  H13Y16904   0.098   3.616   8.342 -0.3646  1.0904 -1.7305
  152SAPE  C31416905   0.018   3.583   8.535  0.4727 -0.6365  0.4522
  152SAPE  H14X16906  -0.023   3.484   8.507 -0.2425  0.4246 -2.6946
  152SAPE  H14Y16907  -0.064   3.625   8.598 -0.9995  0.5283 -2.0791
  152SAPE  C31516908   0.153   3.578   8.609 -0.1694 -0.1949 -0.5240
  152SAPE  H15X16909   0.235   3.549   8.539  0.5839 -0.1780  0.3347
  152SAPE  H15Y16910   0.150   3.495   8.683  0.0333 -0.4195 -0.7642
  152SAPE  C31616911   0.187   3.714   8.686 -0.0490 -0.1272 -0.5652
  152SAPE  H16X16912   0.174   3.802   8.619  0.9770  2.5678  2.4899
  152SAPE  H16Y16913   0.291   3.719   8.723  1.0098  0.8124 -3.4160
  152SAPE  C31716914   0.103   3.730   8.815 -0.3324 -1.2675 -0.5462
  152SAPE  H17X16915   0.124   3.653   8.891 -1.7318 -0.7124  0.4380
  152SAPE  H17Y16916  -0.004   3.726   8.787 -0.7712  0.3013  0.7443
  152SAPE  C31816917   0.111   3.855   8.899 -0.7941 -0.6240 -1.0277
  152SAPE  H18X16918   0.209   3.908   8.896 -0.3996 -1.2891 -0.2062
  152SAPE  H18Y16919   0.092   3.835   9.006  0.2923 -0.5920 -0.8176
  152SAPE  H18Z16920   0.034   3.923   8.856  0.0179  0.9108 -0.1348
  153SAPE     N16921   2.432   0.337   6.272  0.8752 -0.8300 -0.1123
  153SAPE   HN116922   2.381   0.426   6.252  0.5481 -0.9806  0.0377
  153SAPE   HN216923   2.498   0.319   6.194  1.7558 -1.4936  0.7617
  153SAPE   HN316924   2.358   0.263   6.271 -0.9797  0.8822  1.3417
  153SAPE   C1216925   2.481   0.339   6.410 -0.1093  0.4827 -0.9538
  153SAPE  H12A16926   2.549   0.252   6.419 -1.1239 -0.2613 -0.1224
  153SAPE  H12B16927   2.395   0.320   6.479  0.8397 -1.2009 -0.1887
  153SAPE   C1116928   2.539   0.476   6.442  0.2256 -0.7039 -0.5466
  153SAPE  H11A16929   2.602   0.451   6.530  0.3576 -2.7506 -1.1702
  153SAPE  H11B16930   2.456   0.539   6.482  0.0491 -1.1723 -0.1635
  153SAPE     P16931   2.619   0.688   6.335 -0.3068  0.1869  0.1788
  153SAPE   O1316932   2.750   0.727   6.282  0.3894 -0.2942 -0.1699
  153SAPE   O1416933   2.497   0.726   6.258 -0.6537 -0.0454  0.0812
  153SAPE   O1216934   2.617   0.526   6.340 -0.1208 -0.2264 -0.1995
  153SAPE   O1116935   2.593   0.751   6.483  0.2531 -0.3312  0.5339
  153SAPE    C116936   2.696   0.747   6.582  0.2139  0.2506 -0.1759
  153SAPE    HA16937   2.744   0.647   6.578 -2.1417 -0.9642  0.2672
  153SAPE    HB16938   2.786   0.809   6.566 -0.3880  0.4337 -3.4515
  153SAPE    C216939   2.633   0.774   6.731  0.3393  0.3124 -0.1753
  153SAPE    HS16940   2.548   0.703   6.740 -0.7339  1.5013 -0.6899
  153SAPE   O2116941   2.583   0.906   6.736  0.1252  0.1867  0.5378
  153SAPE   C2116942   2.476   0.920   6.812  0.5653  0.3738  0.4702
  153SAPE   O2216943   2.423   0.835   6.882  0.1807 -0.2117 -0.0924
  153SAPE   C2216944   2.438   1.064   6.804  0.1254  0.0833 -0.8515
  153SAPE   H2R16945   2.525   1.132   6.810 -1.0902  1.7468 -1.2381
  153SAPE   H2S16946   2.400   1.083   6.701  1.4373 -0.0539 -1.3857
  153SAPE    C316947   2.742   0.749   6.836 -0.4260  0.6874 -0.0957
  153SAPE    HX16948   2.818   0.830   6.831 -0.5844  0.8544  0.1623
  153SAPE    HY16949   2.806   0.661   6.813  1.5260  0.9268  3.6874
  153SAPE   O3116950   2.690   0.732   6.969 -0.0570 -0.5802  0.0062
  153SAPE   C3116951   2.621   0.627   6.987 -0.5216  0.5423 -0.3422
  153SAPE   O3216952   2.611   0.537   6.905  0.3413  0.3229 -0.2288
  153SAPE   C3216953   2.535   0.633   7.102 -0.3759 -0.4500 -0.0521
  153SAPE   H2X16954   2.480   0.729   7.098 -1.2844 -1.0022 -1.8209
  153SAPE   H2Y16955   2.598   0.640   7.194 -1.0156  1.3566  0.2807
  153SAPE   C2316956   2.327   1.103   6.905 -0.0379 -0.5506  0.6004
  153SAPE   H3R16957   2.361   1.081   7.009 -2.0240 -1.2171  1.1360
  153SAPE   H3S16958   2.243   1.034   6.887 -0.4951  0.0605  0.3608
  153SAPE   C2416959   2.287   1.254   6.900 -0.0408  0.2463  0.6726
  153SAPE   H4R16960   2.225   1.262   6.808 -1.0177 -1.4473  1.1356
  153SAPE   H4S16961   2.376   1.318   6.884 -0.0531 -0.1377 -1.3066
  153SAPE   C2516962   2.199   1.282   7.019  0.4211 -0.0807  0.3322
  153SAPE   H5R16963   2.107   1.222   7.025  0.6690 -0.3436  2.3328
  153SAPE   C2616964   2.225   1.371   7.120 -0.0187 -0.0946 -0.2962
  153SAPE   H6R16965   2.154   1.371   7.204 -1.0421  0.4303 -1.1326
  153SAPE   C2716966   2.342   1.468   7.149  0.2198 -0.3208 -0.0851
  153SAPE   H7R16967   2.286   1.562   7.170 -1.7217 -1.4062 -0.1313
  153SAPE   H7S16968   2.410   1.474   7.062 -0.3772  0.1076 -0.5368
  153SAPE   C2816969   2.419   1.432   7.270  0.3110 -0.2576 -1.3024
  153SAPE   H8R16970   2.501   1.361   7.252 -0.4302 -1.2861 -0.7213
  153SAPE   C2916971   2.393   1.465   7.398  0.3375  0.7752  0.6106
  153SAPE   H9R16972   2.470   1.451   7.475  1.3023  2.1170 -0.0677
  153SAPE  C21016973   2.275   1.551   7.442 -0.5763  0.3701 -0.4553
  153SAPE  H10R16974   2.226   1.607   7.359 -0.9258 -2.2780 -2.1325
  153SAPE  H10S16975   2.311   1.621   7.521 -1.5516  1.7413 -1.1742
  153SAPE  C21116976   2.172   1.460   7.498  0.3936  0.0052  0.0566
  153SAPE  H11R16977   2.107   1.414   7.422  0.5075  0.2007 -0.1599
  153SAPE  C21216978   2.168   1.423   7.628  0.3952 -0.5936  0.0674
  153SAPE  H12R16979   2.089   1.352   7.657  0.1071 -0.7089 -0.9635
  153SAPE  C21316980   2.268   1.461   7.735  0.0399  0.1190  0.0487
  153SAPE  H13R16981   2.349   1.529   7.701 -0.5862  1.1494  0.6034
  153SAPE  H13S16982   2.321   1.367   7.764  1.1678  1.2731  1.9588
  153SAPE  C21416983   2.193   1.515   7.851 -0.0701  0.5177  0.1344
  153SAPE  H14R16984   2.096   1.555   7.818  0.3483 -0.0224 -1.8659
  153SAPE  C21516985   2.229   1.499   7.980 -0.1017 -0.9505 -0.2331
  153SAPE  H15R16986   2.159   1.550   8.046 -1.6239 -0.0801 -2.4102
  153SAPE  C21616987   2.351   1.432   8.029  0.0129  0.3105 -0.6868
  153SAPE  H16R16988   2.438   1.446   7.962  0.5906  0.3959  0.0620
  153SAPE  H16S16989   2.345   1.321   8.025  0.7786  0.2981 -2.0757
  153SAPE  C21716990   2.390   1.468   8.178  0.2581  0.6562  0.0446
  153SAPE  H17R16991   2.312   1.438   8.251  0.7329 -0.4479  0.1228
  153SAPE  H17S16992   2.414   1.576   8.191 -2.9138  1.5971 -0.9764
  153SAPE  C21816993   2.518   1.386   8.213 -0.2205 -0.5194  0.1862
  153SAPE  H18R16994   2.601   1.425   8.150 -1.5549  0.7906 -0.8359
  153SAPE  H18S16995   2.504   1.277   8.198  0.8456 -0.6990  0.3816
  153SAPE  C21916996   2.564   1.417   8.357 -0.2290  0.2279  0.2420
  153SAPE  H19R16997   2.480   1.428   8.429 -0.9143 -1.8051 -0.1733
  153SAPE  H19S16998   2.604   1.520   8.348 -1.0145  0.5227  0.0359
  153SAPE  C22016999   2.670   1.321   8.417 -0.5865 -0.4764  0.6626
  153SAPE  H20R17000   2.706   1.348   8.518 -2.4983  1.6693  0.8365
  153SAPE  H20S17001   2.757   1.330   8.348 -1.7961  0.6803 -0.7841
  153SAPE  H20T17002   2.639   1.215   8.407  1.4371 -0.9537 -1.6381
  153SAPE   C3317003   2.434   0.522   7.098 -0.0520  0.4409  0.2713
  153SAPE   H3X17004   2.491   0.429   7.076 -0.0168  0.1063  1.6995
  153SAPE   H3Y17005   2.353   0.534   7.023 -1.3345  1.7088  1.7903
  153SAPE   C3417006   2.354   0.521   7.231 -0.5237 -0.2859 -0.1429
  153SAPE   H4X17007   2.428   0.503   7.312 -1.8191 -2.2933  0.6746
  153SAPE   H4Y17008   2.292   0.429   7.233  1.8270 -1.9433  0.2530
  153SAPE   C3517009   2.269   0.648   7.243  0.1616 -0.6951  0.1803
  153SAPE   H5X17010   2.216   0.646   7.145 -0.3903  0.8739  0.4247
  153SAPE   H5Y17011   2.339   0.734   7.247 -0.6757 -0.0534  1.9831
  153SAPE   C3617012   2.167   0.652   7.353 -0.0478 -0.0514  0.9971
  153SAPE   H6X17013   2.093   0.572   7.335  0.6264 -0.5889  0.5625
  153SAPE   H6Y17014   2.104   0.743   7.340 -1.8102 -1.4278 -0.5338
  153SAPE   C3717015   2.217   0.642   7.498  0.2266  0.6088 -0.9875
  153SAPE   H7X17016   2.292   0.720   7.524  1.2537 -0.5826 -0.3094
  153SAPE   H7Y17017   2.266   0.544   7.512 -1.6552 -0.2500 -0.1721
  153SAPE   C3817018   2.112   0.660   7.602 -0.0107  0.3831  0.4432
  153SAPE   H8X17019   2.029   0.591   7.575  0.8561 -0.5656  0.1378
  153SAPE   H8Y17020   2.072   0.763   7.598  2.1502  1.3758  2.2773
  153SAPE   C3917021   2.171   0.630   7.736 -0.1004 -0.1702 -0.2770
  153SAPE   H9X17022   2.247   0.710   7.746  2.3598 -1.9452 -2.9562
  153SAPE   H9Y17023   2.211   0.526   7.732  2.3105  0.6638  0.2496
  153SAPE  C31017024   2.070   0.643   7.851  0.0964  0.0768 -0.1208
  153SAPE  H10X17025   1.988   0.569   7.859 -1.8350  2.1915  0.4619
  153SAPE  H10Y17026   2.015   0.738   7.834 -0.6497 -0.1741  0.8225
  153SAPE  C31117027   2.133   0.648   7.987  0.2849  0.2863 -0.1270
  153SAPE  H11X17028   2.210   0.728   7.994 -0.7128  1.3589 -1.0460
  153SAPE  H11Y17029   2.169   0.547   8.018 -1.5967 -0.0768  1.0025
  153SAPE  C31217030   2.034   0.699   8.097 -0.6947 -0.0849  0.0008
  153SAPE  H12X17031   1.969   0.781   8.059 -3.8818 -2.5020 -0.1737
  153SAPE  H12Y17032   2.086   0.739   8.186 -0.5003 -0.5728  0.1139
  153SAPE  C31317033   1.928   0.589   8.127 -0.0136 -0.5898  0.2802
  153SAPE  H13X17034   1.972   0.487   8.124 -2.6816 -1.8155  0.1065
  153SAPE  H13Y17035   1.856   0.584   8.042 -0.2360 -0.0105  0.4271
  153SAPE  C31417036   1.836   0.623   8.246 -0.3245  0.5856 -0.2289
  153SAPE  H14X17037   1.832   0.732   8.269  2.2741  0.8083 -0.5362
  153SAPE  H14Y17038   1.893   0.592   8.336 -0.8025 -2.0553 -0.7518
  153SAPE  C31517039   1.698   0.549   8.255  0.2268  0.5941 -0.3427
  153SAPE  H15X17040   1.706   0.439   8.243 -2.9412  0.4770 -2.8173
  153SAPE  H15Y17041   1.649   0.587   8.163  0.8911 -1.4098 -1.5932
  153SAPE  C31617042   1.611   0.580   8.383 -0.0595  0.1867  0.1364
  153SAPE  H16X17043   1.673   0.570   8.474  1.8374 -0.0481 -1.1277
  153SAPE  H16Y17044   1.548   0.489   8.399  0.2793  0.3783  2.9853
  153SAPE  C31717045   1.523   0.700   8.369  0.4790 -0.1939 -0.3267
  153SAPE  H17X17046   1.422   0.675   8.408  1.3692 -3.3323  0.2203
  153SAPE  H17Y17047   1.506   0.732   8.264 -0.4690  0.7769  0.1018
  153SAPE  C31817048   1.582   0.821   8.436  0.3462 -0.3615  0.9393
  153SAPE  H18X17049   1.497   0.885   8.468  0.7733  0.4156  0.5391
  153SAPE  H18Y17050   1.644   0.881   8.367  0.8646 -1.1540  0.7039
  153SAPE  H18Z17051   1.639   0.800   8.530  1.6325 -1.2387  0.0069
  154SAPE     N17052   6.619   4.003   6.208 -0.6375 -0.4018  0.0161
  154SAPE   HN117053   6.705   4.025   6.155 -0.4214  0.0241  0.5317
  154SAPE   HN217054   6.546   4.074   6.185 -1.2031 -0.7536  0.6864
  154SAPE   HN317055   6.657   4.007   6.305 -0.3242 -1.2644 -0.0687
  154SAPE   C1217056   6.565   3.865   6.191  0.0078  0.0618 -0.0552
  154SAPE  H12A17057   6.641   3.795   6.234 -0.2471 -0.9165 -1.1270
  154SAPE  H12B17058   6.561   3.838   6.083  2.1797 -1.2143  0.1102
  154SAPE   C1117059   6.432   3.852   6.261 -0.1416 -0.0111 -0.0707
  154SAPE  H11A17060   6.442   3.883   6.367 -0.1708  1.1912 -0.4044
  154SAPE  H11B17061   6.407   3.743   6.265  1.1400 -0.3644 -1.0159
  154SAPE     P17062   6.173   3.895   6.224 -0.2659  0.2236  0.5282
  154SAPE   O1317063   6.096   3.995   6.143  0.0074  0.4238 -0.3371
  154SAPE   O1417064   6.162   3.756   6.176 -0.1350 -0.0819 -0.2150
  154SAPE   O1217065   6.328   3.931   6.203  0.1370  0.2465 -0.2370
  154SAPE   O1117066   6.141   3.896   6.366  0.4952  0.0725 -0.3662
  154SAPE    C117067   6.168   4.006   6.455  0.3293 -0.2411  0.1340
  154SAPE    HA17068   6.240   4.077   6.409 -0.5325 -0.4526 -1.6255
  154SAPE    HB17069   6.077   4.060   6.490  2.3122  2.0820  2.0323
  154SAPE    C217070   6.232   3.963   6.586 -0.1327  0.0552  0.1750
  154SAPE    HS17071   6.343   3.969   6.576 -0.1363 -0.6788 -0.3151
  154SAPE   O2117072   6.186   3.835   6.626  0.0617 -0.0031 -0.0073
  154SAPE   C2117073   6.261   3.734   6.593  1.1295  0.0850 -0.0362
  154SAPE   O2217074   6.371   3.730   6.541 -0.1463  0.1099 -0.1192
  154SAPE   C2217075   6.188   3.604   6.622 -0.4847 -0.0692 -0.6933
  154SAPE   H2R17076   6.082   3.628   6.643 -0.0521  0.6609  0.8284
  154SAPE   H2S17077   6.196   3.553   6.524  2.5273 -0.5924 -0.2914
  154SAPE    C317078   6.214   4.064   6.700 -0.2460 -0.0485  0.3777
  154SAPE    HX17079   6.103   4.063   6.695 -0.1856 -0.0569 -2.1921
  154SAPE    HY17080   6.249   4.165   6.671 -0.7230 -0.3934 -1.5355
  154SAPE   O3117081   6.278   4.014   6.817  0.0666  1.2039  0.5324
  154SAPE   C3117082   6.217   4.052   6.924 -0.2498 -0.2057 -1.4247
  154SAPE   O3217083   6.118   4.124   6.930  0.4164  0.0453 -0.1171
  154SAPE   C3217084   6.285   3.987   7.045 -0.4066 -0.7736 -0.7761
  154SAPE   H2X17085   6.378   4.043   7.066 -0.2584 -1.0829 -0.6056
  154SAPE   H2Y17086   6.317   3.884   7.019  2.2288 -0.4497  0.8846
  154SAPE   C2317087   6.246   3.520   6.748  0.2724 -0.7751  0.2197
  154SAPE   H3R17088   6.350   3.486   6.729  1.4254  1.6770  1.6674
  154SAPE   H3S17089   6.183   3.429   6.765  1.3531 -1.3702  1.1438
  154SAPE   C2417090   6.245   3.601   6.880 -0.2001 -0.6415 -0.1187
  154SAPE   H4R17091   6.141   3.634   6.900 -0.8191 -1.6538 -1.5269
  154SAPE   H4S17092   6.302   3.695   6.865 -1.1465 -0.0949 -0.4072
  154SAPE   C2517093   6.313   3.533   6.993 -0.3991  0.1653 -0.1526
  154SAPE   H5R17094   6.420   3.509   6.981  0.1636  1.6924  1.3890
  154SAPE   C2617095   6.247   3.472   7.098 -0.1291  0.6803 -0.5529
  154SAPE   H6R17096   6.305   3.423   7.178 -1.5153 -1.2530 -0.6659
  154SAPE   C2717097   6.104   3.474   7.140 -0.5947 -0.2258  0.7066
  154SAPE   H7R17098   6.103   3.377   7.193 -2.1865 -0.3712  0.4678
  154SAPE   H7S17099   6.040   3.464   7.050 -0.2418 -1.1466  0.5475
  154SAPE   C2817100   6.080   3.584   7.237  0.1380  0.2589  0.6508
  154SAPE   H8R17101   6.112   3.679   7.192  0.5657 -0.0270  0.3499
  154SAPE   C2917102   6.006   3.583   7.350 -0.0701  0.9402 -0.6371
  154SAPE   H9R17103   5.996   3.679   7.402  1.5722  0.4220  0.7384
  154SAPE  C21017104   5.926   3.470   7.413  0.1019 -0.9270  0.5957
  154SAPE  H10R17105   5.905   3.396   7.333 -0.9385  0.3106 -0.3224
  154SAPE  H10S17106   5.827   3.506   7.447 -0.4530 -1.1164 -0.7475
  154SAPE  C21117107   5.998   3.398   7.525 -0.8012 -0.3233  0.2675
  154SAPE  H11R17108   6.104   3.375   7.506 -0.4487  0.5443  1.0927
  154SAPE  C21217109   5.956   3.365   7.644 -0.3272 -0.3868  0.4596
  154SAPE  H12R17110   6.030   3.316   7.709 -0.4485  0.4189  1.2181
  154SAPE  C21317111   5.829   3.387   7.714 -0.5425  0.0982 -0.2956
  154SAPE  H13R17112   5.813   3.291   7.766  1.3320  0.8504  1.8199
  154SAPE  H13S17113   5.752   3.405   7.636  1.0853 -0.2979 -2.0859
  154SAPE  C21417114   5.832   3.500   7.808 -0.4925 -0.1790  0.3127
  154SAPE  H14R17115   5.878   3.582   7.751  0.7769 -0.4722  0.8763
  154SAPE  C21517116   5.801   3.507   7.944  0.5277  0.6023  0.7127
  154SAPE  H15R17117   5.809   3.603   7.997 -0.4782  0.4105  1.2279
  154SAPE  C21617118   5.749   3.395   8.032  0.0378  0.2369 -0.0201
  154SAPE  H16R17119   5.702   3.313   7.974 -0.7465 -1.1402  2.4277
  154SAPE  H16S17120   5.676   3.447   8.097 -2.4576 -1.2312 -1.4690
  154SAPE  C21717121   5.857   3.329   8.121 -0.2594  0.3360  0.1559
  154SAPE  H17R17122   5.886   3.393   8.207 -3.3477  1.8598  0.1898
  154SAPE  H17S17123   5.949   3.296   8.068  1.1795  0.0909  2.6560
  154SAPE  C21817124   5.820   3.202   8.199  0.4089  0.5231 -0.4153
  154SAPE  H18R17125   5.888   3.178   8.284 -1.9258 -1.2696  1.0704
  154SAPE  H18S17126   5.806   3.113   8.133  0.4992  0.0671  0.1681
  154SAPE  C21917127   5.677   3.200   8.264  0.2421 -0.1022 -0.0659
  154SAPE  H19R17128   5.629   3.100   8.259 -0.2728 -0.0533  2.4300
  154SAPE  H19S17129   5.609   3.272   8.213  1.8318  1.6299  0.1433
  154SAPE  C22017130   5.677   3.214   8.418  0.0239  0.2313 -0.2974
  154SAPE  H20R17131   5.693   3.112   8.461 -0.4300  1.4867  3.1125
  154SAPE  H20S17132   5.577   3.243   8.456  0.6246  0.5275  1.1084
  154SAPE  H20T17133   5.760   3.278   8.455 -0.0049 -0.6786  1.4125
  154SAPE   C3317134   6.186   3.981   7.169 -0.3517 -0.1830 -0.3986
  154SAPE   H3X17135   6.085   3.941   7.145 -0.4878 -0.9284  1.2872
  154SAPE   H3Y17136   6.182   4.087   7.200  2.4136 -0.3805  0.8810
  154SAPE   C3417137   6.254   3.897   7.283  1.1480 -0.0826 -0.2437
  154SAPE   H4X17138   6.355   3.942   7.299  0.6032  1.3816 -0.8286
  154SAPE   H4Y17139   6.264   3.791   7.250 -1.8238 -0.6856  0.4997
  154SAPE   C3517140   6.166   3.912   7.411 -0.2705 -1.0772 -0.1969
  154SAPE   H5X17141   6.063   3.874   7.393 -0.2899 -0.8915 -0.4885
  154SAPE   H5Y17142   6.166   4.017   7.446 -0.6236 -0.4584 -1.9245
  154SAPE   C3617143   6.218   3.839   7.531  0.8822 -0.2451 -0.1870
  154SAPE   H6X17144   6.311   3.895   7.556  1.0640 -0.7946  0.3947
  154SAPE   H6Y17145   6.236   3.734   7.498  0.0259  0.1093 -1.8982
  154SAPE   C3717146   6.114   3.816   7.645  0.4298  0.1601  1.1287
  154SAPE   H7X17147   6.026   3.761   7.604  0.5892  0.7672 -0.0515
  154SAPE   H7Y17148   6.063   3.911   7.669  0.2865 -0.3151  2.8405
  154SAPE   C3817149   6.178   3.750   7.760 -0.0594  0.4707  0.1156
  154SAPE   H8X17150   6.287   3.770   7.769 -0.2654  1.5066  0.4941
  154SAPE   H8Y17151   6.175   3.640   7.745  3.8452  0.3403 -0.6455
  154SAPE   C3917152   6.120   3.779   7.895 -0.0853  1.1807 -0.9207
  154SAPE   H9X17153   6.009   3.774   7.896 -0.0225 -0.3811 -0.2843
  154SAPE   H9Y17154   6.154   3.878   7.934  0.5366  0.9736 -0.9363
  154SAPE  C31017155   6.162   3.673   8.007 -0.0878  0.1998 -0.3853
  154SAPE  H10X17156   6.273   3.671   8.004 -0.1053  0.4312 -1.7237
  154SAPE  H10Y17157   6.131   3.569   7.983 -1.4489 -0.3889  3.3325
  154SAPE  C31117158   6.109   3.705   8.135  0.3013 -1.0322  0.0329
  154SAPE  H11X17159   5.999   3.689   8.130 -0.1393  1.2558  1.2281
  154SAPE  H11Y17160   6.123   3.813   8.158  0.4647 -0.9013 -0.6525
  154SAPE  C31217161   6.172   3.621   8.244 -0.5612  0.0802 -0.8733
  154SAPE  H12X17162   6.266   3.675   8.268 -0.0433 -1.1037 -0.1282
  154SAPE  H12Y17163   6.196   3.520   8.203  1.9120  0.5687 -0.7479
  154SAPE  C31317164   6.075   3.611   8.372  0.1420 -0.0510  0.0867
  154SAPE  H13X17165   5.979   3.592   8.319  0.7613 -2.8685 -0.1583
  154SAPE  H13Y17166   6.072   3.707   8.429  1.3310 -0.5696  1.0619
  154SAPE  C31417167   6.104   3.494   8.469  0.4816 -0.0289  0.2811
  154SAPE  H14X17168   6.194   3.522   8.528 -0.9032  1.8205  1.6521
  154SAPE  H14Y17169   6.118   3.398   8.414 -2.7965 -0.7966  0.5571
  154SAPE  C31517170   5.984   3.476   8.567 -0.4563 -0.8206  0.0276
  154SAPE  H15X17171   5.890   3.463   8.508 -0.1165 -0.6276 -0.5619
  154SAPE  H15Y17172   5.979   3.569   8.627  1.3084  0.8299 -2.2184
  154SAPE  C31617173   5.994   3.353   8.650 -0.0498 -0.2520 -0.5471
  154SAPE  H16X17174   6.090   3.353   8.706 -1.3192 -0.3352  1.7419
  154SAPE  H16Y17175   5.995   3.255   8.596 -0.0867 -1.1076  0.9507
  154SAPE  C31717176   5.873   3.352   8.747 -0.1951 -0.0773 -0.2450
  154SAPE  H17X17177   5.780   3.357   8.686 -1.1863  0.3697  1.2510
  154SAPE  H17Y17178   5.878   3.444   8.809  0.6522 -0.2172 -0.0964
  154SAPE  C31817179   5.866   3.225   8.831 -0.2810 -0.1953 -0.6656
  154SAPE  H18X17180   5.838   3.130   8.779  1.1965 -1.4752  0.7491
  154SAPE  H18Y17181   5.793   3.235   8.914 -0.1268 -1.7337 -0.3173
  154SAPE  H18Z17182   5.967   3.208   8.874 -0.6303 -1.3710 -0.2648
  155SAPE     N17183   1.568   5.198   6.079 -0.0891  0.8675 -0.1037
  155SAPE   HN117184   1.499   5.191   6.002 -1.8755 -2.6023  1.5613
  155SAPE   HN217185   1.527   5.135   6.151 -0.7337  2.0913  0.6299
  155SAPE   HN317186   1.576   5.296   6.111  4.1693  0.8696 -0.5407
  155SAPE   C1217187   1.699   5.128   6.033 -0.3873 -0.9195 -0.5260
  155SAPE  H12A17188   1.733   5.175   5.938 -1.0052  1.4396  0.3460
  155SAPE  H12B17189   1.673   5.022   6.018  1.9702 -1.6385  0.0225
  155SAPE   C1117190   1.811   5.146   6.146 -0.2636 -0.1050  0.2491
  155SAPE  H11A17191   1.910   5.124   6.100  0.1356 -0.3653  1.1877
  155SAPE  H11B17192   1.804   5.065   6.223 -0.1270  1.3914  1.9166
  155SAPE     P17193   1.938   5.352   6.243 -0.3170  0.5026  0.1537
  155SAPE   O1317194   1.995   5.387   6.111 -0.2876  0.1568 -0.7174
  155SAPE   O1417195   1.907   5.465   6.335  0.1858 -0.7866  0.3296
  155SAPE   O1217196   1.803   5.273   6.216  0.2042 -0.1826 -1.3150
  155SAPE   O1117197   2.042   5.259   6.316 -0.0037  0.5255  0.4030
  155SAPE    C117198   2.019   5.152   6.403 -0.1435  0.1104  0.1595
  155SAPE    HA17199   1.916   5.114   6.385 -1.0665  3.1906 -1.9810
  155SAPE    HB17200   2.081   5.066   6.371 -1.8580 -1.3789  0.6490
  155SAPE    C217201   2.055   5.187   6.550  0.5419  0.4715  0.7229
  155SAPE    HS17202   2.047   5.090   6.603 -1.3625 -0.2517 -0.7616
  155SAPE   O2117203   1.967   5.287   6.603  0.7734 -0.6564  0.4188
  155SAPE   C2117204   1.851   5.241   6.637  0.1861 -0.3781  0.2933
  155SAPE   O2217205   1.812   5.125   6.611 -0.2436 -0.1356  0.8076
  155SAPE   C2217206   1.778   5.349   6.725 -0.2238  0.0286 -0.0610
  155SAPE   H2R17207   1.822   5.451   6.721 -2.4125  1.0103 -1.0175
  155SAPE   H2S17208   1.677   5.350   6.677 -1.1348  0.1028  1.7733
  155SAPE    C317209   2.198   5.248   6.557  0.3615 -0.1054  0.8456
  155SAPE    HX17210   2.205   5.341   6.496  2.9054 -0.6417  0.1926
  155SAPE    HY17211   2.265   5.176   6.505 -0.2805  0.1991 -0.4633
  155SAPE   O3117212   2.239   5.262   6.699 -0.0579  0.1998  0.2482
  155SAPE   C3117213   2.205   5.385   6.740 -0.5153 -0.1339  0.9696
  155SAPE   O3217214   2.186   5.490   6.675 -0.0991  0.2952 -0.0263
  155SAPE   C3217215   2.176   5.394   6.887  0.6737 -0.1115 -0.0403
  155SAPE   H2X17216   2.256   5.338   6.941  2.0916  1.3430 -0.5238
  155SAPE   H2Y17217   2.085   5.337   6.912 -0.0351  1.5068  1.2385
  155SAPE   C2317218   1.770   5.301   6.870 -0.0666  0.1328 -0.1693
  155SAPE   H3R17219   1.860   5.322   6.930  0.1871 -0.6419 -0.2654
  155SAPE   H3S17220   1.741   5.194   6.878  4.4010 -1.4224 -1.6236
  155SAPE   C2417221   1.661   5.374   6.944 -0.2879 -1.1226  0.1226
  155SAPE   H4R17222   1.665   5.338   7.049 -0.6420 -1.4480  0.0270
  155SAPE   H4S17223   1.561   5.349   6.903 -0.8751  0.4095  0.5662
  155SAPE   C2517224   1.682   5.526   6.941 -0.2395 -0.3283  0.1775
  155SAPE   H5R17225   1.730   5.565   6.849  2.8236 -3.9123  0.0208
  155SAPE   C2617226   1.671   5.612   7.046  0.2272 -0.6039  0.3628
  155SAPE   H6R17227   1.699   5.717   7.036 -0.4524 -0.6380 -3.1087
  155SAPE   C2717228   1.617   5.564   7.191 -0.7510  0.3929 -0.2768
  155SAPE   H7R17229   1.552   5.476   7.174  2.5967 -1.8474 -2.3144
  155SAPE   H7S17230   1.559   5.644   7.242  1.5155  2.5726 -0.9262
  155SAPE   C2817231   1.733   5.515   7.270  0.3650 -0.2571 -0.6461
  155SAPE   H8R17232   1.826   5.506   7.212 -0.7109 -3.4698 -2.1226
  155SAPE   C2917233   1.734   5.476   7.403  0.2664 -0.5734  0.1407
  155SAPE   H9R17234   1.828   5.468   7.460  0.5924  0.8885 -0.1527
  155SAPE  C21017235   1.607   5.477   7.495  0.1223  0.0030 -0.3114
  155SAPE  H10R17236   1.526   5.409   7.462  0.5554 -1.0731  0.7524
  155SAPE  H10S17237   1.554   5.572   7.472 -2.4076 -1.4957 -1.0097
  155SAPE  C21117238   1.631   5.482   7.644 -0.1988 -0.4192 -0.1212
  155SAPE  H11R17239   1.659   5.585   7.673 -1.2151  0.3495 -1.7157
  155SAPE  C21217240   1.615   5.382   7.739 -1.0253 -0.6541  0.5920
  155SAPE  H12R17241   1.643   5.402   7.844 -1.2728  0.4492  0.4585
  155SAPE  C21317242   1.580   5.241   7.703  0.1575  1.1039  0.4745
  155SAPE  H13R17243   1.478   5.236   7.659  0.5135  1.1689 -0.3908
  155SAPE  H13S17244   1.572   5.180   7.795 -0.1399 -1.8026 -1.3471
  155SAPE  C21417245   1.680   5.163   7.604  0.8593  0.1020  0.3627
  155SAPE  H14R17246   1.690   5.212   7.506 -1.4899  0.2602  0.1431
  155SAPE  C21517247   1.755   5.060   7.635  0.1374  0.5342 -0.1898
  155SAPE  H15R17248   1.815   5.010   7.558  0.1833  1.2928 -0.6547
  155SAPE  C21617249   1.752   4.990   7.768 -0.0663  0.4689 -0.2051
  155SAPE  H16R17250   1.750   5.062   7.853  0.0217 -0.5442  0.6850
  155SAPE  H16S17251   1.847   4.932   7.776  0.6286  1.6511  0.3472
  155SAPE  C21717252   1.628   4.903   7.798 -0.1824  0.4973 -0.6779
  155SAPE  H17R17253   1.545   4.971   7.828  0.0958  0.3669  0.4088
  155SAPE  H17S17254   1.655   4.845   7.888 -0.1238 -1.3804 -1.8451
  155SAPE  C21817255   1.594   4.805   7.679  0.2734  0.1478 -0.6793
  155SAPE  H18R17256   1.681   4.794   7.612 -0.4310  0.8154 -1.7377
  155SAPE  H18S17257   1.511   4.851   7.620 -0.1989 -0.6859 -0.6900
  155SAPE  C21917258   1.547   4.666   7.710  0.4243  0.3587 -0.3695
  155SAPE  H19R17259   1.607   4.639   7.799 -0.9002  2.5633  1.2900
  155SAPE  H19S17260   1.570   4.598   7.625  1.4152 -1.2485  1.1207
  155SAPE  C22017261   1.399   4.659   7.749  0.1818 -0.2091  0.1401
  155SAPE  H20R17262   1.381   4.663   7.859 -2.1630 -1.7555 -0.1237
  155SAPE  H20S17263   1.364   4.556   7.725 -0.0079 -0.7365  2.4665
  155SAPE  H20T17264   1.340   4.736   7.693 -0.5955 -0.6928  0.2755
  155SAPE   C3317265   2.167   5.533   6.942  0.1748 -0.6575  0.8081
  155SAPE   H3X17266   2.072   5.568   6.896  0.5919 -1.7677 -0.9885
  155SAPE   H3Y17267   2.247   5.600   6.903 -0.1197 -0.2595  0.8850
  155SAPE   C3417268   2.162   5.549   7.088 -0.3452 -0.0622 -0.6424
  155SAPE   H4X17269   2.258   5.503   7.119 -0.1147 -0.5069 -1.9784
  155SAPE   H4Y17270   2.084   5.487   7.137  2.7433 -2.5950  1.4679
  155SAPE   C3517271   2.150   5.694   7.125  0.8099 -0.2033  0.2425
  155SAPE   H5X17272   2.050   5.736   7.101  1.1338  1.6766  1.8457
  155SAPE   H5Y17273   2.226   5.752   7.069  0.5171  0.4945  0.5408
  155SAPE   C3617274   2.161   5.710   7.278  0.3231  0.0673 -0.4290
  155SAPE   H6X17275   2.265   5.683   7.305  0.4086  1.9177  1.3590
  155SAPE   H6Y17276   2.083   5.643   7.321  0.9657 -1.2385 -1.2353
  155SAPE   C3717277   2.121   5.847   7.319  0.2425 -0.7111 -0.1300
  155SAPE   H7X17278   2.016   5.864   7.290  0.0790  1.2702  1.4025
  155SAPE   H7Y17279   2.188   5.926   7.280 -0.8064  0.1323 -0.2357
  155SAPE   C3817280   2.124   5.873   7.474 -0.0584  0.5241  0.4867
  155SAPE   H8X17281   2.121   5.984   7.481  3.9311  0.8242  0.2094
  155SAPE   H8Y17282   2.222   5.835   7.510  2.1437  2.4840 -2.8337
  155SAPE   C3917283   1.999   5.817   7.545  0.1431 -1.3263 -0.0972
  155SAPE   H9X17284   1.980   5.713   7.512  2.1833 -2.0231  0.7652
  155SAPE   H9Y17285   1.918   5.886   7.511  0.0227 -0.3586  2.0215
  155SAPE  C31017286   1.998   5.820   7.697  0.4274  0.4654 -0.6754
  155SAPE  H10X17287   1.908   5.776   7.745 -0.1833 -1.0226 -3.0296
  155SAPE  H10Y17288   2.002   5.924   7.738 -1.8311  0.3662 -0.0480
  155SAPE  C31117289   2.121   5.757   7.771 -0.4632  0.2867 -0.7050
  155SAPE  H11X17290   2.200   5.835   7.775 -1.5584  1.3922  3.0601
  155SAPE  H11Y17291   2.167   5.670   7.719  0.6652  0.2926  0.2392
  155SAPE  C31217292   2.073   5.710   7.910 -0.0922 -0.1776 -0.2332
  155SAPE  H12X17293   1.984   5.644   7.901  1.2301 -1.9706 -0.7899
  155SAPE  H12Y17294   2.042   5.799   7.969  0.9427  1.1200 -1.5670
  155SAPE  C31317295   2.181   5.637   7.975  0.1648 -0.5184 -0.1258
  155SAPE  H13X17296   2.269   5.705   7.975  0.8465 -1.3766  0.1093
  155SAPE  H13Y17297   2.206   5.542   7.923 -0.1320 -1.7472  1.8728
  155SAPE  C31417298   2.138   5.596   8.116  0.4875  0.5485  0.1559
  155SAPE  H14X17299   2.046   5.535   8.125  0.5342  0.5558  0.7933
  155SAPE  H14Y17300   2.101   5.692   8.158 -0.6109  0.5148 -0.7039
  155SAPE  C31517301   2.253   5.533   8.189  0.4206 -0.3262  0.3852
  155SAPE  H15X17302   2.340   5.602   8.195  0.3620 -0.2016 -0.1964
  155SAPE  H15Y17303   2.291   5.446   8.132 -1.1035 -0.2023 -0.8666
  155SAPE  C31617304   2.210   5.499   8.329  0.1831 -0.2163  0.3660
  155SAPE  H16X17305   2.122   5.432   8.332  1.1591 -1.5325  3.3405
  155SAPE  H16Y17306   2.170   5.591   8.375 -0.4951 -0.3495  0.0516
  155SAPE  C31717307   2.329   5.454   8.415 -0.0961  0.4485 -0.4262
  155SAPE  H17X17308   2.296   5.457   8.522 -0.5546 -0.4591 -0.5301
  155SAPE  H17Y17309   2.425   5.508   8.409  0.7439 -0.8168  0.9952
  155SAPE  C31817310   2.378   5.315   8.383  0.6847  0.4089  0.8465
  155SAPE  H18X17311   2.467   5.285   8.442 -0.5617  1.4456  3.4142
  155SAPE  H18Y17312   2.411   5.314   8.277 -0.1359 -1.1601  0.5766
  155SAPE  H18Z17313   2.301   5.235   8.387  0.8198  0.1273 -1.3438
  156SAPE     N17314   5.991   5.721   6.123 -0.3979 -0.6308  0.5235
  156SAPE   HN117315   5.996   5.664   6.036 -0.3022  0.8006 -0.4296
  156SAPE   HN217316   5.896   5.760   6.140 -0.5174 -1.8448  3.1002
  156SAPE   HN317317   6.050   5.805   6.108  0.1285 -1.1246 -0.2232
  156SAPE   C1217318   6.023   5.630   6.233 -0.4361  0.5608 -0.4952
  156SAPE  H12A17319   5.939   5.568   6.270 -1.8261  2.2507 -0.6411
  156SAPE  H12B17320   6.067   5.693   6.313  2.0307 -0.1557 -1.1954
  156SAPE   C1117321   6.138   5.530   6.196  0.3264 -0.1581 -0.3330
  156SAPE  H11A17322   6.128   5.488   6.093 -1.2746  0.1823 -0.3404
  156SAPE  H11B17323   6.133   5.447   6.269 -0.6804  0.5581  0.4366
  156SAPE     P17324   6.392   5.528   6.148 -0.2253 -0.4126 -0.1144
  156SAPE   O1317325   6.376   5.488   6.009 -0.4066 -0.0497  0.7697
  156SAPE   O1417326   6.504   5.620   6.171 -0.2396 -0.3191  0.2224
  156SAPE   O1217327   6.263   5.593   6.207  0.2621 -0.2972 -0.6644
  156SAPE   O1117328   6.416   5.405   6.242  0.2822 -0.5553 -0.1031
  156SAPE    C117329   6.475   5.430   6.375  0.2334 -0.1391  0.3905
  156SAPE    HA17330   6.580   5.393   6.367  0.4271  0.3224  0.7785
  156SAPE    HB17331   6.480   5.537   6.403  0.9204 -0.2736  0.8181
  156SAPE    C217332   6.396   5.356   6.484 -0.3024  0.6577  0.2569
  156SAPE    HS17333   6.386   5.250   6.454 -1.1765  0.4076  1.3591
  156SAPE   O2117334   6.264   5.411   6.484  0.2355 -0.5241 -0.2754
  156SAPE   C2117335   6.173   5.347   6.552  0.1259 -0.1860 -0.2869
  156SAPE   O2217336   6.183   5.232   6.589 -0.2276  0.1441 -0.7260
  156SAPE   C2217337   6.049   5.440   6.565  0.2842  0.7102  0.1171
  156SAPE   H2R17338   6.078   5.547   6.573 -0.6437  0.8219  3.4593
  156SAPE   H2S17339   5.990   5.413   6.475 -0.4040  0.8582  0.5159
  156SAPE    C317340   6.469   5.354   6.619  0.6528  0.1888 -0.0341
  156SAPE    HX17341   6.465   5.453   6.668 -0.7006 -0.7129  1.8059
  156SAPE    HY17342   6.574   5.328   6.591 -0.2437 -1.6794 -1.9558
  156SAPE   O3117343   6.408   5.266   6.716  0.1518 -0.7931  0.0780
  156SAPE   C3117344   6.456   5.154   6.734 -0.3658  0.7483 -0.3860
  156SAPE   O3217345   6.557   5.105   6.678  0.4852 -0.2311  0.4221
  156SAPE   C3217346   6.364   5.081   6.829 -0.3638 -0.4318 -0.4345
  156SAPE   H2X17347   6.268   5.060   6.778 -0.1335  1.9146 -2.0021
  156SAPE   H2Y17348   6.344   5.133   6.926  0.5279 -1.1808  0.1661
  156SAPE   C2317349   5.954   5.417   6.686  0.1591  0.0225  0.4211
  156SAPE   H3R17350   5.929   5.309   6.684 -0.2367  0.0172  2.6205
  156SAPE   H3S17351   5.861   5.475   6.668 -1.1396 -1.7583  1.1224
  156SAPE   C2417352   6.016   5.464   6.819 -0.5281 -0.3031 -0.0912
  156SAPE   H4R17353   6.063   5.565   6.818 -0.8963 -0.0793  1.3407
  156SAPE   H4S17354   6.104   5.398   6.835 -1.2425 -1.4857 -0.8888
  156SAPE   C2517355   5.914   5.467   6.928 -0.1751  0.3024  0.0683
  156SAPE   H5R17356   5.831   5.535   6.907 -1.4703 -1.2742 -0.1131
  156SAPE   C2617357   5.909   5.384   7.034  0.2624  0.6024 -0.1753
  156SAPE   H6R17358   5.829   5.395   7.109 -0.4757 -1.6352 -0.5579
  156SAPE   C2717359   5.998   5.270   7.062 -0.2850  0.6825 -0.0262
  156SAPE   H7R17360   6.019   5.263   7.171  0.3832  2.9179  0.0472
  156SAPE   H7S17361   6.101   5.280   7.020  0.6777  0.1740  2.0852
  156SAPE   C2817362   5.956   5.131   7.008  0.6616 -0.4809 -0.9729
  156SAPE   H8R17363   5.999   5.109   6.909 -0.6921 -0.3729 -1.6040
  156SAPE   C2917364   5.879   5.037   7.062 -0.0903  0.5253  0.6416
  156SAPE   H9R17365   5.859   4.943   7.009  0.8859 -0.3582  1.7908
  156SAPE  C21017366   5.806   5.030   7.193 -0.2013 -0.7747 -0.5371
  156SAPE  H10R17367   5.871   5.049   7.281  0.9469 -3.0519 -0.8309
  156SAPE  H10S17368   5.764   4.929   7.210 -0.8293 -0.2752  1.1035
  156SAPE  C21117369   5.694   5.126   7.183 -0.0307 -0.2082 -0.2215
  156SAPE  H11R17370   5.689   5.187   7.092  0.6204 -0.2556 -0.2962
  156SAPE  C21217371   5.611   5.159   7.281 -0.1324  0.1500 -0.3923
  156SAPE  H12R17372   5.531   5.230   7.258 -0.0952 -0.1254 -1.4067
  156SAPE  C21317373   5.602   5.093   7.419 -0.2202 -0.3797  0.5451
  156SAPE  H13R17374   5.639   4.988   7.418 -0.1650 -0.3655  0.9530
  156SAPE  H13S17375   5.494   5.085   7.445  0.2531  0.3348  3.0429
  156SAPE  C21417376   5.690   5.180   7.520  0.6954  0.3088  0.6617
  156SAPE  H14R17377   5.795   5.195   7.493 -0.2094 -0.5158 -4.1267
  156SAPE  C21517378   5.662   5.202   7.647  0.7890 -0.4529 -0.4834
  156SAPE  H15R17379   5.724   5.269   7.708 -1.5853 -0.1237  1.7418
  156SAPE  C21617380   5.538   5.150   7.723  0.0181 -0.4277 -0.1509
  156SAPE  H16R17381   5.468   5.099   7.653 -2.5668  3.1336 -0.4517
  156SAPE  H16S17382   5.491   5.241   7.767  0.4004 -1.1135  1.7706
  156SAPE  C21717383   5.584   5.066   7.840 -0.1251  0.3603  0.4504
  156SAPE  H17R17384   5.493   5.063   7.903  0.4154 -0.7103  1.2169
  156SAPE  H17S17385   5.650   5.132   7.900 -1.4775  1.5774  0.6333
  156SAPE  C21817386   5.633   4.930   7.811  0.8572  1.0341 -0.5995
  156SAPE  H18R17387   5.726   4.922   7.751  1.9391 -2.1973  1.2328
  156SAPE  H18S17388   5.554   4.881   7.750  0.5299  1.1526 -0.2710
  156SAPE  C21917389   5.622   4.855   7.945  0.0823 -0.1554  0.4689
  156SAPE  H19R17390   5.517   4.861   7.980  0.6027 -0.2196  2.1109
  156SAPE  H19S17391   5.687   4.919   8.008  0.0542  1.5263 -1.1227
  156SAPE  C22017392   5.674   4.705   7.934  0.1132  0.4020 -0.3241
  156SAPE  H20R17393   5.596   4.647   7.881 -0.3367 -1.6310  2.3630
  156SAPE  H20S17394   5.685   4.674   8.040  2.3637 -1.5686 -1.0399
  156SAPE  H20T17395   5.771   4.697   7.881  1.8974  1.4653  2.5525
  156SAPE   C3317396   6.414   4.936   6.863 -0.4995 -0.3147  0.7422
  156SAPE   H3X17397   6.511   4.953   6.913 -0.7146  0.4131  0.9320
  156SAPE   H3Y17398   6.428   4.883   6.766  1.4632 -0.7557  1.2317
  156SAPE   C3417399   6.318   4.867   6.961  0.3376  0.3119 -0.3066
  156SAPE   H4X17400   6.367   4.769   6.975  2.1749  1.1520 -0.5986
  156SAPE   H4Y17401   6.224   4.833   6.913  0.1378  0.5609 -0.0991
  156SAPE   C3517402   6.300   4.936   7.097  0.5753  0.0510  0.6201
  156SAPE   H5X17403   6.261   5.040   7.085 -0.8201 -0.3419  1.4512
  156SAPE   H5Y17404   6.401   4.946   7.141  1.1024  3.7400 -1.0547
  156SAPE   C3617405   6.213   4.847   7.190  0.5701 -0.7534 -0.2360
  156SAPE   H6X17406   6.248   4.741   7.190 -0.0176 -0.9502 -0.0149
  156SAPE   H6Y17407   6.116   4.839   7.136  0.3600 -0.2868  0.0660
  156SAPE   C3717408   6.205   4.908   7.327 -0.4532 -1.0787 -0.4019
  156SAPE   H7X17409   6.167   5.012   7.324 -0.0666 -0.9470 -1.4140
  156SAPE   H7Y17410   6.308   4.922   7.366  0.1166 -1.6625 -1.6393
  156SAPE   C3817411   6.120   4.824   7.415  0.3385 -0.4551 -0.1526
  156SAPE   H8X17412   6.178   4.732   7.436  2.3880  1.0370  1.1884
  156SAPE   H8Y17413   6.028   4.811   7.355 -2.1825  2.1758  2.7621
  156SAPE   C3917414   6.073   4.890   7.544  0.3919  0.0436  0.1000
  156SAPE   H9X17415   5.997   4.836   7.605  0.5776 -0.0959  0.2080
  156SAPE   H9Y17416   6.032   4.990   7.517  2.0594  0.7137 -0.0733
  156SAPE  C31017417   6.187   4.913   7.642 -0.0572  0.6161  0.1290
  156SAPE  H10X17418   6.280   4.940   7.589 -0.7763  1.7620 -0.5985
  156SAPE  H10Y17419   6.213   4.822   7.700  0.8071  1.7360  1.5739
  156SAPE  C31117420   6.173   5.033   7.737 -0.7757  0.0289  0.2172
  156SAPE  H11X17421   6.133   5.126   7.691 -2.8479 -1.1606 -0.5626
  156SAPE  H11Y17422   6.275   5.047   7.778  0.0010 -1.5117 -1.0935
  156SAPE  C31217423   6.091   5.003   7.866 -0.4147 -0.6929  0.3983
  156SAPE  H12X17424   6.152   4.929   7.922 -0.4748 -1.2248 -0.2343
  156SAPE  H12Y17425   5.992   4.961   7.839 -0.8404  0.5027  0.0448
  156SAPE  C31317426   6.079   5.134   7.945 -0.4271 -0.7765 -0.0829
  156SAPE  H13X17427   6.011   5.196   7.883  0.8885  0.5994 -0.2154
  156SAPE  H13Y17428   6.175   5.186   7.965  0.0668 -1.1318 -1.4077
  156SAPE  C31417429   6.016   5.118   8.085 -0.2496 -0.2572 -0.6130
  156SAPE  H14X17430   6.092   5.130   8.165 -2.5582  0.3984  1.5834
  156SAPE  H14Y17431   5.980   5.014   8.103 -0.1255 -0.4474 -1.4154
  156SAPE  C31517432   5.902   5.217   8.128 -0.7002 -0.0464  0.1691
  156SAPE  H15X17433   5.832   5.204   8.042  0.9793 -0.1282 -1.2480
  156SAPE  H15Y17434   5.949   5.317   8.118  2.4601 -1.4889 -1.0116
  156SAPE  C31617435   5.841   5.195   8.259  0.3021 -0.2313  0.3971
  156SAPE  H16X17436   5.900   5.200   8.353 -2.0848  0.0404  1.9602
  156SAPE  H16Y17437   5.798   5.094   8.268 -0.7262  0.2251  0.6772
  156SAPE  C31717438   5.722   5.299   8.271  0.0101 -0.0043  0.1583
  156SAPE  H17X17439   5.738   5.387   8.205 -0.6538 -0.6098 -0.8298
  156SAPE  H17Y17440   5.719   5.339   8.375 -1.3288  2.1406 -0.6403
  156SAPE  C31817441   5.586   5.238   8.234 -0.0942 -0.0690  0.1301
  156SAPE  H18X17442   5.521   5.323   8.204  0.4869  0.0227 -0.9234
  156SAPE  H18Y17443   5.535   5.188   8.319  1.3897 -0.8146  0.6104
  156SAPE  H18Z17444   5.599   5.172   8.145 -3.4640  2.1734 -2.2808
  157SAPE     N17445   3.499   1.093   6.193 -0.7052  0.1256  0.1640
  157SAPE   HN117446   3.466   0.994   6.191  2.5694 -1.1474  1.9033
  157SAPE   HN217447   3.598   1.100   6.163 -1.5464 -0.0779 -2.9918
  157SAPE   HN317448   3.508   1.128   6.291  0.3450  2.6431 -0.7527
  157SAPE   C1217449   3.414   1.160   6.094  0.8100 -0.3747  0.5771
  157SAPE  H12A17450   3.477   1.177   6.004  0.4839  1.5847  0.6743
  157SAPE  H12B17451   3.383   1.258   6.136 -1.7675 -0.4353 -1.0021
  157SAPE   C1117452   3.286   1.078   6.056 -0.6075 -0.2804 -0.2191
  157SAPE  H11A17453   3.325   0.986   6.008  0.7619  0.9449 -1.5651
  157SAPE  H11B17454   3.246   1.141   5.974 -1.0023 -0.5880 -0.2638
  157SAPE     P17455   3.186   0.932   6.244 -0.1900  0.0080 -0.4507
  157SAPE   O1317456   3.132   0.828   6.157 -0.0806 -0.2036  0.2634
  157SAPE   O1417457   3.324   0.910   6.295  0.1201  0.5207 -0.1021
  157SAPE   O1217458   3.181   1.062   6.157 -0.2847  0.1255  0.3238
  157SAPE   O1117459   3.086   0.965   6.363  0.0306  0.5059 -0.1041
  157SAPE    C117460   3.039   1.097   6.397  0.0155  0.9356 -0.2198
  157SAPE    HA17461   2.989   1.149   6.313  0.0340  2.9917  0.9644
  157SAPE    HB17462   2.959   1.087   6.473 -0.6649 -1.9216 -1.2158
  157SAPE    C217463   3.151   1.185   6.465  0.2745  0.2056 -0.2528
  157SAPE    HS17464   3.230   1.205   6.390  0.1645 -1.7156 -0.9337
  157SAPE   O2117465   3.196   1.110   6.572 -0.9358  0.4321 -0.5307
  157SAPE   C2117466   3.318   1.148   6.609  0.1871  0.2161 -0.2923
  157SAPE   O2217467   3.377   1.246   6.566  0.0605 -0.2376  0.1295
  157SAPE   C2217468   3.372   1.050   6.717  0.6361 -0.3386 -0.1067
  157SAPE   H2R17469   3.311   0.958   6.728  1.3748 -1.1300 -2.1721
  157SAPE   H2S17470   3.466   1.006   6.678  2.0910  1.2401  1.4656
  157SAPE    C317471   3.084   1.322   6.511 -0.6178 -0.4169  0.0836
  157SAPE    HX17472   3.055   1.370   6.416 -0.0762 -1.2016 -0.4914
  157SAPE    HY17473   3.155   1.401   6.543  0.9851 -1.2581 -1.2441
  157SAPE   O3117474   2.970   1.310   6.603  0.2856 -0.2010  0.4995
  157SAPE   C3117475   2.997   1.323   6.734  0.3061 -0.6069 -0.1544
  157SAPE   O3217476   3.109   1.340   6.784 -0.0365  0.9200  0.2583
  157SAPE   C3217477   2.861   1.310   6.811 -0.4763  1.0728 -0.4806
  157SAPE   H2X17478   2.803   1.226   6.764  1.3558  0.8216 -2.4728
  157SAPE   H2Y17479   2.814   1.410   6.815 -1.4518  0.6931 -1.5339
  157SAPE   C2317480   3.382   1.120   6.855 -0.2240  0.0169  0.5257
  157SAPE   H3R17481   3.291   1.181   6.876 -0.7726 -0.4693 -0.3807
  157SAPE   H3S17482   3.466   1.191   6.840 -0.2788  0.0126  0.1991
  157SAPE   C2417483   3.410   1.024   6.969 -0.0109  0.1979  0.5319
  157SAPE   H4R17484   3.467   0.937   6.930  1.2284 -0.0114  2.6782
  157SAPE   H4S17485   3.312   0.982   7.001  1.1650 -0.6817  3.1782
  157SAPE   C2517486   3.486   1.089   7.081 -0.0395  0.8474 -0.2868
  157SAPE   H5R17487   3.593   1.061   7.077 -0.4274 -0.6702 -3.3446
  157SAPE   C2617488   3.436   1.176   7.170 -0.5934 -0.3709 -0.2344
  157SAPE   H6R17489   3.508   1.214   7.245  0.3135  0.6213 -1.5699
  157SAPE   C2717490   3.294   1.230   7.174  0.1950 -0.3132  0.3421
  157SAPE   H7R17491   3.246   1.207   7.271 -0.1659  0.9309  0.4846
  157SAPE   H7S17492   3.231   1.174   7.102 -0.1195  1.4376 -0.8128
  157SAPE   C2817493   3.280   1.380   7.143  0.6715  0.2475 -0.7089
  157SAPE   H8R17494   3.244   1.398   7.041  1.2940  0.4949 -0.8920
  157SAPE   C2917495   3.310   1.481   7.231 -1.0354 -0.5546 -0.3809
  157SAPE   H9R17496   3.279   1.584   7.209  1.8707  0.7436  1.0384
  157SAPE  C21017497   3.363   1.456   7.369  0.6646  0.7498  0.6764
  157SAPE  H10R17498   3.470   1.488   7.364  1.9369 -3.0559 -0.4215
  157SAPE  H10S17499   3.365   1.348   7.395 -2.0371 -0.0293 -1.8721
  157SAPE  C21117500   3.288   1.530   7.475 -0.2682 -0.1992 -0.0763
  157SAPE  H11R17501   3.356   1.592   7.535  1.7004 -1.8558 -0.4768
  157SAPE  C21217502   3.160   1.544   7.507  0.5258  0.2268 -0.1518
  157SAPE  H12R17503   3.143   1.600   7.601 -0.1928 -0.6240  0.2408
  157SAPE  C21317504   3.036   1.477   7.446 -0.4491  0.2572 -0.2717
  157SAPE  H13R17505   3.029   1.495   7.336  1.6203 -0.9232 -0.6508
  157SAPE  H13S17506   2.947   1.530   7.487  1.4494  1.8473  2.0086
  157SAPE  C21417507   3.028   1.327   7.473  0.1682 -0.9439 -0.8771
  157SAPE  H14R17508   3.122   1.272   7.458  0.0124 -1.8378  1.0754
  157SAPE  C21517509   2.913   1.261   7.504 -0.1423 -0.3207  0.1059
  157SAPE  H15R17510   2.926   1.152   7.510  1.9780 -0.0759  0.8354
  157SAPE  C21617511   2.783   1.321   7.540 -0.1251  0.1089 -0.1063
  157SAPE  H16R17512   2.722   1.325   7.447  0.2149  1.7214 -0.2979
  157SAPE  H16S17513   2.780   1.423   7.584 -2.1083  0.6784 -1.3981
  157SAPE  C21717514   2.708   1.245   7.647 -1.2038  0.1327  0.1210
  157SAPE  H17R17515   2.658   1.152   7.612 -0.2591 -0.5613  0.5697
  157SAPE  H17S17516   2.630   1.313   7.687 -2.3920 -0.8170 -0.5407
  157SAPE  C21817517   2.784   1.218   7.783 -0.2631 -0.2364 -0.5335
  157SAPE  H18R17518   2.820   1.318   7.816  2.7478 -1.5537  0.5150
  157SAPE  H18S17519   2.878   1.163   7.763 -0.2841 -0.3356 -0.3665
  157SAPE  C21917520   2.690   1.164   7.892 -0.6171  0.4517 -0.5047
  157SAPE  H19R17521   2.650   1.066   7.859 -0.4328 -0.4175  1.6979
  157SAPE  H19S17522   2.613   1.242   7.910 -0.9650 -0.1555  0.7535
  157SAPE  C22017523   2.771   1.131   8.012 -0.0426 -0.8911 -0.2548
  157SAPE  H20R17524   2.868   1.091   7.975  1.7125  1.3252  1.6106
  157SAPE  H20S17525   2.717   1.055   8.073 -1.0648 -0.3844 -0.5063
  157SAPE  H20T17526   2.795   1.225   8.066  2.0964 -1.4659 -0.1147
  157SAPE   C3317527   2.876   1.265   6.959  0.3367  0.6103  0.2582
  157SAPE   H3X17528   2.892   1.351   7.028 -0.0645  1.3209 -0.5113
  157SAPE   H3Y17529   2.964   1.200   6.976 -1.5535 -2.0355  0.5462
  157SAPE   C3417530   2.748   1.188   6.996  0.4621  0.0537 -0.0974
  157SAPE   H4X17531   2.744   1.098   6.931 -1.0809 -1.8701  2.4808
  157SAPE   H4Y17532   2.655   1.248   6.994 -0.4287 -1.1999  1.4469
  157SAPE   C3517533   2.779   1.136   7.143 -0.0952 -0.1038  0.5057
  157SAPE   H5X17534   2.769   1.223   7.212  0.3181  0.0553  0.3633
  157SAPE   H5Y17535   2.880   1.092   7.152 -0.0334 -0.1626 -0.4050
  157SAPE   C3617536   2.676   1.034   7.182  0.2341  0.1326  0.4309
  157SAPE   H6X17537   2.717   0.957   7.251 -2.1852 -2.5794 -0.9598
  157SAPE   H6Y17538   2.656   0.976   7.090  0.4718  1.0714 -0.2277
  157SAPE   C3717539   2.549   1.086   7.248 -0.0556  0.0043  0.4875
  157SAPE   H7X17540   2.499   1.157   7.179 -1.8650 -2.7913 -1.3237
  157SAPE   H7Y17541   2.561   1.147   7.339 -1.5965  1.1515 -0.0323
  157SAPE   C3817542   2.444   0.975   7.280 -0.2240  0.1697 -0.2750
  157SAPE   H8X17543   2.502   0.886   7.310 -1.8808 -0.5174  1.0403
  157SAPE   H8Y17544   2.404   0.956   7.178 -1.5391 -0.9436  0.4186
  157SAPE   C3917545   2.338   1.012   7.380  0.1974  0.4154 -1.5567
  157SAPE   H9X17546   2.240   0.960   7.370 -1.6036  2.6666  2.1851
  157SAPE   H9Y17547   2.313   1.117   7.354 -0.5537  0.5058 -0.5325
  157SAPE  C31017548   2.377   0.989   7.527  0.3536  0.6861  0.4333
  157SAPE  H10X17549   2.476   1.035   7.553  0.6754  0.3435 -0.1723
  157SAPE  H10Y17550   2.394   0.880   7.534 -0.7104  0.4829 -0.0685
  157SAPE  C31117551   2.278   1.039   7.636  0.3341  0.3603 -0.6713
  157SAPE  H11X17552   2.187   0.976   7.627  0.9099 -0.2801 -2.5932
  157SAPE  H11Y17553   2.258   1.148   7.629 -0.9755  0.2823  1.2276
  157SAPE  C31217554   2.334   1.006   7.779  0.3307 -0.5030  0.6740
  157SAPE  H12X17555   2.431   1.059   7.781 -0.0140  0.1246  0.8915
  157SAPE  H12Y17556   2.352   0.896   7.779  0.6587 -0.4941 -1.4466
  157SAPE  C31317557   2.229   1.048   7.886 -0.2376 -0.2974 -0.0006
  157SAPE  H13X17558   2.144   0.979   7.865 -0.1479  0.0098 -1.4291
  157SAPE  H13Y17559   2.187   1.150   7.875 -0.1051 -0.3061 -0.6237
  157SAPE  C31417560   2.270   1.011   8.031 -0.3069  0.4688  0.5244
  157SAPE  H14X17561   2.344   1.084   8.070 -0.9164  0.6866  1.3014
  157SAPE  H14Y17562   2.300   0.905   8.028 -2.4791 -0.1806 -0.7949
  157SAPE  C31517563   2.149   1.021   8.127 -0.5012  0.6111  0.0515
  157SAPE  H15X17564   2.177   0.978   8.226 -1.9350  0.9004  0.6164
  157SAPE  H15Y17565   2.076   0.949   8.085  0.9979 -0.4964 -0.7548
  157SAPE  C31617566   2.090   1.160   8.146 -0.0343 -0.0547 -0.0052
  157SAPE  H16X17567   2.057   1.202   8.048 -0.9933 -0.4763  0.1271
  157SAPE  H16Y17568   2.178   1.218   8.182  0.2322  0.3979 -1.2948
  157SAPE  C31717569   1.993   1.174   8.264 -0.3121  0.0219  1.2176
  157SAPE  H17X17570   1.899   1.129   8.226  0.2206  0.4188 -0.6560
  157SAPE  H17Y17571   1.979   1.283   8.282  1.4633  0.6229 -0.6514
  157SAPE  C31817572   2.017   1.106   8.397 -0.0603  0.1955 -0.6177
  157SAPE  H18X17573   1.938   1.132   8.471 -0.1667 -0.7918 -0.3733
  157SAPE  H18Y17574   2.110   1.145   8.443 -1.2655  3.3454 -0.5961
  157SAPE  H18Z17575   2.013   0.997   8.379  1.3262 -0.0726  0.5247
  158SAPE     N17576   5.184   5.828   6.366  0.3633  0.0394 -0.2989
  158SAPE   HN117577   5.168   5.848   6.265  1.0116 -0.7173 -0.5566
  158SAPE   HN217578   5.141   5.906   6.420 -2.3865 -0.9920 -0.8579
  158SAPE   HN317579   5.287   5.834   6.377  0.7924 -0.3166 -3.1594
  158SAPE   C1217580   5.129   5.691   6.412 -0.3678  0.3158 -0.5119
  158SAPE  H12A17581   5.019   5.700   6.428 -0.3352 -0.3405  0.1344
  158SAPE  H12B17582   5.174   5.668   6.511  1.0993  1.8994 -0.7684
  158SAPE   C1117583   5.162   5.580   6.323  0.3697 -0.3064  0.7742
  158SAPE  H11A17584   5.122   5.587   6.220  1.0811  0.5777  0.5403
  158SAPE  H11B17585   5.114   5.489   6.366  0.4468  0.3912  2.4096
  158SAPE     P17586   5.395   5.455   6.352 -0.3099  0.1034  0.1506
  158SAPE   O1317587   5.321   5.329   6.365  0.0444 -0.2455 -0.8600
  158SAPE   O1417588   5.513   5.455   6.261 -0.7281  0.0348  0.2105
  158SAPE   O1217589   5.303   5.583   6.320 -0.3401 -0.4381 -0.4616
  158SAPE   O1117590   5.449   5.486   6.497  0.3317 -0.1381 -0.6827
  158SAPE    C117591   5.477   5.617   6.542 -0.5454  0.4245 -0.3965
  158SAPE    HA17592   5.552   5.671   6.481  0.6941  2.2044  2.5026
  158SAPE    HB17593   5.384   5.676   6.528 -0.4401  0.4566 -1.0060
  158SAPE    C217594   5.533   5.629   6.686 -0.1453  0.7381 -0.4102
  158SAPE    HS17595   5.635   5.585   6.680 -0.1250  0.9401 -3.0724
  158SAPE   O2117596   5.444   5.576   6.781 -0.0822 -0.2259  0.1338
  158SAPE   C2117597   5.459   5.458   6.833 -0.2839 -0.3857 -0.0100
  158SAPE   O2217598   5.542   5.373   6.805  0.2008 -0.9404 -0.0583
  158SAPE   C2217599   5.334   5.430   6.919  0.0279 -0.4650 -0.2131
  158SAPE   H2R17600   5.345   5.489   7.013  1.2987 -2.3189  0.8616
  158SAPE   H2S17601   5.245   5.454   6.857  0.4827  0.8883 -0.3953
  158SAPE    C317602   5.562   5.780   6.730  0.9954  0.1818  0.0459
  158SAPE    HX17603   5.470   5.842   6.732 -0.5740 -2.0367  0.2053
  158SAPE    HY17604   5.615   5.838   6.652 -0.6036  3.3456  1.1379
  158SAPE   O3117605   5.626   5.790   6.856  0.4783  0.2362  0.3981
  158SAPE   C3117606   5.759   5.783   6.843 -0.6447  0.8417 -0.0893
  158SAPE   O3217607   5.821   5.766   6.739  0.7353 -0.2019  0.4579
  158SAPE   C3217608   5.835   5.813   6.976  0.3945  0.3079  0.4321
  158SAPE   H2X17609   5.902   5.727   6.997  1.8444  0.2641 -3.5066
  158SAPE   H2Y17610   5.756   5.827   7.052  0.0100 -1.1172  0.3282
  158SAPE   C2317611   5.328   5.281   6.981  0.2065 -0.5001  0.7591
  158SAPE   H3R17612   5.435   5.253   6.996  0.5060  0.5311  0.6530
  158SAPE   H3S17613   5.288   5.216   6.900  2.2148 -0.4656 -0.3483
  158SAPE   C2417614   5.257   5.288   7.115 -0.3194  0.5616 -0.1219
  158SAPE   H4R17615   5.172   5.358   7.116 -1.7338 -1.0768 -0.5501
  158SAPE   H4S17616   5.335   5.336   7.179  0.8950  0.4511 -1.4713
  158SAPE   C2517617   5.224   5.155   7.173  0.4626  0.0918 -0.7025
  158SAPE   H5R17618   5.217   5.073   7.101  0.1873 -2.3097  1.8810
  158SAPE   C2617619   5.215   5.125   7.300 -0.0854  0.9532 -0.4388
  158SAPE   H6R17620   5.195   5.020   7.328 -0.3822  0.5498 -2.0996
  158SAPE   C2717621   5.251   5.220   7.422  0.3135  0.7051  0.7554
  158SAPE   H7R17622   5.334   5.284   7.386  1.1617 -0.4800  0.5531
  158SAPE   H7S17623   5.291   5.165   7.510  2.7296  0.4179 -0.4473
  158SAPE   C2817624   5.131   5.308   7.461  0.2278  0.2153 -0.4822
  158SAPE   H8R17625   5.044   5.304   7.393 -0.2834 -1.9181  0.2135
  158SAPE   C2917626   5.124   5.386   7.568 -0.2389 -0.5887 -0.5388
  158SAPE   H9R17627   5.031   5.438   7.592  0.2475  0.3983 -0.7305
  158SAPE  C21017628   5.241   5.401   7.672 -0.3868  0.4071 -0.2767
  158SAPE  H10R17629   5.293   5.497   7.651 -0.9543  1.0104  0.9468
  158SAPE  H10S17630   5.321   5.326   7.657  0.3417  1.0886  0.1017
  158SAPE  C21117631   5.185   5.400   7.815 -0.3839 -0.3631 -0.4032
  158SAPE  H11R17632   5.095   5.340   7.832  0.3251 -1.2056  0.4355
  158SAPE  C21217633   5.233   5.473   7.921 -0.3217 -0.4495 -0.4285
  158SAPE  H12R17634   5.183   5.468   8.019  1.4137  1.9439  0.7104
  158SAPE  C21317635   5.357   5.563   7.923  0.0608 -0.6017  0.3656
  158SAPE  H13R17636   5.362   5.614   8.021 -3.1676  1.5529 -0.4368
  158SAPE  H13S17637   5.335   5.638   7.845 -1.6893 -1.3838  0.0662
  158SAPE  C21417638   5.491   5.493   7.906  0.2672 -0.5133 -0.6942
  158SAPE  H14R17639   5.504   5.413   7.981 -0.6486  0.2801  0.3410
  158SAPE  C21517640   5.597   5.515   7.825 -0.3985 -0.3163 -0.1023
  158SAPE  H15R17641   5.687   5.454   7.841 -1.0597 -1.3337 -0.1983
  158SAPE  C21617642   5.620   5.609   7.714  0.4357  0.5560 -0.1418
  158SAPE  H16R17643   5.711   5.672   7.727 -0.0993  1.5275 -1.0206
  158SAPE  H16S17644   5.546   5.691   7.709  0.3826  0.8087  2.7327
  158SAPE  C21717645   5.617   5.531   7.581 -0.6164 -0.3273  0.3198
  158SAPE  H17R17646   5.524   5.476   7.557 -0.6216  0.7074 -2.2800
  158SAPE  H17S17647   5.706   5.464   7.575 -0.7670 -0.4607 -0.5145
  158SAPE  C21817648   5.621   5.631   7.462  0.0249  0.7302 -0.3381
  158SAPE  H18R17649   5.715   5.690   7.460 -0.0398  0.8232 -0.6656
  158SAPE  H18S17650   5.530   5.696   7.468 -3.3310 -3.4362 -0.9950
  158SAPE  C21917651   5.621   5.568   7.321  0.6482  0.0635  0.1001
  158SAPE  H19R17652   5.568   5.471   7.331  0.8107 -0.0503 -0.1241
  158SAPE  H19S17653   5.728   5.544   7.303  1.0394  2.6049 -1.4109
  158SAPE  C22017654   5.571   5.659   7.216 -0.0132 -0.1775  0.0117
  158SAPE  H20R17655   5.595   5.626   7.112 -3.4592  3.0980 -2.0739
  158SAPE  H20S17656   5.611   5.761   7.234 -0.8163  1.2226 -4.7053
  158SAPE  H20T17657   5.461   5.672   7.214 -0.3587 -1.7354  3.0075
  158SAPE   C3317658   5.936   5.936   6.984 -0.0334  0.6327 -0.3010
  158SAPE   H3X17659   5.874   6.019   6.944 -0.4026  1.4035  1.7824
  158SAPE   H3Y17660   6.018   5.914   6.912 -0.6840 -2.9711 -0.1190
  158SAPE   C3417661   5.976   5.980   7.133  0.2129  0.4233 -0.1676
  158SAPE   H4X17662   5.887   6.000   7.197 -2.4476 -3.6930 -2.1171
  158SAPE   H4Y17663   6.047   6.066   7.140  1.8145 -0.9771  1.6230
  158SAPE   C3517664   6.060   5.877   7.204  0.1947 -0.0178  0.2820
  158SAPE   H5X17665   6.159   5.875   7.154  1.0024 -0.4069  1.8511
  158SAPE   H5Y17666   6.021   5.774   7.187 -3.4388  1.4857 -1.8549
  158SAPE   C3617667   6.086   5.907   7.349  0.1254 -0.1670  0.5553
  158SAPE   H6X17668   6.137   6.005   7.352  1.5832 -0.9236  2.5352
  158SAPE   H6Y17669   6.155   5.832   7.392  1.4316 -0.1466 -1.3711
  158SAPE   C3717670   5.961   5.907   7.433  0.0672  0.8606 -0.6838
  158SAPE   H7X17671   5.917   6.006   7.410 -0.5079  0.4490 -1.4105
  158SAPE   H7Y17672   5.888   5.827   7.406  0.5953 -0.4738  1.5733
  158SAPE   C3817673   5.985   5.897   7.583 -0.7520 -0.8330 -0.3494
  158SAPE   H8X17674   6.017   5.792   7.601 -2.9273 -1.2794  1.2206
  158SAPE   H8Y17675   5.895   5.931   7.637 -1.5440 -1.2881 -1.3501
  158SAPE   C3917676   6.099   5.989   7.636 -0.3792  0.6260 -1.0601
  158SAPE   H9X17677   6.094   6.086   7.583  0.1529  0.0419 -2.2167
  158SAPE   H9Y17678   6.194   5.943   7.603 -1.8428 -2.9970 -0.7132
  158SAPE  C31017679   6.088   6.015   7.789  0.0278 -0.5095  0.6173
  158SAPE  H10X17680   6.113   5.923   7.846 -1.2052 -0.5321  1.1511
  158SAPE  H10Y17681   5.984   6.051   7.808  0.8854  2.7558 -0.2898
  158SAPE  C31117682   6.182   6.127   7.842  0.4348 -0.8351 -0.7910
  158SAPE  H11X17683   6.175   6.224   7.788 -0.6011  0.1102  0.9502
  158SAPE  H11Y17684   6.286   6.099   7.814 -0.2313 -5.4898  0.4456
  158SAPE  C31217685   6.175   6.145   7.995  0.9015  0.3619 -0.9715
  158SAPE  H12X17686   6.192   6.044   8.038  0.8179  1.2756  1.3554
  158SAPE  H12Y17687   6.067   6.162   8.016  0.8774 -0.1260 -0.6602
  158SAPE  C31317688   6.271   6.250   8.056  0.2963  0.5278 -0.0127
  158SAPE  H13X17689   6.239   6.353   8.029 -0.5395  0.0741 -0.8152
  158SAPE  H13Y17690   6.371   6.221   8.015 -1.8285 -3.8358 -2.9667
  158SAPE  C31417691   6.268   6.241   8.211  0.3512  0.6604  0.2567
  158SAPE  H14X17692   6.303   6.141   8.246 -0.2864  0.1715 -0.4864
  158SAPE  H14Y17693   6.165   6.261   8.246  0.8209 -1.8505  3.5991
  158SAPE  C31517694   6.362   6.349   8.267  0.6439  1.0075  0.4389
  158SAPE  H15X17695   6.352   6.444   8.209  1.2512  2.3465  2.4436
  158SAPE  H15Y17696   6.469   6.327   8.249  0.2710 -0.4620 -0.1619
  158SAPE  C31617697   6.338   6.368   8.416 -0.1991 -0.2834 -0.3733
  158SAPE  H16X17698   6.361   6.279   8.479  2.4150 -0.2661 -1.1898
  158SAPE  H16Y17699   6.235   6.400   8.445 -0.8915 -0.6349 -2.3246
  158SAPE  C31717700   6.410   6.486   8.486 -1.3402  0.0818 -1.0395
  158SAPE  H17X17701   6.402   6.576   8.422 -0.3151  1.0464  0.1381
  158SAPE  H17Y17702   6.520   6.472   8.496 -1.4625 -0.2996 -0.0475
  158SAPE  C31817703   6.359   6.519   8.629  0.3053 -0.6543  0.4524
  158SAPE  H18X17704   6.443   6.575   8.676  1.0376 -0.2016 -1.3076
  158SAPE  H18Y17705   6.342   6.425   8.686  0.3570 -0.2230  1.1985
  158SAPE  H18Z17706   6.266   6.580   8.627  0.4350 -0.2465  2.8975
  159SAPE     N17707   3.965   0.119   6.004  0.5141 -0.7341  0.2515
  159SAPE   HN117708   4.011   0.050   5.942 -0.1257 -1.0563  0.1258
  159SAPE   HN217709   3.863   0.102   6.019  0.2083  0.1326 -0.7182
  159SAPE   HN317710   3.984   0.212   5.963 -0.1421 -0.5835  0.2758
  159SAPE   C1217711   4.027   0.108   6.136 -0.1834  0.5403  0.0329
  159SAPE  H12A17712   4.003   0.004   6.167 -4.5882  0.8781 -1.5579
  159SAPE  H12B17713   3.981   0.182   6.205 -1.1910  0.4650 -0.5399
  159SAPE   C1117714   4.182   0.123   6.128  0.3417  0.2004  0.5357
  159SAPE  H11A17715   4.223   0.068   6.041 -0.6974 -1.7829  1.2423
  159SAPE  H11B17716   4.233   0.080   6.216  2.6327  3.0121  0.7314
  159SAPE     P17717   4.322   0.328   6.209  0.2529 -0.2588 -0.1317
  159SAPE   O1317718   4.438   0.235   6.216  0.0162  0.0582  0.0927
  159SAPE   O1417719   4.348   0.467   6.166  0.2100 -0.2269  0.3987
  159SAPE   O1217720   4.211   0.267   6.119  0.3469 -0.5048 -0.3766
  159SAPE   O1117721   4.239   0.331   6.344  0.6754 -0.0708 -0.6583
  159SAPE    C117722   4.150   0.444   6.353  0.1663  0.2138  0.8927
  159SAPE    HA17723   4.209   0.538   6.349 -0.0438  0.3151 -0.3671
  159SAPE    HB17724   4.081   0.448   6.266  0.8092  0.5173  0.3901
  159SAPE    C217725   4.060   0.436   6.472 -0.5905 -0.6740 -0.4568
  159SAPE    HS17726   3.994   0.525   6.472 -1.5429 -1.3568 -1.3497
  159SAPE   O2117727   4.146   0.425   6.585  0.3533 -0.3147  0.0268
  159SAPE   C2117728   4.210   0.537   6.626  0.4356  0.1199 -0.2159
  159SAPE   O2217729   4.181   0.650   6.590 -0.1646  0.7171 -0.2272
  159SAPE   C2217730   4.310   0.500   6.738 -0.7648 -0.2486  1.0371
  159SAPE   H2R17731   4.318   0.389   6.740 -0.8564 -0.2587  2.4543
  159SAPE   H2S17732   4.401   0.556   6.709 -1.8153  0.5884 -0.8088
  159SAPE    C317733   3.975   0.305   6.474  0.4559 -0.5684 -0.1003
  159SAPE    HX17734   4.036   0.214   6.491  1.3270  0.1181  0.5279
  159SAPE    HY17735   3.932   0.299   6.372 -0.7285 -1.8292  0.4260
  159SAPE   O3117736   3.864   0.320   6.568 -0.4406  0.5936 -0.1154
  159SAPE   C3117737   3.854   0.238   6.672  0.5554 -0.4052 -0.3942
  159SAPE   O3217738   3.935   0.150   6.696  0.3189 -0.3607 -0.0135
  159SAPE   C3217739   3.723   0.279   6.743  0.7859  0.1522 -0.7415
  159SAPE   H2X17740   3.644   0.213   6.702 -0.7936  0.4880  1.6213
  159SAPE   H2Y17741   3.689   0.377   6.702 -1.5698  0.3848  1.5748
  159SAPE   C2317742   4.266   0.548   6.878  0.3597  0.4881 -0.3198
  159SAPE   H3R17743   4.251   0.658   6.878 -1.6429  0.2560  0.2347
  159SAPE   H3S17744   4.351   0.524   6.945  0.1749 -0.2335 -0.3375
  159SAPE   C2417745   4.132   0.488   6.935  0.2825 -0.2173  0.6415
  159SAPE   H4R17746   4.054   0.509   6.858  2.1069  1.2697 -0.8881
  159SAPE   H4S17747   4.097   0.532   7.030 -1.7206  1.9767 -0.9746
  159SAPE   C2517748   4.122   0.335   6.951  0.0451  0.1672  0.2026
  159SAPE   H5R17749   4.099   0.280   6.859  0.5773  0.3394 -0.0410
  159SAPE   C2617750   4.130   0.256   7.061 -0.4467 -0.2887  0.1917
  159SAPE   H6R17751   4.108   0.149   7.051 -2.4240 -0.0805  1.7703
  159SAPE   C2717752   4.150   0.309   7.199 -0.4476 -0.3161  0.1649
  159SAPE   H7R17753   4.082   0.255   7.267 -0.2191 -0.9507 -0.1051
  159SAPE   H7S17754   4.121   0.416   7.202 -0.6632 -0.2465 -2.1603
  159SAPE   C2817755   4.296   0.295   7.241  0.4689 -0.3002  0.4765
  159SAPE   H8R17756   4.371   0.329   7.168  0.2569  1.0774  0.8636
  159SAPE   C2917757   4.342   0.263   7.366 -0.3778  0.1435  0.4976
  159SAPE   H9R17758   4.450   0.248   7.381  0.0142  1.9571 -0.2352
  159SAPE  C21017759   4.259   0.228   7.484  0.2445  1.1714 -0.9469
  159SAPE  H10R17760   4.311   0.152   7.547 -0.7499  0.4192 -1.0282
  159SAPE  H10S17761   4.161   0.183   7.461 -0.3965  1.1937  1.4589
  159SAPE  C21117762   4.227   0.352   7.567  0.7700  0.2507  0.1842
  159SAPE  H11R17763   4.188   0.431   7.501  1.4557 -0.4201 -1.0463
  159SAPE  C21217764   4.245   0.384   7.687  0.0145  1.0915  0.4558
  159SAPE  H12R17765   4.211   0.485   7.714  0.5633  1.3885  0.0467
  159SAPE  C21317766   4.306   0.300   7.796  0.2013  0.4052 -0.0393
  159SAPE  H13R17767   4.413   0.282   7.772  0.1154  0.3712 -0.4123
  159SAPE  H13S17768   4.262   0.198   7.803  0.8421  0.1400  0.2111
  159SAPE  C21417769   4.287   0.360   7.936 -0.3587 -0.2540 -0.2943
  159SAPE  H14R17770   4.367   0.421   7.979 -0.5845 -0.5181  0.5248
  159SAPE  C21517771   4.184   0.348   8.018  0.4918 -0.4548  0.3048
  159SAPE  H15R17772   4.199   0.398   8.115  1.6417  1.5579 -0.8616
  159SAPE  C21617773   4.055   0.280   7.992 -0.5687  0.0058 -0.4967
  159SAPE  H16R17774   4.040   0.245   7.887 -1.9561 -0.2397 -0.2261
  159SAPE  H16S17775   3.977   0.359   8.002  0.6973  1.2098  0.3244
  159SAPE  C21717776   4.017   0.161   8.083  0.1321 -0.2201  0.1781
  159SAPE  H17R17777   3.919   0.129   8.041  0.2781  2.7504 -2.8220
  159SAPE  H17S17778   4.002   0.189   8.190  1.8560  3.2155 -0.3436
  159SAPE  C21817779   4.115   0.045   8.078  0.0941 -0.0237 -0.0621
  159SAPE  H18R17780   4.215   0.059   8.124  0.2735  1.2851 -0.8119
  159SAPE  H18S17781   4.132   0.014   7.973 -0.8559 -0.4721 -0.0884
  159SAPE  C21917782   4.048  -0.075   8.155 -0.1875 -0.4123  0.1409
  159SAPE  H19R17783   4.110  -0.153   8.106 -0.2262  0.4254 -1.3118
  159SAPE  H19S17784   3.948  -0.097   8.111  0.0447  1.7830 -1.6651
  159SAPE  C22017785   4.062  -0.081   8.309  0.6129 -0.7288  0.5153
  159SAPE  H20R17786   3.989  -0.006   8.344  1.1291  0.8537 -1.5874
  159SAPE  H20S17787   4.158  -0.048   8.356 -0.5374  0.2070  2.3096
  159SAPE  H20T17788   4.048  -0.185   8.345 -1.6140 -0.7256 -0.2152
  159SAPE   C3317789   3.737   0.273   6.889 -0.3475  0.5090  0.2199
  159SAPE   H3X17790   3.815   0.338   6.934  0.2086  2.3756 -3.1385
  159SAPE   H3Y17791   3.744   0.169   6.928 -3.5204 -0.3471 -1.1471
  159SAPE   C3417792   3.603   0.327   6.955 -0.0528 -0.2631 -0.3309
  159SAPE   H4X17793   3.521   0.253   6.947  1.3440 -1.9952  0.6451
  159SAPE   H4Y17794   3.591   0.427   6.907  3.0776 -0.4266 -1.6970
  159SAPE   C3517795   3.625   0.365   7.104 -0.0997 -0.2134  0.2071
  159SAPE   H5X17796   3.716   0.428   7.111 -1.4635  1.7409  1.5136
  159SAPE   H5Y17797   3.657   0.270   7.152  0.5717 -0.4241 -0.6342
  159SAPE   C3617798   3.501   0.415   7.173  0.6621 -0.5400  0.4526
  159SAPE   H6X17799   3.412   0.359   7.139 -0.2439  1.6946 -1.1592
  159SAPE   H6Y17800   3.482   0.521   7.144  0.4668 -0.0788  2.1703
  159SAPE   C3717801   3.512   0.418   7.330  0.2607 -0.4360 -0.0053
  159SAPE   H7X17802   3.610   0.462   7.357  0.0290 -0.4465  0.8839
  159SAPE   H7Y17803   3.507   0.316   7.375 -1.0044 -0.4900 -0.2141
  159SAPE   C3817804   3.402   0.514   7.392  0.0728 -0.4357  0.3283
  159SAPE   H8X17805   3.303   0.472   7.362 -2.0006  3.1349  1.5518
  159SAPE   H8Y17806   3.395   0.611   7.338 -2.0070  0.2686  1.7400
  159SAPE   C3917807   3.422   0.526   7.544  0.1986  0.2574 -0.2064
  159SAPE   H9X17808   3.510   0.586   7.576 -1.1946  3.2231 -1.5228
  159SAPE   H9Y17809   3.430   0.421   7.580  0.2243 -0.7853 -3.0562
  159SAPE  C31017810   3.308   0.587   7.617 -0.2676 -0.2864 -0.8568
  159SAPE  H10X17811   3.219   0.529   7.585 -0.4747 -0.2045 -0.4398
  159SAPE  H10Y17812   3.300   0.693   7.584 -0.8605 -0.0845 -0.0884
  159SAPE  C31117813   3.323   0.583   7.769  0.9527 -0.0423 -0.3800
  159SAPE  H11X17814   3.420   0.618   7.812 -0.4826  2.8687  0.7275
  159SAPE  H11Y17815   3.312   0.479   7.806 -2.0455  0.1254 -0.5742
  159SAPE  C31217816   3.216   0.671   7.845  0.2456  0.0020  0.1349
  159SAPE  H12X17817   3.120   0.615   7.835  0.2309  0.2661 -1.6439
  159SAPE  H12Y17818   3.210   0.770   7.795 -3.0977  0.4600  1.1863
  159SAPE  C31317819   3.256   0.716   7.985  0.8961  0.0794  0.5270
  159SAPE  H13X17820   3.354   0.769   7.992  0.5882  0.4461  3.1696
  159SAPE  H13Y17821   3.240   0.633   8.057 -2.0193 -0.7801 -0.9387
  159SAPE  C31417822   3.154   0.831   8.022  0.1729  0.7777 -0.7901
  159SAPE  H14X17823   3.055   0.789   7.995  0.5191  0.7717 -2.0986
  159SAPE  H14Y17824   3.155   0.921   7.956  2.4051  2.2875  1.1419
  159SAPE  C31517825   3.148   0.870   8.173 -0.1896  0.1984  0.4074
  159SAPE  H15X17826   3.241   0.922   8.205 -1.1084  2.0337  0.2054
  159SAPE  H15Y17827   3.143   0.769   8.220  0.2350  0.7657  1.7359
  159SAPE  C31617828   3.028   0.959   8.198  0.0790 -0.4590  0.0212
  159SAPE  H16X17829   2.931   0.932   8.151 -0.1745 -2.2250  1.4502
  159SAPE  H16Y17830   3.066   1.052   8.150 -2.0273  1.5135  1.9577
  159SAPE  C31717831   2.997   0.984   8.336  0.4368 -0.4439 -0.7969
  159SAPE  H17X17832   3.089   1.021   8.385  0.0099  0.1768 -0.4470
  159SAPE  H17Y17833   2.971   0.893   8.394  4.1793 -0.9917  0.2773
  159SAPE  C31817834   2.891   1.089   8.353  0.1165 -0.3134  0.2141
  159SAPE  H18X17835   2.871   1.101   8.462  2.1806  1.1099  0.4890
  159SAPE  H18Y17836   2.799   1.053   8.302  0.0179 -1.4217  1.1327
  159SAPE  H18Z17837   2.910   1.188   8.306  0.3787  0.7475  2.4417
  160SAPE     N17838   5.917   0.429   6.594  0.5205 -0.3011  0.5177
  160SAPE   HN117839   5.967   0.439   6.684 -1.4692  1.8912  1.4812
  160SAPE   HN217840   5.889   0.524   6.560  0.1325 -0.5144  0.2422
  160SAPE   HN317841   5.835   0.369   6.613  1.4510 -1.1100  2.1025
  160SAPE   C1217842   5.999   0.354   6.495 -0.7580 -0.1054  0.2812
  160SAPE  H12A17843   5.930   0.310   6.420 -2.3631  1.6892  0.6273
  160SAPE  H12B17844   6.051   0.277   6.556 -1.8349 -0.5038  0.7152
  160SAPE   C1117845   6.098   0.423   6.403 -0.3317 -0.5934  0.5813
  160SAPE  H11A17846   6.038   0.501   6.351 -0.7760 -1.1958  0.1799
  160SAPE  H11B17847   6.135   0.357   6.322 -0.5419  1.9541 -1.7090
  160SAPE     P17848   6.308   0.578   6.408  0.0598  0.0764  0.2571
  160SAPE   O1317849   6.433   0.507   6.379 -0.2615  0.2978  0.6638
  160SAPE   O1417850   6.246   0.646   6.287  0.6142  0.1029  0.2294
  160SAPE   O1217851   6.207   0.471   6.472  0.2332 -0.0462 -0.3631
  160SAPE   O1117852   6.329   0.681   6.531 -0.6693 -0.2157  0.2198
  160SAPE    C117853   6.236   0.688   6.636 -0.8795 -0.7242 -0.4917
  160SAPE    HA17854   6.231   0.797   6.658 -3.7861 -0.5740 -1.4156
  160SAPE    HB17855   6.134   0.651   6.612 -0.0015 -2.9709 -1.0899
  160SAPE    C217856   6.282   0.603   6.758 -0.3029  0.3111  0.3887
  160SAPE    HS17857   6.275   0.495   6.733 -1.4948  0.2867  0.7705
  160SAPE   O2117858   6.196   0.637   6.870  0.2200 -0.3666 -0.5648
  160SAPE   C2117859   6.081   0.562   6.880 -0.3408  0.3682  0.1018
  160SAPE   O2217860   6.054   0.464   6.811 -0.2242  0.0963  0.4472
  160SAPE   C2217861   5.995   0.623   6.981  0.1182 -0.2470 -1.1441
  160SAPE   H2R17862   5.905   0.559   6.986 -0.9142  1.1567  2.9159
  160SAPE   H2S17863   6.031   0.616   7.086 -2.0593 -1.1249 -0.3997
  160SAPE    C317864   6.432   0.615   6.811  0.2490 -0.7143  0.2071
  160SAPE    HX17865   6.436   0.720   6.848 -1.2644  0.5346 -2.8361
  160SAPE    HY17866   6.503   0.619   6.726  1.3457  1.0540  1.1369
  160SAPE   O3117867   6.453   0.518   6.917 -0.4659 -0.1311 -0.5141
  160SAPE   C3117868   6.582   0.521   6.963 -0.3213  0.7350  0.6746
  160SAPE   O3217869   6.667   0.585   6.906 -0.4070  0.1113  0.1671
  160SAPE   C3217870   6.593   0.451   7.096 -0.6188 -0.5042 -0.2620
  160SAPE   H2X17871   6.560   0.350   7.066 -0.1524 -0.7014 -0.1286
  160SAPE   H2Y17872   6.516   0.491   7.166 -0.1500  0.5917 -0.3370
  160SAPE   C2317873   5.963   0.775   6.941  0.1628  0.3017  0.8204
  160SAPE   H3R17874   5.953   0.780   6.830  1.9965  0.8886  0.6463
  160SAPE   H3S17875   6.045   0.846   6.966  1.1649 -0.4364 -0.2591
  160SAPE   C2417876   5.833   0.829   6.992 -0.6796 -0.6181  0.5875
  160SAPE   H4R17877   5.758   0.762   6.944  0.2665  0.0523 -2.0114
  160SAPE   H4S17878   5.811   0.928   6.948  0.0082 -0.4782  0.5482
  160SAPE   C2517879   5.830   0.844   7.143  0.0045  0.2455 -0.0883
  160SAPE   H5R17880   5.909   0.906   7.188  1.1965 -0.5154 -1.0716
  160SAPE   C2617881   5.743   0.784   7.233 -0.0212  0.0522  0.6304
  160SAPE   H6R17882   5.751   0.794   7.342 -2.2309  0.0306  0.8438
  160SAPE   C2717883   5.631   0.688   7.194 -0.4254 -0.3627  0.4421
  160SAPE   H7R17884   5.606   0.708   7.087  2.6395 -3.4637 -1.0319
  160SAPE   H7S17885   5.549   0.700   7.267 -0.8515 -2.0018  0.2672
  160SAPE   C2817886   5.681   0.550   7.207  0.8484 -0.2679 -0.0866
  160SAPE   H8R17887   5.690   0.497   7.111  1.0796  1.9312 -1.3431
  160SAPE   C2917888   5.712   0.479   7.323  0.6473  0.8860 -0.2260
  160SAPE   H9R17889   5.754   0.379   7.305  2.0218  1.5248 -0.7095
  160SAPE  C21017890   5.703   0.526   7.463 -0.3217 -0.0777  0.0113
  160SAPE  H10R17891   5.708   0.636   7.481 -0.0008 -0.4787  2.7862
  160SAPE  H10S17892   5.778   0.480   7.531 -0.5146 -1.2963 -0.5746
  160SAPE  C21117893   5.574   0.490   7.525 -0.0039  0.2530 -0.3129
  160SAPE  H11R17894   5.508   0.416   7.478 -1.9181  1.9725 -0.4588
  160SAPE  C21217895   5.520   0.542   7.636 -0.3024 -0.2175  0.5748
  160SAPE  H12R17896   5.435   0.486   7.679 -0.7817 -0.7073 -0.9222
  160SAPE  C21317897   5.570   0.654   7.719  0.0809 -0.7194 -1.0307
  160SAPE  H13R17898   5.490   0.715   7.765 -0.9696 -1.8374 -1.3381
  160SAPE  H13S17899   5.616   0.734   7.657 -2.1029  1.8004  0.4371
  160SAPE  C21417900   5.658   0.597   7.828 -0.1084  0.5605 -0.0445
  160SAPE  H14R17901   5.752   0.554   7.790 -0.7992 -1.9363  0.8114
  160SAPE  C21517902   5.638   0.562   7.955  0.4756 -0.7613  0.1272
  160SAPE  H15R17903   5.717   0.518   8.016 -0.4132  1.4278  3.0856
  160SAPE  C21617904   5.511   0.596   8.032  0.7239  0.3507 -0.3558
  160SAPE  H16R17905   5.421   0.543   7.992 -2.0768  2.5709  2.4407
  160SAPE  H16S17906   5.490   0.704   8.019 -0.5221  0.0720 -0.7820
  160SAPE  C21717907   5.530   0.558   8.179  0.0151 -0.0784  0.7902
  160SAPE  H17R17908   5.604   0.627   8.223 -0.4890  0.0002  1.5402
  160SAPE  H17S17909   5.554   0.450   8.190 -2.0423 -0.7424 -0.6308
  160SAPE  C21817910   5.401   0.586   8.265 -0.6477 -0.1480 -0.0584
  160SAPE  H18R17911   5.317   0.520   8.235 -1.3844 -0.1735  1.9425
  160SAPE  H18S17912   5.378   0.694   8.252  1.4482  0.3252 -0.1432
  160SAPE  C21917913   5.429   0.565   8.418  0.0441  0.3266  0.1407
  160SAPE  H19R17914   5.503   0.640   8.452  2.1044 -2.1292  1.4182
  160SAPE  H19S17915   5.472   0.465   8.443 -0.2378  0.0971 -0.2855
  160SAPE  C22017916   5.296   0.581   8.501 -0.1482  0.2054  0.3775
  160SAPE  H20R17917   5.242   0.667   8.457 -2.5743 -1.5526 -0.3453
  160SAPE  H20S17918   5.320   0.597   8.608  1.6366  3.2603 -0.3777
  160SAPE  H20T17919   5.241   0.484   8.495  0.4965 -0.1462  0.0596
  160SAPE   C3317920   6.728   0.447   7.172 -0.0058  0.0613  0.4331
  160SAPE   H3X17921   6.758   0.553   7.185 -1.7477  0.3238  2.8256
  160SAPE   H3Y17922   6.803   0.394   7.108  0.5650  1.6785 -0.2948
  160SAPE   C3417923   6.728   0.374   7.299 -0.2492 -0.0914 -0.4456
  160SAPE   H4X17924   6.832   0.359   7.336 -0.5792 -1.5969 -0.0656
  160SAPE   H4Y17925   6.687   0.273   7.276 -0.0160 -0.0047 -1.3027
  160SAPE   C3517926   6.650   0.443   7.411 -0.8355 -0.3706  0.0226
  160SAPE   H5X17927   6.556   0.492   7.380  0.8602  0.4220 -4.7939
  160SAPE   H5Y17928   6.719   0.524   7.443 -0.8455 -0.6839  0.8591
  160SAPE   C3617929   6.626   0.357   7.538  0.0229 -0.0105 -0.0074
  160SAPE   H6X17930   6.707   0.282   7.550 -0.4886 -0.3849  1.2725
  160SAPE   H6Y17931   6.531   0.303   7.521  0.5841 -0.8060 -0.7243
  160SAPE   C3717932   6.628   0.437   7.666 -0.3668 -0.8505 -0.0286
  160SAPE   H7X17933   6.570   0.529   7.641  1.1532 -0.1347 -1.0296
  160SAPE   H7Y17934   6.730   0.477   7.678 -0.1441 -1.4823  0.2377
  160SAPE   C3817935   6.585   0.350   7.788 -0.9642 -0.7164  0.3046
  160SAPE   H8X17936   6.653   0.262   7.793  0.7011  0.5423  1.0252
  160SAPE   H8Y17937   6.483   0.308   7.784 -0.6469 -1.5465  0.6656
  160SAPE   C3917938   6.600   0.431   7.921  0.2519  0.3251 -0.4748
  160SAPE   H9X17939   6.530   0.516   7.935 -2.8364 -1.8428 -1.5709
  160SAPE   H9Y17940   6.697   0.485   7.913  0.8125 -0.1256  2.2174
  160SAPE  C31017941   6.607   0.342   8.041 -0.1758 -0.3317  0.0860
  160SAPE  H10X17942   6.691   0.274   8.015 -1.2984 -2.2682  1.3368
  160SAPE  H10Y17943   6.516   0.282   8.060  0.7549 -1.8720 -0.1617
  160SAPE  C31117944   6.641   0.428   8.164 -0.3835  0.1375  0.3674
  160SAPE  H11X17945   6.556   0.499   8.168 -0.5389  0.0243 -0.5254
  160SAPE  H11Y17946   6.728   0.495   8.153  1.3487 -1.6652  2.1801
  160SAPE  C31217947   6.659   0.353   8.294 -0.2797 -0.7104  0.0238
  160SAPE  H12X17948   6.662   0.432   8.372  0.1043  1.3618 -1.9882
  160SAPE  H12Y17949   6.752   0.292   8.292 -0.0390 -0.5591  2.4982
  160SAPE  C31317950   6.543   0.257   8.329 -0.0132  0.6624 -0.2526
  160SAPE  H13X17951   6.563   0.173   8.259  0.9000 -0.3536  1.1813
  160SAPE  H13Y17952   6.443   0.303   8.315 -1.3747 -1.7432  1.0254
  160SAPE  C31417953   6.540   0.195   8.471  0.3641 -0.1331  0.1884
  160SAPE  H14X17954   6.447   0.139   8.494  0.7485 -0.4955  0.8967
  160SAPE  H14Y17955   6.547   0.279   8.544  0.8955 -0.3137  0.3509
  160SAPE  C31517956   6.668   0.103   8.482  0.1435  0.9767  1.0371
  160SAPE  H15X17957   6.760   0.164   8.497  1.4180 -0.6164 -0.0787
  160SAPE  H15Y17958   6.680   0.044   8.389 -1.1365  2.0554  0.1377
  160SAPE  C31617959   6.655   0.002   8.600 -0.3644  0.0147  0.0948
  160SAPE  H16X17960   6.560  -0.052   8.581 -1.3639  1.7674 -0.1506
  160SAPE  H16Y17961   6.647   0.047   8.701 -1.2911  1.1506 -0.4629
  160SAPE  C31717962   6.770  -0.103   8.599 -0.5522 -0.0833 -0.0100
  160SAPE  H17X17963   6.856  -0.034   8.585 -0.6569  0.3464  1.2905
  160SAPE  H17Y17964   6.759  -0.173   8.513  0.4182 -0.1474 -0.0985
  160SAPE  C31817965   6.796  -0.171   8.737 -0.6700  0.1043 -0.1602
  160SAPE  H18X17966   6.704  -0.233   8.753 -1.8045  1.9623  0.7891
  160SAPE  H18Y17967   6.807  -0.095   8.817 -0.2330  0.6334 -0.7178
  160SAPE  H18Z17968   6.884  -0.239   8.734 -0.7368  0.0224 -0.3000
  161SOPE     N17969   5.543   2.722  10.737 -0.4699 -0.0816  0.0071
  161SOPE   HN117970   5.536   2.655  10.816  2.9496  0.1421  0.6561
  161SOPE   HN217971   5.460   2.785  10.739 -1.2874 -1.1201 -0.4213
  161SOPE   HN317972   5.571   2.677  10.647  2.1363 -2.1782  1.7215
  161SOPE   C1217973   5.655   2.823  10.776  0.5112  0.2600 -0.3340
  161SOPE  H12A17974   5.616   2.871  10.868  0.4994  0.9515 -0.6941
  161SOPE  H12B17975   5.645   2.894  10.692  1.7717 -0.0697 -0.7873
  161SOPE   C1117976   5.789   2.749  10.791 -0.0897 -0.3064 -0.2618
  161SOPE  H11A17977   5.769   2.656  10.847  0.8509 -0.6266 -0.4415
  161SOPE  H11B17978   5.854   2.820  10.845  0.4696 -1.4979  0.6711
  161SOPE     P17979   5.970   2.784  10.605 -0.5203  0.2907 -0.2563
  161SOPE   O1317980   6.095   2.716  10.659  0.6907  0.0095 -0.1686
  161SOPE   O1417981   5.954   2.932  10.626 -0.1303  0.3735 -0.1459
  161SOPE   O1217982   5.844   2.711  10.666 -0.5576 -0.1114 -0.0330
  161SOPE   O1117983   5.955   2.749  10.454  0.1561  0.0822  0.8356
  161SOPE    C117984   5.862   2.815  10.368 -0.2336  0.0581  0.0457
  161SOPE    HA17985   5.819   2.907  10.413  1.2496  1.4847 -1.2963
  161SOPE    HB17986   5.778   2.745  10.351  0.9587 -1.8604  1.7075
  161SOPE    C217987   5.919   2.862  10.236 -0.8075 -0.8140  0.0822
  161SOPE    HS17988   5.832   2.904  10.181 -1.7479 -1.1401  1.2522
  161SOPE   O2117989   5.966   2.744  10.163  0.3795  0.4422  0.4782
  161SOPE   C2117990   5.881   2.669  10.102 -0.4278 -0.0251  0.6013
  161SOPE   O2217991   5.759   2.690  10.104 -0.3091  0.2022  1.0481
  161SOPE   C2217992   5.947   2.553  10.029  0.2604  0.2402 -0.0787
  161SOPE   H2R17993   6.035   2.526  10.091 -0.9140  2.0071  2.5372
  161SOPE   H2S17994   5.976   2.597   9.932 -3.7860 -1.8465 -2.5334
  161SOPE    C317995   6.039   2.959  10.250  0.5856 -0.2329  0.2257
  161SOPE    HX17996   6.131   2.924  10.302  0.2326  1.4220  2.0683
  161SOPE    HY17997   5.994   3.044  10.307 -0.3560  1.2533 -2.5725
  161SOPE   O3117998   6.077   3.017  10.122 -0.2346  0.0830  0.4074
  161SOPE   C3117999   6.168   2.943  10.050 -0.6151 -0.5447  0.2406
  161SOPE   O3218000   6.231   2.848  10.089  0.1168 -0.0610 -0.2682
  161SOPE   C3218001   6.201   3.025   9.924 -0.0235 -0.0490  0.2112
  161SOPE   H2X18002   6.256   3.117   9.955  0.3629  0.2078 -1.2021
  161SOPE   H2Y18003   6.102   3.056   9.883  1.5617  1.9128 -2.4081
  161SOPE   C2318004   5.854   2.423  10.018 -0.2847 -0.3860  0.0315
  161SOPE   H3R18005   5.748   2.444   9.991 -0.8214 -1.9568  0.7815
  161SOPE   H3S18006   5.859   2.381  10.120  0.4892  2.7316  1.3841
  161SOPE   C2418007   5.910   2.311   9.929  0.0071  0.4699 -0.1392
  161SOPE   H4R18008   6.006   2.274   9.971 -0.2823 -0.4271 -0.2662
  161SOPE   H4S18009   5.835   2.230   9.943  1.2180 -1.0103 -1.8583
  161SOPE   C2518010   5.932   2.355   9.786 -0.4349  0.2783  0.1288
  161SOPE   H5R18011   5.840   2.397   9.739 -0.5303 -1.5309 -1.4024
  161SOPE   H5S18012   6.015   2.430   9.785 -0.3645  0.2062  0.5143
  161SOPE   C2618013   5.970   2.229   9.701  0.0736 -0.0226  0.3432
  161SOPE   H6R18014   6.042   2.166   9.757 -0.8479 -2.9834 -1.5517
  161SOPE   H6S18015   5.882   2.166   9.674  0.6124 -0.2997 -0.8136
  161SOPE   C2718016   6.036   2.270   9.576 -0.5334 -0.3345 -0.4608
  161SOPE   H7R18017   5.959   2.313   9.508 -1.4077 -2.3935 -0.8634
  161SOPE   H7S18018   6.111   2.344   9.608  0.8643 -2.2686  0.9750
  161SOPE   C2818019   6.103   2.146   9.500 -0.0921 -0.9269  0.0288
  161SOPE   H8R18020   6.172   2.103   9.575  3.5296  4.6078  0.4192
  161SOPE   H8S18021   6.015   2.081   9.476 -0.1879 -0.4207 -1.0528
  161SOPE   C2918022   6.180   2.181   9.374  0.0109 -0.6094  0.1773
  161SOPE   H9118023   6.278   2.227   9.397 -0.1890 -0.6242  1.0982
  161SOPE  C21018024   6.146   2.179   9.242  0.3031  0.7929  0.2874
  161SOPE  H10118025   6.212   2.201   9.156 -0.2354 -0.8402 -0.5932
  161SOPE  C21118026   6.014   2.125   9.191 -0.0584  0.0630  0.1864
  161SOPE  H11R18027   5.956   2.205   9.140 -0.3611 -0.9703 -1.1745
  161SOPE  H11S18028   5.945   2.092   9.272 -2.4273  0.3784 -1.5753
  161SOPE  C21218029   6.027   2.009   9.091  1.4727  0.1049 -0.3833
  161SOPE  H12R18030   6.061   1.917   9.142 -0.6058 -0.6009 -0.1931
  161SOPE  H12S18031   6.099   2.026   9.009  2.8305 -0.3698  0.6765
  161SOPE  C21318032   5.896   1.972   9.029  0.2457 -0.5238  0.3024
  161SOPE  H13R18033   5.809   1.956   9.097 -0.6171  0.3343 -0.5628
  161SOPE  H13S18034   5.904   1.867   8.992 -0.4453 -0.3057 -0.4933
  161SOPE  C21418035   5.855   2.066   8.912 -0.2230  0.1691 -0.0939
  161SOPE  H14R18036   5.929   2.062   8.829 -0.6178 -0.7378 -0.4215
  161SOPE  H14S18037   5.860   2.171   8.947  0.1496  0.3533 -0.6842
  161SOPE  C21518038   5.711   2.033   8.863 -0.0639 -0.0138  0.4507
  161SOPE  H15R18039   5.640   2.016   8.946  0.5984 -1.7074  0.7175
  161SOPE  H15S18040   5.711   1.937   8.806  0.0794 -0.3158  0.9587
  161SOPE  C21618041   5.671   2.141   8.772 -0.1516 -0.3649  0.1549
  161SOPE  H16R18042   5.741   2.152   8.686 -0.9398  1.3301 -0.3326
  161SOPE  H16S18043   5.668   2.235   8.832 -2.4735 -0.7337  0.6984
  161SOPE  C21718044   5.526   2.147   8.718  0.7627 -0.2856 -0.0017
  161SOPE  H17R18045   5.513   2.245   8.668 -1.1732 -1.0940 -1.2495
  161SOPE  H17S18046   5.452   2.146   8.801 -0.0257 -0.8980 -0.6843
  161SOPE  C21818047   5.497   2.044   8.609  0.1536  0.1775 -0.3711
  161SOPE  H18R18048   5.589   2.010   8.557  0.7247 -0.1482  0.8166
  161SOPE  H18S18049   5.425   2.076   8.531  0.0849 -1.8568 -1.2006
  161SOPE  H18T18050   5.454   1.955   8.660  1.7489 -1.1048 -1.1764
  161SOPE   C3318051   6.285   2.940   9.829 -0.0771 -0.1217  0.3316
  161SOPE   H3X18052   6.226   2.849   9.806 -0.3756  0.3061 -0.6916
  161SOPE   H3Y18053   6.368   2.889   9.881  0.5562  0.2370 -0.2937
  161SOPE   C3418054   6.355   3.009   9.705 -0.8344 -0.0207  0.4202
  161SOPE   H4X18055   6.414   3.086   9.759  1.1300 -2.0327  1.3007
  161SOPE   H4Y18056   6.290   3.054   9.626 -0.1031 -1.7131 -1.1983
  161SOPE   C3518057   6.459   2.918   9.635  0.8851  0.1944  0.4954
  161SOPE   H5X18058   6.528   2.890   9.717  1.1678  2.3321  1.0348
  161SOPE   H5Y18059   6.520   2.972   9.559  1.1048  0.6139  0.9589
  161SOPE   C3618060   6.400   2.792   9.583 -0.1444 -0.3580  0.3870
  161SOPE   H6X18061   6.341   2.738   9.660 -0.3049 -0.0061  0.5114
  161SOPE   H6Y18062   6.481   2.733   9.535  1.2321  1.0080  0.9750
  161SOPE   C3718063   6.306   2.822   9.470 -0.7407 -0.3003  0.8358
  161SOPE   H7X18064   6.366   2.882   9.398  1.1508  0.4764  2.9552
  161SOPE   H7Y18065   6.215   2.875   9.504 -0.8492 -1.5858  2.7032
  161SOPE   C3818066   6.258   2.687   9.424  0.5659  0.4116 -0.2132
  161SOPE   H8X18067   6.231   2.613   9.502 -0.8042 -0.0647 -1.1076
  161SOPE   H8Y18068   6.347   2.636   9.381 -0.8264 -0.8193 -1.7995
  161SOPE   C3918069   6.150   2.700   9.322  0.2210 -0.6539  1.0015
  161SOPE   H9X18070   6.166   2.789   9.259  0.8294 -0.8910  0.8147
  161SOPE   H9Y18071   6.050   2.724   9.364  0.8822  2.0262  1.2233
  161SOPE  C31018072   6.146   2.581   9.230  0.5063 -0.2688 -0.4226
  161SOPE  H10X18073   6.121   2.493   9.292 -1.9504  0.7903  0.2422
  161SOPE  H10Y18074   6.242   2.559   9.178 -0.6061  0.1383 -2.8242
  161SOPE  C31118075   6.044   2.589   9.112 -0.3002 -0.5633  0.1514
  161SOPE  H11X18076   6.081   2.668   9.043 -0.4985  2.1655  2.9327
  161SOPE  H11Y18077   5.945   2.619   9.152 -1.4446 -2.8726 -0.7972
  161SOPE  C31218078   6.013   2.459   9.036  0.6511 -0.0634 -0.0111
  161SOPE  H12X18079   5.955   2.401   9.110  1.2311  2.3033  2.4675
  161SOPE  H12Y18080   6.107   2.405   9.011  1.5483  0.2447  2.4219
  161SOPE  C31318081   5.924   2.480   8.917  0.0708 -0.0677 -0.3738
  161SOPE  H13X18082   5.844   2.556   8.929 -0.3832 -0.2713 -1.9135
  161SOPE  H13Y18083   5.881   2.380   8.897 -0.1031  0.3595 -2.3442
  161SOPE  C31418084   5.995   2.514   8.782  0.3642 -0.2314  0.6601
  161SOPE  H14X18085   6.042   2.422   8.742  2.0297  1.0849 -0.6002
  161SOPE  H14Y18086   6.069   2.594   8.807 -1.4310  1.3993  1.0017
  161SOPE  C31518087   5.888   2.567   8.678 -0.4689  0.0624 -0.2689
  161SOPE  H15X18088   5.831   2.648   8.726 -0.5693  0.3461 -0.8559
  161SOPE  H15Y18089   5.812   2.487   8.663  0.0847 -0.4756 -0.2336
  161SOPE  C31618090   5.948   2.608   8.545 -0.9403 -0.0621  0.1564
  161SOPE  H16X18091   5.998   2.522   8.494  2.5030  2.2661 -0.7326
  161SOPE  H16Y18092   6.031   2.676   8.573 -1.5008  1.6144 -2.0022
  161SOPE  C31718093   5.849   2.684   8.456  0.4412 -0.3667 -0.1085
  161SOPE  H17X18094   5.762   2.616   8.447  1.4451 -1.7134  0.0247
  161SOPE  H17Y18095   5.885   2.716   8.356 -0.8072  1.7368  0.0692
  161SOPE  C31818096   5.787   2.808   8.529 -0.2868  0.7574  0.1291
  161SOPE  H18X18097   5.722   2.861   8.455 -0.7676  0.4899  0.3613
  161SOPE  H18Y18098   5.865   2.874   8.572 -1.0354  1.7347  0.0381
  161SOPE  H18Z18099   5.714   2.791   8.611 -2.3955  3.5591 -0.9762
  162SOPE     N18100   0.884   1.330  11.068 -0.0494  0.6658 -0.1654
  162SOPE   HN118101   0.910   1.359  10.971  1.5271  0.5706  0.2023
  162SOPE   HN218102   0.937   1.380  11.142  1.7798 -1.3496 -0.0148
  162SOPE   HN318103   0.912   1.230  11.058 -1.8071 -0.0621  1.6750
  162SOPE   C1218104   0.732   1.317  11.101  0.4060 -0.4467  0.4229
  162SOPE  H12A18105   0.705   1.414  11.148  1.9138  1.2223 -1.9212
  162SOPE  H12B18106   0.719   1.232  11.171 -1.2681 -0.4326  0.1736
  162SOPE   C1118107   0.660   1.298  10.967  0.8620 -0.8096 -0.1595
  162SOPE  H11A18108   0.705   1.209  10.918 -0.9818 -1.1196 -1.3875
  162SOPE  H11B18109   0.664   1.380  10.892  0.7914 -2.7615 -2.4078
  162SOPE     P18110   0.408   1.352  10.976  0.4748  0.0929  0.2679
  162SOPE   O1318111   0.409   1.476  11.048  0.2540  0.3661  0.2568
  162SOPE   O1418112   0.291   1.272  11.008  0.2670 -0.6293 -0.1921
  162SOPE   O1218113   0.525   1.260  11.004  0.7184  0.0835  0.1267
  162SOPE   O1118114   0.396   1.372  10.816 -0.5645 -0.0488  0.0311
  162SOPE    C118115   0.386   1.251  10.735  1.3823  0.5092 -0.0104
  162SOPE    HA18116   0.423   1.155  10.777 -3.1108 -1.4626 -0.0347
  162SOPE    HB18117   0.452   1.284  10.652  2.1509 -0.4564  0.2023
  162SOPE    C218118   0.243   1.224  10.678  0.3400 -0.1278 -0.2241
  162SOPE    HS18119   0.222   1.118  10.705 -0.6258 -0.3000 -1.5677
  162SOPE   O2118120   0.244   1.242  10.539 -0.3302 -0.2518 -0.4066
  162SOPE   C2118121   0.299   1.144  10.470  0.2648 -0.2999  0.1184
  162SOPE   O2218122   0.336   1.036  10.512  0.3722  0.0071  0.0524
  162SOPE   C2218123   0.298   1.194  10.323  0.4548 -0.2063 -0.3173
  162SOPE   H2R18124   0.344   1.295  10.318 -0.5348  0.2904  0.1284
  162SOPE   H2S18125   0.191   1.194  10.292  0.4318  0.1647 -0.2523
  162SOPE    C318126   0.125   1.311  10.732 -0.0390 -0.1608 -0.0535
  162SOPE    HX18127   0.157   1.416  10.716 -2.7059  0.4233 -2.2744
  162SOPE    HY18128   0.109   1.281  10.838  2.3713 -2.1998 -0.1900
  162SOPE   O3118129  -0.004   1.281  10.669 -0.0709 -0.1867  0.1709
  162SOPE   C3118130  -0.036   1.380  10.577 -0.1985  0.1800  0.0670
  162SOPE   O3218131   0.028   1.479  10.546 -0.5035  0.9619 -0.1451
  162SOPE   C3218132  -0.182   1.360  10.523 -0.1131  0.2874 -0.6546
  162SOPE   H2X18133  -0.253   1.421  10.582  1.4025  0.4104  1.1213
  162SOPE   H2Y18134  -0.212   1.258  10.555  0.6832  0.1336 -0.3769
  162SOPE   C2318135   0.369   1.083  10.233  0.5739 -0.4367 -0.0559
  162SOPE   H3R18136   0.307   0.991  10.232  0.4458 -0.3617 -1.5029
  162SOPE   H3S18137   0.467   1.054  10.278  0.6366  1.1283  0.8884
  162SOPE   C2418138   0.392   1.126  10.084 -0.7193 -0.1754 -0.3518
  162SOPE   H4R18139   0.469   1.206  10.088 -0.1640 -0.7412  1.5518
  162SOPE   H4S18140   0.430   1.033  10.036  1.9379 -1.1504  3.1573
  162SOPE   C2518141   0.274   1.165  10.008  0.1699  0.0903 -0.1954
  162SOPE   H5R18142   0.187   1.109  10.051  1.8821 -2.0554  0.6501
  162SOPE   H5S18143   0.255   1.274  10.023  1.5932  0.7229 -2.5731
  162SOPE   C2618144   0.270   1.150   9.852 -0.0833  0.0861 -0.1460
  162SOPE   H6R18145   0.167   1.170   9.817 -0.5157  0.0182  1.0473
  162SOPE   H6S18146   0.328   1.236   9.811 -1.0448  1.0114  0.4094
  162SOPE   C2718147   0.319   1.021   9.798 -0.0052  0.6175  0.4142
  162SOPE   H7R18148   0.430   1.016   9.800 -0.0578 -0.7949  0.7418
  162SOPE   H7S18149   0.271   0.937   9.853 -0.6275  2.4502  2.8299
  162SOPE   C2818150   0.276   0.996   9.652 -0.2199 -0.3411 -0.3812
  162SOPE   H8R18151   0.308   0.891   9.632 -0.5434 -0.5630  0.2112
  162SOPE   H8S18152   0.165   0.995   9.650 -0.3138  2.5447 -2.7084
  162SOPE   C2918153   0.339   1.095   9.560 -0.1294  0.5045 -0.4214
  162SOPE   H9118154   0.342   1.199   9.596 -0.8515  0.3251  0.1631
  162SOPE  C21018155   0.362   1.073   9.433 -0.1514 -0.0395  1.0951
  162SOPE  H10118156   0.422   1.149   9.380  1.3438  0.2961  3.1537
  162SOPE  C21118157   0.350   0.945   9.356 -0.0261 -0.1804 -0.3212
  162SOPE  H11R18158   0.299   0.863   9.411  1.2422 -0.4954  0.4300
  162SOPE  H11S18159   0.444   0.903   9.316 -1.1884 -0.8128 -2.6070
  162SOPE  C21218160   0.264   0.979   9.223  0.4743  0.1058 -0.0165
  162SOPE  H12R18161   0.314   1.055   9.159  0.9110 -1.6411 -1.8670
  162SOPE  H12S18162   0.163   1.015   9.254  0.0542 -0.3978 -0.7646
  162SOPE  C21318163   0.246   0.855   9.127  0.4002 -0.1250  0.3427
  162SOPE  H13R18164   0.215   0.769   9.190  0.0624  1.1114  1.9327
  162SOPE  H13S18165   0.342   0.826   9.079 -0.2843 -0.1382 -1.0875
  162SOPE  C21418166   0.129   0.878   9.020 -0.1674  0.2213  0.4915
  162SOPE  H14R18167   0.156   0.975   8.973  1.7529 -0.6805 -0.4036
  162SOPE  H14S18168   0.032   0.887   9.073  0.8100  2.6504  2.0248
  162SOPE  C21518169   0.128   0.782   8.905  0.5317 -0.1334 -0.2304
  162SOPE  H15R18170   0.099   0.678   8.931 -0.0192  0.2032  0.5429
  162SOPE  H15S18171   0.237   0.775   8.886  0.3673 -1.5341 -0.7546
  162SOPE  C21618172   0.066   0.836   8.777 -0.6072  0.2782 -0.0150
  162SOPE  H16R18173   0.067   0.759   8.696  1.8119  0.5178 -0.2794
  162SOPE  H16S18174   0.116   0.920   8.724  0.6981 -0.2559  0.3518
  162SOPE  C21718175  -0.083   0.871   8.800 -0.4663  0.1001 -0.1701
  162SOPE  H17R18176  -0.090   0.950   8.877 -0.1014  2.4548 -2.4070
  162SOPE  H17S18177  -0.130   0.777   8.836  0.4457 -1.3607 -2.5505
  162SOPE  C21818178  -0.145   0.924   8.671  0.7364 -0.5182 -0.2565
  162SOPE  H18R18179  -0.140   0.840   8.599  1.8790  0.6629 -1.6072
  162SOPE  H18S18180  -0.083   1.006   8.629  1.5265 -0.7583  0.4166
  162SOPE  H18T18181  -0.252   0.949   8.685  0.8553 -0.1940  0.1172
  162SOPE   C3318182  -0.200   1.371  10.372  0.2720 -0.1115 -0.0400
  162SOPE   H3X18183  -0.112   1.330  10.319  0.1714 -1.2354  0.6184
  162SOPE   H3Y18184  -0.212   1.479  10.347 -0.2837 -0.2655 -0.4728
  162SOPE   C3418185  -0.326   1.296  10.314  0.0613 -0.7002  0.3206
  162SOPE   H4X18186  -0.418   1.339  10.359 -0.3078 -0.9638 -0.1675
  162SOPE   H4Y18187  -0.326   1.194  10.358 -1.6996 -0.5705  0.6705
  162SOPE   C3518188  -0.329   1.289  10.159  0.4575  0.8138 -0.0337
  162SOPE   H5X18189  -0.336   1.389  10.112  0.2360  0.3192 -1.0876
  162SOPE   H5Y18190  -0.406   1.216  10.127  1.1776 -0.1148  0.3093
  162SOPE   C3618191  -0.204   1.213  10.109 -0.2674 -0.2870 -0.0598
  162SOPE   H6X18192  -0.175   1.126  10.170  1.5497 -1.2791 -2.1784
  162SOPE   H6Y18193  -0.114   1.278  10.115 -0.8927  0.5088  0.9976
  162SOPE   C3718194  -0.212   1.154   9.965 -0.0597  0.4350 -0.6654
  162SOPE   H7X18195  -0.230   1.230   9.886  0.1387 -0.1310 -1.2669
  162SOPE   H7Y18196  -0.296   1.082   9.969  1.1077 -0.9316  0.8492
  162SOPE   C3818197  -0.094   1.077   9.916  0.1505  0.9346  0.3896
  162SOPE   H8X18198  -0.073   0.982   9.969  3.4187  0.2558 -1.8324
  162SOPE   H8Y18199  -0.007   1.138   9.949  0.6622  0.9424 -0.9226
  162SOPE   C3918200  -0.108   1.041   9.768  0.0649  0.1531 -0.4349
  162SOPE   H9X18201  -0.190   0.965   9.759  1.2388 -1.0887 -1.0243
  162SOPE   H9Y18202  -0.020   0.974   9.759  0.4967  0.4472  1.1738
  162SOPE  C31018203  -0.114   1.152   9.665 -0.5547  0.7421 -0.1791
  162SOPE  H10X18204  -0.030   1.217   9.698 -0.5366 -0.8623  3.3905
  162SOPE  H10Y18205  -0.213   1.199   9.679 -0.1185  1.7957 -0.5562
  162SOPE  C31118206  -0.097   1.125   9.517 -0.1854  0.6115  0.1249
  162SOPE  H11X18207   0.010   1.099   9.503  0.6215  3.7809 -0.3356
  162SOPE  H11Y18208  -0.101   1.225   9.469  0.7136  1.4044  1.6338
  162SOPE  C31218209  -0.194   1.021   9.462  0.9769 -0.4258  0.7484
  162SOPE  H12X18210  -0.296   1.043   9.499  0.1462 -0.8561 -1.1392
  162SOPE  H12Y18211  -0.163   0.925   9.509 -1.0706 -1.4282  0.2011
  162SOPE  C31318212  -0.201   1.002   9.311 -0.1818  0.4138 -0.4601
  162SOPE  H13X18213  -0.259   0.912   9.281 -0.8302  1.2745 -1.8932
  162SOPE  H13Y18214  -0.096   0.979   9.281 -0.1724  0.8038 -0.7351
  162SOPE  C31418215  -0.247   1.123   9.237  0.5541 -0.0816 -1.2222
  162SOPE  H14X18216  -0.183   1.210   9.261 -2.1088  1.2942  1.4824
  162SOPE  H14Y18217  -0.347   1.150   9.276  1.1601  0.7756 -0.2350
  162SOPE  C31518218  -0.254   1.103   9.089 -0.0923 -0.1865  0.0538
  162SOPE  H15X18219  -0.258   0.998   9.053  0.6212  0.1632 -1.0791
  162SOPE  H15Y18220  -0.156   1.128   9.042 -0.0376  0.0600  0.2961
  162SOPE  C31618221  -0.357   1.197   9.017 -0.0193  0.8958 -0.7110
  162SOPE  H16X18222  -0.309   1.295   9.039 -2.1263  1.7334  0.5380
  162SOPE  H16Y18223  -0.453   1.188   9.073  1.1566 -1.8643  1.0279
  162SOPE  C31718224  -0.390   1.166   8.867  0.4722  0.3430  0.2093
  162SOPE  H17X18225  -0.425   1.060   8.864 -1.4339  0.9390 -0.4555
  162SOPE  H17Y18226  -0.297   1.182   8.810 -0.0894  0.6741 -0.6399
  162SOPE  C31818227  -0.502   1.255   8.808 -0.4651 -0.5819  0.5153
  162SOPE  H18X18228  -0.586   1.256   8.881  0.3661 -3.7484  1.6981
  162SOPE  H18Y18229  -0.539   1.211   8.713 -0.1802  0.3499 -0.0408
  162SOPE  H18Z18230  -0.471   1.359   8.783 -0.3726 -0.3852  1.3965
  163SOPE     N18231   3.842   5.678  10.322 -0.0484 -0.3089 -0.2180
  163SOPE   HN118232   3.922   5.714  10.267 -1.1851  2.6847 -0.1072
  163SOPE   HN218233   3.775   5.637  10.255 -0.6839  1.9541 -1.0666
  163SOPE   HN318234   3.801   5.766  10.361 -1.3247 -0.8232 -0.3366
  163SOPE   C1218235   3.908   5.585  10.416 -0.0455  0.2556  0.1825
  163SOPE  H12A18236   3.908   5.488  10.362 -1.0054  0.4501 -0.1773
  163SOPE  H12B18237   3.847   5.567  10.507 -0.6878  0.9535 -0.1054
  163SOPE   C1118238   4.046   5.643  10.451  0.4167 -0.1164 -0.1498
  163SOPE  H11A18239   4.102   5.659  10.356  1.5408  2.8555  0.9003
  163SOPE  H11B18240   4.096   5.562  10.509  0.1187  1.6239  2.7339
  163SOPE     P18241   4.171   5.849  10.543 -0.3093 -0.0143 -0.3462
  163SOPE   O1318242   4.287   5.759  10.577 -0.3797  0.3498  0.1774
  163SOPE   O1418243   4.147   5.963  10.632  0.2827  0.0720 -0.3052
  163SOPE   O1218244   4.038   5.765  10.525 -0.2072  0.2708 -0.7639
  163SOPE   O1118245   4.195   5.896  10.398  0.4762 -0.3842 -0.2956
  163SOPE    C118246   4.273   6.007  10.368  0.0954  0.2031  0.4633
  163SOPE    HA18247   4.345   6.043  10.445  0.6816  1.0735 -0.4662
  163SOPE    HB18248   4.202   6.086  10.336  1.7993  0.8982 -1.8401
  163SOPE    C218249   4.376   5.974  10.249  0.8331  0.2317 -0.3772
  163SOPE    HS18250   4.439   6.065  10.242  1.1865 -0.0987 -1.8712
  163SOPE   O2118251   4.294   5.940  10.132 -0.2245 -0.0278  0.1630
  163SOPE   C2118252   4.321   6.019  10.019 -0.2045  0.4915  0.1081
  163SOPE   O2218253   4.411   6.101  10.009 -0.0732  0.1561  0.2468
  163SOPE   C2218254   4.232   5.967   9.907 -0.0158 -0.1058  0.1754
  163SOPE   H2R18255   4.134   5.933   9.948 -1.3077  0.0319 -2.5716
  163SOPE   H2S18256   4.278   5.872   9.872  1.4997  0.8803 -0.6307
  163SOPE    C318257   4.483   5.860  10.263 -0.0614 -0.2670  0.3107
  163SOPE    HX18258   4.420   5.770  10.243 -0.1722 -0.5492  1.7813
  163SOPE    HY18259   4.510   5.859  10.371 -1.3147  0.6417  0.6591
  163SOPE   O3118260   4.602   5.890  10.178 -0.3959  0.1031 -0.2137
  163SOPE   C3118261   4.608   5.838  10.059 -0.1330  0.3181  0.0538
  163SOPE   O3218262   4.526   5.765  10.012  0.6294  0.0179 -0.0930
  163SOPE   C3218263   4.740   5.865   9.995 -0.2366  0.3505 -0.1838
  163SOPE   H2X18264   4.810   5.792  10.042 -0.1474 -0.5009 -1.5994
  163SOPE   H2Y18265   4.771   5.969  10.019  2.0722 -0.1695 -0.6820
  163SOPE   C2318266   4.208   6.059   9.779 -0.2885  0.7652 -0.4916
  163SOPE   H3R18267   4.293   6.128   9.759 -0.1426  0.9328  0.6710
  163SOPE   H3S18268   4.119   6.123   9.797 -1.2166 -0.9416  1.3626
  163SOPE   C2418269   4.181   5.972   9.653  0.0238 -0.6963  0.0148
  163SOPE   H4R18270   4.275   5.922   9.622  0.3133 -0.5457  0.6245
  163SOPE   H4S18271   4.101   5.896   9.663  1.1517 -1.7364  1.7158
  163SOPE   C2518272   4.145   6.069   9.532  0.5174  0.5999 -0.3551
  163SOPE   H5R18273   4.049   6.121   9.550  0.5415  0.4450  0.2130
  163SOPE   H5S18274   4.239   6.129   9.524  2.3266 -2.0549 -0.4643
  163SOPE   C2618275   4.112   5.995   9.404  0.1900 -0.0556  0.9621
  163SOPE   H6R18276   4.128   6.067   9.321  2.0608 -0.2569  1.0873
  163SOPE   H6S18277   4.190   5.919   9.379 -1.3895 -1.2336 -0.6854
  163SOPE   C2718278   3.973   5.935   9.384 -0.5290  0.2657  0.4152
  163SOPE   H7R18279   3.952   5.852   9.455  0.7277 -0.0516  0.4492
  163SOPE   H7S18280   3.906   6.018   9.413  0.8815  1.6696 -0.2287
  163SOPE   C2818281   3.936   5.907   9.242 -0.0164  0.5650  0.6248
  163SOPE   H8R18282   3.945   6.000   9.182  2.8539 -0.4162 -0.7015
  163SOPE   H8S18283   4.013   5.840   9.197  1.7998  3.1665 -0.4022
  163SOPE   C2918284   3.798   5.851   9.228  0.1447 -0.5059 -0.3609
  163SOPE   H9118285   3.740   5.831   9.320  1.6461 -0.6606  0.5950
  163SOPE  C21018286   3.738   5.848   9.105  0.8036  0.4112 -1.0120
  163SOPE  H10118287   3.643   5.793   9.097  0.5064  0.6709  0.4136
  163SOPE  C21118288   3.795   5.887   8.974 -1.0775 -0.1802  0.7249
  163SOPE  H11R18289   3.905   5.903   8.981 -1.1221 -0.2517  1.6761
  163SOPE  H11S18290   3.745   5.981   8.941 -0.5310  1.0904  3.3057
  163SOPE  C21218291   3.768   5.769   8.878  0.1528 -0.3264 -0.5143
  163SOPE  H12R18292   3.772   5.803   8.772  2.6382 -0.2502 -0.4543
  163SOPE  H12S18293   3.665   5.734   8.898  0.0824  0.6445  1.0474
  163SOPE  C21318294   3.860   5.648   8.897  0.4677 -1.1105  0.1815
  163SOPE  H13R18295   3.879   5.616   9.001  0.4649 -1.4763  0.0720
  163SOPE  H13S18296   3.963   5.662   8.858  0.4117  0.8221  0.6520
  163SOPE  C21418297   3.806   5.535   8.813  0.6584  0.3152  0.3896
  163SOPE  H14R18298   3.790   5.563   8.706 -0.4273  1.3136  0.7989
  163SOPE  H14S18299   3.709   5.511   8.861  1.0266 -0.3705  0.8002
  163SOPE  C21518300   3.889   5.406   8.813 -0.1704 -0.3872  0.9204
  163SOPE  H15R18301   3.892   5.360   8.914  0.1132 -0.2222  0.9874
  163SOPE  H15S18302   3.991   5.436   8.779 -1.2149  1.2508 -0.9723
  163SOPE  C21618303   3.850   5.297   8.713 -0.0389 -0.2403 -0.0974
  163SOPE  H16R18304   3.839   5.349   8.615  1.4385 -1.9952 -1.2890
  163SOPE  H16S18305   3.758   5.245   8.749  0.2377 -2.7777 -2.6164
  163SOPE  C21718306   3.953   5.188   8.699 -0.0787 -0.0040 -0.8546
  163SOPE  H17R18307   3.968   5.140   8.798 -1.5228  1.0940 -0.0706
  163SOPE  H17S18308   4.050   5.221   8.657  0.8998 -0.1275  1.2006
  163SOPE  C21818309   3.907   5.072   8.610  0.5186 -0.3171 -0.4843
  163SOPE  H18R18310   3.978   4.987   8.622 -0.8652 -1.4612 -0.1047
  163SOPE  H18S18311   3.882   5.104   8.506  1.8402 -1.0771 -1.0712
  163SOPE  H18T18312   3.810   5.042   8.655  1.4515 -0.3139  1.6118
  163SOPE   C3318313   4.748   5.830   9.838  0.6137 -0.5314 -0.2437
  163SOPE   H3X18314   4.709   5.728   9.819 -0.6779 -0.0103 -0.5179
  163SOPE   H3Y18315   4.856   5.813   9.816  0.7251 -1.7030  1.0527
  163SOPE   C3418316   4.677   5.937   9.750 -0.4415  0.0500 -0.2268
  163SOPE   H4X18317   4.730   6.034   9.759 -2.3754  1.0217  1.7617
  163SOPE   H4Y18318   4.569   5.940   9.776 -0.3638  0.6226  0.0455
  163SOPE   C3518319   4.714   5.910   9.605 -0.5218 -0.3137 -0.0544
  163SOPE   H5X18320   4.713   5.801   9.583  0.7992 -0.1741 -0.9579
  163SOPE   H5Y18321   4.819   5.932   9.577 -0.6619  0.7896  0.2398
  163SOPE   C3618322   4.615   5.986   9.518 -0.2331 -0.1237  0.6894
  163SOPE   H6X18323   4.610   6.090   9.556 -1.9441  0.3310 -0.6775
  163SOPE   H6Y18324   4.513   5.949   9.539 -0.5881  1.3440  1.7146
  163SOPE   C3718325   4.649   5.985   9.365 -0.2970  0.1611  0.3580
  163SOPE   H7X18326   4.683   5.889   9.319  0.9457  0.4356  0.6790
  163SOPE   H7Y18327   4.727   6.063   9.354  1.9065 -2.1637 -2.0959
  163SOPE   C3818328   4.532   6.032   9.281 -0.4477  0.5195  0.3404
  163SOPE   H8X18329   4.480   6.115   9.332 -0.6803  1.2046 -0.9775
  163SOPE   H8Y18330   4.454   5.953   9.273 -1.0310  1.2552 -1.9322
  163SOPE   C3918331   4.565   6.079   9.140  0.1387 -0.5295 -0.1805
  163SOPE   H9X18332   4.591   5.987   9.084 -0.2590 -1.0161  0.4291
  163SOPE   H9Y18333   4.652   6.148   9.146 -1.3308  1.5216 -1.0081
  163SOPE  C31018334   4.454   6.158   9.066  0.0166 -0.4700  0.5322
  163SOPE  H10X18335   4.420   6.235   9.138 -0.5818 -1.7046  1.6382
  163SOPE  H10Y18336   4.368   6.088   9.051  1.0371 -1.8871  1.0950
  163SOPE  C31118337   4.496   6.223   8.931  0.3185  0.0695 -0.2890
  163SOPE  H11X18338   4.549   6.144   8.873  0.2265 -0.5907  0.5196
  163SOPE  H11Y18339   4.574   6.298   8.959  2.5396 -1.6139 -1.5994
  163SOPE  C31218340   4.379   6.292   8.856  0.0951 -0.1633 -0.2088
  163SOPE  H12X18341   4.336   6.365   8.928  0.2846  0.4153 -0.6716
  163SOPE  H12Y18342   4.296   6.220   8.842  0.8735 -1.0678 -0.2326
  163SOPE  C31318343   4.412   6.360   8.718  0.1352 -0.2102 -0.2664
  163SOPE  H13X18344   4.469   6.288   8.655 -0.3892 -0.0407 -0.9571
  163SOPE  H13Y18345   4.481   6.446   8.727 -0.3244  0.0133  1.4302
  163SOPE  C31418346   4.292   6.420   8.645  0.1676  0.7079 -0.5859
  163SOPE  H14X18347   4.236   6.476   8.722 -1.7362 -1.3311 -0.3778
  163SOPE  H14Y18348   4.222   6.343   8.606  1.1986 -0.1800 -0.7517
  163SOPE  C31518349   4.320   6.517   8.532 -0.0631  0.3523  0.0928
  163SOPE  H15X18350   4.408   6.581   8.555  0.9548 -0.0387 -2.3221
  163SOPE  H15Y18351   4.239   6.589   8.508 -0.1273  0.6284  1.1137
  163SOPE  C31618352   4.359   6.447   8.402  0.0433 -0.0891  0.2307
  163SOPE  H16X18353   4.275   6.377   8.388  0.8102 -1.4233  1.9292
  163SOPE  H16Y18354   4.452   6.387   8.409  1.0877  1.0526 -2.4578
  163SOPE  C31718355   4.380   6.542   8.282  0.2886  0.4994 -0.1989
  163SOPE  H17X18356   4.289   6.597   8.250 -0.0742 -1.0705 -2.0690
  163SOPE  H17Y18357   4.400   6.467   8.202  0.4295 -0.4517  0.7000
  163SOPE  C31818358   4.494   6.641   8.278 -0.3042  0.3215 -0.2410
  163SOPE  H18X18359   4.478   6.723   8.351 -0.2010 -0.3867  0.5965
  163SOPE  H18Y18360   4.504   6.677   8.173  1.4367  2.2801  0.5345
  163SOPE  H18Z18361   4.594   6.594   8.295  1.2618  3.2105 -0.7890
  164SOPE     N18362   3.361   4.522  10.694 -0.0544 -0.3207  0.1488
  164SOPE   HN118363   3.424   4.438  10.696  0.5586  0.1267 -0.0206
  164SOPE   HN218364   3.357   4.544  10.592 -0.0370  1.1321  0.4477
  164SOPE   HN318365   3.411   4.601  10.740  0.3471 -0.7422  0.4571
  164SOPE   C1218366   3.223   4.489  10.753  0.7811 -0.2372  1.3273
  164SOPE  H12A18367   3.158   4.578  10.738  0.9313 -0.3426 -0.1022
  164SOPE  H12B18368   3.236   4.488  10.864 -1.3840  1.1502  1.6566
  164SOPE   C1118369   3.152   4.356  10.705 -0.2828  0.0391 -0.3446
  164SOPE  H11A18370   3.135   4.369  10.596 -0.0023  1.4215 -0.2450
  164SOPE  H11B18371   3.058   4.349  10.763 -1.3089 -0.3478 -1.9913
  164SOPE     P18372   3.188   4.096  10.686  0.1076 -0.3248 -0.0950
  164SOPE   O1318373   3.046   4.087  10.723  0.5911  0.0774  0.2334
  164SOPE   O1418374   3.279   3.987  10.737 -0.4300  0.1559  0.2235
  164SOPE   O1218375   3.231   4.241  10.738 -0.0892 -0.2532  0.1491
  164SOPE   O1118376   3.197   4.104  10.530 -0.0609  0.6261  0.4731
  164SOPE    C118377   3.323   4.128  10.468 -0.1186  0.2376  0.0975
  164SOPE    HA18378   3.332   4.037  10.404  0.0844  1.8108 -2.2696
  164SOPE    HB18379   3.409   4.132  10.537  1.2624 -0.2224 -1.5161
  164SOPE    C218380   3.320   4.248  10.371  0.5214  0.3464  0.2298
  164SOPE    HS18381   3.300   4.337  10.434 -2.0126 -1.2016  1.7686
  164SOPE   O2118382   3.218   4.222  10.276 -0.0720 -0.4836  0.6346
  164SOPE   C2118383   3.158   4.319  10.222  0.2866 -0.4383  0.3095
  164SOPE   O2218384   3.185   4.437  10.241 -0.0573 -0.0228 -0.2445
  164SOPE   C2218385   3.050   4.269  10.130  0.1333 -0.2542  0.1015
  164SOPE   H2R18386   2.958   4.259  10.191  0.6963  1.0800  1.2217
  164SOPE   H2S18387   3.068   4.169  10.086  2.1953 -0.0119  0.3115
  164SOPE    C318388   3.449   4.251  10.282  0.5597 -0.4342  0.0674
  164SOPE    HX18389   3.436   4.171  10.206  0.0381  0.8335 -1.2165
  164SOPE    HY18390   3.536   4.221  10.344  1.0268  0.1286 -0.3043
  164SOPE   O3118391   3.457   4.381  10.219 -0.7095 -0.0672  0.5792
  164SOPE   C3118392   3.497   4.485  10.292 -0.0989 -0.3699  0.6596
  164SOPE   O3218393   3.545   4.468  10.401  0.2246  0.6420  0.2218
  164SOPE   C3218394   3.497   4.623  10.208 -0.4938 -0.1722 -0.0093
  164SOPE   H2X18395   3.587   4.684  10.230 -0.1556 -0.4156 -0.6959
  164SOPE   H2Y18396   3.423   4.676  10.272 -0.3224 -0.2884  0.2877
  164SOPE   C2318397   3.024   4.367  10.021 -0.5020 -0.2214 -0.8306
  164SOPE   H3R18398   3.013   4.471  10.058  1.4674 -0.2112 -0.1429
  164SOPE   H3S18399   2.928   4.335   9.975  0.0788 -1.3229 -1.3089
  164SOPE   C2418400   3.138   4.363   9.916  0.1402  0.5023 -0.8648
  164SOPE   H4R18401   3.235   4.361   9.970 -0.7907  0.6548  0.8785
  164SOPE   H4S18402   3.142   4.267   9.860  0.7688 -0.0357  0.0888
  164SOPE   C2518403   3.133   4.479   9.808 -0.8683 -0.0762  0.7451
  164SOPE   H5R18404   3.132   4.573   9.866  0.5120  0.4527 -0.0449
  164SOPE   H5S18405   3.225   4.471   9.746 -1.1932 -0.4800  0.3084
  164SOPE   C2618406   3.019   4.480   9.707  0.7516  0.4105  0.4143
  164SOPE   H6R18407   3.023   4.378   9.661  2.0651  0.1370  1.0733
  164SOPE   H6S18408   2.925   4.496   9.763 -0.4138  1.6987 -1.8060
  164SOPE   C2718409   3.019   4.586   9.599  0.7989  0.1811 -0.4469
  164SOPE   H7R18410   2.977   4.680   9.640  0.5253 -0.8141  1.6981
  164SOPE   H7S18411   3.125   4.610   9.575  2.4564 -2.9006  2.7816
  164SOPE   C2818412   2.950   4.538   9.472 -0.2668  0.1863  0.6709
  164SOPE   H8R18413   2.858   4.481   9.496  0.0707 -0.6487  0.0147
  164SOPE   H8S18414   2.916   4.632   9.424  2.5567  1.3838  0.7823
  164SOPE   C2918415   3.040   4.465   9.372 -0.1634  0.5939 -0.4733
  164SOPE   H9118416   3.105   4.387   9.416  0.2090  2.3484  2.3498
  164SOPE  C21018417   3.035   4.484   9.240  0.8254 -0.1450 -0.3818
  164SOPE  H10118418   3.114   4.441   9.176  1.9943 -0.7586  1.4073
  164SOPE  C21118419   2.938   4.576   9.173 -0.4146  0.3443 -0.2936
  164SOPE  H11R18420   2.981   4.678   9.179 -1.7508  1.0777 -2.1365
  164SOPE  H11S18421   2.837   4.571   9.219 -0.1845 -1.0678  0.0854
  164SOPE  C21218422   2.928   4.538   9.022 -1.2374  0.1641  0.7305
  164SOPE  H12R18423   2.905   4.430   9.011  1.3133 -0.3208 -0.8306
  164SOPE  H12S18424   3.030   4.550   8.979 -0.9135  1.2603  1.7546
  164SOPE  C21318425   2.836   4.617   8.930 -0.0420  0.1952 -0.2000
  164SOPE  H13R18426   2.875   4.721   8.922  0.3613  0.1326  0.8257
  164SOPE  H13S18427   2.735   4.626   8.975 -0.3467 -1.0152 -0.6120
  164SOPE  C21418428   2.804   4.552   8.790  0.6107  0.0150  0.2006
  164SOPE  H14R18429   2.829   4.444   8.800 -2.0783 -0.7583 -0.7320
  164SOPE  H14S18430   2.867   4.604   8.714  1.8507 -0.6585  0.7329
  164SOPE  C21518431   2.656   4.557   8.733  0.2145 -0.0003  0.4507
  164SOPE  H15R18432   2.643   4.665   8.711  3.2100  0.4454  0.4307
  164SOPE  H15S18433   2.593   4.517   8.815  2.6209 -2.3902  1.2811
  164SOPE  C21618434   2.637   4.474   8.604 -0.0960  0.7097  0.2688
  164SOPE  H16R18435   2.531   4.485   8.573 -0.2671 -1.8982 -0.3369
  164SOPE  H16S18436   2.649   4.365   8.624  1.1462  0.1850 -2.8503
  164SOPE  C21718437   2.716   4.528   8.486  0.5523  0.1513 -0.4477
  164SOPE  H17R18438   2.821   4.553   8.509  0.4157  1.1110 -0.8106
  164SOPE  H17S18439   2.684   4.626   8.445  1.7724  0.5581 -0.4622
  164SOPE  C21818440   2.723   4.439   8.366  0.3326  0.3314  0.2567
  164SOPE  H18R18441   2.789   4.351   8.382  3.2003  1.6783 -2.8115
  164SOPE  H18S18442   2.766   4.495   8.280  1.3295  0.9402  1.1152
  164SOPE  H18T18443   2.619   4.403   8.356  0.1619  0.9165 -0.0583
  164SOPE   C3318444   3.461   4.606  10.059  0.6794  0.3610 -0.3091
  164SOPE   H3X18445   3.421   4.702  10.020 -0.7039 -0.4350 -0.9028
  164SOPE   H3Y18446   3.384   4.527  10.046 -0.1278  0.4878  2.8539
  164SOPE   C3418447   3.588   4.563   9.981  0.0198 -0.5444  0.3929
  164SOPE   H4X18448   3.632   4.471  10.025  1.8292  0.1335  0.0585
  164SOPE   H4Y18449   3.667   4.640   9.980 -0.2255 -0.2243 -2.3777
  164SOPE   C3518450   3.562   4.525   9.840  0.1501  0.1247 -0.4599
  164SOPE   H5X18451   3.499   4.434   9.841 -0.1679  0.3438 -0.4075
  164SOPE   H5Y18452   3.655   4.487   9.791  1.4477  3.2569 -0.6720
  164SOPE   C3618453   3.499   4.625   9.743 -0.0292  0.1991 -0.7819
  164SOPE   H6X18454   3.563   4.715   9.732  0.6667 -0.0762  0.7109
  164SOPE   H6Y18455   3.397   4.655   9.779 -0.4827 -0.0398 -1.8485
  164SOPE   C3718456   3.490   4.567   9.604 -0.2621  0.0115 -0.1667
  164SOPE   H7X18457   3.436   4.470   9.604 -0.1843 -0.0441 -1.7369
  164SOPE   H7Y18458   3.593   4.545   9.572  0.1900 -1.5741  2.1029
  164SOPE   C3818459   3.430   4.660   9.491 -0.1436 -0.1364  0.0900
  164SOPE   H8X18460   3.464   4.764   9.512  0.0586 -0.0586 -0.6163
  164SOPE   H8Y18461   3.320   4.650   9.499 -0.0283 -0.5599  1.5244
  164SOPE   C3918462   3.470   4.613   9.345 -0.3358 -0.5228 -0.4431
  164SOPE   H9X18463   3.485   4.503   9.339  1.8173 -0.2978 -0.0408
  164SOPE   H9Y18464   3.571   4.656   9.329 -0.7315 -0.3289 -2.9827
  164SOPE  C31018465   3.387   4.679   9.239  0.5183 -0.3212 -0.4987
  164SOPE  H10X18466   3.395   4.788   9.260  3.2606 -0.4599 -0.3520
  164SOPE  H10Y18467   3.279   4.662   9.254 -0.0281  2.3674 -0.8880
  164SOPE  C31118468   3.423   4.643   9.094 -0.1425 -0.0657  0.0986
  164SOPE  H11X18469   3.528   4.673   9.073  0.0977 -0.9521 -0.0113
  164SOPE  H11Y18470   3.353   4.701   9.030 -0.8688 -2.0580 -0.9978
  164SOPE  C31218471   3.392   4.498   9.070 -0.1665  0.1419  1.4397
  164SOPE  H12X18472   3.283   4.478   9.056 -0.6068  2.5712  1.0530
  164SOPE  H12Y18473   3.411   4.433   9.158 -0.2629 -1.6252  0.2220
  164SOPE  C31318474   3.479   4.447   8.947  0.1269  0.7512 -0.6044
  164SOPE  H13X18475   3.472   4.336   8.950 -0.5774  0.7313 -2.2472
  164SOPE  H13Y18476   3.584   4.472   8.972 -0.0148  0.1507  0.6621
  164SOPE  C31418477   3.441   4.487   8.803  0.4658 -0.6380 -0.3008
  164SOPE  H14X18478   3.513   4.442   8.731 -0.4429 -0.2235 -1.5015
  164SOPE  H14Y18479   3.436   4.598   8.808 -1.2672 -0.7359  1.4613
  164SOPE  C31518480   3.299   4.442   8.766  0.4108  0.5645  0.2892
  164SOPE  H15X18481   3.231   4.480   8.846  1.1549 -1.3914  1.9386
  164SOPE  H15Y18482   3.302   4.332   8.780 -0.3261  0.5785  0.5751
  164SOPE  C31618483   3.253   4.484   8.626  0.2860  0.0905 -0.0703
  164SOPE  H16X18484   3.327   4.447   8.552  0.4318  1.6372 -0.7387
  164SOPE  H16Y18485   3.248   4.594   8.607  0.0169 -0.1435 -1.4791
  164SOPE  C31718486   3.112   4.436   8.595  0.0494 -0.3118 -0.2279
  164SOPE  H17X18487   3.037   4.484   8.662  0.1721 -0.2504 -0.1333
  164SOPE  H17Y18488   3.106   4.327   8.618 -0.1706 -0.9062 -2.8468
  164SOPE  C31818489   3.074   4.459   8.451  0.4055  0.3161 -0.3412
  164SOPE  H18X18490   3.167   4.442   8.393  2.2080  0.2798  2.3473
  164SOPE  H18Y18491   3.047   4.564   8.429  1.3826  0.5873 -0.2975
  164SOPE  H18Z18492   2.993   4.389   8.422 -0.2792  0.3014  1.5009
  165SOPE     N18493   4.055   5.232  10.804  0.0391 -0.3415  0.4491
  165SOPE   HN118494   4.115   5.216  10.887  0.4691 -0.4382  0.1192
  165SOPE   HN218495   4.041   5.145  10.749  0.5676  0.0403 -0.3055
  165SOPE   HN318496   4.099   5.298  10.737 -2.1873  1.2384  0.4011
  165SOPE   C1218497   3.938   5.308  10.842 -0.4893  0.4218  0.1561
  165SOPE  H12A18498   3.968   5.400  10.895 -0.3920 -0.7614  2.2756
  165SOPE  H12B18499   3.881   5.251  10.920 -0.8464 -0.6387 -0.8387
  165SOPE   C1118500   3.856   5.336  10.712  0.2207 -0.5927 -0.1130
  165SOPE  H11A18501   3.915   5.414  10.660 -0.9871  0.7252  0.3906
  165SOPE  H11B18502   3.757   5.380  10.738  0.2535 -0.8929  0.5461
  165SOPE     P18503   3.773   5.237  10.488 -0.4310 -0.4106  0.1216
  165SOPE   O1318504   3.724   5.372  10.468 -0.0565 -0.0461 -0.0303
  165SOPE   O1418505   3.669   5.130  10.482 -0.2122 -0.1736  0.3175
  165SOPE   O1218506   3.839   5.222  10.630  0.1677  0.8789 -0.0703
  165SOPE   O1118507   3.883   5.207  10.384  0.3908  0.0508 -0.4276
  165SOPE    C118508   4.015   5.158  10.399 -0.5431  0.3611 -0.4305
  165SOPE    HA18509   4.023   5.053  10.362 -1.4521 -0.5437  1.7455
  165SOPE    HB18510   4.056   5.171  10.502 -1.2672 -1.5005  0.1414
  165SOPE    C218511   4.112   5.246  10.323  0.6455 -0.3384  0.7012
  165SOPE    HS18512   4.138   5.338  10.380 -0.5199  1.2292 -1.1513
  165SOPE   O2118513   4.062   5.277  10.191 -0.2502  0.7047 -0.2693
  165SOPE   C2118514   4.092   5.396  10.138  0.5261 -0.3266  0.0551
  165SOPE   O2218515   4.154   5.487  10.194  0.0797 -0.1303 -0.2054
  165SOPE   C2218516   4.030   5.420  10.001  0.1926 -0.1272 -0.5203
  165SOPE   H2R18517   3.931   5.369  10.009  0.2490 -0.0514  0.9709
  165SOPE   H2S18518   4.093   5.366   9.928  0.2628 -1.6856  0.6341
  165SOPE    C318519   4.248   5.170  10.313  0.2583  0.9364 -0.3602
  165SOPE    HX18520   4.232   5.072  10.264  3.3678 -2.4916  4.5213
  165SOPE    HY18521   4.302   5.153  10.409 -0.8355  2.0261  0.4902
  165SOPE   O3118522   4.333   5.240  10.224 -0.4528  0.3770  0.3970
  165SOPE   C3118523   4.416   5.337  10.265  0.0795  0.7301 -0.0742
  165SOPE   O3218524   4.424   5.385  10.379  0.0283  0.0279  0.2202
  165SOPE   C3218525   4.519   5.370  10.154  0.5950  0.5085  0.2760
  165SOPE   H2X18526   4.605   5.302  10.168 -0.5000 -1.0945 -0.5032
  165SOPE   H2Y18527   4.568   5.468  10.177 -1.0027  1.0259  1.6894
  165SOPE   C2318528   4.019   5.567   9.974 -0.1923  0.1478 -0.0451
  165SOPE   H3R18529   3.982   5.629  10.059 -0.6294  0.3804 -0.4025
  165SOPE   H3S18530   3.947   5.578   9.890 -1.1969  0.1577  0.7853
  165SOPE   C2418531   4.162   5.619   9.927  0.0222  0.4345  0.0189
  165SOPE   H4R18532   4.143   5.728   9.914 -0.1166  0.0730 -3.8514
  165SOPE   H4S18533   4.249   5.618   9.997  0.0505 -0.7753 -0.0137
  165SOPE   C2518534   4.204   5.563   9.794  1.0584 -0.0058  0.8938
  165SOPE   H5R18535   4.230   5.455   9.801  2.0404  0.0668 -1.1579
  165SOPE   H5S18536   4.132   5.577   9.710  1.9612  0.5824  0.2096
  165SOPE   C2618537   4.340   5.616   9.749  0.3131 -0.5846  0.3878
  165SOPE   H6R18538   4.332   5.726   9.737 -0.9680 -0.6955  0.1439
  165SOPE   H6S18539   4.407   5.579   9.830 -0.6578  1.8669  2.4680
  165SOPE   C2718540   4.369   5.560   9.611  0.1847 -0.5841  0.3832
  165SOPE   H7R18541   4.353   5.450   9.611  0.3026 -0.6285  1.9295
  165SOPE   H7S18542   4.291   5.593   9.540  1.0470 -0.1348 -0.3805
  165SOPE   C2818543   4.511   5.613   9.553  0.5929  0.1619  0.0977
  165SOPE   H8R18544   4.502   5.709   9.498  2.5493 -0.2877 -1.0818
  165SOPE   H8S18545   4.567   5.655   9.639 -1.0453  1.2935  0.6765
  165SOPE   C2918546   4.587   5.513   9.464 -0.7500 -0.5070  0.5132
  165SOPE   H9118547   4.637   5.433   9.519 -0.7670 -2.2672 -1.8952
  165SOPE  C21018548   4.578   5.502   9.328 -0.0577 -0.0785 -1.0513
  165SOPE  H10118549   4.624   5.413   9.283 -0.8105 -1.3935  0.7002
  165SOPE  C21118550   4.508   5.607   9.248 -0.5090 -0.2570 -0.0377
  165SOPE  H11R18551   4.566   5.700   9.228 -1.1906 -0.2491 -2.2538
  165SOPE  H11S18552   4.415   5.630   9.305  0.0337  0.1522  0.7010
  165SOPE  C21218553   4.457   5.542   9.120 -0.5111 -0.2938  0.2728
  165SOPE  H12R18554   4.413   5.442   9.141 -1.8460  0.1320 -0.3322
  165SOPE  H12S18555   4.534   5.517   9.045 -1.6345 -0.1180 -0.9878
  165SOPE  C21318556   4.340   5.624   9.059  0.5197  0.6562 -0.7516
  165SOPE  H13R18557   4.279   5.663   9.143 -1.2937  0.3437 -1.8806
  165SOPE  H13S18558   4.273   5.561   8.997 -1.1317  1.1148  0.5031
  165SOPE  C21418559   4.404   5.727   8.966 -0.2236 -0.1500  0.4020
  165SOPE  H14R18560   4.459   5.673   8.885 -1.1873 -2.4281  1.1866
  165SOPE  H14S18561   4.471   5.798   9.020 -0.5690  1.1530 -0.8291
  165SOPE  C21518562   4.302   5.811   8.903  0.5104 -0.1344 -0.0057
  165SOPE  H15R18563   4.256   5.878   8.979  3.3057  0.5531  1.2099
  165SOPE  H15S18564   4.216   5.750   8.869 -1.2447  1.4453  1.3940
  165SOPE  C21618565   4.359   5.889   8.785 -0.4103  0.5489  0.1152
  165SOPE  H16R18566   4.456   5.927   8.823 -0.7622  0.8829  0.6964
  165SOPE  H16S18567   4.288   5.971   8.758 -1.6527 -0.9050 -1.2317
  165SOPE  C21718568   4.385   5.799   8.664 -0.4158  0.2591  0.0728
  165SOPE  H17R18569   4.288   5.748   8.647  0.1625 -0.1916 -2.1771
  165SOPE  H17S18570   4.464   5.723   8.684  0.1720  0.7806 -0.2376
  165SOPE  C21818571   4.416   5.883   8.540  0.0612  0.3757  0.4372
  165SOPE  H18R18572   4.468   5.819   8.465 -2.1852  0.7388 -1.5300
  165SOPE  H18S18573   4.482   5.964   8.579  0.3533 -0.5608  1.9960
  165SOPE  H18T18574   4.319   5.920   8.502 -0.1512 -1.3909 -0.8611
  165SOPE   C3318575   4.472   5.376  10.009  0.0007  0.8159 -0.0751
  165SOPE   H3X18576   4.510   5.465   9.954  1.6078 -0.0577 -0.4598
  165SOPE   H3Y18577   4.361   5.375   9.999 -0.0768  2.0777  0.5442
  165SOPE   C3418578   4.523   5.250   9.939 -0.6324 -0.0920 -0.0148
  165SOPE   H4X18579   4.499   5.161  10.000 -1.3402 -0.5578 -0.9389
  165SOPE   H4Y18580   4.633   5.268   9.935 -0.7171  0.2555 -1.2074
  165SOPE   C3518581   4.471   5.236   9.798  0.4994 -0.0972  0.1470
  165SOPE   H5X18582   4.487   5.336   9.753  1.7356 -0.3447  0.0004
  165SOPE   H5Y18583   4.365   5.202   9.794 -0.2975  1.5793  3.3915
  165SOPE   C3618584   4.556   5.143   9.712 -0.5084 -0.0867  0.2120
  165SOPE   H6X18585   4.555   5.044   9.763 -1.4070 -0.4762 -0.5316
  165SOPE   H6Y18586   4.660   5.182   9.713  0.0658 -1.5414  0.0024
  165SOPE   C3718587   4.494   5.138   9.567  0.2351 -0.0759 -0.2103
  165SOPE   H7X18588   4.497   5.242   9.528  1.2512  0.1358  0.3769
  165SOPE   H7Y18589   4.389   5.109   9.589 -0.1813  3.0160  2.8334
  165SOPE   C3818590   4.569   5.050   9.470  0.3244  0.0446 -0.8330
  165SOPE   H8X18591   4.566   4.945   9.507 -1.5122  0.8361  1.5102
  165SOPE   H8Y18592   4.675   5.082   9.470  0.4572 -0.3836  0.1950
  165SOPE   C3918593   4.517   5.063   9.330  0.1450 -0.1048  0.0173
  165SOPE   H9X18594   4.420   5.118   9.336  0.3929  0.2283  1.2591
  165SOPE   H9Y18595   4.477   4.962   9.307  0.6383 -0.1227 -0.8039
  165SOPE  C31018596   4.624   5.108   9.227 -0.2242 -0.2328 -0.0040
  165SOPE  H10X18597   4.709   5.036   9.232  0.0439  0.0713 -0.1652
  165SOPE  H10Y18598   4.658   5.211   9.253 -1.8119  0.9839 -2.4388
  165SOPE  C31118599   4.572   5.092   9.087  0.2688  0.2907 -0.4111
  165SOPE  H11X18600   4.494   5.168   9.070  1.1155  1.6705  1.5407
  165SOPE  H11Y18601   4.517   4.995   9.092  0.1344  0.3540 -0.6755
  165SOPE  C31218602   4.670   5.082   8.972  0.1268  0.1372  0.3820
  165SOPE  H12X18603   4.720   4.984   8.985 -0.0121  0.1905  1.3670
  165SOPE  H12Y18604   4.749   5.160   8.980  0.7304 -0.4892  0.6392
  165SOPE  C31318605   4.608   5.073   8.837 -0.0363  0.0913  0.3578
  165SOPE  H13X18606   4.533   4.991   8.835 -1.2149  0.8305  4.2797
  165SOPE  H13Y18607   4.693   5.050   8.770  0.2779  2.3213 -0.0758
  165SOPE  C31418608   4.552   5.205   8.779  0.1087  0.1167 -0.5984
  165SOPE  H14X18609   4.626   5.284   8.802 -0.7592 -0.1667  4.1928
  165SOPE  H14Y18610   4.465   5.221   8.846  1.9859  0.2014  1.9493
  165SOPE  C31518611   4.514   5.205   8.634 -0.1905 -0.5514  0.2455
  165SOPE  H15X18612   4.424   5.140   8.633 -1.1031  0.5448 -2.7506
  165SOPE  H15Y18613   4.596   5.168   8.570  0.1898  2.1179 -0.9737
  165SOPE  C31618614   4.509   5.347   8.576  0.0458  0.3094 -0.3448
  165SOPE  H16X18615   4.617   5.372   8.582  0.1042  0.4568 -1.7235
  165SOPE  H16Y18616   4.449   5.411   8.645  1.9103  3.2065 -1.2589
  165SOPE  C31718617   4.451   5.361   8.437 -0.0356  0.3409  0.5904
  165SOPE  H17X18618   4.505   5.304   8.359 -0.4745 -1.1646  1.3463
  165SOPE  H17Y18619   4.456   5.468   8.408  0.6949  0.4160  0.9653
  165SOPE  C31818620   4.298   5.335   8.424  0.6724 -0.1084  1.0064
  165SOPE  H18X18621   4.274   5.231   8.452 -1.3580  0.3743  1.1657
  165SOPE  H18Y18622   4.268   5.356   8.319 -0.0124  1.9700  1.5643
  165SOPE  H18Z18623   4.235   5.404   8.484 -0.5644  0.5352 -0.9306
  166SOPE     N18624   4.845   3.707  10.586  0.3439  0.4569 -0.0209
  166SOPE   HN118625   4.842   3.699  10.689 -2.8203 -3.3055 -0.1694
  166SOPE   HN218626   4.939   3.733  10.550  0.6647 -0.5321  0.0731
  166SOPE   HN318627   4.778   3.780  10.554  1.1246  1.4643  0.5912
  166SOPE   C1218628   4.824   3.562  10.538  0.0493  0.7128 -0.1073
  166SOPE  H12A18629   4.825   3.573  10.427 -1.6983  0.5190 -0.1644
  166SOPE  H12B18630   4.721   3.532  10.566  0.1755  0.4531  0.0779
  166SOPE   C1118631   4.927   3.461  10.580 -0.3471 -0.9703 -0.7892
  166SOPE  H11A18632   5.024   3.462  10.525  1.1425 -0.2353  1.6729
  166SOPE  H11B18633   4.871   3.369  10.555 -2.9207  0.6889 -1.5250
  166SOPE     P18634   5.003   3.347  10.800 -0.0640  0.0281  0.3919
  166SOPE   O1318635   4.883   3.272  10.852  0.0475 -0.2710 -0.1060
  166SOPE   O1418636   5.103   3.388  10.893 -0.4426 -0.5225 -0.1200
  166SOPE   O1218637   4.945   3.468  10.723  0.4266 -0.9203 -0.0420
  166SOPE   O1118638   5.070   3.252  10.684  0.2648  0.0065 -0.3675
  166SOPE    C118639   5.099   3.117  10.717 -0.1298  0.0562  0.5499
  166SOPE    HA18640   5.017   3.063  10.769  0.1384 -1.0199 -0.1176
  166SOPE    HB18641   5.182   3.102  10.790  0.6622 -1.5378 -0.6179
  166SOPE    C218642   5.104   3.026  10.589 -0.0817  0.3920  0.9822
  166SOPE    HS18643   5.102   2.920  10.620 -0.2745 -0.3598 -1.4431
  166SOPE   O2118644   5.226   3.055  10.521  0.0375  0.4522  0.1879
  166SOPE   C2118645   5.324   2.977  10.563  0.2557 -0.2922  0.2666
  166SOPE   O2218646   5.325   2.884  10.642 -0.4981 -0.5572 -0.0753
  166SOPE   C2218647   5.459   3.020  10.493  1.5028  0.4554 -0.8361
  166SOPE   H2R18648   5.534   3.013  10.575  1.6214 -3.5412 -1.1101
  166SOPE   H2S18649   5.460   3.127  10.461 -1.4417  0.9047  0.2182
  166SOPE    C318650   4.989   3.055  10.490  0.2976 -0.2725  0.5310
  166SOPE    HX18651   4.974   3.164  10.476 -0.4715 -0.2499  1.4500
  166SOPE    HY18652   4.894   3.016  10.532  0.4179 -1.5314 -0.3229
  166SOPE   O3118653   5.003   2.982  10.363  0.1892  0.1164 -0.6343
  166SOPE   C3118654   4.956   3.048  10.259  0.0230 -0.0214 -0.3799
  166SOPE   O3218655   4.898   3.155  10.256 -0.1072 -1.0700  0.4631
  166SOPE   C3218656   4.997   2.965  10.143  0.8945  0.9772  0.4199
  166SOPE   H2X18657   4.993   2.856  10.165  0.5703  0.8520 -0.2063
  166SOPE   H2Y18658   5.098   2.984  10.101  1.5776 -3.7169 -0.6489
  166SOPE   C2318659   5.490   2.923  10.379 -0.3979  0.3064  0.0307
  166SOPE   H3R18660   5.461   2.819  10.404  3.8042 -0.6469  1.8418
  166SOPE   H3S18661   5.600   2.918  10.366 -0.4285  0.0176 -0.1283
  166SOPE   C2418662   5.421   2.954  10.244 -0.2214  1.5230  0.2238
  166SOPE   H4R18663   5.311   2.939  10.257  0.0542 -0.0390  1.0055
  166SOPE   H4S18664   5.440   3.062  10.229  2.8895  0.9969 -0.1654
  166SOPE   C2518665   5.475   2.864  10.129 -0.0732  0.3844 -0.2215
  166SOPE   H5R18666   5.585   2.877  10.125 -0.0864  0.6472  0.3404
  166SOPE   H5S18667   5.447   2.760  10.157 -0.2693  0.8501  1.3910
  166SOPE   C2618668   5.416   2.890   9.982 -0.3676  0.5106 -0.3985
  166SOPE   H6R18669   5.366   2.989   9.980  0.7227  1.0620 -2.2060
  166SOPE   H6S18670   5.493   2.910   9.904 -2.2363  2.8187 -1.7922
  166SOPE   C2718671   5.313   2.778   9.935  0.3669 -0.9027 -0.3114
  166SOPE   H7R18672   5.370   2.682   9.932 -1.4958 -2.0600 -0.2147
  166SOPE   H7S18673   5.240   2.760  10.016  0.7395  0.4589  0.3614
  166SOPE   C2818674   5.253   2.818   9.797  0.1932  0.1776  0.1929
  166SOPE   H8R18675   5.162   2.874   9.829 -0.0561  0.2012 -0.5224
  166SOPE   H8S18676   5.325   2.879   9.738  0.7022 -0.0143  0.6117
  166SOPE   C2918677   5.213   2.704   9.705  0.8666  0.8424 -0.0060
  166SOPE   H9118678   5.196   2.607   9.754  0.8867  0.6819 -0.3134
  166SOPE  C21018679   5.196   2.707   9.569  0.4950  0.4240  0.2326
  166SOPE  H10118680   5.151   2.617   9.524 -1.0147  1.0463  0.4282
  166SOPE  C21118681   5.211   2.818   9.472  0.1812  0.1317  0.2038
  166SOPE  H11R18682   5.216   2.922   9.510  1.5682 -0.1724  0.9254
  166SOPE  H11S18683   5.115   2.821   9.416  0.4026 -0.0217 -0.1862
  166SOPE  C21218684   5.326   2.786   9.377 -0.1867  0.2048 -0.0163
  166SOPE  H12R18685   5.292   2.699   9.318 -0.0096  0.2820 -0.2314
  166SOPE  H12S18686   5.423   2.771   9.428  0.0159 -2.1967 -1.0030
  166SOPE  C21318687   5.358   2.898   9.279 -0.2771 -0.3613 -0.4834
  166SOPE  H13R18688   5.445   2.869   9.217  1.5113  1.4469  1.0138
  166SOPE  H13S18689   5.371   2.985   9.347 -3.2599  1.4955 -2.0643
  166SOPE  C21418690   5.237   2.935   9.185  0.0244 -0.5990  0.2463
  166SOPE  H14R18691   5.153   2.969   9.250 -0.5377  1.4274 -1.4145
  166SOPE  H14S18692   5.216   2.843   9.127  0.3691 -0.4138 -0.1728
  166SOPE  C21518693   5.263   3.042   9.083  0.1569 -0.6238 -0.0940
  166SOPE  H15R18694   5.262   3.141   9.134  0.4183 -1.7881  2.2959
  166SOPE  H15S18695   5.176   3.036   9.014  0.9895  0.9941 -1.3576
  166SOPE  C21618696   5.388   3.017   8.996 -0.2444  0.7820 -0.2361
  166SOPE  H16R18697   5.387   2.914   8.954 -0.0366  0.8405 -0.3835
  166SOPE  H16S18698   5.477   3.027   9.062  0.2610 -1.7671 -0.4195
  166SOPE  C21718699   5.404   3.115   8.881 -0.0766  0.4704  0.5522
  166SOPE  H17R18700   5.447   3.206   8.929  0.9901  1.1698 -1.6034
  166SOPE  H17S18701   5.304   3.138   8.839  0.1106  1.8267  0.7932
  166SOPE  C21818702   5.486   3.074   8.766  0.5051  0.1226  0.0626
  166SOPE  H18R18703   5.468   3.149   8.686 -0.9923  0.7661  0.9657
  166SOPE  H18S18704   5.465   2.974   8.722 -1.8065  0.2547  0.7315
  166SOPE  H18T18705   5.592   3.069   8.801 -0.1079  0.3843  2.0679
  166SOPE   C3318706   4.900   2.982  10.025  1.0743 -0.6083 -0.0932
  166SOPE   H3X18707   4.794   2.991  10.059  0.4969 -0.5786 -1.8247
  166SOPE   H3Y18708   4.903   2.894   9.958 -2.2609  0.1301 -1.4202
  166SOPE   C3418709   4.945   3.100   9.939  0.7750 -0.1899  0.0041
  166SOPE   H4X18710   5.053   3.093   9.916  0.3555 -0.5952 -2.0360
  166SOPE   H4Y18711   4.931   3.200   9.987  0.5495 -1.4779  2.7993
  166SOPE   C3518712   4.875   3.099   9.803 -0.2973 -0.5088  0.1361
  166SOPE   H5X18713   4.769   3.066   9.801 -0.8513  1.0287 -3.3181
  166SOPE   H5Y18714   4.926   3.014   9.752  1.7224 -1.2421  3.0920
  166SOPE   C3618715   4.890   3.234   9.734 -0.7196 -0.3638  0.3478
  166SOPE   H6X18716   4.994   3.269   9.755 -0.4139  0.2656 -1.9865
  166SOPE   H6Y18717   4.816   3.311   9.764  1.9743  2.8221 -0.5729
  166SOPE   C3718718   4.891   3.206   9.577 -0.6370 -0.6603 -0.1811
  166SOPE   H7X18719   4.953   3.115   9.559  0.9688  0.2308  0.6049
  166SOPE   H7Y18720   4.957   3.280   9.527 -1.2300 -0.6438 -0.9479
  166SOPE   C3818721   4.755   3.193   9.516  0.1052  0.5092  0.1020
  166SOPE   H8X18722   4.689   3.278   9.545 -1.0576  0.7920 -2.9747
  166SOPE   H8Y18723   4.711   3.097   9.549  0.2155 -0.1044 -1.4533
  166SOPE   C3918724   4.766   3.191   9.363  0.2005  0.0737  1.1393
  166SOPE   H9X18725   4.852   3.126   9.340  0.0207  0.5004 -1.0214
  166SOPE   H9Y18726   4.807   3.290   9.333 -0.8094  0.2723  0.3318
  166SOPE  C31018727   4.648   3.156   9.276 -0.6963  0.3415  0.0452
  166SOPE  H10X18728   4.561   3.221   9.299 -0.3105  0.6332  0.7076
  166SOPE  H10Y18729   4.617   3.054   9.309 -2.6022  0.3115 -1.6499
  166SOPE  C31118730   4.684   3.153   9.128  0.0810  0.0980 -0.1222
  166SOPE  H11X18731   4.750   3.066   9.106 -1.0937 -0.5985 -1.0514
  166SOPE  H11Y18732   4.739   3.243   9.093  0.9283 -0.4197 -0.1640
  166SOPE  C31218733   4.569   3.134   9.028 -0.0386  0.0110 -0.7412
  166SOPE  H12X18734   4.501   3.218   9.052  1.7138  1.0844  0.7342
  166SOPE  H12Y18735   4.513   3.039   9.041 -1.0842  0.6494 -0.4421
  166SOPE  C31318736   4.619   3.158   8.883 -0.8345 -0.1613 -0.2729
  166SOPE  H13X18737   4.699   3.088   8.850  0.0712 -0.0322  1.5763
  166SOPE  H13Y18738   4.647   3.265   8.877 -0.2473 -0.3434 -1.0891
  166SOPE  C31418739   4.506   3.149   8.774 -0.3700 -0.5269  0.0608
  166SOPE  H14X18740   4.539   3.218   8.694  0.3455  1.4897  1.9697
  166SOPE  H14Y18741   4.421   3.207   8.817  0.6528  0.4671  0.8185
  166SOPE  C31518742   4.452   3.008   8.746  0.1884  0.1201 -0.4898
  166SOPE  H15X18743   4.381   3.019   8.662  0.3548 -0.4369 -0.7066
  166SOPE  H15Y18744   4.407   2.967   8.839  2.1657 -1.3200 -0.1042
  166SOPE  C31618745   4.567   2.908   8.715 -0.3859  0.1130  0.2352
  166SOPE  H16X18746   4.619   2.866   8.804 -2.7698  0.2350  1.7777
  166SOPE  H16Y18747   4.635   2.967   8.650 -0.8653 -0.6841 -1.0277
  166SOPE  C31718748   4.522   2.785   8.633 -0.4986  0.9436  0.2911
  166SOPE  H17X18749   4.475   2.823   8.540 -0.5901  0.9521  0.3409
  166SOPE  H17Y18750   4.441   2.733   8.689 -1.4066  1.8646 -0.1391
  166SOPE  C31818751   4.637   2.690   8.615  0.1617  0.2140 -0.6790
  166SOPE  H18X18752   4.724   2.736   8.562 -0.9743  0.0665 -2.7817
  166SOPE  H18Y18753   4.607   2.608   8.546  2.7028 -1.5764  0.1946
  166SOPE  H18Z18754   4.679   2.654   8.711  1.3951  0.6298 -1.0397
  167SOPE     N18755   2.707   3.302   5.981  0.0419 -0.4061 -0.2093
  167SOPE   HN118756   2.796   3.267   6.023  2.1351  1.9995 -2.3349
  167SOPE   HN218757   2.682   3.241   5.901  0.9858  1.5237 -2.0645
  167SOPE   HN318758   2.736   3.392   5.938  2.2123 -0.5575  0.8044
  167SOPE   C1218759   2.601   3.333   6.088  0.1284  0.1077  0.5483
  167SOPE  H12A18760   2.599   3.246   6.157 -0.0163  0.6389  1.2278
  167SOPE  H12B18761   2.507   3.338   6.029  0.1678  3.4572  0.5594
  167SOPE   C1118762   2.627   3.467   6.163 -0.0222  0.1528  0.3084
  167SOPE  H11A18763   2.729   3.463   6.207 -0.3663  0.6695  1.1947
  167SOPE  H11B18764   2.552   3.464   6.246  1.7737  0.2609  2.0061
  167SOPE     P18765   2.490   3.665   6.056 -0.5179  0.0227  0.2313
  167SOPE   O1318766   2.388   3.579   5.993 -0.3331  0.0166  0.4196
  167SOPE   O1418767   2.540   3.785   5.980  0.1805 -0.3471  0.1030
  167SOPE   O1218768   2.620   3.570   6.076  0.2938  0.3544 -0.2336
  167SOPE   O1118769   2.448   3.708   6.201 -0.6616 -0.1721 -0.0961
  167SOPE    C118770   2.497   3.817   6.275 -0.9153 -0.0513  0.7940
  167SOPE    HA18771   2.411   3.856   6.334 -0.9286 -0.8420  1.3256
  167SOPE    HB18772   2.539   3.893   6.207 -0.5334  0.0439  1.1376
  167SOPE    C218773   2.598   3.781   6.388 -0.2833  0.3189  0.0032
  167SOPE    HS18774   2.678   3.734   6.328 -0.9739 -0.7284 -0.1207
  167SOPE   O2118775   2.523   3.691   6.471  0.0770  0.0587  0.1562
  167SOPE   C2118776   2.597   3.589   6.525 -0.5147  0.2196 -0.2660
  167SOPE   O2218777   2.718   3.582   6.526  0.2684  0.4113 -0.1271
  167SOPE   C2218778   2.510   3.523   6.626  0.1791  0.2409  0.1559
  167SOPE   H2R18779   2.560   3.445   6.688 -0.3605  1.4018  2.1453
  167SOPE   H2S18780   2.433   3.468   6.569 -0.7194  0.0138  1.5414
  167SOPE    C318781   2.657   3.907   6.458 -0.8008  0.1383 -0.6338
  167SOPE    HX18782   2.569   3.966   6.494  0.1514  2.7522 -2.2514
  167SOPE    HY18783   2.706   3.975   6.385 -0.9012  0.4476 -0.4192
  167SOPE   O3118784   2.753   3.881   6.566 -0.4894  0.0827  0.5196
  167SOPE   C3118785   2.863   3.828   6.529 -0.7965  0.3769  1.7901
  167SOPE   O3218786   2.906   3.810   6.413 -0.1083 -0.1311 -0.6808
  167SOPE   C3218787   2.950   3.780   6.648 -0.2171  0.1911  0.0076
  167SOPE   H2X18788   3.055   3.765   6.615  1.4466  1.7530  4.0500
  167SOPE   H2Y18789   2.909   3.681   6.676 -0.0765 -0.3100 -1.4460
  167SOPE   C2318790   2.446   3.612   6.735 -0.9280  0.2589  0.3771
  167SOPE   H3R18791   2.360   3.549   6.768 -0.7189 -0.8435 -1.0503
  167SOPE   H3S18792   2.397   3.694   6.679 -3.2519 -1.7278 -0.6744
  167SOPE   C2418793   2.545   3.637   6.852  0.1517  0.6671  0.8192
  167SOPE   H4R18794   2.562   3.549   6.918  3.2588  0.2914 -0.2932
  167SOPE   H4S18795   2.645   3.668   6.814 -0.7262  2.1105 -0.4368
  167SOPE   C2518796   2.493   3.749   6.937 -0.6720  0.3049 -0.5038
  167SOPE   H5R18797   2.458   3.823   6.862 -0.6985  0.2377 -0.5576
  167SOPE   H5S18798   2.402   3.721   6.995 -0.6072  3.7111  1.5449
  167SOPE   C2618799   2.593   3.818   7.032  0.2616  0.2108  0.3253
  167SOPE   H6R18800   2.652   3.735   7.074 -0.8097 -0.5595  0.3549
  167SOPE   H6S18801   2.660   3.877   6.965 -1.1139  1.6579  0.1471
  167SOPE   C2718802   2.524   3.905   7.134  0.7804 -0.4692 -0.5012
  167SOPE   H7R18803   2.473   3.991   7.085 -1.9968 -1.0506  1.1689
  167SOPE   H7S18804   2.445   3.836   7.171 -0.3505  0.6294 -0.7913
  167SOPE   C2818805   2.612   3.949   7.250  0.3201  0.1467 -0.1550
  167SOPE   H8R18806   2.661   3.858   7.290  1.1726  1.5422  2.1321
  167SOPE   H8S18807   2.694   4.020   7.226  0.7891  0.5823  2.5083
  167SOPE   C2918808   2.521   4.015   7.351 -0.0822 -0.6201  0.3913
  167SOPE   H9118809   2.439   4.078   7.312  0.5309  2.3059  3.4122
  167SOPE  C21018810   2.526   3.993   7.481 -0.0543  0.0221  0.2041
  167SOPE  H10118811   2.454   4.041   7.548 -1.2037  0.8741 -1.5595
  167SOPE  C21118812   2.626   3.910   7.557 -0.1219 -0.4081  0.4232
  167SOPE  H11R18813   2.641   3.950   7.660  2.2674  2.1874 -0.8234
  167SOPE  H11S18814   2.722   3.902   7.503 -0.3743 -0.8030  0.0223
  167SOPE  C21218815   2.588   3.762   7.544  0.0634  0.5392 -0.7939
  167SOPE  H12R18816   2.563   3.725   7.443  2.2280 -1.4622 -0.6804
  167SOPE  H12S18817   2.507   3.734   7.614 -0.0205 -2.3353 -1.8965
  167SOPE  C21318818   2.703   3.667   7.591 -0.2952 -0.6856  0.5888
  167SOPE  H13R18819   2.800   3.702   7.551 -0.0158 -1.2258  0.7908
  167SOPE  H13S18820   2.693   3.570   7.537  0.8380 -0.4758 -0.0357
  167SOPE  C21418821   2.704   3.640   7.736  0.2441  0.3925 -0.3495
  167SOPE  H14R18822   2.616   3.575   7.756 -0.7256  1.5575 -0.7035
  167SOPE  H14S18823   2.675   3.734   7.787  0.6940 -0.0797  0.7983
  167SOPE  C21518824   2.834   3.581   7.785 -0.1727  0.1615  0.3897
  167SOPE  H15R18825   2.913   3.656   7.767  0.4878 -0.6857 -0.2892
  167SOPE  H15S18826   2.864   3.490   7.729  0.4877  0.3458  0.4367
  167SOPE  C21618827   2.846   3.559   7.937 -0.0401 -0.1156 -0.0194
  167SOPE  H16R18828   2.938   3.498   7.948 -0.7054 -1.2113 -0.3216
  167SOPE  H16S18829   2.764   3.496   7.977  0.3472 -0.6117  0.0024
  167SOPE  C21718830   2.863   3.691   8.009  0.9433 -0.4764 -0.7033
  167SOPE  H17R18831   2.771   3.752   7.995  1.5691  0.7313  0.2299
  167SOPE  H17S18832   2.940   3.761   7.969 -0.4932  2.1931  0.9151
  167SOPE  C21818833   2.879   3.677   8.161 -0.7204  0.6849  0.5722
  167SOPE  H18R18834   2.792   3.628   8.208 -1.5283  0.9721 -0.5956
  167SOPE  H18S18835   2.903   3.777   8.204 -1.7477  1.4287 -0.5455
  167SOPE  H18T18836   2.967   3.609   8.176 -1.2034  0.1572  1.0725
  167SOPE   C3318837   2.934   3.867   6.778 -0.1694 -0.1938 -0.6922
  167SOPE   H3X18838   2.827   3.877   6.804  0.4784 -0.2249  2.3547
  167SOPE   H3Y18839   2.969   3.970   6.755 -2.2815  0.6951 -0.1946
  167SOPE   C3418840   3.019   3.825   6.900  0.3262  0.4025 -0.2066
  167SOPE   H4X18841   3.127   3.851   6.896  0.0111  2.0917  1.2686
  167SOPE   H4Y18842   3.011   3.715   6.908 -2.8511  0.6995  3.3193
  167SOPE   C3518843   2.989   3.901   7.036 -0.6975  0.0907  0.3341
  167SOPE   H5X18844   2.881   3.894   7.061 -0.6796 -0.4890  0.2673
  167SOPE   H5Y18845   3.017   4.008   7.036  2.2721 -0.6037  0.8189
  167SOPE   C3618846   3.057   3.834   7.160  0.3916  0.3129 -0.2471
  167SOPE   H6X18847   3.163   3.860   7.139  0.8726 -0.8595  0.5955
  167SOPE   H6Y18848   3.048   3.723   7.161  0.1219  0.3352  0.6442
  167SOPE   C3718849   3.024   3.902   7.292 -0.8367 -0.7091 -0.1947
  167SOPE   H7X18850   2.928   3.856   7.323 -1.4017  0.7674  0.3039
  167SOPE   H7Y18851   3.009   4.012   7.282 -0.0182 -0.6512 -0.9308
  167SOPE   C3818852   3.133   3.854   7.391  0.6441 -0.6568 -0.5186
  167SOPE   H8X18853   3.224   3.909   7.360  0.2916 -0.1699 -0.6957
  167SOPE   H8Y18854   3.147   3.744   7.384  0.1128 -0.7283 -0.4461
  167SOPE   C3918855   3.103   3.876   7.542 -0.5583 -0.7417 -0.1048
  167SOPE   H9X18856   3.012   3.821   7.574 -0.7621 -0.0476  0.5311
  167SOPE   H9Y18857   3.098   3.986   7.556  0.0989 -0.7956  0.6636
  167SOPE  C31018858   3.212   3.836   7.639 -0.1890  0.4506  0.5034
  167SOPE  H10X18859   3.248   3.737   7.603  1.1009  1.1923 -0.3102
  167SOPE  H10Y18860   3.161   3.828   7.738  0.0182 -0.9562  0.5227
  167SOPE  C31118861   3.339   3.919   7.655 -0.7787 -0.0983 -0.1469
  167SOPE  H11X18862   3.308   4.025   7.653 -1.3008 -0.2276  0.6014
  167SOPE  H11Y18863   3.409   3.910   7.570  0.7928  0.5123  1.0388
  167SOPE  C31218864   3.417   3.891   7.784 -0.1560 -0.6813 -0.2616
  167SOPE  H12X18865   3.427   3.782   7.803 -0.5188 -0.5007  1.1061
  167SOPE  H12Y18866   3.351   3.934   7.863  0.4110  1.2565 -0.8020
  167SOPE  C31318867   3.547   3.970   7.790 -0.4090  0.0018 -0.0213
  167SOPE  H13X18868   3.539   4.080   7.776 -1.5781 -0.2500 -1.5827
  167SOPE  H13Y18869   3.605   3.928   7.704  0.6639  1.3917 -0.0205
  167SOPE  C31418870   3.622   3.938   7.918 -0.4279  0.5526 -0.0807
  167SOPE  H14X18871   3.647   3.830   7.925  0.4470  0.8016  0.9264
  167SOPE  H14Y18872   3.547   3.955   7.999 -0.7159 -1.2882  0.0854
  167SOPE  C31518873   3.740   4.035   7.933 -0.4826  0.1986  0.1643
  167SOPE  H15X18874   3.697   4.136   7.946 -0.1688  0.4858 -0.9529
  167SOPE  H15Y18875   3.800   4.035   7.840  1.4847 -1.2607  1.3473
  167SOPE  C31618876   3.837   4.005   8.059  0.2597  0.0560  0.0513
  167SOPE  H16X18877   3.774   4.020   8.150  1.4261 -0.8174  1.0422
  167SOPE  H16Y18878   3.920   4.079   8.058  0.0279  0.3196 -1.2065
  167SOPE  C31718879   3.892   3.856   8.064  0.5049  0.6308 -0.1468
  167SOPE  H17X18880   3.955   3.847   7.973 -0.3982  0.7322 -0.8070
  167SOPE  H17Y18881   3.809   3.782   8.054  0.7920  0.0625  1.4322
  167SOPE  C31818882   3.969   3.835   8.193 -0.0768  0.3075  0.1298
  167SOPE  H18X18883   3.996   3.728   8.208  0.4942  0.4699  0.2925
  167SOPE  H18Y18884   3.902   3.848   8.280 -1.2936 -0.8891 -0.5915
  167SOPE  H18Z18885   4.056   3.903   8.200  0.1656  0.1726 -1.2236
  168SOPE     N18886   3.188   2.048   6.229 -0.0558 -0.0193  0.0925
  168SOPE   HN118887   3.242   2.137   6.224  0.1630 -0.1386  0.3148
  168SOPE   HN218888   3.265   1.977   6.226 -0.6489 -0.6699 -0.0708
  168SOPE   HN318889   3.126   2.029   6.148 -0.5303 -2.0959  0.8613
  168SOPE   C1218890   3.102   2.054   6.349  0.0803 -0.7489 -0.1056
  168SOPE  H12A18891   3.162   2.091   6.435  2.4547 -1.4043 -1.3996
  168SOPE  H12B18892   3.069   1.949   6.362  0.0992 -1.4898 -4.5832
  168SOPE   C1118893   2.979   2.149   6.328 -0.2777 -0.5045 -0.0974
  168SOPE  H11A18894   3.018   2.252   6.317 -2.5060  0.2570 -1.4885
  168SOPE  H11B18895   2.921   2.134   6.421 -0.7841  1.9385  0.0365
  168SOPE     P18896   2.775   2.021   6.201 -0.0168  0.1771  0.1928
  168SOPE   O1318897   2.780   1.909   6.304  0.0247  0.0972 -0.2472
  168SOPE   O1418898   2.777   1.975   6.061 -0.7550 -0.0761 -0.8133
  168SOPE   O1218899   2.895   2.115   6.218 -0.0562 -0.2225  0.2639
  168SOPE   O1118900   2.645   2.114   6.217  0.5314 -0.5133 -0.0350
  168SOPE    C118901   2.647   2.259   6.212 -0.1011  0.8631 -0.3721
  168SOPE    HA18902   2.552   2.294   6.168 -1.7475 -0.5002  1.8559
  168SOPE    HB18903   2.730   2.285   6.143  0.6553 -0.5975 -0.0548
  168SOPE    C218904   2.675   2.320   6.347 -0.1489 -0.6598  0.5796
  168SOPE    HS18905   2.784   2.303   6.361  0.0941  1.9809  2.5744
  168SOPE   O2118906   2.592   2.271   6.454 -0.2625 -0.0155  0.5519
  168SOPE   C2118907   2.662   2.261   6.559  0.5318 -0.4237 -0.5909
  168SOPE   O2218908   2.780   2.279   6.573 -0.7186 -0.3026 -0.1135
  168SOPE   C2218909   2.562   2.232   6.676  0.5107  0.3660 -0.8428
  168SOPE   H2R18910   2.550   2.122   6.689 -1.4435  0.6156 -0.2783
  168SOPE   H2S18911   2.465   2.284   6.662 -0.6641 -1.3013  0.6401
  168SOPE    C318912   2.651   2.469   6.327 -0.2299 -0.2924 -0.4906
  168SOPE    HX18913   2.549   2.498   6.295 -0.4580  1.4907  1.6260
  168SOPE    HY18914   2.712   2.520   6.249 -0.2513 -0.1919 -0.4418
  168SOPE   O3118915   2.666   2.540   6.450 -0.9619 -0.7151 -0.5285
  168SOPE   C3118916   2.780   2.601   6.472 -0.2905 -0.4996  0.2495
  168SOPE   O3218917   2.878   2.608   6.402 -0.0177  0.5869  0.5660
  168SOPE   C3218918   2.753   2.692   6.589  0.0703 -0.1166 -0.4989
  168SOPE   H2X18919   2.647   2.722   6.604 -0.2452 -1.6303  0.4715
  168SOPE   H2Y18920   2.808   2.781   6.550  0.5091 -0.1607  0.0083
  168SOPE   C2318921   2.633   2.279   6.816 -0.1826 -0.3734  0.3252
  168SOPE   H3R18922   2.680   2.378   6.800  0.2855 -0.4070  1.4115
  168SOPE   H3S18923   2.702   2.201   6.856  0.4783  0.3019  0.5114
  168SOPE   C2418924   2.529   2.281   6.928  0.0146  0.0439 -0.4430
  168SOPE   H4R18925   2.437   2.326   6.883 -1.5249 -2.5083 -0.0551
  168SOPE   H4S18926   2.490   2.180   6.953  0.2520 -0.4103 -1.8144
  168SOPE   C2518927   2.585   2.349   7.054  0.1663 -0.1440  0.6901
  168SOPE   H5R18928   2.666   2.283   7.093 -1.5380 -1.1934  2.6365
  168SOPE   H5S18929   2.627   2.450   7.034  3.6707 -0.9187  3.1927
  168SOPE   C2618930   2.494   2.356   7.177  0.0706  0.7214 -0.5790
  168SOPE   H6R18931   2.432   2.449   7.174 -3.0031 -1.0703  1.6092
  168SOPE   H6S18932   2.441   2.262   7.200 -0.9480  1.2597 -0.6537
  168SOPE   C2718933   2.568   2.388   7.316  0.6581 -0.3009  0.8005
  168SOPE   H7R18934   2.625   2.296   7.341 -1.6184 -2.1567 -0.4026
  168SOPE   H7S18935   2.636   2.474   7.300  1.7879 -1.6396 -2.5015
  168SOPE   C2818936   2.481   2.426   7.440  0.3808  0.0233  0.1136
  168SOPE   H8R18937   2.390   2.483   7.413 -0.6717  0.2738  3.6558
  168SOPE   H8S18938   2.447   2.333   7.491  1.7617 -1.2596 -1.1802
  168SOPE   C2918939   2.564   2.505   7.534  0.2310  0.2868 -0.2035
  168SOPE   H9118940   2.607   2.602   7.505  2.0883 -0.6584 -0.7891
  168SOPE  C21018941   2.576   2.477   7.665 -0.2451 -0.4887  0.3136
  168SOPE  H10118942   2.630   2.546   7.731 -0.2139  1.3265 -1.5036
  168SOPE  C21118943   2.495   2.377   7.740 -0.1909  0.2031  0.1556
  168SOPE  H11R18944   2.529   2.272   7.726 -0.6827  0.0848 -0.1951
  168SOPE  H11S18945   2.389   2.382   7.708 -1.1810 -1.7228  2.7773
  168SOPE  C21218946   2.495   2.404   7.893 -0.8968  0.1212 -0.6077
  168SOPE  H12R18947   2.407   2.350   7.933  0.2156 -1.1949  0.1452
  168SOPE  H12S18948   2.487   2.511   7.924 -0.0356  0.2483 -0.8002
  168SOPE  C21318949   2.621   2.352   7.955  0.5053 -0.0349  0.8865
  168SOPE  H13R18950   2.695   2.429   7.926  0.3652 -0.3583 -0.3662
  168SOPE  H13S18951   2.662   2.254   7.922  1.5392  0.3497  0.9907
  168SOPE  C21418952   2.612   2.353   8.104  0.3180  0.2125  0.7980
  168SOPE  H14R18953   2.521   2.301   8.142 -0.7214  1.2303 -0.2128
  168SOPE  H14S18954   2.607   2.458   8.139  0.6764 -0.1298  1.9165
  168SOPE  C21518955   2.727   2.283   8.169 -0.5008 -0.2523 -0.8698
  168SOPE  H15R18956   2.816   2.348   8.157 -1.6169  1.2530 -1.3234
  168SOPE  H15S18957   2.750   2.181   8.131  2.7223  0.1569 -0.3420
  168SOPE  C21618958   2.695   2.254   8.316 -0.4389  0.9033  0.0948
  168SOPE  H16R18959   2.614   2.180   8.332 -1.7093  2.3329  0.4360
  168SOPE  H16S18960   2.663   2.349   8.363  0.2374  1.1969 -0.0233
  168SOPE  C21718961   2.807   2.189   8.398  0.3908 -0.6066 -0.0932
  168SOPE  H17R18962   2.862   2.108   8.347 -0.0576 -0.7391 -0.3674
  168SOPE  H17S18963   2.753   2.133   8.477 -1.0588 -0.7530 -1.1376
  168SOPE  C21818964   2.897   2.300   8.462  0.9201 -0.6720  0.7859
  168SOPE  H18R18965   2.981   2.245   8.510  2.3839 -0.4480 -1.3719
  168SOPE  H18S18966   2.845   2.363   8.537  0.3965  1.2284 -1.0841
  168SOPE  H18T18967   2.942   2.374   8.393 -0.4459  1.3182  1.9108
  168SOPE   C3318968   2.820   2.655   6.719 -0.8095 -0.2800  0.1181
  168SOPE   H3X18969   2.918   2.607   6.702 -0.5032  0.1880  0.5100
  168SOPE   H3Y18970   2.761   2.572   6.763 -3.5334 -0.0531 -2.7438
  168SOPE   C3418971   2.829   2.769   6.820 -0.4720 -0.2726 -0.4503
  168SOPE   H4X18972   2.730   2.816   6.801 -0.0747  1.5012  1.4784
  168SOPE   H4Y18973   2.912   2.839   6.796  1.1293 -1.9953 -0.1441
  168SOPE   C3518974   2.834   2.729   6.969 -0.0563  0.4466 -0.1248
  168SOPE   H5X18975   2.928   2.671   6.979 -1.9459 -2.8453  0.1894
  168SOPE   H5Y18976   2.761   2.646   6.984  2.1025 -1.7801 -1.2135
  168SOPE   C3618977   2.805   2.838   7.079  0.4594  0.0250 -0.0055
  168SOPE   H6X18978   2.701   2.873   7.061 -0.3292 -1.7587  0.8078
  168SOPE   H6Y18979   2.878   2.919   7.058 -0.4819  1.0445  0.6113
  168SOPE   C3718980   2.823   2.791   7.225 -0.1339  0.1173  0.4155
  168SOPE   H7X18981   2.933   2.783   7.233 -0.1440 -1.5644 -0.7505
  168SOPE   H7Y18982   2.781   2.689   7.237 -1.5458  0.4356 -1.4337
  168SOPE   C3818983   2.762   2.890   7.325  0.4385 -0.1423  0.0590
  168SOPE   H8X18984   2.651   2.898   7.325  0.4487  0.5174  1.5721
  168SOPE   H8Y18985   2.792   2.995   7.308  2.3822 -0.6889 -0.0429
  168SOPE   C3918986   2.821   2.873   7.463  0.1628  1.2898 -0.2631
  168SOPE   H9X18987   2.930   2.851   7.452  0.2319 -0.0369  2.2445
  168SOPE   H9Y18988   2.769   2.782   7.501  0.9442  0.1236 -1.8415
  168SOPE  C31018989   2.808   2.991   7.564 -0.1500 -0.0091 -0.0098
  168SOPE  H10X18990   2.704   2.977   7.599  0.1634  1.0759  1.4074
  168SOPE  H10Y18991   2.820   3.085   7.506  0.1429  0.4091  0.7210
  168SOPE  C31118992   2.902   2.984   7.684 -0.0542  0.1725 -0.3791
  168SOPE  H11X18993   2.904   3.085   7.729  0.8180  0.5734 -1.2871
  168SOPE  H11Y18994   3.003   2.960   7.645  0.7191  0.1673  1.5052
  168SOPE  C31218995   2.853   2.872   7.787  0.2732 -0.3509 -0.2728
  168SOPE  H12X18996   2.892   2.774   7.752  1.9886  0.7049 -1.4981
  168SOPE  H12Y18997   2.742   2.871   7.787  0.1640  2.2842  1.5844
  168SOPE  C31318998   2.900   2.883   7.934 -0.6231 -0.1106 -0.5270
  168SOPE  H13X18999   2.838   2.818   7.999  0.2362 -0.7889 -0.3641
  168SOPE  H13Y19000   2.901   2.989   7.967 -1.5479 -0.6756  1.4766
  168SOPE  C31419001   3.043   2.837   7.951  0.4379 -0.2447 -0.0899
  168SOPE  H14X19002   3.112   2.891   7.883  0.7184 -0.3553  0.1045
  168SOPE  H14Y19003   3.045   2.731   7.917  0.7717  0.9183 -4.1279
  168SOPE  C31519004   3.101   2.849   8.096 -0.0001 -0.2884 -0.5987
  168SOPE  H15X19005   3.084   2.954   8.128 -2.4280 -0.4617 -1.1213
  168SOPE  H15Y19006   3.206   2.815   8.101  0.1993  0.2427 -1.0143
  168SOPE  C31619007   3.024   2.763   8.196 -0.4164 -0.0755 -0.4973
  168SOPE  H16X19008   3.037   2.656   8.166 -0.8798 -0.8274  1.8321
  168SOPE  H16Y19009   2.915   2.778   8.189 -0.3918  1.1602  1.2617
  168SOPE  C31719010   3.075   2.789   8.340  0.3184 -0.0359 -0.6266
  168SOPE  H17X19011   3.027   2.721   8.414  0.4703  0.6492  0.1234
  168SOPE  H17Y19012   3.044   2.891   8.370 -0.8524  0.2620 -2.7017
  168SOPE  C31819013   3.232   2.777   8.357 -0.2246  0.2642 -0.1749
  168SOPE  H18X19014   3.283   2.853   8.294 -0.5810  2.5037  2.0812
  168SOPE  H18Y19015   3.262   2.672   8.337  0.0856  0.3128  0.0366
  168SOPE  H18Z19016   3.248   2.805   8.463  1.7891  0.2235 -0.4225
  169SOPE     N19017   4.316   0.847   6.439 -0.2830  0.4126 -0.1586
  169SOPE   HN119018   4.405   0.882   6.480 -0.5666  0.9121  0.0449
  169SOPE   HN219019   4.283   0.776   6.507 -0.2178  2.5310  2.2353
  169SOPE   HN319020   4.357   0.807   6.352  1.5084 -1.6551  1.5359
  169SOPE   C1219021   4.212   0.951   6.403  0.8023  0.0549  0.3320
  169SOPE  H12A19022   4.254   1.015   6.323  1.6015 -1.0050 -0.1222
  169SOPE  H12B19023   4.193   1.012   6.494  0.6012  1.2629 -0.4854
  169SOPE   C1119024   4.081   0.888   6.350 -0.8329 -0.9258 -0.7044
  169SOPE  H11A19025   4.009   0.971   6.339  0.6107  0.9059  2.3313
  169SOPE  H11B19026   4.037   0.832   6.435 -0.0778  0.5511  0.7155
  169SOPE     P19027   3.980   0.770   6.139 -0.2939  0.4009 -0.6476
  169SOPE   O1319028   3.971   0.627   6.102 -0.5322  0.3273 -0.5089
  169SOPE   O1419029   3.993   0.862   6.030 -0.6530 -0.3511 -0.0837
  169SOPE   O1219030   4.094   0.803   6.239  0.1683 -0.3599  0.3426
  169SOPE   O1119031   3.857   0.815   6.227  0.2727 -0.2375 -0.9429
  169SOPE    C119032   3.794   0.743   6.334 -0.2662 -0.2796 -0.0345
  169SOPE    HA19033   3.869   0.698   6.402  1.9351  0.3048 -1.9498
  169SOPE    HB19034   3.731   0.663   6.289 -0.8770 -0.2304  0.7084
  169SOPE    C219035   3.701   0.839   6.416 -0.0461  0.1521  0.2352
  169SOPE    HS19036   3.643   0.893   6.339 -1.0197  2.7049  2.5938
  169SOPE   O2119037   3.787   0.939   6.476  0.0091 -0.2930 -0.3552
  169SOPE   C2119038   3.727   1.058   6.502 -0.6393  0.1506  0.5038
  169SOPE   O2219039   3.618   1.088   6.455 -0.1593 -0.0405 -0.0549
  169SOPE   C2219040   3.815   1.152   6.582 -0.2591 -0.3061 -0.2488
  169SOPE   H2R19041   3.746   1.233   6.614 -0.3062 -0.8590  1.1521
  169SOPE   H2S19042   3.889   1.195   6.511 -0.2315 -1.0964 -0.7044
  169SOPE    C319043   3.621   0.763   6.520  0.0559  0.5561  1.1634
  169SOPE    HX19044   3.556   0.687   6.473 -1.3250  2.1753  0.3460
  169SOPE    HY19045   3.544   0.831   6.564 -0.8602  0.5860 -0.4028
  169SOPE   O3119046   3.704   0.703   6.615  0.3117 -0.0583  0.2487
  169SOPE   C3119047   3.728   0.771   6.724 -0.2218 -0.2348 -0.1070
  169SOPE   O3219048   3.663   0.863   6.760  0.5709  0.2892  0.3381
  169SOPE   C3219049   3.856   0.721   6.800 -0.1638 -0.1399  0.3809
  169SOPE   H2X19050   3.938   0.769   6.742 -1.1079  1.2006  0.0946
  169SOPE   H2Y19051   3.862   0.611   6.810  1.6455  0.1330  3.4335
  169SOPE   C2319052   3.880   1.095   6.710  0.0326 -0.1929  0.3553
  169SOPE   H3R19053   3.949   1.016   6.676  0.6634 -0.1627  1.5258
  169SOPE   H3S19054   3.798   1.064   6.778 -1.3074  1.9001 -0.1989
  169SOPE   C2419055   3.968   1.194   6.788  0.2814  0.0634 -0.1193
  169SOPE   H4R19056   4.030   1.149   6.868 -0.1725 -0.7409 -0.2076
  169SOPE   H4S19057   4.055   1.210   6.721 -0.9024 -1.6054 -2.1729
  169SOPE   C2519058   3.908   1.325   6.842  0.1327  0.0294 -0.5122
  169SOPE   H5R19059   3.993   1.379   6.888  1.5228  0.6246 -3.5211
  169SOPE   H5S19060   3.872   1.391   6.760  0.8988 -0.4012 -1.2177
  169SOPE   C2619061   3.781   1.312   6.941  0.3822  0.4729  0.5306
  169SOPE   H6R19062   3.700   1.386   6.922 -1.3859 -1.3951  0.4190
  169SOPE   H6S19063   3.737   1.212   6.921  0.9985 -0.0800  1.8228
  169SOPE   C2719064   3.802   1.346   7.087  0.2493 -0.4689  0.0134
  169SOPE   H7R19065   3.820   1.455   7.087 -3.2240  0.2271  0.0699
  169SOPE   H7S19066   3.712   1.323   7.148  1.2616 -2.4260  0.8879
  169SOPE   C2819067   3.922   1.280   7.165 -0.1453 -0.1311 -0.4271
  169SOPE   H8R19068   3.909   1.171   7.152  1.0775 -0.1935 -1.2205
  169SOPE   H8S19069   4.009   1.303   7.101  0.1695 -0.2101 -0.0270
  169SOPE   C2919070   3.944   1.338   7.304 -0.7767  0.1500  0.3577
  169SOPE   H9119071   3.964   1.446   7.307  1.9136 -0.2957  0.6742
  169SOPE  C21019072   3.922   1.279   7.420  0.3378 -0.6227  0.0181
  169SOPE  H10119073   3.942   1.329   7.515  0.6348  0.6118 -0.6724
  169SOPE  C21119074   3.867   1.138   7.438  0.0322  0.0914  0.3895
  169SOPE  H11R19075   3.887   1.109   7.543  0.7947 -0.7992  0.0162
  169SOPE  H11S19076   3.904   1.073   7.356 -2.2247  0.0914 -0.7175
  169SOPE  C21219077   3.719   1.128   7.418  0.4165 -0.0127 -0.2067
  169SOPE  H12R19078   3.694   1.156   7.314  0.4270 -2.7066 -0.9968
  169SOPE  H12S19079   3.676   1.211   7.479  0.9550  1.1497 -1.3524
  169SOPE  C21319080   3.662   0.988   7.458 -0.5035 -0.0521  0.4226
  169SOPE  H13R19081   3.709   0.957   7.554  1.3709  1.8726  0.1870
  169SOPE  H13S19082   3.704   0.917   7.385  0.5608 -0.6051  1.5334
  169SOPE  C21419083   3.510   0.974   7.474  0.4499  0.4859 -0.0536
  169SOPE  H14R19084   3.480   0.874   7.434  3.1477 -0.6902  0.6467
  169SOPE  H14S19085   3.454   1.046   7.411 -0.1890  0.0445 -0.0036
  169SOPE  C21519086   3.471   0.987   7.622 -1.0649 -0.1779 -0.0359
  169SOPE  H15R19087   3.546   0.934   7.685  0.5683  2.5095  0.4307
  169SOPE  H15S19088   3.376   0.929   7.625 -1.2616  0.1501  0.1754
  169SOPE  C21619089   3.456   1.126   7.675 -0.5866 -0.2776 -0.5229
  169SOPE  H16R19090   3.412   1.180   7.588 -0.5438  0.0189 -0.3613
  169SOPE  H16S19091   3.554   1.175   7.697 -1.3082  0.0499  2.3805
  169SOPE  C21719092   3.366   1.124   7.798  0.3359  0.3354 -0.6712
  169SOPE  H17R19093   3.381   1.215   7.860  0.4056 -0.3811  0.3710
  169SOPE  H17S19094   3.393   1.045   7.870  1.6491  1.3438 -0.0076
  169SOPE  C21819095   3.213   1.113   7.771 -0.2287  0.0575  0.6846
  169SOPE  H18R19096   3.183   1.008   7.750  0.1172 -0.1865  1.3810
  169SOPE  H18S19097   3.185   1.175   7.683 -1.1179  0.1059  0.9976
  169SOPE  H18T19098   3.159   1.153   7.859  0.5353  0.1280  1.1325
  169SOPE   C3319099   3.853   0.781   6.942  0.0379 -0.2512  0.0883
  169SOPE   H3X19100   3.845   0.892   6.933 -0.5154 -0.4184 -2.0792
  169SOPE   H3Y19101   3.954   0.759   6.984 -1.1189 -0.6183  2.9147
  169SOPE   C3419102   3.743   0.726   7.034  0.1421  0.3091 -0.4597
  169SOPE   H4X19103   3.724   0.618   7.018 -1.4740  0.6987 -1.3832
  169SOPE   H4Y19104   3.648   0.781   7.016  0.1706  1.2451  1.8961
  169SOPE   C3519105   3.789   0.755   7.174 -0.5849  0.1756 -0.6769
  169SOPE   H5X19106   3.708   0.738   7.248  1.2704  0.4581  1.5691
  169SOPE   H5Y19107   3.827   0.859   7.178 -0.6000  0.2571 -2.2819
  169SOPE   C3619108   3.897   0.650   7.221 -0.1878 -0.3665  0.6098
  169SOPE   H6X19109   3.989   0.649   7.159 -0.4891 -1.9788  0.1467
  169SOPE   H6Y19110   3.851   0.549   7.215  1.4431 -1.1265  0.3001
  169SOPE   C3719111   3.947   0.669   7.362  0.2352  0.7062 -0.3472
  169SOPE   H7X19112   3.960   0.778   7.380  0.7335  0.7488 -0.9294
  169SOPE   H7Y19113   4.042   0.613   7.378  0.1527  0.5266 -0.4695
  169SOPE   C3819114   3.843   0.622   7.465  0.2721 -0.6046 -0.5590
  169SOPE   H8X19115   3.756   0.690   7.459  1.1775  0.9705  2.1993
  169SOPE   H8Y19116   3.812   0.515   7.460  0.5389 -0.9192  2.5070
  169SOPE   C3919117   3.888   0.655   7.612  0.0392  0.4145  0.6018
  169SOPE   H9X19118   3.926   0.759   7.621 -1.8493  0.9623  3.8849
  169SOPE   H9Y19119   3.962   0.584   7.654 -1.7684 -0.4841  2.4632
  169SOPE  C31019120   3.771   0.634   7.717  0.2590  0.5437  0.1463
  169SOPE  H10X19121   3.734   0.531   7.701  1.9545  0.0237 -0.6195
  169SOPE  H10Y19122   3.687   0.701   7.689 -0.8404 -0.0341  1.8646
  169SOPE  C31119123   3.820   0.665   7.856 -0.4048  0.9952 -0.2592
  169SOPE  H11X19124   3.847   0.773   7.856 -0.6639  1.2071  3.4937
  169SOPE  H11Y19125   3.903   0.594   7.875 -1.0760 -0.9823 -3.8363
  169SOPE  C31219126   3.703   0.648   7.963 -0.4778  0.3211  0.2380
  169SOPE  H12X19127   3.660   0.550   7.932  0.3284  0.2960 -0.8937
  169SOPE  H12Y19128   3.623   0.725   7.953 -0.4124  0.7491  2.6149
  169SOPE  C31319129   3.745   0.635   8.113 -0.1686 -0.4790 -0.1512
  169SOPE  H13X19130   3.846   0.589   8.114  1.6883  3.2453  1.2603
  169SOPE  H13Y19131   3.665   0.573   8.160 -0.4757 -0.2907 -0.4190
  169SOPE  C31419132   3.746   0.767   8.188 -0.2369  0.5677  0.2997
  169SOPE  H14X19133   3.641   0.802   8.200 -0.8560 -1.3035  0.6786
  169SOPE  H14Y19134   3.806   0.847   8.138 -0.3257  0.3260 -0.2041
  169SOPE  C31519135   3.800   0.759   8.328 -0.2548 -0.2641 -0.5733
  169SOPE  H15X19136   3.892   0.699   8.311  0.4436  0.6848 -0.2462
  169SOPE  H15Y19137   3.727   0.702   8.390 -0.5192  0.7106  0.0433
  169SOPE  C31619138   3.818   0.888   8.405  0.1512  0.4942 -0.4069
  169SOPE  H16X19139   3.907   0.942   8.364  0.7751  1.5076  2.0980
  169SOPE  H16Y19140   3.846   0.854   8.507 -1.7027 -0.7855 -0.2848
  169SOPE  C31719141   3.688   0.966   8.428  0.4497  0.3910 -0.0414
  169SOPE  H17X19142   3.625   0.898   8.489  0.1547 -0.3692 -1.1715
  169SOPE  H17Y19143   3.639   0.982   8.330  1.7458 -0.7314 -0.9098
  169SOPE  C31819144   3.712   1.104   8.499  0.2643  1.0170 -0.0606
  169SOPE  H18X19145   3.619   1.164   8.485 -1.6600 -1.2548  2.0396
  169SOPE  H18Y19146   3.799   1.151   8.447  0.7862 -0.6445 -0.7548
  169SOPE  H18Z19147   3.734   1.088   8.606 -0.7202 -0.8424 -0.0974
  170SOPE     N19148   3.830   2.015   5.954  0.0626 -0.3102 -0.1926
  170SOPE   HN119149   3.831   2.055   5.858  0.3410 -1.9946 -0.9336
  170SOPE   HN219150   3.819   2.090   6.025  0.1812 -0.4731 -0.0005
  170SOPE   HN319151   3.919   1.963   5.965  1.0059  1.2875  0.0336
  170SOPE   C1219152   3.717   1.930   5.994 -0.0625  0.5400  0.6329
  170SOPE  H12A19153   3.728   1.833   5.941  2.1989  1.1815 -0.1888
  170SOPE  H12B19154   3.621   1.979   5.965  0.7889  0.7421 -2.0911
  170SOPE   C1119155   3.709   1.896   6.144  0.4123  0.9577  0.0036
  170SOPE  H11A19156   3.620   1.830   6.153  0.3540  1.0384  0.0151
  170SOPE  H11B19157   3.690   1.986   6.205  1.8078  0.5693  1.0781
  170SOPE     P19158   3.934   1.900   6.270  0.1802  0.2420  0.1214
  170SOPE   O1319159   3.956   2.035   6.212 -0.7199  0.1188  0.6234
  170SOPE   O1419160   4.048   1.816   6.253 -0.8409 -0.2237 -0.4388
  170SOPE   O1219161   3.819   1.823   6.194  0.0305  0.0041 -0.2176
  170SOPE   O1119162   3.877   1.906   6.416  0.0370 -0.4095  0.0184
  170SOPE    C119163   3.825   1.781   6.470 -0.5787  0.1258  0.2094
  170SOPE    HA19164   3.895   1.695   6.459  0.9270  1.3114  0.1515
  170SOPE    HB19165   3.734   1.749   6.415 -1.0563  0.8284  0.5830
  170SOPE    C219166   3.784   1.803   6.618 -0.5407 -0.4445 -0.0755
  170SOPE    HS19167   3.714   1.889   6.627  1.1965  1.1048 -0.8717
  170SOPE   O2119168   3.903   1.819   6.696 -0.5640  0.1505 -0.1162
  170SOPE   C2119169   3.944   1.938   6.725 -0.2053 -0.7059  0.4423
  170SOPE   O2219170   3.897   2.046   6.685  0.1998 -0.0767 -0.8184
  170SOPE   C2219171   4.066   1.917   6.819 -0.4581 -0.3244 -0.6417
  170SOPE   H2R19172   4.103   2.021   6.829  0.7347 -0.9092  1.6320
  170SOPE   H2S19173   4.148   1.855   6.775 -0.3483 -0.6692  0.0343
  170SOPE    C319174   3.704   1.675   6.663 -0.0251 -0.5088  1.4592
  170SOPE    HX19175   3.778   1.595   6.643 -0.9067 -0.7783 -1.0262
  170SOPE    HY19176   3.614   1.665   6.598 -0.7085  0.5572  2.1960
  170SOPE   O3119177   3.676   1.674   6.809  0.0241  0.3139  0.2508
  170SOPE   C3119178   3.582   1.757   6.851  0.5094  0.2178 -0.5617
  170SOPE   O3219179   3.519   1.831   6.776 -0.1988  0.1897  0.7995
  170SOPE   C3219180   3.546   1.752   7.004 -0.7524  0.2729  0.7039
  170SOPE   H2X19181   3.482   1.662   7.015  0.2782 -0.7784 -1.3535
  170SOPE   H2Y19182   3.483   1.842   7.020 -0.0074  0.5514  2.2754
  170SOPE   C2319183   4.017   1.860   6.952 -0.3955 -0.0406  0.2848
  170SOPE   H3R19184   4.005   1.750   6.939 -0.4932 -0.3938  2.7665
  170SOPE   H3S19185   3.920   1.904   6.986 -1.1248 -2.6789  1.9513
  170SOPE   C2419186   4.110   1.895   7.068 -0.5369  0.1802  0.5247
  170SOPE   H4R19187   4.094   1.818   7.147 -0.4924  0.5894  0.9346
  170SOPE   H4S19188   4.218   1.880   7.044 -0.7250  0.2388 -0.3832
  170SOPE   C2519189   4.092   2.028   7.131  0.0453 -0.1276 -0.0555
  170SOPE   H5R19190   4.131   2.108   7.064 -0.7056 -0.5844 -1.0670
  170SOPE   H5S19191   3.983   2.048   7.136 -0.2423 -1.5882 -0.2118
  170SOPE   C2619192   4.163   2.037   7.276  0.8071 -0.0118 -0.7519
  170SOPE   H6R19193   4.271   2.013   7.267  0.4559 -2.8595  1.3390
  170SOPE   H6S19194   4.156   2.143   7.309  0.7014 -0.1982 -0.1722
  170SOPE   C2719195   4.097   1.945   7.382 -0.5364  0.0500  0.2773
  170SOPE   H7R19196   4.085   1.844   7.337  1.3158  0.0397 -0.2843
  170SOPE   H7S19197   4.158   1.929   7.474 -0.7475  0.6806  0.5333
  170SOPE   C2819198   3.957   1.990   7.412  0.1855 -0.6283 -0.1329
  170SOPE   H8R19199   3.899   2.000   7.318  1.9373  1.2552 -1.1048
  170SOPE   H8S19200   3.912   1.911   7.475 -2.6030  0.3102 -0.7931
  170SOPE   C2919201   3.941   2.118   7.486  0.1247  0.1385  0.4278
  170SOPE   H9119202   3.915   2.206   7.426  1.1682 -0.1236 -0.4273
  170SOPE  C21019203   3.955   2.135   7.619  0.4780  0.2782  0.1558
  170SOPE  H10119204   3.965   2.240   7.652 -1.1923 -0.3884  3.0687
  170SOPE  C21119205   3.981   2.032   7.729 -0.0570 -0.5551 -0.1133
  170SOPE  H11R19206   4.034   2.089   7.808  0.5635 -1.6660  0.2941
  170SOPE  H11S19207   4.049   1.956   7.686 -1.1130 -0.8808 -1.2617
  170SOPE  C21219208   3.845   1.972   7.776 -0.2622 -0.3417  0.2583
  170SOPE  H12R19209   3.819   1.896   7.698  3.1880 -2.1641  0.7106
  170SOPE  H12S19210   3.769   2.052   7.786 -0.5901 -0.6319  0.1185
  170SOPE  C21319211   3.852   1.901   7.912  0.0883 -0.0887  0.3112
  170SOPE  H13R19212   3.942   1.840   7.932 -0.3923 -0.8568  0.1849
  170SOPE  H13S19213   3.762   1.835   7.915  0.1300 -0.1168  1.6450
  170SOPE  C21419214   3.851   2.002   8.031 -0.1871  0.0017 -0.6146
  170SOPE  H14R19215   3.763   2.069   8.025  0.0533  0.2925 -1.0040
  170SOPE  H14S19216   3.933   2.075   8.012  0.1908 -0.5344 -1.0779
  170SOPE  C21519217   3.858   1.942   8.170 -0.0067  0.0465  0.5672
  170SOPE  H15R19218   3.873   2.027   8.241 -1.9704  0.7525  0.2102
  170SOPE  H15S19219   3.951   1.883   8.170  0.1460  0.2789  0.8682
  170SOPE  C21619220   3.739   1.855   8.215 -0.6521  1.2879  0.6649
  170SOPE  H16R19221   3.736   1.850   8.326  3.2946  0.4274  0.8744
  170SOPE  H16S19222   3.740   1.752   8.174 -1.3189  0.7142  2.0042
  170SOPE  C21719223   3.601   1.900   8.181  0.4658  0.0259 -0.1633
  170SOPE  H17R19224   3.603   1.901   8.070  0.4576 -2.3467 -0.2230
  170SOPE  H17S19225   3.583   2.002   8.222  1.4449 -0.4910  1.6936
  170SOPE  C21819226   3.493   1.809   8.236  0.5187 -0.0245 -0.1165
  170SOPE  H18R19227   3.398   1.863   8.217  2.8810  3.4857 -3.5517
  170SOPE  H18S19228   3.507   1.788   8.345  1.8903 -1.3126 -0.5103
  170SOPE  H18T19229   3.491   1.709   8.189 -0.3012 -0.3269  0.5442
  170SOPE   C3319230   3.660   1.741   7.110 -0.3392  0.1541  1.3385
  170SOPE   H3X19231   3.719   1.834   7.098 -3.6397  2.1152 -2.2383
  170SOPE   H3Y19232   3.729   1.659   7.079  2.4601  2.4830  0.9929
  170SOPE   C3419233   3.615   1.719   7.250 -0.4040  0.3923 -0.5210
  170SOPE   H4X19234   3.538   1.640   7.262  1.6414 -1.3007  3.2288
  170SOPE   H4Y19235   3.583   1.813   7.302  0.8757  0.7939 -0.4070
  170SOPE   C3519236   3.736   1.677   7.337 -0.7237 -0.7279  0.2712
  170SOPE   H5X19237   3.818   1.750   7.319  0.1745 -1.7456  0.1627
  170SOPE   H5Y19238   3.764   1.585   7.283  0.3524  0.3840 -1.1596
  170SOPE   C3619239   3.704   1.645   7.483  1.0498  0.0468 -0.2888
  170SOPE   H6X19240   3.637   1.557   7.479  1.7660 -0.5979  1.2432
  170SOPE   H6Y19241   3.654   1.727   7.539 -1.8286 -0.4515 -1.9662
  170SOPE   C3719242   3.832   1.606   7.557  0.1454 -0.0936  0.1532
  170SOPE   H7X19243   3.890   1.701   7.554  2.1530 -1.2884 -0.6994
  170SOPE   H7Y19244   3.900   1.526   7.521  0.5916  0.5251 -0.4227
  170SOPE   C3819245   3.792   1.591   7.702  0.6666 -0.4483 -0.5129
  170SOPE   H8X19246   3.717   1.664   7.739  0.5201 -1.2056  0.7534
  170SOPE   H8Y19247   3.884   1.601   7.765  0.0886  0.3208  0.2378
  170SOPE   C3919248   3.729   1.452   7.732 -0.0780  0.1864 -0.7562
  170SOPE   H9X19249   3.789   1.377   7.676  0.8000  0.1337  0.2167
  170SOPE   H9Y19250   3.623   1.446   7.699 -0.0427  0.3118 -0.8932
  170SOPE  C31019251   3.734   1.435   7.887 -0.3725 -0.2387 -0.2818
  170SOPE  H10X19252   3.682   1.516   7.942  0.4711  2.1649 -2.8108
  170SOPE  H10Y19253   3.839   1.446   7.922 -0.1064 -1.2050 -0.7403
  170SOPE  C31119254   3.686   1.290   7.930 -0.0983 -0.2104  0.6339
  170SOPE  H11X19255   3.734   1.216   7.862 -0.4051  0.4535 -0.3156
  170SOPE  H11Y19256   3.580   1.272   7.903 -0.0335 -0.9495  0.8423
  170SOPE  C31219257   3.720   1.250   8.072 -0.2429 -0.0329 -0.7043
  170SOPE  H12X19258   3.812   1.308   8.092 -0.7876  1.6446 -2.7521
  170SOPE  H12Y19259   3.752   1.143   8.069 -0.4494 -0.0801 -1.8649
  170SOPE  C31319260   3.620   1.266   8.187 -0.0739  0.3113  0.0339
  170SOPE  H13X19261   3.662   1.230   8.283  0.3904  1.1373  0.1547
  170SOPE  H13Y19262   3.525   1.212   8.169 -0.7717  1.0585  1.3315
  170SOPE  C31419263   3.600   1.414   8.215  0.2948  0.5001 -0.1627
  170SOPE  H14X19264   3.538   1.463   8.136 -2.7073 -0.6769  1.3182
  170SOPE  H14Y19265   3.698   1.466   8.210 -0.8080  2.5878 -1.3640
  170SOPE  C31519266   3.531   1.431   8.353  0.1125  0.1261  0.3280
  170SOPE  H15X19267   3.546   1.537   8.382  0.0321  0.9353 -2.2495
  170SOPE  H15Y19268   3.569   1.374   8.439 -0.4833 -2.3379 -0.9478
  170SOPE  C31619269   3.373   1.421   8.343  1.2666  0.1965  0.1895
  170SOPE  H16X19270   3.341   1.318   8.370 -1.4332  0.5194 -1.4884
  170SOPE  H16Y19271   3.347   1.437   8.236  0.1888  0.4082  0.4687
  170SOPE  C31719272   3.308   1.530   8.428 -0.8484  0.3836  0.1724
  170SOPE  H17X19273   3.322   1.623   8.370 -0.2874 -0.3822 -0.9731
  170SOPE  H17Y19274   3.369   1.542   8.520  1.4401 -1.4412 -0.9789
  170SOPE  C31819275   3.155   1.510   8.452  0.2678 -0.0102  0.0552
  170SOPE  H18X19276   3.118   1.419   8.504 -2.2505  0.0774 -1.4466
  170SOPE  H18Y19277   3.106   1.514   8.353 -0.6675  0.1244  0.5137
  170SOPE  H18Z19278   3.119   1.595   8.513  0.4833 -0.1434  0.3762
  171SOPE     N19279   6.788   4.292   6.406 -0.0172 -0.7148 -0.0152
  171SOPE   HN119280   6.836   4.313   6.496 -1.0247 -0.7950  0.5478
  171SOPE   HN219281   6.714   4.229   6.441  1.4159 -2.8799 -0.7002
  171SOPE   HN319282   6.845   4.234   6.341  2.6279  2.4441 -0.8018
  171SOPE   C1219283   6.717   4.413   6.340 -0.5954  0.8789  0.0796
  171SOPE  H12A19284   6.629   4.429   6.405  0.2682 -0.5893  1.6825
  171SOPE  H12B19285   6.673   4.382   6.242 -0.3468  2.8594 -0.6965
  171SOPE   C1119286   6.808   4.528   6.322 -0.0950  0.3656 -0.0801
  171SOPE  H11A19287   6.897   4.499   6.261 -0.5288 -0.4153 -0.3538
  171SOPE  H11B19288   6.857   4.567   6.414  0.4599  2.1848 -1.1107
  171SOPE     P19289   6.631   4.713   6.317  0.0205  0.0918  0.0538
  171SOPE   O1319290   6.509   4.712   6.233  0.6000  0.7266 -0.5618
  171SOPE   O1419291   6.692   4.841   6.352  0.4723  0.4347  0.3990
  171SOPE   O1219292   6.744   4.627   6.247  0.4471 -0.6276  0.6695
  171SOPE   O1119293   6.604   4.639   6.459 -0.2781  0.4684  0.3574
  171SOPE    C119294   6.669   4.708   6.570  0.4290  0.7585  0.4074
  171SOPE    HA19295   6.626   4.810   6.582  0.3324  0.6617  0.9272
  171SOPE    HB19296   6.779   4.717   6.554  0.8902 -3.6815 -0.0879
  171SOPE    C219297   6.652   4.646   6.715 -0.4214  0.7465 -0.5524
  171SOPE    HS19298   6.715   4.555   6.703 -1.8965 -0.3720 -0.0174
  171SOPE   O2119299   6.515   4.620   6.746 -0.8265 -0.6592  0.3793
  171SOPE   C2119300   6.495   4.492   6.778  0.1731 -0.5255 -0.0170
  171SOPE   O2219301   6.574   4.404   6.795 -0.2695 -0.6167 -0.1813
  171SOPE   C2219302   6.348   4.469   6.819 -0.6434 -0.0516  0.1510
  171SOPE   H2R19303   6.316   4.413   6.730  1.3947  0.8464 -1.2247
  171SOPE   H2S19304   6.291   4.563   6.833 -0.2237 -0.1122  2.9221
  171SOPE    C319305   6.720   4.736   6.823  0.4321 -0.2204 -0.1341
  171SOPE    HX19306   6.717   4.845   6.803 -1.2653 -0.1072  0.5711
  171SOPE    HY19307   6.826   4.707   6.812  0.1985 -0.4481 -2.1805
  171SOPE   O3119308   6.666   4.712   6.957 -0.5745 -0.2848  0.0237
  171SOPE   C3119309   6.719   4.785   7.060 -0.5582 -0.4095  0.5080
  171SOPE   O3219310   6.806   4.869   7.056  0.6331 -0.5695  0.2163
  171SOPE   C3219311   6.662   4.735   7.189 -0.5583  0.9017  0.3174
  171SOPE   H2X19312   6.728   4.651   7.221 -0.0687  0.4355 -1.7407
  171SOPE   H2Y19313   6.564   4.686   7.173 -0.3541  0.3314  0.7842
  171SOPE   C2319314   6.324   4.390   6.955  0.0581  0.0437 -0.2469
  171SOPE   H3R19315   6.402   4.311   6.965 -0.3483 -0.2229  1.0784
  171SOPE   H3S19316   6.232   4.331   6.941  0.6917 -1.2525  0.8363
  171SOPE   C2419317   6.308   4.470   7.085 -0.0397 -0.0940  0.1157
  171SOPE   H4R19318   6.403   4.528   7.095 -1.9985  3.3175  0.5882
  171SOPE   H4S19319   6.223   4.540   7.067  0.1538 -0.1723 -1.1429
  171SOPE   C2519320   6.278   4.381   7.210  0.3075 -0.6485  0.3796
  171SOPE   H5R19321   6.177   4.338   7.193  0.2312 -0.5681  0.6229
  171SOPE   H5S19322   6.351   4.298   7.210  0.2117 -0.7522  2.2047
  171SOPE   C2619323   6.292   4.457   7.342 -0.6231  0.3129  0.0821
  171SOPE   H6R19324   6.400   4.480   7.345 -0.2699 -1.2885  1.9981
  171SOPE   H6S19325   6.232   4.550   7.338  0.3578  0.9088 -1.3358
  171SOPE   C2719326   6.246   4.378   7.467  0.3107 -0.0293  0.3202
  171SOPE   H7R19327   6.145   4.337   7.445  1.0155 -0.6346 -2.1190
  171SOPE   H7S19328   6.303   4.284   7.470  1.1629  0.5002  1.1007
  171SOPE   C2819329   6.245   4.454   7.600  0.3632 -0.0875 -0.0252
  171SOPE   H8R19330   6.349   4.494   7.612  0.6043 -0.8557  0.5118
  171SOPE   H8S19331   6.176   4.538   7.578 -0.3620 -0.8378 -0.6670
  171SOPE   C2919332   6.218   4.363   7.716  0.6817  0.1476  0.2719
  171SOPE   H9119333   6.267   4.264   7.711 -0.5891 -0.4687 -0.6743
  171SOPE  C21019334   6.135   4.399   7.819 -0.4659 -0.3253 -0.6354
  171SOPE  H10119335   6.126   4.334   7.908  0.1387  0.1453 -0.2231
  171SOPE  C21119336   6.064   4.528   7.840  0.9987  0.3008  0.0472
  171SOPE  H11R19337   5.957   4.505   7.861  1.4429 -1.5536  0.4104
  171SOPE  H11S19338   6.065   4.596   7.752 -0.3573  1.1755  0.6610
  171SOPE  C21219339   6.113   4.609   7.966 -0.3189 -0.0329  0.4892
  171SOPE  H12R19340   6.056   4.704   7.959  0.9973  0.6494 -1.5662
  171SOPE  H12S19341   6.220   4.633   7.947 -0.4534  1.4009  1.3384
  171SOPE  C21319342   6.093   4.545   8.106 -0.5443 -0.0161  0.1441
  171SOPE  H13R19343   6.120   4.615   8.188 -0.8600 -0.8715  0.9989
  171SOPE  H13S19344   6.160   4.457   8.120 -0.1990 -0.4530 -3.3648
  171SOPE  C21419345   5.946   4.527   8.141 -0.2829  0.0106  0.9532
  171SOPE  H14R19346   5.901   4.454   8.070  1.1225  0.3525 -0.3388
  171SOPE  H14S19347   5.897   4.620   8.103  1.7200  0.8530  0.3288
  171SOPE  C21519348   5.917   4.509   8.288  0.3299  0.1019  0.1135
  171SOPE  H15R19349   5.967   4.593   8.340  0.2927  0.3472 -0.2486
  171SOPE  H15S19350   5.975   4.419   8.316  0.4422  0.3527  0.6887
  171SOPE  C21619351   5.772   4.505   8.335  0.2158 -0.4220  0.3552
  171SOPE  H16R19352   5.720   4.423   8.282  1.4669 -1.9128  1.3451
  171SOPE  H16S19353   5.721   4.601   8.311  0.2585  0.4063  3.1552
  171SOPE  C21719354   5.762   4.496   8.487 -0.4126  0.7411  0.0340
  171SOPE  H17R19355   5.655   4.502   8.515 -0.4517 -0.4501  0.1680
  171SOPE  H17S19356   5.811   4.584   8.533 -3.1978  1.9058  0.9669
  171SOPE  C21819357   5.810   4.362   8.542 -1.2989  0.1006  0.7111
  171SOPE  H18R19358   5.799   4.383   8.651 -1.1274  2.8705  0.2673
  171SOPE  H18S19359   5.917   4.339   8.528 -1.5420 -1.4894  1.2292
  171SOPE  H18T19360   5.750   4.279   8.499 -0.0921  0.1725 -1.2370
  171SOPE   C3319361   6.652   4.832   7.307 -0.2840 -0.4069  0.4010
  171SOPE   H3X19362   6.583   4.912   7.273  0.4450  0.7823  1.6293
  171SOPE   H3Y19363   6.750   4.878   7.333 -0.3589  0.9630 -1.5485
  171SOPE   C3419364   6.590   4.769   7.432  0.1878  0.2630  0.3369
  171SOPE   H4X19365   6.663   4.694   7.470 -0.4622  0.1510  1.4103
  171SOPE   H4Y19366   6.495   4.717   7.408 -1.1599  1.8737  1.9396
  171SOPE   C3519367   6.570   4.869   7.543 -0.3542  0.4219 -0.0399
  171SOPE   H5X19368   6.478   4.924   7.511 -0.7062 -0.7645 -1.1401
  171SOPE   H5Y19369   6.660   4.933   7.557  1.3458 -1.8853  0.1098
  171SOPE   C3619370   6.553   4.796   7.680  0.7287  0.2025  0.2385
  171SOPE   H6X19371   6.641   4.732   7.702  0.1029 -0.6455  0.3244
  171SOPE   H6Y19372   6.468   4.725   7.684 -0.9785  2.1591  0.0145
  171SOPE   C3719373   6.536   4.895   7.800 -0.0850  0.0581  0.6503
  171SOPE   H7X19374   6.482   4.988   7.772  2.1240  1.0687 -0.4898
  171SOPE   H7Y19375   6.637   4.933   7.828  0.1643  0.6794 -0.9730
  171SOPE   C3819376   6.461   4.835   7.917 -0.1002  0.2534 -0.1509
  171SOPE   H8X19377   6.502   4.735   7.942  0.9211  0.5602 -0.5674
  171SOPE   H8Y19378   6.356   4.817   7.886  0.2203 -0.7475 -0.6969
  171SOPE   C3919379   6.452   4.929   8.030 -0.4809  0.0229 -0.5512
  171SOPE   H9X19380   6.403   5.021   7.990 -0.0442  1.4552  1.9758
  171SOPE   H9Y19381   6.550   4.971   8.062  0.1357 -1.0030 -1.0624
  171SOPE  C31019382   6.372   4.868   8.147  0.8921 -0.1279 -0.1853
  171SOPE  H10X19383   6.438   4.802   8.207  1.2147  0.8834  0.6166
  171SOPE  H10Y19384   6.280   4.818   8.109  0.0014  0.8324  0.6256
  171SOPE  C31119385   6.329   4.986   8.242  0.1149  0.0779  0.3490
  171SOPE  H11X19386   6.283   5.066   8.180 -0.8989 -0.7462  0.0302
  171SOPE  H11Y19387   6.421   5.026   8.291  0.0527  1.0588 -0.2938
  171SOPE  C31219388   6.224   4.952   8.346 -0.4956  0.3198  0.5670
  171SOPE  H12X19389   6.267   4.872   8.410  0.1843 -0.5202 -0.8961
  171SOPE  H12Y19390   6.139   4.902   8.295 -0.0307 -1.3940  1.3920
  171SOPE  C31319391   6.183   5.069   8.430  0.3657  0.1439  0.2967
  171SOPE  H13X19392   6.152   5.157   8.369 -1.5881 -0.7855 -0.1139
  171SOPE  H13Y19393   6.270   5.089   8.497  1.8247  0.2789 -1.5577
  171SOPE  C31419394   6.070   5.044   8.530  0.8913 -0.3660 -0.2402
  171SOPE  H14X19395   6.101   4.964   8.601  2.4433 -0.0734 -0.5477
  171SOPE  H14Y19396   5.979   5.004   8.481  0.3294  0.6027  0.0019
  171SOPE  C31519397   6.026   5.168   8.612 -0.3850  0.3617  0.1089
  171SOPE  H15X19398   5.968   5.243   8.552 -2.5810 -1.9568 -0.8721
  171SOPE  H15Y19399   6.117   5.224   8.641 -0.9503  0.9687  0.7727
  171SOPE  C31619400   5.937   5.135   8.731 -0.9154  0.3109  0.1130
  171SOPE  H16X19401   5.970   5.033   8.759  1.2034  0.0707 -2.7634
  171SOPE  H16Y19402   5.834   5.119   8.691 -0.0101 -2.5420 -1.3550
  171SOPE  C31719403   5.921   5.239   8.845 -0.0702 -0.3362 -0.9504
  171SOPE  H17X19404   6.017   5.281   8.883 -2.4130  1.9371  3.1721
  171SOPE  H17Y19405   5.878   5.187   8.933 -1.4515  2.3456  0.0368
  171SOPE  C31819406   5.829   5.355   8.810  0.2320  0.1128 -0.3345
  171SOPE  H18X19407   5.861   5.409   8.718  0.8659  1.1186  0.4555
  171SOPE  H18Y19408   5.832   5.431   8.891  0.5570 -0.5253  0.2600
  171SOPE  H18Z19409   5.723   5.329   8.789  0.3528 -0.4165 -0.3125
  172SOPE     N19410   0.149   5.542   6.322  0.6290  0.3230  0.0832
  172SOPE   HN119411   0.247   5.556   6.290  1.4793 -1.5942  1.6033
  172SOPE   HN219412   0.084   5.601   6.267  0.0106 -0.2263  0.2149
  172SOPE   HN319413   0.144   5.585   6.417  0.2771  0.3404  0.0562
  172SOPE   C1219414   0.087   5.402   6.315 -0.0108  0.1696  0.2180
  172SOPE  H12A19415   0.154   5.330   6.264 -1.4171 -1.6601  0.8576
  172SOPE  H12B19416  -0.005   5.415   6.254 -0.0567  0.2265  0.2986
  172SOPE   C1119417   0.057   5.359   6.457  0.9532  0.0071 -0.2050
  172SOPE  H11A19418   0.145   5.336   6.521 -0.3383 -2.8094  0.6970
  172SOPE  H11B19419   0.023   5.254   6.458  0.5216  0.1279 -1.1034
  172SOPE     P19420  -0.000   5.541   6.639  0.6552  0.0774  0.5988
  172SOPE   O1319421  -0.117   5.625   6.679  0.0415 -0.3088 -0.2749
  172SOPE   O1419422   0.126   5.601   6.597  0.5686 -0.0100 -0.0815
  172SOPE   O1219423  -0.039   5.446   6.519  0.3922  0.0432 -0.4115
  172SOPE   O1119424   0.036   5.440   6.760 -0.2634 -0.5301 -0.8950
  172SOPE    C119425  -0.053   5.329   6.796  0.2160  0.2362  0.2671
  172SOPE    HA19426  -0.111   5.292   6.709  0.3703  1.5198 -0.4075
  172SOPE    HB19427  -0.127   5.347   6.878  2.2596  1.3258  1.9632
  172SOPE    C219428   0.019   5.200   6.845 -0.1237  0.1609 -0.1528
  172SOPE    HS19429  -0.049   5.118   6.814 -1.0486  1.4952 -1.8597
  172SOPE   O2119430   0.045   5.201   6.989 -0.4370 -0.2155 -0.0190
  172SOPE   C2119431  -0.064   5.175   7.066  0.3494 -0.3193 -0.6134
  172SOPE   O2219432  -0.177   5.148   7.038 -0.0860 -0.8553  0.3270
  172SOPE   C2219433  -0.021   5.162   7.206  0.2258 -0.2081  0.4939
  172SOPE   H2R19434   0.074   5.104   7.212  0.9923  1.1035  1.8751
  172SOPE   H2S19435  -0.094   5.106   7.267 -1.2010  2.1852  1.1188
  172SOPE    C319436   0.157   5.180   6.769 -0.1832  0.0194  0.0378
  172SOPE    HX19437   0.217   5.271   6.788  1.0895 -1.2034  2.4205
  172SOPE    HY19438   0.134   5.177   6.660 -2.0023  3.3140  0.2180
  172SOPE   O3119439   0.231   5.059   6.802  0.1700  0.2405  0.0428
  172SOPE   C3119440   0.296   5.066   6.920 -0.2061 -0.5155 -0.5737
  172SOPE   O3219441   0.309   5.170   6.985 -0.2416  0.2867  0.8858
  172SOPE   C3219442   0.342   4.924   6.968  0.1022 -0.0115  0.4911
  172SOPE   H2X19443   0.425   4.903   6.898 -1.5037  0.4959 -1.7010
  172SOPE   H2Y19444   0.264   4.849   6.944 -1.3911  2.5106 -3.5651
  172SOPE   C2319445   0.010   5.301   7.272  0.7080 -0.3021  0.3135
  172SOPE   H3R19446  -0.083   5.349   7.309 -0.1979 -1.2141 -0.7047
  172SOPE   H3S19447   0.058   5.372   7.202  0.9561 -0.0320  0.7528
  172SOPE   C2419448   0.090   5.279   7.400  0.0160  0.1702 -0.2211
  172SOPE   H4R19449   0.153   5.190   7.381  0.8371  0.8130 -0.5807
  172SOPE   H4S19450   0.155   5.366   7.426  1.4573 -0.3127 -2.0381
  172SOPE   C2519451   0.000   5.261   7.523  0.0958  0.0060  0.0673
  172SOPE   H5R19452  -0.048   5.359   7.547  3.3912  1.6124  0.7946
  172SOPE   H5S19453  -0.075   5.182   7.502  0.4400  0.3277 -2.7231
  172SOPE   C2619454   0.077   5.218   7.646  0.1285  0.1318 -0.2326
  172SOPE   H6R19455   0.157   5.143   7.632 -1.6369 -1.5024 -2.3293
  172SOPE   H6S19456   0.124   5.311   7.684 -0.2793  0.2085  0.0962
  172SOPE   C2719457  -0.004   5.181   7.762 -0.5419 -0.1442  0.7601
  172SOPE   H7R19458  -0.081   5.261   7.767 -0.6102 -0.1130 -0.4627
  172SOPE   H7S19459  -0.053   5.083   7.747 -3.0159  1.1192 -0.0177
  172SOPE   C2819460   0.074   5.181   7.887  0.0826 -0.2024 -0.2786
  172SOPE   H8R19461   0.166   5.123   7.861  0.2348  0.4772 -1.3306
  172SOPE   H8S19462   0.107   5.283   7.917  0.0422  0.3368 -1.9724
  172SOPE   C2919463  -0.006   5.114   7.992  0.8378 -0.4543 -0.1098
  172SOPE   H9119464  -0.112   5.091   7.972  0.8236 -0.2893 -0.2281
  172SOPE  C21019465   0.039   5.098   8.125  0.2426  0.3016  0.3221
  172SOPE  H10119466  -0.021   5.034   8.192 -0.4541  1.4239  0.8087
  172SOPE  C21119467   0.174   5.137   8.183  0.1659 -0.0003 -0.1058
  172SOPE  H11R19468   0.173   5.213   8.264  0.8660 -1.1487  1.0123
  172SOPE  H11S19469   0.241   5.176   8.103  2.3862  0.1270  1.7184
  172SOPE  C21219470   0.246   5.007   8.244 -0.0128 -0.1666  0.0276
  172SOPE  H12R19471   0.178   4.962   8.320  0.7840 -0.9377  0.2947
  172SOPE  H12S19472   0.326   5.049   8.309  1.0779 -2.0777 -0.0155
  172SOPE  C21319473   0.307   4.903   8.153  0.6647 -0.4025  0.3480
  172SOPE  H13R19474   0.398   4.937   8.099  0.6207 -0.1547  0.4268
  172SOPE  H13S19475   0.227   4.873   8.081 -2.2187  1.1515  2.6730
  172SOPE  C21419476   0.352   4.765   8.220  0.1073 -0.9003 -0.4474
  172SOPE  H14R19477   0.385   4.694   8.141  0.8730 -0.1223 -0.8429
  172SOPE  H14S19478   0.260   4.719   8.262  0.4442 -0.5878  0.6529
  172SOPE  C21519479   0.467   4.789   8.322  0.3164  0.1887 -0.0146
  172SOPE  H15R19480   0.491   4.691   8.369 -1.0203 -0.0473  0.2391
  172SOPE  H15S19481   0.431   4.849   8.408 -0.8592 -1.4707  0.7180
  172SOPE  C21619482   0.593   4.852   8.268 -0.5855 -0.4095  0.0566
  172SOPE  H16R19483   0.562   4.957   8.249  0.8911  0.1431  0.5762
  172SOPE  H16S19484   0.638   4.804   8.179 -1.0536 -0.4294 -0.1728
  172SOPE  C21719485   0.706   4.868   8.363 -0.3882  0.6971 -0.7484
  172SOPE  H17R19486   0.671   4.836   8.463 -2.9196 -2.4024 -2.4779
  172SOPE  H17S19487   0.738   4.974   8.370 -0.6536  0.7527 -0.3945
  172SOPE  C21819488   0.827   4.783   8.315  0.6566  0.4950 -0.2199
  172SOPE  H18R19489   0.863   4.787   8.210  0.4967 -0.3856 -0.3120
  172SOPE  H18S19490   0.791   4.680   8.334 -2.7712  1.4180 -0.9905
  172SOPE  H18T19491   0.915   4.803   8.380  0.9275  1.9376 -0.9793
  172SOPE   C3319492   0.395   4.916   7.117  0.3235  0.4659 -0.0449
  172SOPE   H3X19493   0.472   4.995   7.135  0.0630  0.7362 -0.1161
  172SOPE   H3Y19494   0.445   4.817   7.118 -1.0671 -0.3350  2.9929
  172SOPE   C3419495   0.289   4.903   7.224 -0.1963 -0.5078 -0.7698
  172SOPE   H4X19496   0.203   4.840   7.191 -1.7616  1.3454 -0.4313
  172SOPE   H4Y19497   0.246   5.004   7.239  0.7920 -0.0650 -0.8470
  172SOPE   C3519498   0.338   4.858   7.364 -0.4607 -0.2665 -0.3031
  172SOPE   H5X19499   0.420   4.924   7.399 -1.6839  1.3720 -0.4081
  172SOPE   H5Y19500   0.386   4.760   7.344 -1.9778 -1.0413 -0.2410
  172SOPE   C3619501   0.225   4.848   7.464 -0.1551  0.1868 -0.3562
  172SOPE   H6X19502   0.140   4.797   7.413 -0.8576  2.1997 -1.2831
  172SOPE   H6Y19503   0.183   4.949   7.480 -2.4774 -0.3358 -2.4239
  172SOPE   C3719504   0.263   4.781   7.601  0.2357 -0.6224 -0.4014
  172SOPE   H7X19505   0.320   4.855   7.660  0.7903  2.0255 -3.9306
  172SOPE   H7Y19506   0.316   4.685   7.580  0.2026 -0.8963  0.7380
  172SOPE   C3819507   0.131   4.757   7.673 -0.0577  0.1480  0.5618
  172SOPE   H8X19508   0.073   4.689   7.606 -0.4519  1.4458 -0.4425
  172SOPE   H8Y19509   0.071   4.850   7.682  1.7857  1.4782 -0.2837
  172SOPE   C3919510   0.148   4.698   7.816  0.1430  0.3251 -0.1125
  172SOPE   H9X19511   0.175   4.775   7.891  1.2937 -0.5778  0.4488
  172SOPE   H9Y19512   0.221   4.614   7.821 -2.4845 -2.3003 -2.2265
  172SOPE  C31019513   0.017   4.653   7.875 -0.1775 -0.0341 -0.3355
  172SOPE  H10X19514  -0.034   4.592   7.798  1.4169  1.1423 -2.3997
  172SOPE  H10Y19515  -0.035   4.752   7.879  0.3359  0.2942 -1.5683
  172SOPE  C31119516   0.032   4.594   8.020 -0.5901  0.0308 -0.2884
  172SOPE  H11X19517   0.122   4.642   8.063 -0.3856  0.7103 -1.4135
  172SOPE  H11Y19518   0.058   4.487   8.003 -1.8057 -0.9937  3.3608
  172SOPE  C31219519  -0.099   4.597   8.102  0.1515 -0.3202 -0.3518
  172SOPE  H12X19520  -0.149   4.697   8.100  1.6806  0.4921  0.3520
  172SOPE  H12Y19521  -0.075   4.565   8.206  1.7234  0.9916 -0.2715
  172SOPE  C31319522  -0.202   4.490   8.054 -0.1438  0.3962 -0.1351
  172SOPE  H13X19523  -0.157   4.391   8.079  1.3604  0.5174 -2.1106
  172SOPE  H13Y19524  -0.212   4.491   7.943 -1.8098  3.6566 -0.0645
  172SOPE  C31419525  -0.332   4.486   8.137  0.0115 -0.0225 -0.1762
  172SOPE  H14X19526  -0.395   4.406   8.093 -0.6058 -0.2836  1.1364
  172SOPE  H14Y19527  -0.384   4.584   8.136 -0.1759 -0.1259 -0.4491
  172SOPE  C31519528  -0.302   4.452   8.290  0.8757 -0.2419  0.1605
  172SOPE  H15X19529  -0.235   4.525   8.339 -0.3697  1.2615 -0.3009
  172SOPE  H15Y19530  -0.261   4.349   8.289  2.8451  0.4038 -3.5685
  172SOPE  C31619531  -0.436   4.447   8.367  0.0499  0.3320 -0.3917
  172SOPE  H16X19532  -0.521   4.412   8.304 -1.3324 -0.1666  1.6327
  172SOPE  H16Y19533  -0.464   4.548   8.402 -0.0051  0.3757 -0.5580
  172SOPE  C31719534  -0.439   4.346   8.485 -0.0346  0.1853 -0.2200
  172SOPE  H17X19535  -0.354   4.386   8.544  1.4480  1.7085 -3.1609
  172SOPE  H17Y19536  -0.409   4.244   8.453 -0.5716  0.3541 -1.3102
  172SOPE  C31819537  -0.558   4.350   8.581 -0.3503  0.1192 -0.0489
  172SOPE  H18X19538  -0.590   4.455   8.600 -2.1236 -0.2821 -0.5954
  172SOPE  H18Y19539  -0.528   4.330   8.686  2.5152 -0.4942 -0.9100
  172SOPE  H18Z19540  -0.640   4.280   8.553 -0.7872 -0.4291  2.3614
  173SAPI   C1219541   3.097   5.974  10.875  0.2429 -0.0106  0.2077
  173SAPI    H219542   3.125   5.949  10.770 -1.5015 -0.8386 -0.1003
  173SAPI    O219543   3.189   5.905  10.963 -0.0167 -0.0064  0.0052
  173SAPI   HO219544   3.266   5.961  10.974 -0.9548  0.9148  2.6704
  173SAPI   C1319545   3.114   6.125  10.882 -0.1777 -0.3206 -0.3050
  173SAPI    H319546   3.062   6.162  10.791  1.3035 -1.4179 -1.6606
  173SAPI    O319547   3.253   6.156  10.858 -0.0688 -0.1333  0.4342
  173SAPI   HO319548   3.251   6.252  10.859 -1.3580 -0.1379  1.1192
  173SAPI   C1419549   3.066   6.189  11.011  0.0112  0.9262 -0.0242
  173SAPI    H419550   3.130   6.150  11.093 -2.0280  2.6855  2.6051
  173SAPI    O419551   3.090   6.330  11.008  0.2790  0.3032 -0.3375
  173SAPI   HO419552   3.099   6.359  11.099 -0.5553  0.3481 -0.2538
  173SAPI   C1519553   2.926   6.144  11.037  0.2332 -0.1896 -0.5737
  173SAPI    H519554   2.850   6.186  10.967 -1.4753 -0.2014  1.2121
  173SAPI    O519555   2.892   6.190  11.168  0.3534 -0.4215 -0.0451
  173SAPI   HO519556   2.864   6.282  11.164  1.4023 -0.0353  0.8294
  173SAPI   C1619557   2.898   5.988  11.019  0.2899 -0.1209 -0.0297
  173SAPI    H619558   2.944   5.933  11.103 -1.1582 -0.8002  0.3465
  173SAPI    O619559   2.759   5.968  11.040  0.0183 -0.4790 -0.3651
  173SAPI   HO619560   2.723   5.973  10.951 -0.3545  2.3639 -0.1610
  173SAPI   C1119561   2.948   5.933  10.885  0.0862  0.1478 -0.2386
  173SAPI    H119562   2.889   5.983  10.805  1.1064 -1.6141 -2.2083
  173SAPI     P19563   2.875   5.728  10.739  0.0824  0.3428 -0.0563
  173SAPI   O1319564   2.895   5.584  10.754 -0.5461 -1.0375  0.1800
  173SAPI   O1419565   2.945   5.796  10.627  0.8183  0.0799  0.1928
  173SAPI   O1219566   2.927   5.789  10.880 -0.0331  0.3044 -0.1467
  173SAPI   O1119567   2.719   5.757  10.738 -0.1642 -0.6463  0.2414
  173SAPI    C119568   2.616   5.658  10.713 -0.2317  0.6016  0.6058
  173SAPI    HA19569   2.624   5.573  10.783  1.4579 -0.0913 -0.3523
  173SAPI    HB19570   2.520   5.707  10.741  0.0300  1.4304  0.0846
  173SAPI    C219571   2.599   5.626  10.562  0.6264  0.2322 -0.1838
  173SAPI    HS19572   2.504   5.568  10.551 -0.0335  1.8017 -4.4161
  173SAPI   O2119573   2.701   5.556  10.497  0.0458 -0.0425  0.6738
  173SAPI   C2119574   2.722   5.433  10.537 -0.6510  0.2908 -0.4914
  173SAPI   O2219575   2.658   5.370  10.625 -1.0987 -0.1366 -0.2607
  173SAPI   C2219576   2.828   5.364  10.454 -0.1823 -0.5225 -0.5078
  173SAPI   H2R19577   2.826   5.421  10.358 -2.2743  0.8144  0.2511
  173SAPI   H2S19578   2.917   5.388  10.515 -1.0225 -0.2606  0.6634
  173SAPI    C319579   2.569   5.756  10.482  0.4943  0.8700  0.3370
  173SAPI    HX19580   2.662   5.814  10.466  1.0032 -0.0594 -0.1373
  173SAPI    HY19581   2.482   5.796  10.538 -0.8089  0.1988 -1.1259
  173SAPI   O3119582   2.511   5.713  10.348  0.4256  0.4469 -0.6276
  173SAPI   C3119583   2.602   5.682  10.258  0.1910 -0.7162 -0.3043
  173SAPI   O3219584   2.721   5.707  10.265 -0.6191  0.6665 -0.0100
  173SAPI   C3219585   2.536   5.635  10.123 -0.3046 -0.5449 -0.4551
  173SAPI   H2X19586   2.429   5.612  10.142  0.2968 -1.6030  2.1447
  173SAPI   H2Y19587   2.590   5.542  10.096 -0.5812 -0.2676 -2.0684
  173SAPI   C2319588   2.811   5.217  10.430 -0.2416 -0.3901  0.0201
  173SAPI   H3R19589   2.762   5.159  10.511 -0.9895  0.4820  0.2036
  173SAPI   H3S19590   2.910   5.171  10.412 -0.0134  0.8616 -2.3410
  173SAPI   C2419591   2.738   5.192  10.299  0.0339  0.2482  0.7021
  173SAPI   H4R19592   2.765   5.086  10.280  2.0909  0.7374  0.6504
  173SAPI   H4S19593   2.783   5.254  10.219 -1.0025 -2.6256 -2.3334
  173SAPI   C2519594   2.591   5.212  10.296  0.1609 -0.4619  0.1824
  173SAPI   H5R19595   2.544   5.279  10.370  2.6475  2.0647 -0.3652
  173SAPI   C2619596   2.506   5.166  10.197 -0.0787 -0.3412 -0.9249
  173SAPI   H6R19597   2.400   5.194  10.207  0.3120  0.8322  0.2222
  173SAPI   C2719598   2.561   5.095  10.083  0.0542  0.4415  0.0677
  173SAPI   H7R19599   2.485   5.028  10.036  0.2196  1.8929 -2.4524
  173SAPI   H7S19600   2.637   5.022  10.118  1.7683  2.5798  0.9907
  173SAPI   C2819601   2.613   5.178   9.965 -0.0144  0.3422 -0.4277
  173SAPI   H8R19602   2.677   5.259  10.002 -1.6841  1.3518  0.3539
  173SAPI   C2919603   2.575   5.182   9.833  0.4116 -0.4798 -0.3999
  173SAPI   H9R19604   2.625   5.251   9.762  0.8975 -1.2667 -0.8324
  173SAPI  C21019605   2.471   5.091   9.778  0.0629  0.4400 -0.4553
  173SAPI  H10R19606   2.397   5.149   9.720  0.5915  0.2570 -1.3404
  173SAPI  H10S19607   2.424   5.023   9.852  2.4259 -1.5288 -0.6024
  173SAPI  C21119608   2.532   4.994   9.680  0.1710 -1.0687  0.8955
  173SAPI  H11R19609   2.580   4.902   9.717  1.6394 -0.2796  0.9965
  173SAPI  C21219610   2.522   5.020   9.543  0.0740  0.4518 -0.2351
  173SAPI  H12R19611   2.557   4.947   9.468 -2.1430 -0.6096 -0.3164
  173SAPI  C21319612   2.467   5.141   9.473 -0.1067  0.4388 -0.7470
  173SAPI  H13R19613   2.454   5.226   9.544 -0.3125 -0.2276  0.0388
  173SAPI  H13S19614   2.362   5.117   9.447  0.4299 -0.8020 -1.8477
  173SAPI  C21419615   2.556   5.182   9.359 -0.1498 -0.0612 -0.3724
  173SAPI  H14R19616   2.658   5.204   9.393  0.0872 -1.9831  0.2775
  173SAPI  C21519617   2.521   5.173   9.231 -0.8088 -0.0332  0.9432
  173SAPI  H15R19618   2.599   5.202   9.159 -1.2256  0.3399  0.6365
  173SAPI  C21619619   2.397   5.116   9.164 -0.0655 -0.3399 -0.3782
  173SAPI  H16R19620   2.321   5.074   9.233  0.3039  0.1456  0.3443
  173SAPI  H16S19621   2.425   5.026   9.105 -0.5102 -1.0044  0.4076
  173SAPI  C21719622   2.330   5.219   9.076 -0.2328  0.4156 -0.1935
  173SAPI  H17R19623   2.397   5.249   8.993 -2.9871 -2.3708 -3.7932
  173SAPI  H17S19624   2.301   5.312   9.131  0.1017  1.7233 -2.1119
  173SAPI  C21819625   2.210   5.166   9.013 -0.3360  0.1490 -0.5718
  173SAPI  H18R19626   2.143   5.134   9.095  2.4161  1.3705  2.3413
  173SAPI  H18S19627   2.223   5.085   8.937  2.2791  0.8407 -0.9775
  173SAPI  C21919628   2.139   5.277   8.942  0.4466 -0.1100 -0.3961
  173SAPI  H19R19629   2.153   5.373   8.996 -1.6134 -0.0209  0.0388
  173SAPI  H19S19630   2.031   5.251   8.944  0.4775 -0.2012  0.4569
  173SAPI  C22019631   2.165   5.321   8.799 -0.6720 -0.2622  0.4615
  173SAPI  H20R19632   2.176   5.227   8.741  0.2768 -0.3174  0.7198
  173SAPI  H20S19633   2.253   5.388   8.786 -0.4310 -0.1519  2.4260
  173SAPI  H20T19634   2.068   5.361   8.763 -0.2707 -0.2081 -0.6155
  173SAPI   C3319635   2.546   5.731  10.009 -0.1211 -0.2278  0.0269
  173SAPI   H3X19636   2.654   5.730   9.985  0.3801  1.6152  1.8834
  173SAPI   H3Y19637   2.506   5.834  10.026  0.3903 -0.1143  0.5813
  173SAPI   C3419638   2.467   5.677   9.892  0.0284  0.2270 -0.3675
  173SAPI   H4X19639   2.368   5.653   9.935  0.8724 -0.9982  0.9877
  173SAPI   H4Y19640   2.507   5.574   9.882  0.3120 -0.0837  2.9651
  173SAPI   C3519641   2.473   5.762   9.768 -0.5126 -0.1795 -0.4328
  173SAPI   H5X19642   2.577   5.792   9.743 -0.2945  0.5582  1.2097
  173SAPI   H5Y19643   2.416   5.855   9.790  0.0657 -0.1091  0.8913
  173SAPI   C3619644   2.424   5.681   9.650 -0.8263  0.2642  0.5530
  173SAPI   H6X19645   2.314   5.668   9.658 -0.9784  0.0012 -1.4219
  173SAPI   H6Y19646   2.474   5.583   9.638 -0.9029  0.0128  2.1399
  173SAPI   C3719647   2.452   5.754   9.517  0.2052 -0.0975  0.9407
  173SAPI   H7X19648   2.558   5.787   9.509  0.3622 -1.0376 -3.1928
  173SAPI   H7Y19649   2.394   5.848   9.504 -0.3536 -0.6583 -0.9627
  173SAPI   C3819650   2.416   5.664   9.399  0.3921  0.3440 -0.2465
  173SAPI   H8X19651   2.307   5.653   9.387  0.1172 -1.1161  2.7233
  173SAPI   H8Y19652   2.463   5.564   9.411 -0.9480 -0.3182 -0.3038
  173SAPI   C3919653   2.465   5.721   9.263  0.1136 -0.5970  0.0538
  173SAPI   H9X19654   2.575   5.729   9.272  0.1150  0.3624 -0.7761
  173SAPI   H9Y19655   2.423   5.823   9.253 -2.5801 -1.8052 -2.5019
  173SAPI  C31019656   2.419   5.640   9.147 -0.3244 -0.2334  0.3536
  173SAPI  H10X19657   2.313   5.609   9.158 -0.6100  0.3365 -0.6123
  173SAPI  H10Y19658   2.470   5.542   9.150  0.5860  0.1293 -1.4951
  173SAPI  C31119659   2.437   5.713   9.013  0.0739 -0.3683 -0.6569
  173SAPI  H11X19660   2.539   5.758   9.018  0.7717 -1.9715  0.0177
  173SAPI  H11Y19661   2.364   5.797   9.007  0.2328  0.0873  2.2405
  173SAPI  C31219662   2.424   5.613   8.891  0.5387  0.4683 -0.6985
  173SAPI  H12X19663   2.319   5.579   8.876  0.5976  0.3587 -0.8631
  173SAPI  H12Y19664   2.480   5.522   8.924  0.8264  0.9873  0.3041
  173SAPI  C31319665   2.490   5.665   8.758  0.3647 -0.5439  0.4451
  173SAPI  H13X19666   2.493   5.579   8.688 -3.4593  0.4708 -1.1869
  173SAPI  H13Y19667   2.597   5.692   8.769 -0.0888  2.5549 -1.5093
  173SAPI  C31419668   2.414   5.779   8.688 -0.2299 -1.0140 -0.0414
  173SAPI  H14X19669   2.430   5.873   8.746 -0.1807  0.2241 -1.9787
  173SAPI  H14Y19670   2.306   5.752   8.682 -0.3562 -0.2035 -2.2147
  173SAPI  C31519671   2.451   5.802   8.539  0.0263  0.4624  0.2327
  173SAPI  H15X19672   2.386   5.880   8.494  1.5683  1.6480  0.0077
  173SAPI  H15Y19673   2.443   5.708   8.480  2.4112 -0.0556  0.6560
  173SAPI  C31619674   2.591   5.862   8.520  0.4269  0.2053 -0.2129
  173SAPI  H16X19675   2.670   5.789   8.546 -0.5220 -0.8760 -0.2932
  173SAPI  H16Y19676   2.614   5.953   8.581  0.0130  0.5769 -0.6028
  173SAPI  C31719677   2.601   5.907   8.379 -0.2792  0.0827  0.8684
  173SAPI  H17X19678   2.509   5.876   8.325 -0.0808  1.1057 -0.0928
  173SAPI  H17Y19679   2.687   5.866   8.323 -0.5040 -0.4003  0.8707
  173SAPI  C31819680   2.605   6.061   8.360  0.0456 -0.3962 -0.1057
  173SAPI  H18X19681   2.592   6.079   8.251 -1.0760 -0.5802 -0.0120
  173SAPI  H18Y19682   2.699   6.112   8.390 -0.2636  0.5660 -0.7107
  173SAPI  H18Z19683   2.524   6.108   8.421 -0.4916 -1.3205 -0.0964
  174SAPI   C1219684   3.786   4.930  10.931 -0.1016 -0.0046  0.1150
  174SAPI    H219685   3.869   4.998  10.904 -2.2620  1.7290 -2.7612
  174SAPI    O219686   3.825   4.847  11.039 -0.5031 -0.3383  0.2122
  174SAPI   HO219687   3.913   4.813  11.021 -1.0216 -3.3352  2.5598
  174SAPI   C1319688   3.663   5.017  10.962 -0.8213 -0.4035  0.3994
  174SAPI    H319689   3.642   5.081  10.873 -2.8701  0.4533  1.4219
  174SAPI    O319690   3.689   5.103  11.076 -0.2980  0.9755 -0.0654
  174SAPI   HO319691   3.726   5.056  11.150  0.5898 -0.1452 -1.1818
  174SAPI   C1419692   3.553   4.918  10.986  0.3900  0.0397  0.7431
  174SAPI    H419693   3.575   4.855  11.075  0.0275  0.3368  1.0453
  174SAPI    O419694   3.433   4.985  11.031 -0.1974 -0.4079 -0.4115
  174SAPI   HO419695   3.457   5.034  11.110 -0.0909 -0.9922 -0.0755
  174SAPI   C1519696   3.526   4.832  10.860  0.5596 -0.6244  0.8613
  174SAPI    H519697   3.497   4.901  10.778  0.2551  1.9191  2.9762
  174SAPI    O519698   3.410   4.753  10.874 -0.0706  0.3181 -0.3630
  174SAPI   HO519699   3.342   4.816  10.900 -0.2451 -0.1906  0.4636
  174SAPI   C1619700   3.649   4.751  10.818 -0.2764 -0.0559 -0.4220
  174SAPI    H619701   3.648   4.673  10.897 -1.0655  0.3571 -0.0074
  174SAPI    O619702   3.623   4.691  10.694  0.5440  0.0856  0.5292
  174SAPI   HO619703   3.671   4.734  10.623  0.4220  1.9256  1.4896
  174SAPI   C1119704   3.767   4.842  10.808  0.4189  0.2593 -0.2507
  174SAPI    H119705   3.738   4.917  10.732  0.6351  1.4954  0.8507
  174SAPI     P19706   4.003   4.836  10.670  0.0275  0.1865  0.2131
  174SAPI   O1319707   4.132   4.760  10.676  0.5315 -0.8701 -0.4383
  174SAPI   O1419708   4.014   4.981  10.708 -0.2841  0.3308 -0.2243
  174SAPI   O1219709   3.889   4.764  10.769  0.5385 -0.3714 -0.3113
  174SAPI   O1119710   3.947   4.816  10.523 -0.1146  0.0720  0.5559
  174SAPI    C119711   3.937   4.691  10.463  0.2348 -0.7178 -0.6190
  174SAPI    HA19712   3.994   4.609  10.511  0.0189  0.3458  1.5632
  174SAPI    HB19713   3.833   4.658  10.486 -0.1210 -0.0280 -1.2097
  174SAPI    C219714   3.945   4.707  10.310  0.1580 -0.3116  0.2350
  174SAPI    HS19715   4.049   4.704  10.272 -0.0889  3.0503 -1.0476
  174SAPI   O2119716   3.875   4.828  10.271 -0.4018 -0.0356 -0.6397
  174SAPI   C2119717   3.915   4.884  10.159  0.4521  0.2364 -0.1230
  174SAPI   O2219718   4.014   4.860  10.098  0.1366 -0.3502  0.7175
  174SAPI   C2219719   3.808   4.986  10.124  0.3412 -0.3669 -0.1334
  174SAPI   H2R19720   3.718   4.921  10.113 -0.1564  0.4955 -1.4463
  174SAPI   H2S19721   3.777   5.039  10.216  0.0883 -0.8138  0.0419
  174SAPI    C319722   3.883   4.581  10.249 -0.2051  0.0623 -0.6437
  174SAPI    HX19723   3.784   4.575  10.300  0.7586  2.0941  1.6847
  174SAPI    HY19724   3.928   4.487  10.286 -2.5273 -0.4183  1.2559
  174SAPI   O3119725   3.872   4.587  10.105 -0.1024 -0.1626 -0.4445
  174SAPI   C3119726   3.979   4.553  10.032 -0.2971 -0.2367  0.2780
  174SAPI   O3219727   4.081   4.499  10.077 -0.0809  0.1898 -0.0592
  174SAPI   C3219728   3.949   4.564   9.886 -0.3738  0.0658  0.3384
  174SAPI   H2X19729   3.855   4.512   9.859 -1.1435  2.1154 -1.2507
  174SAPI   H2Y19730   4.037   4.520   9.834 -0.4698  0.4161 -0.1369
  174SAPI   C2319731   3.844   5.070  10.002  0.3902 -0.1394  0.0765
  174SAPI   H3R19732   3.891   5.008   9.923 -0.6619  0.6058 -1.1899
  174SAPI   H3S19733   3.909   5.153  10.038  1.2134 -0.8645  0.2828
  174SAPI   C2419734   3.713   5.125   9.936 -0.0757 -0.4935  0.7795
  174SAPI   H4R19735   3.669   5.050   9.867  0.6083 -1.1436  1.0442
  174SAPI   H4S19736   3.750   5.217   9.886  0.4600 -0.4279  1.2906
  174SAPI   C2519737   3.616   5.169  10.037  0.2412  0.3979 -0.3908
  174SAPI   H5R19738   3.640   5.176  10.144 -2.2250 -0.8047  0.3370
  174SAPI   C2619739   3.504   5.231  10.013  0.1838  0.4266 -0.3113
  174SAPI   H6R19740   3.448   5.253  10.105  2.5228  0.5788  1.1794
  174SAPI   C2719741   3.445   5.263   9.873 -0.2731 -0.1025 -0.3491
  174SAPI   H7R19742   3.334   5.255   9.876 -0.2562 -0.5596 -0.8459
  174SAPI   H7S19743   3.483   5.193   9.796  0.2838 -0.0572 -0.1161
  174SAPI   C2819744   3.503   5.402   9.846  0.6743  0.2784  0.2140
  174SAPI   H8R19745   3.454   5.479   9.909  1.7294 -0.5511  2.1367
  174SAPI   C2919746   3.590   5.441   9.752  0.0536 -0.5231 -0.1488
  174SAPI   H9R19747   3.614   5.548   9.761  0.8120 -0.4501 -2.4102
  174SAPI  C21019748   3.649   5.343   9.657 -0.3917 -0.5674  0.2457
  174SAPI  H10R19749   3.591   5.252   9.634  1.4647 -1.5108 -0.9835
  174SAPI  H10S19750   3.744   5.305   9.702 -0.3293 -1.2748 -0.4604
  174SAPI  C21119751   3.696   5.384   9.522  0.8722  0.0129  0.2387
  174SAPI  H11R19752   3.613   5.389   9.450 -0.0347  0.0541  1.2553
  174SAPI  C21219753   3.823   5.417   9.485 -0.5812 -0.0759 -0.9807
  174SAPI  H12R19754   3.844   5.422   9.377  1.1106  1.1597 -0.6343
  174SAPI  C21319755   3.936   5.431   9.587  0.6817  0.0958  0.4206
  174SAPI  H13R19756   3.903   5.478   9.682 -0.3194  1.3502 -0.5173
  174SAPI  H13S19757   4.011   5.501   9.546  1.8554 -1.8970 -0.9885
  174SAPI  C21419758   4.016   5.304   9.606 -0.4637 -0.4623 -0.2016
  174SAPI  H14R19759   3.982   5.247   9.693  0.2031  1.7171  1.5750
  174SAPI  C21519760   4.116   5.253   9.530 -0.2701  0.5056 -0.0171
  174SAPI  H15R19761   4.165   5.161   9.564  0.1964  0.8018  0.1391
  174SAPI  C21619762   4.173   5.310   9.397 -0.3985 -0.6458  0.2790
  174SAPI  H16R19763   4.283   5.308   9.379 -0.3817  1.0876 -0.0343
  174SAPI  H16S19764   4.142   5.415   9.381 -0.2484 -0.5255  0.7510
  174SAPI  C21719765   4.119   5.224   9.279 -0.2063  0.0896  0.5643
  174SAPI  H17R19766   4.021   5.265   9.248  1.1756  3.5745  0.3742
  174SAPI  H17S19767   4.108   5.117   9.307  0.4274 -1.1345 -3.3826
  174SAPI  C21819768   4.202   5.220   9.149  0.0842  0.3459 -0.7829
  174SAPI  H18R19769   4.298   5.169   9.170 -0.3821 -0.2176  0.0196
  174SAPI  H18S19770   4.218   5.325   9.116 -0.0797  0.5983 -0.0831
  174SAPI  C21919771   4.125   5.133   9.044 -0.0880  0.6666  0.5657
  174SAPI  H19R19772   4.035   5.194   9.020  1.1535  2.3176 -0.1207
  174SAPI  H19S19773   4.101   5.036   9.093 -1.0504  1.8562  2.6164
  174SAPI  C22019774   4.215   5.110   8.918 -0.2224 -0.2065 -0.0989
  174SAPI  H20R19775   4.297   5.054   8.967 -0.1981  0.0344  0.1370
  174SAPI  H20S19776   4.246   5.201   8.863 -2.8529  0.8732  0.0369
  174SAPI  H20T19777   4.162   5.038   8.851 -0.9646 -0.1308  0.3864
  174SAPI   C3319778   3.933   4.710   9.842  0.0106 -0.0256 -0.1929
  174SAPI   H3X19779   4.027   4.769   9.844 -1.7290  3.0720 -1.7651
  174SAPI   H3Y19780   3.865   4.762   9.913 -0.6864 -1.8626  0.5353
  174SAPI   C3419781   3.878   4.726   9.699  0.8314  0.1867 -0.3260
  174SAPI   H4X19782   3.779   4.680   9.679  1.1417 -0.4150 -0.5032
  174SAPI   H4Y19783   3.949   4.677   9.629 -0.0919 -1.2421 -0.3074
  174SAPI   C3519784   3.854   4.874   9.651 -0.4723  0.0308  0.7220
  174SAPI   H5X19785   3.947   4.933   9.665 -0.5720  0.4868 -0.4064
  174SAPI   H5Y19786   3.785   4.936   9.712  0.9947  1.7034  0.7450
  174SAPI   C3619787   3.800   4.869   9.502  0.1442 -0.1994 -0.8526
  174SAPI   H6X19788   3.711   4.803   9.501 -0.2274  0.0841  2.5686
  174SAPI   H6Y19789   3.876   4.840   9.427 -0.1587 -1.8780 -0.5506
  174SAPI   C3719790   3.759   5.012   9.457  0.1019  0.6798 -1.0517
  174SAPI   H7X19791   3.846   5.076   9.433 -0.4592  0.7519 -3.1054
  174SAPI   H7Y19792   3.707   5.054   9.546  2.0026 -1.7943  1.4325
  174SAPI   C3819793   3.660   5.014   9.341 -0.3433  0.0552  0.5354
  174SAPI   H8X19794   3.631   5.121   9.334  0.3231  0.3111  1.5133
  174SAPI   H8Y19795   3.565   4.960   9.359  0.5070 -1.5384  0.4075
  174SAPI   C3919796   3.722   4.963   9.213 -0.2786  0.5619  0.1543
  174SAPI   H9X19797   3.748   4.855   9.220  1.3022  0.8005 -1.3548
  174SAPI   H9Y19798   3.815   5.020   9.191  0.1185 -0.1870 -0.1483
  174SAPI  C31019799   3.630   4.956   9.086  0.2113 -0.6309  0.0149
  174SAPI  H10X19800   3.615   5.063   9.061 -2.1310 -1.1071 -0.8716
  174SAPI  H10Y19801   3.525   4.923   9.093 -0.4614  1.1871 -0.8384
  174SAPI  C31119802   3.703   4.881   8.968 -0.3148  0.3600  0.1916
  174SAPI  H11X19803   3.722   4.774   8.990 -2.8074 -0.2559 -0.3578
  174SAPI  H11Y19804   3.792   4.942   8.941 -0.1734 -0.1614 -0.5290
  174SAPI  C31219805   3.617   4.858   8.845 -0.0102 -0.0985 -0.0548
  174SAPI  H12X19806   3.595   4.956   8.799 -1.0326 -0.9187 -1.3877
  174SAPI  H12Y19807   3.522   4.806   8.872 -0.0142 -1.0750 -1.8235
  174SAPI  C31319808   3.678   4.779   8.733 -0.5103  0.7753 -0.8582
  174SAPI  H13X19809   3.674   4.671   8.760 -0.0568  0.7416 -0.9109
  174SAPI  H13Y19810   3.782   4.812   8.710  1.2982 -2.1835  2.0829
  174SAPI  C31419811   3.595   4.794   8.611  0.0586  0.4403 -0.0905
  174SAPI  H14X19812   3.642   4.886   8.569  1.8978 -0.7399 -0.7165
  174SAPI  H14Y19813   3.487   4.821   8.613 -0.1970 -0.3594  3.7034
  174SAPI  C31519814   3.611   4.692   8.501 -1.2255 -0.0491 -0.0935
  174SAPI  H15X19815   3.537   4.719   8.424 -1.9941 -0.2659  0.5577
  174SAPI  H15Y19816   3.608   4.584   8.531 -0.3881 -0.5005 -1.5327
  174SAPI  C31619817   3.761   4.695   8.447 -0.7980  0.2503  0.3795
  174SAPI  H16X19818   3.831   4.654   8.523  0.9304  3.3587  0.6465
  174SAPI  H16Y19819   3.787   4.801   8.429 -0.6724 -0.2605 -3.2327
  174SAPI  C31719820   3.770   4.619   8.303  0.4577 -0.1450 -1.1320
  174SAPI  H17X19821   3.875   4.638   8.271  0.9225 -3.1811 -1.7193
  174SAPI  H17Y19822   3.702   4.680   8.241 -0.3468 -0.7143 -0.8378
  174SAPI  C31819823   3.733   4.470   8.307  0.1205 -0.1502 -0.8435
  174SAPI  H18X19824   3.622   4.468   8.309  0.0755  1.4668 -0.6076
  174SAPI  H18Y19825   3.782   4.420   8.393 -0.8752 -0.6951 -0.5752
  174SAPI  H18Z19826   3.772   4.430   8.210 -0.2560 -0.5083 -0.8527
  175SAPI   C1219827   6.778   1.864   6.362  0.3596  0.7119  0.0656
  175SAPI    H219828   6.844   1.912   6.438 -0.0983  1.0709  0.2432
  175SAPI    O219829   6.766   1.721   6.401  0.2252 -0.4488 -0.2110
  175SAPI   HO219830   6.851   1.679   6.415 -0.8561 -3.8200 -2.4537
  175SAPI   C1319831   6.645   1.943   6.379 -0.0669 -0.2721 -0.4950
  175SAPI    H319832   6.675   2.048   6.360 -0.8226 -0.3019 -1.9880
  175SAPI    O319833   6.605   1.928   6.518 -0.2909 -0.4409  0.6227
  175SAPI   HO319834   6.588   1.836   6.537 -4.4708  0.1360  0.8151
  175SAPI   C1419835   6.540   1.890   6.281 -0.0573 -0.6593  0.4818
  175SAPI    H419836   6.517   1.783   6.296 -0.7012 -0.6441 -0.3136
  175SAPI    O419837   6.424   1.973   6.285  0.1619 -0.1173  0.1565
  175SAPI   HO419838   6.451   2.060   6.255  0.6798 -0.2551  0.2203
  175SAPI   C1519839   6.596   1.906   6.143 -0.1462  0.4902  0.5569
  175SAPI    H519840   6.618   2.014   6.124 -0.8466  0.0885 -3.3776
  175SAPI    O519841   6.508   1.859   6.038  0.3755 -0.0689 -0.1550
  175SAPI   HO519842   6.565   1.835   5.965  1.0063  0.8055  0.0373
  175SAPI   C1619843   6.733   1.831   6.129  0.4731 -0.5041 -0.1666
  175SAPI    H619844   6.713   1.722   6.137  0.5499 -0.5443 -0.4982
  175SAPI    O619845   6.777   1.862   5.997 -0.4556 -0.0844  0.5608
  175SAPI   HO619846   6.803   1.778   5.959 -0.8804 -0.8614  1.9365
  175SAPI   C1119847   6.831   1.888   6.222 -0.3228 -0.2724  0.0770
  175SAPI    H119848   6.836   1.998   6.205  2.1670 -0.1599  1.0700
  175SAPI     P19849   7.094   1.909   6.232 -0.0074  0.0805 -0.2512
  175SAPI   O1319850   7.088   2.036   6.162  0.0409  0.4942  0.1820
  175SAPI   O1419851   7.218   1.826   6.216  0.2654  0.1363 -0.5534
  175SAPI   O1219852   6.959   1.819   6.208 -0.5649  0.3039 -0.5582
  175SAPI   O1119853   7.081   1.934   6.387  0.5030 -0.4071  0.1684
  175SAPI    C119854   7.175   1.998   6.464 -1.2280 -0.2828  0.0204
  175SAPI    HA19855   7.267   2.028   6.408 -1.3635  0.4005  0.1547
  175SAPI    HB19856   7.125   2.086   6.509 -0.5262 -0.5199  1.2955
  175SAPI    C219857   7.216   1.908   6.583 -0.5630  0.4310  0.4440
  175SAPI    HS19858   7.257   1.812   6.546 -1.4024  0.6291 -1.0670
  175SAPI   O2119859   7.107   1.881   6.677 -0.6065 -0.3754  0.3201
  175SAPI   C2119860   7.022   1.787   6.640 -0.4804  0.0572 -0.0419
  175SAPI   O2219861   7.041   1.705   6.550 -0.5633 -0.2716 -0.0235
  175SAPI   C2219862   6.899   1.792   6.742  0.1270 -0.7381 -0.0205
  175SAPI   H2R19863   6.832   1.870   6.699  1.0048 -0.4664 -0.9552
  175SAPI   H2S19864   6.854   1.693   6.721  0.7734 -1.1326  0.4343
  175SAPI    C319865   7.333   1.979   6.660  0.4982  0.3224 -0.0293
  175SAPI    HX19866   7.422   1.987   6.595  0.1386  0.5794 -0.5006
  175SAPI    HY19867   7.346   1.907   6.743 -0.9974  1.7058  1.4665
  175SAPI   O3119868   7.297   2.110   6.717 -0.3378 -0.5377 -0.1975
  175SAPI   C3119869   7.322   2.133   6.845 -0.4859  0.3760  0.3031
  175SAPI   O3219870   7.394   2.075   6.925 -0.1827 -0.0711  0.4713
  175SAPI   C3219871   7.231   2.256   6.886  1.0158 -0.4269 -0.1302
  175SAPI   H2X19872   7.128   2.219   6.872  0.6023  0.4536  0.4603
  175SAPI   H2Y19873   7.253   2.342   6.819  1.2822  0.3168  0.8839
  175SAPI   C2319874   6.929   1.810   6.893 -0.4193  0.6072 -0.2991
  175SAPI   H3R19875   6.835   1.820   6.951 -0.8983  0.0460 -0.9646
  175SAPI   H3S19876   6.979   1.907   6.911 -0.3517  0.5868 -0.3757
  175SAPI   C2419877   7.017   1.698   6.959 -0.4460  0.5418 -0.8145
  175SAPI   H4R19878   7.049   1.739   7.057  0.0989 -0.7358 -0.4386
  175SAPI   H4S19879   7.108   1.697   6.895 -2.0744  0.2326 -3.2656
  175SAPI   C2519880   6.952   1.566   6.960 -0.1470 -0.0733 -0.4506
  175SAPI   H5R19881   6.926   1.527   6.860 -0.4877 -0.1602 -0.3307
  175SAPI   C2619882   6.890   1.507   7.068  0.1015 -0.1447  0.4032
  175SAPI   H6R19883   6.835   1.415   7.044 -1.8041  1.5892 -2.4423
  175SAPI   C2719884   6.890   1.557   7.211  1.3061  0.1402  0.1917
  175SAPI   H7R19885   6.861   1.665   7.205  2.5659  0.4399 -1.0706
  175SAPI   H7S19886   6.994   1.543   7.247  2.6095 -1.7367 -3.7143
  175SAPI   C2819887   6.808   1.468   7.304  0.5698 -0.4183  0.4008
  175SAPI   H8R19888   6.735   1.402   7.256 -1.7461  1.0720  1.6859
  175SAPI   C2919889   6.819   1.466   7.443  0.7908 -0.0414  0.2427
  175SAPI   H9R19890   6.740   1.421   7.506  1.4379  0.5293  1.4835
  175SAPI  C21019891   6.902   1.559   7.516  0.3676  0.2023 -0.4817
  175SAPI  H10R19892   6.851   1.655   7.537 -2.1637 -1.2302  0.3327
  175SAPI  H10S19893   6.987   1.579   7.447  2.6266 -3.1188  1.0759
  175SAPI  C21119894   6.952   1.499   7.640 -0.2122 -0.4386 -0.3373
  175SAPI  H11R19895   7.035   1.430   7.621 -2.0291 -3.2910  1.2647
  175SAPI  C21219896   6.900   1.518   7.758  0.3345  0.5563 -0.4846
  175SAPI  H12R19897   6.944   1.465   7.843 -0.2851  1.1430  0.2214
  175SAPI  C21319898   6.783   1.618   7.780  0.2493  0.6116 -0.1741
  175SAPI  H13R19899   6.702   1.617   7.704 -0.5722  2.2145  0.6195
  175SAPI  H13S19900   6.812   1.723   7.757 -0.5953  1.2573  1.4960
  175SAPI  C21419901   6.719   1.588   7.913  0.3735  0.0725 -0.5713
  175SAPI  H14R19902   6.696   1.484   7.938  2.0132 -0.2855 -0.4282
  175SAPI  C21519903   6.704   1.678   8.012  0.6491  0.6937  0.4696
  175SAPI  H15R19904   6.641   1.652   8.098 -1.8289  4.3423  0.0193
  175SAPI  C21619905   6.734   1.821   8.013  0.0739 -0.5656 -0.0075
  175SAPI  H16R19906   6.742   1.868   7.912 -0.2759  0.3056  0.3615
  175SAPI  H16S19907   6.823   1.850   8.074  0.5829  1.0044 -1.4050
  175SAPI  C21719908   6.622   1.911   8.082 -0.5693 -0.1654 -0.3850
  175SAPI  H17R19909   6.529   1.879   8.029 -0.7014  0.7434 -0.7186
  175SAPI  H17S19910   6.642   2.014   8.046 -0.3752  0.3292  1.0747
  175SAPI  C21819911   6.604   1.894   8.235  0.0511 -0.0716 -0.3465
  175SAPI  H18R19912   6.665   1.967   8.293  1.7941 -1.0052 -0.9558
  175SAPI  H18S19913   6.635   1.791   8.263 -0.5230  0.0023  0.6081
  175SAPI  C21919914   6.456   1.915   8.266 -0.0189 -0.2546 -0.3104
  175SAPI  H19R19915   6.394   1.834   8.221 -3.1905  1.9273 -0.2185
  175SAPI  H19S19916   6.434   2.012   8.217  1.8647  2.3276  3.5170
  175SAPI  C22019917   6.439   1.912   8.420 -0.2346 -0.7307 -0.3197
  175SAPI  H20R19918   6.337   1.940   8.453  0.1845  1.7743 -0.9122
  175SAPI  H20S19919   6.501   1.995   8.460 -1.9767  0.2136  0.5425
  175SAPI  H20T19920   6.476   1.821   8.473  1.9462 -0.1338 -0.6984
  175SAPI   C3319921   7.239   2.291   7.038  0.0388 -0.3856  0.4011
  175SAPI   H3X19922   7.348   2.294   7.061 -0.2055  1.6182  1.5246
  175SAPI   H3Y19923   7.194   2.210   7.099 -2.7150  1.3559  0.8590
  175SAPI   C3419924   7.168   2.428   7.071 -0.1059 -0.2736  0.4607
  175SAPI   H4X19925   7.062   2.421   7.036 -0.5944  1.7391  1.3788
  175SAPI   H4Y19926   7.224   2.496   7.003  0.2005 -0.8136  0.1641
  175SAPI   C3519927   7.180   2.464   7.218  0.8162 -0.1191 -0.2675
  175SAPI   H5X19928   7.157   2.379   7.285 -0.6834  0.2712 -0.2607
  175SAPI   H5Y19929   7.103   2.541   7.236  0.6516 -0.2498 -0.4100
  175SAPI   C3619930   7.313   2.533   7.248 -0.3042  0.5822 -0.2455
  175SAPI   H6X19931   7.344   2.595   7.162  1.5519 -1.9894 -1.5683
  175SAPI   H6Y19932   7.390   2.452   7.250 -1.2194 -0.2950  0.6164
  175SAPI   C3719933   7.320   2.598   7.386  0.2460  0.6483 -0.2065
  175SAPI   H7X19934   7.257   2.541   7.458  2.4500 -1.9910 -0.1845
  175SAPI   H7Y19935   7.289   2.704   7.375 -1.4790  0.2030  0.1576
  175SAPI   C3819936   7.469   2.599   7.439 -0.5175 -0.3185 -0.0590
  175SAPI   H8X19937   7.525   2.671   7.375  0.9256 -0.0844  1.3864
  175SAPI   H8Y19938   7.524   2.503   7.430  1.2041  0.3140  2.6036
  175SAPI   C3919939   7.476   2.625   7.592 -0.1376 -0.9207 -0.3366
  175SAPI   H9X19940   7.422   2.540   7.638 -0.4204 -0.6451 -0.1576
  175SAPI   H9Y19941   7.428   2.720   7.625 -0.4881 -1.6941  1.5010
  175SAPI  C31019942   7.624   2.631   7.634  0.4845 -0.3004  0.0148
  175SAPI  H10X19943   7.685   2.695   7.567  0.3961 -2.2654 -2.0432
  175SAPI  H10Y19944   7.675   2.533   7.628 -0.0487 -0.5242 -1.1787
  175SAPI  C31119945   7.636   2.668   7.781  0.7196 -0.4976  0.0141
  175SAPI  H11X19946   7.569   2.606   7.845  2.0069 -0.1907  1.7272
  175SAPI  H11Y19947   7.594   2.771   7.781  2.3663  0.2221 -1.7158
  175SAPI  C31219948   7.773   2.659   7.841 -0.1121  0.0679 -0.5184
  175SAPI  H12X19949   7.843   2.714   7.774  0.4264  0.1706  0.1196
  175SAPI  H12Y19950   7.790   2.549   7.841 -0.3786 -0.0308  2.2565
  175SAPI  C31319951   7.759   2.716   7.984 -0.3000  0.0104  0.3912
  175SAPI  H13X19952   7.672   2.663   8.029 -0.5610  0.1577  0.0701
  175SAPI  H13Y19953   7.736   2.825   7.991 -1.2189 -0.1753  0.4453
  175SAPI  C31419954   7.886   2.686   8.070 -0.3956  0.8350 -0.6057
  175SAPI  H14X19955   7.970   2.725   8.009 -0.1507  0.3506 -0.5866
  175SAPI  H14Y19956   7.905   2.576   8.068 -1.3627  0.6413  0.1280
  175SAPI  C31519957   7.885   2.744   8.208  0.2548 -0.1579  0.0092
  175SAPI  H15X19958   7.798   2.699   8.260  0.3536 -0.0409  0.2794
  175SAPI  H15Y19959   7.859   2.852   8.207 -1.7211 -0.5931 -2.2106
  175SAPI  C31619960   8.006   2.727   8.306  0.4081 -0.2554  0.1663
  175SAPI  H16X19961   8.101   2.754   8.256  0.1522 -0.9118 -0.6940
  175SAPI  H16Y19962   8.019   2.619   8.328 -0.0761 -0.4715 -0.5588
  175SAPI  C31719963   7.997   2.807   8.438 -0.4743 -0.0744  0.1306
  175SAPI  H17X19964   7.892   2.796   8.470 -1.5707  0.2010 -2.9654
  175SAPI  H17Y19965   8.013   2.915   8.420  0.3953  0.1972  2.3191
  175SAPI  C31819966   8.102   2.763   8.547  0.3045  0.5996  0.4835
  175SAPI  H18X19967   8.201   2.791   8.506 -1.1825  1.2714 -2.9479
  175SAPI  H18Y19968   8.094   2.653   8.562 -1.3981  0.7570  1.0351
  175SAPI  H18Z19969   8.088   2.821   8.641 -0.4658  0.8510  0.2229
  176SAPI   C1219970   5.737   6.298   6.266  0.4214  0.0223 -0.1503
  176SAPI    H219971   5.677   6.331   6.353  1.8654  0.5624  0.6836
  176SAPI    O219972   5.663   6.350   6.158  0.1791 -0.3734  0.0644
  176SAPI   HO219973   5.575   6.372   6.189 -1.0325 -2.8828 -1.1819
  176SAPI   C1319974   5.875   6.360   6.271 -0.1457 -0.4370  0.2537
  176SAPI    H319975   5.923   6.324   6.364  2.5528  1.6697 -0.1989
  176SAPI    O319976   5.858   6.504   6.263 -0.1370  0.3854  0.0675
  176SAPI   HO319977   5.789   6.507   6.196  2.2382  0.3176 -2.5195
  176SAPI   C1419978   5.964   6.312   6.160  0.1479 -0.1878  0.5237
  176SAPI    H419979   5.926   6.350   6.062  1.7465  1.6452  0.5627
  176SAPI    O419980   6.094   6.374   6.171  0.6330 -0.1367  0.2794
  176SAPI   HO419981   6.146   6.357   6.092  0.7306  1.2560  0.0215
  176SAPI   C1519982   5.959   6.157   6.152  0.0758 -0.2600  0.2001
  176SAPI    H519983   6.002   6.114   6.245 -0.0201 -1.8280 -0.4507
  176SAPI    O519984   6.034   6.105   6.042  0.3588 -0.3112 -0.3389
  176SAPI   HO519985   6.091   6.036   6.075 -0.5978 -0.9119  0.0798
  176SAPI   C1619986   5.815   6.098   6.155 -0.1928 -0.3557  0.3255
  176SAPI    H619987   5.767   6.127   6.058 -2.3685  0.3372  1.5426
  176SAPI    O619988   5.828   5.957   6.166 -0.2375 -0.8190  0.2439
  176SAPI   HO619989   5.763   5.930   6.232 -0.3529 -1.0374  0.0434
  176SAPI   C1119990   5.742   6.146   6.272 -0.2799  0.0441  0.5313
  176SAPI    H119991   5.797   6.127   6.366  0.8040 -0.6377 -0.2118
  176SAPI     P19992   5.575   5.970   6.381 -0.2607 -0.2125  0.3199
  176SAPI   O1319993   5.685   5.868   6.382  0.6918 -0.2049  0.3331
  176SAPI   O1419994   5.440   5.908   6.365  0.2530 -0.5022  0.2091
  176SAPI   O1219995   5.604   6.089   6.269 -0.0947 -0.6850  0.1124
  176SAPI   O1119996   5.569   6.054   6.509 -0.6218 -0.0843 -0.3945
  176SAPI    C119997   5.485   6.171   6.514 -0.3643 -0.4204 -0.0825
  176SAPI    HA19998   5.468   6.228   6.420  0.1734  0.9652  0.6196
  176SAPI    HB19999   5.389   6.132   6.555  0.8360  0.1003  3.5228
  176SAPI    C220000   5.532   6.261   6.630  0.4928  0.1617  0.0012
  176SAPI    HS20001   5.641   6.280   6.619  0.2285  1.2834 -1.0312
  176SAPI   O2120002   5.504   6.188   6.748  0.2061  0.8370 -0.7936
  176SAPI   C2120003   5.591   6.185   6.843  0.1229 -0.4646  0.0404
  176SAPI   O2220004   5.700   6.234   6.834 -1.0888 -0.1818 -0.1024
  176SAPI   C2220005   5.537   6.099   6.961 -0.4444 -0.2209  0.1450
  176SAPI   H2R20006   5.444   6.157   6.982  0.4166  1.4440 -0.4087
  176SAPI   H2S20007   5.513   5.995   6.930  4.0966 -1.8846  1.4060
  176SAPI    C320008   5.464   6.399   6.630  0.2839  0.6184  0.4211
  176SAPI    HX20009   5.357   6.372   6.636  0.1302  0.6777 -1.3929
  176SAPI    HY20010   5.475   6.453   6.533 -1.2302 -1.1600 -0.8157
  176SAPI   O3120011   5.492   6.473   6.747 -0.3109  0.6100 -0.1326
  176SAPI   C3120012   5.603   6.545   6.740  0.0050 -0.0582 -0.2183
  176SAPI   O3220013   5.670   6.567   6.642 -0.1695 -0.1931 -0.5734
  176SAPI   C3220014   5.621   6.607   6.879  0.3525 -0.3306 -0.9599
  176SAPI   H2X20015   5.614   6.523   6.950 -0.3145  1.4580  1.2034
  176SAPI   H2Y20016   5.550   6.690   6.903  0.3884 -0.5910  0.0775
  176SAPI   C2320017   5.617   6.103   7.091  0.0618 -0.3811  0.7037
  176SAPI   H3R20018   5.717   6.059   7.068 -0.2764 -0.3910 -0.8484
  176SAPI   H3S20019   5.575   6.030   7.163  1.0034 -1.0624  0.5881
  176SAPI   C2420020   5.636   6.245   7.150  0.0997  0.0566 -0.2654
  176SAPI   H4R20021   5.535   6.280   7.181  0.0050 -0.5380  0.0898
  176SAPI   H4S20022   5.682   6.320   7.082  0.6635  0.2796  0.3499
  176SAPI   C2520023   5.729   6.230   7.257  0.1534  0.1824 -0.2638
  176SAPI   H5R20024   5.837   6.226   7.233  0.0454 -0.5932 -0.6623
  176SAPI   C2620025   5.697   6.228   7.388  0.0382  0.2017  0.2463
  176SAPI   H6R20026   5.783   6.235   7.457  0.2650 -0.0206 -0.0099
  176SAPI   C2720027   5.567   6.242   7.458 -0.6182  0.3722  0.6295
  176SAPI   H7R20028   5.482   6.238   7.386 -1.0427 -2.2905  1.1914
  176SAPI   H7S20029   5.571   6.335   7.518  2.4451  1.2789 -0.7802
  176SAPI   C2820030   5.549   6.112   7.530 -0.0982 -0.1215  0.2602
  176SAPI   H8R20031   5.519   6.027   7.466  2.1750  1.3179 -3.0022
  176SAPI   C2920032   5.593   6.097   7.655  0.0812 -0.5061  0.4245
  176SAPI   H9R20033   5.568   5.999   7.697 -2.2906  0.6629  1.9725
  176SAPI  C21020034   5.666   6.195   7.744  0.0110 -0.3784  0.0592
  176SAPI  H10R20035   5.644   6.295   7.701  0.4291 -0.4731 -0.3892
  176SAPI  H10S20036   5.773   6.178   7.718 -0.2509 -0.3937 -1.0439
  176SAPI  C21120037   5.650   6.195   7.894  0.4647 -1.5406  0.6062
  176SAPI  H11R20038   5.613   6.295   7.919 -0.8307 -1.1823 -2.3673
  176SAPI  C21220039   5.658   6.088   7.981  0.0284 -0.1636 -0.0484
  176SAPI  H12R20040   5.640   6.111   8.087 -1.6474  0.0758 -0.3665
  176SAPI  C21320041   5.684   5.948   7.936  0.1640  0.1714  0.6481
  176SAPI  H13R20042   5.727   5.940   7.834  1.0941 -0.5899  1.0878
  176SAPI  H13S20043   5.587   5.895   7.936 -1.1125  2.3839 -0.0234
  176SAPI  C21420044   5.785   5.888   8.029 -0.2647 -0.2233 -0.2065
  176SAPI  H14R20045   5.889   5.900   7.994 -0.7581  2.7413 -0.8913
  176SAPI  C21520046   5.757   5.816   8.139 -0.0226  0.8045 -0.4202
  176SAPI  H15R20047   5.836   5.768   8.199 -1.2612  0.9748  1.4480
  176SAPI  C21620048   5.618   5.792   8.189 -0.7254 -0.0884  0.0219
  176SAPI  H16R20049   5.543   5.789   8.107 -0.2829  0.8027 -0.4243
  176SAPI  H16S20050   5.587   5.884   8.242 -0.2279  1.1885 -1.7982
  176SAPI  C21720051   5.614   5.669   8.286  0.6499  0.1126  0.6656
  176SAPI  H17R20052   5.659   5.575   8.248 -0.5075  0.1976 -1.0097
  176SAPI  H17S20053   5.507   5.654   8.311  0.9666 -0.4604  1.7271
  176SAPI  C21820054   5.680   5.709   8.425  0.5096  0.5315  0.3959
  176SAPI  H18R20055   5.687   5.820   8.431  2.1191  0.6092 -1.9028
  176SAPI  H18S20056   5.787   5.677   8.432  0.0572 -0.8504  1.3914
  176SAPI  C21920057   5.610   5.651   8.547 -0.5015 -0.3963 -0.3103
  176SAPI  H19R20058   5.504   5.684   8.554 -0.9937 -2.1195  1.3384
  176SAPI  H19S20059   5.661   5.714   8.623  0.8858 -0.4630 -1.1570
  176SAPI  C22020060   5.647   5.507   8.588  0.4581  1.2324  0.2286
  176SAPI  H20R20061   5.754   5.482   8.573  1.7849  3.1856  4.7677
  176SAPI  H20S20062   5.578   5.435   8.538  0.8239  0.5062  0.7483
  176SAPI  H20T20063   5.626   5.482   8.695 -1.0323 -1.6429 -0.6177
  176SAPI   C3320064   5.770   6.641   6.888  0.2290 -0.0198 -0.3743
  176SAPI   H3X20065   5.794   6.730   6.826  2.9931  0.3951  1.1051
  176SAPI   H3Y20066   5.839   6.564   6.848  1.9846  1.6117 -0.6657
  176SAPI   C3420067   5.813   6.702   7.027  0.3535  0.0169 -0.7666
  176SAPI   H4X20068   5.917   6.742   7.021  0.6599 -0.4080  0.9791
  176SAPI   H4Y20069   5.840   6.624   7.101  0.3031  2.6743  2.2787
  176SAPI   C3520070   5.716   6.810   7.092 -0.4237 -0.0815 -0.2816
  176SAPI   H5X20071   5.610   6.776   7.100 -0.3326 -0.0262  1.5012
  176SAPI   H5Y20072   5.725   6.904   7.033 -0.1521  1.2904  1.8032
  176SAPI   C3620073   5.756   6.848   7.239 -0.6549  0.4986 -0.0630
  176SAPI   H6X20074   5.711   6.945   7.270 -1.6703 -0.3206  1.0971
  176SAPI   H6Y20075   5.865   6.869   7.226 -0.1721 -2.0355 -0.5310
  176SAPI   C3720076   5.714   6.731   7.334 -0.3379  0.4413 -0.0991
  176SAPI   H7X20077   5.785   6.646   7.333 -2.4080 -1.3823  0.6631
  176SAPI   H7Y20078   5.610   6.699   7.312 -1.2424  1.3485  2.5151
  176SAPI   C3820079   5.711   6.770   7.483  0.3980  0.2181 -0.1721
  176SAPI   H8X20080   5.636   6.851   7.494 -0.5513 -0.7630  0.8678
  176SAPI   H8Y20081   5.807   6.820   7.507  0.4331 -0.6411  1.6571
  176SAPI   C3920082   5.683   6.647   7.571  0.3421 -0.8205  0.0124
  176SAPI   H9X20083   5.778   6.591   7.585  0.7150 -0.3912 -0.7468
  176SAPI   H9Y20084   5.610   6.589   7.511  0.0690 -0.1311 -0.3307
  176SAPI  C31020085   5.641   6.675   7.717  0.0927 -0.0654 -0.2944
  176SAPI  H10X20086   5.626   6.582   7.777  2.7208 -0.3693  0.0069
  176SAPI  H10Y20087   5.545   6.731   7.712  1.0241  1.4630 -1.7334
  176SAPI  C31120088   5.737   6.771   7.796 -0.4616  0.8397  0.3565
  176SAPI  H11X20089   5.738   6.870   7.746 -2.0593  0.3643 -0.7143
  176SAPI  H11Y20090   5.842   6.734   7.792 -1.4219 -2.0739 -1.6120
  176SAPI  C31220091   5.706   6.794   7.944 -0.5511  0.4426  0.0477
  176SAPI  H12X20092   5.742   6.708   8.004 -0.4093 -0.0356 -0.6980
  176SAPI  H12Y20093   5.599   6.787   7.970 -0.3571 -3.5364  0.4213
  176SAPI  C31320094   5.771   6.919   8.004  0.7084 -1.2488 -0.2613
  176SAPI  H13X20095   5.729   7.005   7.949 -2.9135 -2.9870 -0.5017
  176SAPI  H13Y20096   5.881   6.907   7.987  0.6753 -3.0784  0.5031
  176SAPI  C31420097   5.755   6.924   8.155  0.1371 -0.1189 -0.5981
  176SAPI  H14X20098   5.803   6.844   8.215  0.3713  1.7333  1.8195
  176SAPI  H14Y20099   5.646   6.928   8.171 -0.1855  2.1318 -2.7523
  176SAPI  C31520100   5.824   7.044   8.223 -0.0771 -0.3116 -0.7882
  176SAPI  H15X20101   5.800   7.137   8.168 -1.4587 -0.1740  0.0106
  176SAPI  H15Y20102   5.934   7.026   8.219 -0.1786 -0.7346 -2.3638
  176SAPI  C31620103   5.776   7.052   8.371 -0.2027  0.3966  0.5903
  176SAPI  H16X20104   5.809   6.957   8.420  1.4429 -0.4898 -2.0396
  176SAPI  H16Y20105   5.665   7.043   8.366 -0.2996  0.8533  1.5520
  176SAPI  C31720106   5.829   7.172   8.437 -0.4819 -0.9479 -0.0501
  176SAPI  H17X20107   5.813   7.258   8.368  0.4212  0.3145  1.2366
  176SAPI  H17Y20108   5.938   7.155   8.452 -0.0036 -0.3575 -2.4049
  176SAPI  C31820109   5.769   7.213   8.571 -0.1606 -0.3709 -0.4743
  176SAPI  H18X20110   5.673   7.268   8.554  0.4309  0.8754  0.1012
  176SAPI  H18Y20111   5.832   7.287   8.625  0.2310  1.5389 -3.3329
  176SAPI  H18Z20112   5.756   7.123   8.635  2.0434 -2.7137 -3.0955
  177SLPC     N20113   6.265   6.183  11.085  0.4397  0.3028 -0.1600
  177SLPC   C1320114   6.349   6.076  11.149  0.0944  0.0098 -0.1432
  177SLPC  H13A20115   6.455   6.089  11.135  0.2249  1.1618  1.5601
  177SLPC  H13B20116   6.334   6.069  11.256  0.0514  1.9782  0.0182
  177SLPC  H13C20117   6.329   5.976  11.114  1.0372 -0.3750  0.3907
  177SLPC   C1420118   6.297   6.314  11.155  0.2548 -1.0576 -0.1370
  177SLPC  H14A20119   6.397   6.352  11.141 -1.1349  3.1196 -0.0463
  177SLPC  H14B20120   6.248   6.403  11.119  0.8335  0.1027  1.7781
  177SLPC  H14C20121   6.274   6.304  11.260 -2.0859 -1.0804 -0.5936
  177SLPC   C1520122   6.118   6.148  11.110 -0.8448 -0.5724 -0.0440
  177SLPC  H15A20123   6.097   6.058  11.054 -0.6226  1.2435 -3.3227
  177SLPC  H15B20124   6.100   6.129  11.214  2.5004 -0.9195  0.6057
  177SLPC  H15C20125   6.060   6.238  11.099  1.6992  1.1847  0.1145
  177SLPC   C1220126   6.301   6.194  10.934 -0.3269 -0.0333  0.2959
  177SLPC  H12A20127   6.405   6.218  10.918 -0.4987  0.6880  0.2133
  177SLPC  H12B20128   6.245   6.278  10.896  2.8275  1.9747 -0.2757
  177SLPC   C1120129   6.267   6.069  10.843  0.5222 -0.6673  0.3342
  177SLPC  H11A20130   6.284   6.085  10.735  0.8077 -0.0630  0.4636
  177SLPC  H11B20131   6.160   6.039  10.843  0.4184 -0.3127 -0.8978
  177SLPC     P20132   6.497   5.932  10.833 -0.7505  0.0318 -0.3623
  177SLPC   O1320133   6.569   6.062  10.838 -0.5166  0.2619  0.0827
  177SLPC   O1420134   6.550   5.818  10.910 -0.2285 -0.2949 -0.2746
  177SLPC   O1220135   6.344   5.955  10.878  0.1224  0.5808 -0.4741
  177SLPC   O1120136   6.479   5.881  10.681  0.4758  0.1734  0.5582
  177SLPC    C120137   6.350   5.834  10.639 -0.0675 -0.7304 -0.0217
  177SLPC    HA20138   6.304   5.764  10.712 -0.0479 -0.1861  0.5213
  177SLPC    HB20139   6.271   5.911  10.627 -1.9624 -2.3492  1.3082
  177SLPC    C220140   6.363   5.741  10.520 -0.8472 -0.7468  0.2269
  177SLPC    HS20141   6.433   5.660  10.550 -0.5031 -0.8748 -0.8597
  177SLPC   O2120142   6.412   5.817  10.406  0.1601  0.3624 -0.2198
  177SLPC   C2120143   6.454   5.738  10.306  0.2535  0.3168 -0.3167
  177SLPC   O2220144   6.460   5.617  10.310  0.2402  0.0769 -0.1971
  177SLPC   C2220145   6.511   5.824  10.197  0.4321  0.4867  0.5402
  177SLPC   H2R20146   6.442   5.910  10.184 -0.9065 -0.5717  0.3240
  177SLPC   H2S20147   6.615   5.854  10.223  1.5582 -2.1967 -0.4924
  177SLPC    C320148   6.220   5.675  10.487  0.1836 -0.6143 -0.0667
  177SLPC    HX20149   6.197   5.605  10.570  0.7986  0.4379  1.0265
  177SLPC    HY20150   6.210   5.612  10.397 -0.8919 -0.4697 -0.0605
  177SLPC   O3120151   6.105   5.774  10.484 -0.1429 -0.5609 -0.0826
  177SLPC   C3120152   6.089   5.841  10.363  0.4870 -0.0790  0.7463
  177SLPC   O3220153   6.154   5.818  10.265  0.7010 -0.7621 -0.4737
  177SLPC   C3220154   5.979   5.940  10.373  0.4750  0.4136  0.5355
  177SLPC   H2X20155   6.018   6.010  10.450 -0.5176  1.8022 -0.1754
  177SLPC   H2Y20156   5.883   5.896  10.407  1.1744 -1.2529  0.4012
  177SLPC   C2320157   6.512   5.741  10.063  0.4488 -0.4156 -0.1367
  177SLPC   H3R20158   6.413   5.699  10.038  0.0341  1.2710 -1.4971
  177SLPC   H3S20159   6.592   5.663  10.066  0.7727 -0.0769  0.2279
  177SLPC   C2420160   6.542   5.823   9.931 -0.5850 -0.0583  0.1446
  177SLPC   H4R20161   6.643   5.868   9.922 -0.7503  0.3027  0.0938
  177SLPC   H4S20162   6.466   5.903   9.922 -0.2896  0.7457  3.4972
  177SLPC   C2520163   6.528   5.731   9.803  0.2774 -0.5513  0.1609
  177SLPC   H5R20164   6.418   5.720   9.793 -0.1437 -0.5192  3.7683
  177SLPC   H5S20165   6.595   5.644   9.822  3.4837  1.8970  0.9548
  177SLPC   C2620166   6.601   5.783   9.676 -0.2822  0.5460  0.5234
  177SLPC   H6R20167   6.705   5.809   9.702  0.4443 -1.3303 -0.3045
  177SLPC   H6S20168   6.542   5.867   9.634 -1.8119  1.3599  3.8992
  177SLPC   C2720169   6.619   5.673   9.559  0.9852  0.3557  0.0245
  177SLPC   H7R20170   6.695   5.597   9.587  0.6783 -1.4631 -3.5244
  177SLPC   H7S20171   6.662   5.728   9.473  0.5916  2.2109  0.9574
  177SLPC   C2820172   6.490   5.591   9.522  0.2208 -0.3872 -0.2045
  177SLPC   H8R20173   6.408   5.646   9.471 -0.3147  0.7384  1.7636
  177SLPC   H8S20174   6.450   5.546   9.615 -0.3928 -0.1458 -0.3485
  177SLPC   C2920175   6.530   5.467   9.446 -0.4932  0.4005  0.0651
  177SLPC   H9R20176   6.559   5.380   9.507 -0.1839  2.1490  2.5249
  177SLPC  C21020177   6.523   5.454   9.312 -0.7062 -0.9842  0.3331
  177SLPC  H10R20178   6.559   5.363   9.261  0.6142  0.8339 -2.2295
  177SLPC  C21120179   6.476   5.564   9.223  0.1513  0.3499  0.1838
  177SLPC  H11R20180   6.501   5.661   9.270  1.1727 -0.1736  0.7798
  177SLPC  H11S20181   6.534   5.563   9.128 -0.1729 -3.0233 -0.1056
  177SLPC  C21220182   6.325   5.564   9.194 -0.4385 -0.5210 -0.7102
  177SLPC  H12R20183   6.267   5.504   9.265 -0.7585  1.2408  0.6068
  177SLPC  C21320184   6.264   5.617   9.088 -0.0530 -0.4763  0.1074
  177SLPC  H13R20185   6.156   5.636   9.098 -0.0379 -0.4682  0.2656
  177SLPC  C21420186   6.328   5.685   8.968 -0.4042  0.2438 -0.2924
  177SLPC  H14R20187   6.410   5.751   9.003 -2.1139  1.9781  0.6469
  177SLPC  H14S20188   6.253   5.756   8.926 -1.2054  0.6995  1.7502
  177SLPC  C21520189   6.379   5.576   8.876  0.3097 -0.4575  0.1923
  177SLPC  H15R20190   6.395   5.475   8.920 -0.7751  1.1959  4.9601
  177SLPC  H15S20191   6.479   5.615   8.850  0.1120  1.4499  2.0605
  177SLPC  C21620192   6.295   5.564   8.746  0.5445 -0.3225  0.3777
  177SLPC  H16R20193   6.253   5.665   8.727 -0.0326 -0.6613 -0.1720
  177SLPC  H16S20194   6.207   5.498   8.757  0.6421 -0.4952  0.1309
  177SLPC  C21720195   6.373   5.531   8.624 -0.3518  0.4805 -0.6372
  177SLPC  H17R20196   6.411   5.427   8.634 -0.3232  0.5505  0.0265
  177SLPC  H17S20197   6.461   5.597   8.609 -0.8674  1.2983 -0.1294
  177SLPC  C21820198   6.291   5.541   8.498 -0.1892  0.0980 -1.0095
  177SLPC  H18R20199   6.352   5.541   8.405 -1.1055 -0.6200 -1.6223
  177SLPC  H18S20200   6.229   5.634   8.491 -1.8452 -0.8803  0.0550
  177SLPC  H18T20201   6.230   5.449   8.491  0.5472 -0.9253  3.2263
  177SLPC   C3320202   5.957   6.016  10.240  0.3317 -0.0519 -0.4982
  177SLPC   H3X20203   6.052   6.043  10.189  0.2243  1.9023  0.2306
  177SLPC   H3Y20204   5.908   6.115  10.252  1.2644  0.5486 -1.4134
  177SLPC   C3420205   5.856   5.932  10.154  0.1463 -0.1771 -0.3565
  177SLPC   H4X20206   5.755   5.922  10.201 -0.2851 -0.5214 -1.3448
  177SLPC   H4Y20207   5.892   5.827  10.151 -2.5420 -1.2221  0.8686
  177SLPC   C3520208   5.835   5.990  10.007 -0.1709  0.7138 -0.1057
  177SLPC   H5X20209   5.828   5.908   9.932 -0.3330 -0.3885  1.0778
  177SLPC   H5Y20210   5.912   6.064   9.975 -0.6593  0.8763 -0.9225
  177SLPC   C3620211   5.701   6.069  10.013  0.5460 -0.3965  0.1538
  177SLPC   H6X20212   5.719   6.161  10.073  1.5704  1.1368 -2.3141
  177SLPC   H6Y20213   5.624   6.008  10.065  0.6071 -2.4643 -2.0141
  177SLPC   C3720214   5.648   6.132   9.886 -0.4224  0.2147 -0.0765
  177SLPC   H7X20215   5.727   6.204   9.856  0.3863  0.2847  2.0709
  177SLPC   H7Y20216   5.555   6.186   9.912  0.9510  2.6471  0.1887
  177SLPC   C3820217   5.623   6.029   9.773 -0.4629 -0.4868 -0.0331
  177SLPC   H8X20218   5.562   5.945   9.813  0.4439 -0.8456  0.6367
  177SLPC   H8Y20219   5.715   5.972   9.749 -0.3197 -0.2893  0.0353
  177SLPC   C3920220   5.562   6.087   9.650 -0.6012  1.0261 -0.4500
  177SLPC   H9X20221   5.469   6.142   9.673 -2.6593 -2.4013  0.0707
  177SLPC   H9Y20222   5.527   6.001   9.589  1.9733 -0.1871 -0.3468
  177SLPC  C31020223   5.659   6.174   9.573  0.0944  0.1108  0.1622
  177SLPC  H10X20224   5.752   6.116   9.555 -1.0848 -1.9073  0.2983
  177SLPC  H10Y20225   5.678   6.268   9.629  3.2131 -1.0154  1.1536
  177SLPC  C31120226   5.601   6.225   9.441  0.6554 -0.9899  0.1213
  177SLPC  H11X20227   5.498   6.265   9.454  0.0844 -2.4984  0.4729
  177SLPC  H11Y20228   5.595   6.134   9.377  0.8146 -1.5663  0.9188
  177SLPC  C31220229   5.691   6.317   9.354 -0.2177  0.0822 -0.7308
  177SLPC  H12X20230   5.786   6.261   9.342  0.3991  0.8624  0.2869
  177SLPC  H12Y20231   5.724   6.408   9.410 -0.7207  0.5409 -1.1636
  177SLPC  C31320232   5.619   6.353   9.222 -0.5464 -0.3023 -0.0245
  177SLPC  H13X20233   5.513   6.369   9.252 -0.5229  1.2973 -0.6855
  177SLPC  H13Y20234   5.613   6.254   9.171  0.4543 -1.0507  1.2504
  177SLPC  C31420235   5.670   6.478   9.149  0.8309 -0.2230 -0.2999
  177SLPC  H14X20236   5.779   6.457   9.136  1.2012  0.4099  1.4905
  177SLPC  H14Y20237   5.660   6.563   9.219 -0.7574 -0.8271  0.2537
  177SLPC  C31520238   5.588   6.529   9.029  0.3859  0.7977  0.1136
  177SLPC  H15X20239   5.484   6.547   9.063  0.3995  1.7700 -0.3366
  177SLPC  H15Y20240   5.591   6.450   8.951  0.2075 -0.5948  1.4710
  177SLPC  C31620241   5.628   6.661   8.954 -0.6167  0.1623 -0.1881
  177SLPC  H16X20242   5.624   6.735   9.037 -3.4684  1.2184 -1.1434
  177SLPC  H16Y20243   5.544   6.692   8.888 -0.8557 -1.8365 -0.8886
  177SLPC  C31720244   5.761   6.657   8.881  0.1158  0.3053  0.5178
  177SLPC  H17X20245   5.753   6.589   8.794 -1.0410  1.1341 -0.0619
  177SLPC  H17Y20246   5.847   6.624   8.942 -0.4644  0.6549  1.5589
  177SLPC  C31820247   5.809   6.793   8.835  0.0313  0.0312  0.2487
  177SLPC  H18X20248   5.882   6.782   8.752  0.2491 -0.9517  0.5611
  177SLPC  H18Y20249   5.859   6.848   8.917  2.3532 -1.1119 -0.3172
  177SLPC  H18Z20250   5.724   6.858   8.805 -1.3584 -1.1537  1.4303
  178SLPC     N20251   1.552   5.537  10.675  0.3947 -0.7753  0.9414
  178SLPC   C1320252   1.500   5.457  10.549 -0.4060  0.1274 -0.2990
  178SLPC  H13A20253   1.439   5.530  10.497  0.9683  1.5922  0.0780
  178SLPC  H13B20254   1.582   5.420  10.490 -1.0301 -0.3187 -0.9013
  178SLPC  H13C20255   1.445   5.371  10.585  0.1468 -0.7206 -1.4178
  178SLPC   C1420256   1.623   5.445  10.768 -0.8877  0.8810 -0.7210
  178SLPC  H14A20257   1.658   5.495  10.857 -2.4686 -0.8380  0.9549
  178SLPC  H14B20258   1.555   5.372  10.808  0.5203  0.6148  1.3043
  178SLPC  H14C20259   1.710   5.401  10.723 -0.4571 -1.2714  1.9596
  178SLPC   C1520260   1.432   5.595  10.748  0.7718  1.0394  0.5476
  178SLPC  H15A20261   1.465   5.638  10.841  0.6012 -0.0355  1.1170
  178SLPC  H15B20262   1.392   5.677  10.691  1.2387  0.9405  0.0629
  178SLPC  H15C20263   1.349   5.526  10.746 -0.2662  2.0762 -3.9710
  178SLPC   C1220264   1.650   5.640  10.622  0.5318  0.2115  0.0699
  178SLPC  H12A20265   1.714   5.600  10.545 -0.7404  1.3218 -1.6271
  178SLPC  H12B20266   1.727   5.670  10.692  0.3194  0.5887  0.1373
  178SLPC   C1120267   1.586   5.773  10.569 -0.4609  0.4488  0.1010
  178SLPC  H11A20268   1.505   5.747  10.497 -0.4387 -0.1826  0.3027
  178SLPC  H11B20269   1.666   5.835  10.524  1.5885 -0.8656  1.7603
  178SLPC     P20270   1.638   5.938  10.771 -0.0133  0.0397 -0.0823
  178SLPC   O1320271   1.574   5.956  10.900 -0.2506 -0.0132 -0.4832
  178SLPC   O1420272   1.767   5.873  10.771 -0.3484  0.2312  0.1187
  178SLPC   O1220273   1.540   5.858  10.674  0.9248  0.2978  0.4316
  178SLPC   O1120274   1.652   6.082  10.699 -0.1116  0.6732 -0.5297
  178SLPC    C120275   1.539   6.149  10.653  0.4683 -0.3846  0.2606
  178SLPC    HA20276   1.442   6.095  10.657  0.0921  0.3459  1.8538
  178SLPC    HB20277   1.507   6.224  10.728 -1.0919 -1.8139  1.0930
  178SLPC    C220278   1.574   6.222  10.518 -0.1659 -0.3046  0.2849
  178SLPC    HS20279   1.499   6.304  10.509 -0.4959 -0.4563  1.5683
  178SLPC   O2120280   1.557   6.128  10.406 -0.2146  0.3525  0.2694
  178SLPC   C2120281   1.439   6.124  10.354  0.1793  0.7238 -0.9281
  178SLPC   O2220282   1.336   6.183  10.392  0.0070  0.5767  0.0877
  178SLPC   C2220283   1.433   6.039  10.236 -0.3055  0.5432  0.4130
  178SLPC   H2R20284   1.536   6.040  10.194 -0.2681  0.1352  0.4929
  178SLPC   H2S20285   1.392   5.939  10.262 -1.1711  1.1846  1.5938
  178SLPC    C320286   1.716   6.279  10.522  0.2530  0.2346 -0.0617
  178SLPC    HX20287   1.785   6.193  10.533  0.6313  0.4238 -0.9317
  178SLPC    HY20288   1.719   6.345  10.612 -1.0481 -0.6405  0.6450
  178SLPC   O3120289   1.757   6.343  10.401  0.4770 -0.3562  0.2791
  178SLPC   C3120290   1.778   6.470  10.404  0.5747  0.0336 -0.0575
  178SLPC   O3220291   1.770   6.542  10.500 -0.4132  0.5288  0.0097
  178SLPC   C3220292   1.829   6.506  10.273  0.4894 -0.5743  0.4004
  178SLPC   H2X20293   1.844   6.419  10.207 -1.2570  1.0020 -2.2850
  178SLPC   H2Y20294   1.928   6.548  10.301  1.6223 -1.5506 -1.9666
  178SLPC   C2320295   1.351   6.091  10.111  0.7752 -0.8491  0.4124
  178SLPC   H3R20296   1.244   6.114  10.133  0.6260 -0.5031 -0.5928
  178SLPC   H3S20297   1.350   6.008  10.036 -1.2165 -0.6325  0.1206
  178SLPC   C2420298   1.411   6.206  10.037 -0.8697 -0.4218 -0.0646
  178SLPC   H4R20299   1.511   6.181   9.996  0.6751  0.6888  2.7380
  178SLPC   H4S20300   1.433   6.297  10.097 -0.9464  0.0654 -0.7536
  178SLPC   C2520301   1.330   6.265   9.925 -0.8070  0.0629 -0.7067
  178SLPC   H5R20302   1.300   6.368   9.953  0.1062 -0.0725  0.8765
  178SLPC   H5S20303   1.242   6.198   9.912 -1.2250  0.1752  1.2362
  178SLPC   C2620304   1.416   6.279   9.801  0.5659 -0.2624  0.2084
  178SLPC   H6R20305   1.478   6.191   9.771 -1.5131 -1.7342  0.0080
  178SLPC   H6S20306   1.481   6.367   9.821 -2.7589  2.2869  0.5515
  178SLPC   C2720307   1.323   6.304   9.678 -0.0341  0.6587  0.5062
  178SLPC   H7R20308   1.264   6.397   9.695 -0.7764  0.2009  0.4503
  178SLPC   H7S20309   1.246   6.225   9.677  0.2151  0.3531  2.6121
  178SLPC   C2820310   1.396   6.325   9.538 -0.1367 -0.0165  0.3810
  178SLPC   H8R20311   1.468   6.409   9.547 -1.6052  1.2689  0.5661
  178SLPC   H8S20312   1.324   6.362   9.461 -0.0927  0.9661  0.7991
  178SLPC   C2920313   1.468   6.199   9.498 -0.9486 -0.7557 -0.0632
  178SLPC   H9R20314   1.569   6.197   9.540 -1.4474 -3.6494  1.2666
  178SLPC  C21020315   1.424   6.105   9.420  0.0410 -0.2435  0.4989
  178SLPC  H10R20316   1.476   6.009   9.404  0.4084 -0.5368  3.0436
  178SLPC  C21120317   1.291   6.108   9.351 -0.1398 -0.0010  0.0545
  178SLPC  H11R20318   1.268   6.208   9.309  2.1665  0.0102 -1.3950
  178SLPC  H11S20319   1.217   6.097   9.433  3.3455 -2.3531  3.2141
  178SLPC  C21220320   1.281   6.005   9.240 -0.3426 -0.4078  0.3286
  178SLPC  H12R20321   1.270   5.901   9.274 -0.2783  0.1650  2.2179
  178SLPC  C21320322   1.293   6.033   9.109  0.3102 -0.1448 -0.0902
  178SLPC  H13R20323   1.267   5.955   9.036 -1.2291 -0.1456  0.4212
  178SLPC  C21420324   1.301   6.173   9.057  0.3732  0.6197 -0.8910
  178SLPC  H14R20325   1.355   6.170   8.961  1.4630 -1.2558 -0.2780
  178SLPC  H14S20326   1.379   6.231   9.111  0.4158 -0.5844  0.4403
  178SLPC  C21520327   1.172   6.238   9.039  0.5115  0.0285 -0.3206
  178SLPC  H15R20328   1.126   6.265   9.137 -1.1075  1.1637 -1.3386
  178SLPC  H15S20329   1.105   6.169   8.983  0.3461 -0.2166  0.1664
  178SLPC  C21620330   1.186   6.372   8.953  0.4566 -0.2085  0.0603
  178SLPC  H16R20331   1.258   6.355   8.871 -2.5083  1.9164 -3.3000
  178SLPC  H16S20332   1.233   6.454   9.011 -0.9273  1.2866 -0.8515
  178SLPC  C21720333   1.050   6.424   8.894 -0.3279 -0.0995  0.2557
  178SLPC  H17R20334   1.018   6.341   8.829 -0.9908  0.8860 -0.7061
  178SLPC  H17S20335   1.069   6.516   8.835 -1.7804 -0.3528 -0.6610
  178SLPC  C21820336   0.950   6.445   9.010 -0.5540 -0.0629 -0.2675
  178SLPC  H18R20337   0.990   6.513   9.089  3.2575  0.1751 -2.1899
  178SLPC  H18S20338   0.920   6.353   9.064 -2.6455  0.2972 -0.7150
  178SLPC  H18T20339   0.851   6.480   8.973 -1.6618 -2.5016  0.2156
  178SLPC   C3320340   1.746   6.617  10.202 -0.3671 -0.1647 -0.2811
  178SLPC   H3X20341   1.814   6.661  10.125 -0.7017 -1.4220 -1.3330
  178SLPC   H3Y20342   1.713   6.696  10.273 -0.4418  0.3703 -0.9009
  178SLPC   C3420343   1.611   6.573  10.145 -0.1339 -0.2430  0.2622
  178SLPC   H4X20344   1.551   6.547  10.235 -0.4631  0.3840  0.2356
  178SLPC   H4Y20345   1.615   6.479  10.087  0.4486 -0.4617  0.6434
  178SLPC   C3520346   1.545   6.687  10.063  0.3955  0.0883 -0.3325
  178SLPC   H5X20347   1.592   6.785  10.080 -0.5890  0.3558  1.0242
  178SLPC   H5Y20348   1.438   6.697  10.093  0.1607 -2.4074 -0.0863
  178SLPC   C3620349   1.565   6.663   9.907 -0.8103  0.4285 -0.0969
  178SLPC   H6X20350   1.520   6.747   9.850 -1.5070 -1.2033 -2.0651
  178SLPC   H6Y20351   1.492   6.586   9.873 -2.5022  2.1370 -0.4821
  178SLPC   C3720352   1.704   6.627   9.854  0.2930 -0.2324  0.7489
  178SLPC   H7X20353   1.750   6.546   9.914 -0.4230 -0.7201  0.6484
  178SLPC   H7Y20354   1.776   6.711   9.865 -1.1622  0.8165  2.9156
  178SLPC   C3820355   1.710   6.581   9.702 -0.1667  0.9597 -0.1808
  178SLPC   H8X20356   1.632   6.502   9.699  1.0879 -0.3024 -2.6174
  178SLPC   H8Y20357   1.808   6.532   9.684 -0.7399  0.0670 -0.9794
  178SLPC   C3920358   1.668   6.684   9.602  0.4533 -0.0909  0.1792
  178SLPC   H9X20359   1.748   6.761   9.592  0.7829 -0.6151 -1.6355
  178SLPC   H9Y20360   1.572   6.731   9.634 -0.3548 -1.8182  0.4080
  178SLPC  C31020361   1.651   6.642   9.459 -0.0561  0.2609 -0.0866
  178SLPC  H10X20362   1.612   6.727   9.399 -0.4754 -0.0813 -0.3029
  178SLPC  H10Y20363   1.587   6.552   9.460  0.5053 -0.1915  2.4058
  178SLPC  C31120364   1.786   6.592   9.407  0.3842 -0.1501  0.7036
  178SLPC  H11X20365   1.846   6.524   9.472  1.0343 -1.4958 -1.2166
  178SLPC  H11Y20366   1.853   6.681   9.402 -0.9207  0.8987  1.2614
  178SLPC  C31220367   1.792   6.530   9.262  0.2409 -0.0817  0.0868
  178SLPC  H12X20368   1.899   6.528   9.232  0.8077 -2.5688  1.9929
  178SLPC  H12Y20369   1.738   6.599   9.194  0.5563  1.5726  1.4371
  178SLPC  C31320370   1.735   6.386   9.261 -0.6241  0.1010 -0.2282
  178SLPC  H13X20371   1.628   6.395   9.290 -0.1948  0.0871  1.4624
  178SLPC  H13Y20372   1.793   6.341   9.344 -0.0123  2.3261  0.6204
  178SLPC  C31420373   1.747   6.310   9.128 -0.2804  0.5238  0.1694
  178SLPC  H14X20374   1.851   6.293   9.092 -0.8893 -2.4818 -0.4644
  178SLPC  H14Y20375   1.691   6.353   9.042 -1.2609 -0.7165  0.1621
  178SLPC  C31520376   1.690   6.173   9.148  0.0060  0.1322 -0.0640
  178SLPC  H15X20377   1.759   6.136   9.228  2.3122  0.9589 -1.5687
  178SLPC  H15Y20378   1.588   6.182   9.190 -0.1811  1.8002 -0.8140
  178SLPC  C31620379   1.705   6.093   9.017  0.1502 -0.2068  0.0250
  178SLPC  H16X20380   1.814   6.096   8.998  0.2318  0.7345  0.5879
  178SLPC  H16Y20381   1.657   6.149   8.933  3.8239  2.1812 -0.7218
  178SLPC  C31720382   1.654   5.946   9.013 -0.2467 -0.1038  0.1122
  178SLPC  H17X20383   1.712   5.888   8.938 -0.6691 -0.5229  0.1085
  178SLPC  H17Y20384   1.551   5.937   8.975  0.3878 -3.6479 -1.1116
  178SLPC  C31820385   1.667   5.864   9.140 -0.3848  0.1605  0.6796
  178SLPC  H18X20386   1.590   5.900   9.211 -0.2117  1.3504  0.2758
  178SLPC  H18Y20387   1.769   5.884   9.180  0.2207  2.2242 -1.6210
  178SLPC  H18Z20388   1.642   5.756   9.132  0.5411 -0.0409  0.3162
  179SLPC     N20389   1.301   4.484  10.339  0.4427 -0.3632  0.1117
  179SLPC   C1320390   1.329   4.342  10.287 -0.0892  0.2426 -0.3566
  179SLPC  H13A20391   1.422   4.302  10.325  0.2723  0.2680 -1.1878
  179SLPC  H13B20392   1.247   4.279  10.316 -0.3635  1.2397  1.1436
  179SLPC  H13C20393   1.333   4.351  10.179 -0.7976  2.6715 -0.2516
  179SLPC   C1420394   1.172   4.534  10.277 -0.0767 -0.4212  0.3004
  179SLPC  H14A20395   1.089   4.467  10.291  0.0896 -0.6997 -0.0256
  179SLPC  H14B20396   1.145   4.628  10.323  1.1178 -1.0578  2.4554
  179SLPC  H14C20397   1.181   4.556  10.172  0.7166 -0.2023  0.4025
  179SLPC   C1520398   1.410   4.577  10.305  0.2808  0.1951  0.0878
  179SLPC  H15A20399   1.431   4.578  10.199 -1.2511 -0.9931 -0.2608
  179SLPC  H15B20400   1.382   4.678  10.334 -0.8412  0.0093 -0.3064
  179SLPC  H15C20401   1.500   4.559  10.363  0.7801  0.1801 -0.6821
  179SLPC   C1220402   1.285   4.478  10.487  0.0478  0.3964  0.7307
  179SLPC  H12A20403   1.236   4.570  10.515  2.3540  2.1326 -0.5549
  179SLPC  H12B20404   1.385   4.486  10.527  1.1315  0.5774 -1.8510
  179SLPC   C1120405   1.205   4.361  10.549  0.0429 -0.2606 -0.2290
  179SLPC  H11A20406   1.209   4.376  10.659  2.5960 -1.6784 -0.0466
  179SLPC  H11B20407   1.258   4.264  10.533  0.3866 -0.1308  0.1226
  179SLPC     P20408   1.012   4.231  10.417  0.4854  0.1356 -0.0378
  179SLPC   O1320409   1.118   4.139  10.379  0.6567 -0.0913  0.2497
  179SLPC   O1420410   0.892   4.179  10.497 -0.0995 -0.3068 -0.0268
  179SLPC   O1220411   1.073   4.354  10.496  0.0896 -0.0866 -0.4333
  179SLPC   O1120412   0.959   4.302  10.291  0.5795 -0.2742 -0.3851
  179SLPC    C120413   0.851   4.399  10.277  0.0670  0.2944 -0.6383
  179SLPC    HA20414   0.843   4.452  10.374  0.8452  0.4794 -0.6693
  179SLPC    HB20415   0.882   4.472  10.199 -1.7349  0.7929 -0.9255
  179SLPC    C220416   0.712   4.333  10.252  1.2560  0.0633 -0.7916
  179SLPC    HS20417   0.711   4.247  10.322  0.4612  0.3274 -0.4701
  179SLPC   O2120418   0.717   4.284  10.114  0.2729  0.2395  0.4534
  179SLPC   C2120419   0.693   4.161  10.100 -0.9900  0.6190 -0.3812
  179SLPC   O2220420   0.675   4.075  10.187 -0.3716 -0.4091  0.4116
  179SLPC   C2220421   0.707   4.135   9.950 -0.7947 -0.2201 -0.0899
  179SLPC   H2R20422   0.669   4.227   9.901 -0.9338 -0.0206  0.3802
  179SLPC   H2S20423   0.815   4.120   9.926 -0.5067 -2.5697  2.2127
  179SLPC    C320424   0.600   4.433  10.275  0.2473 -0.9206 -0.2153
  179SLPC    HX20425   0.614   4.531  10.225 -1.2519  0.4494  1.8867
  179SLPC    HY20426   0.616   4.453  10.383  0.0204 -2.7840  0.1948
  179SLPC   O3120427   0.468   4.379  10.237  0.4180  0.5092  0.7697
  179SLPC   C3120428   0.416   4.293  10.332  0.0685 -0.0063  0.1877
  179SLPC   O3220429   0.469   4.260  10.440  0.5103 -0.2940  0.2814
  179SLPC   C3220430   0.284   4.235  10.279  0.0562 -0.2813  0.5298
  179SLPC   H2X20431   0.250   4.307  10.202  0.4883 -1.7888 -1.1210
  179SLPC   H2Y20432   0.208   4.227  10.360 -2.0580 -1.2689 -1.4327
  179SLPC   C2320433   0.609   4.031   9.898 -0.4336 -0.2345  0.1157
  179SLPC   H3R20434   0.502   4.045   9.921 -0.5007  1.0652 -0.9118
  179SLPC   H3S20435   0.640   3.932   9.939 -1.4141 -0.9255 -0.7862
  179SLPC   C2420436   0.622   4.019   9.744 -0.6232  0.2519 -0.2435
  179SLPC   H4R20437   0.727   4.007   9.711 -0.4247 -0.5797  0.6757
  179SLPC   H4S20438   0.578   4.112   9.701 -2.8271 -0.8300 -0.4759
  179SLPC   C2520439   0.550   3.904   9.665 -0.7462 -0.2445 -0.7546
  179SLPC   H5R20440   0.442   3.923   9.677 -1.1351 -3.3575  1.9049
  179SLPC   H5S20441   0.589   3.813   9.715 -0.2902  0.0116 -0.6396
  179SLPC   C2620442   0.573   3.899   9.508  0.1105  0.3025  0.5452
  179SLPC   H6R20443   0.669   3.844   9.495  1.7522  2.7672  1.4784
  179SLPC   H6S20444   0.601   4.003   9.481 -1.7965  1.2315  1.9266
  179SLPC   C2720445   0.451   3.846   9.423 -0.5357  0.0532  0.4726
  179SLPC   H7R20446   0.366   3.911   9.453 -0.0559  0.6240  0.6074
  179SLPC   H7S20447   0.424   3.748   9.468  1.7603 -2.1389 -2.4753
  179SLPC   C2820448   0.470   3.840   9.271 -0.1581  0.7650 -0.0468
  179SLPC   H8R20449   0.544   3.758   9.256 -2.1790 -0.7709 -2.3785
  179SLPC   H8S20450   0.506   3.934   9.225  1.7132  0.0579 -0.1158
  179SLPC   C2920451   0.343   3.783   9.217 -0.1890  0.2947 -0.0797
  179SLPC   H9R20452   0.248   3.833   9.244 -0.2946  0.7613 -1.2506
  179SLPC  C21020453   0.343   3.680   9.124 -0.1990  0.6855 -0.3304
  179SLPC  H10R20454   0.242   3.667   9.083 -1.5295  1.0653  2.5157
  179SLPC  C21120455   0.453   3.600   9.072 -0.4143  0.1220  0.0302
  179SLPC  H11R20456   0.483   3.523   9.146  1.1834  1.4977  0.8768
  179SLPC  H11S20457   0.542   3.667   9.066 -1.3616  1.5858  1.2833
  179SLPC  C21220458   0.420   3.525   8.947 -0.1857  0.3844  0.3381
  179SLPC  H12R20459   0.314   3.505   8.926 -0.1468  0.9461 -0.4194
  179SLPC  C21320460   0.509   3.482   8.853 -0.4515 -0.2683  0.1473
  179SLPC  H13R20461   0.466   3.428   8.767 -0.9413  0.2110  0.0813
  179SLPC  C21420462   0.657   3.497   8.860 -0.1578 -0.5784  0.0919
  179SLPC  H14R20463   0.704   3.412   8.805  1.8967 -0.9280  2.2015
  179SLPC  H14S20464   0.697   3.482   8.963  0.9585 -2.1649 -0.5199
  179SLPC  C21520465   0.715   3.629   8.811 -0.0881  0.1715  0.0210
  179SLPC  H15R20466   0.826   3.635   8.815  0.0455  1.6680 -3.0441
  179SLPC  H15S20467   0.673   3.706   8.879 -1.2415 -1.4167  1.1942
  179SLPC  C21620468   0.674   3.663   8.670 -0.3242  0.4890  1.1602
  179SLPC  H16R20469   0.566   3.682   8.655 -0.0134  2.9090  1.4975
  179SLPC  H16S20470   0.705   3.582   8.601 -1.7697  1.3780 -0.6127
  179SLPC  C21720471   0.741   3.793   8.627 -0.5714 -0.2163  0.2208
  179SLPC  H17R20472   0.846   3.782   8.661  0.0455  0.6146 -1.3146
  179SLPC  H17S20473   0.692   3.873   8.686 -2.6356 -0.5223 -0.9753
  179SLPC  C21820474   0.750   3.821   8.475 -0.0129  0.4364 -0.4144
  179SLPC  H18R20475   0.645   3.805   8.442 -0.0951  2.2447 -1.1363
  179SLPC  H18S20476   0.806   3.749   8.411  0.8102  1.9931 -1.5090
  179SLPC  H18T20477   0.768   3.928   8.452 -0.0391  0.4005 -0.6037
  179SLPC   C3320478   0.298   4.090  10.218 -0.2928  0.2502 -0.4126
  179SLPC   H3X20479   0.289   4.016  10.301  0.4844  1.2773  0.6241
  179SLPC   H3Y20480   0.396   4.073  10.168  1.5776  0.5073  2.8759
  179SLPC   C3420481   0.187   4.057  10.122 -0.2097 -0.0741  0.4665
  179SLPC   H4X20482   0.178   4.129  10.038  3.1188 -2.0391 -1.7920
  179SLPC   H4Y20483   0.091   4.061  10.178 -0.8292 -0.9850 -0.4858
  179SLPC   C3520484   0.200   3.918  10.056 -0.4122 -0.4151 -0.2650
  179SLPC   H5X20485   0.186   3.829  10.122 -0.6709 -1.0642 -1.1715
  179SLPC   H5Y20486   0.307   3.905  10.027  1.1913  0.4422  4.3555
  179SLPC   C3620487   0.098   3.904   9.944  0.6391 -0.0252 -0.0132
  179SLPC   H6X20488   0.112   3.989   9.874  0.1961  0.1100  0.0608
  179SLPC   H6Y20489  -0.002   3.910   9.991 -0.4162 -2.4617 -1.7277
  179SLPC   C3720490   0.106   3.771   9.874 -0.2794 -0.5723 -0.1488
  179SLPC   H7X20491   0.018   3.760   9.807 -2.0389 -4.0580  2.4138
  179SLPC   H7Y20492   0.092   3.689   9.947 -1.7796 -0.9818 -0.8489
  179SLPC   C3820493   0.230   3.756   9.778 -0.4386 -0.2708 -0.5867
  179SLPC   H8X20494   0.320   3.779   9.838 -2.2979  2.1255  1.4802
  179SLPC   H8Y20495   0.233   3.841   9.706  0.9612  1.4988  1.4350
  179SLPC   C3920496   0.230   3.623   9.710 -0.3231  0.0139  0.4642
  179SLPC   H9X20497   0.193   3.540   9.774  2.0605 -0.2532  1.5992
  179SLPC   H9Y20498   0.332   3.601   9.672  1.1149  2.9326  2.1607
  179SLPC  C31020499   0.153   3.621   9.574 -0.4792 -0.3096  0.4624
  179SLPC  H10X20500   0.196   3.706   9.517  0.7006  1.5007  3.7727
  179SLPC  H10Y20501   0.045   3.635   9.595 -0.2767  1.0262  0.7271
  179SLPC  C31120502   0.159   3.489   9.501 -0.5084 -0.1359  0.1338
  179SLPC  H11X20503   0.125   3.415   9.577 -0.9113  0.5675  0.6560
  179SLPC  H11Y20504   0.264   3.479   9.467  0.3333  3.2424  1.2601
  179SLPC  C31220505   0.075   3.511   9.370  0.0210 -0.4703  0.1893
  179SLPC  H12X20506   0.120   3.603   9.329 -2.0599  2.5856  4.0689
  179SLPC  H12Y20507  -0.032   3.523   9.398  0.5221  1.5968  1.4553
  179SLPC  C31320508   0.103   3.384   9.284  0.7296 -0.1364 -0.1067
  179SLPC  H13X20509   0.063   3.304   9.350 -1.6865  1.5493  0.5732
  179SLPC  H13Y20510   0.214   3.376   9.273  0.6779 -0.7512 -0.2160
  179SLPC  C31420511   0.046   3.384   9.136 -0.0174 -0.2399  0.0850
  179SLPC  H14X20512   0.045   3.485   9.090  0.1550  0.2350  1.0978
  179SLPC  H14Y20513  -0.058   3.344   9.139 -0.3478  0.4885 -0.9386
  179SLPC  C31520514   0.127   3.303   9.033  0.8271 -0.1147 -0.5039
  179SLPC  H15X20515   0.233   3.332   9.047  0.7230  0.1501 -0.2402
  179SLPC  H15Y20516   0.103   3.335   8.930 -0.4124 -1.7218 -0.7418
  179SLPC  C31620517   0.116   3.154   9.049 -0.6754 -0.5211 -0.0968
  179SLPC  H16X20518   0.009   3.139   9.075 -0.9706 -0.2483 -1.1241
  179SLPC  H16Y20519   0.182   3.124   9.133 -1.7671 -0.7770  0.6840
  179SLPC  C31720520   0.159   3.081   8.923 -0.3886 -1.0443 -0.3785
  179SLPC  H17X20521   0.255   3.117   8.881  0.4980 -0.6408  1.8787
  179SLPC  H17Y20522   0.088   3.094   8.838  0.0071  1.2122 -0.4171
  179SLPC  C31820523   0.172   2.927   8.938  0.7770  0.0043  0.5223
  179SLPC  H18X20524   0.261   2.905   9.001  1.3056 -0.9241 -0.5020
  179SLPC  H18Y20525   0.195   2.885   8.838 -1.2168  1.5271 -0.6471
  179SLPC  H18Z20526   0.081   2.877   8.978  0.8317 -1.8381 -1.4648
  180SLPC     N20527   2.907   2.174  10.883 -0.0102 -0.5124 -0.9044
  180SLPC   C1320528   2.774   2.117  10.932 -0.5998  0.1242  0.3268
  180SLPC  H13A20529   2.781   2.015  10.966 -2.5094  0.2400  1.1792
  180SLPC  H13B20530   2.726   2.166  11.015 -0.1950  0.2629  0.4820
  180SLPC  H13C20531   2.703   2.108  10.851 -0.9292 -1.2120  0.7424
  180SLPC   C1420532   2.968   2.080  10.787 -0.0970  0.3610 -0.0910
  180SLPC  H14A20533   3.048   2.138  10.743 -0.6541  3.5701  2.7254
  180SLPC  H14B20534   3.009   1.996  10.842 -2.5064 -0.8237  0.0091
  180SLPC  H14C20535   2.901   2.060  10.706  0.7770 -0.4009 -0.6463
  180SLPC   C1520536   2.997   2.198  11.009  0.0627 -0.0979 -0.0691
  180SLPC  H15A20537   3.002   2.100  11.053 -0.0806 -0.1119 -0.0827
  180SLPC  H15B20538   3.091   2.238  10.975 -0.2357  2.7257  2.1310
  180SLPC  H15C20539   2.948   2.266  11.077 -0.9704 -0.1853 -0.7023
  180SLPC   C1220540   2.897   2.313  10.816  0.1616  0.1544 -0.2059
  180SLPC  H12A20541   2.833   2.370  10.882  1.1951  2.7267 -1.2934
  180SLPC  H12B20542   2.834   2.312  10.729 -0.5832  0.8475  0.3084
  180SLPC   C1120543   3.029   2.396  10.784 -0.3875 -0.5954  0.1379
  180SLPC  H11A20544   3.085   2.419  10.877 -2.2362  0.5321  1.0369
  180SLPC  H11B20545   2.986   2.496  10.761 -1.4385 -1.4868 -2.0292
  180SLPC     P20546   3.101   2.367  10.530 -0.4128  0.1093 -0.1849
  180SLPC   O1320547   3.159   2.498  10.500 -0.1560 -0.9192  0.2430
  180SLPC   O1420548   3.169   2.251  10.462 -0.4043 -0.1703  0.0748
  180SLPC   O1220549   3.117   2.349  10.687 -0.5193  0.0738 -0.0172
  180SLPC   O1120550   2.947   2.362  10.518  0.3940  0.0564 -0.1191
  180SLPC    C120551   2.866   2.468  10.469  0.2572  0.0269 -0.3521
  180SLPC    HA20552   2.780   2.469  10.540  2.8111 -2.9588  3.1541
  180SLPC    HB20553   2.910   2.570  10.473 -2.7267  1.4160  0.2768
  180SLPC    C220554   2.824   2.459  10.317  0.0834  0.8163 -0.3287
  180SLPC    HS20555   2.766   2.549  10.287  0.4498  0.8468 -0.9586
  180SLPC   O2120556   2.737   2.334  10.298 -0.2990 -0.9263 -0.4696
  180SLPC   C2120557   2.670   2.342  10.187 -0.0528 -0.2912  0.2609
  180SLPC   O2220558   2.671   2.421  10.096 -0.2935  0.3216 -0.1517
  180SLPC   C2220559   2.601   2.208  10.190 -0.0980 -0.4098  1.0025
  180SLPC   H2R20560   2.675   2.137  10.149  0.1241 -0.3342  1.2725
  180SLPC   H2S20561   2.575   2.185  10.295  0.4429 -1.4823  0.9106
  180SLPC    C320562   2.954   2.449  10.231 -0.5107 -0.9588  0.4606
  180SLPC    HX20563   2.985   2.343  10.231  2.1967 -0.2532  2.1507
  180SLPC    HY20564   3.026   2.517  10.282 -0.4009  0.4918 -1.5383
  180SLPC   O3120565   2.932   2.482  10.094 -0.6118  0.2303 -0.4326
  180SLPC   C3120566   3.000   2.589  10.048  0.3472  0.5066  0.3767
  180SLPC   O3220567   3.078   2.654  10.117  0.0667 -0.2542 -0.2675
  180SLPC   C3220568   2.957   2.620   9.901 -0.6388 -0.3489  0.0665
  180SLPC   H2X20569   3.048   2.646   9.843  0.2339 -0.0943  1.4853
  180SLPC   H2Y20570   2.900   2.715   9.911  0.1419  0.0905  0.4666
  180SLPC   C2320571   2.486   2.198  10.087  0.0952  0.7853 -0.3991
  180SLPC   H3R20572   2.510   2.211   9.980  2.4912 -0.1593 -0.0379
  180SLPC   H3S20573   2.411   2.276  10.115 -0.0303  0.6064 -0.2324
  180SLPC   C2420574   2.433   2.053  10.101 -0.3164  0.0527  0.5188
  180SLPC   H4R20575   2.433   2.019  10.207  0.0769  0.0852  0.5290
  180SLPC   H4S20576   2.499   1.986  10.043  0.2534 -0.2419  1.4913
  180SLPC   C2520577   2.303   2.025  10.025 -0.2806  1.1547 -0.3539
  180SLPC   H5R20578   2.224   2.079  10.082 -0.3067 -0.5391  1.3087
  180SLPC   H5S20579   2.284   1.916  10.034  0.6946  0.8864 -1.2781
  180SLPC   C2620580   2.287   2.060   9.872  0.3237 -0.0770  0.1088
  180SLPC   H6R20581   2.387   2.105   9.855  1.4083 -1.9981  1.0228
  180SLPC   H6S20582   2.214   2.139   9.849 -1.5500 -1.9722 -0.7368
  180SLPC   C2720583   2.263   1.931   9.784  0.4677  0.5847  0.5746
  180SLPC   H7R20584   2.172   1.875   9.815 -0.9638  2.2639 -0.4275
  180SLPC   H7S20585   2.336   1.854   9.818 -0.6799 -0.1687  1.4097
  180SLPC   C2820586   2.278   1.959   9.636 -0.1061 -0.0221  0.0025
  180SLPC   H8R20587   2.365   2.027   9.625  1.2937 -1.8574 -1.0124
  180SLPC   H8S20588   2.187   2.015   9.607  0.4517  0.5897 -0.5779
  180SLPC   C2920589   2.291   1.848   9.536  0.5813 -0.0199  0.3876
  180SLPC   H9R20590   2.286   1.747   9.579 -0.0417  0.3580  1.2451
  180SLPC  C21020591   2.265   1.861   9.402 -0.0811  0.6369 -1.0316
  180SLPC  H10R20592   2.266   1.773   9.336 -1.6873  1.3161 -2.0134
  180SLPC  C21120593   2.221   1.985   9.331  0.1115  0.7405 -0.1586
  180SLPC  H11R20594   2.196   2.071   9.396  1.3080  0.0805  1.2290
  180SLPC  H11S20595   2.125   1.960   9.282 -0.3435 -2.3020  1.9934
  180SLPC  C21220596   2.333   2.029   9.244 -0.5828  0.1751 -1.3984
  180SLPC  H12R20597   2.398   2.108   9.285 -0.5762 -0.0715 -0.9254
  180SLPC  C21320598   2.363   1.992   9.119  0.3578  0.0182 -0.4138
  180SLPC  H13R20599   2.444   2.049   9.071  0.1898  1.3270  0.7769
  180SLPC  C21420600   2.291   1.885   9.044  0.4870  0.1116  0.3925
  180SLPC  H14R20601   2.199   1.858   9.101  1.3643 -2.1286  0.8581
  180SLPC  H14S20602   2.352   1.792   9.047  2.3462  1.0481 -2.9862
  180SLPC  C21520603   2.261   1.925   8.898 -0.7445  1.1217  0.0257
  180SLPC  H15R20604   2.230   2.032   8.901 -1.0876  1.0583 -1.1485
  180SLPC  H15S20605   2.181   1.860   8.858 -0.0963 -1.2121  2.2485
  180SLPC  C21620606   2.387   1.937   8.799  0.5138 -0.7713 -0.1727
  180SLPC  H16R20607   2.410   1.828   8.792  1.1536 -0.7652  1.3927
  180SLPC  H16S20608   2.459   2.001   8.854  0.1798  0.7351 -1.4178
  180SLPC  C21720609   2.366   2.006   8.671  0.3921  0.2259  0.1325
  180SLPC  H17R20610   2.465   2.038   8.631  1.5717 -1.6125  1.4692
  180SLPC  H17S20611   2.300   2.095   8.687 -2.4771 -1.8203  0.3733
  180SLPC  C21820612   2.278   1.922   8.567  0.3530  0.2216 -1.0514
  180SLPC  H18R20613   2.337   1.833   8.537 -0.7736 -1.5405  1.5662
  180SLPC  H18S20614   2.237   1.985   8.486  1.2074  1.4839 -0.5417
  180SLPC  H18T20615   2.187   1.880   8.614  0.6669  0.8401  0.1604
  180SLPC   C3320616   2.875   2.512   9.826 -0.2287  0.2038 -0.0093
  180SLPC   H3X20617   2.782   2.499   9.885  0.8730  2.8291  2.5877
  180SLPC   H3Y20618   2.943   2.426   9.807  2.0119  2.1220 -1.2666
  180SLPC   C3420619   2.832   2.553   9.681  0.3546  0.1224  0.7099
  180SLPC   H4X20620   2.807   2.661   9.679 -0.7025 -0.1202 -1.0515
  180SLPC   H4Y20621   2.743   2.489   9.664  0.0641  0.0969  2.1826
  180SLPC   C3520622   2.941   2.537   9.570  0.2184 -0.1847  0.5711
  180SLPC   H5X20623   2.976   2.432   9.563  0.7202  0.0437 -0.5246
  180SLPC   H5Y20624   3.028   2.602   9.596  0.8105 -1.7551  2.7894
  180SLPC   C3620625   2.866   2.576   9.441  0.1984 -0.0850  0.4543
  180SLPC   H6X20626   2.817   2.676   9.443  1.3712  0.5564 -0.7687
  180SLPC   H6Y20627   2.780   2.511   9.416 -0.3330  0.3324  1.1544
  180SLPC   C3720628   2.959   2.582   9.318 -0.1275 -0.4341  0.3152
  180SLPC   H7X20629   2.991   2.479   9.292  1.9657  0.1360  0.4378
  180SLPC   H7Y20630   3.054   2.624   9.358  0.8821 -1.8510 -0.4744
  180SLPC   C3820631   2.901   2.658   9.196  0.9761 -0.2490 -0.2833
  180SLPC   H8X20632   2.969   2.665   9.109 -0.2472 -0.3153 -1.2810
  180SLPC   H8Y20633   2.857   2.755   9.228  1.6349 -0.0418  0.0017
  180SLPC   C3920634   2.779   2.586   9.131 -0.2971  0.0113 -0.1808
  180SLPC   H9X20635   2.694   2.580   9.202 -0.1083  2.3451  0.3254
  180SLPC   H9Y20636   2.803   2.483   9.097 -0.7439  0.3451 -1.5949
  180SLPC  C31020637   2.728   2.653   9.003  0.3192 -0.3177 -0.0534
  180SLPC  H10X20638   2.706   2.575   8.926 -2.4770  2.0541 -1.8852
  180SLPC  H10Y20639   2.803   2.722   8.958 -0.6950  2.4462  2.1967
  180SLPC  C31120640   2.606   2.738   9.030 -0.6039 -0.0780  0.1228
  180SLPC  H11X20641   2.628   2.818   9.103 -1.8662 -0.7012  1.2445
  180SLPC  H11Y20642   2.523   2.680   9.076 -1.5764  0.9468 -0.2960
  180SLPC  C31220643   2.542   2.801   8.906  0.5076 -0.2061  0.6493
  180SLPC  H12X20644   2.505   2.718   8.843 -0.5635 -1.0874  2.3560
  180SLPC  H12Y20645   2.624   2.852   8.851 -0.5412  0.2254 -0.5584
  180SLPC  C31320646   2.434   2.903   8.938 -0.3519  0.1942  0.2123
  180SLPC  H13X20647   2.475   2.968   9.018 -0.2605  1.7345 -1.0401
  180SLPC  H13Y20648   2.336   2.866   8.976  0.1553 -0.9067  0.4746
  180SLPC  C31420649   2.422   3.000   8.816  0.3685 -0.1947 -0.2275
  180SLPC  H14X20650   2.520   3.024   8.771  0.6337 -2.2263 -0.8116
  180SLPC  H14Y20651   2.386   3.094   8.863 -1.5164 -0.7771 -0.4265
  180SLPC  C31520652   2.331   2.951   8.709 -0.6748 -0.1351 -0.2462
  180SLPC  H15X20653   2.225   2.962   8.740  0.2375  0.1886  3.1577
  180SLPC  H15Y20654   2.347   2.843   8.689 -0.7778 -0.6332  2.1563
  180SLPC  C31620655   2.358   3.026   8.574  0.0019 -0.5495 -0.1645
  180SLPC  H16X20656   2.304   2.968   8.496 -1.8975  2.4330 -1.2506
  180SLPC  H16Y20657   2.465   3.022   8.547 -0.2156  0.3185 -1.2131
  180SLPC  C31720658   2.309   3.170   8.566  0.0062 -0.7162 -0.1143
  180SLPC  H17X20659   2.374   3.244   8.617  0.0458 -0.3039 -0.7513
  180SLPC  H17Y20660   2.208   3.183   8.609 -0.1102  1.3950 -0.9386
  180SLPC  C31820661   2.296   3.228   8.420 -0.0057  0.3590 -0.0387
  180SLPC  H18X20662   2.239   3.153   8.360 -1.7095 -0.6952  2.6837
  180SLPC  H18Y20663   2.396   3.229   8.373  0.2644 -0.0314  0.5091
  180SLPC  H18Z20664   2.260   3.333   8.413  0.9674  0.8321  1.5522
  181SLPC     N20665   0.774   6.231  11.018 -0.2346  0.3010  0.0942
  181SLPC   C1320666   0.767   6.289  11.157  0.2110 -0.2956  0.3928
  181SLPC  H13A20667   0.855   6.350  11.168 -0.5479  0.8694  0.2843
  181SLPC  H13B20668   0.692   6.366  11.171  1.6514  1.6892 -1.9845
  181SLPC  H13C20669   0.760   6.209  11.228 -3.0056 -0.7992 -0.3157
  181SLPC   C1420670   0.672   6.121  10.993  0.4669 -0.4247 -0.3888
  181SLPC  H14A20671   0.677   6.046  11.070 -0.2253 -0.7039 -0.6139
  181SLPC  H14B20672   0.573   6.162  11.007  0.1125 -1.3788 -0.0112
  181SLPC  H14C20673   0.693   6.076  10.897  0.8147  0.8055 -0.9108
  181SLPC   C1520674   0.916   6.174  11.007  0.6992 -0.3406 -0.7991
  181SLPC  H15A20675   0.981   6.259  11.018 -1.2034  1.4551 -2.6385
  181SLPC  H15B20676   0.935   6.096  11.079 -1.7481 -1.1199 -0.9046
  181SLPC  H15C20677   0.938   6.118  10.917  1.4171 -1.9618  0.3382
  181SLPC   C1220678   0.757   6.341  10.912  0.2911  0.2353 -0.7135
  181SLPC  H12A20679   0.795   6.299  10.820  2.4691  2.5835 -1.0114
  181SLPC  H12B20680   0.818   6.427  10.936  2.1358 -0.0229 -3.8879
  181SLPC   C1120681   0.609   6.392  10.893  0.2549  0.7508 -0.1308
  181SLPC  H11A20682   0.542   6.310  10.861  1.5495 -0.6053  0.4893
  181SLPC  H11B20683   0.610   6.468  10.812 -1.3374  2.0998  1.0628
  181SLPC     P20684   0.416   6.523  11.034  0.2355  0.0598  0.2605
  181SLPC   O1320685   0.302   6.426  11.020  0.3721  0.2884  0.2823
  181SLPC   O1420686   0.416   6.587  11.167  0.2107 -0.1509 -0.0772
  181SLPC   O1220687   0.552   6.449  11.017 -0.0883 -0.5806 -0.0628
  181SLPC   O1120688   0.422   6.633  10.921  0.1147 -0.1188  0.0196
  181SLPC    C120689   0.312   6.694  10.856  0.5557  0.2618 -0.5211
  181SLPC    HA20690   0.227   6.705  10.927  0.8557  0.0785 -0.1317
  181SLPC    HB20691   0.340   6.798  10.829 -0.3935  0.7586  0.3189
  181SLPC    C220692   0.277   6.628  10.720  0.4598  0.4721 -0.3774
  181SLPC    HS20693   0.219   6.540  10.755  1.3081  0.4836  1.1784
  181SLPC   O2120694   0.401   6.593  10.653 -0.4866  0.1793  0.1192
  181SLPC   C2120695   0.395   6.479  10.588 -0.0179  0.3475  0.2005
  181SLPC   O2220696   0.305   6.397  10.602 -0.9951 -0.1663 -0.2528
  181SLPC   C2220697   0.516   6.460  10.494  0.0807 -0.1260  0.0602
  181SLPC   H2R20698   0.512   6.551  10.431 -1.0859  0.4294  0.8914
  181SLPC   H2S20699   0.603   6.470  10.563  0.2156  1.0469 -0.2516
  181SLPC    C320700   0.186   6.715  10.635  0.2183 -0.1957 -0.8654
  181SLPC    HX20701   0.251   6.804  10.617  1.2976 -0.6020  0.8546
  181SLPC    HY20702   0.101   6.763  10.688  0.1627  0.8337 -1.8523
  181SLPC   O3120703   0.151   6.652  10.508 -0.0299  0.1411  0.4086
  181SLPC   C3120704   0.050   6.557  10.514  0.6610 -0.3351  0.9298
  181SLPC   O3220705  -0.035   6.551  10.598 -0.2217 -0.3116  0.3694
  181SLPC   C3220706   0.053   6.472  10.388  0.1876 -1.0040  0.0860
  181SLPC   H2X20707   0.118   6.384  10.409  0.9368  0.2174  3.4294
  181SLPC   H2Y20708   0.111   6.523  10.308 -0.5900 -1.1006 -0.5534
  181SLPC   C2320709   0.519   6.327  10.408  0.5039  0.2343 -0.3449
  181SLPC   H3R20710   0.508   6.243  10.481  0.6501 -0.5041 -1.1539
  181SLPC   H3S20711   0.624   6.315  10.373  0.4528 -0.2793 -0.3362
  181SLPC   C2420712   0.429   6.321  10.282  0.2396  0.1517 -0.0991
  181SLPC   H4R20713   0.327   6.302  10.322  0.2124 -0.9905 -0.6625
  181SLPC   H4S20714   0.464   6.241  10.213  2.6272  0.7458  0.3401
  181SLPC   C2520715   0.421   6.452  10.201  0.5773 -0.3565 -0.8574
  181SLPC   H5R20716   0.524   6.488  10.186  1.1770 -1.7690 -0.2982
  181SLPC   H5S20717   0.367   6.529  10.259  0.8499  0.0188 -1.1018
  181SLPC   C2620718   0.337   6.441  10.071 -0.4719  0.0426  0.6037
  181SLPC   H6R20719   0.235   6.420  10.110 -0.4594  0.4605  0.8664
  181SLPC   H6S20720   0.381   6.356  10.015  2.0916  1.7709 -0.1900
  181SLPC   C2720721   0.346   6.561   9.981 -0.5920 -0.1045  0.4779
  181SLPC   H7R20722   0.455   6.557   9.960 -0.3572 -0.7554  1.6688
  181SLPC   H7S20723   0.314   6.650  10.040  3.2491  1.0451  1.1173
  181SLPC   C2820724   0.250   6.543   9.863  0.4636  0.7002  0.4675
  181SLPC   H8R20725   0.153   6.541   9.916  0.6972  1.1796  0.9198
  181SLPC   H8S20726   0.263   6.447   9.808 -0.7527 -0.8132  2.6978
  181SLPC   C2920727   0.258   6.662   9.767 -0.1564 -0.8892  0.3674
  181SLPC   H9R20728   0.288   6.752   9.822  0.4977 -0.9823  0.1759
  181SLPC  C21020729   0.251   6.677   9.631 -0.4736  0.6300 -0.6337
  181SLPC  H10R20730   0.258   6.780   9.592  0.8174 -0.2835 -2.9937
  181SLPC  C21120731   0.234   6.564   9.529  0.1175 -0.5471 -0.2532
  181SLPC  H11R20732   0.218   6.624   9.437  0.8054 -1.2923 -0.8783
  181SLPC  H11S20733   0.137   6.515   9.551 -0.2653  0.8221  1.3285
  181SLPC  C21220734   0.343   6.465   9.506  0.1646 -0.2717 -0.8254
  181SLPC  H12R20735   0.354   6.387   9.583  3.1234  2.4236  1.7686
  181SLPC  C21320736   0.430   6.458   9.408  0.5186 -0.6269  0.8110
  181SLPC  H13R20737   0.507   6.380   9.407  1.9480  0.7054 -0.9555
  181SLPC  C21420738   0.438   6.563   9.295  0.1732  0.8904 -0.3947
  181SLPC  H14R20739   0.538   6.548   9.248  0.1234 -0.7679 -0.0436
  181SLPC  H14S20740   0.452   6.662   9.343  3.5684  0.1771  0.3851
  181SLPC  C21520741   0.328   6.549   9.186  0.2788  0.2003 -0.6847
  181SLPC  H15R20742   0.240   6.591   9.238  1.1346  1.7363 -0.4073
  181SLPC  H15S20743   0.309   6.443   9.158  1.0847 -0.1185 -0.0850
  181SLPC  C21620744   0.377   6.610   9.053 -0.4291  0.1889 -0.1726
  181SLPC  H16R20745   0.467   6.553   9.023 -3.1134 -3.7626 -1.6362
  181SLPC  H16S20746   0.402   6.716   9.077 -1.7095  0.1349  1.6050
  181SLPC  C21720747   0.266   6.619   8.952  0.4581 -0.3694  0.0852
  181SLPC  H17R20748   0.179   6.668   9.001  0.8160  1.7153 -1.2247
  181SLPC  H17S20749   0.230   6.520   8.918 -2.2624  0.4060  0.4421
  181SLPC  C21820750   0.307   6.699   8.824  0.0876 -0.7945 -0.5369
  181SLPC  H18R20751   0.230   6.671   8.750 -0.9392  0.1658  0.1331
  181SLPC  H18S20752   0.411   6.665   8.804  0.3507 -1.7451  2.0507
  181SLPC  H18T20753   0.290   6.807   8.848 -0.6871 -0.9271 -0.4576
  181SLPC   C3320754  -0.094   6.447  10.349  0.1165  0.0678 -0.0017
  181SLPC   H3X20755  -0.143   6.539  10.311 -0.5348 -0.6110 -0.8586
  181SLPC   H3Y20756  -0.160   6.408  10.429  1.0225  1.8621  1.7168
  181SLPC   C3420757  -0.115   6.356  10.219  0.0141 -0.5230  0.2126
  181SLPC   H4X20758  -0.223   6.332  10.213 -0.7598  2.5422 -0.1764
  181SLPC   H4Y20759  -0.046   6.270  10.230 -0.2587 -0.6384  1.0589
  181SLPC   C3520760  -0.071   6.424  10.087 -0.9445  0.6160  0.4788
  181SLPC   H5X20761   0.033   6.461  10.099  0.2977 -1.7461 -2.0708
  181SLPC   H5Y20762  -0.139   6.509  10.061 -2.8512 -0.7954  0.6689
  181SLPC   C3620763  -0.071   6.330   9.969  1.2367  0.1700 -0.6992
  181SLPC   H6X20764  -0.014   6.240  10.000  0.9745  0.3001  0.1949
  181SLPC   H6Y20765  -0.007   6.379   9.893  0.2884  1.2946 -0.7980
  181SLPC   C3720766  -0.207   6.288   9.916  0.2660 -0.0157  0.4285
  181SLPC   H7X20767  -0.266   6.382   9.916  2.5633  1.5727  2.6247
  181SLPC   H7Y20768  -0.255   6.214   9.984 -0.9138  0.9935  0.7074
  181SLPC   C3820769  -0.203   6.238   9.768  0.0144  0.5314 -0.4772
  181SLPC   H8X20770  -0.137   6.149   9.768 -0.5670  0.0353 -3.0258
  181SLPC   H8Y20771  -0.162   6.316   9.701 -1.2587  1.4689 -0.2213
  181SLPC   C3920772  -0.346   6.204   9.724  0.2296 -0.1428 -0.5030
  181SLPC   H9X20773  -0.404   6.298   9.718 -0.0867 -0.3985 -1.7429
  181SLPC   H9Y20774  -0.403   6.143   9.798 -2.7606  0.8887 -1.8063
  181SLPC  C31020775  -0.345   6.123   9.596  0.6321  0.7106  0.1775
  181SLPC  H10X20776  -0.404   6.036   9.631  1.4420 -0.3815 -1.0776
  181SLPC  H10Y20777  -0.239   6.097   9.574 -0.3274 -1.9140 -1.9354
  181SLPC  C31120778  -0.407   6.197   9.477  0.2284  0.3229 -0.1148
  181SLPC  H11X20779  -0.365   6.296   9.449 -0.0413  0.4534 -0.0601
  181SLPC  H11Y20780  -0.513   6.216   9.502  0.0664 -1.3609  0.6768
  181SLPC  C31220781  -0.389   6.103   9.359  0.0849  0.5977 -0.3462
  181SLPC  H12X20782  -0.467   6.024   9.367 -0.6036  1.3749  1.0021
  181SLPC  H12Y20783  -0.292   6.053   9.380 -1.1812 -1.1045  2.0022
  181SLPC  C31320784  -0.419   6.168   9.223 -0.5153 -1.0876 -0.1476
  181SLPC  H13X20785  -0.357   6.259   9.208  0.0901 -1.7209 -1.7392
  181SLPC  H13Y20786  -0.525   6.201   9.227 -0.0084  0.6251 -0.3080
  181SLPC  C31420787  -0.396   6.083   9.102 -0.0101  0.7549  0.2366
  181SLPC  H14X20788  -0.483   6.014   9.101 -0.4768  1.3254 -0.6856
  181SLPC  H14Y20789  -0.303   6.022   9.105 -0.8158 -0.5568 -0.4551
  181SLPC  C31520790  -0.396   6.151   8.965  0.7282 -0.6476 -0.1260
  181SLPC  H15X20791  -0.466   6.237   8.964  1.3328 -0.1471 -1.1106
  181SLPC  H15Y20792  -0.448   6.092   8.887 -0.4896  1.3140 -0.8618
  181SLPC  C31620793  -0.257   6.192   8.910 -0.0323 -0.1889  0.0950
  181SLPC  H16X20794  -0.186   6.107   8.907 -0.9278 -0.9298 -0.7361
  181SLPC  H16Y20795  -0.208   6.261   8.982 -1.9414  0.3505  0.9385
  181SLPC  C31720796  -0.265   6.248   8.770  0.4627  0.8688  0.0452
  181SLPC  H17X20797  -0.311   6.348   8.759 -1.3408  0.5241  3.2337
  181SLPC  H17Y20798  -0.326   6.174   8.715  0.7978  1.7321 -1.5302
  181SLPC  C31820799  -0.125   6.244   8.701 -0.0662  0.4599 -0.4716
  181SLPC  H18X20800  -0.133   6.263   8.592 -0.9238  2.3109 -0.1254
  181SLPC  H18Y20801  -0.082   6.142   8.706  0.5507  0.7472  0.5963
  181SLPC  H18Z20802  -0.056   6.322   8.740  0.4168  1.4423 -3.0908
  182SLPC     N20803   1.178   3.151  10.990 -0.1055 -0.0960 -0.1709
  182SLPC   C1320804   1.197   3.007  10.969  0.3331  0.5353 -0.1154
  182SLPC  H13A20805   1.208   2.949  11.060  0.7089  0.3789 -0.2584
  182SLPC  H13B20806   1.116   2.954  10.923  0.2549 -0.0886  0.7096
  182SLPC  H13C20807   1.288   2.993  10.912  0.4338 -1.0643  0.3704
  182SLPC   C1420808   1.075   3.170  11.100 -0.2761  0.1280  0.4075
  182SLPC  H14A20809   1.070   3.274  11.129  1.3224  0.1786  0.5769
  182SLPC  H14B20810   0.981   3.129  11.065  0.0463  0.4684 -0.9103
  182SLPC  H14C20811   1.110   3.117  11.187  2.3385 -4.4758 -2.9662
  182SLPC   C1520812   1.121   3.210  10.866  0.3156  0.8468  0.5644
  182SLPC  H15A20813   1.060   3.137  10.814  1.9135 -0.6125  0.6413
  182SLPC  H15B20814   1.060   3.297  10.886  0.5477  1.2080 -0.2310
  182SLPC  H15C20815   1.201   3.231  10.796  0.3724  0.0102  0.3634
  182SLPC   C1220816   1.305   3.221  11.036 -0.3386  0.4928  0.6803
  182SLPC  H12A20817   1.324   3.183  11.135 -1.0351  0.8001  0.9401
  182SLPC  H12B20818   1.278   3.324  11.053  0.0945  0.1244  4.6868
  182SLPC   C1120819   1.437   3.197  10.950 -0.5745 -0.6168 -0.3328
  182SLPC  H11A20820   1.459   3.090  10.930  0.5947 -0.2719 -1.0097
  182SLPC  H11B20821   1.523   3.230  11.011 -0.6645 -0.9728 -0.0093
  182SLPC     P20822   1.466   3.421  10.814 -0.0320 -0.4392 -0.2530
  182SLPC   O1320823   1.437   3.488  10.947 -0.0506  0.3565  0.4755
  182SLPC   O1420824   1.599   3.434  10.752 -0.6586 -0.1236  0.3550
  182SLPC   O1220825   1.425   3.267  10.822  0.5635  0.2316  0.3962
  182SLPC   O1120826   1.369   3.478  10.694  0.1297  0.0515  0.1798
  182SLPC    C120827   1.327   3.383  10.597  0.5792  0.3497 -0.7266
  182SLPC    HA20828   1.404   3.317  10.551 -0.4510 -0.3689 -1.4686
  182SLPC    HB20829   1.257   3.318  10.654 -0.3447  2.3354  0.5234
  182SLPC    C220830   1.252   3.439  10.475  0.5759  0.1418  0.1739
  182SLPC    HS20831   1.203   3.353  10.424  1.7346 -0.3451 -0.1364
  182SLPC   O2120832   1.337   3.510  10.384  0.0783  0.1707  0.4305
  182SLPC   C2120833   1.412   3.444  10.294 -0.0671  0.6228 -0.2978
  182SLPC   O2220834   1.414   3.321  10.295  0.0806  0.3321 -0.1804
  182SLPC   C2220835   1.468   3.536  10.190 -0.1465 -0.4546  0.4664
  182SLPC   H2R20836   1.395   3.553  10.107 -2.1428 -2.0823  1.7915
  182SLPC   H2S20837   1.475   3.638  10.234 -0.7117  1.7900 -4.0468
  182SLPC    C320838   1.143   3.538  10.528  0.3140 -0.6081  0.2030
  182SLPC    HX20839   1.194   3.596  10.607  0.2468  0.2334 -0.3649
  182SLPC    HY20840   1.064   3.482  10.582  1.1550 -0.0507  2.1266
  182SLPC   O3120841   1.098   3.612  10.417  0.0065  0.3972  0.1422
  182SLPC   C3120842   1.042   3.732  10.460 -0.0211 -0.3161  0.0663
  182SLPC   O3220843   1.041   3.770  10.575  0.4900 -0.1416 -0.0845
  182SLPC   C3220844   0.993   3.817  10.333  0.2108 -0.4164 -0.0737
  182SLPC   H2X20845   1.051   3.912  10.333 -0.1001 -0.1713 -2.4449
  182SLPC   H2Y20846   0.887   3.843  10.350 -0.1312  0.0623 -2.5397
  182SLPC   C2320847   1.603   3.498  10.125 -0.1382  0.2283 -0.5526
  182SLPC   H3R20848   1.580   3.415  10.055 -1.5201  0.0852  0.0412
  182SLPC   H3S20849   1.679   3.465  10.200  1.5421 -0.3050 -2.4073
  182SLPC   C2420850   1.675   3.612  10.054 -0.0601 -0.4302  0.0825
  182SLPC   H4R20851   1.784   3.593  10.048  0.1391  0.3973  0.8710
  182SLPC   H4S20852   1.658   3.707  10.109  1.6710 -1.7363  3.1533
  182SLPC   C2520853   1.617   3.629   9.917  0.0600  0.0913  0.3499
  182SLPC   H5R20854   1.509   3.654   9.927 -1.1405 -4.0491 -0.3400
  182SLPC   H5S20855   1.610   3.535   9.858 -1.2188 -0.0528  0.6910
  182SLPC   C2620856   1.697   3.733   9.839  0.0088 -0.5509 -0.3457
  182SLPC   H6R20857   1.807   3.733   9.853  0.1141  2.1643 -0.5044
  182SLPC   H6S20858   1.673   3.836   9.873 -0.3786 -0.9005  0.4751
  182SLPC   C2720859   1.665   3.741   9.690 -0.5580  0.2938 -0.5268
  182SLPC   H7R20860   1.560   3.778   9.685  0.0271  1.9192 -1.4867
  182SLPC   H7S20861   1.676   3.638   9.650  1.8863 -0.3663  1.5781
  182SLPC   C2820862   1.755   3.833   9.611  0.1759  0.2411  0.3165
  182SLPC   H8R20863   1.731   3.823   9.503  1.6842 -1.8815  0.1098
  182SLPC   H8S20864   1.862   3.805   9.625  0.0807  0.3064  1.2172
  182SLPC   C2920865   1.732   3.977   9.660 -0.2206  0.5914  1.0153
  182SLPC   H9R20866   1.758   4.003   9.764  3.4247 -0.7081  0.5651
  182SLPC  C21020867   1.699   4.074   9.572  0.4812 -0.9147 -0.7738
  182SLPC  H10R20868   1.687   4.176   9.609  0.7083 -0.8954 -0.7521
  182SLPC  C21120869   1.675   4.061   9.423  0.4234 -0.1804  0.0840
  182SLPC  H11R20870   1.741   3.992   9.368 -0.5628 -0.4506 -0.7997
  182SLPC  H11S20871   1.702   4.160   9.382 -1.7947  0.2242 -0.5689
  182SLPC  C21220872   1.535   4.021   9.382  0.5546  0.1386 -0.0372
  182SLPC  H12R20873   1.464   3.988   9.459 -0.5795 -0.3020 -1.2337
  182SLPC  C21320874   1.500   4.022   9.255  0.2209 -0.0219  0.1492
  182SLPC  H13R20875   1.398   3.992   9.224  0.7020 -0.0369 -1.4680
  182SLPC  C21420876   1.594   4.061   9.134 -0.1654  0.3643 -0.5924
  182SLPC  H14R20877   1.628   3.964   9.091  2.3205  0.7104  0.4346
  182SLPC  H14S20878   1.684   4.113   9.174 -1.6025  0.2840  3.2193
  182SLPC  C21520879   1.533   4.146   9.030  0.3821 -0.0426 -0.1577
  182SLPC  H15R20880   1.608   4.184   8.959  1.0170  0.9061  0.9909
  182SLPC  H15S20881   1.505   4.236   9.088  1.5268 -0.1500  0.5837
  182SLPC  C21620882   1.409   4.089   8.953 -0.1595  0.2716 -0.4304
  182SLPC  H16R20883   1.323   4.094   9.023  0.0996  0.9311 -0.1555
  182SLPC  H16S20884   1.441   3.984   8.936  2.2719  0.5644  1.7175
  182SLPC  C21720885   1.368   4.159   8.826 -0.3571  0.2368  0.7114
  182SLPC  H17R20886   1.458   4.178   8.764 -0.6803 -0.4374  0.0274
  182SLPC  H17S20887   1.327   4.261   8.839  2.3244  1.6101 -0.7804
  182SLPC  C21820888   1.272   4.066   8.748 -0.0773  0.1201 -0.2113
  182SLPC  H18R20889   1.186   4.050   8.817  1.1496 -1.6484  0.9944
  182SLPC  H18S20890   1.319   3.967   8.736 -1.3986 -0.4334 -1.0066
  182SLPC  H18T20891   1.227   4.100   8.652 -1.0578  0.9947  0.5263
  182SLPC   C3320892   1.013   3.744  10.201  0.2131  0.1065  0.0281
  182SLPC   H3X20893   0.965   3.644  10.214 -0.3588  0.4726  0.8351
  182SLPC   H3Y20894   1.117   3.719  10.174  0.7619  1.3541  0.8828
  182SLPC   C3420895   0.958   3.822  10.079  0.6610 -0.7338  0.2007
  182SLPC   H4X20896   1.016   3.916  10.078 -1.4549  0.6522  0.8914
  182SLPC   H4Y20897   0.851   3.840  10.102  0.2158 -3.0718  0.2265
  182SLPC   C3520898   0.971   3.744   9.943  0.4972 -0.0978 -0.5404
  182SLPC   H5X20899   0.906   3.799   9.872 -1.0062 -2.2490 -0.9012
  182SLPC   H5Y20900   0.936   3.639   9.949 -0.7732  0.1814 -2.2854
  182SLPC   C3620901   1.111   3.740   9.890 -0.3771  0.3351  0.2007
  182SLPC   H6X20902   1.171   3.682   9.963  0.3812  1.4930  0.5239
  182SLPC   H6Y20903   1.149   3.844   9.886  0.4911  0.0127 -3.6367
  182SLPC   C3720904   1.127   3.678   9.754  0.2383 -0.0043  0.0435
  182SLPC   H7X20905   1.055   3.725   9.684  0.8663  2.9511  1.2319
  182SLPC   H7Y20906   1.126   3.567   9.753 -0.8459 -0.0071  0.2866
  182SLPC   C3820907   1.270   3.700   9.701  0.3564 -0.6663 -0.0778
  182SLPC   H8X20908   1.335   3.667   9.785 -0.9068  0.5725  1.4546
  182SLPC   H8Y20909   1.276   3.810   9.688 -1.8128 -0.6302 -1.1985
  182SLPC   C3920910   1.305   3.614   9.578  0.2123 -0.1053 -0.7722
  182SLPC   H9X20911   1.247   3.520   9.592  1.3963 -0.7049  0.3018
  182SLPC   H9Y20912   1.415   3.604   9.585  0.3666  1.8268  0.0481
  182SLPC  C31020913   1.257   3.677   9.448 -0.3234 -0.3394  0.2042
  182SLPC  H10X20914   1.287   3.783   9.432  0.3512 -0.3821  1.1223
  182SLPC  H10Y20915   1.147   3.688   9.438 -0.2853 -0.7299 -0.8076
  182SLPC  C31120916   1.306   3.603   9.327  0.0389  0.0065 -0.0268
  182SLPC  H11X20917   1.253   3.506   9.319 -0.6610  0.1767  1.9084
  182SLPC  H11Y20918   1.417   3.593   9.320  0.5503  3.9649 -0.1607
  182SLPC  C31220919   1.258   3.683   9.206 -0.4938 -0.5409  0.5061
  182SLPC  H12X20920   1.288   3.789   9.221 -2.2704 -0.0341  0.7935
  182SLPC  H12Y20921   1.147   3.692   9.209 -0.4198  1.2930 -0.7419
  182SLPC  C31320922   1.298   3.626   9.064 -0.3828  0.4651  0.0963
  182SLPC  H13X20923   1.297   3.516   9.079 -3.1017  0.5499  1.1858
  182SLPC  H13Y20924   1.404   3.648   9.041  0.5092 -1.0092  2.3842
  182SLPC  C31420925   1.202   3.645   8.953 -0.2705 -0.0124  0.8179
  182SLPC  H14X20926   1.167   3.748   8.926 -4.4685 -1.1987  0.9405
  182SLPC  H14Y20927   1.101   3.611   8.984 -0.6927  0.7349  0.3244
  182SLPC  C31520928   1.238   3.572   8.820 -0.8856 -0.8106 -0.3895
  182SLPC  H15X20929   1.243   3.462   8.830 -2.3796 -0.8471  0.2023
  182SLPC  H15Y20930   1.336   3.603   8.779  1.4872 -3.7430  2.5770
  182SLPC  C31620931   1.126   3.596   8.718 -0.2534 -0.6189 -0.0199
  182SLPC  H16X20932   1.106   3.705   8.715 -1.3445 -0.8296 -1.3751
  182SLPC  H16Y20933   1.042   3.547   8.771 -0.8223 -0.5841 -0.8705
  182SLPC  C31720934   1.151   3.538   8.577  0.0113 -0.1209 -0.3078
  182SLPC  H17X20935   1.153   3.427   8.580 -0.8408 -0.1195  0.4373
  182SLPC  H17Y20936   1.252   3.565   8.537  0.4963  0.2623  1.1367
  182SLPC  C31820937   1.042   3.586   8.481  0.8937  0.2083 -0.4822
  182SLPC  H18X20938   1.049   3.536   8.381 -0.7158 -2.2397  0.5336
  182SLPC  H18Y20939   1.047   3.692   8.447  0.8329  0.1652 -0.6274
  182SLPC  H18Z20940   0.939   3.570   8.520  0.3534  3.7863 -0.1133
  183SLPC     N20941   2.053   1.730  10.662 -0.3055 -0.7516  0.6181
  183SLPC   C1320942   2.073   1.586  10.690 -0.3280 -0.3070  0.2932
  183SLPC  H13A20943   2.134   1.531  10.621 -0.8126  0.6782 -0.9512
  183SLPC  H13B20944   2.116   1.579  10.789  0.7863 -1.8656 -0.2581
  183SLPC  H13C20945   1.976   1.541  10.703 -0.6124  0.2124  0.0061
  183SLPC   C1420946   1.926   1.784  10.715 -0.2212  0.4552  0.0221
  183SLPC  H14A20947   1.850   1.714  10.686  0.5613 -1.0139  1.3431
  183SLPC  H14B20948   1.935   1.788  10.823 -2.8760  0.3717  0.3054
  183SLPC  H14C20949   1.905   1.886  10.687  2.6201  1.6126  1.6264
  183SLPC   C1520950   2.054   1.742  10.510  0.5545 -0.5349 -0.2603
  183SLPC  H15A20951   1.966   1.693  10.472  0.7368 -0.2494 -1.0638
  183SLPC  H15B20952   2.050   1.843  10.474  0.4499 -1.2398 -2.3744
  183SLPC  H15C20953   2.138   1.693  10.462  0.5928 -1.4008  0.6459
  183SLPC   C1220954   2.169   1.799  10.723  0.2457 -0.8357 -0.0812
  183SLPC  H12A20955   2.169   1.906  10.708  1.4643 -1.0685 -2.2603
  183SLPC  H12B20956   2.260   1.764  10.676 -1.0076 -2.0017 -1.7582
  183SLPC   C1120957   2.189   1.789  10.881 -0.2941 -0.7476 -0.3669
  183SLPC  H11A20958   2.088   1.809  10.922 -0.3204 -0.2066 -0.6855
  183SLPC  H11B20959   2.253   1.877  10.905 -0.9470 -0.1648 -0.7143
  183SLPC     P20960   2.384   1.606  10.919 -0.2888  0.1715  0.2785
  183SLPC   O1320961   2.475   1.691  10.997 -0.2581 -0.2002  0.1911
  183SLPC   O1420962   2.373   1.462  10.952 -0.6244 -0.0948 -0.2071
  183SLPC   O1220963   2.234   1.657  10.926  0.0906 -0.5053 -0.2650
  183SLPC   O1120964   2.416   1.623  10.764 -0.0559  0.6790 -0.3769
  183SLPC    C120965   2.546   1.576  10.726  0.0930  0.0608 -0.0516
  183SLPC    HA20966   2.625   1.648  10.757  1.1188 -0.9970 -0.1003
  183SLPC    HB20967   2.562   1.475  10.771  0.0241  0.3392  0.6063
  183SLPC    C220968   2.553   1.557  10.575  0.2848 -0.2104  0.6090
  183SLPC    HS20969   2.518   1.453  10.556 -0.0038 -0.5596  2.7871
  183SLPC   O2120970   2.677   1.595  10.515  0.2788  0.1634 -0.2748
  183SLPC   C2120971   2.781   1.507  10.541  0.3398 -0.2225  0.2740
  183SLPC   O2220972   2.770   1.410  10.611  0.2092 -0.5880  0.1769
  183SLPC   C2220973   2.905   1.555  10.468 -0.9265 -0.2267  0.1871
  183SLPC   H2R20974   2.932   1.659  10.496  0.4020 -0.3358 -0.5950
  183SLPC   H2S20975   2.993   1.495  10.501 -0.6057  0.5293  0.7387
  183SLPC    C320976   2.442   1.646  10.490  0.1735 -0.1616  0.2832
  183SLPC    HX20977   2.451   1.754  10.515  0.8137 -0.0852 -0.2563
  183SLPC    HY20978   2.344   1.614  10.531 -0.2272  0.0336 -0.5161
  183SLPC   O3120979   2.430   1.612  10.347 -0.0246 -0.1819  0.4113
  183SLPC   C3120980   2.517   1.675  10.265 -0.0447 -0.7329  0.0158
  183SLPC   O3220981   2.585   1.765  10.296 -0.0913 -0.0589  0.4328
  183SLPC   C3220982   2.473   1.629  10.129  0.0154 -0.4319  0.3551
  183SLPC   H2X20983   2.396   1.698  10.089  1.2827  0.4685 -0.6205
  183SLPC   H2Y20984   2.437   1.524  10.136  0.7178 -0.6097  1.9600
  183SLPC   C2320985   2.883   1.562  10.315  0.0640  0.7796 -0.4112
  183SLPC   H3R20986   2.969   1.623  10.279  0.6152  0.1645 -0.1550
  183SLPC   H3S20987   2.794   1.619  10.281  1.2975  2.5322 -0.8834
  183SLPC   C2420988   2.906   1.428  10.247 -0.1066 -0.4784 -0.0458
  183SLPC   H4R20989   2.816   1.370  10.276 -1.7537  1.9426 -0.0908
  183SLPC   H4S20990   2.997   1.378  10.286 -0.8316 -3.5076 -1.9241
  183SLPC   C2520991   2.922   1.452  10.097 -0.7826  0.5147  0.0519
  183SLPC   H5R20992   2.987   1.540  10.083 -0.2711  0.0633 -0.4687
  183SLPC   H5S20993   2.831   1.474  10.037  0.3335  1.5123 -1.3352
  183SLPC   C2620994   2.998   1.338  10.024  0.3175 -0.5108 -0.3958
  183SLPC   H6R20995   2.935   1.247  10.027  0.8784 -0.8774  0.6227
  183SLPC   H6S20996   3.093   1.324  10.079 -1.4528 -1.2819  2.7029
  183SLPC   C2720997   3.032   1.359   9.879 -0.4427 -0.4843 -0.4743
  183SLPC   H7R20998   3.098   1.277   9.844 -0.7085  0.3637 -3.1929
  183SLPC   H7S20999   3.082   1.458   9.875  1.5259 -1.1866  2.5675
  183SLPC   C2821000   2.910   1.353   9.787  0.2684  0.1272  0.2283
  183SLPC   H8R21001   2.809   1.372   9.830  0.1314  1.5328 -0.6689
  183SLPC   H8S21002   2.903   1.251   9.745 -2.5903  0.0954  0.6009
  183SLPC   C2921003   2.940   1.443   9.669  0.2196  0.0644  0.2237
  183SLPC   H9R21004   2.910   1.548   9.677  0.9183  0.4452 -1.6693
  183SLPC  C21021005   2.993   1.411   9.552 -0.0697 -0.4387 -0.3259
  183SLPC  H10R21006   3.000   1.490   9.476  1.0161 -0.9147 -0.7490
  183SLPC  C21121007   3.039   1.273   9.513  0.1383 -0.4629 -0.0604
  183SLPC  H11R21008   2.970   1.237   9.434  0.2953  0.3950 -0.5923
  183SLPC  H11S21009   3.043   1.195   9.593 -1.2244  0.0361  0.5310
  183SLPC  C21221010   3.173   1.281   9.451 -0.3615  0.1974  0.2113
  183SLPC  H12R21011   3.259   1.252   9.514  0.9557 -2.2309 -2.4743
  183SLPC  C21321012   3.211   1.295   9.322  0.4226 -0.3190 -0.1538
  183SLPC  H13R21013   3.315   1.324   9.299  0.4321 -0.2963 -0.0822
  183SLPC  C21421014   3.120   1.306   9.204  0.4819 -0.4879  0.1710
  183SLPC  H14R21015   3.025   1.357   9.231  0.5095 -0.0825 -0.4831
  183SLPC  H14S21016   3.095   1.203   9.171  2.1230 -1.2247  1.1095
  183SLPC  C21521017   3.182   1.384   9.081 -0.3626 -0.6918 -0.6459
  183SLPC  H15R21018   3.222   1.482   9.113 -2.8853  0.5423 -1.0676
  183SLPC  H15S21019   3.090   1.406   9.023  0.1608  2.0622 -0.5516
  183SLPC  C21621020   3.272   1.299   8.997  0.1020 -0.2407  0.3654
  183SLPC  H16R21021   3.221   1.211   8.954  0.5667 -0.5698  0.4844
  183SLPC  H16S21022   3.355   1.253   9.054  0.3827  1.2639  1.2496
  183SLPC  C21721023   3.335   1.393   8.899 -0.0663 -0.2619  0.8370
  183SLPC  H17R21024   3.426   1.342   8.859 -0.7436 -0.7009 -0.2083
  183SLPC  H17S21025   3.373   1.486   8.946 -0.4564  0.9862 -1.1605
  183SLPC  C21821026   3.248   1.430   8.782 -0.1383  0.0399  0.0878
  183SLPC  H18R21027   3.317   1.471   8.705 -0.9991  1.0694 -0.1566
  183SLPC  H18S21028   3.174   1.511   8.803  2.7469  2.6051  1.0633
  183SLPC  H18T21029   3.185   1.350   8.737 -1.5845  0.1736  1.7517
  183SLPC   C3321030   2.591   1.647  10.029  0.1204 -0.0449 -0.2214
  183SLPC   H3X21031   2.686   1.595  10.051  1.5605  2.0390 -1.2489
  183SLPC   H3Y21032   2.608   1.756  10.020  0.5166 -0.0705  0.1872
  183SLPC   C3421033   2.542   1.604   9.883  0.5582 -0.1111 -0.3524
  183SLPC   H4X21034   2.439   1.644   9.865 -0.0771 -1.0637  0.9867
  183SLPC   H4Y21035   2.523   1.495   9.892  0.4168  0.0217  1.1418
  183SLPC   C3521036   2.644   1.652   9.781  0.4258 -0.1883  0.2882
  183SLPC   H5X21037   2.734   1.592   9.804  1.2370  1.5675  1.9664
  183SLPC   H5Y21038   2.659   1.761   9.794 -1.2302 -0.0600  1.4936
  183SLPC   C3621039   2.606   1.613   9.629  0.4505  0.0053 -0.5711
  183SLPC   H6X21040   2.496   1.598   9.630  0.4110  0.1096  1.4149
  183SLPC   H6Y21041   2.651   1.512   9.614  0.1142 -0.2827  0.2572
  183SLPC   C3721042   2.668   1.713   9.534  0.6328  0.2486  0.0876
  183SLPC   H7X21043   2.757   1.766   9.575 -0.1436  0.5889  1.3479
  183SLPC   H7Y21044   2.595   1.795   9.517  0.4316 -0.3669 -2.5433
  183SLPC   C3821045   2.703   1.655   9.391  0.6627  0.4604  0.5067
  183SLPC   H8X21046   2.611   1.633   9.333  2.4464  0.4913 -2.5330
  183SLPC   H8Y21047   2.762   1.561   9.401  1.3556  0.6141 -1.7063
  183SLPC   C3921048   2.790   1.758   9.309  0.3250  0.1423 -0.0080
  183SLPC   H9X21049   2.869   1.795   9.377  0.9222 -1.0889 -0.0044
  183SLPC   H9Y21050   2.736   1.843   9.262 -1.0031  0.5750  2.1975
  183SLPC  C31021051   2.877   1.701   9.187 -0.2088 -0.0632 -0.1433
  183SLPC  H10X21052   2.936   1.614   9.221  2.3396  1.3068 -0.7931
  183SLPC  H10Y21053   2.954   1.777   9.161  1.4500 -1.6759 -0.0994
  183SLPC  C31121054   2.797   1.678   9.061  0.1679 -0.6500  0.0087
  183SLPC  H11X21055   2.775   1.780   9.023  0.4227  0.1454  1.8795
  183SLPC  H11Y21056   2.702   1.627   9.089 -1.5284  2.7476  0.9259
  183SLPC  C31221057   2.880   1.604   8.943 -0.0164  0.1294 -0.3183
  183SLPC  H12X21058   2.911   1.503   8.978  0.7598 -0.8963 -3.6278
  183SLPC  H12Y21059   2.974   1.660   8.927 -1.3092  2.0170 -1.5731
  183SLPC  C31321060   2.799   1.587   8.815  0.2769 -0.9195  0.4121
  183SLPC  H13X21061   2.698   1.552   8.845 -0.7940  2.0176  0.5299
  183SLPC  H13Y21062   2.849   1.508   8.755  0.3636 -0.3721 -0.2396
  183SLPC  C31421063   2.790   1.718   8.724  0.0215  0.4774 -0.2471
  183SLPC  H14X21064   2.887   1.772   8.727 -0.1035  0.7493 -1.0688
  183SLPC  H14Y21065   2.722   1.789   8.776  0.3675  0.0488  0.8252
  183SLPC  C31521066   2.737   1.692   8.579 -0.3709 -0.1904 -0.6617
  183SLPC  H15X21067   2.642   1.634   8.584 -1.1618  1.0035 -1.3509
  183SLPC  H15Y21068   2.819   1.637   8.529  0.6966 -0.2334  1.0671
  183SLPC  C31621069   2.717   1.823   8.503 -0.2043 -0.5563  0.9449
  183SLPC  H16X21070   2.811   1.881   8.491  0.4864 -1.2530  2.6356
  183SLPC  H16Y21071   2.639   1.882   8.554  0.4790  0.7753  0.5118
  183SLPC  C31721072   2.667   1.788   8.361  0.1021  0.3570  0.7008
  183SLPC  H17X21073   2.630   1.879   8.309 -0.5019 -0.4956 -0.4030
  183SLPC  H17Y21074   2.580   1.719   8.373  1.1926 -1.1671  0.2218
  183SLPC  C31821075   2.771   1.713   8.270  0.3241  0.1237 -0.2428
  183SLPC  H18X21076   2.834   1.640   8.325  0.8799 -0.3519 -1.4735
  183SLPC  H18Y21077   2.845   1.790   8.240 -0.7123  0.9977 -0.6174
  183SLPC  H18Z21078   2.730   1.661   8.181 -1.1114  1.6329 -0.4912
  184SLPC     N21079   1.985   5.140  10.903  0.2613 -0.0737  0.3292
  184SLPC   C1321080   1.867   5.154  10.812  0.2741  0.1870  0.1857
  184SLPC  H13A21081   1.840   5.063  10.760  0.0802  0.7377 -0.7066
  184SLPC  H13B21082   1.785   5.205  10.860  0.9811  1.3435  0.1941
  184SLPC  H13C21083   1.890   5.218  10.728  1.2167  1.1618  1.1588
  184SLPC   C1421084   1.946   5.072  11.028 -0.9654 -0.3364  0.3242
  184SLPC  H14A21085   2.033   5.062  11.091 -2.6862 -1.2295  2.6951
  184SLPC  H14B21086   1.864   5.125  11.075 -1.1250 -1.7176  1.6598
  184SLPC  H14C21087   1.911   4.972  11.011  4.7061 -2.5320 -0.4573
  184SLPC   C1521088   2.027   5.281  10.941 -0.3081  0.4055  0.2299
  184SLPC  H15A21089   2.098   5.287  11.022 -0.6122  1.2797  0.4440
  184SLPC  H15B21090   2.065   5.341  10.859 -0.7910  1.1800  0.5606
  184SLPC  H15C21091   1.939   5.329  10.983 -0.2185  0.4335  0.3871
  184SLPC   C1221092   2.101   5.072  10.824  0.2177 -0.0338 -0.3250
  184SLPC  H12A21093   2.198   5.070  10.873 -0.2837  2.5508  0.9266
  184SLPC  H12B21094   2.116   5.140  10.741  0.0941  0.6081  0.1691
  184SLPC   C1121095   2.084   4.926  10.774  0.0209 -0.5485 -0.9743
  184SLPC  H11A21096   2.081   4.861  10.864  1.7886  1.3450  0.5462
  184SLPC  H11B21097   2.180   4.899  10.725  1.1914 -0.5715  1.2159
  184SLPC     P21098   1.982   4.921  10.526  0.0562  0.1214  0.1352
  184SLPC   O1321099   2.085   4.823  10.490 -0.1631  0.0905 -0.2093
  184SLPC   O1421100   1.843   4.908  10.470 -0.2191 -0.1733 -0.2030
  184SLPC   O1221101   1.973   4.920  10.685  0.4606  0.4071  0.4344
  184SLPC   O1121102   2.036   5.070  10.518  0.3949  0.0340 -0.4658
  184SLPC    C121103   2.087   5.142  10.407 -0.5204  0.0464  0.3694
  184SLPC    HA21104   2.188   5.174  10.440 -0.2622 -1.3573  1.0289
  184SLPC    HB21105   2.108   5.075  10.321  0.6954  1.2590 -0.3199
  184SLPC    C221106   1.986   5.249  10.361  0.3837  0.1605 -0.1964
  184SLPC    HS21107   1.956   5.299  10.456  0.8644 -1.5154  0.8963
  184SLPC   O2121108   1.870   5.192  10.287 -0.2583  0.6974  0.4397
  184SLPC   C2121109   1.763   5.268  10.272 -0.0069 -0.6087 -0.1415
  184SLPC   O2221110   1.747   5.379  10.321 -0.1474 -0.1498  0.4867
  184SLPC   C2221111   1.660   5.188  10.189 -0.6849 -0.5248 -0.4866
  184SLPC   H2R21112   1.701   5.173  10.087 -0.0167 -3.0825  0.0900
  184SLPC   H2S21113   1.656   5.085  10.230  1.7681 -1.0472 -1.3833
  184SLPC    C321114   2.057   5.353  10.274  0.3649 -0.0645  0.2788
  184SLPC    HX21115   2.140   5.409  10.323 -0.3949  1.6218 -0.2625
  184SLPC    HY21116   1.983   5.431  10.243  1.4543  1.4025  1.2107
  184SLPC   O3121117   2.128   5.281  10.164  0.6931  0.2452  0.1387
  184SLPC   C3121118   2.064   5.284  10.044  0.0217  0.3158 -0.1769
  184SLPC   O3221119   1.961   5.347  10.026  0.1881 -0.4641  0.0562
  184SLPC   C3221120   2.128   5.191   9.943  0.1796  0.4174 -0.2083
  184SLPC   H2X21121   2.089   5.088   9.956 -2.7079  1.4589  0.0408
  184SLPC   H2Y21122   2.236   5.193   9.968  0.4327  0.9972 -1.2856
  184SLPC   C2321123   1.525   5.253  10.192  0.1479  0.1214 -0.1301
  184SLPC   H3R21124   1.539   5.363  10.178  0.2380 -0.1487 -2.5616
  184SLPC   H3S21125   1.492   5.240  10.297  2.0536 -0.4415  0.4388
  184SLPC   C2421126   1.409   5.205  10.099 -0.7876 -0.1772  0.0975
  184SLPC   H4R21127   1.313   5.256  10.124 -0.1798  3.5025 -3.9357
  184SLPC   H4S21128   1.390   5.095  10.099 -0.5108 -0.2278  0.3304
  184SLPC   C2521129   1.430   5.239   9.956 -0.2517  0.1186 -0.0162
  184SLPC   H5R21130   1.500   5.172   9.902 -1.1854 -0.8824 -0.0008
  184SLPC   H5S21131   1.470   5.342   9.948 -1.0068  0.4711  0.6150
  184SLPC   C2621132   1.306   5.236   9.865 -0.4444 -1.2065 -0.0827
  184SLPC   H6R21133   1.226   5.293   9.917 -1.1939 -3.1530  1.0186
  184SLPC   H6S21134   1.275   5.133   9.837  1.3046 -1.1779 -2.3835
  184SLPC   C2721135   1.331   5.302   9.729 -0.3504 -0.6240  1.0390
  184SLPC   H7R21136   1.414   5.245   9.682  0.2692  1.1975 -0.2234
  184SLPC   H7S21137   1.374   5.403   9.745  0.4052  0.1414 -4.0120
  184SLPC   C2821138   1.206   5.324   9.645  0.0287 -0.1023 -0.6037
  184SLPC   H8R21139   1.223   5.388   9.556 -2.5541  0.0251 -1.1040
  184SLPC   H8S21140   1.137   5.382   9.711  2.3410  1.6226  0.4254
  184SLPC   C2921141   1.129   5.205   9.600  0.5236 -0.3388  0.1996
  184SLPC   H9R21142   1.085   5.152   9.685 -0.7888 -1.7647 -1.2915
  184SLPC  C21021143   1.110   5.150   9.481  0.0653 -0.5547 -0.0724
  184SLPC  H10R21144   1.042   5.065   9.464  0.3855 -1.4494  2.6767
  184SLPC  C21121145   1.173   5.202   9.348 -0.3565 -0.0607  0.6333
  184SLPC  H11R21146   1.206   5.307   9.356  1.3239 -0.3165 -1.7592
  184SLPC  H11S21147   1.094   5.220   9.272  1.9738  0.8817 -1.7081
  184SLPC  C21221148   1.287   5.128   9.283 -0.6717  0.1607 -0.0950
  184SLPC  H12R21149   1.345   5.075   9.359 -0.8363  0.6041  0.3463
  184SLPC  C21321150   1.327   5.136   9.156 -0.5505 -1.0283  0.3904
  184SLPC  H13R21151   1.405   5.070   9.115 -0.0895  0.0008 -0.4374
  184SLPC  C21421152   1.260   5.218   9.049  0.6341 -0.2445 -0.4607
  184SLPC  H14R21153   1.150   5.223   9.066  0.5014 -0.3226 -1.2489
  184SLPC  H14S21154   1.258   5.188   8.942 -1.2770  2.8402 -1.4256
  184SLPC  C21521155   1.300   5.366   9.065 -0.3899  0.0678  0.1673
  184SLPC  H15R21156   1.407   5.371   9.034  0.0311  0.2369  1.5347
  184SLPC  H15S21157   1.287   5.385   9.174 -1.9574  3.0377 -0.4374
  184SLPC  C21621158   1.215   5.471   8.991  0.4886 -0.2749 -0.4246
  184SLPC  H16R21159   1.109   5.462   9.022  1.0363  1.5204  2.2213
  184SLPC  H16S21160   1.223   5.450   8.882  2.1739 -1.8472 -0.0465
  184SLPC  C21721161   1.277   5.609   9.022 -0.0058 -0.2428 -0.3984
  184SLPC  H17R21162   1.265   5.627   9.131 -2.1481  0.5151 -0.7012
  184SLPC  H17S21163   1.208   5.683   8.975  0.9619 -0.5727 -2.4733
  184SLPC  C21821164   1.419   5.635   8.976  0.4073  1.0249  0.2657
  184SLPC  H18R21165   1.440   5.559   8.898 -1.4465 -0.8773  1.5174
  184SLPC  H18S21166   1.487   5.625   9.063 -1.0638 -0.8718  1.2715
  184SLPC  H18T21167   1.442   5.735   8.933  1.0277  0.1011 -1.7016
  184SLPC   C3321168   2.106   5.235   9.798 -0.0960 -0.9007 -0.1874
  184SLPC   H3X21169   1.996   5.226   9.790 -0.2284 -1.0269  1.3584
  184SLPC   H3Y21170   2.154   5.161   9.731  1.1910 -2.0628  1.9241
  184SLPC   C3421171   2.162   5.372   9.759  0.2416 -0.2078  0.0224
  184SLPC   H4X21172   2.271   5.355   9.749 -0.1404 -1.8059 -2.4262
  184SLPC   H4Y21173   2.160   5.452   9.836  2.2181 -0.4157  0.3378
  184SLPC   C3521174   2.115   5.423   9.617 -0.0557 -0.4512 -0.8606
  184SLPC   H5X21175   2.177   5.511   9.588  3.2034 -2.1919  0.3855
  184SLPC   H5Y21176   2.007   5.447   9.626 -0.2972 -1.7041 -0.2178
  184SLPC   C3621177   2.129   5.321   9.504 -0.0545  0.2505  0.3183
  184SLPC   H6X21178   2.059   5.235   9.509 -1.7767  1.6027  0.3123
  184SLPC   H6Y21179   2.231   5.276   9.504  0.0747  0.5372  0.4152
  184SLPC   C3721180   2.101   5.377   9.362  0.3782 -0.4928 -0.0853
  184SLPC   H7X21181   2.118   5.307   9.278  1.2260  1.1957 -1.3938
  184SLPC   H7Y21182   2.158   5.470   9.338  0.9975 -1.0222 -0.6978
  184SLPC   C3821183   1.948   5.407   9.358 -0.5824  0.9852 -0.6137
  184SLPC   H8X21184   1.920   5.495   9.420 -1.8814  0.1922 -0.0279
  184SLPC   H8Y21185   1.885   5.319   9.381  1.0956 -0.6750 -2.1013
  184SLPC   C3921186   1.907   5.443   9.215 -0.4805 -0.1831 -0.5140
  184SLPC   H9X21187   1.797   5.452   9.225 -0.3521  1.5133 -0.2787
  184SLPC   H9Y21188   1.920   5.354   9.150  0.4721  0.1305 -0.7762
  184SLPC  C31021189   1.969   5.578   9.159 -0.7241 -0.4638  0.5084
  184SLPC  H10X21190   2.080   5.572   9.164 -0.7592 -2.8427 -0.2366
  184SLPC  H10Y21191   1.935   5.669   9.212  2.8448  1.2457  0.1382
  184SLPC  C31121192   1.918   5.599   9.015 -0.3849  0.0964  0.1938
  184SLPC  H11X21193   1.807   5.605   9.015 -0.3689  0.3797  0.1896
  184SLPC  H11Y21194   1.933   5.504   8.959 -0.0397 -0.1439  0.6914
  184SLPC  C31221195   1.982   5.721   8.955  0.1332  0.1808 -1.1128
  184SLPC  H12X21196   2.092   5.703   8.953  0.1191 -0.4750  1.1645
  184SLPC  H12Y21197   1.958   5.805   9.024  0.8232  1.1388 -1.9971
  184SLPC  C31321198   1.936   5.746   8.817 -0.5120  0.3509  0.1907
  184SLPC  H13X21199   1.827   5.727   8.816 -0.1757 -2.0585 -2.0281
  184SLPC  H13Y21200   1.988   5.666   8.759  0.9520 -0.4210  2.4167
  184SLPC  C31421201   1.958   5.880   8.749 -0.2933 -0.1357  0.1410
  184SLPC  H14X21202   2.067   5.902   8.746 -0.0832 -1.0106  0.7853
  184SLPC  H14Y21203   1.921   5.962   8.814 -2.9027 -3.5181  3.3503
  184SLPC  C31521204   1.900   5.884   8.599 -0.8165 -0.6235  0.1906
  184SLPC  H15X21205   1.968   5.823   8.534 -0.6140  0.2835 -0.4747
  184SLPC  H15Y21206   1.911   5.991   8.569 -1.6503 -0.1529  1.5208
  184SLPC  C31621207   1.759   5.833   8.575 -0.0774 -0.1895 -0.6389
  184SLPC  H16X21208   1.698   5.868   8.661 -0.3709  1.2929 -1.4323
  184SLPC  H16Y21209   1.773   5.723   8.584  2.5984  0.0889 -0.5730
  184SLPC  C31721210   1.691   5.870   8.439  0.3639  0.7774 -0.7382
  184SLPC  H17X21211   1.740   5.835   8.346  2.6241 -0.8147  0.9413
  184SLPC  H17Y21212   1.694   5.980   8.423  0.1879  1.0901  1.1848
  184SLPC  C31821213   1.542   5.836   8.447 -0.7098 -0.0323 -0.1006
  184SLPC  H18X21214   1.497   5.876   8.540  0.0408 -1.4898  0.9199
  184SLPC  H18Y21215   1.531   5.726   8.447  0.1989 -0.1338  0.5006
  184SLPC  H18Z21216   1.492   5.862   8.351  2.1643  0.5327 -1.5594
  185SLPC     N21217   6.509   6.611   6.268  0.0427 -0.1919 -0.1328
  185SLPC   C1321218   6.460   6.536   6.146 -0.0351  0.0691 -0.6930
  185SLPC  H13A21219   6.369   6.568   6.098  0.8591  2.3496 -0.9829
  185SLPC  H13B21220   6.524   6.560   6.063 -0.6765 -0.1426 -1.2629
  185SLPC  H13C21221   6.457   6.430   6.167 -0.7488  0.6604  2.9843
  185SLPC   C1421222   6.501   6.759   6.233 -0.2825  1.2985  0.2100
  185SLPC  H14A21223   6.560   6.793   6.150 -0.4260  0.5309 -0.2150
  185SLPC  H14B21224   6.397   6.786   6.219 -0.6101 -0.1840 -0.3475
  185SLPC  H14C21225   6.532   6.815   6.320  1.4093  0.4207  0.1989
  185SLPC   C1521226   6.652   6.572   6.305 -0.3786  0.3361  0.8442
  185SLPC  H15A21227   6.720   6.620   6.235 -2.1156  1.7027  0.0240
  185SLPC  H15B21228   6.683   6.596   6.406  1.3013  1.6835  0.0611
  185SLPC  H15C21229   6.669   6.466   6.294  1.9259  0.7824 -0.7269
  185SLPC   C1221230   6.417   6.571   6.382  0.3047  0.3970  0.2756
  185SLPC  H12A21231   6.458   6.607   6.476  1.4514 -3.2305  1.3242
  185SLPC  H12B21232   6.423   6.463   6.390 -1.4300  0.2294 -0.3559
  185SLPC   C1121233   6.261   6.600   6.371 -1.3755 -0.5942 -0.7630
  185SLPC  H11A21234   6.202   6.562   6.457 -0.1480  1.4881  1.1138
  185SLPC  H11B21235   6.223   6.531   6.293  0.3034 -1.5495 -0.7898
  185SLPC     P21236   6.217   6.847   6.439 -0.1989  0.0265  0.5882
  185SLPC   O1321237   6.331   6.939   6.438  0.0279 -0.0715 -0.4931
  185SLPC   O1421238   6.087   6.904   6.401  0.1002 -0.0418  0.0611
  185SLPC   O1221239   6.239   6.736   6.332  0.7330 -0.0496  0.7297
  185SLPC   O1121240   6.220   6.770   6.576  0.2283  0.0498  0.9017
  185SLPC    C121241   6.099   6.735   6.638  0.7300 -0.5898  0.3665
  185SLPC    HA21242   6.022   6.815   6.633 -0.0640 -1.4157 -1.2510
  185SLPC    HB21243   6.052   6.653   6.579  0.4874 -0.9486  1.0457
  185SLPC    C221244   6.121   6.695   6.785 -0.3183 -0.3491  0.1455
  185SLPC    HS21245   6.024   6.677   6.836 -0.6492 -0.3876 -0.4891
  185SLPC   O2121246   6.192   6.798   6.859  0.0953 -0.0044 -1.2780
  185SLPC   C2121247   6.132   6.906   6.891  1.3409 -0.1362  0.1989
  185SLPC   O2221248   6.012   6.930   6.862 -0.6697  0.6272  0.4257
  185SLPC   C2221249   6.212   6.999   6.976  0.1720  0.0141 -0.4933
  185SLPC   H2R21250   6.315   7.007   6.934  0.5741 -1.9460  0.0579
  185SLPC   H2S21251   6.177   7.103   6.954  1.6463  0.5495 -0.4342
  185SLPC    C321252   6.199   6.563   6.801  0.9457 -0.8038  0.4412
  185SLPC    HX21253   6.288   6.562   6.733  1.6649  1.5800  1.2624
  185SLPC    HY21254   6.139   6.477   6.764 -0.7463  0.0147  1.1868
  185SLPC   O3121255   6.229   6.539   6.945 -0.2890 -0.3286  0.5061
  185SLPC   C3121256   6.138   6.490   7.021  0.0281 -0.3756 -0.6896
  185SLPC   O3221257   6.029   6.454   6.979 -0.0094  0.4901  0.1125
  185SLPC   C3221258   6.188   6.503   7.166  0.0657  0.0934  0.7878
  185SLPC   H2X21259   6.206   6.612   7.176 -0.1617  0.2536 -0.3285
  185SLPC   H2Y21260   6.280   6.441   7.169  0.0766 -0.1980 -2.2739
  185SLPC   C2321261   6.199   6.976   7.134  0.9154 -0.0654 -0.5758
  185SLPC   H3R21262   6.280   6.906   7.161  2.2637  1.7583  0.3308
  185SLPC   H3S21263   6.095   6.942   7.158  0.1343 -0.1621 -3.6777
  185SLPC   C2421264   6.223   7.104   7.213 -0.1245 -0.1140 -0.8376
  185SLPC   H4R21265   6.307   7.155   7.162 -2.9039  2.8665 -2.8233
  185SLPC   H4S21266   6.248   7.072   7.317 -0.3049  1.5196 -0.2543
  185SLPC   C2521267   6.102   7.197   7.219  0.4827 -0.7307  0.5695
  185SLPC   H5R21268   6.012   7.133   7.231  1.0816 -1.2778  2.5062
  185SLPC   H5S21269   6.101   7.248   7.120 -0.5976 -0.5740  0.6524
  185SLPC   C2621270   6.114   7.315   7.314 -0.1584 -0.6956  0.3789
  185SLPC   H6R21271   6.094   7.278   7.417 -1.6545  0.1149  0.4059
  185SLPC   H6S21272   6.036   7.388   7.283  0.0827 -0.3082  0.6734
  185SLPC   C2721273   6.253   7.386   7.312  0.3894 -0.1124 -0.0042
  185SLPC   H7R21274   6.264   7.432   7.211  2.1316 -0.4007  0.0379
  185SLPC   H7S21275   6.334   7.311   7.316 -0.0192 -0.5791 -0.3610
  185SLPC   C2821276   6.285   7.496   7.405 -0.5085  0.7417 -0.8495
  185SLPC   H8R21277   6.383   7.536   7.371  1.4519 -1.9042  1.3017
  185SLPC   H8S21278   6.293   7.462   7.510  0.1183  0.2495 -1.0497
  185SLPC   C2921279   6.184   7.614   7.385 -0.7036  0.1930 -0.1848
  185SLPC   H9R21280   6.177   7.656   7.283 -1.1012  0.6117  0.0055
  185SLPC  C21021281   6.106   7.672   7.473  0.0127  0.1399 -0.5943
  185SLPC  H10R21282   6.030   7.741   7.433  0.3518  1.7719  1.4017
  185SLPC  C21121283   6.101   7.648   7.617  0.3546  0.0842 -0.3790
  185SLPC  H11R21284   6.143   7.735   7.673  0.6130  0.1433 -0.6620
  185SLPC  H11S21285   6.162   7.562   7.652  1.7827  1.4751  0.6890
  185SLPC  C21221286   5.960   7.629   7.658  0.0632  0.5688  0.3494
  185SLPC  H12R21287   5.913   7.540   7.614  1.1954  0.6579 -1.1066
  185SLPC  C21321288   5.894   7.702   7.754  0.0166 -0.4833  0.5295
  185SLPC  H13R21289   5.805   7.656   7.799 -0.6026  0.7214  0.5720
  185SLPC  C21421290   5.963   7.820   7.829 -0.3944  0.2591 -0.2702
  185SLPC  H14R21291   5.908   7.912   7.803 -2.3389 -0.3269  1.4940
  185SLPC  H14S21292   6.067   7.847   7.800  0.0890  1.4268  2.2598
  185SLPC  C21521293   5.965   7.799   7.981 -0.1926 -0.1182 -0.2431
  185SLPC  H15R21294   5.861   7.785   8.018  0.3053 -1.6739  0.6753
  185SLPC  H15S21295   6.009   7.891   8.025  2.0648  0.0556 -2.6097
  185SLPC  C21621296   6.056   7.682   8.021  0.3443  0.2040  0.7913
  185SLPC  H16R21297   6.161   7.705   7.995  1.0560 -0.8241  2.5517
  185SLPC  H16S21298   6.029   7.588   7.968 -0.6370  1.1907 -0.5515
  185SLPC  C21721299   6.067   7.659   8.173  0.0541  0.7862 -0.5648
  185SLPC  H17R21300   6.157   7.595   8.186  0.0181  0.9428  0.5596
  185SLPC  H17S21301   5.973   7.605   8.199 -0.7274  1.0702 -2.5986
  185SLPC  C21821302   6.087   7.774   8.262  0.1727  0.6758 -0.0930
  185SLPC  H18R21303   6.102   7.716   8.355  0.2366 -1.5615 -1.4471
  185SLPC  H18S21304   5.995   7.837   8.265  0.6315  1.3569 -0.0756
  185SLPC  H18T21305   6.167   7.847   8.237 -0.9672  1.8880 -0.3457
  185SLPC   C3321306   6.085   6.454   7.275 -0.0499  0.7012  0.5416
  185SLPC   H3X21307   6.072   6.344   7.266  1.0202  0.5873  0.2941
  185SLPC   H3Y21308   5.990   6.511   7.262 -1.2713 -1.4598 -0.4973
  185SLPC   C3421309   6.134   6.480   7.422 -0.3706 -0.9345 -0.2296
  185SLPC   H4X21310   6.140   6.590   7.437 -0.1776 -0.9620 -0.0984
  185SLPC   H4Y21311   6.241   6.453   7.434  0.5073  2.0579 -0.4870
  185SLPC   C3521312   6.033   6.414   7.518 -0.5291 -0.2134  0.0979
  185SLPC   H5X21313   6.048   6.305   7.509  1.2911 -0.1090  1.2338
  185SLPC   H5Y21314   5.935   6.451   7.481 -0.0834  1.1590  0.2044
  185SLPC   C3621315   6.054   6.459   7.662  0.1354 -0.0198  0.3361
  185SLPC   H6X21316   6.060   6.570   7.659  0.5010 -0.0371  0.3572
  185SLPC   H6Y21317   6.152   6.424   7.702 -0.9690 -4.4264 -0.2814
  185SLPC   C3721318   5.949   6.416   7.760  0.1508  0.6709  0.0995
  185SLPC   H7X21319   5.945   6.307   7.782 -0.4304  0.2980 -1.6810
  185SLPC   H7Y21320   5.847   6.443   7.728 -0.7100 -1.3396  0.9886
  185SLPC   C3821321   5.977   6.489   7.899  0.5225 -0.0234 -0.6580
  185SLPC   H8X21322   5.987   6.597   7.876 -1.4017  0.3810  0.1904
  185SLPC   H8Y21323   6.074   6.456   7.943 -0.9901 -0.8699  2.3549
  185SLPC   C3921324   5.874   6.455   8.003  1.3544  0.7992  0.0601
  185SLPC   H9X21325   5.856   6.346   7.990  0.9814  0.8801 -0.1333
  185SLPC   H9Y21326   5.777   6.506   7.985  1.5912  0.8704 -1.1050
  185SLPC  C31021327   5.921   6.486   8.143  1.2872 -0.5926 -0.3122
  185SLPC  H10X21328   5.892   6.591   8.165  0.9195 -1.3584  3.5872
  185SLPC  H10Y21329   6.029   6.468   8.162  1.9025  0.6648 -2.3052
  185SLPC  C31121330   5.858   6.391   8.247  0.2214 -0.4857 -0.3074
  185SLPC  H11X21331   5.862   6.285   8.214 -2.2890 -0.8953  0.5062
  185SLPC  H11Y21332   5.751   6.415   8.231  0.1547 -1.6911 -1.8809
  185SLPC  C31221333   5.899   6.417   8.389  0.0063  0.0215 -1.0242
  185SLPC  H12X21334   5.856   6.511   8.431 -0.1837  0.1315 -1.4615
  185SLPC  H12Y21335   6.010   6.422   8.396 -0.0883  2.2212 -0.1958
  185SLPC  C31321336   5.854   6.312   8.488  0.0978 -0.4321  0.1873
  185SLPC  H13X21337   5.902   6.328   8.587 -0.4474 -2.0072  0.7478
  185SLPC  H13Y21338   5.894   6.213   8.456  1.5236  0.6843 -1.6626
  185SLPC  C31421339   5.702   6.294   8.517 -0.0712 -0.6465  0.1973
  185SLPC  H14X21340   5.650   6.239   8.436 -0.9090 -1.7054  1.3907
  185SLPC  H14Y21341   5.654   6.394   8.518  0.7009 -0.2373 -1.2338
  185SLPC  C31521342   5.675   6.223   8.648  0.6847 -0.1791 -0.1424
  185SLPC  H15X21343   5.719   6.284   8.731  0.1774  0.5714 -0.4157
  185SLPC  H15Y21344   5.722   6.123   8.644  0.7931 -0.1044 -0.9155
  185SLPC  C31621345   5.531   6.206   8.690  0.6231 -0.3328  0.2726
  185SLPC  H16X21346   5.474   6.174   8.601  2.5485  1.9054 -1.9154
  185SLPC  H16Y21347   5.488   6.308   8.702  0.0528 -0.5618  0.1984
  185SLPC  C31721348   5.511   6.109   8.805  0.3812 -0.5370  0.1968
  185SLPC  H17X21349   5.566   6.157   8.889  0.2579 -0.0380 -0.0026
  185SLPC  H17Y21350   5.551   6.010   8.776 -0.1816 -1.0320  1.0505
  185SLPC  C31821351   5.370   6.096   8.860  0.7886 -0.1191  0.3368
  185SLPC  H18X21352   5.300   6.075   8.775  0.9871 -0.1554  0.1812
  185SLPC  H18Y21353   5.326   6.182   8.914  1.3542 -1.5737  3.3086
  185SLPC  H18Z21354   5.362   6.010   8.930 -1.6261  0.6238  1.0908
  186SLPC     N21355   0.823   3.823   5.958 -0.3413  0.1586 -0.5908
  186SLPC   C1321356   0.798   3.907   6.081 -0.1679  0.0411  0.0207
  186SLPC  H13A21357   0.807   3.854   6.174 -1.9778  0.5852  0.5495
  186SLPC  H13B21358   0.864   3.991   6.098 -0.5234  0.1058  1.1818
  186SLPC  H13C21359   0.698   3.949   6.077 -0.5216 -0.8490 -1.9658
  186SLPC   C1421360   0.961   3.761   5.969 -0.2658 -0.5655 -0.4229
  186SLPC  H14A21361   1.044   3.830   5.970 -0.9262  0.2420 -0.2909
  186SLPC  H14B21362   0.969   3.704   6.060  0.0436  0.4563  0.2030
  186SLPC  H14C21363   0.979   3.701   5.881  3.5091 -0.1004 -0.1552
  186SLPC   C1521364   0.823   3.904   5.827  0.4153 -0.3486 -0.5542
  186SLPC  H15A21365   0.868   3.850   5.745  1.1701 -0.1289 -0.2974
  186SLPC  H15B21366   0.727   3.948   5.803  1.1457  2.2511  0.8593
  186SLPC  H15C21367   0.886   3.988   5.855  0.9064 -1.2908  1.3061
  186SLPC   C1221368   0.720   3.714   5.953  0.0736  0.3159  0.1764
  186SLPC  H12A21369   0.733   3.657   5.863 -0.2418  2.1230 -1.0861
  186SLPC  H12B21370   0.621   3.759   5.954  0.3257  0.8696  1.2577
  186SLPC   C1121371   0.723   3.599   6.060  0.0574 -0.6154 -0.6993
  186SLPC  H11A21372   0.811   3.534   6.043 -0.3073 -0.6483 -2.8728
  186SLPC  H11B21373   0.635   3.539   6.026  2.2064 -2.9266 -2.6550
  186SLPC     P21374   0.561   3.662   6.256 -0.4920 -0.3907 -0.0714
  186SLPC   O1321375   0.528   3.806   6.243  0.2993 -0.3722  0.5625
  186SLPC   O1421376   0.462   3.564   6.201  0.3711 -0.2099 -0.3694
  186SLPC   O1221377   0.709   3.646   6.198 -0.2038 -0.1089 -0.1364
  186SLPC   O1121378   0.592   3.623   6.404  0.9875 -0.2558  0.3006
  186SLPC    C121379   0.622   3.483   6.427  0.8650 -0.4355  0.3567
  186SLPC    HA21380   0.539   3.416   6.396 -2.0961  3.0262  0.0319
  186SLPC    HB21381   0.698   3.452   6.352 -1.2699  0.5247 -2.3829
  186SLPC    C221382   0.664   3.449   6.572  0.0737 -0.0524 -0.0047
  186SLPC    HS21383   0.690   3.342   6.576  0.9168 -0.0317 -2.8791
  186SLPC   O2121384   0.558   3.480   6.665  0.0934 -0.3636  0.0233
  186SLPC   C2121385   0.448   3.395   6.673 -0.3698  0.1693 -0.2633
  186SLPC   O2221386   0.429   3.301   6.595  0.2264  0.1978 -0.4612
  186SLPC   C2221387   0.362   3.430   6.792 -0.0452 -0.4079 -0.0951
  186SLPC   H2R21388   0.423   3.457   6.882 -1.1158  2.4689 -0.1213
  186SLPC   H2S21389   0.314   3.526   6.765  1.5942  0.6182  0.4752
  186SLPC    C321390   0.785   3.526   6.629 -0.2546  0.1273 -0.3695
  186SLPC    HX21391   0.750   3.624   6.667  1.4779 -0.1639  2.2218
  186SLPC    HY21392   0.858   3.560   6.552  2.9779 -2.3071  1.3568
  186SLPC   O3121393   0.860   3.455   6.725  0.4190 -0.2914  0.1392
  186SLPC   C3121394   0.959   3.379   6.671  0.2629  0.0880  0.4700
  186SLPC   O3221395   0.991   3.376   6.555  0.1728 -0.4699  0.2951
  186SLPC   C3221396   1.043   3.323   6.791 -0.4115  1.0350 -0.5152
  186SLPC   H2X21397   1.091   3.414   6.832 -0.0708  1.0487 -0.9387
  186SLPC   H2Y21398   1.120   3.254   6.747 -0.4011 -1.0308  2.4441
  186SLPC   C2321399   0.260   3.311   6.822 -0.6087 -0.4951 -0.3424
  186SLPC   H3R21400   0.309   3.214   6.846 -0.3147 -0.1868  0.3409
  186SLPC   H3S21401   0.210   3.286   6.727 -1.5701 -0.2676  0.0950
  186SLPC   C2421402   0.161   3.355   6.931 -0.5023  0.6621  0.4730
  186SLPC   H4R21403   0.082   3.277   6.936  0.7031 -0.7026 -0.8449
  186SLPC   H4S21404   0.118   3.453   6.903 -0.8842  1.4453  3.4223
  186SLPC   C2521405   0.231   3.372   7.064 -0.1614 -0.4393 -0.1852
  186SLPC   H5R21406   0.295   3.462   7.046 -0.6260  0.0349  0.4902
  186SLPC   H5S21407   0.303   3.291   7.085  0.0290 -0.0893  0.5497
  186SLPC   C2621408   0.124   3.379   7.179 -0.6411  0.3217  0.2974
  186SLPC   H6R21409   0.051   3.296   7.164 -1.8968  1.0936  1.8854
  186SLPC   H6S21410   0.064   3.472   7.165 -1.2782 -0.2752 -1.3040
  186SLPC   C2721411   0.186   3.367   7.313 -0.6966 -0.4435  0.1931
  186SLPC   H7R21412   0.280   3.426   7.319  0.1356 -1.6765 -0.2556
  186SLPC   H7S21413   0.224   3.262   7.317  0.1213 -0.2181 -1.0534
  186SLPC   C2821414   0.095   3.399   7.434  0.3459  0.1093  0.5368
  186SLPC   H8R21415   0.000   3.344   7.416  1.2298 -0.3314 -3.9456
  186SLPC   H8S21416   0.067   3.506   7.426 -0.3158 -0.0414  0.7270
  186SLPC   C2921417   0.165   3.351   7.561 -0.5877  0.0643 -0.1040
  186SLPC   H9R21418   0.273   3.371   7.559 -0.7849  1.2884  0.4709
  186SLPC  C21021419   0.108   3.280   7.663  0.1757 -0.7630 -0.0052
  186SLPC  H10R21420   0.169   3.230   7.739 -2.5997 -2.7757  1.0839
  186SLPC  C21121421  -0.036   3.254   7.679  0.7451  0.4866  0.2841
  186SLPC  H11R21422  -0.091   3.317   7.605 -0.8569  0.7707  1.6569
  186SLPC  H11S21423  -0.072   3.290   7.777  0.3279  0.6125  0.0895
  186SLPC  C21221424  -0.058   3.106   7.659 -0.6095  0.2362 -0.1692
  186SLPC  H12R21425  -0.062   3.073   7.554 -1.6194 -2.4322  0.6335
  186SLPC  C21321426  -0.086   3.011   7.750 -0.0914 -0.2709  0.2351
  186SLPC  H13R21427  -0.105   2.907   7.719  2.6588 -0.5625 -0.6714
  186SLPC  C21421428  -0.101   3.022   7.897 -0.1101 -0.6336  0.0038
  186SLPC  H14R21429  -0.206   3.008   7.930 -0.6682  1.7663 -0.5644
  186SLPC  H14S21430  -0.074   3.123   7.936 -2.3618 -0.1702  0.4827
  186SLPC  C21521431   0.003   2.941   7.974 -0.4677  0.1079  0.0967
  186SLPC  H15R21432   0.053   3.017   8.038  0.8922  0.9459 -1.8628
  186SLPC  H15S21433   0.091   2.896   7.923 -2.4099 -2.2913 -1.3194
  186SLPC  C21621434  -0.057   2.823   8.054  1.0967  0.7104 -0.1967
  186SLPC  H16R21435  -0.101   2.748   7.985 -0.2667  0.8625  0.4697
  186SLPC  H16S21436  -0.142   2.863   8.113  1.1372  1.1259 -0.4198
  186SLPC  C21721437   0.046   2.749   8.148  0.4983  0.6314 -0.0805
  186SLPC  H17R21438   0.120   2.826   8.178  1.8427  0.8480 -3.5146
  186SLPC  H17S21439   0.102   2.685   8.076  0.4937  2.4924 -1.7989
  186SLPC  C21821440  -0.025   2.685   8.268  0.7198 -0.2632  0.5734
  186SLPC  H18R21441  -0.086   2.602   8.228 -0.4853  1.4202 -1.2879
  186SLPC  H18S21442  -0.094   2.756   8.319  1.4561  0.8529  0.0559
  186SLPC  H18T21443   0.056   2.660   8.339  2.6925  3.1388 -0.2376
  186SLPC   C3321444   0.953   3.233   6.881 -0.2965  0.0963 -0.5849
  186SLPC   H3X21445   1.019   3.162   6.935 -0.4011  1.3370  1.3072
  186SLPC   H3Y21446   0.884   3.167   6.825  1.3412 -0.9887 -1.4039
  186SLPC   C3421447   0.887   3.313   6.994  0.2300 -0.1788  0.1147
  186SLPC   H4X21448   0.798   3.361   6.948 -1.5100 -0.7662  2.6462
  186SLPC   H4Y21449   0.958   3.394   7.021  0.7218 -0.1764 -1.1424
  186SLPC   C3521450   0.827   3.221   7.102 -0.0243  0.5535  0.6749
  186SLPC   H5X21451   0.899   3.183   7.178  1.2270  0.2778 -0.6246
  186SLPC   H5Y21452   0.783   3.130   7.056  0.1655  0.9116 -0.2334
  186SLPC   C3621453   0.730   3.302   7.182 -0.1246  0.4534 -0.9297
  186SLPC   H6X21454   0.681   3.229   7.250  0.5683 -0.3494 -1.2679
  186SLPC   H6Y21455   0.653   3.338   7.110 -1.7315 -0.3270  0.3414
  186SLPC   C3721456   0.796   3.420   7.249  0.1264  0.2499 -0.6597
  186SLPC   H7X21457   0.812   3.505   7.180  1.3394  1.6266  1.2296
  186SLPC   H7Y21458   0.895   3.396   7.291  0.6342  0.7135 -1.5632
  186SLPC   C3821459   0.714   3.479   7.367  0.5502 -0.4996 -0.1367
  186SLPC   H8X21460   0.626   3.540   7.338  0.3363 -1.5961 -1.9076
  186SLPC   H8Y21461   0.795   3.538   7.417  2.8867 -1.6792 -2.2985
  186SLPC   C3921462   0.654   3.373   7.463  0.2699  0.2184  0.0766
  186SLPC   H9X21463   0.730   3.294   7.477  0.2493  0.1515 -0.1805
  186SLPC   H9Y21464   0.555   3.334   7.430  0.3345 -0.8537  1.0886
  186SLPC  C31021465   0.643   3.448   7.590  0.5739  0.2819 -0.7373
  186SLPC  H10X21466   0.573   3.535   7.588  0.0284  0.1842  3.7931
  186SLPC  H10Y21467   0.739   3.490   7.627  1.3030 -0.7622 -1.3910
  186SLPC  C31121468   0.579   3.352   7.697 -0.2244 -0.5968  0.0139
  186SLPC  H11X21469   0.661   3.280   7.720 -0.2361 -1.3529 -2.0947
  186SLPC  H11Y21470   0.502   3.291   7.646 -0.4380 -1.0964  0.8990
  186SLPC  C31221471   0.529   3.416   7.822  0.1236 -1.1874  0.2705
  186SLPC  H12X21472   0.459   3.496   7.790  0.4698 -2.1932 -3.4203
  186SLPC  H12Y21473   0.619   3.455   7.873  0.3743 -0.5579 -0.6335
  186SLPC  C31321474   0.461   3.320   7.910 -0.0784 -0.1808 -0.0003
  186SLPC  H13X21475   0.530   3.245   7.953 -0.8891 -0.9139  0.0574
  186SLPC  H13Y21476   0.377   3.265   7.862 -0.3287  0.9839 -0.9664
  186SLPC  C31421477   0.400   3.401   8.027  0.1182  0.2429  0.3987
  186SLPC  H14X21478   0.318   3.468   7.994 -0.0656  0.0924  0.5422
  186SLPC  H14Y21479   0.477   3.466   8.073  1.1668  0.2891 -1.3525
  186SLPC  C31521480   0.342   3.298   8.128 -0.6001  0.6815  0.1417
  186SLPC  H15X21481   0.426   3.236   8.167 -1.0705 -0.7197 -0.9759
  186SLPC  H15Y21482   0.278   3.222   8.079  0.7701 -1.4011  1.4196
  186SLPC  C31621483   0.264   3.361   8.237  0.3118 -0.1165 -0.1424
  186SLPC  H16X21484   0.175   3.419   8.205 -0.2789 -1.0098 -0.1534
  186SLPC  H16Y21485   0.331   3.436   8.283  0.8006 -1.0284  0.6771
  186SLPC  C31721486   0.218   3.265   8.349 -0.8171  0.2719 -0.0764
  186SLPC  H17X21487   0.200   3.320   8.444 -0.9824  2.2835 -1.2128
  186SLPC  H17Y21488   0.300   3.192   8.366 -1.5109  0.0394  2.7827
  186SLPC  C31821489   0.092   3.184   8.317 -0.5084 -0.3194  0.0787
  186SLPC  H18X21490   0.090   3.151   8.211 -1.3536  0.4782 -0.1736
  186SLPC  H18Y21491   0.001   3.248   8.320  1.0748  2.0573  0.1386
  186SLPC  H18Z21492   0.088   3.090   8.376  2.3844 -1.5377 -1.4428
  187SLPC     N21493   2.494   1.298   6.120 -0.2321 -0.1094  0.2120
  187SLPC   C1321494   2.566   1.350   5.995 -1.0888 -0.0173 -0.0341
  187SLPC  H13A21495   2.595   1.453   6.012 -1.6399  0.0414  0.6023
  187SLPC  H13B21496   2.652   1.290   5.969 -1.5451 -0.5972 -0.2042
  187SLPC  H13C21497   2.499   1.349   5.910 -0.5329  1.1629 -0.5204
  187SLPC   C1421498   2.378   1.388   6.140  1.0474  0.0764 -0.0055
  187SLPC  H14A21499   2.321   1.336   6.215  3.5789 -1.8188  0.7614
  187SLPC  H14B21500   2.411   1.488   6.166 -3.1833  1.2874  1.4954
  187SLPC  H14C21501   2.323   1.402   6.048  0.6038 -0.2624  0.2091
  187SLPC   C1521502   2.591   1.294   6.236 -0.0293  0.2947 -0.2974
  187SLPC  H15A21503   2.665   1.217   6.217 -0.4417  0.3038 -2.1336
  187SLPC  H15B21504   2.635   1.389   6.264 -1.3281  0.7246  0.3794
  187SLPC  H15C21505   2.540   1.268   6.328  0.0337 -0.7737 -0.5533
  187SLPC   C1221506   2.434   1.161   6.107 -1.3952  0.4644 -0.5702
  187SLPC  H12A21507   2.516   1.094   6.085 -0.4526  1.6855 -0.8842
  187SLPC  H12B21508   2.366   1.166   6.022 -0.6255  2.3163 -1.1125
  187SLPC   C1121509   2.349   1.098   6.233 -0.0847 -0.4942  0.0692
  187SLPC  H11A21510   2.406   1.122   6.325 -2.2782  1.8653  0.9213
  187SLPC  H11B21511   2.345   0.989   6.212 -0.3321 -0.4982  0.1440
  187SLPC     P21512   2.095   1.085   6.297  0.0124  0.2890  0.3817
  187SLPC   O1321513   1.990   1.187   6.327 -0.2245 -0.2934  0.5061
  187SLPC   O1421514   2.060   0.976   6.198 -0.2064 -0.0862 -0.1199
  187SLPC   O1221515   2.216   1.164   6.238 -0.6045  0.5988 -0.3634
  187SLPC   O1121516   2.150   1.016   6.423  0.3984  0.1962  0.0041
  187SLPC    C121517   2.208   0.890   6.441  0.4515 -0.1581  0.1423
  187SLPC    HA21518   2.228   0.835   6.346 -1.1601 -0.9771  0.2431
  187SLPC    HB21519   2.303   0.905   6.496 -0.5336 -0.7713  2.0939
  187SLPC    C221520   2.112   0.802   6.529 -0.0404 -0.3709 -0.3943
  187SLPC    HS21521   2.018   0.792   6.471  0.3477 -0.7985 -0.9626
  187SLPC   O2121522   2.090   0.858   6.661 -0.5020 -0.6960  0.6217
  187SLPC   C2121523   1.972   0.910   6.688 -0.5584  0.0446 -0.4472
  187SLPC   O2221524   1.877   0.916   6.614  0.3535 -0.2524  0.0938
  187SLPC   C2221525   1.969   0.953   6.835  0.5227  0.6037  0.1832
  187SLPC   H2R21526   2.065   0.919   6.880  0.4304  1.5478  1.1575
  187SLPC   H2S21527   1.973   1.064   6.839 -1.5532  0.6973  1.2683
  187SLPC    C321528   2.179   0.668   6.566 -0.8859  0.5832  0.3084
  187SLPC    HX21529   2.275   0.680   6.621 -0.7751  1.2847 -0.0226
  187SLPC    HY21530   2.206   0.615   6.472  0.8687  1.2366  0.4035
  187SLPC   O3121531   2.085   0.586   6.633  0.9956  0.1697 -0.5051
  187SLPC   C3121532   2.129   0.487   6.697 -0.5185  0.4636  0.3786
  187SLPC   O3221533   2.247   0.453   6.685  0.0254  0.3509  0.0235
  187SLPC   C3221534   2.026   0.419   6.790 -0.8503  0.2495  0.2511
  187SLPC   H2X21535   2.067   0.324   6.830 -1.0675  0.3855  0.8205
  187SLPC   H2Y21536   1.938   0.399   6.726 -2.1678  1.6260  1.5472
  187SLPC   C2321537   1.848   0.893   6.920  0.2577  0.4275  0.4698
  187SLPC   H3R21538   1.864   0.787   6.950 -0.7440  0.3793  0.8648
  187SLPC   H3S21539   1.755   0.885   6.859  1.1906  0.7434 -1.0686
  187SLPC   C2421540   1.817   0.971   7.041  0.3590 -0.1950  0.1935
  187SLPC   H4R21541   1.721   0.931   7.079  0.2766 -1.6814 -1.4662
  187SLPC   H4S21542   1.815   1.078   7.012 -0.0525  0.4062  2.3013
  187SLPC   C2521543   1.922   0.963   7.153 -0.1479 -0.1960  0.4781
  187SLPC   H5R21544   2.017   0.980   7.098  0.7339  0.2107  2.0540
  187SLPC   H5S21545   1.921   0.864   7.203 -2.4381 -1.2206 -1.4594
  187SLPC   C2621546   1.887   1.072   7.248 -0.2092  0.6051 -0.0732
  187SLPC   H6R21547   1.876   1.169   7.195 -0.6102  1.2473  1.1340
  187SLPC   H6S21548   1.985   1.086   7.299 -1.5171  1.3898  2.4305
  187SLPC   C2721549   1.778   1.028   7.342 -0.3722  0.0829 -0.2490
  187SLPC   H7R21550   1.800   0.922   7.368  0.8057  0.2618 -0.4878
  187SLPC   H7S21551   1.678   1.037   7.295 -1.2409 -1.4056  1.1995
  187SLPC   C2821552   1.776   1.112   7.473 -0.2603 -0.7004 -0.1840
  187SLPC   H8R21553   1.677   1.089   7.517 -0.4035  1.0142  0.4470
  187SLPC   H8S21554   1.776   1.218   7.439 -1.3080  0.2869  2.6685
  187SLPC   C2921555   1.875   1.091   7.586 -0.7152  0.5092  0.7425
  187SLPC   H9R21556   1.974   1.131   7.560 -1.0903  1.7327  1.0943
  187SLPC  C21021557   1.851   1.067   7.716 -0.6366  0.3474  0.3292
  187SLPC  H10R21558   1.942   1.069   7.777 -1.0374 -0.1115  0.9534
  187SLPC  C21121559   1.727   1.037   7.782  0.4305  1.2497  0.6586
  187SLPC  H11R21560   1.666   0.969   7.718  0.0121  0.7623  1.5669
  187SLPC  H11S21561   1.664   1.128   7.790 -1.4685  0.0581 -0.1521
  187SLPC  C21221562   1.740   0.952   7.910  0.0168  0.3655 -0.3378
  187SLPC  H12R21563   1.794   0.858   7.891 -1.2037 -0.2108 -1.0732
  187SLPC  C21321564   1.705   0.983   8.034  0.2871  0.2675 -0.4469
  187SLPC  H13R21565   1.735   0.924   8.122  1.2060 -2.4219 -2.4373
  187SLPC  C21421566   1.644   1.120   8.061 -0.3242 -0.7297  0.3050
  187SLPC  H14R21567   1.649   1.188   7.973  0.4359 -0.7630  0.3208
  187SLPC  H14S21568   1.694   1.182   8.139 -0.0341  1.2654 -1.3970
  187SLPC  C21521569   1.499   1.121   8.115  0.1355 -0.4444  0.4618
  187SLPC  H15R21570   1.484   1.040   8.189 -1.5684  0.8441  1.5851
  187SLPC  H15S21571   1.431   1.093   8.032 -0.4699 -1.5427  1.3065
  187SLPC  C21621572   1.461   1.253   8.186 -0.6353  0.1145 -0.0099
  187SLPC  H16R21573   1.522   1.259   8.279  1.7157 -0.5541 -1.4555
  187SLPC  H16S21574   1.353   1.252   8.214 -0.3496  1.3929  1.2907
  187SLPC  C21721575   1.490   1.383   8.107 -0.0235 -0.4666  0.7081
  187SLPC  H17R21576   1.449   1.368   8.006  0.9164  2.0928 -0.1547
  187SLPC  H17S21577   1.597   1.410   8.094  0.1719 -1.2669  0.6137
  187SLPC  C21821578   1.413   1.510   8.157 -1.1218 -0.4092  0.9981
  187SLPC  H18R21579   1.461   1.534   8.254  0.2796 -0.6769  0.3968
  187SLPC  H18S21580   1.303   1.500   8.169 -2.1740  3.3943 -2.9910
  187SLPC  H18T21581   1.414   1.594   8.085  0.8256  1.0453  2.6116
  187SLPC   C3321582   1.994   0.513   6.905 -0.8417  0.2017  0.0914
  187SLPC   H3X21583   1.927   0.587   6.856  0.7766  0.5854 -1.7082
  187SLPC   H3Y21584   2.079   0.571   6.948  1.5081 -0.9814 -2.6036
  187SLPC   C3421585   1.921   0.450   7.018  0.4868  1.0206  0.2503
  187SLPC   H4X21586   1.994   0.390   7.077  0.2295  0.4221 -0.0377
  187SLPC   H4Y21587   1.842   0.385   6.976  2.1591 -0.8405 -0.1720
  187SLPC   C3521588   1.863   0.556   7.117  0.5572 -0.5452  0.0117
  187SLPC   H5X21589   1.772   0.608   7.083  0.4692 -0.4907  0.3316
  187SLPC   H5Y21590   1.951   0.621   7.135  0.7841 -1.2065  1.4468
  187SLPC   C3621591   1.810   0.500   7.252 -0.6019 -0.2198 -0.1704
  187SLPC   H6X21592   1.889   0.428   7.283  1.4478  1.1259 -1.9716
  187SLPC   H6Y21593   1.716   0.441   7.240  0.6927 -2.3896 -0.2894
  187SLPC   C3721594   1.786   0.603   7.364 -0.2792 -0.3391  0.7098
  187SLPC   H7X21595   1.878   0.636   7.416 -0.5287 -0.6006  1.3280
  187SLPC   H7Y21596   1.715   0.686   7.343 -0.4674 -1.0843 -1.9165
  187SLPC   C3821597   1.713   0.528   7.474  0.0051  0.1358  0.4197
  187SLPC   H8X21598   1.756   0.427   7.495  1.6688  0.6347 -0.4284
  187SLPC   H8Y21599   1.608   0.508   7.444 -0.4226  0.8374  1.3748
  187SLPC   C3921600   1.694   0.615   7.602 -0.4944 -0.1770  0.0629
  187SLPC   H9X21601   1.607   0.678   7.577  0.7457  1.6933  0.2649
  187SLPC   H9Y21602   1.784   0.680   7.613 -1.1535  0.8246 -0.3768
  187SLPC  C31021603   1.675   0.520   7.718  0.5745  0.7807 -0.1768
  187SLPC  H10X21604   1.767   0.462   7.740 -0.9708 -1.7057  0.1134
  187SLPC  H10Y21605   1.608   0.437   7.688 -0.6850  0.9393  1.9086
  187SLPC  C31121606   1.623   0.592   7.848 -0.2360 -0.1527  0.4332
  187SLPC  H11X21607   1.679   0.686   7.867 -0.4463  0.3444 -1.2473
  187SLPC  H11Y21608   1.638   0.526   7.936 -1.4676  0.7572  1.3612
  187SLPC  C31221609   1.473   0.623   7.850 -0.2778  0.3468  0.4135
  187SLPC  H12X21610   1.417   0.530   7.827 -2.4682  0.9408  2.9151
  187SLPC  H12Y21611   1.446   0.692   7.766  1.3343 -1.0890 -1.3894
  187SLPC  C31321612   1.412   0.660   7.984 -0.4311 -0.1255  0.5100
  187SLPC  H13X21613   1.459   0.755   8.017 -2.2518  0.9470  0.1733
  187SLPC  H13Y21614   1.447   0.592   8.063  1.7273  1.1510  0.7223
  187SLPC  C31421615   1.259   0.659   7.977 -0.5396  0.5440 -0.5233
  187SLPC  H14X21616   1.225   0.562   7.935  1.0310  0.0954 -0.8124
  187SLPC  H14Y21617   1.220   0.734   7.904  0.4061  1.9562  0.3697
  187SLPC  C31521618   1.204   0.685   8.119 -0.0483 -0.3474 -0.3066
  187SLPC  H15X21619   1.267   0.640   8.199  0.0622  0.3535  0.0017
  187SLPC  H15Y21620   1.105   0.635   8.117  0.4192 -1.4958  1.7848
  187SLPC  C31621621   1.198   0.836   8.148  0.3710  0.1668 -0.3290
  187SLPC  H16X21622   1.185   0.888   8.050  1.0186  2.2739  0.6485
  187SLPC  H16Y21623   1.294   0.872   8.189  1.8332 -4.0028  0.3925
  187SLPC  C31721624   1.078   0.863   8.240 -0.0103  0.5444 -0.6017
  187SLPC  H17X21625   0.984   0.826   8.193 -2.2539  2.0714  2.3320
  187SLPC  H17Y21626   1.062   0.973   8.247 -0.6054  0.5170 -1.4295
  187SLPC  C31821627   1.075   0.797   8.377 -0.3122  0.0714  0.4896
  187SLPC  H18X21628   1.155   0.842   8.440  2.4446 -2.5542 -0.8767
  187SLPC  H18Y21629   1.097   0.691   8.350  0.9615  0.1392  1.1782
  187SLPC  H18Z21630   0.980   0.800   8.435 -0.7791 -0.3418 -0.2439
  188SLPC     N21631   2.780   2.736   5.753 -0.8255 -0.0893 -1.2035
  188SLPC   C1321632   2.751   2.593   5.711  0.1947 -0.3106  0.6251
  188SLPC  H13A21633   2.692   2.559   5.795 -2.1815  2.9004  0.4089
  188SLPC  H13B21634   2.692   2.594   5.621 -1.0455  0.1925  1.4239
  188SLPC  H13C21635   2.840   2.531   5.702 -0.6531 -1.3523 -1.0065
  188SLPC   C1421636   2.653   2.810   5.767 -0.6691  0.5754  0.7055
  188SLPC  H14A21637   2.678   2.909   5.803  1.5946  0.4002 -0.1957
  188SLPC  H14B21638   2.603   2.819   5.671 -0.3101  0.3140  0.4922
  188SLPC  H14C21639   2.589   2.766   5.842 -2.4424 -0.6954 -1.4306
  188SLPC   C1521640   2.869   2.790   5.650  0.7498 -0.1798  0.3272
  188SLPC  H15A21641   2.951   2.722   5.632  0.4292 -0.5214  0.1572
  188SLPC  H15B21642   2.817   2.801   5.556  1.2833  0.7833  0.1351
  188SLPC  H15C21643   2.911   2.889   5.660  1.8855 -0.5006 -0.9887
  188SLPC   C1221644   2.858   2.736   5.889 -0.5385  0.3091  0.2192
  188SLPC  H12A21645   2.895   2.837   5.900  2.4095 -0.5097 -1.3296
  188SLPC  H12B21646   2.939   2.671   5.860 -0.3673  0.7821 -0.3793
  188SLPC   C1121647   2.801   2.681   6.020 -0.2018  0.3224  0.4551
  188SLPC  H11A21648   2.866   2.662   6.107  2.0766  1.0813 -1.0040
  188SLPC  H11B21649   2.763   2.580   5.994  0.8452  0.0187  0.0501
  188SLPC     P21650   2.693   2.881   6.157 -0.3111  0.2342  0.0003
  188SLPC   O1321651   2.834   2.922   6.194  0.1089  0.2776  0.9700
  188SLPC   O1421652   2.618   2.987   6.089 -0.1518  1.0501 -0.3862
  188SLPC   O1221653   2.690   2.756   6.066 -0.3169 -0.0517 -0.0453
  188SLPC   O1121654   2.626   2.839   6.294  0.2368  0.0441  0.5974
  188SLPC    C121655   2.496   2.893   6.316  0.0685  0.4641 -1.0261
  188SLPC    HA21656   2.435   2.910   6.224 -0.5392 -0.6801 -0.8449
  188SLPC    HB21657   2.431   2.816   6.362  1.9726 -1.0010 -0.6914
  188SLPC    C221658   2.485   3.009   6.415  0.1533 -1.0055 -1.1006
  188SLPC    HS21659   2.492   3.101   6.354 -0.8728 -0.7303 -0.8215
  188SLPC   O2121660   2.589   3.006   6.511 -0.1669  0.0246  0.3777
  188SLPC   C2121661   2.638   3.129   6.552 -0.4099 -0.0559  0.2558
  188SLPC   O2221662   2.630   3.232   6.485  0.0564  0.4441 -0.7527
  188SLPC   C2221663   2.724   3.109   6.676 -0.2417  0.0822 -0.1650
  188SLPC   H2R21664   2.682   3.048   6.758  0.7129 -0.2423  0.0922
  188SLPC   H2S21665   2.816   3.052   6.651  0.6315 -0.0686  3.0344
  188SLPC    C321666   2.349   3.007   6.483  0.3043  0.0455 -0.2802
  188SLPC    HX21667   2.342   2.903   6.521  0.1289 -0.5797 -1.9518
  188SLPC    HY21668   2.268   3.033   6.412 -0.3767 -0.0167  0.4674
  188SLPC   O3121669   2.348   3.105   6.592 -0.4855 -0.1427  0.0006
  188SLPC   C3121670   2.308   3.068   6.713 -0.0664  0.1549  0.0138
  188SLPC   O3221671   2.246   2.968   6.738  0.2369 -0.1624 -0.6086
  188SLPC   C3221672   2.346   3.174   6.817 -0.0987 -0.1645 -0.1802
  188SLPC   H2X21673   2.244   3.205   6.848 -0.4781 -1.4621 -0.0680
  188SLPC   H2Y21674   2.405   3.248   6.758 -1.5551  1.3775  0.2372
  188SLPC   C2321675   2.753   3.247   6.746 -0.9556 -0.5584  0.3177
  188SLPC   H3R21676   2.669   3.319   6.760 -0.3071  0.5141 -1.0201
  188SLPC   H3S21677   2.820   3.300   6.675 -1.9020  0.3564  0.0829
  188SLPC   C2421678   2.809   3.223   6.885  0.3763  0.6394  0.0237
  188SLPC   H4R21679   2.911   3.179   6.872  0.4786  1.0759 -0.6816
  188SLPC   H4S21680   2.749   3.150   6.944  1.0964 -1.4573 -1.6875
  188SLPC   C2521681   2.833   3.345   6.964 -0.1294 -0.0556 -0.6335
  188SLPC   H5R21682   2.744   3.408   6.987  1.4053  1.5136  1.3687
  188SLPC   H5S21683   2.907   3.405   6.907  2.1816 -2.6344 -0.5411
  188SLPC   C2621684   2.880   3.310   7.103 -0.0211 -0.2875  0.2068
  188SLPC   H6R21685   2.975   3.253   7.092 -0.9349 -1.5549 -1.6442
  188SLPC   H6S21686   2.808   3.243   7.154  0.8428 -2.7266 -1.6052
  188SLPC   C2721687   2.915   3.428   7.196 -0.2346 -0.6641  0.8616
  188SLPC   H7R21688   2.830   3.499   7.191 -0.5360 -0.7211  3.5956
  188SLPC   H7S21689   3.011   3.477   7.168  0.0484 -1.6118  0.1028
  188SLPC   C2821690   2.938   3.379   7.338  0.1543  0.4295 -0.1134
  188SLPC   H8R21691   3.000   3.287   7.336  1.3622  1.2342 -1.2906
  188SLPC   H8S21692   2.837   3.351   7.374 -0.1410  0.6922 -0.7142
  188SLPC   C2921693   2.993   3.486   7.425  0.4647  0.2614 -0.1824
  188SLPC   H9R21694   2.959   3.589   7.408 -1.2068 -0.0594  0.9758
  188SLPC  C21021695   3.075   3.468   7.528  0.2982  0.4003  0.6635
  188SLPC  H10R21696   3.109   3.562   7.575  0.0381 -0.3354  2.3802
  188SLPC  C21121697   3.132   3.342   7.586 -0.0627  0.0110 -0.0161
  188SLPC  H11R21698   3.240   3.344   7.560 -0.0947  1.2926 -0.1215
  188SLPC  H11S21699   3.076   3.256   7.544 -2.4684  2.3779 -1.9710
  188SLPC  C21221700   3.097   3.338   7.736 -0.2013 -0.0031 -0.6393
  188SLPC  H12R21701   3.002   3.286   7.753  1.1331 -2.4081 -0.0243
  188SLPC  C21321702   3.168   3.396   7.834  0.8091 -0.5813  0.1802
  188SLPC  H13R21703   3.148   3.375   7.940  0.3198  1.4237  0.5270
  188SLPC  C21421704   3.294   3.481   7.812 -0.0293  0.1035  0.4308
  188SLPC  H14R21705   3.273   3.582   7.770  0.9963  0.3296  0.4311
  188SLPC  H14S21706   3.354   3.412   7.749 -2.2138 -1.6351  0.1275
  188SLPC  C21521707   3.378   3.494   7.938 -1.1106  0.0095  0.2286
  188SLPC  H15R21708   3.473   3.545   7.910  0.1035 -2.6630 -0.8304
  188SLPC  H15S21709   3.404   3.391   7.973 -0.3075 -0.3234 -1.2789
  188SLPC  C21621710   3.322   3.578   8.058  0.2494 -0.5271  0.0494
  188SLPC  H16R21711   3.239   3.520   8.104  0.3745  0.6898  1.9172
  188SLPC  H16S21712   3.264   3.667   8.024  0.2233  0.4006  2.3389
  188SLPC  C21721713   3.429   3.642   8.146  0.1871 -0.1281 -0.0991
  188SLPC  H17R21714   3.383   3.712   8.219  0.7754  0.0629  0.0915
  188SLPC  H17S21715   3.507   3.697   8.089  1.9781 -0.1211  2.2027
  188SLPC  C21821716   3.510   3.522   8.209  0.2677 -0.1907 -0.0649
  188SLPC  H18R21717   3.603   3.550   8.262  1.1113 -2.7054 -0.0507
  188SLPC  H18S21718   3.535   3.446   8.132 -1.1910 -1.5791  0.7588
  188SLPC  H18T21719   3.436   3.479   8.281 -1.6100  0.7243 -1.3514
  188SLPC   C3321720   2.417   3.115   6.941  1.0139 -0.2633 -0.0891
  188SLPC   H3X21721   2.520   3.076   6.930  1.6046  0.6919  1.7242
  188SLPC   H3Y21722   2.352   3.028   6.964 -0.3694  0.3904 -1.3204
  188SLPC   C3421723   2.405   3.212   7.056 -0.3148 -0.8654  0.4235
  188SLPC   H4X21724   2.296   3.230   7.064 -0.0501  1.3910 -0.3971
  188SLPC   H4Y21725   2.459   3.304   7.026 -2.4134 -0.0016 -0.9735
  188SLPC   C3521726   2.473   3.156   7.184 -0.3033  0.5284  0.0305
  188SLPC   H5X21727   2.580   3.149   7.156 -0.4420 -0.9846 -0.2437
  188SLPC   H5Y21728   2.435   3.054   7.210  0.8319 -0.2299 -1.1414
  188SLPC   C3621729   2.460   3.245   7.303 -0.3360  0.2764  0.0833
  188SLPC   H6X21730   2.351   3.249   7.327 -1.0488 -1.5575 -2.3723
  188SLPC   H6Y21731   2.481   3.354   7.295 -2.0173  0.8332  2.0800
  188SLPC   C3721732   2.539   3.201   7.424 -0.0411  0.0413 -0.1517
  188SLPC   H7X21733   2.643   3.181   7.390 -0.3178 -1.2608 -0.2826
  188SLPC   H7Y21734   2.503   3.105   7.466  1.8483 -0.0870  1.3044
  188SLPC   C3821735   2.540   3.304   7.532  0.1055 -0.2239 -0.3494
  188SLPC   H8X21736   2.442   3.350   7.554  0.1729  0.7281 -1.8725
  188SLPC   H8Y21737   2.592   3.393   7.490 -0.2163  1.8316  3.2040
  188SLPC   C3921738   2.604   3.266   7.678  0.6487  0.4972 -0.1148
  188SLPC   H9X21739   2.605   3.354   7.745 -1.7846  0.3289  0.2495
  188SLPC   H9Y21740   2.711   3.238   7.672 -0.2969 -3.6598 -0.6165
  188SLPC  C31021741   2.518   3.152   7.740  0.9895 -0.5477  0.2030
  188SLPC  H10X21742   2.535   3.058   7.683  1.5917 -0.2413 -0.1245
  188SLPC  H10Y21743   2.413   3.186   7.727 -0.0038 -2.8046  1.5695
  188SLPC  C31121744   2.552   3.137   7.895 -0.0541 -1.1102  0.3049
  188SLPC  H11X21745   2.661   3.116   7.894 -0.1581 -1.7824 -1.6705
  188SLPC  H11Y21746   2.504   3.041   7.925 -0.9189 -0.2286  1.8558
  188SLPC  C31221747   2.522   3.250   7.991 -0.0445 -0.0004 -0.1187
  188SLPC  H12X21748   2.416   3.277   7.971 -0.1555  2.4863  2.9354
  188SLPC  H12Y21749   2.594   3.332   7.971  0.3814 -0.4561 -0.4732
  188SLPC  C31321750   2.528   3.206   8.137 -0.3106  1.3498 -0.9210
  188SLPC  H13X21751   2.456   3.125   8.161  1.4709 -0.0545  0.0605
  188SLPC  H13Y21752   2.511   3.288   8.210 -0.8283 -0.8335  1.5855
  188SLPC  C31421753   2.674   3.160   8.177  0.2292 -0.3120  0.5047
  188SLPC  H14X21754   2.696   3.074   8.110 -2.1366  0.8177 -1.9395
  188SLPC  H14Y21755   2.667   3.122   8.281  0.2261 -1.4615  0.0993
  188SLPC  C31521756   2.785   3.266   8.152 -0.2054  0.3037 -0.7195
  188SLPC  H15X21757   2.762   3.358   8.210  0.9647 -0.8052  1.6259
  188SLPC  H15Y21758   2.791   3.293   8.044  0.8060  0.1006 -0.7208
  188SLPC  C31621759   2.920   3.205   8.202  1.1318  0.2301  0.1704
  188SLPC  H16X21760   2.947   3.121   8.134  1.4031  0.2817  0.2119
  188SLPC  H16Y21761   2.899   3.180   8.308 -0.3494 -0.1104 -0.1818
  188SLPC  C31721762   3.044   3.297   8.202  0.2041  0.1914  0.2828
  188SLPC  H17X21763   3.028   3.387   8.264  1.2761  0.5455  0.0663
  188SLPC  H17Y21764   3.066   3.338   8.101  0.3740  0.7527  0.5406
  188SLPC  C31821765   3.173   3.237   8.258  0.0198 -0.2102 -0.0259
  188SLPC  H18X21766   3.160   3.201   8.363  3.9617  0.6476  0.9295
  188SLPC  H18Y21767   3.252   3.315   8.262  0.1991 -0.3806 -0.2404
  188SLPC  H18Z21768   3.202   3.154   8.190  0.5315  0.6943 -0.9386
  189SLPC     N21769   2.648   5.914   5.981 -0.3735  0.1588  0.1291
  189SLPC   C1321770   2.637   5.835   5.857  0.5748 -0.2655 -0.0333
  189SLPC  H13A21771   2.544   5.850   5.805 -0.0817 -1.4403  0.7853
  189SLPC  H13B21772   2.716   5.855   5.786  1.0664  0.7340  0.7611
  189SLPC  H13C21773   2.640   5.730   5.880 -1.1726 -0.4580 -0.5225
  189SLPC   C1421774   2.536   5.900   6.084  0.1424 -0.4408  0.0922
  189SLPC  H14A21775   2.513   5.794   6.087 -2.0532 -0.0268 -0.4666
  189SLPC  H14B21776   2.566   5.925   6.185  2.1893 -2.9202  0.2057
  189SLPC  H14C21777   2.442   5.949   6.064 -0.7945 -1.7166  1.1489
  189SLPC   C1521778   2.650   6.059   5.941  0.7146  0.2986  0.1785
  189SLPC  H15A21779   2.657   6.131   6.022 -0.0775  0.5094  0.0616
  189SLPC  H15B21780   2.723   6.084   5.865 -0.7800  0.0109 -1.4016
  189SLPC  H15C21781   2.558   6.092   5.897  1.2613  1.6950  0.0010
  189SLPC   C1221782   2.789   5.876   6.045  0.3863  0.5715  0.1888
  189SLPC  H12A21783   2.859   5.911   5.971 -0.5348  1.0372 -0.4862
  189SLPC  H12B21784   2.782   5.771   6.072 -0.4490 -0.1591 -2.5380
  189SLPC   C1121785   2.824   5.946   6.183 -0.2654  0.7596 -0.6841
  189SLPC  H11A21786   2.923   5.920   6.224 -0.8483 -0.0280  0.2662
  189SLPC  H11B21787   2.763   5.887   6.254  1.1124  0.3702  0.2056
  189SLPC     P21788   2.707   6.157   6.291  0.2804  0.1720 -0.2332
  189SLPC   O1321789   2.782   6.210   6.403 -0.8771  0.1105 -0.5832
  189SLPC   O1421790   2.618   6.254   6.221 -0.2283  0.6656  0.1607
  189SLPC   O1221791   2.789   6.084   6.181  0.0404 -0.4572 -0.6051
  189SLPC   O1121792   2.622   6.039   6.353  0.4629 -0.1104 -0.0076
  189SLPC    C121793   2.482   6.063   6.382  0.5005 -0.2892 -0.4627
  189SLPC    HA21794   2.431   6.121   6.302  0.7011 -0.1227 -0.4695
  189SLPC    HB21795   2.424   5.968   6.381 -0.2940  0.1769  0.1594
  189SLPC    C221796   2.458   6.141   6.519 -0.3108 -0.6052  0.1167
  189SLPC    HS21797   2.528   6.227   6.521 -0.6026 -0.3792  1.7292
  189SLPC   O2121798   2.467   6.053   6.633 -0.2623  0.0182  0.0484
  189SLPC   C2121799   2.526   6.110   6.734  0.5803  0.0253  0.7631
  189SLPC   O2221800   2.591   6.213   6.737  0.2397 -0.3539 -0.0800
  189SLPC   C2221801   2.496   6.027   6.860 -0.4117 -0.8549 -0.1776
  189SLPC   H2R21802   2.411   5.958   6.841 -1.1722  0.6342 -2.8165
  189SLPC   H2S21803   2.584   5.960   6.870  0.6638  0.7626  1.8702
  189SLPC    C321804   2.317   6.204   6.532  0.2438 -0.2172 -0.1991
  189SLPC    HX21805   2.251   6.115   6.519 -1.7445  1.3442 -1.3378
  189SLPC    HY21806   2.303   6.276   6.449 -1.4830  0.1927  0.4051
  189SLPC   O3121807   2.282   6.265   6.661  0.2150  0.4220  0.2701
  189SLPC   C3121808   2.322   6.396   6.671  0.2789 -0.1039 -0.6658
  189SLPC   O3221809   2.358   6.468   6.584  0.2228  0.4607  0.1851
  189SLPC   C3221810   2.312   6.444   6.816 -0.2716  0.0406  0.0638
  189SLPC   H2X21811   2.277   6.549   6.806 -0.4946  0.2294  2.2607
  189SLPC   H2Y21812   2.413   6.441   6.863 -0.2823  1.2461  0.2058
  189SLPC   C2321813   2.504   6.111   6.992  0.6358  0.0471  0.9217
  189SLPC   H3R21814   2.434   6.197   6.989 -1.8535 -1.9003  0.2259
  189SLPC   H3S21815   2.599   6.170   6.999 -0.6843  2.3244  0.5669
  189SLPC   C2421816   2.501   6.020   7.113 -0.1588 -0.2612  0.3978
  189SLPC   H4R21817   2.577   5.939   7.105  0.9988  0.7444  0.7650
  189SLPC   H4S21818   2.401   5.972   7.121 -0.1139 -0.1646  1.7317
  189SLPC   C2521819   2.504   6.095   7.244  0.1606  0.1878 -0.2763
  189SLPC   H5R21820   2.417   6.163   7.236 -0.0194  0.2382  1.5947
  189SLPC   H5S21821   2.603   6.146   7.239 -0.2123  0.7986 -3.6154
  189SLPC   C2621822   2.487   6.011   7.367  0.7791  0.1265  0.2118
  189SLPC   H6R21823   2.585   5.963   7.390 -0.4191 -1.6757  1.8778
  189SLPC   H6S21824   2.420   5.923   7.361  1.0030 -0.0014 -0.5492
  189SLPC   C2721825   2.439   6.099   7.483  0.3640  0.1501  0.3467
  189SLPC   H7R21826   2.337   6.133   7.453  1.0807  0.1345 -2.4050
  189SLPC   H7S21827   2.516   6.178   7.490  0.2778  0.4787 -1.7055
  189SLPC   C2821828   2.422   6.021   7.612  0.1528 -0.7428  0.0444
  189SLPC   H8R21829   2.393   5.917   7.585 -1.8164 -0.3600  0.5224
  189SLPC   H8S21830   2.347   6.073   7.675 -0.7122  0.0593 -1.6041
  189SLPC   C2921831   2.549   6.012   7.677 -0.6453 -0.3274 -0.2802
  189SLPC   H9R21832   2.640   5.983   7.622  0.4630 -0.5395  1.5725
  189SLPC  C21021833   2.571   6.028   7.810  0.1930  0.1317  0.5589
  189SLPC  H10R21834   2.669   6.016   7.857  0.6246 -1.1520 -0.5848
  189SLPC  C21121835   2.466   6.059   7.914 -0.2006 -0.0380 -0.8612
  189SLPC  H11R21836   2.520   6.071   8.011  0.3222  3.4688 -1.4349
  189SLPC  H11S21837   2.396   5.974   7.918 -1.2141  0.7819 -0.6768
  189SLPC  C21221838   2.395   6.186   7.913 -0.2283 -0.0966  0.1010
  189SLPC  H12R21839   2.414   6.254   7.829  0.8243  0.8105  1.0237
  189SLPC  C21321840   2.305   6.232   8.001 -0.1478  0.0071 -0.1268
  189SLPC  H13R21841   2.262   6.334   8.000  0.3452  0.3104  2.4540
  189SLPC  C21421842   2.245   6.153   8.121 -0.1699 -0.1426  0.1009
  189SLPC  H14R21843   2.286   6.050   8.126 -0.2570 -0.2707 -1.3605
  189SLPC  H14S21844   2.135   6.148   8.107 -0.3363 -0.2165  1.3009
  189SLPC  C21521845   2.272   6.206   8.263  0.1049 -0.1519 -0.3947
  189SLPC  H15R21846   2.381   6.229   8.269  0.4921 -0.9550 -3.0840
  189SLPC  H15S21847   2.245   6.120   8.328  2.0475 -0.6549 -0.1906
  189SLPC  C21621848   2.192   6.336   8.300  0.0450 -0.2607  0.4210
  189SLPC  H16R21849   2.083   6.312   8.302 -0.2446  0.7122 -1.3627
  189SLPC  H16S21850   2.209   6.407   8.217 -3.1293 -0.0407 -0.1731
  189SLPC  C21721851   2.239   6.406   8.429  0.6856 -0.8011  0.9070
  189SLPC  H17R21852   2.348   6.421   8.415  0.5592  0.1151  0.8343
  189SLPC  H17S21853   2.237   6.327   8.506  1.0077 -0.4106  1.3199
  189SLPC  C21821854   2.155   6.529   8.461  0.5372  0.6204  0.3810
  189SLPC  H18R21855   2.172   6.617   8.395  0.1792  0.7122  0.4128
  189SLPC  H18S21856   2.174   6.554   8.568 -1.5410 -0.1254  0.9645
  189SLPC  H18T21857   2.051   6.493   8.460 -0.0603  2.2644 -0.2539
  189SLPC   C3321858   2.211   6.364   6.909 -0.2946 -0.8786  0.5914
  189SLPC   H3X21859   2.234   6.256   6.893  0.7946 -0.2910 -2.3452
  189SLPC   H3Y21860   2.103   6.374   6.885 -0.6776 -1.7151  1.8653
  189SLPC   C3421861   2.229   6.395   7.060  0.8146  0.5658 -0.0766
  189SLPC   H4X21862   2.181   6.490   7.095  1.7639  0.7772  0.6778
  189SLPC   H4Y21863   2.337   6.399   7.086  0.7004  3.0008  0.2836
  189SLPC   C3521864   2.153   6.298   7.149  0.1527  0.1765 -0.3576
  189SLPC   H5X21865   2.200   6.198   7.145  2.5686  1.2303 -0.3710
  189SLPC   H5Y21866   2.049   6.298   7.111  0.5423 -1.1463 -1.4740
  189SLPC   C3621867   2.158   6.342   7.296 -0.2418 -0.4493 -0.4602
  189SLPC   H6X21868   2.144   6.452   7.308 -1.7708 -0.6553 -0.1287
  189SLPC   H6Y21869   2.262   6.337   7.333 -0.0807 -0.7623 -0.9548
  189SLPC   C3721870   2.055   6.267   7.388 -0.1240 -0.1043 -0.2169
  189SLPC   H7X21871   2.073   6.158   7.374 -0.1995 -0.2301  0.6483
  189SLPC   H7Y21872   1.958   6.292   7.340 -0.5945 -2.4214 -0.5614
  189SLPC   C3821873   2.063   6.306   7.537  0.2611  0.7535  0.9281
  189SLPC   H8X21874   2.017   6.407   7.541  0.6098  0.9162  0.9374
  189SLPC   H8Y21875   2.167   6.309   7.576  0.4335  4.7814  0.6224
  189SLPC   C3921876   1.985   6.215   7.633  0.3060  0.4011  0.3829
  189SLPC   H9X21877   2.050   6.130   7.664 -0.0846  0.2895  0.9018
  189SLPC   H9Y21878   1.893   6.191   7.577  0.2392  2.8033 -0.6305
  189SLPC  C31021879   1.951   6.302   7.756 -0.1208 -0.4230 -0.2886
  189SLPC  H10X21880   1.891   6.389   7.723  0.0418 -0.6174 -1.1176
  189SLPC  H10Y21881   2.045   6.334   7.806  0.2031  1.0747 -1.7813
  189SLPC  C31121882   1.867   6.231   7.867  0.3600  0.3078  0.4349
  189SLPC  H11X21883   1.906   6.128   7.881  1.8254  0.9318  1.0335
  189SLPC  H11Y21884   1.764   6.214   7.826  0.8485 -3.0726  0.2958
  189SLPC  C31221885   1.860   6.307   7.997 -0.4502 -0.0307 -0.1693
  189SLPC  H12X21886   1.857   6.415   7.973  0.2865  0.1089  0.3493
  189SLPC  H12Y21887   1.955   6.292   8.053 -0.2162 -1.0690 -0.8255
  189SLPC  C31321888   1.744   6.269   8.086 -0.1379 -0.5077 -0.5045
  189SLPC  H13X21889   1.744   6.161   8.111  1.5010 -0.0324  1.8563
  189SLPC  H13Y21890   1.644   6.282   8.039  0.1015 -0.9347 -1.1530
  189SLPC  C31421891   1.741   6.348   8.220 -0.5162 -0.4128  0.2299
  189SLPC  H14X21892   1.708   6.452   8.199 -0.9765  0.1343  3.1519
  189SLPC  H14Y21893   1.845   6.350   8.258 -0.0579  0.3397 -1.0192
  189SLPC  C31521894   1.638   6.283   8.318 -0.4592 -0.3316  0.0699
  189SLPC  H15X21895   1.661   6.175   8.313 -0.2159 -0.2521 -0.5414
  189SLPC  H15Y21896   1.538   6.301   8.273 -0.2265 -1.3905 -0.9178
  189SLPC  C31621897   1.653   6.346   8.458  0.1914 -0.0354 -0.1237
  189SLPC  H16X21898   1.663   6.456   8.445  4.6915 -0.4790 -2.9670
  189SLPC  H16Y21899   1.752   6.314   8.499  0.6522  1.2900 -0.1651
  189SLPC  C31721900   1.541   6.287   8.541  0.2266  0.7170  0.0638
  189SLPC  H17X21901   1.549   6.177   8.531  2.3732  0.9700 -1.6476
  189SLPC  H17Y21902   1.439   6.308   8.503 -0.7538  0.6637  2.4952
  189SLPC  C31821903   1.552   6.338   8.688  0.0620  0.7351 -0.2102
  189SLPC  H18X21904   1.465   6.302   8.747  0.2972 -1.1134 -0.9135
  189SLPC  H18Y21905   1.552   6.449   8.681  1.5127  0.7609 -0.0350
  189SLPC  H18Z21906   1.644   6.311   8.744 -0.7559  1.3128  1.4999
  190SLPC     N21907   4.509   4.659   5.819  0.3932 -0.9397 -0.1720
  190SLPC   C1321908   4.455   4.796   5.814  0.0035  0.1002  0.9090
  190SLPC  H13A21909   4.494   4.847   5.728 -1.8032  2.3365  1.3126
  190SLPC  H13B21910   4.347   4.796   5.811 -0.0063 -0.3258  1.1415
  190SLPC  H13C21911   4.488   4.854   5.899 -0.6592 -1.4278  2.2581
  190SLPC   C1421912   4.663   4.659   5.836 -0.4604 -0.1073 -0.0889
  190SLPC  H14A21913   4.710   4.731   5.771 -1.6762  1.0065  0.2318
  190SLPC  H14B21914   4.696   4.658   5.939 -0.1625  0.3154 -0.1826
  190SLPC  H14C21915   4.696   4.565   5.795 -1.0199  0.0898 -1.0360
  190SLPC   C1521916   4.473   4.595   5.694  0.5863  0.1163  0.7040
  190SLPC  H15A21917   4.373   4.613   5.658  1.1449 -0.6375 -1.3796
  190SLPC  H15B21918   4.527   4.639   5.612 -1.4315  0.7782 -0.3242
  190SLPC  H15C21919   4.506   4.493   5.679 -0.9372 -0.3506  0.4157
  190SLPC   C1221920   4.435   4.581   5.933  0.8227 -0.4861  0.3051
  190SLPC  H12A21921   4.328   4.578   5.926  0.5326  0.5921  2.9052
  190SLPC  H12B21922   4.470   4.632   6.023 -0.5880  1.4710 -0.1888
  190SLPC   C1121923   4.455   4.433   5.973 -0.0414  0.7085 -0.0148
  190SLPC  H11A21924   4.432   4.370   5.884  0.1868  0.4262  0.1222
  190SLPC  H11B21925   4.376   4.403   6.045  0.8381 -0.3245  0.5541
  190SLPC     P21926   4.635   4.453   6.163  0.0277  0.2491  0.1600
  190SLPC   O1321927   4.779   4.418   6.184 -0.0332 -0.1478  0.0744
  190SLPC   O1421928   4.600   4.590   6.208 -0.1865 -0.5368  0.4505
  190SLPC   O1221929   4.590   4.416   6.019 -0.6422  0.4957  0.2704
  190SLPC   O1121930   4.544   4.352   6.243 -0.4667 -0.2402 -0.0177
  190SLPC    C121931   4.547   4.325   6.380  0.6865  0.2834 -0.1220
  190SLPC    HA21932   4.476   4.244   6.408  0.8184  0.6851  1.4793
  190SLPC    HB21933   4.648   4.289   6.410  1.4052  2.1533 -0.1363
  190SLPC    C221934   4.509   4.441   6.482  0.2186  0.6524  0.0356
  190SLPC    HS21935   4.470   4.524   6.418 -1.2219 -0.1627 -0.2005
  190SLPC   O2121936   4.630   4.478   6.546 -0.1747 -0.4112 -0.2238
  190SLPC   C2121937   4.650   4.601   6.582  0.5479  0.3691 -0.1196
  190SLPC   O2221938   4.575   4.692   6.559 -0.2237  0.1248  0.2356
  190SLPC   C2221939   4.782   4.611   6.656 -0.0199 -0.4900  0.0322
  190SLPC   H2R21940   4.838   4.516   6.647 -1.7255 -1.8083  2.2799
  190SLPC   H2S21941   4.843   4.679   6.593  0.7589 -1.8223 -0.6922
  190SLPC    C321942   4.407   4.397   6.590  0.6809  0.3528 -0.0883
  190SLPC    HX21943   4.458   4.314   6.643  0.9702 -0.9851 -2.3166
  190SLPC    HY21944   4.317   4.351   6.544 -0.0669 -0.5301  2.1182
  190SLPC   O3121945   4.367   4.504   6.677 -0.1874  0.9572  0.8131
  190SLPC   C3121946   4.272   4.587   6.640  0.1415 -0.2980  0.5366
  190SLPC   O3221947   4.206   4.576   6.536  0.6297 -0.1624  0.2333
  190SLPC   C3221948   4.268   4.699   6.744 -0.3474  0.2173 -0.0492
  190SLPC   H2X21949   4.183   4.762   6.709  0.4092  0.1611 -2.1325
  190SLPC   H2Y21950   4.360   4.759   6.754  0.1700 -0.6757  0.7486
  190SLPC   C2321951   4.760   4.672   6.798 -0.6650  0.3521  0.9329
  190SLPC   H3R21952   4.718   4.774   6.789 -1.0314  0.1490  0.2653
  190SLPC   H3S21953   4.861   4.683   6.844  0.5405 -1.5517 -1.0686
  190SLPC   C2421954   4.662   4.589   6.890 -0.4431  0.0950 -0.8804
  190SLPC   H4R21955   4.700   4.485   6.889  0.2078  0.2699 -3.7115
  190SLPC   H4S21956   4.555   4.591   6.859 -0.9726  1.2296  0.8431
  190SLPC   C2521957   4.660   4.642   7.036  0.7743 -0.4482  0.4301
  190SLPC   H5R21958   4.627   4.748   7.036 -1.4877 -1.0944  1.2782
  190SLPC   H5S21959   4.762   4.643   7.081  0.0679  0.8099  2.1220
  190SLPC   C2621960   4.557   4.562   7.122  0.5173 -0.4671 -0.3845
  190SLPC   H6R21961   4.581   4.454   7.112  1.9260 -0.3239  0.9530
  190SLPC   H6S21962   4.455   4.591   7.090 -0.4420 -2.4108  0.7397
  190SLPC   C2721963   4.561   4.577   7.273 -0.1606  0.2585 -0.1782
  190SLPC   H7R21964   4.660   4.552   7.316 -0.7325  1.4147  1.9879
  190SLPC   H7S21965   4.490   4.498   7.305 -0.6480  0.5320 -0.5564
  190SLPC   C2821966   4.512   4.712   7.322 -0.0734  0.1354  0.3236
  190SLPC   H8R21967   4.404   4.731   7.304 -0.1372 -0.3809  0.1659
  190SLPC   H8S21968   4.560   4.788   7.257 -0.0993  1.3878  1.7091
  190SLPC   C2921969   4.550   4.737   7.465 -0.2929 -0.1368  0.7085
  190SLPC   H9R21970   4.648   4.787   7.473 -0.5383  0.4074  0.3843
  190SLPC  C21021971   4.491   4.694   7.581 -0.2765 -0.2283 -0.0934
  190SLPC  H10R21972   4.538   4.733   7.673 -1.2437  1.3505 -0.2348
  190SLPC  C21121973   4.365   4.605   7.590 -0.2132 -0.4602 -0.1234
  190SLPC  H11R21974   4.300   4.620   7.500 -1.5854  1.1592  1.0722
  190SLPC  H11S21975   4.309   4.643   7.678 -0.0469 -0.3364 -0.0715
  190SLPC  C21221976   4.404   4.459   7.607  0.3034  0.4219 -0.3798
  190SLPC  H12R21977   4.497   4.435   7.552 -0.9280 -0.6177 -2.1214
  190SLPC  C21321978   4.332   4.357   7.665 -0.8041  0.1988  0.1037
  190SLPC  H13R21979   4.378   4.260   7.690 -0.5562 -0.2707 -1.9594
  190SLPC  C21421980   4.189   4.376   7.720  0.1018  0.2882  0.7748
  190SLPC  H14R21981   4.124   4.306   7.662  0.7398  0.0243  0.3659
  190SLPC  H14S21982   4.146   4.476   7.700 -0.6250 -0.0227  0.7402
  190SLPC  C21521983   4.165   4.341   7.870  0.7252  0.6453  0.3381
  190SLPC  H15R21984   4.222   4.404   7.942 -2.3842  2.3484  1.4901
  190SLPC  H15S21985   4.207   4.241   7.894  0.6837 -0.0132 -2.0951
  190SLPC  C21621986   4.022   4.345   7.920 -0.1119  0.0807  0.3652
  190SLPC  H16R21987   3.956   4.268   7.874  0.0696  0.5323 -0.6674
  190SLPC  H16S21988   3.981   4.446   7.899  0.2926  0.2566  0.4055
  190SLPC  C21721989   4.014   4.331   8.071 -0.6402 -0.9000  0.3001
  190SLPC  H17R21990   4.058   4.240   8.118 -0.9204 -1.1472  0.0891
  190SLPC  H17S21991   3.906   4.321   8.098 -0.4785  0.3928  1.5760
  190SLPC  C21821992   4.071   4.450   8.147 -0.0178 -0.5985  0.3430
  190SLPC  H18R21993   4.042   4.435   8.253  0.4730  1.3221  0.7906
  190SLPC  H18S21994   4.036   4.547   8.106 -0.5546 -1.0181 -0.2208
  190SLPC  H18T21995   4.180   4.471   8.146  0.0369 -0.8961 -0.5492
  190SLPC   C3321996   4.231   4.633   6.883 -0.2774 -0.5067 -0.2219
  190SLPC   H3X21997   4.317   4.577   6.925  1.0317  0.6804 -1.2093
  190SLPC   H3Y21998   4.141   4.568   6.881 -0.2065 -0.6365  0.4452
  190SLPC   C3421999   4.206   4.746   6.984 -0.0111  0.1388 -0.4395
  190SLPC   H4X22000   4.130   4.818   6.947 -0.0672  0.2895 -0.0489
  190SLPC   H4Y22001   4.306   4.794   6.985  0.6269 -1.0798 -1.9281
  190SLPC   C3522002   4.179   4.715   7.136  0.2889  0.3467 -0.4519
  190SLPC   H5X22003   4.205   4.813   7.183 -0.5617  0.1045  0.5694
  190SLPC   H5Y22004   4.262   4.647   7.167 -0.0987  0.0411 -0.0761
  190SLPC   C3622005   4.039   4.676   7.177  0.4244  0.0881  0.2420
  190SLPC   H6X22006   4.033   4.567   7.154 -2.4366  0.4776 -1.3849
  190SLPC   H6Y22007   3.962   4.727   7.116 -1.6272  0.0052  2.5819
  190SLPC   C3722008   4.012   4.697   7.329 -0.0368 -0.3964  0.4076
  190SLPC   H7X22009   4.031   4.805   7.349 -0.4036 -0.1772 -0.3947
  190SLPC   H7Y22010   4.087   4.646   7.393  0.1456  1.5038  1.8061
  190SLPC   C3822011   3.879   4.637   7.371 -0.1413 -0.4213  0.1821
  190SLPC   H8X22012   3.896   4.532   7.339 -0.6088 -0.1979 -0.8390
  190SLPC   H8Y22013   3.791   4.679   7.318  1.1948 -1.2878 -2.9143
  190SLPC   C3922014   3.871   4.654   7.518  0.2655 -0.4318 -0.9420
  190SLPC   H9X22015   3.962   4.617   7.570 -0.5745  0.1668  1.0663
  190SLPC   H9Y22016   3.783   4.594   7.552 -0.6504  1.6461  0.5954
  190SLPC  C31022017   3.846   4.798   7.562  0.2500 -0.1181 -0.2397
  190SLPC  H10X22018   3.755   4.827   7.505 -0.5515 -2.4097 -0.1920
  190SLPC  H10Y22019   3.929   4.867   7.534 -1.0362  1.6668  0.1121
  190SLPC  C31122020   3.804   4.833   7.705 -0.8402  0.2580  0.3473
  190SLPC  H11X22021   3.712   4.774   7.723  0.4500 -2.0699 -0.2128
  190SLPC  H11Y22022   3.771   4.938   7.691 -2.4634 -0.5384 -2.5889
  190SLPC  C31222023   3.922   4.814   7.804 -0.1003 -0.7102 -0.4380
  190SLPC  H12X22024   4.016   4.858   7.763  0.2779 -0.2383  0.8712
  190SLPC  H12Y22025   3.948   4.706   7.806  0.4847 -0.5606  0.7901
  190SLPC  C31322026   3.899   4.875   7.946  0.8184  0.8155 -0.6163
  190SLPC  H13X22027   3.807   4.821   7.976  1.4310 -2.6504 -4.0896
  190SLPC  H13Y22028   3.879   4.984   7.938 -0.2080  0.7321  0.5827
  190SLPC  C31422029   4.012   4.848   8.049  0.2006  0.2616 -0.9523
  190SLPC  H14X22030   4.107   4.891   8.008  1.6049 -0.1369  1.6686
  190SLPC  H14Y22031   4.011   4.737   8.051 -1.4547  0.2439 -1.5619
  190SLPC  C31522032   3.978   4.921   8.178  0.1080  0.0512  0.2772
  190SLPC  H15X22033   3.880   4.874   8.197  0.1713 -0.2973 -0.2470
  190SLPC  H15Y22034   3.960   5.029   8.161 -3.5479 -0.6335 -1.0265
  190SLPC  C31622035   4.077   4.882   8.290 -0.3453 -0.4506 -0.3597
  190SLPC  H16X22036   4.106   4.776   8.284  0.0665 -0.2514 -2.3872
  190SLPC  H16Y22037   4.015   4.888   8.382  2.3068 -1.8875  1.6530
  190SLPC  C31722038   4.204   4.969   8.281 -0.0072 -0.0546  0.2266
  190SLPC  H17X22039   4.165   5.072   8.294 -0.9484 -0.4178  0.3858
  190SLPC  H17Y22040   4.245   4.975   8.178 -1.1355  0.9354 -0.1823
  190SLPC  C31822041   4.311   4.925   8.379 -0.1374  0.9458  0.0616
  190SLPC  H18X22042   4.268   4.895   8.477 -2.5436 -0.8541 -1.4459
  190SLPC  H18Y22043   4.375   5.015   8.395  0.7614  0.4619 -0.7031
  190SLPC  H18Z22044   4.369   4.835   8.352 -1.5005 -0.3330  1.2278
  191SLPC     N22045   2.720   5.338   5.656  0.6374  0.1208  0.0703
  191SLPC   C1322046   2.711   5.483   5.612 -0.2412  0.4338 -0.1804
  191SLPC  H13A22047   2.652   5.542   5.681 -0.2792  0.2895 -0.0872
  191SLPC  H13B22048   2.801   5.541   5.601 -0.3715  0.2039 -2.9808
  191SLPC  H13C22049   2.669   5.496   5.514 -1.4546  0.2219  0.2919
  191SLPC   C1422050   2.787   5.320   5.777 -0.5522  0.0245  0.5179
  191SLPC  H14A22051   2.771   5.399   5.849 -0.8533 -1.1669  1.8060
  191SLPC  H14B22052   2.763   5.232   5.836 -4.0984  1.0960  0.9244
  191SLPC  H14C22053   2.892   5.329   5.755 -0.5925 -0.3218  0.1785
  191SLPC   C1522054   2.784   5.267   5.532  0.2201  0.3201 -0.3256
  191SLPC  H15A22055   2.885   5.299   5.510 -0.3081  0.1189 -3.5989
  191SLPC  H15B22056   2.790   5.160   5.547  5.5724  0.4987  0.5221
  191SLPC  H15C22057   2.731   5.292   5.441  1.3572  0.7731 -0.8796
  191SLPC   C1222058   2.578   5.286   5.680 -1.3182 -0.0146  0.3242
  191SLPC  H12A22059   2.588   5.185   5.717 -0.4993  0.2085  0.7391
  191SLPC  H12B22060   2.530   5.272   5.584 -1.0055  2.5630 -0.2659
  191SLPC   C1122061   2.473   5.357   5.772 -0.4202  0.1446 -0.2588
  191SLPC  H11A22062   2.368   5.335   5.746 -0.8389 -0.0467  1.4565
  191SLPC  H11B22063   2.472   5.466   5.752  0.0408 -0.1204 -1.8550
  191SLPC     P22064   2.458   5.180   5.955  0.8899 -0.0376  0.3030
  191SLPC   O1322065   2.314   5.164   5.915  0.2532  0.3757 -0.3550
  191SLPC   O1422066   2.554   5.079   5.911  0.0807  0.3636  0.2242
  191SLPC   O1222067   2.503   5.328   5.907  0.0750 -0.5376  0.2093
  191SLPC   O1122068   2.449   5.178   6.111  0.1793 -0.1109 -0.4804
  191SLPC    C122069   2.388   5.271   6.198  0.7901 -0.6356  0.0016
  191SLPC    HA22070   2.311   5.341   6.159  0.4835 -0.1603  1.4169
  191SLPC    HB22071   2.341   5.217   6.282  0.6429  1.3055  1.2431
  191SLPC    C222072   2.504   5.355   6.266  0.2931 -0.1610 -0.1582
  191SLPC    HS22073   2.581   5.370   6.187 -0.8806  1.1085 -1.1141
  191SLPC   O2122074   2.542   5.288   6.384 -0.1081 -0.2026  0.1178
  191SLPC   C2122075   2.656   5.223   6.396  0.3258 -0.1915 -0.0426
  191SLPC   O2222076   2.724   5.194   6.298 -0.6961  0.3428  0.4797
  191SLPC   C2222077   2.690   5.177   6.531 -0.0067  0.4566 -0.4083
  191SLPC   H2R22078   2.676   5.067   6.530 -1.2044  0.5954 -0.0306
  191SLPC   H2S22079   2.795   5.193   6.565 -0.3967  1.1228  0.5245
  191SLPC    C322080   2.457   5.494   6.308 -0.1163 -0.1282  0.6078
  191SLPC    HX22081   2.370   5.488   6.377 -2.1157  0.8803 -1.6923
  191SLPC    HY22082   2.425   5.537   6.211  2.6872  1.2145  0.1650
  191SLPC   O3122083   2.566   5.577   6.349  0.1245  0.0088 -0.6134
  191SLPC   C3122084   2.550   5.662   6.444  0.5187  0.2791 -0.5982
  191SLPC   O3222085   2.441   5.687   6.497 -0.1801 -0.0231  0.6040
  191SLPC   C3222086   2.688   5.725   6.486  0.3781 -0.2917 -0.0209
  191SLPC   H2X22087   2.692   5.824   6.435 -0.6764 -0.5833 -0.6941
  191SLPC   H2Y22088   2.771   5.664   6.445 -0.5897 -0.7939 -1.2825
  191SLPC   C2322089   2.603   5.235   6.644  0.2733  0.3735 -0.2577
  191SLPC   H3R22090   2.618   5.145   6.708 -1.3717 -0.4553 -0.9739
  191SLPC   H3S22091   2.494   5.238   6.627  0.3357 -0.2146 -0.8409
  191SLPC   C2422092   2.665   5.355   6.716 -0.4651 -0.7258  0.0231
  191SLPC   H4R22093   2.673   5.443   6.649  1.7356 -0.8374  0.0462
  191SLPC   H4S22094   2.766   5.317   6.745  0.0108 -0.1795 -0.8812
  191SLPC   C2522095   2.582   5.394   6.835 -0.0063  0.1907  0.6075
  191SLPC   H5R22096   2.548   5.301   6.885 -0.6751  0.0544 -0.0766
  191SLPC   H5S22097   2.491   5.450   6.803  0.7504  1.0651 -0.0965
  191SLPC   C2622098   2.641   5.489   6.939  0.0408  0.5656 -0.3649
  191SLPC   H6R22099   2.665   5.581   6.883 -0.3940  1.6040  1.0910
  191SLPC   H6S22100   2.739   5.446   6.969  0.2817  0.4278 -1.3251
  191SLPC   C2722101   2.546   5.516   7.048 -1.1614 -0.1174  0.1081
  191SLPC   H7R22102   2.528   5.429   7.115  0.7358  1.0854  2.3240
  191SLPC   H7S22103   2.451   5.563   7.015 -0.9331 -0.1237 -0.5622
  191SLPC   C2822104   2.610   5.621   7.150  0.6802  0.5758  1.0941
  191SLPC   H8R22105   2.524   5.671   7.201  0.6050  1.6664 -0.0729
  191SLPC   H8S22106   2.658   5.701   7.091  0.2595  0.0890  0.0521
  191SLPC   C2922107   2.712   5.570   7.235 -0.2252 -0.0979 -0.1673
  191SLPC   H9R22108   2.808   5.577   7.183 -0.8975  0.8798 -1.3097
  191SLPC  C21022109   2.692   5.518   7.366  0.4264  0.0832  0.7492
  191SLPC  H10R22110   2.776   5.477   7.422  0.1496 -0.7282  0.5802
  191SLPC  C21122111   2.555   5.516   7.432  0.7070  0.6777 -1.3935
  191SLPC  H11R22112   2.532   5.425   7.493  0.8939  1.4960 -0.0725
  191SLPC  H11S22113   2.472   5.517   7.358 -1.1022 -1.7748  0.3938
  191SLPC  C21222114   2.554   5.631   7.533  0.3676  0.2621  0.5386
  191SLPC  H12R22115   2.569   5.731   7.490 -3.3899 -1.2388 -5.4027
  191SLPC  C21322116   2.539   5.623   7.667 -0.0343 -0.1369  0.1001
  191SLPC  H13R22117   2.534   5.715   7.725  0.7334  0.8950 -1.3910
  191SLPC  C21422118   2.523   5.493   7.746  0.4993  0.1253  0.3480
  191SLPC  H14R22119   2.516   5.398   7.690  0.3893  1.3459 -1.8296
  191SLPC  H14S22120   2.424   5.501   7.795 -2.0811  0.0204 -4.2622
  191SLPC  C21522121   2.626   5.481   7.848  0.0770 -0.3881 -0.3092
  191SLPC  H15R22122   2.653   5.572   7.908  1.6394 -1.9646  1.5212
  191SLPC  H15S22123   2.713   5.451   7.786 -1.7527  0.0736 -3.2621
  191SLPC  C21622124   2.601   5.360   7.942  0.0013  1.1764  0.4090
  191SLPC  H16R22125   2.597   5.273   7.872  2.0035  0.4376  1.1477
  191SLPC  H16S22126   2.499   5.359   7.985 -0.6895  0.8937 -1.1451
  191SLPC  C21722127   2.707   5.336   8.052  0.0042  0.0015  0.6032
  191SLPC  H17R22128   2.706   5.417   8.129 -0.6236 -1.6423  2.3968
  191SLPC  H17S22129   2.811   5.337   8.014 -0.6306  0.6438 -1.1971
  191SLPC  C21822130   2.685   5.197   8.123  0.5741  0.5499  0.3722
  191SLPC  H18R22131   2.585   5.193   8.171  0.4348 -0.0904  0.0379
  191SLPC  H18S22132   2.763   5.184   8.201  0.3829 -1.5421  0.2497
  191SLPC  H18T22133   2.692   5.109   8.055  2.1072  0.5851  0.4536
  191SLPC   C3322134   2.707   5.753   6.638 -0.1818 -0.2791  0.1142
  191SLPC   H3X22135   2.731   5.663   6.698  0.4384  0.5950  1.2371
  191SLPC   H3Y22136   2.617   5.805   6.677  0.5841  0.9861  0.2562
  191SLPC   C3422137   2.822   5.854   6.659  0.4478 -0.5573 -0.1848
  191SLPC   H4X22138   2.791   5.961   6.652  0.8192 -0.5280 -2.1336
  191SLPC   H4Y22139   2.901   5.842   6.582  2.5087  3.1116  1.0956
  191SLPC   C3522140   2.879   5.829   6.798 -0.5670 -0.8561  0.3005
  191SLPC   H5X22141   2.921   5.727   6.799  0.7155 -0.3937 -1.3033
  191SLPC   H5Y22142   2.792   5.848   6.864 -1.7402 -2.8194 -0.6029
  191SLPC   C3622143   2.992   5.925   6.828  0.4607 -0.2924  0.6882
  191SLPC   H6X22144   2.971   6.034   6.815  1.7158 -0.1645 -0.3586
  191SLPC   H6Y22145   3.069   5.894   6.755  0.6975  1.0265  0.3596
  191SLPC   C3722146   3.039   5.908   6.968 -0.3173 -0.2357  0.1591
  191SLPC   H7X22147   3.131   5.968   6.988 -0.0794 -1.3660  2.8654
  191SLPC   H7Y22148   3.060   5.800   6.984 -0.8234 -0.3476  0.0750
  191SLPC   C3822149   2.928   5.953   7.062  0.6388 -0.3926 -0.3769
  191SLPC   H8X22150   2.846   5.877   7.065  1.0970 -0.9160 -0.9117
  191SLPC   H8Y22151   2.899   6.055   7.029 -3.0030 -0.4556  2.0265
  191SLPC   C3922152   2.976   5.955   7.210 -0.3271 -0.2105 -0.3118
  191SLPC   H9X22153   3.037   6.043   7.240 -0.5185  0.2625 -1.2873
  191SLPC   H9Y22154   3.023   5.857   7.234  0.6591  0.1669 -0.6160
  191SLPC  C31022155   2.862   5.979   7.303 -0.4093  0.4551  0.0478
  191SLPC  H10X22156   2.783   5.902   7.292 -0.1276  0.3283 -1.1732
  191SLPC  H10Y22157   2.819   6.077   7.271 -0.0044  0.5715 -0.1448
  191SLPC  C31122158   2.900   5.992   7.450  0.2381  0.3009 -0.4783
  191SLPC  H11X22159   2.818   6.046   7.501 -1.2977  0.4166 -2.9228
  191SLPC  H11Y22160   2.992   6.052   7.468  0.2631  0.2237 -0.3479
  191SLPC  C31222161   2.881   5.853   7.508 -0.7875  0.5259 -0.2118
  191SLPC  H12X22162   2.934   5.785   7.437  2.6791  2.8363 -0.0945
  191SLPC  H12Y22163   2.772   5.839   7.523 -0.8001 -1.4067 -1.6888
  191SLPC  C31322164   2.934   5.839   7.651 -0.5926 -0.2092 -0.7263
  191SLPC  H13X22165   2.868   5.898   7.719 -1.1565 -0.7682 -0.7874
  191SLPC  H13Y22166   3.037   5.882   7.651 -1.0074  0.8448  0.1490
  191SLPC  C31422167   2.938   5.687   7.690  0.0367 -0.7380 -0.0650
  191SLPC  H14X22168   3.033   5.641   7.653 -1.0638 -2.6300 -0.6585
  191SLPC  H14Y22169   2.857   5.639   7.631  0.5376  1.1596 -2.4069
  191SLPC  C31522170   2.939   5.658   7.842  0.2829  0.1679  0.1280
  191SLPC  H15X22171   2.910   5.555   7.871 -2.0598  1.4793  2.9777
  191SLPC  H15Y22172   2.858   5.720   7.886 -0.8532  0.9036 -2.7901
  191SLPC  C31622173   3.078   5.688   7.913  0.2147 -0.2430 -0.3004
  191SLPC  H16X22174   3.096   5.796   7.894  0.4008  0.1102  1.6383
  191SLPC  H16Y22175   3.164   5.630   7.872  2.1347  1.2546  1.3938
  191SLPC  C31722176   3.071   5.672   8.073 -0.2662 -0.1768 -0.2831
  191SLPC  H17X22177   3.015   5.583   8.109 -2.8521  1.7554  0.7938
  191SLPC  H17Y22178   3.014   5.762   8.107  2.1676  0.8561  1.3573
  191SLPC  C31822179   3.208   5.688   8.141 -0.2780  0.7988 -0.1815
  191SLPC  H18X22180   3.282   5.611   8.112 -0.2070  0.3359  1.1778
  191SLPC  H18Y22181   3.197   5.672   8.250 -1.2658  0.5568 -0.3082
  191SLPC  H18Z22182   3.251   5.785   8.107  1.6968 -0.3227 -1.0393
  192SLPC     N22183   5.545   0.225   6.083  0.6915  0.4636 -0.7681
  192SLPC   C1322184   5.464   0.335   6.020 -0.7536 -0.0617 -0.0240
  192SLPC  H13A22185   5.474   0.348   5.914  0.0526 -0.5201 -0.0144
  192SLPC  H13B22186   5.359   0.324   6.041 -0.2761 -0.9436  2.2933
  192SLPC  H13C22187   5.498   0.430   6.059 -1.7905 -0.1178  1.0558
  192SLPC   C1422188   5.680   0.227   6.020 -0.0359 -0.3243 -0.3104
  192SLPC  H14A22189   5.672   0.209   5.914 -0.0347 -3.6866  0.1636
  192SLPC  H14B22190   5.717   0.328   6.028  0.3914 -0.5129  0.1753
  192SLPC  H14C22191   5.749   0.158   6.066  0.3742  0.0727 -0.3224
  192SLPC   C1522192   5.490   0.093   6.052 -0.6006  0.1089 -0.4356
  192SLPC  H15A22193   5.383   0.086   6.067 -0.3850  0.0198  1.1479
  192SLPC  H15B22194   5.513   0.060   5.952 -0.3321 -1.0149 -0.0115
  192SLPC  H15C22195   5.521   0.017   6.121  1.6513  1.1133 -0.2723
  192SLPC   C1222196   5.557   0.248   6.235 -0.1653 -0.2555 -0.4440
  192SLPC  H12A22197   5.632   0.175   6.261  2.2173  1.9371 -0.8706
  192SLPC  H12B22198   5.460   0.229   6.280  0.6035  1.1529  1.9102
  192SLPC   C1122199   5.598   0.382   6.286  0.3859 -0.1370  0.3370
  192SLPC  H11A22200   5.681   0.408   6.217 -0.6435  0.3733 -0.7443
  192SLPC  H11B22201   5.643   0.368   6.387  0.5130 -5.0435 -0.1702
  192SLPC     P22202   5.356   0.468   6.346 -0.1353  0.2084 -0.2315
  192SLPC   O1322203   5.264   0.552   6.269  0.0497 -0.4322 -0.2515
  192SLPC   O1422204   5.310   0.330   6.367 -0.5332 -0.0972  0.0110
  192SLPC   O1222205   5.493   0.473   6.270 -0.4579  0.2172 -0.1681
  192SLPC   O1122206   5.377   0.540   6.485 -0.0203  0.2061  0.0753
  192SLPC    C122207   5.487   0.630   6.500 -0.7608 -0.1659  0.4002
  192SLPC    HA22208   5.584   0.576   6.488  0.3620  1.0092  3.2878
  192SLPC    HB22209   5.478   0.706   6.420 -1.0972  0.9709  1.4822
  192SLPC    C222210   5.496   0.692   6.649  0.4046 -0.0033  0.3485
  192SLPC    HS22211   5.588   0.754   6.654  0.4318 -0.0223  0.1143
  192SLPC   O2122212   5.478   0.597   6.749  0.3213  0.7392  0.2568
  192SLPC   C2122213   5.549   0.487   6.743  0.3735 -0.5132 -0.0625
  192SLPC   O2222214   5.650   0.476   6.671  0.0526  0.5724 -0.4987
  192SLPC   C2222215   5.489   0.386   6.842 -0.0624  0.6184 -0.2086
  192SLPC   H2R22216   5.452   0.297   6.787 -1.1057 -1.4400  3.5360
  192SLPC   H2S22217   5.571   0.335   6.896 -1.1244 -3.5878 -2.2211
  192SLPC    C322218   5.387   0.791   6.667  0.3558  0.1865 -0.5870
  192SLPC    HX22219   5.295   0.741   6.630  0.3856 -1.9731  1.9317
  192SLPC    HY22220   5.402   0.877   6.599 -0.7957  0.9260  0.0489
  192SLPC   O3122221   5.383   0.834   6.807  0.0089  0.5642  0.0581
  192SLPC   C3122222   5.282   0.775   6.874  0.0336 -0.7495  0.5158
  192SLPC   O3222223   5.198   0.709   6.820 -0.3883 -0.7569 -0.0102
  192SLPC   C3222224   5.278   0.829   7.019  0.1085 -0.6321  0.3029
  192SLPC   H2X22225   5.218   0.922   7.011  0.0087 -0.5969  1.3528
  192SLPC   H2Y22226   5.381   0.851   7.057 -0.5918  0.3362  1.7187
  192SLPC   C2322227   5.377   0.423   6.943  0.2678 -0.6303  0.1906
  192SLPC   H3R22228   5.293   0.467   6.884 -1.4671 -1.7395  1.6997
  192SLPC   H3S22229   5.415   0.485   7.027 -0.3737  0.3868 -0.2452
  192SLPC   C2422230   5.299   0.306   7.009 -0.1171 -0.1492  0.0042
  192SLPC   H4R22231   5.239   0.251   6.932 -2.1526  3.4538 -1.2135
  192SLPC   H4S22232   5.226   0.364   7.070  0.9995  2.8884 -1.3473
  192SLPC   C2522233   5.405   0.210   7.069  0.7172 -0.1363 -0.3951
  192SLPC   H5R22234   5.483   0.269   7.121 -1.1276  0.3753  2.0071
  192SLPC   H5S22235   5.449   0.150   6.987 -1.8253 -0.9271 -1.2955
  192SLPC   C2622236   5.362   0.111   7.172  0.6405 -0.5008 -0.0397
  192SLPC   H6R22237   5.444   0.038   7.191  2.7973  1.6045 -0.7915
  192SLPC   H6S22238   5.268   0.055   7.151  0.7168 -0.1103 -1.5982
  192SLPC   C2722239   5.336   0.191   7.308  0.7576  0.7842  0.2980
  192SLPC   H7R22240   5.283   0.281   7.272  0.2827  0.1004 -0.7901
  192SLPC   H7S22241   5.439   0.221   7.336  0.2940  2.3235  0.4125
  192SLPC   C2822242   5.264   0.109   7.418  0.3675 -0.0038 -0.0637
  192SLPC   H8R22243   5.340   0.036   7.453 -1.5116 -0.9023  2.4682
  192SLPC   H8S22244   5.181   0.044   7.382  0.4504 -1.5218  2.2560
  192SLPC   C2922245   5.218   0.208   7.531  0.0936 -0.1192  0.4655
  192SLPC   H9R22246   5.150   0.288   7.499 -0.2022 -1.0551 -1.4047
  192SLPC  C21022247   5.271   0.211   7.653 -0.0521 -0.0574  0.5030
  192SLPC  H10R22248   5.241   0.294   7.718  0.8074  1.6971 -1.2687
  192SLPC  C21122249   5.390   0.135   7.699 -0.3663 -0.2000 -0.5870
  192SLPC  H11R22250   5.438   0.085   7.612 -0.4740 -1.3266 -0.0136
  192SLPC  H11S22251   5.346   0.049   7.753 -0.3708  0.6058  0.7362
  192SLPC  C21222252   5.485   0.200   7.797  1.0139  0.2424 -0.2438
  192SLPC  H12R22253   5.582   0.227   7.754  0.8156 -2.1822 -2.4412
  192SLPC  C21322254   5.459   0.232   7.928  0.2965  0.4337  0.3535
  192SLPC  H13R22255   5.528   0.302   7.977  0.9210  0.6754 -0.8479
  192SLPC  C21422256   5.338   0.204   8.023 -0.0987 -1.1043  0.4053
  192SLPC  H14R22257   5.254   0.163   7.962  0.6620 -1.1387 -0.6475
  192SLPC  H14S22258   5.292   0.299   8.057 -0.2901 -0.8491 -0.5395
  192SLPC  C21522259   5.351   0.108   8.141  0.2991 -0.1862 -0.8070
  192SLPC  H15R22260   5.425   0.153   8.210 -1.0377 -0.5890  0.9501
  192SLPC  H15S22261   5.369   0.002   8.116  1.4216  0.3866 -2.6074
  192SLPC  C21622262   5.215   0.108   8.218 -0.0264 -0.0981 -0.2304
  192SLPC  H16R22263   5.210   0.023   8.290  1.1601  1.4500  1.7923
  192SLPC  H16S22264   5.136   0.083   8.144 -0.2368 -0.1229 -0.0002
  192SLPC  C21722265   5.178   0.232   8.305 -0.0559 -0.1132 -1.2490
  192SLPC  H17R22266   5.261   0.257   8.375 -2.2830 -0.3642  1.7164
  192SLPC  H17S22267   5.169   0.322   8.240 -2.7043  1.5376  1.1511
  192SLPC  C21822268   5.052   0.216   8.385  0.5485 -0.2280  0.5158
  192SLPC  H18R22269   5.033   0.296   8.460 -1.5402 -0.5834  0.4010
  192SLPC  H18S22270   5.050   0.118   8.436 -0.1800  0.3569  1.6503
  192SLPC  H18T22271   4.965   0.216   8.317  0.3827 -0.2630  0.7291
  192SLPC   C3322272   5.206   0.737   7.124 -0.0801 -0.1579 -0.3942
  192SLPC   H3X22273   5.256   0.638   7.133 -3.3934 -2.1376 -1.7780
  192SLPC   H3Y22274   5.100   0.723   7.091  0.3767 -0.6509 -1.7056
  192SLPC   C3422275   5.200   0.811   7.260 -0.8791  0.2328 -0.4557
  192SLPC   H4X22276   5.161   0.914   7.251  2.3472  1.4799 -1.7666
  192SLPC   H4Y22277   5.305   0.817   7.297 -0.3135 -0.5019 -1.8529
  192SLPC   C3522278   5.106   0.740   7.360  0.1086  0.6473  0.5734
  192SLPC   H5X22279   5.127   0.631   7.351  0.9413  0.7038  1.6148
  192SLPC   H5Y22280   4.999   0.751   7.333 -0.6453 -2.0398  2.0149
  192SLPC   C3622281   5.134   0.800   7.505  0.2747  0.0141  0.0870
  192SLPC   H6X22282   5.081   0.894   7.529 -1.3610 -0.4152 -1.5608
  192SLPC   H6Y22283   5.241   0.825   7.522  0.2916 -0.8648  1.4484
  192SLPC   C3722284   5.079   0.697   7.611 -0.7867 -0.2550  0.6303
  192SLPC   H7X22285   5.130   0.602   7.581 -0.6745  0.2423 -0.8423
  192SLPC   H7Y22286   4.968   0.696   7.600 -0.6565  2.4749 -2.4564
  192SLPC   C3822287   5.122   0.730   7.752 -0.2658 -0.5461  0.6738
  192SLPC   H8X22288   5.143   0.839   7.764 -1.5741 -0.0145 -1.3177
  192SLPC   H8Y22289   5.224   0.688   7.762 -0.3316 -0.7427  0.5094
  192SLPC   C3922290   5.032   0.678   7.863  0.2168 -1.0825  0.6205
  192SLPC   H9X22291   5.032   0.568   7.852  0.0389 -0.9609 -0.7903
  192SLPC   H9Y22292   4.931   0.720   7.843  0.8106  1.1131  1.9001
  192SLPC  C31022293   5.065   0.726   8.001  0.2016 -0.0468  0.2305
  192SLPC  H10X22294   5.047   0.836   7.997  0.5536 -0.0009 -0.1441
  192SLPC  H10Y22295   5.172   0.719   8.030  0.2272  0.0725  0.1701
  192SLPC  C31122296   4.979   0.684   8.119  0.3870  0.2247  0.3491
  192SLPC  H11X22297   4.965   0.574   8.125  0.9432  0.1013 -0.5179
  192SLPC  H11Y22298   4.878   0.722   8.096  0.5792  0.6147  0.1403
  192SLPC  C31222299   5.022   0.750   8.248 -0.1112 -0.0750  0.0726
  192SLPC  H12X22300   5.013   0.860   8.234 -1.0423 -0.0321  0.9603
  192SLPC  H12Y22301   5.121   0.721   8.289  0.5062  0.5743 -0.8998
  192SLPC  C31322302   4.929   0.710   8.367  0.4093 -0.2546 -0.2158
  192SLPC  H13X22303   4.937   0.602   8.394  0.9580  0.1407  1.3250
  192SLPC  H13Y22304   4.825   0.720   8.331  1.5599  1.4525 -3.4331
  192SLPC  C31422305   4.959   0.798   8.491 -0.0763  1.3363 -0.3219
  192SLPC  H14X22306   4.956   0.901   8.451 -2.7275  1.0837 -0.9838
  192SLPC  H14Y22307   5.060   0.769   8.526 -0.5619 -3.3913 -2.1316
  192SLPC  C31522308   4.873   0.774   8.615  0.2074  0.4522 -0.3960
  192SLPC  H15X22309   4.874   0.664   8.634  4.8538  0.5051  0.9503
  192SLPC  H15Y22310   4.767   0.797   8.594  0.2713  0.8925 -0.2512
  192SLPC  C31622311   4.941   0.832   8.735  1.1118  0.1864  0.1934
  192SLPC  H16X22312   4.951   0.938   8.706  0.8080  0.4416  0.9940
  192SLPC  H16Y22313   5.043   0.788   8.731  0.5665 -1.1148  0.0846
  192SLPC  C31722314   4.885   0.826   8.882 -0.7509 -0.2871 -0.1707
  192SLPC  H17X22315   4.784   0.874   8.887 -0.5882 -0.0798  3.0826
  192SLPC  H17Y22316   4.952   0.884   8.948 -2.5182  2.3767 -0.5295
  192SLPC  C31822317   4.879   0.685   8.945 -0.3830 -0.3050  0.0156
  192SLPC  H18X22318   4.845   0.609   8.872  1.0116 -0.3903 -0.5802
  192SLPC  H18Y22319   4.825   0.683   9.042 -0.5424  1.3288 -0.0035
  192SLPC  H18Z22320   4.985   0.669   8.978 -0.6980 -0.3464  1.0604
  193SOD    SOD22321   2.500   3.593   2.404 -0.2070  0.0802 -0.2835
  194SOD    SOD22322   4.738   3.249  16.099 -0.2019  0.0983 -0.0755
  195SOD    SOD22323   5.599   0.503  16.537  0.4176 -0.2397  0.4259
  196SOD    SOD22324   6.617   5.835  17.165 -0.1513  0.3538 -0.0016
  197SOD    SOD22325   0.135   6.289   6.235 -0.0165 -0.9063 -0.0435
  198SOD    SOD22326   6.155   0.539   0.112  0.2578 -0.3956 -0.2060
  199SOD    SOD22327   1.111   0.066   0.784 -0.4760 -0.2086  0.4288
  200SOD    SOD22328   3.096   4.656  15.938  0.2919  0.2173 -0.3385
  201SOD    SOD22329   1.864   1.491  17.017 -0.1874  0.5763  0.3297
  202SOD    SOD22330   1.371   1.559   0.339  0.7865  0.0250 -0.5382
  203SOD    SOD22331   5.806   2.773   2.744 -0.2291 -0.2951 -0.2983
  204SOD    SOD22332   2.150   1.682  15.795 -0.0384  0.0374 -0.1541
  205SOD    SOD22333   2.778   6.089   0.787 -0.4537 -0.0483 -0.4400
  206SOD    SOD22334   0.441   3.763  15.537  0.2231 -0.2175  0.1244
  207SOD    SOD22335   0.688   4.486   3.033  0.2892  0.0213 -0.7453
  208SOD    SOD22336   0.678   5.302  14.884  0.2946  0.1476  0.3179
  209SOD    SOD22337   6.151   3.685   2.165 -0.2468 -0.3332  0.2616
  210SOD    SOD22338   1.456   2.197   1.418  0.4447  0.3980  0.0363
  211SOD    SOD22339   6.237   1.813   6.337  0.7170  0.2345  0.1922
  212SOD    SOD22340   3.854   3.382   0.846 -0.1513 -0.1079 -0.3134
  213SOD    SOD22341   0.554   2.300   2.675  0.5046 -0.3936 -0.3287
  214SOD    SOD22342   6.723   0.862  13.607  0.2086  0.0706  0.6876
  215SOD    SOD22343   6.408   5.169  13.978 -0.6005 -0.0417 -0.6467
  216SOD    SOD22344   4.104   1.671  15.123 -0.5737 -0.2144  0.0936
  217SOD    SOD22345   5.133   0.923  12.557 -0.1108  0.0457  0.0562
  218SOD    SOD22346   1.466   5.833  14.058 -0.3115  0.1797 -0.0332
  219SOD    SOD22347   2.896   1.757   4.708 -0.1823 -0.1342  0.3019
  220SOD    SOD22348   2.593   1.522   4.464 -0.3532  0.1032  0.1289
  221SOD    SOD22349   3.182   1.029   0.696 -0.1435 -0.4120  0.3454
  222SOD    SOD22350   4.583   0.194  12.105 -0.5746 -0.4248 -0.1560
  223SOD    SOD22351   4.812   0.808   4.230 -0.3400 -0.4472 -0.7776
  224SOD    SOD22352   6.516   2.479  15.310  0.4096  0.3484 -0.1700
  225SOD    SOD22353   3.478   0.314   4.172  0.0030  0.1381  0.3019
  226SOD    SOD22354   0.509   5.359  12.002  0.3235  0.1269 -0.1559
  227SOD    SOD22355   3.832   4.809   4.426  0.3117  0.3966  0.0712
  228SOD    SOD22356   1.403   3.770  12.957  0.0418  0.2076 -0.4104
  229SOD    SOD22357   4.972   2.134  12.513 -0.3797 -0.3849  0.5448
  230SOD    SOD22358   1.871   0.918  15.885  0.1724 -0.5453 -0.2493
  231SOD    SOD22359   4.625   2.342  14.811  0.0327 -0.1925 -0.5750
  232SOD    SOD22360   2.369   1.608  11.949  0.0826 -0.2618  0.7676
  233SOD    SOD22361   5.419   2.050   0.480 -0.0632 -0.1236  0.2454
  234SOD    SOD22362   1.138   1.922   3.477  0.0934 -0.0347  0.0011
  235SOD    SOD22363   3.987   0.964   4.326 -0.8078 -0.5870  0.0712
  236SOD    SOD22364   1.434   3.447  11.397 -0.1285 -0.3899  0.1500
  237SOD    SOD22365   5.796   6.602  10.839  0.0781  0.2796  0.3089
  238SOD    SOD22366   2.456   4.306   5.454  0.5073  0.2294 -0.0959
  239SOD    SOD22367   4.120   3.208  13.834 -0.1277  0.1091  0.3751
  240SOD    SOD22368   5.083   5.393  14.154 -0.6076  0.1823 -0.1272
  241SOD    SOD22369   6.270   3.176  11.268 -0.2790 -0.3762  0.3378
  242SOD    SOD22370   4.422   2.668  11.617  0.0617  0.1781 -0.2441
  243SOD    SOD22371   0.212   2.280   5.786  0.2782 -0.2022  0.2296
  244SOD    SOD22372   1.980   1.573   6.052 -0.4068  0.1010  0.1202
  245SOD    SOD22373   1.375   6.059  12.995 -0.3777 -0.3052  0.0575
  246SOD    SOD22374   5.430   5.997  11.234  0.1751 -0.1777 -0.2096
  247SOD    SOD22375   3.449   6.640  14.712  0.2829  0.3801 -0.2633
  248SOD    SOD22376   3.813   6.140  10.664  0.2777 -0.1202  0.0636
  249SOD    SOD22377   2.189   3.209  11.643 -0.2929 -0.0951  0.0837
  250SOD    SOD22378   0.084   6.730   1.741  0.0836 -0.2392  0.0196
  251SOD    SOD22379   3.308   4.926   2.949 -0.6081  0.6964  0.2835
  252SOD    SOD22380   5.522   0.856   1.085 -0.1806 -0.1877 -0.0871
  253SOD    SOD22381   3.530   5.466   6.071  0.2230  0.4532 -0.4563
  254SOD    SOD22382   6.699   4.564   0.812 -0.5182 -0.4511  0.0248
  255SOD    SOD22383   2.040   4.418  10.445  0.0911 -0.2715  0.2146
  256SOD    SOD22384   4.560   4.791   6.319 -0.1439  0.2744 -0.4881
  257SOD    SOD22385   1.207   4.586  13.620  0.0089 -0.2986  0.2498
  258SOD    SOD22386   1.685   5.410  14.727 -0.1137  0.2909  0.0057
  259SOD    SOD22387   2.492   1.991   3.297 -0.3683  0.1842 -0.3935
  260SOD    SOD22388   0.385   0.086   5.228 -0.1173 -0.1176 -0.3690
  261SOD    SOD22389   4.286   5.607   1.877  0.2716  0.2952  0.1277
  262SOD    SOD22390   3.308   5.430  13.438 -0.1166 -0.2431 -0.2040
  263SOD    SOD22391   4.393   5.379   2.949  0.5499 -0.5501 -0.0905
  264SOD    SOD22392   3.912   2.248   6.207 -0.0117 -0.2296 -0.2784
  265SOD    SOD22393   3.827   4.089   2.448 -0.1121  0.1849 -0.2831
  266CLA    CLA22394   1.327   5.425   0.787 -0.0761 -0.3712  0.0737
  267CLA    CLA22395   1.391   4.779  14.364  0.2162  0.0738 -0.0070
  268CLA    CLA22396   1.589   1.654  14.234  0.0016 -0.4191  0.1046
  269CLA    CLA22397   1.973   4.325  16.760 -0.1955 -0.6198  0.2654
  270CLA    CLA22398   5.587   2.024  13.241  0.1635  0.0892  0.1154
  271CLA    CLA22399   4.189   5.725   4.209  0.0583  0.4500  0.3928
  272CLA    CLA22400   2.833   3.246  13.750 -0.0930 -0.1638  0.2928
  273CLA    CLA22401   2.669   1.868   0.179  0.1568 -0.4573 -0.7181
  274CLA    CLA22402   6.521   3.052   1.957 -0.1969 -0.0226  0.2462
  275CLA    CLA22403   5.022   1.835   1.502  0.3729  0.2732  0.0718
  276CLA    CLA22404   3.656   3.832  13.041  0.1906  0.1470 -0.2405
  277CLA    CLA22405   5.697   6.157  13.066 -0.4257  0.0607  0.0869
  278CLA    CLA22406   3.017   5.666  14.362 -0.0421 -0.0591  0.0265
  279CLA    CLA22407   5.784   2.485   1.591 -0.0262 -0.2202  0.1215
  280CLA    CLA22408   6.354   1.775  16.836 -0.2512 -0.0012 -0.1157
  281CLA    CLA22409   2.302   1.351   0.426  0.0503  0.3340 -0.2495
  282CLA    CLA22410   6.416   3.352  15.458 -0.0323  0.3792  0.0323
  283CLA    CLA22411   5.422   3.965  14.981  0.2501  0.1620 -0.6781
  284CLA    CLA22412   1.501   0.300   1.029 -0.4212  0.1704  0.0743
  285CLA    CLA22413   1.992   3.505  14.330  0.1101 -0.0168  0.1638
  286CLA    CLA22414   2.508   0.334   5.981  0.5351 -0.3596  0.2856
  287CLA    CLA22415   1.611   5.826   1.914 -0.3360 -0.5289 -0.6609
  288CLA    CLA22416   6.639   6.465  16.394  0.1956  0.3272 -0.8024
  289CLA    CLA22417   2.830   2.033  16.340  0.4217  0.6264  0.1799
  290CLA    CLA22418   6.649   5.131   4.996  0.6116 -0.5608 -0.6686
  291CLA    CLA22419   2.533   4.419  15.080  0.1212 -0.4025 -0.2764
  292CLA    CLA22420   1.191   2.224   0.979 -0.0209 -0.2747 -0.1400
  293CLA    CLA22421   2.584   2.418  16.236 -0.1409  0.2292 -0.0577
  294CLA    CLA22422   2.406   0.318   1.978  0.4300  0.4194 -0.2193
  295CLA    CLA22423   5.998   0.830  16.885 -0.3711  0.2000  0.3487
  296CLA    CLA22424   3.985   5.429   4.956  0.4666  0.0287 -0.3469
  297CLA    CLA22425   1.755   0.479  13.254  0.5287 -0.1738  0.4638
  298CLA    CLA22426   1.806   1.943   5.337  0.1058 -0.1020 -0.1636
  299CLA    CLA22427   6.287   2.273  15.694  0.3636  0.2833 -0.0428
  300CLA    CLA22428   1.942   2.208  11.595  0.4246  0.1062  0.0629
  301CLA    CLA22429   4.347   6.767   1.153 -0.0577 -0.2515 -0.0075
  302CLA    CLA22430   3.657   2.417   4.693  0.1634  0.0940  0.3660
  303CLA    CLA22431   5.669   4.827  15.769  0.1371 -0.2782 -0.3733
  304CLA    CLA22432   1.017   0.267   2.580  0.1796 -0.1365 -0.3347
  305CLA    CLA22433   6.713   3.020   2.867 -0.4436 -0.1409 -0.3228
  306CLA    CLA22434   0.643   5.227  12.184  0.4335 -0.2142 -0.1632
  307CLA    CLA22435   3.604   0.505   4.300 -0.1032  0.1408  0.1507
  308CLA    CLA22436   5.658   0.460   1.710  0.1197  0.1857  0.2918
  309CLA    CLA22437   3.101   5.923   1.935 -0.7025  0.2253  0.3388
  310CLA    CLA22438   2.401   4.035   3.265 -0.1480  0.1687 -0.0764
  311CLA    CLA22439   0.983   6.269  14.532 -0.2189  0.1270 -0.1593
  312CLA    CLA22440   0.399   2.268   0.030 -0.2146  0.3091  0.1285
  313CLA    CLA22441   4.538   5.796  13.205 -0.2096 -0.4496 -0.0261
  314CLA    CLA22442   4.629   1.916  14.205 -0.1495  0.1678  0.2616
  315CLA    CLA22443   2.605   1.275   3.476  0.0732  0.1748 -0.3974
  316CLA    CLA22444   3.816   3.091  14.240 -0.1573 -0.2329  0.2723
  317CLA    CLA22445   0.775   4.337  13.856 -0.4384 -0.2233  0.0260
  318CLA    CLA22446   3.189   4.508  12.768  0.1775 -0.3076  0.0313
  319TIP3   OH222447   5.964   0.683   0.610  0.2913 -0.1060 -0.0958
  319TIP3    H122448   5.943   0.621   0.680  0.9849 -0.6428 -0.3501
  319TIP3    H222449   6.059   0.675   0.599 -0.0294 -1.6749 -2.5577
  320TIP3   OH222450   2.438   6.688   0.931 -0.0362 -0.1272 -0.0795
  320TIP3    H122451   2.376   6.625   0.894  0.7109  0.1833 -1.9298
  320TIP3    H222452   2.520   6.673   0.883  0.0468  2.5169 -0.9107
  321TIP3   OH222453   1.913   1.819   1.581 -0.0199 -0.0128 -0.5416
  321TIP3    H122454   1.863   1.777   1.510 -0.7568 -0.6885  0.3550
  321TIP3    H222455   2.005   1.808   1.554 -0.2444 -1.1227 -0.9378
  322TIP3   OH222456   4.479   3.759  11.724 -0.4302 -0.3507 -0.0263
  322TIP3    H122457   4.569   3.775  11.695  0.3222 -2.0704  1.1799
  322TIP3    H222458   4.465   3.665  11.708 -1.8754 -0.1889  0.1723
  323TIP3   OH222459   1.033   3.773  11.459 -1.0801 -0.1829  0.4844
  323TIP3    H122460   1.018   3.862  11.428 -1.9379  0.3430  2.2894
  323TIP3    H222461   0.981   3.718  11.401 -0.6296  0.4756 -0.5779
  324TIP3   OH222462   1.500   5.316   6.499 -0.1308 -0.5151  0.4315
  324TIP3    H122463   1.410   5.349   6.506 -0.0764 -0.3879  0.5122
  324TIP3    H222464   1.490   5.233   6.452 -0.2168 -0.1776 -0.1569
  325TIP3   OH222465   2.332   4.504   5.030 -0.3611  0.1682 -0.0748
  325TIP3    H122466   2.384   4.437   4.986  0.1458  0.0376  0.6967
  325TIP3    H222467   2.339   4.581   4.973  0.8861  0.2268  0.1345
  326TIP3   OH222468   1.681   1.111   2.167 -0.2125  0.6270 -0.2453
  326TIP3    H122469   1.697   1.067   2.084 -0.9116 -0.4557  0.1597
  326TIP3    H222470   1.661   1.201   2.144  2.1064  0.9856 -1.0471
  327TIP3   OH222471   4.737   4.398   3.275 -0.1242  0.7191 -0.0305
  327TIP3    H122472   4.759   4.360   3.190  3.3452 -0.3614  1.1906
  327TIP3    H222473   4.727   4.323   3.333  1.6212  1.4562  1.3089
  328TIP3   OH222474   6.177   1.005   6.485  0.4196 -0.2992 -0.9909
  328TIP3    H122475   6.246   1.001   6.551  0.7754  0.5737 -1.3030
  328TIP3    H222476   6.116   1.071   6.516  0.0921 -0.5548 -1.0762
  329TIP3   OH222477   5.458   6.562   4.015  0.0780 -0.6877 -0.8603
  329TIP3    H122478   5.547   6.529   4.001  1.8410  3.3540 -0.7408
  329TIP3    H222479   5.430   6.590   3.928  0.3827  1.0654 -0.4341
  330TIP3   OH222480   1.942   6.719  11.928  0.3616  0.1227 -0.2059
  330TIP3    H122481   1.875   6.650  11.933  0.2515  0.3074  1.0745
  330TIP3    H222482   1.953   6.734  11.834  0.4510 -1.7003 -0.5292
  331TIP3   OH222483   4.905   3.331   3.186 -0.1899 -0.2773  0.3374
  331TIP3    H122484   4.928   3.422   3.171  0.0530 -0.1591  1.3345
  331TIP3    H222485   4.959   3.282   3.123 -0.3616  0.2596 -0.2369
  332TIP3   OH222486   0.846   4.594  12.628  0.7768 -0.3852  0.3253
  332TIP3    H122487   0.751   4.592  12.643  0.4795 -1.6325 -1.4328
  332TIP3    H222488   0.870   4.503  12.613  1.7097  0.1879 -2.1424
  333TIP3   OH222489   3.153   3.363  16.207  0.1233 -0.0249 -0.1770
  333TIP3    H122490   3.079   3.345  16.149 -0.0586  0.3800 -0.0723
  333TIP3    H222491   3.220   3.402  16.151  0.8485 -1.7634 -0.5776
  334TIP3   OH222492   5.688   1.115  12.980 -0.2476  0.1052  0.2697
  334TIP3    H122493   5.727   1.184  13.033 -0.4929  2.0145 -1.8690
  334TIP3    H222494   5.733   1.121  12.896 -1.6464 -0.9971 -0.6144
  335TIP3   OH222495   4.103   4.040  12.988 -0.1028 -0.6142 -0.1239
  335TIP3    H122496   4.015   4.041  12.951 -0.4838 -3.5531  0.4330
  335TIP3    H222497   4.161   4.058  12.915 -0.9633 -3.8278 -1.7875
  336TIP3   OH222498   0.976   2.196   2.260 -0.0468  0.3043 -0.8367
  336TIP3    H122499   1.038   2.190   2.188 -1.2267  0.7672 -1.9254
  336TIP3    H222500   0.951   2.105   2.278  1.2839  0.0672 -0.0459
  337TIP3   OH222501   0.325   0.708  13.614 -0.0023 -0.0922 -0.4806
  337TIP3    H122502   0.348   0.676  13.527  0.3155  0.0477 -0.4491
  337TIP3    H222503   0.368   0.647  13.674 -0.5602 -0.4339 -0.4172
  338TIP3   OH222504   5.761   4.453   5.872 -0.3992 -0.4695 -0.3375
  338TIP3    H122505   5.733   4.471   5.962 -2.3137 -1.1912 -0.7423
  338TIP3    H222506   5.703   4.384   5.842  2.3381 -2.6368 -1.0836
  339TIP3   OH222507   3.160   1.973  15.101  0.3263 -0.1242  0.1919
  339TIP3    H122508   3.065   1.979  15.110  0.1937 -2.1107  0.5844
  339TIP3    H222509   3.195   2.026  15.172 -0.4851  0.3753  0.2265
  340TIP3   OH222510   5.823   5.588  14.175  0.1958 -0.2547 -0.4584
  340TIP3    H122511   5.806   5.559  14.264 -0.9959  1.8592  0.0723
  340TIP3    H222512   5.757   5.542  14.122  0.1616 -0.6514 -0.0769
  341TIP3   OH222513   2.684   3.712  11.551 -0.0819  0.1305 -0.4040
  341TIP3    H122514   2.734   3.793  11.545 -0.7685  0.6164  0.2536
  341TIP3    H222515   2.741   3.652  11.599  1.2934 -0.4989 -2.6786
  342TIP3   OH222516   2.901   3.654   0.835 -0.5100 -0.2526  0.3603
  342TIP3    H122517   2.831   3.707   0.797  0.1876  1.1474  0.9554
  342TIP3    H222518   2.978   3.710   0.830  0.7175 -1.9776 -0.8090
  343TIP3   OH222519   1.095   1.449  14.839  0.1733  0.0441  0.6241
  343TIP3    H122520   1.134   1.392  14.905  1.3730 -0.4984 -0.4951
  343TIP3    H222521   1.147   1.433  14.760 -0.6899  1.2739 -0.2372
  344TIP3   OH222522   5.447   2.969  14.431  0.0720  0.1755 -0.0953
  344TIP3    H122523   5.525   2.950  14.380  0.0006  1.6473 -0.8192
  344TIP3    H222524   5.397   3.029  14.376 -1.3609 -0.3857  0.5465
  345TIP3   OH222525   1.510   6.653   5.868  0.5723 -0.0926  0.6588
  345TIP3    H122526   1.595   6.628   5.830 -0.3838 -0.1757 -1.5489
  345TIP3    H222527   1.511   6.614   5.955  2.2441 -1.2870  0.1606
  346TIP3   OH222528   3.013   0.197  16.799 -0.5164 -0.1128 -0.0306
  346TIP3    H122529   3.074   0.259  16.758  0.2709 -1.1962 -0.5513
  346TIP3    H222530   2.942   0.252  16.834  1.1990  1.2904  1.4372
  347TIP3   OH222531   5.279   5.128  13.556 -0.7264  0.5353 -0.4930
  347TIP3    H122532   5.343   5.165  13.494 -0.5337  1.6361  0.3336
  347TIP3    H222533   5.299   5.034  13.557 -1.0169  0.4095 -2.4063
  348TIP3   OH222534   3.832   5.788   5.230 -0.6167 -0.2023  0.3559
  348TIP3    H122535   3.834   5.753   5.141  0.6102  2.8862 -1.0015
  348TIP3    H222536   3.924   5.791   5.257 -0.9864 -1.3293  1.8998
  349TIP3   OH222537   6.547   6.251  14.540 -0.2456 -0.0656 -0.5410
  349TIP3    H122538   6.464   6.296  14.522 -1.2155 -1.2715  0.6471
  349TIP3    H222539   6.567   6.274  14.631  1.3857  1.1637 -1.1715
  350TIP3   OH222540   0.915   3.032   1.920  0.0369  0.2181 -0.4214
  350TIP3    H122541   0.944   3.124   1.917  0.5175  0.1387  1.0075
  350TIP3    H222542   0.939   2.996   1.834 -0.8729  1.6182 -1.3109
  351TIP3   OH222543   5.465   4.967   4.989  0.3131 -0.1783 -0.4303
  351TIP3    H122544   5.474   4.876   4.960 -1.0948 -0.1238 -1.1321
  351TIP3    H222545   5.550   4.988   5.026  1.0878 -1.3810 -1.4130
  352TIP3   OH222546   1.271   2.558  13.399  0.1473 -0.2371  0.4582
  352TIP3    H122547   1.316   2.511  13.329  0.3095 -0.0353  0.4251
  352TIP3    H222548   1.298   2.650  13.387 -1.3590  0.1353 -0.4282
  353TIP3   OH222549   0.748   4.000   3.673  0.0587 -1.3439  0.3123
  353TIP3    H122550   0.769   3.951   3.593  0.4726 -0.8128  0.0853
  353TIP3    H222551   0.653   4.008   3.672  0.1015 -0.7757 -0.4796
  354TIP3   OH222552   4.763   0.286  16.602 -0.3436  0.1951  0.2829
  354TIP3    H122553   4.807   0.206  16.575 -1.7265 -0.5123 -0.0005
  354TIP3    H222554   4.815   0.356  16.565  1.0497 -0.5521  0.7618
  355TIP3   OH222555   2.106   1.174  16.875 -0.1944 -0.5025  0.8163
  355TIP3    H122556   2.188   1.144  16.914  1.0967  2.0812  0.2878
  355TIP3    H222557   2.097   1.265  16.905 -2.5734 -0.5248  0.3501
  356TIP3   OH222558   5.962   2.288  15.707 -0.3590  0.2251 -0.0355
  356TIP3    H122559   6.057   2.295  15.717 -0.1263 -1.8515 -0.3160
  356TIP3    H222560   5.928   2.293  15.796  0.1154 -0.1263  0.1709
  357TIP3   OH222561   4.647   2.700  11.608 -0.1115  0.6118  0.4217
  357TIP3    H122562   4.726   2.646  11.611 -1.0232 -0.7883 -0.0038
  357TIP3    H222563   4.655   2.749  11.526  0.2617  0.3933  0.3252
  358TIP3   OH222564   5.610   0.483   5.505 -0.2330 -0.1126  0.6440
  358TIP3    H122565   5.608   0.529   5.420 -0.8360 -1.5745 -0.1737
  358TIP3    H222566   5.517   0.470   5.526 -0.0720 -0.6254  1.0391
  359TIP3   OH222567   1.259   4.440  14.053 -0.8363  0.2220  0.2239
  359TIP3    H122568   1.258   4.374  13.984 -0.2649 -0.2965  0.6977
  359TIP3    H222569   1.275   4.391  14.133  0.3117  1.0050  0.5027
  360TIP3   OH222570   3.128   0.878  12.330 -0.4902 -0.0841 -0.1664
  360TIP3    H122571   3.043   0.835  12.318 -1.2082  1.7603 -2.4710
  360TIP3    H222572   3.184   0.837  12.264  0.0472 -0.3682  0.4609
  361TIP3   OH222573   2.119   0.778   0.982 -0.2899  0.1250  0.0198
  361TIP3    H122574   2.152   0.814   0.899  0.6609 -0.7258  0.0159
  361TIP3    H222575   2.165   0.827   1.050 -0.1013 -0.0604  0.0274
  362TIP3   OH222576   4.525   0.405  11.294  0.4891  0.1523 -0.2874
  362TIP3    H122577   4.601   0.348  11.282  0.3256 -0.4705  1.4296
  362TIP3    H222578   4.561   0.486  11.330  0.4703  0.3056 -0.6114
  363TIP3   OH222579   2.659   0.706  13.176  0.0600 -0.5466  0.1027
  363TIP3    H122580   2.738   0.668  13.137 -0.1890 -0.4664 -0.4928
  363TIP3    H222581   2.593   0.637  13.168 -1.0135  0.6520 -2.9582
  364TIP3   OH222582   5.331   4.388  14.856 -0.5381  0.3056 -0.0029
  364TIP3    H122583   5.315   4.439  14.776 -0.0665  2.1725  1.0331
  364TIP3    H222584   5.281   4.434  14.924 -0.0849 -0.6154  0.9767
  365TIP3   OH222585   2.035   1.344  12.992 -0.0502 -0.4830  0.0778
  365TIP3    H122586   2.118   1.338  12.945  0.7614  1.1931  1.1695
  365TIP3    H222587   2.047   1.288  13.069  0.4257  0.4203  0.6786
  366TIP3   OH222588   2.669   3.695  13.526  0.0732  0.8302 -0.0313
  366TIP3    H122589   2.623   3.775  13.551 -2.7471 -0.2034 -1.5606
  366TIP3    H222590   2.697   3.710  13.436  1.3369  0.7869  0.3238
  367TIP3   OH222591   3.749   1.726  12.483  0.2363 -0.0805  0.0165
  367TIP3    H122592   3.724   1.774  12.562 -0.3397 -0.1006 -0.1503
  367TIP3    H222593   3.722   1.636  12.500  0.9516 -0.2747  0.1665
  368TIP3   OH222594   0.356   0.245   5.767  0.4809  0.4626  0.7313
  368TIP3    H122595   0.390   0.331   5.790 -0.6217  0.4740  2.4981
  368TIP3    H222596   0.285   0.263   5.706  1.8192  0.6032 -0.8488
  369TIP3   OH222597   1.989   1.859   3.327 -0.5014  0.0301 -0.3536
  369TIP3    H122598   1.987   1.821   3.414  0.1140 -0.4981 -0.5663
  369TIP3    H222599   1.901   1.897   3.315 -0.9034 -0.7461  0.1092
  370TIP3   OH222600   6.643   5.729  11.335 -0.0092 -0.2139 -0.0736
  370TIP3    H122601   6.568   5.730  11.275 -1.7854  1.2156  1.9589
  370TIP3    H222602   6.682   5.816  11.325  1.5038 -0.9971 -1.2039
  371TIP3   OH222603   5.576   4.666  11.979  0.0367 -0.0046 -0.0800
  371TIP3    H122604   5.579   4.637  12.071 -0.5937  1.0794  0.3018
  371TIP3    H222605   5.483   4.676  11.960  0.1187 -0.9626 -1.1039
  372TIP3   OH222606   0.707   2.591   3.877  0.3648  0.3272 -0.0167
  372TIP3    H122607   0.644   2.590   3.805 -0.2238 -1.9342  0.4555
  372TIP3    H222608   0.787   2.628   3.839 -0.5104  0.9632 -1.2878
  373TIP3   OH222609   4.724   2.893  12.611  0.0697  0.4002 -0.2327
  373TIP3    H122610   4.754   2.904  12.701  2.8975 -1.0027 -0.8887
  373TIP3    H222611   4.668   2.815  12.614  1.1537 -0.3865  0.1616
  374TIP3   OH222612   2.843   1.798   2.472 -0.0492 -0.0107 -0.2445
  374TIP3    H122613   2.835   1.837   2.385  1.3941  0.5987 -0.1255
  374TIP3    H222614   2.824   1.870   2.533 -1.4480 -0.5281 -0.0226
  375TIP3   OH222615   0.199   0.536   2.822  0.5688 -0.5882  0.3507
  375TIP3    H122616   0.223   0.450   2.855 -0.6981 -1.2629 -0.4161
  375TIP3    H222617   0.126   0.564   2.878 -1.0240 -1.3705 -1.2299
  376TIP3   OH222618   3.484   6.177   5.736 -0.3754  0.4808  0.7679
  376TIP3    H122619   3.555   6.183   5.671  0.3163  1.9935  1.6101
  376TIP3    H222620   3.426   6.109   5.702  1.1243 -0.3165 -0.2959
  377TIP3   OH222621   6.398   1.156   5.896 -0.0858  0.5581 -0.5471
  377TIP3    H122622   6.392   1.062   5.911 -4.0589  0.7472 -0.0557
  377TIP3    H222623   6.429   1.192   5.979  2.1765 -0.2396 -0.9538
  378TIP3   OH222624   5.722   2.998   6.148 -0.3355  0.6404  0.4361
  378TIP3    H122625   5.754   3.081   6.182  1.1046  0.6448 -0.7735
  378TIP3    H222626   5.801   2.955   6.115 -1.2960 -0.4487 -0.5196
  379TIP3   OH222627   0.905   3.917  14.769 -0.8143  0.0374  0.5670
  379TIP3    H122628   0.872   3.843  14.819  2.0582 -0.3993  2.0715
  379TIP3    H222629   0.945   3.877  14.691 -2.5341  0.4244 -0.5561
  380TIP3   OH222630   3.802   3.453   6.159 -0.1330 -0.1456  0.0364
  380TIP3    H122631   3.723   3.452   6.213  0.9743 -2.1525  1.7320
  380TIP3    H222632   3.853   3.526   6.192 -0.0723 -0.5209  0.7732
  381TIP3   OH222633   0.387   0.875  11.110  0.4594  0.3443 -0.5403
  381TIP3    H122634   0.333   0.951  11.133  0.2857 -0.0664  0.4683
  381TIP3    H222635   0.477   0.906  11.118  0.3893  0.4482 -0.1356
  382TIP3   OH222636   6.399   6.558  12.991 -0.2762  0.5007 -0.2420
  382TIP3    H122637   6.373   6.564  12.899 -0.4866  0.5304 -0.1819
  382TIP3    H222638   6.319   6.532  13.037  0.2038 -1.1152 -0.2760
  383TIP3   OH222639   3.324   3.935  12.317  0.3379  0.4192 -0.3281
  383TIP3    H122640   3.289   3.937  12.228  0.6520 -0.7015 -0.4954
  383TIP3    H222641   3.386   4.007  12.321  0.1509  0.6199 -0.9486
  384TIP3   OH222642   0.113   2.548   0.117  0.5075 -0.0474 -0.2168
  384TIP3    H122643   0.205   2.559   0.139  0.9438 -0.4961 -1.7506
  384TIP3    H222644   0.098   2.453   0.122  0.1552  0.0126 -0.0977
  385TIP3   OH222645   0.850   6.751  14.548  0.5707  0.5469  0.5254
  385TIP3    H122646   0.920   6.758  14.483 -0.1981  0.5274 -0.3218
  385TIP3    H222647   0.782   6.701  14.504  1.0049 -1.6858  2.2081
  386TIP3   OH222648   6.726   1.723  11.353  0.2452 -0.1018 -0.4722
  386TIP3    H122649   6.765   1.636  11.355 -1.4801 -0.9102  1.3402
  386TIP3    H222650   6.798   1.783  11.374  2.0103 -0.7276 -3.9245
  387TIP3   OH222651   2.515   2.852   1.012 -0.0521 -0.0975  0.6189
  387TIP3    H122652   2.589   2.791   1.013  1.9864  2.1839  0.5042
  387TIP3    H222653   2.439   2.798   0.991  1.6193 -2.5370  0.4146
  388TIP3   OH222654   6.293   3.159  13.864 -0.4194  0.2015 -0.5435
  388TIP3    H122655   6.386   3.145  13.845 -0.8487 -0.5387 -2.2549
  388TIP3    H222656   6.255   3.071  13.858 -1.3995  0.6422 -0.8181
  389TIP3   OH222657   4.935   0.143   1.479  0.8432 -0.4630  1.2285
  389TIP3    H122658   5.003   0.114   1.539  0.6899  0.0121  1.6374
  389TIP3    H222659   4.867   0.180   1.536 -0.2107 -1.8201  0.9051
  390TIP3   OH222660   4.893   3.340   5.547 -0.0602 -0.3961 -0.4435
  390TIP3    H122661   4.961   3.361   5.611 -1.3399 -2.6157  1.8249
  390TIP3    H222662   4.819   3.396   5.572 -0.5013 -1.1276 -0.1048
  391TIP3   OH222663   4.589   6.294   4.051  0.2846  0.0169  0.2412
  391TIP3    H122664   4.575   6.365   4.114  1.9011  0.2621  0.3863
  391TIP3    H222665   4.616   6.338   3.970  2.6473 -0.3938  0.7131
  392TIP3   OH222666   6.825   2.958   5.388 -0.3503 -0.3500  0.3188
  392TIP3    H122667   6.763   3.013   5.340  0.9512  0.8384 -0.0517
  392TIP3    H222668   6.784   2.946   5.474 -0.1582  2.2494  0.8563
  393TIP3   OH222669   5.259   1.471   5.186 -0.5329  0.4509  0.2776
  393TIP3    H122670   5.298   1.555   5.209  2.8277 -0.9687  0.4791
  393TIP3    H222671   5.188   1.458   5.249  0.2385  2.2141  1.5741
  394TIP3   OH222672   3.953   6.325  10.662 -0.3397  0.3208 -0.2112
  394TIP3    H122673   3.956   6.409  10.616 -0.1714  1.2481  1.4361
  394TIP3    H222674   4.045   6.304  10.680 -0.4282  0.1718  0.0701
  395TIP3   OH222675   0.617   4.596  16.431 -0.2700 -0.5946 -0.4089
  395TIP3    H122676   0.595   4.514  16.475  0.7237 -0.1504  0.9939
  395TIP3    H222677   0.589   4.664  16.492 -1.4866  0.1556 -1.7479
  396TIP3   OH222678   4.432   3.707   3.927  0.1433 -0.3728  0.1989
  396TIP3    H122679   4.349   3.755   3.918  1.1652  1.5873  0.6672
  396TIP3    H222680   4.458   3.689   3.837 -1.0166 -1.4977  0.0512
  397TIP3   OH222681   4.567   3.481   5.304  0.2499  0.2559 -0.2027
  397TIP3    H122682   4.648   3.512   5.343 -0.1948  0.5843  0.4842
  397TIP3    H222683   4.499   3.534   5.345 -0.3886 -0.6212 -0.0863
  398TIP3   OH222684   0.132   0.175  16.908 -0.2543 -0.0772 -0.2640
  398TIP3    H122685   0.062   0.168  16.973  2.6287  2.1753  3.4939
  398TIP3    H222686   0.182   0.093  16.918 -1.4188 -1.0654 -1.9621
  399TIP3   OH222687   4.804   4.129  16.431 -0.5003  0.5465 -0.3832
  399TIP3    H122688   4.826   4.082  16.511  1.5655 -1.0499 -1.7469
  399TIP3    H222689   4.880   4.185  16.414 -0.7650  0.6290 -1.3855
  400TIP3   OH222690   2.283   5.980   3.923 -0.2072  0.5100 -0.6553
  400TIP3    H122691   2.354   5.916   3.913 -1.6076 -1.2503 -0.0605
  400TIP3    H222692   2.295   6.042   3.852  0.2562 -1.4277 -2.3540
  401TIP3   OH222693   1.509   1.946   5.445 -0.3267  0.1793 -0.0834
  401TIP3    H122694   1.527   1.968   5.536  2.3726 -2.5517  0.2022
  401TIP3    H222695   1.593   1.953   5.401 -1.3067  0.1482 -2.0874
  402TIP3   OH222696   4.566   6.307  16.673 -0.4039  0.1244  0.3633
  402TIP3    H122697   4.541   6.216  16.688 -0.7028  0.0744 -0.3752
  402TIP3    H222698   4.647   6.318  16.723 -1.3565  0.0138  1.9915
  403TIP3   OH222699   3.409   6.682  13.050 -0.1524  0.3866  0.2181
  403TIP3    H122700   3.457   6.720  12.977 -0.0830  0.4922  0.3180
  403TIP3    H222701   3.374   6.599  13.016 -0.0046  0.3691  0.1089
  404TIP3   OH222702   3.512   3.098  15.210  0.3133 -0.1736 -0.4763
  404TIP3    H122703   3.562   3.117  15.290 -0.4303  0.9764 -0.2623
  404TIP3    H222704   3.569   3.127  15.139 -0.4510  2.2591 -0.1888
  405TIP3   OH222705   5.124   3.306   1.334  0.1088  0.5688  0.1313
  405TIP3    H122706   5.219   3.313   1.340  0.1029  0.4989  0.3125
  405TIP3    H222707   5.103   3.337   1.246  0.4388 -0.8153 -0.4615
  406TIP3   OH222708   6.089   5.929  12.639 -0.0696 -0.0431  0.0160
  406TIP3    H122709   6.037   5.930  12.719  0.0993 -0.1804  0.1272
  406TIP3    H222710   6.146   5.852  12.648  0.1272  0.0859 -0.1235
  407TIP3   OH222711   3.476   5.859  16.137  0.1988 -0.3219 -0.3090
  407TIP3    H122712   3.510   5.779  16.096  1.3076 -0.3092  0.5415
  407TIP3    H222713   3.526   5.930  16.098 -0.3912 -0.0833 -0.6478
  408TIP3   OH222714   4.193   6.004   0.265  0.2638  0.0941 -0.4093
  408TIP3    H122715   4.222   5.921   0.303  1.3619  0.6293 -0.0460
  408TIP3    H222716   4.207   5.992   0.171  0.7263 -0.0215 -0.3309
  409TIP3   OH222717   3.375   1.022  15.871 -0.1514 -0.0678 -1.0107
  409TIP3    H122718   3.303   0.986  15.819  0.1146  0.3368 -1.6807
  409TIP3    H222719   3.356   0.997  15.961 -0.5618 -0.8963 -1.3251
  410TIP3   OH222720   5.475   0.213  12.335 -0.0046 -0.5886  0.0443
  410TIP3    H122721   5.489   0.158  12.258  2.9111 -2.7361  1.9075
  410TIP3    H222722   5.472   0.302  12.300 -0.6662 -1.5864 -2.6991
  411TIP3   OH222723   6.777   0.800  14.374 -0.3139 -0.0161  0.2573
  411TIP3    H122724   6.867   0.805  14.406 -0.2288  0.4352 -0.0436
  411TIP3    H222725   6.762   0.884  14.331 -0.8329 -0.1433  0.1794
  412TIP3   OH222726   1.233   1.313   2.367 -0.1016  0.1357 -0.0142
  412TIP3    H122727   1.204   1.255   2.436  0.0002  0.9157  0.7046
  412TIP3    H222728   1.317   1.347   2.397  0.8940 -0.9985 -1.4191
  413TIP3   OH222729   0.818   6.020  16.624  0.6023 -0.5393  0.5935
  413TIP3    H122730   0.794   5.950  16.685  1.8768 -1.7731 -0.2698
  413TIP3    H222731   0.772   5.999  16.543 -0.2757  0.5377  0.7840
  414TIP3   OH222732   3.553   1.168  13.128 -0.1058  0.3299 -0.4371
  414TIP3    H122733   3.605   1.138  13.203 -0.0449 -2.1283 -1.3840
  414TIP3    H222734   3.462   1.155  13.155 -0.1014  0.0704 -0.5482
  415TIP3   OH222735   2.262   2.786  16.397  0.1796  0.5706  0.0955
  415TIP3    H122736   2.168   2.801  16.386  0.3598  1.0904 -0.8594
  415TIP3    H222737   2.279   2.705  16.350  0.3366  0.9051 -0.4403
  416TIP3   OH222738   1.264   1.816   5.965  0.4650  0.4719  0.4838
  416TIP3    H122739   1.295   1.736   6.008  0.5235 -0.1160 -0.5985
  416TIP3    H222740   1.204   1.856   6.028 -0.8257 -1.2775  0.4369
  417TIP3   OH222741   6.259   4.977   6.489  0.8575 -0.3016 -0.6317
  417TIP3    H122742   6.228   5.049   6.543  0.4871 -2.3436  2.0603
  417TIP3    H222743   6.187   4.960   6.428  0.8362  1.3493 -1.1161
  418TIP3   OH222744   4.759   0.872  17.113 -0.1641  0.3813 -0.3439
  418TIP3    H122745   4.804   0.861  17.029  1.3294  0.5676  0.4108
  418TIP3    H222746   4.823   0.913  17.170 -1.6877  1.8062  0.4360
  419TIP3   OH222747   6.509   3.232  13.396  0.3501  0.4658 -0.9728
  419TIP3    H122748   6.541   3.147  13.427 -0.5315  0.0336 -1.1883
  419TIP3    H222749   6.442   3.257  13.460 -0.2954  0.3735 -1.5991
  420TIP3   OH222750   4.040   5.885  14.039 -0.2689 -0.4315  0.2086
  420TIP3    H122751   4.075   5.810  14.089  0.5592  0.0809  0.4050
  420TIP3    H222752   4.114   5.917  13.989 -0.5667  0.3915  0.2866
  421TIP3   OH222753   6.513   4.192   6.664  0.0511 -0.0517 -0.4944
  421TIP3    H122754   6.544   4.257   6.727  1.4515 -0.3637 -0.8255
  421TIP3    H222755   6.529   4.108   6.706  0.6958 -0.2510 -1.1216
  422TIP3   OH222756   2.834   1.184  16.751  0.1401  0.1000  0.0689
  422TIP3    H122757   2.882   1.240  16.690 -0.9632 -0.8894 -1.7871
  422TIP3    H222758   2.748   1.173  16.711 -0.7117 -0.4515  1.9229
  423TIP3   OH222759   4.771   1.265  11.774 -0.0390 -0.2548 -0.0766
  423TIP3    H122760   4.794   1.357  11.790 -1.5083  0.0281  0.6145
  423TIP3    H222761   4.732   1.265  11.686 -0.3704 -0.1383  0.0677
  424TIP3   OH222762   2.345   5.026  15.548  0.4126 -0.4326 -0.6351
  424TIP3    H122763   2.358   5.076  15.468  1.5090  0.8365  0.2760
  424TIP3    H222764   2.434   5.011  15.581 -0.0370  0.5328  1.1740
  425TIP3   OH222765   2.724   1.086   4.743 -0.1013 -0.1542  0.0295
  425TIP3    H122766   2.667   1.022   4.701 -0.1143 -0.3716  0.3752
  425TIP3    H222767   2.705   1.077   4.837  0.1210  0.1372  0.1034
  426TIP3   OH222768   4.853   4.134   3.443 -0.6206 -0.1394 -0.1645
  426TIP3    H122769   4.915   4.205   3.431  0.0131 -0.2561  2.0122
  426TIP3    H222770   4.896   4.058   3.403 -1.6824  0.7308 -3.3188
  427TIP3   OH222771   4.522   5.215   2.841  0.1379 -0.0810 -0.6375
  427TIP3    H122772   4.589   5.228   2.773  1.5997  0.9664  0.9166
  427TIP3    H222773   4.565   5.160   2.907 -0.5202  0.6173  0.3990
  428TIP3   OH222774   6.829   0.013  17.082  0.3985 -0.1706 -0.4168
  428TIP3    H122775   6.870  -0.046  17.146  1.4598 -1.2037 -1.9828
  428TIP3    H222776   6.750  -0.033  17.055  0.5554 -0.2760 -0.6961
  429TIP3   OH222777   6.443   1.703   4.224  0.0944  0.3840 -0.0467
  429TIP3    H122778   6.523   1.739   4.186 -0.1396 -0.3385 -1.2885
  429TIP3    H222779   6.468   1.617   4.257 -0.1021  0.2907 -0.1380
  430TIP3   OH222780   1.032   3.253   2.789 -0.8758  0.0312 -0.3127
  430TIP3    H122781   1.078   3.175   2.820  1.0928  1.5066  0.7318
  430TIP3    H222782   0.988   3.225   2.710  0.3632 -1.9763 -0.3687
  431TIP3   OH222783   0.273   4.864  15.453 -0.6572 -0.1457 -0.4215
  431TIP3    H122784   0.181   4.887  15.463 -0.9159 -0.6278 -1.5979
  431TIP3    H222785   0.285   4.849  15.359  0.9838  1.4507 -0.5490
  432TIP3   OH222786   2.692   2.205  10.579  0.6500 -0.1288 -0.1908
  432TIP3    H122787   2.764   2.226  10.520  1.4455 -2.0047  0.0263
  432TIP3    H222788   2.670   2.114  10.557 -1.1174  0.1361  0.3138
  433TIP3   OH222789   0.709   6.397   0.004  0.6742  0.4782  0.3304
  433TIP3    H122790   0.674   6.442   0.081 -1.7685 -1.3661  0.4371
  433TIP3    H222791   0.662   6.437  -0.070  2.0202  1.3186 -0.1022
  434TIP3   OH222792   3.760   1.792  13.864 -0.4261 -0.1456 -0.2158
  434TIP3    H122793   3.771   1.718  13.804 -0.3155 -0.5380  0.2811
  434TIP3    H222794   3.766   1.869  13.808 -1.2136 -0.5212 -0.8473
  435TIP3   OH222795   1.848   1.574  15.039 -0.2822 -0.3904  0.0006
  435TIP3    H122796   1.823   1.518  14.965 -1.7423 -1.1696  1.0253
  435TIP3    H222797   1.932   1.611  15.014 -1.6891  1.1575 -3.0383
  436TIP3   OH222798   1.424   1.545  14.681 -0.1574 -0.4289  0.4846
  436TIP3    H122799   1.485   1.597  14.732  0.3538 -0.7556  0.2074
  436TIP3    H222800   1.464   1.539  14.594 -0.3986 -0.9663  0.4080
  437TIP3   OH222801   2.953   4.048   2.644 -0.0736 -0.1582  0.1189
  437TIP3    H122802   2.973   4.066   2.736 -1.0860 -0.0656  0.3265
  437TIP3    H222803   2.859   4.061   2.636 -0.1848 -1.2923 -0.6802
  438TIP3   OH222804   1.480   2.856   2.086  0.4149 -0.2353 -0.4815
  438TIP3    H122805   1.548   2.808   2.038 -0.3591 -1.2908 -0.5649
  438TIP3    H222806   1.411   2.791   2.102  0.5741  0.1021  1.9594
  439TIP3   OH222807   2.613   1.410  15.080  0.0180  0.2027 -0.0137
  439TIP3    H122808   2.698   1.367  15.090  0.1725  0.1145 -1.4811
  439TIP3    H222809   2.555   1.363  15.139  1.0865  0.5764  1.3873
  440TIP3   OH222810   0.856   2.800   5.244 -0.0073  0.3389  0.4153
  440TIP3    H122811   0.833   2.725   5.300 -0.1363 -1.6032 -2.0516
  440TIP3    H222812   0.949   2.787   5.224 -0.6310 -0.8487 -2.2059
  441TIP3   OH222813   5.970   3.060  10.925 -0.0630  0.4232  0.2576
  441TIP3    H122814   6.023   3.136  10.899 -0.1319  0.5526  0.4857
  441TIP3    H222815   6.032   2.987  10.923 -0.1557  0.3641 -0.6097
  442TIP3   OH222816   4.116   3.014   0.957  0.2525  0.1818  0.0701
  442TIP3    H122817   4.106   2.919   0.961  0.9625  0.1484  1.7911
  442TIP3    H222818   4.200   3.028   0.913 -0.6066  0.1021 -1.7003
  443TIP3   OH222819   6.147   1.350  12.719 -0.3804 -0.1945  0.2261
  443TIP3    H122820   6.206   1.276  12.730 -1.3811 -0.9939  0.3957
  443TIP3    H222821   6.118   1.343  12.628 -4.9275 -3.5931  1.5356
  444TIP3   OH222822   4.204   2.466   5.414 -0.2358 -0.6086 -0.2148
  444TIP3    H122823   4.226   2.373   5.415 -0.8298 -0.7636 -0.7038
  444TIP3    H222824   4.280   2.509   5.452 -0.8953 -1.4840  2.2607
  445TIP3   OH222825   6.421   0.970  12.138  0.1608 -0.1083  0.0575
  445TIP3    H122826   6.513   0.973  12.163 -0.0448 -2.1050  1.2405
  445TIP3    H222827   6.410   0.887  12.092 -0.9548  0.3070 -0.4735
  446TIP3   OH222828   3.859   0.015   4.732 -0.3781 -0.5968 -0.3837
  446TIP3    H122829   3.939   0.044   4.775 -0.8095 -0.7038  0.5061
  446TIP3    H222830   3.809  -0.030   4.801 -1.2057 -0.5245 -0.9204
  447TIP3   OH222831   5.580   0.722  11.275  0.7101 -0.3711  0.4736
  447TIP3    H122832   5.576   0.727  11.179 -0.6570  0.3837  0.5388
  447TIP3    H222833   5.515   0.656  11.298  1.9162 -1.4758  0.8513
  448TIP3   OH222834   1.798   3.986   1.808  0.0050  0.0256  0.2823
  448TIP3    H122835   1.837   3.924   1.870 -1.2374 -0.0529  1.0205
  448TIP3    H222836   1.739   3.932   1.754  0.3640  0.2565 -0.3532
  449TIP3   OH222837   5.225   1.623  12.993  0.7445 -0.4716 -0.1803
  449TIP3    H122838   5.276   1.696  13.026  0.0372  0.1455 -0.4065
  449TIP3    H222839   5.289   1.562  12.957  1.3107  0.3274 -0.5463
  450TIP3   OH222840   0.929   4.187   0.720  0.4933 -0.0780  0.1014
  450TIP3    H122841   0.864   4.128   0.679  1.0360  0.2857 -1.3222
  450TIP3    H222842   1.003   4.186   0.660  1.1468  0.8283  0.8761
  451TIP3   OH222843   3.362   0.547   3.413  0.3314 -0.2429 -0.0642
  451TIP3    H122844   3.412   0.625   3.437 -0.3250  0.0229  0.4825
  451TIP3    H222845   3.294   0.579   3.354 -0.5524 -0.2229  0.9434
  452TIP3   OH222846   2.640   4.931  13.452 -0.0618 -0.2621 -0.5277
  452TIP3    H122847   2.552   4.964  13.470 -1.9130 -3.4421 -2.7113
  452TIP3    H222848   2.680   4.997  13.397 -1.0102  1.2595  0.5306
  453TIP3   OH222849   3.473   5.463   0.405  0.0976 -0.3019 -0.4658
  453TIP3    H122850   3.565   5.474   0.379  0.2680 -0.7804 -0.0738
  453TIP3    H222851   3.425   5.524   0.349  0.3444 -1.9020 -2.5448
  454TIP3   OH222852   0.022   0.131  16.239 -0.3291 -0.9250  0.3825
  454TIP3    H122853  -0.020   0.085  16.311  0.1510  0.2112  1.4288
  454TIP3    H222854   0.004   0.078  16.162 -0.2572 -2.5416  1.4449
  455TIP3   OH222855   5.310   0.176  15.547 -0.1728 -0.1047  0.3220
  455TIP3    H122856   5.243   0.114  15.577 -1.0546  0.8829  0.4431
  455TIP3    H222857   5.382   0.166  15.610 -0.0517 -1.4009  0.0062
  456TIP3   OH222858   5.995   1.927  16.399 -0.3186  0.0598 -0.1940
  456TIP3    H122859   6.071   1.892  16.446 -1.0721 -2.8632 -0.9229
  456TIP3    H222860   6.032   1.976  16.326  0.8394  1.4219  1.2655
  457TIP3   OH222861   4.513   3.930  12.567  0.2716  0.7566  0.7952
  457TIP3    H122862   4.518   3.941  12.662 -0.8594 -1.4514  1.1825
  457TIP3    H222863   4.423   3.954  12.545  0.4876  1.1209  0.2894
  458TIP3   OH222864   4.542   3.375  16.110  0.0743  0.1490  0.3878
  458TIP3    H122865   4.550   3.412  16.197  3.6733  0.6161 -0.0198
  458TIP3    H222866   4.485   3.436  16.063 -0.2159  1.0107  1.8086
  459TIP3   OH222867   1.961   1.754   4.604 -0.1638  0.2058  0.1765
  459TIP3    H122868   1.933   1.732   4.692  1.2684  0.9163  0.8339
  459TIP3    H222869   2.045   1.709   4.593 -0.7168 -0.5585 -1.1450
  460TIP3   OH222870   3.501   4.085  17.159  0.5592  0.2363 -0.0596
  460TIP3    H122871   3.557   4.163  17.156 -1.4908  1.7474 -1.7283
  460TIP3    H222872   3.544   4.027  17.223  3.6080  1.5527 -0.7398
  461TIP3   OH222873   4.895   3.480  14.613  0.2460 -0.2337 -0.8503
  461TIP3    H122874   4.815   3.506  14.567  0.2976 -0.5166 -1.1044
  461TIP3    H222875   4.948   3.560  14.616 -1.0737  0.6189  1.5334
  462TIP3   OH222876   5.776   5.714  11.833 -0.0935  0.1027 -0.5011
  462TIP3    H122877   5.725   5.710  11.914 -0.3550  0.2089 -0.6599
  462TIP3    H222878   5.787   5.622  11.807  0.2442  0.0532 -0.1884
  463TIP3   OH222879   6.402   0.216  10.930  0.6368  0.0589 -0.1059
  463TIP3    H122880   6.491   0.182  10.927  0.8126  0.3013  1.5786
  463TIP3    H222881   6.372   0.198  11.019  0.1585  2.8417  0.3981
  464TIP3   OH222882   2.483   3.961  11.440 -0.2563  0.3047 -0.2612
  464TIP3    H122883   2.534   3.917  11.372 -0.5090  0.2892 -0.4442
  464TIP3    H222884   2.542   4.028  11.475 -0.1315  0.3311 -0.5159
  465TIP3   OH222885   2.136   5.795  13.300 -0.0738 -0.4618  0.4569
  465TIP3    H122886   2.208   5.856  13.314 -1.3548  1.4196 -0.6691
  465TIP3    H222887   2.168   5.711  13.333  2.4878  0.3783  0.2785
  466TIP3   OH222888   4.939   2.214   4.069  0.2525 -0.5799  0.1986
  466TIP3    H122889   4.890   2.263   4.136 -0.4391  1.0019 -1.4014
  466TIP3    H222890   4.916   2.122   4.086 -0.6934 -0.1361  1.5164
  467TIP3   OH222891   1.650   5.743  13.938 -0.1904  0.2376  0.5878
  467TIP3    H122892   1.705   5.813  13.902  1.3544 -0.3428  1.7090
  467TIP3    H222893   1.662   5.670  13.878 -0.2360  0.2959  0.5062
  468TIP3   OH222894   1.314   4.976   1.639 -0.2632  0.1265  0.1097
  468TIP3    H122895   1.322   5.054   1.693  0.0013  1.7472 -2.1335
  468TIP3    H222896   1.256   5.002   1.567  0.0342 -1.6422 -0.8342
  469TIP3   OH222897   3.627   3.000   2.227 -0.0192  0.0384  0.1960
  469TIP3    H122898   3.648   2.934   2.293 -2.0778 -0.4442  0.4605
  469TIP3    H222899   3.579   3.068   2.276 -1.1184 -0.0755 -0.6832
  470TIP3   OH222900   2.448   1.034  11.889  0.5761  0.8232 -0.3837
  470TIP3    H122901   2.541   1.022  11.870  0.6784  2.8206 -1.3642
  470TIP3    H222902   2.412   1.076  11.811 -0.8475  1.3603  0.5153
  471TIP3   OH222903   5.039   1.484   3.930  0.2774  0.2461 -0.1221
  471TIP3    H122904   5.059   1.573   3.901  0.6107 -0.2959 -1.6256
  471TIP3    H222905   4.991   1.496   4.012  0.3175  1.8035 -0.2978
  472TIP3   OH222906   1.246   5.823   3.291 -0.1779 -0.3838  0.2929
  472TIP3    H122907   1.173   5.846   3.349 -1.6690 -1.3269 -1.1407
  472TIP3    H222908   1.245   5.890   3.223  0.7560 -0.0045  0.6429
  473TIP3   OH222909   4.793   4.970  13.021  0.4805  0.6454  0.0649
  473TIP3    H122910   4.821   4.878  13.016  1.4349  0.9393 -0.0415
  473TIP3    H222911   4.874   5.020  13.021 -0.0464  1.5174 -0.2895
  474TIP3   OH222912   6.014   2.086  14.790  0.0324  0.1394  0.0633
  474TIP3    H122913   6.092   2.138  14.770 -0.4616  0.8269 -0.1129
  474TIP3    H222914   6.012   2.082  14.886  2.2214 -2.8832  0.1075
  475TIP3   OH222915   0.535   0.421   4.314  0.0087  0.7905 -0.0775
  475TIP3    H122916   0.471   0.398   4.247 -1.0188  1.1085  0.7735
  475TIP3    H222917   0.483   0.437   4.393  1.2603 -0.6666  1.1142
  476TIP3   OH222918   1.145   1.673  13.557 -0.1111  0.3563 -0.1449
  476TIP3    H122919   1.238   1.654  13.569 -0.0343  1.2849  0.8081
  476TIP3    H222920   1.107   1.589  13.531  1.3856  0.4678 -3.1599
  477TIP3   OH222921   4.781   5.835   4.780 -0.6543  0.3468  0.4215
  477TIP3    H122922   4.809   5.768   4.843  0.3885  0.6690  0.3366
  477TIP3    H222923   4.775   5.789   4.697  0.9297  0.4855  0.1820
  478TIP3   OH222924   2.460   6.826  12.269  0.0891  0.2446 -0.0579
  478TIP3    H122925   2.378   6.791  12.305  0.8202 -2.3345 -0.7290
  478TIP3    H222926   2.435   6.867  12.186 -0.6963  0.7319  0.4068
  479TIP3   OH222927   3.936   1.865  14.085 -0.1233  0.2212 -0.2565
  479TIP3    H122928   3.901   1.828  14.004  2.7562 -0.4871 -1.3178
  479TIP3    H222929   3.952   1.958  14.064  0.2052  0.1402 -0.3799
  480TIP3   OH222930   3.522   1.243   3.776  0.6329  0.1646 -0.4334
  480TIP3    H122931   3.459   1.284   3.835  0.3702 -0.4523 -0.2875
  480TIP3    H222932   3.477   1.239   3.692  1.2919  1.7865 -0.9122
  481TIP3   OH222933   2.942   5.874   0.751 -0.0434 -0.0976  0.2074
  481TIP3    H122934   2.934   5.791   0.798  1.4114 -0.1427  0.4257
  481TIP3    H222935   3.007   5.924   0.800 -0.3314  0.8556 -0.3571
  482TIP3   OH222936   5.995   6.797  13.698 -0.0893  0.5139 -0.1828
  482TIP3    H122937   6.059   6.851  13.653  0.2393  0.7922  0.6065
  482TIP3    H222938   6.046   6.730  13.742 -0.5490 -1.1346 -2.0018
  483TIP3   OH222939   1.889   6.007   1.952 -0.2125 -0.1678  0.2588
  483TIP3    H122940   1.828   6.077   1.928  0.3228  0.3955  0.5471
  483TIP3    H222941   1.835   5.928   1.950 -1.4038  0.5183  2.1662
  484TIP3   OH222942   3.536   2.396  15.283 -0.3441  0.2176 -0.3212
  484TIP3    H122943   3.469   2.352  15.231 -0.9831  4.1067 -3.2305
  484TIP3    H222944   3.619   2.367  15.245 -0.2827 -2.7645  1.7343
  485TIP3   OH222945   0.351   0.268   1.601  0.1484 -0.2978 -0.4832
  485TIP3    H122946   0.262   0.264   1.566  0.1611  0.5074 -0.6143
  485TIP3    H222947   0.398   0.327   1.542  0.4634  0.2062  0.2546
  486TIP3   OH222948   5.335   0.314  14.558 -0.2448 -0.1795 -0.7987
  486TIP3    H122949   5.261   0.254  14.563 -0.2730 -0.4597 -3.2266
  486TIP3    H222950   5.305   0.393  14.602 -0.5112 -1.5872  1.7199
  487TIP3   OH222951   6.749   1.337   1.162 -0.2801 -0.1431  0.1490
  487TIP3    H122952   6.700   1.402   1.212 -0.3246  0.3279 -0.5015
  487TIP3    H222953   6.693   1.315   1.088  0.0208 -0.4231 -0.0024
  488TIP3   OH222954   2.076   2.488  14.250  0.6084 -0.0150  0.2937
  488TIP3    H122955   2.125   2.418  14.295  0.5040  1.0383  2.1761
  488TIP3    H222956   2.116   2.569  14.282 -0.0233  0.8089 -0.9506
  489TIP3   OH222957   5.084   2.772  15.963 -0.4228 -0.0395  0.1619
  489TIP3    H122958   5.075   2.818  15.879 -0.2737  0.0048  0.1710
  489TIP3    H222959   5.178   2.769  15.979 -0.4574  0.0297  0.3719
  490TIP3   OH222960   0.472   5.844  13.715 -0.2455  0.1647  0.8101
  490TIP3    H122961   0.379   5.827  13.728 -0.4219  0.6741  0.2482
  490TIP3    H222962   0.487   5.826  13.622  0.9230 -3.1101  1.4677
  491TIP3   OH222963   2.256   2.400   4.777 -0.3847 -0.3063 -0.6309
  491TIP3    H122964   2.272   2.463   4.707  1.1745  0.5577  0.4313
  491TIP3    H222965   2.254   2.453   4.857 -0.0697 -1.4795  0.1928
  492TIP3   OH222966   6.278   1.308   4.006 -0.3039  0.6383 -0.4346
  492TIP3    H122967   6.221   1.322   3.930 -0.4851  1.0785 -0.2170
  492TIP3    H222968   6.322   1.391   4.020  1.5095 -0.0913 -1.4909
  493TIP3   OH222969   0.590   0.516   6.370  0.1541 -0.0238  0.3864
  493TIP3    H122970   0.680   0.545   6.357  0.7340 -2.1546 -0.7373
  493TIP3    H222971   0.552   0.513   6.282 -0.9681  0.5895  0.8195
  494TIP3   OH222972   6.367   4.375   4.038  0.3407 -0.4666  0.9912
  494TIP3    H122973   6.339   4.295   4.083  1.8644  0.2165  3.3838
  494TIP3    H222974   6.383   4.348   3.948 -1.0879 -2.3788  1.2500
  495TIP3   OH222975   2.602   5.974   0.721  0.2583 -0.0257 -0.8508
  495TIP3    H122976   2.566   5.916   0.787  0.3608  0.2615 -0.5406
  495TIP3    H222977   2.582   5.931   0.637 -0.5837  0.0101 -0.6755
  496TIP3   OH222978   4.582   4.868  11.380 -0.1286 -0.3817  0.2191
  496TIP3    H122979   4.629   4.791  11.348  0.9898  0.1060  0.6601
  496TIP3    H222980   4.567   4.851  11.473 -1.5796 -0.8938 -0.0783
  497TIP3   OH222981   4.084   1.756  15.588  0.0118 -0.1586  0.1765
  497TIP3    H122982   4.073   1.689  15.656  0.1447 -0.6699 -0.2911
  497TIP3    H222983   4.038   1.832  15.621 -2.0958 -1.1735 -0.2642
  498TIP3   OH222984   4.937   5.074  11.222 -0.2790 -0.0415  0.2920
  498TIP3    H122985   4.854   5.049  11.181 -0.1171 -0.4098  0.1880
  498TIP3    H222986   4.945   5.014  11.296 -0.3714  0.3541  0.6216
  499TIP3   OH222987   2.077   6.182  12.770 -0.3235  0.4838 -0.2660
  499TIP3    H122988   2.133   6.149  12.699 -0.5216  1.5662 -0.9369
  499TIP3    H222989   2.126   6.255  12.808  0.2241 -0.6720  1.3802
  500TIP3   OH222990   0.417   1.808   2.601 -0.1646  0.0922 -0.1195
  500TIP3    H122991   0.419   1.776   2.511 -0.7394  0.7996 -0.3939
  500TIP3    H222992   0.326   1.834   2.616  0.1786  1.1362  0.2466
  501TIP3   OH222993   5.172   4.678   3.053 -0.5866  0.2145 -0.4071
  501TIP3    H122994   5.204   4.766   3.031  2.0091 -0.8550 -1.2282
  501TIP3    H222995   5.081   4.692   3.079 -0.1390  3.1923 -0.1052
  502TIP3   OH222996   1.862   0.019  12.519  0.6185 -0.4374 -0.1298
  502TIP3    H122997   1.884   0.082  12.450  0.6627 -0.4229 -0.1023
  502TIP3    H222998   1.945  -0.001  12.561  0.3440  1.3229  1.4437
  503TIP3   OH222999   2.459   1.963  17.011  0.1783 -0.1828  0.1998
  503TIP3    H123000   2.504   1.888  16.973 -0.0532  0.0083 -0.4715
  503TIP3    H223001   2.508   2.039  16.979  0.4376 -0.0482  0.9070
  504TIP3   OH223002   3.966   3.601   4.662  0.2691  0.1088 -0.7116
  504TIP3    H123003   3.981   3.515   4.701 -0.9077  0.2893  0.1908
  504TIP3    H223004   3.873   3.600   4.637  0.6995  0.4124 -2.5191
  505TIP3   OH223005   4.809   2.250   4.368 -0.4821  0.1304  0.1424
  505TIP3    H123006   4.757   2.305   4.427 -0.3066  1.3557 -0.8029
  505TIP3    H223007   4.900   2.265   4.396 -0.3643  1.0474 -0.6742
  506TIP3   OH223008   3.345   2.222   4.936  0.2377  0.6603  0.1594
  506TIP3    H123009   3.318   2.174   4.858  0.3342  1.2515 -0.2436
  506TIP3    H223010   3.433   2.191   4.955  0.6856  1.3892 -0.6837
  507TIP3   OH223011   6.183   6.314  16.086 -0.4794 -0.5652  0.5674
  507TIP3    H123012   6.187   6.364  16.167 -0.2420  0.9106 -0.3017
  507TIP3    H223013   6.090   6.309  16.066 -0.4722  0.2069  0.2899
  508TIP3   OH223014   3.490   2.985  11.967 -0.1413 -0.9668  0.4499
  508TIP3    H123015   3.471   2.967  12.059 -0.5330  2.5022  1.1692
  508TIP3    H223016   3.488   3.080  11.960  0.3083 -1.0886 -3.0943
  509TIP3   OH223017   0.531   0.002   5.371  0.0838  0.3683 -0.0378
  509TIP3    H123018   0.626  -0.006   5.375  0.0817  0.6584  0.7242
  509TIP3    H223019   0.504   0.018   5.461 -0.4246  3.1947 -0.6011
  510TIP3   OH223020   2.643   4.847   0.979 -0.0920 -0.3348  0.2685
  510TIP3    H123021   2.641   4.751   0.973  2.9491 -0.4027 -1.6171
  510TIP3    H223022   2.697   4.866   1.055  0.5575 -0.1541 -0.2329
  511TIP3   OH223023   5.181   1.497  10.607  0.2732  0.0738 -0.2456
  511TIP3    H123024   5.162   1.403  10.607  0.4849  0.0240  0.2827
  511TIP3    H223025   5.216   1.515  10.520 -1.3858  0.0091 -0.9809
  512TIP3   OH223026   5.179   3.417  16.519 -0.5588  0.4409 -0.0025
  512TIP3    H123027   5.230   3.497  16.529  0.7550 -0.2641 -0.8199
  512TIP3    H223028   5.221   3.354  16.576 -0.1779 -0.2908 -1.0588
  513TIP3   OH223029   1.341   4.430  15.656 -0.1429  0.2613  0.0119
  513TIP3    H123030   1.247   4.440  15.667  0.1289  1.1170  1.9346
  513TIP3    H223031   1.351   4.345  15.612 -1.8687  1.2203 -2.4884
  514TIP3   OH223032   3.669   5.018  13.840  0.3489  0.3930  0.2536
  514TIP3    H123033   3.686   4.930  13.874 -0.5976  0.0324 -0.1677
  514TIP3    H223034   3.651   5.070  13.919 -2.3492 -0.5546  0.3831
  515TIP3   OH223035   5.344   5.591  15.245 -0.5126  0.7864  0.6272
  515TIP3    H123036   5.336   5.578  15.151 -1.5195 -1.5707  0.9679
  515TIP3    H223037   5.437   5.613  15.259  0.0608 -0.6210 -0.7369
  516TIP3   OH223038   4.500   0.083   4.697 -0.4502  0.2894  0.4151
  516TIP3    H123039   4.405   0.100   4.701 -0.8477 -1.8066  1.0027
  516TIP3    H223040   4.540   0.167   4.720 -2.0934  1.7192 -1.5703
  517TIP3   OH223041   6.114   4.040  12.382  0.1885  0.0457 -0.4718
  517TIP3    H123042   6.105   4.118  12.437  0.5608  1.1690 -1.9324
  517TIP3    H223043   6.201   4.049  12.342  0.1027 -0.9534 -0.9117
  518TIP3   OH223044   2.749   4.981  12.724  0.0896  0.4378 -0.0017
  518TIP3    H123045   2.839   4.951  12.707 -1.3102 -3.5037 -1.4771
  518TIP3    H223046   2.728   4.947  12.811 -0.4333  0.1663 -0.2363
  519TIP3   OH223047   5.994   0.675  16.206  0.3542 -0.4266 -0.3605
  519TIP3    H123048   6.036   0.684  16.120 -1.6155  0.2215 -1.3017
  519TIP3    H223049   6.034   0.744  16.259  1.8836 -1.0827 -0.5848
  520TIP3   OH223050   3.436   0.455   2.885  0.1285 -0.8616  0.4708
  520TIP3    H123051   3.484   0.394   2.941 -0.2988 -0.5194  1.2323
  520TIP3    H223052   3.345   0.447   2.913  0.3109  1.6649  2.1405
  521TIP3   OH223053   0.063   1.801  15.603 -0.1464 -0.3851 -0.5919
  521TIP3    H123054   0.067   1.722  15.656  0.7610  0.6205  0.9287
  521TIP3    H223055   0.145   1.801  15.553  0.7792  0.4976  0.8468
  522TIP3   OH223056   1.995   5.736  10.778 -0.0567  0.3470 -0.1089
  522TIP3    H123057   2.021   5.722  10.687 -2.2857 -1.1120 -0.5967
  522TIP3    H223058   1.922   5.798  10.773  0.4270  1.0056  0.7876
  523TIP3   OH223059   3.876   3.398  11.285 -0.0962 -0.4896  0.5892
  523TIP3    H123060   3.837   3.371  11.202 -1.9685  1.9629  0.5594
  523TIP3    H223061   3.819   3.360  11.352  0.6159 -1.3107  0.7541
  524TIP3   OH223062   5.753   5.984   1.756 -0.4517  0.5078 -0.0007
  524TIP3    H123063   5.823   5.990   1.691  1.2433 -1.6369  1.4552
  524TIP3    H223064   5.724   5.893   1.751  0.1830  0.0683  2.5499
  525TIP3   OH223065   4.218   6.502  17.055 -0.0324  0.6202  0.1603
  525TIP3    H123066   4.184   6.591  17.068 -0.3290  0.6573 -0.8339
  525TIP3    H223067   4.203   6.483  16.963 -0.5954 -0.7321  0.5078
  526TIP3   OH223068   2.723   5.668  11.445  0.0022 -0.2628 -0.5917
  526TIP3    H123069   2.714   5.741  11.384  2.0453 -0.3731 -1.0879
  526TIP3    H223070   2.817   5.660  11.459 -0.3677 -0.0540  2.8129
  527TIP3   OH223071   1.757   5.687   5.749 -0.3047 -0.5501 -0.3565
  527TIP3    H123072   1.729   5.658   5.836 -2.0150  0.6795 -0.4467
  527TIP3    H223073   1.685   5.664   5.692 -0.3764  1.0471 -0.9569
  528TIP3   OH223074   1.936   3.800   1.952  0.0100  0.1033 -0.1838
  528TIP3    H123075   1.948   3.706   1.938  1.4464 -0.2271  2.5857
  528TIP3    H223076   2.025   3.836   1.950 -0.2213  0.8837  1.5854
  529TIP3   OH223077   1.015   4.248  10.028 -0.0102  0.0454  0.4499
  529TIP3    H123078   1.092   4.194  10.044  1.6361  2.3701  0.8169
  529TIP3    H223079   0.971   4.252  10.113 -0.8231 -1.6004  0.1520
  530TIP3   OH223080   2.904   4.870   3.064  0.3777  0.2677  0.3105
  530TIP3    H123081   2.997   4.864   3.085  0.7644  1.5480 -0.9176
  530TIP3    H223082   2.885   4.964   3.066 -0.7138  0.0724 -0.1770
  531TIP3   OH223083   5.185   5.429  10.516  0.1173  0.5146 -0.3586
  531TIP3    H123084   5.183   5.334  10.514  0.8404  0.4171  1.3741
  531TIP3    H223085   5.123   5.456  10.449 -0.4080 -1.1744 -0.6002
  532TIP3   OH223086   3.939   5.922  13.728 -0.5681 -0.0677  0.2495
  532TIP3    H123087   3.906   5.915  13.639  0.3719 -0.5279 -0.0852
  532TIP3    H223088   3.941   6.016  13.747 -0.8834  0.0235 -0.1670
  533TIP3   OH223089   2.415   2.741  14.911 -0.1044 -0.3889 -0.1252
  533TIP3    H123090   2.419   2.819  14.966 -0.2969 -0.1089 -0.5032
  533TIP3    H223091   2.399   2.670  14.972  0.7760 -0.2310  0.2983
  534TIP3   OH223092   3.192   0.753  16.419 -0.0995  0.0076  0.3158
  534TIP3    H123093   3.277   0.712  16.401 -1.5443 -3.0703 -0.1642
  534TIP3    H223094   3.173   0.729  16.510 -0.8433 -0.1844  0.1200
  535TIP3   OH223095   1.975   6.469  16.828 -0.4628  0.0718  0.1922
  535TIP3    H123096   1.960   6.546  16.883  0.7082  1.1737 -0.9456
  535TIP3    H223097   1.959   6.500  16.739  0.1921 -0.9640 -0.3052
  536TIP3   OH223098   5.912   0.697   6.544  0.4693  0.6728 -0.6441
  536TIP3    H123099   5.908   0.781   6.590  0.5952  0.3624 -0.0558
  536TIP3    H223100   5.878   0.716   6.457 -0.6667  1.0838 -0.1393
  537TIP3   OH223101   2.824   5.382  15.016 -0.0814 -0.3045  0.0898
  537TIP3    H123102   2.863   5.350  15.097  0.3594 -1.0533 -0.4083
  537TIP3    H223103   2.860   5.325  14.947 -0.0434  0.6418 -0.6963
  538TIP3   OH223104   4.917   1.987   3.840 -0.1337 -0.1280 -0.2282
  538TIP3    H123105   4.822   1.998   3.847  0.0294  0.5418  1.1799
  538TIP3    H223106   4.949   2.071   3.807  0.0084 -0.2376 -0.3730
  539TIP3   OH223107   5.885   3.494  13.450  0.0062 -0.1850 -0.4153
  539TIP3    H123108   5.806   3.547  13.440 -0.2090 -0.6347 -1.2157
  539TIP3    H223109   5.925   3.494  13.363  1.3006  0.6488  0.1583
  540TIP3   OH223110   0.688   2.641  15.932  0.5896  0.3714 -0.3055
  540TIP3    H123111   0.666   2.652  15.839  0.9582  1.0439 -0.3207
  540TIP3    H223112   0.631   2.703  15.977  0.9277  0.5752 -0.1527
  541TIP3   OH223113   2.554   0.600   2.745 -0.1281 -0.0486  0.4710
  541TIP3    H123114   2.562   0.614   2.651  0.8605 -0.2833  0.4981
  541TIP3    H223115   2.478   0.543   2.755 -0.1891 -0.0886 -0.1943
  542TIP3   OH223116   1.831   0.838   5.914  0.1362 -0.0331 -0.1770
  542TIP3    H123117   1.797   0.881   5.993 -1.7418  0.2313 -1.0783
  542TIP3    H223118   1.922   0.869   5.908 -0.4646  2.0661  0.4462
  543TIP3   OH223119   5.971   2.431  13.062 -0.0221  0.5282 -0.4260
  543TIP3    H123120   5.955   2.480  12.981  3.3280 -0.9970 -2.2165
  543TIP3    H223121   6.060   2.397  13.052 -0.4796 -2.0523  2.7241
  544TIP3   OH223122   4.810   6.578   0.746  0.0926 -0.3518 -0.6884
  544TIP3    H123123   4.823   6.615   0.833 -0.8822  1.4831 -1.2803
  544TIP3    H223124   4.746   6.636   0.704  0.3650 -1.3208 -2.5424
  545TIP3   OH223125   4.794   2.358   3.266 -0.5907  0.5122 -0.3089
  545TIP3    H123126   4.723   2.309   3.307 -1.4864 -0.2217 -2.5422
  545TIP3    H223127   4.854   2.290   3.235 -2.0288  0.5897 -3.7768
  546TIP3   OH223128   4.864   4.110   1.318 -0.2944  0.2828  0.3997
  546TIP3    H123129   4.957   4.127   1.306 -0.1548 -0.9222 -0.5136
  546TIP3    H223130   4.860   4.045   1.388 -0.3233 -0.6564 -0.4464
  547TIP3   OH223131   1.378   5.840   5.281  0.1363  0.1220 -0.2282
  547TIP3    H123132   1.440   5.892   5.332  0.5207  0.2273 -0.7927
  547TIP3    H223133   1.433   5.785   5.225 -0.2243  1.8420 -2.4055
  548TIP3   OH223134   2.706   1.050   0.690  0.4440 -0.2233 -0.0670
  548TIP3    H123135   2.700   0.955   0.682  0.0722 -0.0696 -2.0473
  548TIP3    H223136   2.665   1.084   0.611 -1.1375  1.6727  1.4397
  549TIP3   OH223137   0.146   2.332  15.670 -0.0953  0.1414 -0.3955
  549TIP3    H123138   0.071   2.390  15.657 -0.6214 -0.2211  0.8747
  549TIP3    H223139   0.221   2.391  15.679 -0.2836  0.5235 -1.2772
  550TIP3   OH223140   5.305   2.609  15.661  0.0855 -0.1046 -0.9478
  550TIP3    H123141   5.365   2.539  15.690 -0.1154  0.4615  0.9950
  550TIP3    H223142   5.218   2.573  15.677 -0.0771  1.3807  2.6128
  551TIP3   OH223143   3.052   6.380  10.637  0.1316 -0.0989 -0.0460
  551TIP3    H123144   3.040   6.333  10.555  0.0669 -0.6677  0.2849
  551TIP3    H223145   3.134   6.427  10.627 -0.5396  0.9360 -0.9601
  552TIP3   OH223146   1.219   6.209  11.118 -0.4394 -0.3307 -0.1240
  552TIP3    H123147   1.246   6.175  11.032 -1.8330  0.5057 -0.9440
  552TIP3    H223148   1.165   6.139  11.155  1.0122 -1.1271  0.5765
  553TIP3   OH223149   6.552   6.237   1.836 -0.2776 -1.1092  0.1898
  553TIP3    H123150   6.463   6.240   1.800 -0.0039 -2.0940 -0.6231
  553TIP3    H223151   6.554   6.308   1.901 -0.6659  1.1269 -2.0631
  554TIP3   OH223152   4.505   1.783   2.794 -0.1798 -0.4786  0.5186
  554TIP3    H123153   4.501   1.755   2.702  0.6035 -2.0430  0.9176
  554TIP3    H223154   4.428   1.743   2.835 -1.0962  1.0479  0.3796
  555TIP3   OH223155   1.662   3.982  13.680 -0.2315 -0.0330  0.5923
  555TIP3    H123156   1.665   4.019  13.768 -0.6245  1.8022 -0.1143
  555TIP3    H223157   1.582   3.929  13.678  0.0240 -0.4736  1.4486
  556TIP3   OH223158   0.491   3.420   4.622 -0.4455 -0.1779  0.0250
  556TIP3    H123159   0.565   3.371   4.588 -0.1504  2.0597 -2.9587
  556TIP3    H223160   0.504   3.421   4.717  3.2408 -0.0983 -0.3303
  557TIP3   OH223161   2.413   1.838  11.201  0.6409 -0.1780 -0.1939
  557TIP3    H123162   2.320   1.826  11.222  0.7657  0.7413  0.9615
  557TIP3    H223163   2.421   1.808  11.110 -0.5807 -1.2095  0.0091
  558TIP3   OH223164   0.641   6.711  10.789  0.3089 -0.1470  0.4319
  558TIP3    H123165   0.628   6.805  10.796 -0.1154 -0.2000  0.3460
  558TIP3    H223166   0.563   6.672  10.827  0.7040 -0.4717  0.9237
  559TIP3   OH223167   6.544   6.646  11.800  0.8782 -0.0452 -0.2182
  559TIP3    H123168   6.532   6.663  11.706  0.8390  0.1483 -0.1797
  559TIP3    H223169   6.552   6.733  11.839 -0.7854 -0.0292  0.1794
  560TIP3   OH223170   2.742   6.442   0.327  1.1710  0.0113  0.6525
  560TIP3    H123171   2.674   6.388   0.368  2.1887 -1.8503  0.0063
  560TIP3    H223172   2.769   6.503   0.396 -0.3039 -0.0061  1.2871
  561TIP3   OH223173   1.766   6.532  13.050  0.7260  0.2954 -0.2688
  561TIP3    H123174   1.850   6.554  13.090  0.8396 -0.9064  0.2089
  561TIP3    H223175   1.710   6.607  13.067  0.8986  0.0255  1.8097
  562TIP3   OH223176   4.049   1.382  12.607 -0.0522  0.4354 -0.1230
  562TIP3    H123177   4.094   1.378  12.522 -0.4072  0.6611 -0.3254
  562TIP3    H223178   4.061   1.472  12.636 -1.8103  0.9878 -0.9853
  563TIP3   OH223179   2.736   6.616   1.800  0.1682 -0.0323 -0.2076
  563TIP3    H123180   2.751   6.711   1.794  0.5114  0.0437  1.3208
  563TIP3    H223181   2.650   6.607   1.840 -0.1106 -0.3834 -0.8721
  564TIP3   OH223182   2.227   4.507  12.586 -0.8041 -0.1602  0.0416
  564TIP3    H123183   2.183   4.422  12.575  0.3601 -1.1666  2.3887
  564TIP3    H223184   2.288   4.512  12.512  0.8025 -2.5590  1.0536
  565TIP3   OH223185   4.821   2.422  14.688  0.1484  0.1330  0.9692
  565TIP3    H123186   4.829   2.476  14.766  1.1183 -0.6254  1.4203
  565TIP3    H223187   4.911   2.399  14.665 -0.2093 -0.9138  0.5396
  566TIP3   OH223188   2.342   1.299  14.839  0.1766 -0.5882 -0.1143
  566TIP3    H123189   2.351   1.380  14.788 -0.3338 -0.9550 -0.7957
  566TIP3    H223190   2.422   1.250  14.821  0.2323 -0.4863 -0.1448
  567TIP3   OH223191   4.345   1.883  13.414 -1.0050 -0.2439  0.3170
  567TIP3    H123192   4.416   1.948  13.416 -1.3504  0.1345  0.2397
  567TIP3    H223193   4.322   1.875  13.321 -1.6186  0.2423  0.4200
  568TIP3   OH223194   1.315   4.519   2.896  0.3402 -0.2220 -0.3150
  568TIP3    H123195   1.315   4.425   2.912  1.5382 -0.2557 -0.4155
  568TIP3    H223196   1.322   4.559   2.982  1.6728 -0.2857 -0.3709
  569TIP3   OH223197   6.353   1.421  14.547  0.3895 -0.1279  0.0242
  569TIP3    H123198   6.442   1.417  14.581 -0.2196  0.3904  1.7715
  569TIP3    H223199   6.302   1.362  14.602 -0.5684  0.4550 -0.2001
  570TIP3   OH223200   5.193   1.138   0.953 -0.1859 -0.2514  0.0437
  570TIP3    H123201   5.162   1.182   0.874  0.0174  0.8423  0.5595
  570TIP3    H223202   5.196   1.045   0.929 -0.3574  0.0378 -1.1519
  571TIP3   OH223203   3.628   2.415  12.594  0.0033  0.1350  0.1258
  571TIP3    H123204   3.662   2.442  12.679 -0.3888  1.1167 -0.0162
  571TIP3    H223205   3.704   2.418  12.535 -0.1011  1.4260  0.0128
  572TIP3   OH223206   0.981   6.261  11.876  0.3426 -0.0089  0.3802
  572TIP3    H123207   0.971   6.169  11.852  0.1035 -0.5994  2.5419
  572TIP3    H223208   1.002   6.259  11.969 -0.7173  2.1830  0.7172
  573TIP3   OH223209   5.357   5.602   4.343  0.5648  0.2159  0.2606
  573TIP3    H123210   5.392   5.691   4.338 -0.2749  0.5838  0.5785
  573TIP3    H223211   5.434   5.545   4.346  1.2321  1.0954  3.3557
  574TIP3   OH223212   6.785   6.094   5.827  0.0178  0.7297  0.0895
  574TIP3    H123213   6.840   6.018   5.807  0.3855  0.6307  1.3952
  574TIP3    H223214   6.696   6.061   5.822  0.1261  0.5173 -0.5364
  575TIP3   OH223215   6.110   1.523   1.104  0.2872  0.2886 -0.4606
  575TIP3    H123216   6.139   1.593   1.163 -0.9528  0.7195 -0.3119
  575TIP3    H223217   6.152   1.444   1.138  1.0080  0.8177 -0.0860
  576TIP3   OH223218   2.222   0.871  13.738 -0.8703  0.1972 -0.4128
  576TIP3    H123219   2.197   0.798  13.681 -0.5417  0.5135 -0.9693
  576TIP3    H223220   2.253   0.829  13.818 -1.4170 -0.2489 -0.4268
  577TIP3   OH223221   0.909   6.499   3.603 -0.3867 -0.2622 -0.5898
  577TIP3    H123222   0.868   6.416   3.579  0.6746 -0.7800 -0.6487
  577TIP3    H223223   0.932   6.489   3.695 -1.0094  0.3001 -0.3592
  578TIP3   OH223224   0.139   4.933  13.045  0.1187  0.0391 -0.5343
  578TIP3    H123225   0.170   4.842  13.044 -0.8387 -0.3537  1.3660
  578TIP3    H223226   0.173   4.969  13.127 -0.9716  0.8654 -0.4247
  579TIP3   OH223227   4.944   2.348  13.163 -0.4030  0.2408  0.1659
  579TIP3    H123228   4.985   2.429  13.132 -1.2609  0.1490 -1.2435
  579TIP3    H223229   5.005   2.279  13.136 -0.1234  0.3250  0.5627
  580TIP3   OH223230   0.708   4.553   0.782  0.1557 -0.4418 -0.4008
  580TIP3    H123231   0.714   4.479   0.842 -0.0320 -0.7018 -0.7034
  580TIP3    H223232   0.680   4.626   0.837  1.6253 -0.2633  0.1695
  581TIP3   OH223233   5.985   4.749   1.190  0.2599  0.7139 -0.0379
  581TIP3    H123234   5.922   4.700   1.137  0.2986 -0.0557  0.6142
  581TIP3    H223235   6.068   4.740   1.143  0.3596 -0.2260  0.3066
  582TIP3   OH223236   3.302   6.459   0.669 -0.3954  0.3276 -0.0849
  582TIP3    H123237   3.336   6.541   0.634  3.3344 -1.6323 -1.6905
  582TIP3    H223238   3.342   6.452   0.756  0.8313 -0.4918 -0.6718
  583TIP3   OH223239   5.055   5.827   4.587  0.1594  0.1297 -0.0039
  583TIP3    H123240   4.984   5.867   4.637  0.2269  0.5977 -0.2792
  583TIP3    H223241   5.057   5.736   4.617  1.3589  0.8047  2.2067
  584TIP3   OH223242   0.478   2.211  15.475 -0.5748  0.2273 -0.2916
  584TIP3    H123243   0.536   2.138  15.454  1.3905  1.7599 -0.4168
  584TIP3    H223244   0.516   2.252  15.553 -2.6931  0.0686  0.9219
  585TIP3   OH223245   2.142   3.574  12.009 -0.1336  0.6366  0.2344
  585TIP3    H123246   2.230   3.540  11.992 -0.3842  0.6503 -1.2577
  585TIP3    H223247   2.139   3.659  11.965 -0.4621  1.2776  1.4488
  586TIP3   OH223248   2.323   0.580   5.919  0.8477 -0.3609  0.0934
  586TIP3    H123249   2.391   0.647   5.917  1.0065 -0.4835  1.1299
  586TIP3    H223250   2.366   0.502   5.954  0.3164 -0.6037  0.2308
  587TIP3   OH223251   0.271   3.498  16.473  0.2554 -0.5182 -0.1187
  587TIP3    H123252   0.361   3.516  16.500 -0.4966 -0.1421  2.3979
  587TIP3    H223253   0.221   3.499  16.554 -1.7791 -2.4008 -1.2448
  588TIP3   OH223254   5.412   4.766  14.740  0.3371  0.3630  0.0544
  588TIP3    H123255   5.382   4.833  14.801 -0.1926  0.1712  0.0078
  588TIP3    H223256   5.480   4.719  14.787 -0.2513  0.0463  0.5887
  589TIP3   OH223257   2.876   6.192   3.276 -0.3046  0.0836 -0.3895
  589TIP3    H123258   2.873   6.263   3.340 -0.3703 -0.4693  0.2254
  589TIP3    H223259   2.912   6.118   3.324 -1.2786 -0.6209 -0.7179
  590TIP3   OH223260   3.406   2.866  12.913  0.3379  0.5519 -0.3956
  590TIP3    H123261   3.399   2.795  12.977  0.4361  0.1263 -0.8512
  590TIP3    H223262   3.383   2.945  12.962  0.4242  0.2330  0.1677
  591TIP3   OH223263   3.501   0.913   1.953 -0.1690 -0.2256 -0.7027
  591TIP3    H123264   3.441   0.867   1.893 -0.1620  0.9474 -1.6447
  591TIP3    H223265   3.452   0.921   2.035 -1.2821  0.6065 -1.4133
  592TIP3   OH223266   5.632   4.287  12.449  0.2867  0.1509 -0.2268
  592TIP3    H123267   5.562   4.277  12.514 -1.1303  1.1967 -1.5265
  592TIP3    H223268   5.612   4.221  12.383 -0.9077  1.9744 -1.7838
  593TIP3   OH223269   2.965   6.785  15.915 -0.4827  0.5556  1.2031
  593TIP3    H123270   3.054   6.753  15.899 -2.0407 -4.0571  0.3369
  593TIP3    H223271   2.939   6.828  15.834  0.4906  0.7728  0.9956
  594TIP3   OH223272   5.839   4.922  15.435  0.7357 -0.3135  0.3813
  594TIP3    H123273   5.760   4.970  15.459 -0.2424 -2.4281  1.6547
  594TIP3    H223274   5.910   4.971  15.477  0.1696  1.5197 -0.6382
  595TIP3   OH223275   5.983   3.524   1.661  0.9224 -0.5706  0.2374
  595TIP3    H123276   5.955   3.512   1.752  0.1019 -1.1838 -0.0817
  595TIP3    H223277   6.009   3.436   1.632  1.4338 -0.3317 -0.0451
  596TIP3   OH223278   3.311   6.227  15.990 -0.4340  0.1313  0.6440
  596TIP3    H123279   3.242   6.202  16.053 -0.1461  0.0580  0.9349
  596TIP3    H223280   3.374   6.155  15.995 -0.6112 -0.0719 -0.0349
  597TIP3   OH223281   5.008   6.576  16.786 -0.2951 -0.1483  0.0876
  597TIP3    H123282   4.942   6.644  16.772 -0.7022 -0.1557  1.8400
  597TIP3    H223283   4.990   6.542  16.873  1.7419 -0.4749  0.4294
  598TIP3   OH223284   0.667   5.113   6.177  0.1750 -0.5143 -0.0140
  598TIP3    H123285   0.614   5.077   6.106 -0.8144 -0.8317  0.8623
  598TIP3    H223286   0.713   5.036   6.212 -0.7302 -0.6751  0.8446
  599TIP3   OH223287   3.532   2.812  13.964  0.2567 -0.7859 -0.0262
  599TIP3    H123288   3.610   2.820  14.018  1.1439 -2.2296 -1.0376
  599TIP3    H223289   3.560   2.839  13.877 -0.0410 -2.4330 -0.6510
  600TIP3   OH223290   2.907   1.314   4.653 -0.3121  0.0472 -0.1478
  600TIP3    H123291   2.826   1.263   4.658  0.0098 -0.4863 -0.2425
  600TIP3    H223292   2.966   1.271   4.716  0.0378  0.1689 -0.3895
  601TIP3   OH223293   3.333   4.833  12.743  0.7041 -0.3591 -0.0592
  601TIP3    H123294   3.370   4.852  12.657 -0.3150 -0.9162 -0.6449
  601TIP3    H223295   3.307   4.741  12.738 -0.0802 -0.1840  0.5606
  602TIP3   OH223296   6.561   1.826   5.574 -0.1958  0.2247 -0.3167
  602TIP3    H123297   6.476   1.798   5.540 -0.6157  1.6876 -0.5288
  602TIP3    H223298   6.595   1.748   5.619 -0.8969 -0.8810 -1.6254
  603TIP3   OH223299   3.892   1.605   0.554 -0.3047 -0.4695  0.6524
  603TIP3    H123300   3.986   1.623   0.544 -0.2047  1.7943  4.0811
  603TIP3    H223301   3.889   1.516   0.590  0.3533 -1.2559 -1.1412
  604TIP3   OH223302   4.337   4.901  16.789  0.2242 -0.5246  0.3119
  604TIP3    H123303   4.301   4.812  16.785  1.4081 -1.0957  1.4385
  604TIP3    H223304   4.381   4.913  16.705  0.7602 -1.3464  0.4615
  605TIP3   OH223305   0.404   4.459   1.232  0.0182  0.0360  0.1526
  605TIP3    H123306   0.355   4.392   1.279 -2.6357  0.8940 -1.2083
  605TIP3    H223307   0.464   4.495   1.298 -1.3196 -0.9168  1.9936
  606TIP3   OH223308   0.361   4.595   4.718 -0.4209  0.4459  0.0076
  606TIP3    H123309   0.413   4.519   4.745  1.7386  1.3201 -1.4054
  606TIP3    H223310   0.307   4.563   4.646  2.7948  0.7863 -2.8085
  607TIP3   OH223311   0.743   2.133  16.373  0.2555 -0.4499  0.3549
  607TIP3    H123312   0.662   2.179  16.395  0.3615  1.3194 -2.4936
  607TIP3    H223313   0.715   2.059  16.319  0.4509 -0.9223  0.8850
  608TIP3   OH223314   0.759   0.256   4.868  0.2944  0.3578  0.3287
  608TIP3    H123315   0.823   0.185   4.863  0.1301  0.0360  2.0397
  608TIP3    H223316   0.698   0.239   4.796  1.6332  0.1912 -0.8036
  609TIP3   OH223317   2.766   6.441  11.113  0.0327  0.4524 -0.4730
  609TIP3    H123318   2.694   6.478  11.164  0.4992  0.2433  0.3464
  609TIP3    H223319   2.722   6.401  11.037 -0.7393  0.2116  0.0795
  610TIP3   OH223320   0.666   5.130  17.044 -0.0457  0.2055  0.2599
  610TIP3    H123321   0.613   5.173  16.977  0.6123  1.2216  0.3697
  610TIP3    H223322   0.690   5.200  17.105  1.1395 -0.2871  0.3924
  611TIP3   OH223323   5.115   6.555  14.159 -0.4488 -0.1187 -0.3737
  611TIP3    H123324   5.074   6.493  14.100  2.0655  0.1143 -2.5369
  611TIP3    H223325   5.112   6.639  14.113  1.3564  0.1227 -0.1388
  612TIP3   OH223326   2.021   3.760   0.902 -0.4908  0.2858  0.2538
  612TIP3    H123327   2.046   3.789   0.814  0.6235  0.9148  0.7537
  612TIP3    H223328   2.076   3.812   0.961 -2.1263  0.8038  1.3887
  613TIP3   OH223329   3.577   5.274   0.776  0.2165 -0.3012  0.7202
  613TIP3    H123330   3.570   5.181   0.798 -0.7086 -0.4205 -0.0115
  613TIP3    H223331   3.496   5.312   0.807  0.1001  0.0401  0.0182
  614TIP3   OH223332   0.241   3.661   2.721  0.3853 -0.4670  0.0424
  614TIP3    H123333   0.199   3.744   2.743  1.7986 -0.0840  1.5094
  614TIP3    H223334   0.215   3.643   2.631 -0.4100  1.2754 -0.0971
  615TIP3   OH223335   5.837   4.755   0.615 -0.2738  0.3182  0.4251
  615TIP3    H123336   5.900   4.716   0.676 -0.9105  0.6059  1.2910
  615TIP3    H223337   5.883   4.831   0.578 -0.3388  0.9334  1.5668
  616TIP3   OH223338   1.334   5.484  16.189  0.0446  0.2508 -0.4125
  616TIP3    H123339   1.411   5.427  16.197 -0.4227 -0.6573 -1.8195
  616TIP3    H223340   1.268   5.442  16.243  0.0474  0.0833 -0.5365
  617TIP3   OH223341   0.755   2.436  12.158  0.3292  0.2401 -0.1751
  617TIP3    H123342   0.772   2.500  12.089  1.7726 -0.1889 -0.2490
  617TIP3    H223343   0.766   2.486  12.240  2.9937 -0.1773 -0.1888
  618TIP3   OH223344   0.223   6.607   4.390  0.5071  0.0269  0.3111
  618TIP3    H123345   0.299   6.665   4.390 -0.4216  1.3630  2.1388
  618TIP3    H223346   0.259   6.520   4.375  2.1705  0.8287 -0.6789
  619TIP3   OH223347   2.891   1.935   4.553  0.3755 -0.1477 -0.7218
  619TIP3    H123348   2.861   1.916   4.464 -2.3614 -0.2497  0.1359
  619TIP3    H223349   2.941   2.016   4.545 -1.8898  1.2352 -2.0866
  620TIP3   OH223350   6.315   5.347  11.073 -0.2677  0.3280  0.4279
  620TIP3    H123351   6.292   5.436  11.049  1.0544  0.6291  0.2422
  620TIP3    H223352   6.304   5.296  10.993 -2.7341 -0.0779  0.9178
  621TIP3   OH223353   2.372   0.486  14.454 -0.0543  0.0459 -0.1347
  621TIP3    H123354   2.372   0.435  14.535  2.8035  0.2051  0.0944
  621TIP3    H223355   2.445   0.547  14.465 -1.2510  1.8968 -1.7886
  622TIP3   OH223356   6.494   0.942   4.664 -0.1184 -0.7543 -0.3918
  622TIP3    H123357   6.495   0.969   4.573  1.8445  1.6972  0.2242
  622TIP3    H223358   6.562   0.875   4.670  0.2577 -0.4062 -0.6540
  623TIP3   OH223359   0.955   3.151   3.568  0.3184 -0.1122  0.0337
  623TIP3    H123360   0.888   3.127   3.632 -0.3989 -1.0263 -1.0256
  623TIP3    H223361   0.923   3.115   3.485  0.6539  2.0239 -1.0849
  624TIP3   OH223362   3.859   5.837   1.945 -0.3602 -0.1341  0.1806
  624TIP3    H123363   3.785   5.892   1.920  1.4066  2.9586  1.1823
  624TIP3    H223364   3.855   5.833   2.041 -0.7155 -2.2673  0.1183
  625TIP3   OH223365   1.832   4.422   4.082  0.0527  0.9639  0.0594
  625TIP3    H123366   1.909   4.413   4.026 -1.6692  0.7110 -2.4487
  625TIP3    H223367   1.783   4.495   4.043 -1.8187 -0.0172  0.4594
  626TIP3   OH223368   2.205   0.043   6.514 -0.2500  0.0572 -0.4477
  626TIP3    H123369   2.239   0.029   6.426  0.0412 -1.4656 -0.1094
  626TIP3    H223370   2.282   0.066   6.566 -0.4051  0.8421 -0.5487
  627TIP3   OH223371   5.533   1.042   6.787 -0.1076  0.2481 -0.2654
  627TIP3    H123372   5.475   0.966   6.790  0.1030  0.0771 -0.4802
  627TIP3    H223373   5.494   1.100   6.722 -1.0152  0.9447  0.8717
  628TIP3   OH223374   6.019   0.759  14.427 -0.6119 -0.2572 -0.5901
  628TIP3    H123375   5.937   0.755  14.475 -0.3320  0.5499 -0.0219
  628TIP3    H223376   6.000   0.815  14.352 -1.2918 -2.2102 -1.9775
  629TIP3   OH223377   3.240   6.596   5.421  0.3247  0.2250  0.4794
  629TIP3    H123378   3.321   6.624   5.464  0.4310  2.4414 -0.9545
  629TIP3    H223379   3.269   6.547   5.344  0.4929  2.5979 -1.0813
  630TIP3   OH223380   6.306   0.589  16.182 -0.6488  0.5070 -0.2325
  630TIP3    H123381   6.342   0.584  16.094  0.2004  0.0884  0.1324
  630TIP3    H223382   6.254   0.509  16.191  0.3836 -0.1465  0.1209
  631TIP3   OH223383   0.253   2.042  13.167 -0.8191 -0.1010 -0.4948
  631TIP3    H123384   0.290   2.007  13.249 -1.1110 -0.4895 -0.5248
  631TIP3    H223385   0.161   2.059  13.188 -0.8616 -0.0762 -0.7036
  632TIP3   OH223386   4.004   2.773  10.809  0.1253  0.7224  0.3844
  632TIP3    H123387   3.993   2.821  10.727  1.3145  2.7344  1.3184
  632TIP3    H223388   4.091   2.733  10.802 -0.1272  0.1821  0.3264
  633TIP3   OH223389   5.241   5.690  13.841 -0.0044 -0.0086  0.2083
  633TIP3    H123390   5.241   5.779  13.806  0.5040 -0.3580 -0.7206
  633TIP3    H223391   5.325   5.683  13.886  0.1879 -0.1785 -0.1695
  634TIP3   OH223392   6.619   2.925   0.960 -0.3791  0.1505  0.1634
  634TIP3    H123393   6.703   2.961   0.929  0.0068 -0.0826  0.9067
  634TIP3    H223394   6.554   2.991   0.936 -0.0268  0.2066 -0.6711
  635TIP3   OH223395   0.345   6.371   2.010 -0.5483 -0.4768  0.2638
  635TIP3    H123396   0.358   6.360   2.104 -2.7450 -1.8912  0.4504
  635TIP3    H223397   0.377   6.290   1.972 -0.5269 -0.2819 -0.1408
  636TIP3   OH223398   0.539   3.819   2.609  0.1665  0.5912  0.0307
  636TIP3    H123399   0.535   3.812   2.514 -1.1432  1.2956  0.0146
  636TIP3    H223400   0.632   3.811   2.629  0.3565 -0.7450 -1.1980
  637TIP3   OH223401   4.777   4.341   0.683 -0.1685  0.1770  0.0255
  637TIP3    H123402   4.733   4.256   0.687  0.4506 -0.1279  2.5827
  637TIP3    H223403   4.860   4.323   0.639 -0.6728 -0.1910 -0.8076
  638TIP3   OH223404   5.291   0.658   0.118  0.2597 -0.3909  0.3181
  638TIP3    H123405   5.283   0.640   0.211  0.1667  0.3247  0.4584
  638TIP3    H223406   5.311   0.752   0.113 -3.0046  0.4026 -0.4598
  639TIP3   OH223407   0.634   1.136  15.965 -0.3863 -0.3347  0.4958
  639TIP3    H123408   0.560   1.185  15.931 -1.9089 -2.1640  1.0156
  639TIP3    H223409   0.670   1.191  16.035 -0.9437  0.7871 -0.0879
  640TIP3   OH223410   0.184   0.908  14.929  0.5290 -0.1738 -0.2729
  640TIP3    H123411   0.113   0.844  14.933  0.7255 -0.3807 -0.0360
  640TIP3    H223412   0.149   0.981  14.878 -2.0015  2.3401  4.3666
  641TIP3   OH223413   0.999   3.700  11.936  0.3079 -0.1746  0.2397
  641TIP3    H123414   0.987   3.607  11.955  0.7278 -0.6549 -1.6372
  641TIP3    H223415   0.980   3.708  11.843 -0.2613  1.7405  0.4731
  642TIP3   OH223416   1.147   6.606   6.481  0.0736 -0.0381  0.1175
  642TIP3    H123417   1.080   6.604   6.549 -1.2166  0.6658 -1.0912
  642TIP3    H223418   1.205   6.677   6.508 -1.2921  1.2671 -0.2681
  643TIP3   OH223419   4.578   1.999  13.546  0.1916 -0.3033  0.3271
  643TIP3    H123420   4.541   2.065  13.604 -0.4959  0.3369 -0.8055
  643TIP3    H223421   4.584   1.920  13.600 -0.4494  0.2625  1.2537
  644TIP3   OH223422   4.355   5.388   1.834  0.7397  0.2526  1.0334
  644TIP3    H123423   4.314   5.308   1.866  1.5751 -0.2388  0.9034
  644TIP3    H223424   4.442   5.361   1.806 -0.0196  0.5489 -2.0012
  645TIP3   OH223425   5.463   2.861   3.599 -0.2593  0.6114  0.5178
  645TIP3    H123426   5.374   2.895   3.612 -0.6906 -0.3957  0.2548
  645TIP3    H223427   5.500   2.857   3.687 -0.8789 -0.0327  0.7555
  646TIP3   OH223428   5.841   5.093   5.600  0.3326 -0.1815  0.2157
  646TIP3    H123429   5.923   5.117   5.644  1.9335 -3.2941 -0.7685
  646TIP3    H223430   5.865   5.082   5.508 -1.5068 -0.0108 -0.3242
  647TIP3   OH223431   3.460   3.121  13.897 -0.0341 -0.3947  0.6123
  647TIP3    H123432   3.476   3.041  13.847  0.9900 -0.9992  1.8372
  647TIP3    H223433   3.532   3.179  13.874  0.8256 -0.9342  1.8490
  648TIP3   OH223434   0.922   0.105  17.074 -0.3410  0.1109 -0.6299
  648TIP3    H123435   0.974   0.103  17.155 -0.5220  0.2566 -0.5096
  648TIP3    H223436   0.914   0.198  17.053  0.5159  0.0332 -1.3436
  649TIP3   OH223437   1.950   1.980   0.363 -0.2624  0.0557  0.0182
  649TIP3    H123438   1.862   1.955   0.389  0.3414 -2.3554 -0.0129
  649TIP3    H223439   1.980   2.039   0.432 -2.2645  1.9068 -0.5893
  650TIP3   OH223440   6.828   0.893  11.225 -0.1343 -0.0370 -0.4758
  650TIP3    H123441   6.770   0.838  11.278 -0.2428  0.5566  0.0340
  650TIP3    H223442   6.880   0.831  11.174  1.3591 -0.7665  1.7534
  651TIP3   OH223443   1.762   2.052   4.856 -0.2175  0.4329  0.1568
  651TIP3    H123444   1.818   2.070   4.780 -1.3843 -1.3204 -1.1761
  651TIP3    H223445   1.686   2.008   4.820 -2.1793  2.0752  2.0105
  652TIP3   OH223446   2.547   4.075   0.695 -0.0295  0.2082 -0.0591
  652TIP3    H123447   2.483   4.004   0.691 -0.4874  0.5173  1.0376
  652TIP3    H223448   2.494   4.153   0.714  0.5510  0.6821 -0.3598
  653TIP3   OH223449   5.374   0.580   0.768 -0.1269  0.7193  0.3395
  653TIP3    H123450   5.285   0.545   0.760 -0.3003  1.1755  0.2370
  653TIP3    H223451   5.408   0.578   0.679  0.2613 -0.2054  0.4957
  654TIP3   OH223452   2.618   5.441   3.794  0.5168  0.8181  0.3945
  654TIP3    H123453   2.561   5.454   3.718 -1.7083 -1.9620  1.4175
  654TIP3    H223454   2.700   5.411   3.756 -0.9150 -1.6951 -1.0039
  655TIP3   OH223455   4.020   6.801   5.137  0.1328  0.5083  0.2655
  655TIP3    H123456   4.110   6.816   5.165  0.1730  1.7223 -0.4265
  655TIP3    H223457   3.980   6.750   5.207  0.7946  1.6753  1.5329
  656TIP3   OH223458   5.672   6.356   3.737  0.0279 -0.0054  0.0301
  656TIP3    H123459   5.672   6.394   3.825 -4.3065 -0.6848  0.5220
  656TIP3    H223460   5.744   6.401   3.692 -0.5969  3.9417  2.4940
  657TIP3   OH223461   5.682   0.985  15.241 -0.0234  0.0108  0.1130
  657TIP3    H123462   5.734   0.913  15.206 -0.5018 -0.5207  0.4797
  657TIP3    H223463   5.698   0.983  15.335 -0.3630  0.1294  0.1736
  658TIP3   OH223464   4.957   0.014   0.723  0.3058 -0.0051 -0.4933
  658TIP3    H123465   5.041   0.050   0.751  0.4013 -0.0463 -0.7248
  658TIP3    H223466   4.938  -0.054   0.788  0.6645 -0.2929 -0.6851
  659TIP3   OH223467   6.434   3.682   5.054  0.1881 -0.5729  0.0778
  659TIP3    H123468   6.361   3.620   5.051  1.8437 -2.8680  2.1984
  659TIP3    H223469   6.400   3.758   5.102 -0.8265 -1.6379  1.1168
  660TIP3   OH223470   0.303   0.185  13.909  0.3168 -0.3289 -0.5375
  660TIP3    H123471   0.271   0.139  13.987 -0.3821 -0.5061 -0.9291
  660TIP3    H223472   0.395   0.204  13.930  1.0404 -3.0688 -0.8861
  661TIP3   OH223473   2.265   0.876  16.613  0.1454 -0.1889  0.0753
  661TIP3    H123474   2.235   0.785  16.610  2.7695 -1.1409 -0.8305
  661TIP3    H223475   2.332   0.876  16.682  0.0460  1.1259  0.1997
  662TIP3   OH223476   6.727   1.088  14.319  0.4656 -0.4632  0.6887
  662TIP3    H123477   6.664   1.075  14.389 -2.1263  2.3330 -0.9217
  662TIP3    H223478   6.767   1.173  14.338  0.2798 -0.0223 -0.7743
  663TIP3   OH223479   3.008   3.113  16.259 -0.1088 -0.7089  0.4792
  663TIP3    H123480   3.057   3.195  16.261 -2.8546  1.6119 -5.0329
  663TIP3    H223481   3.067   3.051  16.217  1.6406 -1.5174  3.8197
  664TIP3   OH223482   0.612   6.801   3.667  0.0665  0.1061  0.2941
  664TIP3    H123483   0.568   6.725   3.629 -0.3066 -0.3986  1.6701
  664TIP3    H223484   0.541   6.851   3.708  0.5922 -0.0857  1.4855
  665TIP3   OH223485   0.259   1.243   1.947 -0.5446 -0.1720  0.4525
  665TIP3    H123486   0.305   1.234   2.031  2.5850 -1.8444 -1.2665
  665TIP3    H223487   0.288   1.327   1.912 -0.0103 -0.5181  0.0528
  666TIP3   OH223488   4.487   3.019  11.851 -0.4350 -1.3706 -0.3404
  666TIP3    H123489   4.481   3.114  11.862 -0.3200 -1.3026 -0.8531
  666TIP3    H223490   4.550   2.991  11.918  0.3630 -0.9414 -0.8925
  667TIP3   OH223491   3.724   3.271   1.404 -0.3502  0.0248 -0.3299
  667TIP3    H123492   3.688   3.223   1.478  1.0540  0.4675  0.6747
  667TIP3    H223493   3.775   3.207   1.355  0.2784  0.1527  0.1563
  668TIP3   OH223494   6.168   6.567  11.339  0.8445  0.4706  0.0510
  668TIP3    H123495   6.209   6.552  11.424  0.9565  1.2609  0.1441
  668TIP3    H223496   6.239   6.559  11.275  0.3898 -2.2824 -0.2125
  669TIP3   OH223497   2.754   4.855  16.281  0.2086  0.3984 -0.6233
  669TIP3    H123498   2.683   4.919  16.281 -0.1527  0.0224 -2.1076
  669TIP3    H223499   2.833   4.905  16.259  0.9463  1.2810  3.2577
  670TIP3   OH223500   2.838   1.093  11.115  0.0747  0.2776 -0.9964
  670TIP3    H123501   2.822   1.125  11.026 -2.5659 -0.3214 -0.8309
  670TIP3    H223502   2.826   1.170  11.171 -1.0781  0.0946 -0.9761
  671TIP3   OH223503   1.936   3.164   2.174 -0.8666  0.0632  0.4141
  671TIP3    H123504   1.844   3.180   2.150 -0.3464  0.2092 -1.6363
  671TIP3    H223505   1.973   3.252   2.183 -0.5557  0.0152 -0.3503
  672TIP3   OH223506   6.600   4.474   3.090  0.3468  0.0747 -0.0661
  672TIP3    H123507   6.693   4.470   3.114  0.0056 -0.2657  1.2571
  672TIP3    H223508   6.554   4.432   3.162 -0.8053 -0.3425 -1.0089
  673TIP3   OH223509   4.652   2.868   3.001 -0.3617  0.0210 -1.3390
  673TIP3    H123510   4.628   2.855   3.093 -0.3942 -0.1845 -1.3755
  673TIP3    H223511   4.597   2.941   2.972 -1.3474 -0.7755 -1.5686
  674TIP3   OH223512   5.774   4.655  16.497 -0.6083 -0.0253  0.5008
  674TIP3    H123513   5.787   4.731  16.440 -0.4143 -0.8348 -0.5596
  674TIP3    H223514   5.687   4.668  16.534 -0.2177  1.1700  1.0744
  675TIP3   OH223515   1.695   6.680   6.200  0.0765  0.1472 -0.1505
  675TIP3    H123516   1.725   6.770   6.185  0.1074 -0.0120 -1.1499
  675TIP3    H223517   1.767   6.625   6.167 -0.1960 -0.2414 -0.1119
  676TIP3   OH223518   4.539   5.179   3.346 -0.3201  0.4685 -0.0427
  676TIP3    H123519   4.559   5.264   3.385  0.5316  0.5008 -0.5280
  676TIP3    H223520   4.538   5.118   3.419 -2.8008  1.1576  0.6110
  677TIP3   OH223521   5.942   1.329  15.778 -0.3775 -0.1997 -0.1751
  677TIP3    H123522   6.031   1.320  15.810 -0.2176 -0.4577 -0.6821
  677TIP3    H223523   5.951   1.366  15.690 -0.7281 -0.9386 -0.5316
  678TIP3   OH223524   1.347   5.572   2.822  0.1321 -0.0173  0.6984
  678TIP3    H123525   1.326   5.661   2.850  0.4056  0.3493 -0.1953
  678TIP3    H223526   1.406   5.538   2.889  0.5531  0.7242  0.7104
  679TIP3   OH223527   0.188   1.415   2.621 -0.1782 -0.4821  0.3460
  679TIP3    H123528   0.195   1.482   2.553  1.7740 -0.1175  0.8464
  679TIP3    H223529   0.228   1.337   2.583 -0.5132 -0.7434  0.5227
  680TIP3   OH223530   3.051   1.883   4.828  0.2770  0.1961 -0.4354
  680TIP3    H123531   3.142   1.906   4.809 -0.1479  1.4888 -0.9695
  680TIP3    H223532   3.018   1.956   4.881 -0.7118  0.1908 -1.0264
  681TIP3   OH223533   5.566   1.722   0.288 -0.6959  0.1032  0.5341
  681TIP3    H123534   5.641   1.778   0.266  1.3711 -2.8372 -0.5386
  681TIP3    H223535   5.539   1.751   0.375  0.6208  2.3018  0.2819
  682TIP3   OH223536   3.200   3.094  15.861 -0.3369  0.3179  0.0224
  682TIP3    H123537   3.290   3.061  15.863 -0.6559 -0.5845 -0.3188
  682TIP3    H223538   3.152   3.037  15.920 -0.5048  1.4133  0.9927
  683TIP3   OH223539   3.250   6.754  14.312 -0.1808  0.3257  0.6683
  683TIP3    H123540   3.167   6.731  14.270  1.0176 -2.7140 -0.2607
  683TIP3    H223541   3.245   6.849  14.322 -3.6803  0.2991  0.5406
  684TIP3   OH223542   3.833   5.348   2.218 -0.0782 -0.1629  0.2109
  684TIP3    H123543   3.767   5.293   2.261  1.4300 -0.5535  2.1872
  684TIP3    H223544   3.859   5.410   2.285 -1.4944  2.9342 -1.8509
  685TIP3   OH223545   4.644   6.352  14.022  0.2332 -0.1430 -0.0148
  685TIP3    H123546   4.579   6.352  13.952  0.5551 -1.3631 -0.3309
  685TIP3    H223547   4.672   6.261  14.030  2.1700  0.3797 -0.1426
  686TIP3   OH223548   5.290   6.156   2.919 -0.3178  0.6498 -0.5245
  686TIP3    H123549   5.308   6.166   3.012  2.0738  2.3360 -1.0803
  686TIP3    H223550   5.233   6.229   2.897 -1.8439 -0.3977 -0.2301
  687TIP3   OH223551   2.835   3.320  16.487  0.4614  0.3820  0.1227
  687TIP3    H123552   2.766   3.317  16.553 -1.0563  1.9949 -1.2774
  687TIP3    H223553   2.890   3.244  16.506 -1.5925 -0.8809  1.4019
  688TIP3   OH223554   2.630   5.339  10.886 -0.4714  0.4530 -0.3188
  688TIP3    H123555   2.652   5.248  10.906  1.1374  0.9625  0.3812
  688TIP3    H223556   2.627   5.343  10.790  0.0736 -0.1989 -0.3669
  689TIP3   OH223557   4.806   1.188   1.362  0.2131 -0.0754 -0.1583
  689TIP3    H123558   4.872   1.256   1.377 -0.5633  0.9916 -1.3580
  689TIP3    H223559   4.854   1.116   1.322  0.7806  0.4281 -0.4032
  690TIP3   OH223560   5.363   6.159  12.483 -0.1825  0.3234  0.4970
  690TIP3    H123561   5.451   6.195  12.475  0.5638 -1.1414  1.4807
  690TIP3    H223562   5.347   6.114  12.400  1.0913 -1.5566  1.1860
  691TIP3   OH223563   0.875   2.624   0.302 -0.0812  0.8798  0.6908
  691TIP3    H123564   0.920   2.543   0.282  0.4932  1.2118  0.6353
  691TIP3    H223565   0.817   2.601   0.375  0.3503  0.5105  0.9243
  692TIP3   OH223566   5.481   0.716  12.434  0.3282 -0.7514  0.5070
  692TIP3    H123567   5.523   0.730  12.519  2.3199  0.4439 -0.5909
  692TIP3    H223568   5.461   0.622  12.432  2.4986 -1.2929  1.3716
  693TIP3   OH223569   2.439   0.008  14.821 -0.0880  0.6382 -0.6307
  693TIP3    H123570   2.529  -0.022  14.834 -0.3743 -0.0043 -0.0270
  693TIP3    H223571   2.430   0.019  14.727  0.8038  1.3016 -0.6544
  694TIP3   OH223572   6.112   4.573   2.764 -0.4237  0.0144 -0.3079
  694TIP3    H123573   6.072   4.656   2.738  3.6451  1.8458 -1.4225
  694TIP3    H223574   6.147   4.536   2.683 -0.0830 -1.6508  0.5468
  695TIP3   OH223575   0.770   0.276  14.205  0.3532 -0.5939  0.0822
  695TIP3    H123576   0.699   0.323  14.161  1.0996  0.7766  0.3003
  695TIP3    H223577   0.770   0.189  14.164 -0.5079 -0.1317 -0.9353
  696TIP3   OH223578   4.802   0.495   2.057  0.1604 -0.0315  0.2142
  696TIP3    H123579   4.856   0.559   2.010  1.0749  0.1489  1.4656
  696TIP3    H223580   4.720   0.541   2.075  0.1933  0.2361 -0.2948
  697TIP3   OH223581   4.132   4.776  11.796 -0.1696 -0.2563 -0.6830
  697TIP3    H123582   4.220   4.790  11.831 -0.7935 -0.3414  0.9967
  697TIP3    H223583   4.136   4.812  11.707  1.5057 -0.1147 -0.5824
  698TIP3   OH223584   3.280   5.345   2.153 -0.5715 -0.3255 -0.3709
  698TIP3    H123585   3.191   5.353   2.119 -0.3521  0.2640 -0.8144
  698TIP3    H223586   3.336   5.362   2.078 -0.0676  1.6366  0.3954
  699TIP3   OH223587   6.041   4.072  16.989 -0.3058 -0.7353 -0.0753
  699TIP3    H123588   5.999   3.986  16.985 -1.3170 -0.2602 -0.2552
  699TIP3    H223589   6.055   4.095  16.897  1.6776 -1.4886  0.0095
  700TIP3   OH223590   3.474   1.489  12.793  0.0804  0.0122  0.3321
  700TIP3    H123591   3.490   1.490  12.888 -0.1932 -0.5414  0.3897
  700TIP3    H223592   3.511   1.406  12.764 -0.0143  0.0905 -0.0165
  701TIP3   OH223593   3.156   1.685   6.572  0.2141 -0.3516 -0.2012
  701TIP3    H123594   3.124   1.679   6.662  0.8310  0.9371  0.1209
  701TIP3    H223595   3.080   1.714   6.522  0.1142 -0.1482  0.0668
  702TIP3   OH223596   0.879   5.293   6.231 -0.3236  0.0610 -0.1272
  702TIP3    H123597   0.786   5.277   6.221 -0.3781  0.0943  0.3070
  702TIP3    H223598   0.886   5.352   6.306 -0.0635  1.3095 -1.1058
  703TIP3   OH223599   3.895   3.233  16.416 -0.2873 -0.2317  0.5632
  703TIP3    H123600   3.858   3.274  16.494  0.9326 -1.3034  1.7517
  703TIP3    H223601   3.822   3.182  16.379 -1.5590  2.1245 -0.4125
  704TIP3   OH223602   2.444   1.877   1.875 -0.5436 -1.1715  0.2821
  704TIP3    H123603   2.359   1.842   1.850 -0.7943 -0.8260  0.6409
  704TIP3    H223604   2.497   1.870   1.796 -1.4198  0.2138 -0.4606
  705TIP3   OH223605   6.748   0.916  12.706 -0.0007 -0.3540 -0.6532
  705TIP3    H123606   6.692   0.856  12.657  0.5191 -1.3123 -0.1196
  705TIP3    H223607   6.702   0.928  12.790 -1.1409  1.6773 -1.5011
  706TIP3   OH223608   6.674   1.942   0.703  0.6134 -0.0539 -0.3415
  706TIP3    H123609   6.756   1.895   0.721  1.2889  0.9616 -0.6950
  706TIP3    H223610   6.636   1.895   0.629  1.2577 -0.0752 -0.6689
  707TIP3   OH223611   1.523   0.760   1.156  0.2365  0.5833 -0.2184
  707TIP3    H123612   1.518   0.687   1.218 -0.1598  0.7252 -0.0820
  707TIP3    H223613   1.521   0.718   1.070  0.5330  0.4010 -0.1381
  708TIP3   OH223614   4.572   3.507  12.881  0.2768 -0.1698 -0.0917
  708TIP3    H123615   4.581   3.569  12.809  0.1010 -0.5136 -0.4186
  708TIP3    H223616   4.651   3.453  12.877 -0.7047 -1.6105 -1.4287
  709TIP3   OH223617   1.394   0.136   2.129  0.1390  0.0768 -0.0968
  709TIP3    H123618   1.317   0.136   2.072  2.1998 -0.3434 -3.1575
  709TIP3    H223619   1.423   0.227   2.131 -0.2272  0.1872  0.8240
  710TIP3   OH223620   4.326   0.579  12.948  0.1536  0.0296 -0.5979
  710TIP3    H123621   4.353   0.590  12.857  2.6354  2.2632  0.2780
  710TIP3    H223622   4.303   0.668  12.976  0.6106 -0.4044  1.2643
  711TIP3   OH223623   0.416   5.153  16.879 -0.5889  0.1607  0.0746
  711TIP3    H123624   0.357   5.135  16.806 -3.6893  2.0592  1.8789
  711TIP3    H223625   0.446   5.243  16.864 -1.2062  0.5459  1.0625
  712TIP3   OH223626   1.128   1.159   0.835 -0.4653 -0.3095 -0.2771
  712TIP3    H123627   1.203   1.133   0.889  0.0852 -0.6169 -1.1678
  712TIP3    H223628   1.146   1.250   0.812 -1.4104  0.2991  1.1984
  713TIP3   OH223629   1.111   4.278  16.069 -0.6040  0.1658  0.1316
  713TIP3    H123630   1.103   4.233  15.985  0.1723  1.9704 -0.9708
  713TIP3    H223631   1.086   4.368  16.050  0.1363  0.7399  1.7171
  714TIP3   OH223632   5.670   6.753  12.426  0.3187 -0.7796 -0.2769
  714TIP3    H123633   5.663   6.848  12.439  1.3288 -0.9042  1.5328
  714TIP3    H223634   5.580   6.721  12.434 -0.0659  0.0327 -1.1511
  715TIP3   OH223635   4.880   4.931   1.125  0.2238  0.8062 -0.2642
  715TIP3    H123636   4.847   4.855   1.173  1.0619  0.3280 -0.4154
  715TIP3    H223637   4.867   5.005   1.184 -1.0431  0.6340 -0.3030
  716TIP3   OH223638   0.650   3.284  11.211  0.0094 -0.5633 -0.4121
  716TIP3    H123639   0.620   3.291  11.120  2.3583  1.0840 -1.1650
  716TIP3    H223640   0.598   3.350  11.257  0.3698  0.1885 -1.0544
  717TIP3   OH223641   0.906   6.099  13.453  0.5602  0.7335  0.2709
  717TIP3    H123642   0.966   6.113  13.379  1.0874 -0.0194  0.5375
  717TIP3    H223643   0.960   6.115  13.531 -0.0492  1.7406  0.5046
  718TIP3   OH223644   0.791   3.705  12.584 -0.1437 -0.0898  0.4438
  718TIP3    H123645   0.699   3.722  12.604 -1.3111 -1.9713 -2.6125
  718TIP3    H223646   0.800   3.727  12.492  2.2155 -0.8854  0.4125
  719TIP3   OH223647   5.342   0.179   2.100 -0.1568  0.0828 -0.2585
  719TIP3    H123648   5.261   0.181   2.152 -0.0729 -0.8461 -0.0799
  719TIP3    H223649   5.357   0.271   2.077 -1.4905  0.2313 -0.6444
  720TIP3   OH223650   4.552   0.382  15.993  0.0338  0.3800  0.0561
  720TIP3    H123651   4.482   0.444  16.014  0.5319  0.9178  0.1678
  720TIP3    H223652   4.615   0.434  15.943  0.2600 -0.1512 -0.2170
  721TIP3   OH223653   1.364   4.368  16.398  0.5648  0.2725 -0.1131
  721TIP3    H123654   1.286   4.313  16.395  1.7737 -1.6142  0.5003
  721TIP3    H223655   1.411   4.336  16.475  1.4109  2.1269  0.1821
  722TIP3   OH223656   2.040   5.399  13.488 -0.2802 -0.1944 -1.0342
  722TIP3    H123657   1.965   5.459  13.486  0.9967  1.4680 -2.0124
  722TIP3    H223658   2.067   5.393  13.397  1.4816  0.1786 -0.5567
  723TIP3   OH223659   0.641   3.521   1.202 -0.3297  0.0836  0.1369
  723TIP3    H123660   0.659   3.456   1.134  0.6867  0.4054  0.0783
  723TIP3    H223661   0.599   3.471   1.272  1.0822 -0.8090  0.3957
  724TIP3   OH223662   6.120   1.502   2.438 -0.6159 -0.0963  0.3611
  724TIP3    H123663   6.157   1.449   2.509  0.8042  1.6982  1.0829
  724TIP3    H223664   6.033   1.466   2.423 -0.0817 -1.9713  1.4456
  725TIP3   OH223665   1.909   2.351  13.988 -0.9302  0.2192  0.3698
  725TIP3    H123666   1.918   2.432  14.037 -2.0025  0.8300 -0.3987
  725TIP3    H223667   1.891   2.285  14.056 -1.7331  0.9251  0.8720
  726TIP3   OH223668   1.667   3.209   5.446 -0.1297 -0.6006  0.2495
  726TIP3    H123669   1.644   3.117   5.441 -0.6946 -0.4886  0.7430
  726TIP3    H223670   1.759   3.212   5.422 -0.2175 -1.2431 -0.1766
  727TIP3   OH223671   3.654   1.499  16.885  0.4140  0.3338 -0.1554
  727TIP3    H123672   3.620   1.429  16.829 -1.3211  1.1114 -0.1502
  727TIP3    H223673   3.696   1.453  16.957 -1.2912 -0.7557  0.2171
  728TIP3   OH223674   2.832   0.679   4.587 -0.4181 -0.3218  0.3043
  728TIP3    H123675   2.762   0.739   4.614 -1.9454 -2.3212  0.9748
  728TIP3    H223676   2.800   0.639   4.506  0.3341 -0.6613  0.1602
  729TIP3   OH223677   4.735   3.078   3.220 -0.2779  0.1017  1.1455
  729TIP3    H123678   4.779   3.063   3.136 -0.9232  0.3378  0.7522
  729TIP3    H223679   4.750   3.171   3.238 -0.9308  0.2778  0.8135
  730TIP3   OH223680   6.380   2.425  11.896  0.3516 -0.2899 -0.1540
  730TIP3    H123681   6.377   2.517  11.867  0.7088  0.8613  3.0374
  730TIP3    H223682   6.288   2.398  11.901  0.2478 -1.4469 -4.4200
  731TIP3   OH223683   5.660   0.215  13.919 -0.3225 -0.1425  0.1369
  731TIP3    H123684   5.625   0.164  13.846  1.4348 -1.3840  0.1100
  731TIP3    H223685   5.644   0.161  13.996 -1.3805  0.7747  0.5984
  732TIP3   OH223686   3.307   5.444   5.527  0.2480 -0.2367  0.4365
  732TIP3    H123687   3.369   5.405   5.588 -0.1459 -0.5457  0.6413
  732TIP3    H223688   3.258   5.369   5.492  0.5981 -0.0897 -0.4055
  733TIP3   OH223689   0.079   3.387   5.337 -0.3853 -0.7190  0.0499
  733TIP3    H123690   0.039   3.307   5.302 -1.1515 -0.6899  0.8098
  733TIP3    H223691   0.127   3.359   5.414 -1.3316 -0.3472  0.7933
  734TIP3   OH223692   4.807   6.267  13.180 -0.0371 -0.0488  0.3426
  734TIP3    H123693   4.747   6.193  13.192  0.2951 -0.5370 -0.8913
  734TIP3    H223694   4.752   6.338  13.147 -0.3450  0.2673  1.4721
  735TIP3   OH223695   3.861   6.179  15.106  0.0233 -0.2201 -0.2219
  735TIP3    H123696   3.855   6.128  15.186 -0.4457  0.7877  0.4014
  735TIP3    H223697   3.953   6.202  15.099 -0.3324  2.1398  1.6363
  736TIP3   OH223698   0.186   1.782  17.060  0.0696  0.4132  0.1700
  736TIP3    H123699   0.108   1.835  17.042  0.7854  1.2539 -0.5561
  736TIP3    H223700   0.239   1.838  17.117 -0.8722 -1.0815  2.6888
  737TIP3   OH223701   0.356   6.156  11.010  0.5286  0.2056 -0.2232
  737TIP3    H123702   0.345   6.251  11.011  1.5072  0.3479 -1.2723
  737TIP3    H223703   0.374   6.135  10.918  0.4556 -0.9868  0.0193
  738TIP3   OH223704   2.605   1.396  11.630  0.2448  1.0963  0.4672
  738TIP3    H123705   2.652   1.359  11.555 -0.1718  1.8389 -0.1638
  738TIP3    H223706   2.661   1.375  11.705 -0.4842 -1.8023  0.3357
  739TIP3   OH223707   2.956   2.752  16.618  0.6542 -0.0513 -0.1941
  739TIP3    H123708   2.920   2.820  16.560  0.7623  0.1062 -0.0772
  739TIP3    H223709   2.963   2.675  16.562 -0.3834 -0.2409 -0.0832
  740TIP3   OH223710   2.127   3.792  11.845 -0.2582 -0.5973  0.4669
  740TIP3    H123711   2.166   3.877  11.868 -1.0251 -0.1971  0.3405
  740TIP3    H223712   2.079   3.810  11.764  0.7764 -1.5064 -0.3834
  741TIP3   OH223713   5.286   2.286  11.380  0.4569  0.3221  0.0831
  741TIP3    H123714   5.235   2.207  11.398  0.6411  0.1516 -0.1498
  741TIP3    H223715   5.351   2.260  11.315  1.1732  0.4035  0.7349
  742TIP3   OH223716   1.560   5.596   2.995 -0.2526 -0.2702 -0.0136
  742TIP3    H123717   1.635   5.593   2.936 -0.9052 -0.0546 -0.8542
  742TIP3    H223718   1.564   5.683   3.035  0.1422 -0.3875  0.2062
  743TIP3   OH223719   4.144   4.591   4.225 -0.2876  0.2433 -0.4704
  743TIP3    H123720   4.145   4.499   4.201  0.2505  0.2210 -0.3683
  743TIP3    H223721   4.093   4.594   4.306 -1.7047  0.2582 -1.3363
  744TIP3   OH223722   6.580   4.618   1.269 -0.3955  0.3175 -0.0773
  744TIP3    H123723   6.510   4.683   1.259  0.4916  1.3359  0.1861
  744TIP3    H223724   6.567   4.583   1.357  0.2822  1.5856  0.5672
  745TIP3   OH223725   3.958   3.296  15.319 -0.3386 -0.1126 -0.0827
  745TIP3    H123726   4.002   3.381  15.322  1.1196 -0.8143 -0.9261
  745TIP3    H223727   3.878   3.310  15.370  1.3189  0.9330  2.4763
  746TIP3   OH223728   0.406   5.630  14.158 -0.0676 -0.2877  0.1178
  746TIP3    H123729   0.409   5.538  14.135  1.8579 -0.3330  0.3748
  746TIP3    H223730   0.496   5.651  14.185 -1.4517  0.2114  5.6368
  747TIP3   OH223731   4.618   0.320   4.129 -0.7242  0.0124  0.2004
  747TIP3    H123732   4.692   0.319   4.068 -0.7727 -0.9330  0.1414
  747TIP3    H223733   4.580   0.232   4.122  0.7764 -1.0362  3.3853
  748TIP3   OH223734   2.282   6.457  11.478  0.5155  0.1998 -0.2341
  748TIP3    H123735   2.248   6.411  11.555 -0.3348  1.4224  0.1657
  748TIP3    H223736   2.317   6.388  11.421  0.8538 -0.7586  1.0913
  749TIP3   OH223737   2.439   1.954   4.830 -0.1363  0.5136 -0.2683
  749TIP3    H123738   2.406   2.038   4.861 -1.9381  0.4461 -1.8082
  749TIP3    H223739   2.363   1.895   4.835  0.7045 -0.6453 -0.5850
  750TIP3   OH223740   0.951   5.146   1.450  0.6187  0.6376 -0.1234
  750TIP3    H123741   0.862   5.129   1.480  1.1738 -1.0966  0.6275
  750TIP3    H223742   0.983   5.216   1.507 -0.1103  1.0227 -0.1680
  751TIP3   OH223743   3.552   3.848  10.275  0.6631 -0.8818  0.1802
  751TIP3    H123744   3.549   3.760  10.313 -0.0654 -0.7032  0.5636
  751TIP3    H223745   3.618   3.894  10.327  1.0125 -1.1881  0.0091
  752TIP3   OH223746   0.807   1.234   3.489 -0.3924 -0.1598 -0.5120
  752TIP3    H123747   0.800   1.282   3.407 -0.8334 -0.0452 -0.4077
  752TIP3    H223748   0.884   1.272   3.532 -0.9026  0.6541 -0.3002
  753TIP3   OH223749   3.821   1.042  12.211 -0.1752 -0.3453  0.1509
  753TIP3    H123750   3.865   1.105  12.268  2.7424 -1.3505 -0.8195
  753TIP3    H223751   3.755   1.000  12.267 -0.0795  1.3847  1.6376
  754TIP3   OH223752   3.252   3.714  13.529 -0.2424 -0.3051 -0.0324
  754TIP3    H123753   3.275   3.626  13.500 -0.7420 -0.3504 -0.2867
  754TIP3    H223754   3.157   3.715  13.534 -0.2218  0.0610  0.4874
  755TIP3   OH223755   1.783   1.896  11.060 -0.4125 -0.2924 -0.6535
  755TIP3    H123756   1.761   1.938  11.143 -1.5360 -1.1334 -0.4990
  755TIP3    H223757   1.796   1.968  10.999  0.4602  0.3376  0.2459
  756TIP3   OH223758   1.453   1.735   0.954  0.7108 -0.2433 -0.0782
  756TIP3    H123759   1.405   1.788   1.017  2.0778 -0.2967  1.0437
  756TIP3    H223760   1.438   1.779   0.870  0.6624  1.1265  0.6151
  757TIP3   OH223761   6.560   1.742  15.902 -0.3224  0.1124  0.0817
  757TIP3    H123762   6.642   1.785  15.879 -0.9780  2.5889  1.9997
  757TIP3    H223763   6.587   1.663  15.949  0.9975  0.8096  0.5484
  758TIP3   OH223764   5.725   5.684   1.416 -0.1597 -0.3429  0.2852
  758TIP3    H123765   5.797   5.639   1.371  0.1326 -1.1665  1.5320
  758TIP3    H223766   5.752   5.776   1.419  1.0038 -0.6850  1.0098
  759TIP3   OH223767   5.894   0.535  15.387  0.1955 -0.2783  0.2360
  759TIP3    H123768   5.977   0.581  15.376  0.0019 -0.4157 -2.4200
  759TIP3    H223769   5.907   0.451  15.345 -1.3705 -0.1628 -0.5763
  760TIP3   OH223770   2.242   3.584  15.080  0.4590 -0.3593 -0.0655
  760TIP3    H123771   2.170   3.559  15.023 -0.2416 -1.2284  1.1570
  760TIP3    H223772   2.292   3.648  15.029 -3.1046  3.0762  0.2157
  761TIP3   OH223773   1.668   4.827  10.311 -0.2134 -0.0600  0.5344
  761TIP3    H123774   1.728   4.881  10.361  1.2621  0.4353 -1.6144
  761TIP3    H223775   1.697   4.737  10.329  0.1581  0.0985  0.7527
  762TIP3   OH223776   5.111   1.928   1.214 -0.2598  0.2104 -0.9777
  762TIP3    H123777   5.134   1.835   1.205 -1.4447 -0.2641  0.4121
  762TIP3    H223778   5.089   1.937   1.307  1.1397  2.2072 -0.7930
  763TIP3   OH223779   3.262   4.737   1.528 -0.0273  0.4581  0.4381
  763TIP3    H123780   3.233   4.820   1.491 -0.7425  0.1109  0.2137
  763TIP3    H223781   3.352   4.755   1.557 -0.4779  1.5697  1.2465
  764TIP3   OH223782   4.752   3.386  10.294 -0.1375  0.3063  0.0693
  764TIP3    H123783   4.795   3.302  10.275 -2.0795 -0.7312 -0.0317
  764TIP3    H223784   4.722   3.417  10.208 -0.1119  0.7269  0.2122
  765TIP3   OH223785   3.555   3.451  13.581 -0.0916 -0.3036  0.7568
  765TIP3    H123786   3.565   3.376  13.640 -0.5805 -0.2661  0.8879
  765TIP3    H223787   3.478   3.498  13.613 -0.8184 -0.6925 -0.3464
  766TIP3   OH223788   5.005   4.039  16.149  0.2190 -0.2597  0.1304
  766TIP3    H123789   5.036   4.028  16.059 -0.5805  0.5246 -0.2622
  766TIP3    H223790   4.916   4.004  16.148 -0.3204  1.0274  0.2370
  767TIP3   OH223791   1.623   3.288   5.708 -0.2689 -0.5678  0.6009
  767TIP3    H123792   1.659   3.259   5.624 -1.0623 -1.6099  0.5958
  767TIP3    H223793   1.567   3.362   5.686 -1.2050 -1.4061  0.0502
  768TIP3   OH223794   2.094   1.379   3.130 -0.5194  0.2374 -0.3757
  768TIP3    H123795   2.096   1.414   3.219 -0.2763  0.4069 -0.4457
  768TIP3    H223796   2.069   1.287   3.140 -1.5860  0.5317 -0.2254
  769TIP3   OH223797   1.622   0.810  10.898 -0.0018  0.0716  0.0597
  769TIP3    H123798   1.599   0.777  10.811  1.3971 -0.9934  0.0719
  769TIP3    H223799   1.707   0.853  10.886  0.6023 -0.8062  1.0472
  770TIP3   OH223800   0.374   2.256   4.007 -0.4087 -0.1140 -0.4824
  770TIP3    H123801   0.460   2.294   4.019 -0.2647 -0.1847 -1.2236
  770TIP3    H223802   0.315   2.331   3.998 -0.5765 -0.0586  0.9599
  771TIP3   OH223803   0.357   0.280  11.604 -0.3470 -0.1132  0.5671
  771TIP3    H123804   0.410   0.207  11.572 -1.7406 -1.0444  0.2619
  771TIP3    H223805   0.412   0.323  11.669  1.5069  0.1479 -1.0688
  772TIP3   OH223806   0.169   1.546   4.950  0.0424  0.2225 -0.0211
  772TIP3    H123807   0.127   1.532   4.866 -0.7682 -1.6945  0.6330
  772TIP3    H223808   0.102   1.525   5.015  0.5016  2.1045  1.1411
  773TIP3   OH223809   1.868   1.069   0.342 -0.1126 -0.2153 -0.5931
  773TIP3    H123810   1.962   1.082   0.351 -0.1415 -0.5595  0.2480
  773TIP3    H223811   1.839   1.142   0.287  0.0305  2.2445  2.2991
  774TIP3   OH223812   5.622   4.337  12.030 -0.0898  0.1010 -0.1416
  774TIP3    H123813   5.530   4.318  12.011 -1.1774  1.3229  3.1145
  774TIP3    H223814   5.654   4.258  12.074  0.7296 -0.6301 -1.9675
  775TIP3   OH223815   5.358   0.597   1.665 -0.1932  0.1088  0.5361
  775TIP3    H123816   5.325   0.631   1.748 -1.5403 -0.5321  0.2777
  775TIP3    H223817   5.445   0.564   1.686 -1.4151 -2.3010  2.2949
  776TIP3   OH223818   5.432   4.716   0.978  0.0268 -0.3561  0.0691
  776TIP3    H123819   5.486   4.654   0.930  0.0110 -0.5555  0.3051
  776TIP3    H223820   5.493   4.761   1.037  0.0063 -0.2774  0.0305
  777TIP3   OH223821   2.489   6.176   0.196 -0.1137 -0.3437 -0.1309
  777TIP3    H123822   2.394   6.162   0.194 -0.1076 -0.5439  0.5761
  777TIP3    H223823   2.517   6.136   0.279  0.4993  0.2547 -0.0416
  778TIP3   OH223824   0.123   2.058  12.316  0.0818  0.4405 -0.0221
  778TIP3    H123825   0.123   2.006  12.235  0.9288  0.3477  0.0339
  778TIP3    H223826   0.104   1.994  12.385  1.9464  0.0121  0.1482
  779TIP3   OH223827   3.553   5.485  16.677 -0.0554  0.1863 -0.0187
  779TIP3    H123828   3.609   5.557  16.707 -1.1571  1.7966 -1.6152
  779TIP3    H223829   3.566   5.416  16.742  2.3985  1.1503  0.6161
  780TIP3   OH223830   1.553   3.805   4.816  0.0162 -0.5860 -0.1920
  780TIP3    H123831   1.491   3.783   4.885  0.0867 -0.2056 -0.0052
  780TIP3    H223832   1.575   3.897   4.832  2.0490 -1.1972  0.8646
  781TIP3   OH223833   0.987   4.876   4.014  0.1307  0.2439  0.0043
  781TIP3    H123834   1.071   4.835   4.035  0.0067 -0.1092 -0.1879
  781TIP3    H223835   1.010   4.948   3.955  0.3249  0.3049  0.1551
  782TIP3   OH223836   5.409   2.237  13.797 -0.1238 -0.7360  0.7510
  782TIP3    H123837   5.447   2.256  13.883 -0.6265 -1.9957  1.2761
  782TIP3    H223838   5.370   2.150  13.807  1.7854 -1.9271 -1.3972
  783TIP3   OH223839   2.047   3.365  15.607  0.6949  0.3696  0.4881
  783TIP3    H123840   1.952   3.354  15.606  0.6204  0.9803 -0.6299
  783TIP3    H223841   2.065   3.412  15.688  0.0231  0.4783  0.5777
  784TIP3   OH223842   2.031   6.517   0.638  0.1176 -0.1437  0.6095
  784TIP3    H123843   2.096   6.580   0.669  0.3428  0.0969 -0.3107
  784TIP3    H223844   1.947   6.562   0.649  0.3277  0.6690 -0.7587
  785TIP3   OH223845   1.892   3.721  13.861 -0.3618  0.2110 -0.0689
  785TIP3    H123846   1.941   3.724  13.944  0.3289 -1.1494 -0.3957
  785TIP3    H223847   1.960   3.730  13.794 -0.2069 -3.5141 -0.5857
  786TIP3   OH223848   1.197   1.494   4.668 -0.0209 -0.0221  0.6378
  786TIP3    H123849   1.182   1.420   4.609  0.4848  0.0540  0.4174
  786TIP3    H223850   1.265   1.546   4.626  0.1860  0.1512  1.1759
  787TIP3   OH223851   5.265   3.654   5.829 -0.2388  0.3635 -0.0146
  787TIP3    H123852   5.186   3.635   5.879 -0.0714  1.3700  0.6527
  787TIP3    H223853   5.305   3.569   5.813 -1.5528 -0.1841 -0.5380
  788TIP3   OH223854   5.114   3.765  10.503  0.0879 -0.2723  0.4154
  788TIP3    H123855   5.167   3.691  10.533 -0.0704 -0.5052  0.1268
  788TIP3    H223856   5.177   3.836  10.490  0.0162  0.2116  2.4577
  789TIP3   OH223857   6.498   5.036   4.176 -0.0413  0.2620  0.3989
  789TIP3    H123858   6.539   5.120   4.196  3.7634 -0.9283 -1.3559
  789TIP3    H223859   6.424   5.059   4.120  1.1239  2.4961 -0.3760
  790TIP3   OH223860   5.611   5.864  14.304  0.6907  0.0205  0.1640
  790TIP3    H123861   5.613   5.946  14.352  0.6864  0.0170  0.1705
  790TIP3    H223862   5.534   5.872  14.246 -0.2603 -0.6217  1.3022
  791TIP3   OH223863   2.288   3.839   5.327 -0.3765  0.5123  0.2917
  791TIP3    H123864   2.317   3.772   5.390  0.1393  2.8241  2.6770
  791TIP3    H223865   2.366   3.892   5.311 -0.8584  0.7992 -1.2641
  792TIP3   OH223866   6.034   2.916  14.018  0.0025  0.1475  0.7599
  792TIP3    H123867   6.106   2.861  13.988  0.0718  0.2276  0.7811
  792TIP3    H223868   5.960   2.856  14.025 -0.2523  0.3039 -0.4395
  793TIP3   OH223869   2.230   1.151   5.385  0.4303 -0.5926 -0.0488
  793TIP3    H123870   2.248   1.238   5.350  0.9502  0.0452  1.6897
  793TIP3    H223871   2.142   1.157   5.421 -0.2584 -1.3592 -1.4917
  794TIP3   OH223872   4.744   1.222   5.536  0.1166  0.5277  0.4895
  794TIP3    H123873   4.727   1.161   5.608 -1.3202  1.2162  0.7716
  794TIP3    H223874   4.710   1.306   5.567  1.2847  1.2990 -0.2320
  795TIP3   OH223875   1.354   5.774  15.908  0.3130  0.2293 -0.6477
  795TIP3    H123876   1.286   5.841  15.917  1.4426  1.2669  0.4720
  795TIP3    H223877   1.311   5.693  15.934 -0.3063  1.0020  0.8353
  796TIP3   OH223878   0.974   6.436   3.868  0.0600  0.4032  0.0282
  796TIP3    H123879   1.030   6.374   3.914 -2.8582 -0.7889  2.3634
  796TIP3    H223880   0.997   6.522   3.904  0.8261  0.0248  0.4516
  797TIP3   OH223881   3.924   0.550  14.723 -0.7277  0.5266 -0.4750
  797TIP3    H123882   3.850   0.544  14.784 -0.3745  0.7353 -0.0256
  797TIP3    H223883   3.884   0.574  14.639 -1.1721  0.6194 -0.2388
  798TIP3   OH223884   3.660   1.560   0.974 -0.1693 -0.0205  0.0950
  798TIP3    H123885   3.606   1.591   1.047  0.1107  3.0782 -0.8753
  798TIP3    H223886   3.603   1.568   0.898  0.7904  0.7588 -0.5633
  799TIP3   OH223887   4.032   5.416   4.653  0.6149  0.1070  0.0002
  799TIP3    H123888   4.089   5.442   4.725  2.3030 -1.2188 -0.7712
  799TIP3    H223889   3.971   5.353   4.692 -0.6312  1.8287  0.9197
  800TIP3   OH223890   2.335   1.313  11.700  0.2930  0.4503  0.8498
  800TIP3    H123891   2.303   1.350  11.617  0.6474 -1.5868 -0.2620
  800TIP3    H223892   2.430   1.307  11.689  0.0921 -2.8316 -0.0100
  801TIP3   OH223893   3.277   1.104   2.930 -0.1113  0.8642  0.1438
  801TIP3    H123894   3.353   1.061   2.892  1.0457  1.0289  2.1229
  801TIP3    H223895   3.202   1.063   2.887  1.0544  0.4692 -1.6311
  802TIP3   OH223896   5.869   5.583  13.280  0.8995  0.0396  0.2428
  802TIP3    H123897   5.817   5.505  13.300  1.8133 -0.1741  2.0485
  802TIP3    H223898   5.937   5.551  13.220  0.3928 -0.2257 -0.1929
  803TIP3   OH223899   3.782   3.624   0.841 -0.3865  0.0169  0.2110
  803TIP3    H123900   3.814   3.695   0.785  1.0746 -0.6827  0.1122
  803TIP3    H223901   3.699   3.656   0.875 -0.3155  1.2972 -0.7472
  804TIP3   OH223902   4.680   4.112   3.674 -0.2404  0.1897  0.0630
  804TIP3    H123903   4.725   4.173   3.732 -0.4838  0.6996 -0.2772
  804TIP3    H223904   4.730   4.114   3.593  0.0169 -0.4161  0.2061
  805TIP3   OH223905   6.546   0.930   0.389  0.7079 -0.3435 -0.0161
  805TIP3    H123906   6.557   0.959   0.299  1.1923  0.4781  0.2965
  805TIP3    H223907   6.625   0.959   0.434  0.6891 -1.1661  0.5732
  806TIP3   OH223908   5.625   3.931   0.979  0.0058  0.0318  0.4645
  806TIP3    H123909   5.639   3.970   1.066 -1.3365  1.8760 -0.0889
  806TIP3    H223910   5.533   3.948   0.959 -0.8302 -3.7228  0.2293
  807TIP3   OH223911   1.974   4.720  15.983 -0.8349 -0.3060 -0.2575
  807TIP3    H123912   1.942   4.719  15.893 -4.7020  1.7319  0.8359
  807TIP3    H223913   2.005   4.809  15.997  0.5053 -0.8290  0.2623
  808TIP3   OH223914   0.826   1.115  16.864 -0.0641 -0.8240 -0.1752
  808TIP3    H123915   0.882   1.151  16.795 -0.4789  1.2984  0.5152
  808TIP3    H223916   0.740   1.106  16.823  0.0094 -0.8708 -0.3188
  809TIP3   OH223917   5.833   2.560  16.092 -0.4271 -0.1645 -0.3673
  809TIP3    H123918   5.813   2.541  16.183 -0.9660 -3.1702 -1.0069
  809TIP3    H223919   5.750   2.593  16.056 -0.8248 -0.9540 -0.2069
  810TIP3   OH223920   5.959   4.865  16.812 -0.2477  0.6835 -0.1784
  810TIP3    H123921   6.016   4.933  16.848  1.1848  0.0334 -1.1283
  810TIP3    H223922   5.873   4.906  16.807  0.5048  2.2986 -0.3719
  811TIP3   OH223923   3.245   5.001  14.475  0.0994 -0.2587  0.5212
  811TIP3    H123924   3.156   5.010  14.441  0.0341 -0.9381  0.4918
  811TIP3    H223925   3.284   4.933  14.420  0.5376 -0.1688  0.7215
  812TIP3   OH223926   0.380   2.064   3.500  1.0147 -0.1684 -0.1513
  812TIP3    H123927   0.420   2.114   3.571  0.1587  0.2440  0.0599
  812TIP3    H223928   0.433   2.085   3.423 -0.7816  3.1951 -0.6650
  813TIP3   OH223929   5.443   3.537   1.049 -0.2435  0.1401  0.0317
  813TIP3    H123930   5.530   3.522   1.087  0.0330 -1.0621 -1.0200
  813TIP3    H223931   5.461   3.559   0.957 -0.9210  2.5561  0.4061
  814TIP3   OH223932   3.417   4.860  12.490 -0.6402 -0.1392  0.0865
  814TIP3    H123933   3.461   4.914  12.423  0.4309 -0.9127  0.1461
  814TIP3    H223934   3.396   4.779  12.445 -4.3008  1.0326 -0.6703
  815TIP3   OH223935   1.692   0.892  14.132  0.0386 -0.0668  0.0150
  815TIP3    H123936   1.784   0.866  14.141  0.6836  2.4592  1.6144
  815TIP3    H223937   1.692   0.951  14.056 -0.0531  0.6676  0.5746
  816TIP3   OH223938   2.232   0.060   2.328  0.2492  0.3088  0.0047
  816TIP3    H123939   2.204   0.150   2.310 -0.2674 -0.0159 -0.8793
  816TIP3    H223940   2.223   0.051   2.423 -3.2984  0.0538 -0.2241
  817TIP3   OH223941   2.752   6.720  15.712  0.0530 -0.0244  0.7202
  817TIP3    H123942   2.843   6.696  15.698  0.4532  1.0999  1.2355
  817TIP3    H223943   2.720   6.745  15.626  0.3786  0.0406  0.6161
  818TIP3   OH223944   4.863   4.676  16.819  0.8927  0.2162 -0.3038
  818TIP3    H123945   4.876   4.766  16.848  1.3571 -0.2027  0.8227
  818TIP3    H223946   4.899   4.674  16.730  0.8088  1.1511 -0.3621
  819TIP3   OH223947   3.967   4.375  12.884 -0.6718 -1.0867  0.1217
  819TIP3    H123948   4.048   4.380  12.933 -0.9605 -0.4658  0.5430
  819TIP3    H223949   3.989   4.326  12.805  0.3587 -0.0452 -0.2626
  820TIP3   OH223950   4.484   1.853   4.350  0.3039 -0.0588  0.4588
  820TIP3    H123951   4.540   1.831   4.425  0.8330  2.3121  0.8561
  820TIP3    H223952   4.544   1.887   4.284 -0.3465 -0.5215 -0.3869
  821TIP3   OH223953   5.101   3.199   0.071 -0.4255 -0.1552  0.3203
  821TIP3    H123954   5.119   3.291   0.054  0.4360 -0.3998 -0.1940
  821TIP3    H223955   5.177   3.153   0.034 -0.6927 -1.0437  0.8493
  822TIP3   OH223956   5.433   2.123   0.245 -0.5618 -0.0048  0.5739
  822TIP3    H123957   5.493   2.139   0.172  0.1250  0.9943  1.3241
  822TIP3    H223958   5.369   2.194   0.240  0.2996  0.8982  1.7222
  823TIP3   OH223959   6.487   2.307  14.775  0.7365 -0.2479  0.1573
  823TIP3    H123960   6.398   2.272  14.770 -0.2914  2.1318  0.1151
  823TIP3    H223961   6.528   2.280  14.693 -0.6739  0.3492 -0.7872
  824TIP3   OH223962   2.698   3.350  15.725 -0.4289  0.2560  0.2789
  824TIP3    H123963   2.789   3.348  15.694 -1.0631  2.7108 -2.1795
  824TIP3    H223964   2.700   3.407  15.801  0.0128  0.7239 -0.0781
  825TIP3   OH223965   6.001   5.306   4.052  0.2762  0.3034 -0.0196
  825TIP3    H123966   5.929   5.284   3.993  0.7962 -0.3962 -0.4089
  825TIP3    H223967   6.059   5.361   4.000 -0.2646  1.3794  0.4837
  826TIP3   OH223968   2.162   5.921  10.937  0.0286  0.0110 -0.1385
  826TIP3    H123969   2.167   6.011  10.905 -1.5485  0.2658  0.2576
  826TIP3    H223970   2.115   5.874  10.869  1.2783 -0.6552 -0.5734
  827TIP3   OH223971   0.512   3.312   6.179 -0.0143 -0.3762  0.0376
  827TIP3    H123972   0.429   3.273   6.150  0.8073 -2.4141  0.2376
  827TIP3    H223973   0.497   3.406   6.176 -2.4908 -0.6795  0.5019
  828TIP3   OH223974   1.975   2.848  16.396  0.0317  0.7711  0.6456
  828TIP3    H123975   1.922   2.777  16.359 -0.9796  0.9667  1.6701
  828TIP3    H223976   1.959   2.922  16.337  1.9154 -0.0780 -1.0373
  829TIP3   OH223977   5.602   3.676  15.870  0.7050  0.4330  0.1332
  829TIP3    H123978   5.558   3.757  15.846 -1.3047 -0.5485  0.3035
  829TIP3    H223979   5.654   3.698  15.947 -1.4357  1.1508  1.4784
  830TIP3   OH223980   4.279   1.696   3.585 -0.0262  0.3034 -0.1907
  830TIP3    H123981   4.237   1.714   3.500  0.0976 -2.8662 -1.0378
  830TIP3    H223982   4.207   1.698   3.648 -0.8545 -1.1190 -1.0236
  831TIP3   OH223983   1.702   0.179   4.993  0.3856 -0.1786 -0.2199
  831TIP3    H123984   1.745   0.264   5.001 -1.0564  0.6259 -0.6412
  831TIP3    H223985   1.718   0.153   4.902  2.2380 -1.1851  0.3495
  832TIP3   OH223986   2.444   5.419  16.963 -0.3588 -0.7373  0.0038
  832TIP3    H123987   2.483   5.332  16.961 -0.8676 -0.9675 -0.0330
  832TIP3    H223988   2.476   5.459  17.044  0.3152 -0.7483 -0.2497
  833TIP3   OH223989   2.455   2.020   3.050 -0.0768  0.3599 -0.9226
  833TIP3    H123990   2.421   2.086   2.990  2.1811  0.9414 -1.6783
  833TIP3    H223991   2.537   1.991   3.010 -0.5633 -2.3166 -0.1708
  834TIP3   OH223992   1.342   4.638   1.482  0.3751  0.2679  0.2441
  834TIP3    H123993   1.317   4.549   1.508  2.4166 -0.3741  0.2016
  834TIP3    H223994   1.427   4.627   1.439  0.2107  2.1410 -0.6431
  835TIP3   OH223995   6.343   0.186   2.383  0.2160 -0.1093 -0.6583
  835TIP3    H123996   6.282   0.115   2.366 -0.2776 -0.2262  1.3605
  835TIP3    H223997   6.296   0.265   2.359 -0.6982 -0.2099  0.7414
  836TIP3   OH223998   4.813   4.423  11.594  0.4799 -0.1440  0.0593
  836TIP3    H123999   4.776   4.463  11.515 -0.0890 -1.9175 -0.6353
  836TIP3    H224000   4.773   4.336  11.597  0.7742 -0.2511  2.1277
  837TIP3   OH224001   6.227   4.109  16.358  0.1483 -0.3791 -0.6622
  837TIP3    H124002   6.232   4.020  16.324  1.8088 -0.2570 -0.8183
  837TIP3    H224003   6.306   4.119  16.412 -1.2227  0.2014  1.3677
  838TIP3   OH224004   1.630   1.159  15.135 -0.1546  0.4039  0.0218
  838TIP3    H124005   1.602   1.211  15.210 -2.9654 -3.0361  1.6811
  838TIP3    H224006   1.607   1.213  15.059 -0.3359  2.6477  1.5653
  839TIP3   OH224007   3.670   6.218   2.061  0.3575  0.6182  0.0389
  839TIP3    H124008   3.629   6.295   2.020  1.0960  0.6492 -0.6620
  839TIP3    H224009   3.642   6.222   2.153 -1.0335  0.7508 -0.3636
  840TIP3   OH224010   2.469   1.864  11.668  0.4963 -0.0116  0.0429
  840TIP3    H124011   2.441   1.847  11.578 -0.5854  0.2963  0.3043
  840TIP3    H224012   2.563   1.846  11.668  0.4800 -0.1691 -1.1075
  841TIP3   OH224013   0.511   4.872  16.902  0.3579 -0.0665  0.1348
  841TIP3    H124014   0.484   4.820  16.977 -1.3724 -0.0681 -0.4475
  841TIP3    H224015   0.460   4.953  16.909 -0.1626 -0.2422 -1.2308
  842TIP3   OH224016   1.601   1.837   4.303 -0.3373  0.6568 -0.1519
  842TIP3    H124017   1.575   1.895   4.375  2.0631  1.6650 -0.0186
  842TIP3    H224018   1.670   1.782   4.340 -0.6303 -0.3606 -1.0844
  843TIP3   OH224019   0.411   5.942  16.092 -0.4453 -0.1330  0.1131
  843TIP3    H124020   0.499   5.910  16.072 -1.0424  0.1336 -3.5290
  843TIP3    H224021   0.376   5.878  16.154  1.8031 -0.9908  0.5918
  844TIP3   OH224022   5.601   5.256  17.029 -0.0222 -0.7173 -0.0957
  844TIP3    H124023   5.582   5.344  17.062  1.2729  0.0859 -1.3348
  844TIP3    H224024   5.537   5.242  16.960 -0.0965 -0.6484 -0.0387
  845TIP3   OH224025   6.182   0.363  15.470  0.0894  0.1578 -0.3288
  845TIP3    H124026   6.171   0.270  15.486 -2.2568  0.7496  2.0963
  845TIP3    H224027   6.097   0.392  15.438  0.2218  1.7737  0.6982
  846TIP3   OH224028   2.612   0.555  13.608 -0.0607 -0.0380 -0.1084
  846TIP3    H124029   2.577   0.489  13.548 -0.3963 -0.1423  0.1971
  846TIP3    H224030   2.565   0.635  13.586  0.8454  0.2762 -0.9497
  847TIP3   OH224031   1.363   5.983   2.528 -0.0833 -0.6277 -0.1884
  847TIP3    H124032   1.282   5.956   2.484 -1.1215  0.6252  0.8576
  847TIP3    H224033   1.339   5.988   2.621  1.4316 -1.0023  0.2598
  848TIP3   OH224034   0.976   2.934  15.346 -0.1566 -0.3074  0.0261
  848TIP3    H124035   0.900   2.933  15.404 -0.5047  1.0485 -0.3640
  848TIP3    H224036   0.960   2.864  15.283  0.1033 -1.6253  1.3695
  849TIP3   OH224037   2.563   0.403  13.379  0.6104 -0.3168  0.0169
  849TIP3    H124038   2.568   0.314  13.412 -0.3774 -0.6449 -0.6675
  849TIP3    H224039   2.473   0.412  13.347  1.3620  0.1007 -2.1803
  850TIP3   OH224040   1.874   1.294   2.644 -0.0349  0.7623 -0.0730
  850TIP3    H124041   1.945   1.322   2.586  0.0390 -2.4052 -1.7400
  850TIP3    H224042   1.800   1.280   2.585 -0.3836 -1.1984  0.7458
  851TIP3   OH224043   5.593   0.393   2.794 -0.7281 -0.4617  0.2105
  851TIP3    H124044   5.664   0.406   2.731 -0.4657 -0.3680  0.5211
  851TIP3    H224045   5.633   0.342   2.865 -1.2587 -1.3843 -0.1283
  852TIP3   OH224046   1.896   3.290  12.597 -0.5573  0.1960 -0.0397
  852TIP3    H124047   1.881   3.195  12.605  1.9256 -0.4189 -1.5320
  852TIP3    H224048   1.893   3.306  12.503  1.0557  1.1958  0.0556
  853TIP3   OH224049   3.529   0.475   0.742 -0.1222 -0.3678 -0.0687
  853TIP3    H124050   3.530   0.414   0.668 -0.1691 -0.0463 -0.3414
  853TIP3    H224051   3.584   0.434   0.808 -0.6629 -0.9942 -0.0077
  854TIP3   OH224052   3.286   3.484  13.711  0.3233 -0.2677 -0.1196
  854TIP3    H124053   3.305   3.553  13.775  0.6132  1.7983 -2.2740
  854TIP3    H224054   3.196   3.458  13.730 -0.1674  1.4592  0.1668
  855TIP3   OH224055   2.050   5.921  12.478  0.4897  0.1817 -0.5028
  855TIP3    H124056   1.978   5.896  12.535  0.9356 -0.6586 -0.2851
  855TIP3    H224057   2.019   6.000  12.433  0.3166  1.1354  1.2265
  856TIP3   OH224058   2.675   2.401  16.832 -0.3273 -0.2921 -1.0063
  856TIP3    H124059   2.648   2.450  16.755 -1.0834 -0.9725 -1.1847
  856TIP3    H224060   2.760   2.363  16.808 -0.9837 -1.2657 -1.8622
  857TIP3   OH224061   6.522   4.718   0.786 -0.1490  0.1006  0.0853
  857TIP3    H124062   6.482   4.789   0.837 -2.4648 -1.0086 -0.0591
  857TIP3    H224063   6.505   4.741   0.695 -2.0004 -1.1353  0.0573
  858TIP3   OH224064   6.254   0.482  12.391 -0.1079 -0.2954 -0.2943
  858TIP3    H124065   6.271   0.567  12.349 -0.2393 -0.2377 -0.2311
  858TIP3    H224066   6.299   0.419  12.336  0.9208 -0.0694  0.2687
  859TIP3   OH224067   4.237   3.954   4.508  0.0568  0.4898  0.3925
  859TIP3    H124068   4.307   4.009   4.542 -0.8539  1.3895  0.8873
  859TIP3    H224069   4.216   3.896   4.581 -0.7121  1.2374  0.7826
  860TIP3   OH224070   5.208   4.034  12.673  0.4129 -0.1852  0.1992
  860TIP3    H124071   5.213   3.990  12.758  0.5552 -0.2664  0.1490
  860TIP3    H224072   5.295   4.071  12.661  0.4637 -0.3733 -0.0195
  861TIP3   OH224073   0.741   5.638  16.350  0.6514 -0.2565 -0.1176
  861TIP3    H124074   0.675   5.628  16.418  0.0600  0.2589 -0.5979
  861TIP3    H224075   0.718   5.571  16.285  1.8503 -1.4636  0.6677
  862TIP3   OH224076   0.183   1.097  12.076 -0.1193 -0.4778  0.0551
  862TIP3    H124077   0.266   1.117  12.120 -0.1742  0.7062 -0.3493
  862TIP3    H224078   0.134   1.179  12.078  0.3107 -0.0006 -3.1617
  863TIP3   OH224079   6.319   3.212   2.141  0.3440 -0.1354 -0.6807
  863TIP3    H124080   6.381   3.166   2.084  0.8376 -0.8535  0.3850
  863TIP3    H224081   6.242   3.154   2.144  0.8187 -0.7550  0.3606
  864TIP3   OH224082   2.888   4.957   0.877 -0.2765 -0.2433  0.3127
  864TIP3    H124083   2.864   4.966   0.785  1.0788  0.0294 -0.0349
  864TIP3    H224084   2.808   4.978   0.925 -0.7268  0.6152 -0.7747
  865TIP3   OH224085   1.569   5.045   5.002 -0.9413 -0.2786  0.2509
  865TIP3    H124086   1.631   4.984   4.961 -0.4859  0.8876 -0.8955
  865TIP3    H224087   1.521   5.083   4.928 -2.1809 -0.2662  1.0425
  866TIP3   OH224088   1.229   5.368  15.908 -0.0535 -0.2939 -0.3051
  866TIP3    H124089   1.161   5.383  15.843 -1.6296  2.9954  1.7793
  866TIP3    H224090   1.192   5.302  15.967 -1.6474  1.5367  0.8651
  867TIP3   OH224091   5.511   4.180   5.502  0.3630 -0.5797 -0.5324
  867TIP3    H124092   5.499   4.262   5.454  0.5959 -0.5704 -0.5753
  867TIP3    H224093   5.595   4.190   5.546  0.0803 -0.5220  0.0068
  868TIP3   OH224094   4.258   0.849  12.994 -0.2104 -0.2933  0.5291
  868TIP3    H124095   4.298   0.860  12.908 -1.8228 -1.4664 -0.4343
  868TIP3    H224096   4.253   0.938  13.029  0.9022  0.1517 -0.3704
  869TIP3   OH224097   6.807   4.930   3.194  0.4616  0.0667 -0.0358
  869TIP3    H124098   6.762   4.920   3.278  1.4145 -0.5526  0.4138
  869TIP3    H224099   6.786   4.850   3.146  1.1281 -0.2517  0.1999
  870TIP3   OH224100   2.157   6.605   2.555  0.3626 -0.1310 -0.0813
  870TIP3    H124101   2.205   6.523   2.549 -2.5777 -2.0290  0.2981
  870TIP3    H224102   2.142   6.632   2.464 -1.7380 -2.0638 -0.3895
  871TIP3   OH224103   6.239   1.486  11.577  0.6577  0.3561 -0.0476
  871TIP3    H124104   6.175   1.438  11.524 -0.4937  2.2446 -0.4363
  871TIP3    H224105   6.323   1.448  11.551 -0.0271 -0.0506 -1.8571
  872TIP3   OH224106   1.434   3.404  15.357  0.3310 -0.4612 -0.0925
  872TIP3    H124107   1.450   3.481  15.302  1.4835 -0.8323 -0.3132
  872TIP3    H224108   1.433   3.440  15.446  0.8417 -0.1787 -0.1940
  873TIP3   OH224109   0.056   0.967   2.406  0.2427  0.2325  0.5017
  873TIP3    H124110   0.122   0.907   2.372 -2.0349 -2.0453 -0.2015
  873TIP3    H224111   0.064   1.045   2.351 -0.7903 -1.8667 -2.9638
  874TIP3   OH224112   4.143   5.202  14.047  0.0585  0.1655 -0.6577
  874TIP3    H124113   4.175   5.261  13.978 -0.1342 -0.5217 -1.3427
  874TIP3    H224114   4.215   5.140  14.060  0.3120  0.6109  0.1564
  875TIP3   OH224115   1.443   2.310  11.216 -0.3869  0.2700  0.9064
  875TIP3    H124116   1.487   2.233  11.251  0.6670  0.1211 -0.6410
  875TIP3    H224117   1.514   2.370  11.194 -1.0235  0.6285 -0.2807
  876TIP3   OH224118   3.765   6.348   1.638  0.1981 -0.1831 -0.6918
  876TIP3    H124119   3.765   6.428   1.691  0.8299 -0.9331  0.4532
  876TIP3    H224120   3.845   6.353   1.586  0.5145 -0.3237 -0.2223
  877TIP3   OH224121   0.343   1.158   4.614  0.3450 -0.2336  0.0550
  877TIP3    H124122   0.303   1.131   4.531 -0.4838  0.1236  0.3307
  877TIP3    H224123   0.428   1.195   4.588  0.3710 -0.7040 -0.5678
  878TIP3   OH224124   2.588   2.582   2.280 -0.0778 -0.1007 -0.1762
  878TIP3    H124125   2.604   2.523   2.354 -3.1616 -0.5887  0.2568
  878TIP3    H224126   2.576   2.524   2.205 -0.7315  0.1163 -0.2463
  879TIP3   OH224127   2.293   2.819   1.668 -0.1575 -0.0287  0.0350
  879TIP3    H124128   2.327   2.750   1.612 -0.6864  0.2388 -0.6220
  879TIP3    H224129   2.258   2.772   1.744  1.3384 -0.3305  0.5752
  880TIP3   OH224130   0.769   1.122  11.794  0.1580 -0.2378 -0.4280
  880TIP3    H124131   0.713   1.072  11.853  0.8942 -0.5675  0.0038
  880TIP3    H224132   0.840   1.154  11.850  0.1308  0.6174 -0.8579
  881TIP3   OH224133   4.376   1.042  13.182 -0.7807 -0.1317 -0.2958
  881TIP3    H124134   4.431   1.054  13.104 -0.2450  0.4296  0.1544
  881TIP3    H224135   4.427   1.081  13.253 -0.8634 -1.4272  0.5039
  882TIP3   OH224136   1.753   6.588   4.693 -0.2872  0.4081 -0.4442
  882TIP3    H124137   1.795   6.528   4.754 -2.2508  1.1673  1.7910
  882TIP3    H224138   1.667   6.550   4.677 -0.8139  1.6106 -0.5823
  883TIP3   OH224139   5.253   0.060  15.203 -0.4335  0.2375  0.0268
  883TIP3    H124140   5.167   0.021  15.192  0.2237 -0.9182 -1.3391
  883TIP3    H224141   5.298   0.003  15.266 -1.3460  2.1102  2.5768
  884TIP3   OH224142   4.521   2.860  11.125 -0.5623  0.0542  0.4565
  884TIP3    H124143   4.547   2.940  11.171  0.8154  0.2533 -0.6126
  884TIP3    H224144   4.435   2.882  11.087  0.5460  1.7063 -1.2994
  885TIP3   OH224145   6.288   0.411   4.348  0.4277 -0.4573  0.1477
  885TIP3    H124146   6.331   0.496   4.358  0.2983 -0.3197 -0.4136
  885TIP3    H224147   6.359   0.349   4.335  0.4560 -0.1566 -1.2829
  886TIP3   OH224148   1.042   3.456  14.222 -0.3298  0.1585  0.0267
  886TIP3    H124149   1.099   3.399  14.170 -1.0651 -0.8241  0.2719
  886TIP3    H224150   1.091   3.469  14.304 -0.0853  0.0094 -0.0929
  887TIP3   OH224151   4.100   3.680  15.602 -0.1756  0.0419 -0.1553
  887TIP3    H124152   4.128   3.756  15.550 -1.2083 -0.5089 -1.5966
  887TIP3    H224153   4.030   3.714  15.658 -0.5408  0.1907 -0.6943
  888TIP3   OH224154   4.156   0.873  15.461 -0.1927 -0.1772  0.1442
  888TIP3    H124155   4.065   0.900  15.472 -0.1263 -0.4005  1.3272
  888TIP3    H224156   4.180   0.833  15.544  0.7430 -0.8635 -0.4286
  889TIP3   OH224157   3.818   5.773   5.925 -0.0249  0.3253 -0.1092
  889TIP3    H124158   3.786   5.862   5.915  0.0357  0.5046  1.1387
  889TIP3    H224159   3.912   5.782   5.935  0.0578  0.0604 -0.6050
  890TIP3   OH224160   4.621   1.920  16.179 -0.1268 -0.6928 -0.0414
  890TIP3    H124161   4.712   1.931  16.204 -0.5775  1.0007  1.0481
  890TIP3    H224162   4.608   1.825  16.177  1.7762 -0.9680 -0.7787
  891TIP3   OH224163   5.707   5.652   6.193 -0.4155 -1.0160  0.3548
  891TIP3    H124164   5.630   5.597   6.185 -0.4886 -0.9560  0.6472
  891TIP3    H224165   5.689   5.710   6.266 -0.2995 -0.6636  0.1099
  892TIP3   OH224166   5.353   1.849   5.573 -0.1214 -0.6593 -0.0294
  892TIP3    H124167   5.440   1.861   5.611  0.4571 -2.1036 -0.8429
  892TIP3    H224168   5.313   1.936   5.578  1.1940 -0.0678  0.7460
  893TIP3   OH224169   3.180   4.210  11.249 -0.0163  0.0864  0.6237
  893TIP3    H124170   3.206   4.286  11.301 -1.4062 -0.5548  2.3794
  893TIP3    H224171   3.140   4.247  11.171  1.5106  1.1014  0.2786
  894TIP3   OH224172   5.120   0.531   6.607 -0.0280  0.3048  0.1102
  894TIP3    H124173   5.114   0.562   6.697 -0.3126 -0.7257  0.4563
  894TIP3    H224174   5.211   0.547   6.582  0.2517 -0.1261  0.8457
  895TIP3   OH224175   6.022   0.580   1.085 -0.4771  0.1462 -0.3535
  895TIP3    H124176   6.037   0.501   1.033  0.6628  0.0075  0.1648
  895TIP3    H224177   6.061   0.651   1.032  0.5409  0.0268  0.2094
  896TIP3   OH224178   5.235   5.362   6.624  1.1158 -0.2988  0.6218
  896TIP3    H124179   5.216   5.442   6.576  2.4550  0.8046  1.8171
  896TIP3    H224180   5.321   5.334   6.591  2.1714  0.6141  2.4365
  897TIP3   OH224181   1.280   0.817   1.374  0.1094  0.2532  0.3274
  897TIP3    H124182   1.228   0.761   1.317  0.4549 -0.4084  0.6579
  897TIP3    H224183   1.314   0.886   1.316 -0.6012  0.3306 -0.0110
  898TIP3   OH224184   3.662   2.785  16.353 -0.0194 -0.3643  0.2965
  898TIP3    H124185   3.569   2.767  16.334 -0.8046  0.0936  3.2492
  898TIP3    H224186   3.696   2.702  16.386  0.3472 -0.2677  0.1609
  899TIP3   OH224187   3.637   0.001  15.895 -0.3307  0.2914 -0.1204
  899TIP3    H124188   3.605  -0.070  15.951  0.4362 -0.0651 -0.1257
  899TIP3    H224189   3.649  -0.041  15.810 -1.3814  0.8040 -0.5368
  900TIP3   OH224190   2.712   5.778  15.506 -0.4936 -0.0659  0.6762
  900TIP3    H124191   2.766   5.824  15.571 -1.6565 -0.3601  1.8980
  900TIP3    H224192   2.772   5.760  15.434  0.5008  1.5339  1.0391
  901TIP3   OH224193   3.409   3.375  10.247  0.1891  0.4438  0.0260
  901TIP3    H124194   3.363   3.313  10.303 -0.1376  0.2825 -0.4190
  901TIP3    H224195   3.340   3.419  10.197  0.5297 -0.2047 -1.0658
  902TIP3   OH224196   6.412   1.112  13.802  0.5559  0.0432 -0.2440
  902TIP3    H124197   6.370   1.037  13.843  0.9068 -0.7999 -1.3632
  902TIP3    H224198   6.381   1.110  13.711  0.2395  1.5137 -0.2018
  903TIP3   OH224199   2.650   2.987  14.940  0.1462 -0.1470 -0.2944
  903TIP3    H124200   2.667   3.045  14.865 -0.9016 -1.5419 -1.6846
  903TIP3    H224201   2.589   3.037  14.994  0.0521  0.4566 -0.9342
  904TIP3   OH224202   2.083   4.167   5.175 -0.4079 -1.0083  0.6171
  904TIP3    H124203   1.988   4.171   5.187 -0.8082  0.6043 -2.1884
  904TIP3    H224204   2.095   4.136   5.086  1.6517  0.2131  0.4044
  905TIP3   OH224205   2.751   2.045  17.105  0.5078 -0.8986 -0.0833
  905TIP3    H124206   2.767   2.006  17.019  1.7070 -2.7703  0.9418
  905TIP3    H224207   2.725   1.972  17.160  0.4329  0.1596  1.3384
  906TIP3   OH224208   3.834   3.565  16.273  0.3487 -0.5971 -0.2591
  906TIP3    H124209   3.739   3.558  16.278  0.2362  0.3057 -0.9431
  906TIP3    H224210   3.860   3.503  16.206  0.2022 -0.5671 -0.3439
  907TIP3   OH224211   1.894   5.553  13.092 -0.1715 -0.0540  0.2817
  907TIP3    H124212   1.803   5.551  13.063  0.1442  0.3416 -0.7754
  907TIP3    H224213   1.923   5.643  13.078  0.4468 -0.2204  0.4279
  908TIP3   OH224214   2.358   1.851   5.323 -0.2407 -0.2460 -0.3834
  908TIP3    H124215   2.366   1.909   5.399  0.0434  0.2023 -0.7549
  908TIP3    H224216   2.264   1.836   5.315 -0.3846  0.7852 -0.7478
  909TIP3   OH224217   4.634   0.942  16.284  0.0515  0.1212  0.6584
  909TIP3    H124218   4.628   0.849  16.259 -0.6986  0.0790  0.9739
  909TIP3    H224219   4.694   0.942  16.358 -0.9181 -0.2868  1.4666
  910TIP3   OH224220   5.620   4.949   0.796 -0.1763  0.1617 -0.8199
  910TIP3    H124221   5.537   4.996   0.793 -1.7184 -2.3014  0.4897
  910TIP3    H224222   5.601   4.863   0.759  1.6901 -0.6121 -0.1247
  911TIP3   OH224223   5.105   6.469  13.814  0.3151 -0.0957 -0.1556
  911TIP3    H124224   5.050   6.422  13.751 -1.2548  0.1390  0.9794
  911TIP3    H224225   5.173   6.406  13.838 -1.5179 -1.7449  1.0397
  912TIP3   OH224226   5.041   0.066  16.744  0.2827 -0.4609 -0.5904
  912TIP3    H124227   5.083   0.030  16.822  0.3577  3.1839  1.2421
  912TIP3    H224228   4.952   0.031  16.747  0.1132  0.0171  1.4985
  913TIP3   OH224229   0.639   0.803   1.861  0.0304  0.6106 -0.4295
  913TIP3    H124230   0.562   0.749   1.878  0.4867  0.2877  0.7087
  913TIP3    H224231   0.604   0.883   1.822 -0.9042  0.5516  0.2538
  914TIP3   OH224232   6.458   2.699  16.704  0.1236 -0.3940 -0.1323
  914TIP3    H124233   6.476   2.731  16.792  1.5836  1.6730 -1.0908
  914TIP3    H224234   6.381   2.644  16.713  0.9867 -1.3100  2.6354
  915TIP3   OH224235   3.729   4.888  16.526 -0.0829  0.4819  0.2101
  915TIP3    H124236   3.799   4.892  16.590 -0.9296 -0.1098  1.2029
  915TIP3    H224237   3.772   4.902  16.442  0.9545  1.9326  0.9479
  916TIP3   OH224238   0.218   6.315   2.739 -0.4940 -0.2292 -0.6411
  916TIP3    H124239   0.235   6.406   2.713  0.1384  0.8674  3.0157
  916TIP3    H224240   0.165   6.322   2.818  1.4302 -2.8814  1.0608
  917TIP3   OH224241   5.011   2.277  16.738 -0.2987 -0.5142 -0.2030
  917TIP3    H124242   4.983   2.330  16.813  2.5830  2.2194 -0.8398
  917TIP3    H224243   5.077   2.219  16.774 -1.6260 -1.9582 -0.0004
  918TIP3   OH224244   2.622   6.210  16.811  0.2290  0.4362  0.1432
  918TIP3    H124245   2.617   6.118  16.836  1.5684  0.2959 -0.0295
  918TIP3    H224246   2.539   6.248  16.840 -0.0473 -0.6675  0.8375
  919TIP3   OH224247   4.541   3.247  16.528  0.1119 -0.4996 -0.1292
  919TIP3    H124248   4.520   3.232  16.620  0.9324 -0.9082 -0.0059
  919TIP3    H224249   4.604   3.179  16.506 -0.2088 -0.5172 -1.0492
  920TIP3   OH224250   0.376   6.130   4.674  0.3038 -0.1300 -0.4833
  920TIP3    H124251   0.337   6.214   4.699  0.0644  0.2773 -2.1341
  920TIP3    H224252   0.323   6.064   4.719  0.5621  0.5677  0.9244
  921TIP3   OH224253   4.214   4.265   1.048 -0.1677  0.1425  0.2582
  921TIP3    H124254   4.169   4.242   1.130 -1.5334  0.8002 -0.2775
  921TIP3    H224255   4.174   4.208   0.982  0.8498 -0.3069  0.0262
  922TIP3   OH224256   1.580   1.703   3.939  0.7693  0.0764  0.1275
  922TIP3    H124257   1.594   1.793   3.912 -1.1906  0.2138 -0.6142
  922TIP3    H224258   1.650   1.686   4.003  0.0436  2.7639  1.8181
  923TIP3   OH224259   0.178   0.980  12.747  0.3874 -1.0426  0.4109
  923TIP3    H124260   0.089   0.953  12.725  0.0759 -0.0644  0.4133
  923TIP3    H224261   0.234   0.931  12.687 -0.3598  0.6577 -1.8164
  924TIP3   OH224262   0.420   0.194   0.730  0.6483  0.5353  0.0904
  924TIP3    H124263   0.365   0.195   0.652 -0.7600 -2.3158  0.8858
  924TIP3    H224264   0.366   0.235   0.798 -0.6398 -2.1332  0.8354
  925TIP3   OH224265   6.732   4.229  15.398 -0.5745 -0.1207  0.0843
  925TIP3    H124266   6.740   4.135  15.411 -0.7113 -0.1684 -0.1794
  925TIP3    H224267   6.807   4.266  15.445 -0.8533 -0.3177  0.6975
  926TIP3   OH224268   1.931   1.626   0.035 -0.0553  0.5101  0.6373
  926TIP3    H124269   1.919   1.598   0.125 -0.2310  1.1059  0.8077
  926TIP3    H224270   2.011   1.678   0.037  0.6515 -0.5469  0.1916
  927TIP3   OH224271   6.768   5.033   5.943  0.3391  0.1430 -0.1873
  927TIP3    H124272   6.673   5.028   5.940  0.2173 -0.9594  2.4365
  927TIP3    H224273   6.786   5.114   5.992  0.6308 -0.7083  1.1665
  928TIP3   OH224274   6.235   4.599  14.658  0.2179 -0.1560  0.3825
  928TIP3    H124275   6.253   4.543  14.733 -1.9700 -1.5940 -0.1021
  928TIP3    H224276   6.235   4.688  14.694 -1.8400 -0.8824  2.3644
  929TIP3   OH224277   6.717   6.577   5.562  0.4223 -0.2325  0.1679
  929TIP3    H124278   6.772   6.639   5.609 -0.7436  0.1484  1.0761
  929TIP3    H224279   6.727   6.495   5.610  0.5809 -0.2931  0.0324
  930TIP3   OH224280   3.323   1.642  13.168 -0.0768  0.2816  0.1218
  930TIP3    H124281   3.410   1.609  13.190 -0.9227 -1.1300  1.5396
  930TIP3    H224282   3.263   1.590  13.221 -1.9768 -0.2593 -2.3718
  931TIP3   OH224283   4.909   4.286   5.963 -0.1602  0.2940 -0.2395
  931TIP3    H124284   4.987   4.313   6.013 -0.4296  0.1479  0.2692
  931TIP3    H224285   4.835   4.311   6.018 -0.5212  1.4202 -1.2082
  932TIP3   OH224286   1.660   1.064   4.447  0.3591 -0.1023  0.3056
  932TIP3    H124287   1.575   1.022   4.438  0.3129  0.0291  0.1220
  932TIP3    H224288   1.721   0.992   4.463  0.6685 -0.5352 -2.3251
  933TIP3   OH224289   5.679   5.331  16.681  0.0167  0.4664  0.2879
  933TIP3    H124290   5.607   5.283  16.640 -0.6122  2.5527 -1.2189
  933TIP3    H224291   5.641   5.415  16.705  1.5025  0.9087  1.2449
  934TIP3   OH224292   6.587   4.220  16.023 -0.2395 -0.3646 -0.7007
  934TIP3    H124293   6.658   4.274  16.056 -1.9119  2.1312 -0.8767
  934TIP3    H224294   6.618   4.188  15.938  0.4707  1.1001 -1.0145
  935TIP3   OH224295   5.953   2.085   5.852 -0.2855  0.0185  0.2047
  935TIP3    H124296   5.923   2.067   5.941 -0.3152  0.9701  0.3993
  935TIP3    H224297   6.030   2.141   5.863 -0.4576  0.3874 -0.3646
  936TIP3   OH224298   4.236   4.374   5.027  0.1099 -0.4719  0.0724
  936TIP3    H124299   4.331   4.367   5.035  0.3810  1.2015 -1.1179
  936TIP3    H224300   4.201   4.325   5.102  1.9700  1.7565  2.5777
  937TIP3   OH224301   6.243   1.051   3.345  0.3601 -0.1374  0.8068
  937TIP3    H124302   6.177   1.095   3.398  0.1183  1.5657 -0.8212
  937TIP3    H224303   6.226   0.957   3.358 -1.0186  0.2543  2.0422
  938TIP3   OH224304   0.536   3.566  16.383  0.2385 -0.6188  0.1839
  938TIP3    H124305   0.578   3.485  16.354  0.6307  0.2067 -1.7385
  938TIP3    H224306   0.592   3.599  16.453  1.7336 -0.5409 -0.9991
  939TIP3   OH224307   4.876   3.756  10.855 -0.5465 -0.0716 -0.4874
  939TIP3    H124308   4.839   3.733  10.940  1.7441 -1.9467  0.1142
  939TIP3    H224309   4.862   3.851  10.847 -2.7510 -0.2150  0.9336
  940TIP3   OH224310   6.748   3.745  16.722 -0.5260 -0.6860 -0.2934
  940TIP3    H124311   6.701   3.755  16.805 -0.5636  0.2219 -0.4194
  940TIP3    H224312   6.684   3.709  16.662 -0.7007 -0.6699 -0.1176
  941TIP3   OH224313   4.448   0.043  15.308 -0.2557 -0.1269  0.0985
  941TIP3    H124314   4.407   0.035  15.394 -1.3344  0.9846 -0.2898
  941TIP3    H224315   4.399   0.112  15.265  0.4778 -0.4595 -1.3046
  942TIP3   OH224316   4.753   6.604   2.935  0.7439  0.2641 -0.7695
  942TIP3    H124317   4.708   6.656   3.002  0.2270  0.7602 -1.4814
  942TIP3    H224318   4.720   6.515   2.948  0.8834  0.3001 -0.1674
  943TIP3   OH224319   4.745   1.600   1.833  0.2216  0.0518  0.0344
  943TIP3    H124320   4.779   1.511   1.841  0.7560  0.4041  2.2613
  943TIP3    H224321   4.791   1.636   1.757 -0.5139 -1.7291 -1.3493
  944TIP3   OH224322   4.279   1.135  15.168 -0.1015  0.3673  0.9402
  944TIP3    H124323   4.203   1.143  15.225 -0.2415  0.1247  0.7922
  944TIP3    H224324   4.252   1.178  15.087 -0.1278  0.1717  0.8441
  945TIP3   OH224325   4.959   2.443   2.435  0.3745 -0.2858 -0.1015
  945TIP3    H124326   4.931   2.383   2.504 -2.0040  1.4432  0.6038
  945TIP3    H224327   4.963   2.528   2.478  0.5933  0.5618 -1.7088
  946TIP3   OH224328   3.137   2.831   3.698  0.5182 -0.2577  0.1442
  946TIP3    H124329   3.080   2.864   3.767  2.1472  1.1414  0.8959
  946TIP3    H224330   3.220   2.813   3.742  2.0054  1.8508 -1.5769
  947TIP3   OH224331   1.519   5.518   5.678  0.5608  0.2156  0.4801
  947TIP3    H124332   1.571   5.439   5.693  0.0923 -0.3151 -0.6141
  947TIP3    H224333   1.492   5.546   5.766 -0.7815 -1.8734  0.7986
  948TIP3   OH224334   5.035   3.043   5.228 -0.1836  0.4682  0.3144
  948TIP3    H124335   5.039   2.977   5.298  2.2761 -0.3470 -0.4613
  948TIP3    H224336   5.113   3.025   5.174  0.2940  3.6701 -0.2768
  949TIP3   OH224337   6.096   6.566  15.033 -0.5755 -0.0176 -0.4090
  949TIP3    H124338   6.139   6.485  15.006 -0.8495 -0.2285 -0.2145
  949TIP3    H224339   6.059   6.546  15.119 -1.4311  0.0315 -0.7595
  950TIP3   OH224340   3.226   4.447   2.405  0.5399  0.1899 -0.3075
  950TIP3    H124341   3.146   4.398   2.390  1.8134 -1.6711 -1.5113
  950TIP3    H224342   3.211   4.493   2.488 -1.5998 -0.3828 -0.3234
  951TIP3   OH224343   4.376   1.411   2.302  0.2342 -0.0631  0.2368
  951TIP3    H124344   4.443   1.457   2.252 -0.0063  0.4411  0.3622
  951TIP3    H224345   4.401   1.319   2.298  0.2137 -0.0367 -0.8238
  952TIP3   OH224346   4.942   5.337  13.259  0.3240 -0.1286  0.4639
  952TIP3    H124347   5.035   5.319  13.246 -0.0551 -1.1877 -1.0832
  952TIP3    H224348   4.940   5.422  13.304  2.0297 -0.2351  0.7944
  953TIP3   OH224349   5.211   0.057   1.875  0.0247 -0.1925  0.3145
  953TIP3    H124350   5.277   0.094   1.933 -2.1037  1.5778  1.7921
  953TIP3    H224351   5.151   0.010   1.933 -1.1715  0.0711 -0.6602
  954TIP3   OH224352   1.418   1.057  15.968  0.6017  0.6197  0.0985
  954TIP3    H124353   1.444   1.142  15.932  0.1578  0.3113 -0.9978
  954TIP3    H224354   1.344   1.078  16.025  0.6046  0.9931 -0.0274
  955TIP3   OH224355   3.207   1.018  12.877 -0.3011 -0.6104 -0.1541
  955TIP3    H124356   3.161   1.101  12.892 -1.3754 -1.2588  0.2417
  955TIP3    H224357   3.140   0.961  12.839  0.1415 -1.6179  0.5679
  956TIP3   OH224358   2.576   6.174   4.538 -0.1815  0.0670 -0.2140
  956TIP3    H124359   2.668   6.199   4.532  0.6593 -3.0107 -1.9442
  956TIP3    H224360   2.569   6.132   4.624 -0.8870  3.0926  1.3605
  957TIP3   OH224361   4.602   4.912  14.151  0.0486 -0.8712  0.0169
  957TIP3    H124362   4.543   4.922  14.226  1.7581  0.3554  1.3047
  957TIP3    H224363   4.589   4.822  14.122 -1.5476 -1.0016  1.0088
  958TIP3   OH224364   0.955   5.258   3.379 -0.2633  0.5268 -0.3602
  958TIP3    H124365   0.939   5.179   3.328  2.4460 -0.9352  0.8422
  958TIP3    H224366   0.941   5.231   3.470  0.0303  1.6382  0.0371
  959TIP3   OH224367   4.816   0.850  15.616  0.4435 -0.0817 -0.5670
  959TIP3    H124368   4.807   0.814  15.528  1.2616  1.2758 -1.2363
  959TIP3    H224369   4.810   0.945  15.603  1.8024  0.2013  0.6753
  960TIP3   OH224370   5.641   6.748  15.349  0.0277  0.0608  0.4074
  960TIP3    H124371   5.604   6.772  15.434 -0.6775  1.3732 -0.2304
  960TIP3    H224372   5.587   6.676  15.318  0.5853 -0.7532  1.2536
  961TIP3   OH224373   3.563   1.856  13.358  0.2413 -0.0706 -0.0231
  961TIP3    H124374   3.511   1.780  13.381 -2.6481  1.3792 -1.2275
  961TIP3    H224375   3.639   1.821  13.311 -0.5962 -2.2012  0.1377
  962TIP3   OH224376   3.378   5.667  14.953  0.4229  0.1571 -0.6981
  962TIP3    H124377   3.362   5.756  14.922  0.5809  0.6307  0.5292
  962TIP3    H224378   3.362   5.612  14.876  0.1869  1.2236 -1.4395
  963TIP3   OH224379   5.948   6.362   1.724 -0.3873  0.2769  0.2038
  963TIP3    H124380   5.884   6.429   1.748 -2.5559 -1.6562  0.1493
  963TIP3    H224381   5.945   6.359   1.629  1.9755  2.0800 -0.0408
  964TIP3   OH224382   1.000   2.523  13.298  0.3928 -0.3944  0.2644
  964TIP3    H124383   0.957   2.475  13.369  0.5869 -0.7165  0.1630
  964TIP3    H224384   1.084   2.551  13.335 -0.6901  1.9681  1.1492
  965TIP3   OH224385   1.991   3.419  10.082  0.2766  0.3295 -0.3138
  965TIP3    H124386   1.994   3.473  10.161 -0.6320  1.7220 -1.1834
  965TIP3    H224387   2.044   3.468  10.018 -0.0802 -0.1033 -0.9549
  966TIP3   OH224388   4.345   4.883  16.493  0.1274  0.0989 -0.5222
  966TIP3    H124389   4.289   4.880  16.415  0.9684 -0.4872 -1.1253
  966TIP3    H224390   4.382   4.795  16.499  0.4512  0.2817  0.2696
  967TIP3   OH224391   0.127   6.224  15.542  0.0074  0.0123  0.0979
  967TIP3    H124392   0.045   6.204  15.587  0.4973  0.8001  1.4021
  967TIP3    H224393   0.189   6.158  15.574 -0.2890 -1.1354 -1.5539
  968TIP3   OH224394   4.491   3.669   2.367 -0.8521 -0.1304  0.6532
  968TIP3    H124395   4.422   3.609   2.337 -0.6219 -0.2990  0.4577
  968TIP3    H224396   4.571   3.634   2.329 -0.3027 -1.2474  2.6760
  969TIP3   OH224397   2.433   2.182  14.688  0.5781  0.2850 -0.6055
  969TIP3    H124398   2.483   2.230  14.754  1.3463 -1.2511  0.0087
  969TIP3    H224399   2.497   2.121  14.650 -0.2716 -0.0434 -1.5543
  970TIP3   OH224400   1.391   1.785   1.473 -0.7766 -0.5934 -0.0364
  970TIP3    H124401   1.428   1.697   1.468 -0.1746 -0.2838 -1.5249
  970TIP3    H224402   1.441   1.827   1.543 -1.4012 -1.5658  1.0221
  971TIP3   OH224403   3.772   3.854   0.681  0.0497  0.0656 -0.5865
  971TIP3    H124404   3.729   3.901   0.610 -1.5107 -0.4155 -0.0026
  971TIP3    H224405   3.736   3.894   0.761  1.1867  0.0860 -0.0692
  972TIP3   OH224406   3.958   3.871  14.646 -0.5711  0.1865 -0.1844
  972TIP3    H124407   3.980   3.878  14.739 -0.1721  0.2330 -0.2814
  972TIP3    H224408   3.973   3.959  14.611 -2.1919  0.5590  0.0155
  973TIP3   OH224409   1.486   0.306   3.134  0.4078 -0.5887 -0.6726
  973TIP3    H124410   1.538   0.369   3.184  2.4462 -1.2815 -1.7981
  973TIP3    H224411   1.449   0.247   3.199  2.0355 -0.7664  0.1399
  974TIP3   OH224412   4.443   0.034  11.759 -0.1960  0.0514  0.0490
  974TIP3    H124413   4.435  -0.053  11.799  1.2607  0.5937  1.6285
  974TIP3    H224414   4.498   0.018  11.681 -1.0777 -0.6408 -0.4487
  975TIP3   OH224415   3.761   2.192   0.269 -0.8640 -0.2166  0.0441
  975TIP3    H124416   3.833   2.231   0.219 -0.2218 -0.2966  0.8944
  975TIP3    H224417   3.697   2.263   0.279  0.2782  0.6609  1.5513
  976TIP3   OH224418   0.834   1.682   6.166 -0.0018 -0.1877 -0.6340
  976TIP3    H124419   0.820   1.593   6.198  1.4575  0.0874  0.9154
  976TIP3    H224420   0.764   1.733   6.208  1.0649 -0.0850  1.1373
  977TIP3   OH224421   5.558   6.116  14.075  0.0625  0.6818 -0.0519
  977TIP3    H124422   5.652   6.119  14.092 -0.0423  1.2520  0.4574
  977TIP3    H224423   5.529   6.206  14.084 -0.5003  0.5402 -0.4222
  978TIP3   OH224424   2.734   4.819   4.739  0.0003  0.0224 -0.6151
  978TIP3    H124425   2.688   4.786   4.816  2.0504  0.3053  0.8134
  978TIP3    H224426   2.708   4.760   4.668  1.8091 -3.4851  1.3406
  979TIP3   OH224427   6.517   3.793  14.927  0.2812  0.3270  0.5049
  979TIP3    H124428   6.586   3.763  14.986  0.4790 -0.2159  0.0047
  979TIP3    H224429   6.477   3.713  14.893  2.1673  0.4964 -2.4469
  980TIP3   OH224430   4.604   2.294   1.879  0.3469 -0.1289 -0.6157
  980TIP3    H124431   4.608   2.306   1.973  1.7448  1.1457 -0.8011
  980TIP3    H224432   4.552   2.368   1.847  0.1380 -0.3823 -0.8719
  981TIP3   OH224433   3.040   5.076   6.522  0.2776 -0.8741  0.1473
  981TIP3    H124434   2.964   5.035   6.563 -0.9466  0.7982 -0.3390
  981TIP3    H224435   3.030   5.170   6.540  1.0057 -0.3511 -1.8460
  982TIP3   OH224436   0.267   3.747  13.515 -0.2230  0.6359  0.2509
  982TIP3    H124437   0.247   3.776  13.604 -1.8021  0.6071 -0.0808
  982TIP3    H224438   0.185   3.754  13.467  1.0020  2.6776 -1.8015
  983TIP3   OH224439   6.813   4.379   1.341 -0.1076 -0.2019 -0.6190
  983TIP3    H124440   6.744   4.352   1.402 -0.1990  1.1732 -0.0972
  983TIP3    H224441   6.894   4.365   1.390 -0.1500  0.3886 -0.3790
  984TIP3   OH224442   3.876   3.362  16.090  0.4320  0.4590 -0.0413
  984TIP3    H124443   3.910   3.297  16.151 -0.8612  0.5341  0.8080
  984TIP3    H224444   3.877   3.317  16.005 -0.0187 -0.5299  0.4524
  985TIP3   OH224445   6.362   5.236   1.172 -0.0683  0.0051  0.6758
  985TIP3    H124446   6.307   5.304   1.210  1.9689  0.7827  2.4631
  985TIP3    H224447   6.412   5.280   1.103  0.5497  0.1199  1.1823
  986TIP3   OH224448   1.026   6.536   5.063  0.2279  0.3216  0.1326
  986TIP3    H124449   0.952   6.596   5.069  1.2403  1.6150 -0.0155
  986TIP3    H224450   0.992   6.454   5.100 -0.8244  1.3017  1.4843
  987TIP3   OH224451   1.769   3.347  15.002 -0.3554 -0.1409  0.0491
  987TIP3    H124452   1.795   3.296  14.925  1.4846 -0.5636  0.8855
  987TIP3    H224453   1.731   3.283  15.062 -0.6359 -0.0294 -0.0088
  988TIP3   OH224454   4.824   5.893  15.705 -0.0681  0.1751 -0.0202
  988TIP3    H124455   4.906   5.939  15.727 -0.3614  0.5071  0.3986
  988TIP3    H224456   4.799   5.849  15.786 -1.0577  1.2530  0.2913
  989TIP3   OH224457   5.720   4.255   0.702  0.0330 -0.2150  0.3268
  989TIP3    H124458   5.748   4.168   0.730  0.7035  0.2352  1.0696
  989TIP3    H224459   5.715   4.249   0.606 -1.3236 -1.4771  0.4459
  990TIP3   OH224460   2.518   6.026   0.433  0.0139  0.4534  0.4889
  990TIP3    H124461   2.460   5.974   0.378 -0.0882  0.3806  0.6662
  990TIP3    H224462   2.605   5.987   0.420 -0.0855  0.1451  0.7336
  991TIP3   OH224463   1.340   6.399  11.440 -0.7276  0.5250 -0.0441
  991TIP3    H124464   1.302   6.317  11.472  0.0593  0.1316 -0.0861
  991TIP3    H224465   1.300   6.412  11.355  0.5328 -0.8409 -0.8950
  992TIP3   OH224466   4.066   4.046  13.903  0.0194  0.0744  0.1242
  992TIP3    H124467   4.111   4.000  13.974  0.7316  1.0876  0.3619
  992TIP3    H224468   4.133   4.106  13.868 -0.5864  0.2129 -0.8180
  993TIP3   OH224469   1.248   0.686  16.482  0.3960 -0.6316 -0.4436
  993TIP3    H124470   1.285   0.603  16.513  0.6605  0.1289  1.4235
  993TIP3    H224471   1.158   0.685  16.515 -0.5642 -1.3988 -2.8874
  994TIP3   OH224472   5.326   4.231   4.855 -0.5181 -0.3763  0.3750
  994TIP3    H124473   5.295   4.219   4.944 -1.7905  1.3793  0.2356
  994TIP3    H224474   5.421   4.230   4.862 -0.5567  1.5115  2.0779
  995TIP3   OH224475   4.366   6.612   2.744  0.4098  0.5247  1.0331
  995TIP3    H124476   4.305   6.670   2.699  0.4124 -0.6525 -0.5609
  995TIP3    H224477   4.317   6.532   2.760  1.8400 -0.9931 -1.5743
  996TIP3   OH224478   2.186   1.351   4.914 -0.1601 -0.1003  0.2873
  996TIP3    H124479   2.119   1.417   4.899  1.9030  2.2400  0.8269
  996TIP3    H224480   2.259   1.377   4.859  0.4895 -2.4355 -0.0906
  997TIP3   OH224481   1.210   2.712  13.015 -0.4593 -0.4031  0.5289
  997TIP3    H124482   1.149   2.641  13.035 -0.1689 -0.4242  1.3918
  997TIP3    H224483   1.155   2.785  12.987 -0.8806 -0.4722  1.1493
  998TIP3   OH224484   2.963   1.089   0.730 -0.5311 -0.0447  0.8029
  998TIP3    H124485   2.885   1.045   0.696 -0.2388 -0.5614  0.7803
  998TIP3    H224486   2.936   1.127   0.813 -0.9236  0.1560  0.5815
  999TIP3   OH224487   2.176   2.779   5.985  0.5446  0.3457 -0.1085
  999TIP3    H124488   2.143   2.849   6.041 -0.3801  0.8191 -1.2088
  999TIP3    H224489   2.267   2.767   6.013  0.8138  2.1611 -0.0596
 1000TIP3   OH224490   3.907   0.196   2.355 -0.0654 -0.2056 -0.2587
 1000TIP3    H124491   3.849   0.267   2.383 -0.9847 -0.2677 -1.8537
 1000TIP3    H224492   3.986   0.240   2.324  0.1133 -0.0149  0.4491
 1001TIP3   OH224493   1.968   5.831  17.000  0.4549  0.2349  0.1151
 1001TIP3    H124494   2.052   5.877  17.007  0.5596 -0.1075  1.5093
 1001TIP3    H224495   1.925   5.849  17.084 -0.3152 -0.6367 -0.0836
 1002TIP3   OH224496   0.686   6.822  12.201 -0.8453 -0.3055 -0.3536
 1002TIP3    H124497   0.595   6.823  12.171 -0.8845  1.8023 -0.3190
 1002TIP3    H224498   0.736   6.792  12.125 -1.2742  1.8849 -1.6081
 1003TIP3   OH224499   4.615   5.046  15.841  0.3024 -0.2533 -0.3026
 1003TIP3    H124500   4.667   5.124  15.823 -0.1513 -0.4107 -2.5542
 1003TIP3    H224501   4.563   5.069  15.918  2.9796  0.2091  1.5089
 1004TIP3   OH224502   0.946   6.384  11.500 -0.2129 -0.2773 -0.1384
 1004TIP3    H124503   0.947   6.394  11.404  0.1758  0.1020 -0.0984
 1004TIP3    H224504   0.920   6.470  11.532  2.8958  0.6736  0.2057
 1005TIP3   OH224505   5.356   0.965  12.626  0.3193  0.4465  0.1884
 1005TIP3    H124506   5.385   1.001  12.710 -0.6609  0.7669  0.3947
 1005TIP3    H224507   5.399   0.879  12.622  0.0803  0.2676  1.1926
 1006TIP3   OH224508   4.789   4.059  12.785  0.2997  0.2818 -0.6503
 1006TIP3    H124509   4.842   4.006  12.845  0.0010  0.0831 -0.5588
 1006TIP3    H224510   4.833   4.050  12.701 -0.0483 -0.5597 -0.7525
 1007TIP3   OH224511   3.715   0.582  13.543 -0.0322  0.8108  0.4495
 1007TIP3    H124512   3.788   0.584  13.605  0.5070 -0.8195 -0.0818
 1007TIP3    H224513   3.644   0.538  13.590  0.7384 -1.4775 -0.3572
 1008TIP3   OH224514   3.097   4.513   0.840  0.0802  0.2837 -0.5642
 1008TIP3    H124515   3.049   4.557   0.911  1.1157 -0.1461  0.4320
 1008TIP3    H224516   3.114   4.583   0.777  0.9548  1.1752  0.6014
 1009TIP3   OH224517   0.714   4.923  12.635 -0.0655  0.4523  0.2662
 1009TIP3    H124518   0.774   4.855  12.668 -0.2285 -0.6889 -1.6187
 1009TIP3    H224519   0.722   4.995  12.698  2.1941 -0.2300  0.8563
 1010TIP3   OH224520   0.224   0.754   0.655 -0.1347 -0.5020  0.3768
 1010TIP3    H124521   0.206   0.703   0.576 -0.4966 -0.8270  0.6664
 1010TIP3    H224522   0.249   0.689   0.720 -1.6280 -0.4315  1.0530
 1011TIP3   OH224523   1.331   4.789  11.891  0.0560 -0.3152  0.7849
 1011TIP3    H124524   1.397   4.836  11.943  0.4065 -1.0098  0.9908
 1011TIP3    H224525   1.248   4.829  11.916  0.3448  0.1861  0.9602
 1012TIP3   OH224526   6.501   3.327  12.660 -0.0454 -0.0538 -0.3717
 1012TIP3    H124527   6.527   3.331  12.751  0.5897 -3.1281 -0.3108
 1012TIP3    H224528   6.536   3.407  12.621 -2.2690  2.5413  2.4012
 1013TIP3   OH224529   1.415   0.422   5.372 -0.2417 -0.8154 -0.5872
 1013TIP3    H124530   1.385   0.366   5.444  0.4160  1.1302  1.3415
 1013TIP3    H224531   1.494   0.379   5.339  0.0831 -1.2070  0.6392
 1014TIP3   OH224532   1.702   6.181   0.644 -0.5920 -0.4056 -0.4546
 1014TIP3    H124533   1.797   6.176   0.638 -0.6294 -0.1656 -1.3816
 1014TIP3    H224534   1.686   6.252   0.706 -0.1697 -0.8116  0.1284
 1015TIP3   OH224535   2.265   2.139   4.658 -0.7507 -0.0144  0.4503
 1015TIP3    H124536   2.265   2.219   4.709  0.2224  0.3360 -0.0640
 1015TIP3    H224537   2.207   2.079   4.705 -3.0846  1.6118 -0.1937
 1016TIP3   OH224538   3.107   1.719  15.572 -0.1690  0.1683  0.5433
 1016TIP3    H124539   3.199   1.742  15.588 -0.3756  1.2050  0.3070
 1016TIP3    H224540   3.104   1.697  15.479  0.0319 -0.8759  0.7729
 1017TIP3   OH224541   6.826   6.615   3.792 -0.3995  0.2277 -0.5910
 1017TIP3    H124542   6.797   6.629   3.702 -0.1684 -0.0515 -0.7126
 1017TIP3    H224543   6.911   6.660   3.797 -0.8570  1.0664 -0.2298
 1018TIP3   OH224544   0.733   0.119   0.936  0.6543 -0.6362  0.1381
 1018TIP3    H124545   0.728   0.131   0.841 -0.5283 -0.8810  0.1433
 1018TIP3    H224546   0.820   0.149   0.960  0.8032 -0.1323 -0.9651
 1019TIP3   OH224547   2.537   3.848   5.449 -0.2709 -0.1353  0.4072
 1019TIP3    H124548   2.533   3.826   5.542  1.1335 -0.2363  0.4647
 1019TIP3    H224549   2.605   3.791   5.414 -0.7409 -0.0484 -0.6746
 1020TIP3   OH224550   0.757   3.384  14.500  0.1964  0.2887  0.0983
 1020TIP3    H124551   0.816   3.323  14.454 -0.8881 -0.7727  0.0807
 1020TIP3    H224552   0.792   3.389  14.589 -0.6114 -1.6721  0.5756
 1021TIP3   OH224553   3.651   2.083   4.692 -0.1577 -0.2163 -0.0394
 1021TIP3    H124554   3.678   2.171   4.666  0.0513 -1.0114 -2.8355
 1021TIP3    H224555   3.596   2.053   4.620 -0.9551 -2.0826  1.2697
 1022TIP3   OH224556   1.183   6.826  16.980 -0.0721 -0.3929  0.5451
 1022TIP3    H124557   1.146   6.754  16.930  0.2368 -0.8206  0.9198
 1022TIP3    H224558   1.112   6.855  17.037 -0.6475  0.5764 -0.6348
 1023TIP3   OH224559   0.339   0.372  16.996  0.8836 -0.0306  0.2379
 1023TIP3    H124560   0.290   0.368  16.914  0.7089  0.7917  0.2957
 1023TIP3    H224561   0.363   0.464  17.006  0.7949 -0.0925  1.1710
 1024TIP3   OH224562   2.244   4.942  14.072  1.0581 -0.1624  0.0779
 1024TIP3    H124563   2.291   5.012  14.026  0.4030  1.2892  1.4975
 1024TIP3    H224564   2.260   4.961  14.165 -0.1320 -1.2015  0.5146
 1025TIP3   OH224565   5.863   6.684  14.980 -0.2587 -0.2745  0.4505
 1025TIP3    H124566   5.947   6.654  15.013 -0.3740  0.0113  1.0054
 1025TIP3    H224567   5.832   6.613  14.924  1.1169  0.2919 -1.1023
 1026TIP3   OH224568   0.562   1.033  12.861  0.5671 -0.2206 -0.1154
 1026TIP3    H124569   0.492   1.023  12.925  0.3711 -0.1344 -0.3148
 1026TIP3    H224570   0.522   1.082  12.789  1.4327  1.8633  0.7335
 1027TIP3   OH224571   4.164   6.216  16.764  0.5818 -0.1830 -0.1612
 1027TIP3    H124572   4.207   6.300  16.749  0.3159 -0.3496 -2.0964
 1027TIP3    H224573   4.173   6.169  16.682  0.2762 -1.8670  0.7173
 1028TIP3   OH224574   6.684   0.428   3.860  0.0200  0.4523  0.5931
 1028TIP3    H124575   6.658   0.349   3.907  0.0832 -0.1273 -0.3291
 1028TIP3    H224576   6.779   0.434   3.875  0.2049 -0.2604 -0.2248
 1029TIP3   OH224577   1.086   6.673   5.612  0.4506 -0.1873 -0.2442
 1029TIP3    H124578   1.154   6.707   5.670  1.4720 -0.1875 -1.4097
 1029TIP3    H224579   1.125   6.674   5.525 -1.8814  2.3667 -1.4557
 1030TIP3   OH224580   5.249   4.923   3.348 -0.0646  0.4863  0.1376
 1030TIP3    H124581   5.246   4.845   3.404  0.4842 -0.1057 -0.6408
 1030TIP3    H224582   5.166   4.968   3.366 -0.3541 -0.2292  0.6623
 1031TIP3   OH224583   1.479   5.920  16.490 -0.2133  0.7116 -0.4879
 1031TIP3    H124584   1.474   5.916  16.586 -1.0193  1.4101 -0.4927
 1031TIP3    H224585   1.562   5.876  16.469 -0.4487 -0.2285  0.4674
 1032TIP3   OH224586   0.642   3.218   4.156 -0.4636  0.3814  0.4038
 1032TIP3    H124587   0.585   3.292   4.139 -0.1693  0.2875 -1.1463
 1032TIP3    H224588   0.592   3.161   4.214 -2.1863  0.0475 -1.3210
 1033TIP3   OH224589   6.455   1.128   5.609 -0.2000 -0.5689  0.5647
 1033TIP3    H124590   6.442   1.145   5.702  1.8327  0.2213  0.7564
 1033TIP3    H224591   6.400   1.053   5.590 -1.2169 -0.2941  2.2272
 1034TIP3   OH224592   6.406   5.793   0.063 -0.1421  0.5255  0.0014
 1034TIP3    H124593   6.398   5.702   0.093  0.3306 -0.4739 -2.6602
 1034TIP3    H224594   6.317   5.819   0.042 -0.0578 -0.0273 -1.0814
 1035TIP3   OH224595   4.545   2.791  14.662  0.5418 -0.1770 -0.1928
 1035TIP3    H124596   4.580   2.718  14.713 -0.8584 -1.5726 -1.1270
 1035TIP3    H224597   4.476   2.827  14.717  0.0644 -0.7012 -0.4319
 1036TIP3   OH224598   5.624   2.271  12.665  0.4895  0.4883  0.2072
 1036TIP3    H124599   5.603   2.192  12.714  1.9504 -0.1365 -0.0884
 1036TIP3    H224600   5.641   2.338  12.731  0.0319  0.3285  0.4837
 1037TIP3   OH224601   4.031   4.543   1.990  0.4551  0.2317 -0.3814
 1037TIP3    H124602   4.071   4.622   1.955  0.1502  0.1069 -1.0490
 1037TIP3    H224603   3.947   4.572   2.026 -0.6916 -0.0554 -2.5925
 1038TIP3   OH224604   1.864   5.420  11.579  0.2647 -0.4062 -0.2365
 1038TIP3    H124605   1.886   5.327  11.578 -0.8769 -0.7625 -3.3286
 1038TIP3    H224606   1.772   5.423  11.552 -0.1604  1.5837  1.1882
 1039TIP3   OH224607   2.761   5.931   0.377  0.3241 -0.4350  0.4061
 1039TIP3    H124608   2.755   5.836   0.385  0.3665 -0.2794  3.0953
 1039TIP3    H224609   2.839   5.954   0.427 -0.1411  1.0980  0.4721
 1040TIP3   OH224610   6.754   3.419  15.808 -0.0919 -0.0411  0.2948
 1040TIP3    H124611   6.754   3.466  15.892  0.6982 -2.9743  2.0921
 1040TIP3    H224612   6.842   3.433  15.773  0.3575 -0.6436  1.1412
 1041TIP3   OH224613   2.082   1.956   3.923 -0.0304 -0.1684  0.0894
 1041TIP3    H124614   2.148   2.000   3.975 -0.0517  0.2971 -0.2688
 1041TIP3    H224615   2.073   2.010   3.845 -0.1478 -0.7400 -0.3028
 1042TIP3   OH224616   0.700   4.332   0.957 -0.2887 -0.2381 -0.0271
 1042TIP3    H124617   0.740   4.305   1.039 -0.2250  0.6058  0.2315
 1042TIP3    H224618   0.643   4.260   0.933 -1.0769 -0.0764  1.2731
 1043TIP3   OH224619   5.875   4.117  12.566 -0.4004  0.6369 -0.0496
 1043TIP3    H124620   5.876   4.026  12.537  1.1206 -0.4472  2.9745
 1043TIP3    H224621   5.806   4.158  12.515 -1.5676 -2.3713 -1.0831
 1044TIP3   OH224622   2.622   1.448  14.802  0.0349  0.0645  0.2057
 1044TIP3    H124623   2.714   1.460  14.780  0.1687 -1.3566 -0.0685
 1044TIP3    H224624   2.623   1.416  14.892 -0.2570  0.9260  0.5289
 1045TIP3   OH224625   1.241   5.949  10.666 -0.2604 -0.2095 -0.1511
 1045TIP3    H124626   1.331   5.923  10.649  0.7769  1.4419  2.2532
 1045TIP3    H224627   1.190   5.869  10.653  1.7363 -1.5503 -0.1512
 1046TIP3   OH224628   3.766   2.604   3.581 -1.0511 -0.3893  0.2060
 1046TIP3    H124629   3.816   2.523   3.570  1.4989  1.0904  0.0726
 1046TIP3    H224630   3.706   2.586   3.653 -1.7602 -2.8868 -0.8874
 1047TIP3   OH224631   3.213   5.982   0.764  0.6606  0.0845 -0.3276
 1047TIP3    H124632   3.258   5.984   0.849  0.5765 -0.0280 -0.2800
 1047TIP3    H224633   3.273   6.026   0.704  0.8871 -0.1721 -0.2888
 1048TIP3   OH224634   0.926   1.390   1.376  0.5239 -0.4813  0.0491
 1048TIP3    H124635   0.844   1.403   1.424  0.3314 -2.5251  0.3991
 1048TIP3    H224636   0.986   1.456   1.411 -0.3087 -0.4386  1.4635
 1049TIP3   OH224637   3.624   1.735  17.031  0.4441 -1.0596  0.2901
 1049TIP3    H124638   3.676   1.765  16.957 -1.5373 -0.2711 -0.8744
 1049TIP3    H224639   3.588   1.650  17.002  0.0791 -0.9932  0.5389
 1050TIP3   OH224640   6.017   0.276  12.214  0.0321  0.0153  0.5772
 1050TIP3    H124641   6.005   0.182  12.202  1.7185 -0.0361 -1.3924
 1050TIP3    H224642   6.111   0.290  12.198  0.0343  1.9195  1.8612
 1051TIP3   OH224643   4.393   6.648   0.206 -0.1953  0.4523  0.2673
 1051TIP3    H124644   4.436   6.720   0.160 -0.7784  0.3653 -0.4330
 1051TIP3    H224645   4.443   6.638   0.287  0.9843  0.4508 -0.4501
 1052TIP3   OH224646   4.423   6.285   5.437  0.3476 -0.2131 -0.4123
 1052TIP3    H124647   4.422   6.370   5.481  1.1937  0.4160 -1.5661
 1052TIP3    H224648   4.420   6.306   5.344  1.7875 -1.3877 -0.7665
 1053TIP3   OH224649   0.409   6.736   5.097 -0.5255 -0.0711  0.1040
 1053TIP3    H124650   0.467   6.661   5.111  0.1859  0.3794 -0.3273
 1053TIP3    H224651   0.410   6.749   5.002 -2.2088 -0.7255 -0.0339
 1054TIP3   OH224652   4.862   0.718  10.242 -0.1023  0.0123 -0.3962
 1054TIP3    H124653   4.890   0.798  10.197 -0.6915  0.5169  0.1292
 1054TIP3    H224654   4.811   0.749  10.317 -0.4849 -0.8589 -0.2902
 1055TIP3   OH224655   2.024   0.643  11.995 -0.1157  0.2421 -0.1581
 1055TIP3    H124656   1.987   0.727  11.968  0.5813  0.9247  0.9657
 1055TIP3    H224657   2.061   0.659  12.082  0.0410 -1.2240  0.0725
 1056TIP3   OH224658   1.303   6.807   6.551 -0.6582 -0.2174  1.2548
 1056TIP3    H124659   1.368   6.833   6.616 -0.8793  0.6378  1.1568
 1056TIP3    H224660   1.352   6.760   6.484  0.1628  1.7532  0.3959
 1057TIP3   OH224661   4.151   3.015  13.712  0.4034 -0.4199 -0.6066
 1057TIP3    H124662   4.115   2.927  13.723  1.0816 -0.5856  0.5339
 1057TIP3    H224663   4.216   3.006  13.641  0.2859 -0.7794 -0.6675
 1058TIP3   OH224664   5.117   5.336   3.836 -0.1103  0.0550 -0.1780
 1058TIP3    H124665   5.030   5.342   3.874 -1.0913  1.7683 -2.4279
 1058TIP3    H224666   5.102   5.300   3.748  1.5121 -0.0839 -0.4265
 1059TIP3   OH224667   4.603   1.178   0.477  0.7524 -0.4265  0.1806
 1059TIP3    H124668   4.549   1.249   0.442  0.2233 -0.7980  0.2381
 1059TIP3    H224669   4.591   1.182   0.572  0.8794 -0.4727  0.1995
 1060TIP3   OH224670   5.031   3.062  16.966  0.0406 -0.1666 -0.3573
 1060TIP3    H124671   5.114   3.081  17.008  0.5518 -0.3449 -1.2568
 1060TIP3    H224672   5.054   3.019  16.884 -0.9636 -0.8249 -0.3199
 1061TIP3   OH224673   1.409   2.892  14.330  0.3274 -0.6284  0.4746
 1061TIP3    H124674   1.400   2.971  14.385 -1.0296 -0.2180 -0.2684
 1061TIP3    H224675   1.447   2.827  14.388  1.4601  0.5667  1.1235
 1062TIP3   OH224676   0.571   3.779  14.797 -0.2115  0.3223  0.7425
 1062TIP3    H124677   0.481   3.794  14.769  0.4976  1.5995 -1.0381
 1062TIP3    H224678   0.625   3.808  14.723  1.7418  1.5619  2.5272
 1063TIP3   OH224679   1.831   6.157  13.768  0.2916  0.3231  0.8518
 1063TIP3    H124680   1.799   6.232  13.818 -1.5185  0.6036 -0.5983
 1063TIP3    H224681   1.880   6.195  13.695  0.3312  0.0416  0.7272
 1064TIP3   OH224682   4.258   2.758  17.124  0.2410  0.4092  0.2007
 1064TIP3    H124683   4.314   2.681  17.134 -0.7793 -0.3826 -0.0647
 1064TIP3    H224684   4.319   2.831  17.121  1.4675 -0.6114 -2.5871
 1065TIP3   OH224685   1.452   5.931  16.149  0.1731  0.2454 -0.3615
 1065TIP3    H124686   1.400   5.864  16.193 -0.7063  0.7054 -0.6833
 1065TIP3    H224687   1.395   5.965  16.081  0.0895  2.2787  0.6465
 1066TIP3   OH224688   2.631   6.026  10.766  0.2649 -0.3138 -0.3663
 1066TIP3    H124689   2.639   5.931  10.752  0.3741 -0.2504 -0.7584
 1066TIP3    H224690   2.705   6.063  10.718  0.3478 -0.0446 -0.0270
 1067TIP3   OH224691   5.541   4.528  15.682  0.5621 -0.2303  0.8441
 1067TIP3    H124692   5.457   4.495  15.714  0.0472  0.3488  0.1240
 1067TIP3    H224693   5.534   4.623  15.690 -0.0019  0.0407 -1.8626
 1068TIP3   OH224694   4.072   3.060   2.408  0.3327 -0.2721 -0.3423
 1068TIP3    H124695   4.084   3.040   2.315 -1.2833 -2.5568 -0.1417
 1068TIP3    H224696   4.131   3.000   2.453  0.3949  0.1448  0.1319
 1069TIP3   OH224697   6.626   3.500  10.538  0.1628  0.4727  0.3517
 1069TIP3    H124698   6.606   3.413  10.504 -0.2491  0.8515 -0.4064
 1069TIP3    H224699   6.541   3.544  10.543  0.0418  0.0689  2.9825
 1070TIP3   OH224700   1.635   1.069  11.375  0.4273  0.9709  0.2945
 1070TIP3    H124701   1.608   1.105  11.290  0.7323  0.4010 -0.0479
 1070TIP3    H224702   1.563   1.090  11.434 -1.1318 -1.1459 -0.7585
 1071TIP3   OH224703   5.582   6.413  11.563  0.2589  0.0366 -0.1137
 1071TIP3    H124704   5.560   6.506  11.561  1.3808  0.3039 -0.9289
 1071TIP3    H224705   5.660   6.409  11.618 -0.8286 -0.6935  1.4635
 1072TIP3   OH224706   1.021   3.024   0.967  0.2204  0.6799 -0.0459
 1072TIP3    H124707   1.113   3.026   0.942 -0.4235  1.5883 -2.6847
 1072TIP3    H224708   1.020   2.983   1.054  2.8399 -1.8894 -1.0875
 1073TIP3   OH224709   1.069   0.447  11.622 -0.2623  0.2800 -0.0451
 1073TIP3    H124710   1.123   0.504  11.566 -0.6442  2.4512  1.6476
 1073TIP3    H224711   1.130   0.413  11.687 -0.3193  0.0000 -0.1386
 1074TIP3   OH224712   3.566   2.698  15.554  0.1222  0.4482  0.5814
 1074TIP3    H124713   3.639   2.724  15.497 -0.5892  0.0681 -0.5326
 1074TIP3    H224714   3.489   2.704  15.498 -0.8026  1.4347  1.9150
 1075TIP3   OH224715   5.382   2.665   2.847 -0.1174 -0.0271  0.4534
 1075TIP3    H124716   5.356   2.589   2.797  0.2917 -0.3503  0.7239
 1075TIP3    H224717   5.368   2.640   2.938  0.5009  0.0321  0.5688
 1076TIP3   OH224718   4.451   0.145  14.606  0.3320 -0.4068  0.1936
 1076TIP3    H124719   4.477   0.189  14.687 -0.4341  0.6858 -0.1257
 1076TIP3    H224720   4.408   0.065  14.635 -0.8680  0.4621  0.9614
 1077TIP3   OH224721   0.650   0.547   4.876 -0.2785 -0.9703 -0.2148
 1077TIP3    H124722   0.729   0.597   4.897 -1.0659 -0.4069  1.6095
 1077TIP3    H224723   0.646   0.479   4.944 -2.0170 -0.1939  0.5128
 1078TIP3   OH224724   2.797   1.272  14.429 -0.6658 -0.0673 -0.0932
 1078TIP3    H124725   2.798   1.366  14.415 -0.8882 -0.2467 -1.4712
 1078TIP3    H224726   2.716   1.255  14.476  0.6877  0.7046  2.7244
 1079TIP3   OH224727   5.735   6.329   5.846 -0.9660 -0.1870 -0.2232
 1079TIP3    H124728   5.761   6.237   5.849 -1.3022 -0.2794 -0.1019
 1079TIP3    H224729   5.723   6.348   5.753  0.2152  0.0538 -0.3403
 1080TIP3   OH224730   4.587   5.681  11.061  0.4928  0.6439  0.2261
 1080TIP3    H124731   4.649   5.639  11.001 -0.2894  0.1087 -0.2143
 1080TIP3    H224732   4.628   5.670  11.147  1.5246  1.2445 -0.1626
 1081TIP3   OH224733   1.751   1.162   6.434  0.2666  0.0947 -0.3275
 1081TIP3    H124734   1.704   1.237   6.399  0.1529  0.4069  0.4684
 1081TIP3    H224735   1.838   1.167   6.394  0.6416  1.3137  0.5790
 1082TIP3   OH224736   3.304   3.872   3.136 -0.4643  0.1133 -0.4983
 1082TIP3    H124737   3.388   3.833   3.157 -0.7830 -0.5722 -0.4777
 1082TIP3    H224738   3.309   3.961   3.172 -0.4152 -0.5078  1.1309
 1083TIP3   OH224739   1.124   3.925  15.436  0.6293 -0.3547  0.5290
 1083TIP3    H124740   1.155   3.858  15.375 -1.6614 -0.8727 -0.1822
 1083TIP3    H224741   1.105   3.877  15.517  0.4186 -0.2869  0.5198
 1084TIP3   OH224742   0.977   6.514  16.048 -0.4762 -0.5678 -0.0583
 1084TIP3    H124743   1.071   6.509  16.067 -0.8082 -2.4290  1.2757
 1084TIP3    H224744   0.968   6.596  15.999  1.5790  0.5850  1.3067
 1085TIP3   OH224745   5.011   1.201  11.887 -0.2480 -0.1482 -0.1720
 1085TIP3    H124746   5.000   1.170  11.977 -1.2472 -1.7626 -0.8238
 1085TIP3    H224747   4.923   1.226  11.859  0.2821  1.8490 -0.2134
 1086TIP3   OH224748   5.136   4.826  16.513 -0.0716  0.0332  0.0040
 1086TIP3    H124749   5.184   4.903  16.545  0.9101 -0.6397  0.1756
 1086TIP3    H224750   5.054   4.862  16.478 -0.6330  0.9287  2.0988
 1087TIP3   OH224751   2.936   6.557  16.571  0.0095 -0.1176  0.3387
 1087TIP3    H124752   2.986   6.567  16.652  0.2404 -0.0368  0.1904
 1087TIP3    H224753   2.925   6.463  16.561  2.2795 -0.3197 -0.8899
 1088TIP3   OH224754   4.485   5.588  16.322 -0.2019 -0.1091  0.1266
 1088TIP3    H124755   4.500   5.539  16.402  0.4222  0.9487  0.6896
 1088TIP3    H224756   4.401   5.556  16.289 -0.8901  0.0262  1.6635
 1089TIP3   OH224757   6.777   5.762   0.687 -0.0457 -0.0980 -0.2750
 1089TIP3    H124758   6.866   5.731   0.673 -0.2087  0.0053 -1.7004
 1089TIP3    H224759   6.776   5.794   0.777  1.8015  1.3412 -0.7136
 1090TIP3   OH224760   2.009   2.740  12.948 -0.0974  0.4272 -0.5307
 1090TIP3    H124761   1.970   2.735  12.861 -1.6942 -0.2118  0.1775
 1090TIP3    H224762   2.074   2.810  12.941  1.6321 -1.2542 -2.8765
 1091TIP3   OH224763   2.511   6.659   1.953 -0.1948 -0.1579  0.6682
 1091TIP3    H124764   2.431   6.672   1.901 -0.1767  1.3369  0.9511
 1091TIP3    H224765   2.503   6.723   2.024  0.4912 -1.1351  1.6586
 1092TIP3   OH224766   5.107   2.623  11.405 -0.4015 -0.2615 -0.1452
 1092TIP3    H124767   5.058   2.541  11.414 -1.9389  0.5746 -0.4918
 1092TIP3    H224768   5.189   2.607  11.451 -0.3143 -2.2581 -0.8505
 1093TIP3   OH224769   1.958   2.741   6.306 -0.6479 -0.4623 -0.1051
 1093TIP3    H124770   1.893   2.713   6.370  0.3157  0.4808  1.3380
 1093TIP3    H224771   2.042   2.735   6.353  0.2874 -1.3365 -1.8027
 1094TIP3   OH224772   3.634   2.845  12.387  0.3109 -0.0730  0.3728
 1094TIP3    H124773   3.639   2.938  12.405  3.0888 -0.4431  2.0821
 1094TIP3    H224774   3.717   2.824  12.343 -0.2396 -1.7440  0.0386
 1095TIP3   OH224775   4.692   3.836  12.154  0.1417 -0.6122 -0.0502
 1095TIP3    H124776   4.650   3.922  12.142  0.3660 -0.6467 -1.2035
 1095TIP3    H224777   4.732   3.841  12.240 -0.4642  0.1807  0.2030
 1096TIP3   OH224778   6.146   3.383   3.078  0.1765 -0.5907 -0.0909
 1096TIP3    H124779   6.168   3.343   2.994  0.9435  0.6798 -0.5173
 1096TIP3    H224780   6.206   3.457   3.086 -0.7343  0.0647  0.9983
 1097TIP3   OH224781   5.216   6.228   5.377  0.6060 -0.4727  0.0763
 1097TIP3    H124782   5.125   6.205   5.358 -0.0627  1.9989 -0.1440
 1097TIP3    H224783   5.266   6.187   5.307 -0.6582  0.1428 -1.2547
 1098TIP3   OH224784   6.439   2.253   3.444 -0.3237 -0.2996 -0.4121
 1098TIP3    H124785   6.447   2.258   3.349  0.8596 -0.5203 -0.3456
 1098TIP3    H224786   6.359   2.301   3.465 -1.8805 -2.1792 -1.6964
 1099TIP3   OH224787   5.291   3.681  11.790 -0.7492 -0.2495 -0.2642
 1099TIP3    H124788   5.238   3.760  11.800 -1.5403 -0.7488 -0.4463
 1099TIP3    H224789   5.336   3.692  11.707 -0.8463  0.0200 -0.2817
 1100TIP3   OH224790   0.280   0.698  14.045 -0.0946 -0.2896  0.0208
 1100TIP3    H124791   0.282   0.611  14.086 -0.3054 -1.1436 -1.6846
 1100TIP3    H224792   0.187   0.721  14.043 -0.1364 -0.4929 -0.4507
 1101TIP3   OH224793   0.221   1.780  12.445 -0.0773 -0.1936  0.6366
 1101TIP3    H124794   0.257   1.728  12.516  0.9666 -0.4507 -0.0566
 1101TIP3    H224795   0.145   1.730  12.414 -0.3362 -0.2421  1.3507
 1102TIP3   OH224796   5.320   4.123   6.585 -0.5108 -0.6508 -0.1846
 1102TIP3    H124797   5.383   4.151   6.652 -1.5221 -1.9978  1.3988
 1102TIP3    H224798   5.283   4.205   6.552  0.8935  0.0953 -0.0115
 1103TIP3   OH224799   4.453   3.961  11.140  0.2024 -0.2570  0.2070
 1103TIP3    H124800   4.368   4.004  11.153 -0.7351 -1.7868 -0.5213
 1103TIP3    H224801   4.480   3.988  11.052  0.4690  0.2146  0.4311
 1104TIP3   OH224802   0.216   6.681   1.149 -0.0254  0.1389 -0.0503
 1104TIP3    H124803   0.133   6.634   1.159 -0.3432  0.4465 -1.1731
 1104TIP3    H224804   0.283   6.614   1.165 -0.4807 -0.3701 -0.2409
 1105TIP3   OH224805   0.226   5.401   3.797 -0.3995 -0.0090  0.4232
 1105TIP3    H124806   0.141   5.363   3.820 -0.5913  0.4470  0.4964
 1105TIP3    H224807   0.206   5.460   3.723 -0.0599 -0.2795  0.1125
 1106TIP3   OH224808   2.050   2.094   5.478 -0.2825  0.0860 -0.3513
 1106TIP3    H124809   2.034   2.188   5.486 -0.7876 -0.0221  0.0169
 1106TIP3    H224810   1.972   2.060   5.434  0.0228 -0.1220 -0.7321
 1107TIP3   OH224811   1.060   5.346  12.483 -0.2772 -0.2238  0.6344
 1107TIP3    H124812   1.025   5.372  12.398 -0.1167 -0.2806  0.5507
 1107TIP3    H224813   0.986   5.303  12.528  0.6800 -4.2202 -1.1524
 1108TIP3   OH224814   4.272   4.218  16.923  0.5247  0.0981 -0.0183
 1108TIP3    H124815   4.181   4.211  16.950  0.4629  1.5160  0.2584
 1108TIP3    H224816   4.269   4.225  16.827  0.3144  0.4524  0.0131
 1109TIP3   OH224817   2.946   2.414   3.429  0.0531  0.4674 -0.0032
 1109TIP3    H124818   2.992   2.337   3.461  1.4465  1.0572 -0.4657
 1109TIP3    H224819   3.014   2.482   3.424 -0.9901  1.5420 -0.2212
 1110TIP3   OH224820   5.897   3.261   2.797  0.1163 -0.3641  0.5213
 1110TIP3    H124821   5.847   3.301   2.868  1.4769 -1.5517  2.2288
 1110TIP3    H224822   5.986   3.257   2.830  0.8898 -0.5807 -1.4570
 1111TIP3   OH224823   0.353   3.719   1.454 -0.0359  0.7137 -0.1975
 1111TIP3    H124824   0.304   3.800   1.451  0.4495  1.0274  0.1976
 1111TIP3    H224825   0.315   3.669   1.526  0.6172  1.2218  0.5149
 1112TIP3   OH224826   1.257   2.408   5.958  0.1151  0.3917  0.5915
 1112TIP3    H124827   1.263   2.399   5.863  0.1632 -4.9227  0.8246
 1112TIP3    H224828   1.164   2.400   5.977  0.3305 -1.9450  0.9997
 1113TIP3   OH224829   2.677   0.045   2.310 -0.7031  0.8452  0.0551
 1113TIP3    H124830   2.752   0.005   2.354  0.9173  1.8531 -1.6833
 1113TIP3    H224831   2.639   0.103   2.376 -1.4471 -1.3660  1.7137
 1114TIP3   OH224832   5.877   1.414   2.449 -0.4258  0.8184 -0.0900
 1114TIP3    H124833   5.882   1.325   2.482 -1.9541  0.7825  0.0980
 1114TIP3    H224834   5.807   1.412   2.384  0.2108  1.6586 -0.8223
 1115TIP3   OH224835   5.415   0.246  11.450  0.0651 -0.0469 -0.0193
 1115TIP3    H124836   5.430   0.231  11.356 -0.8653 -0.5118 -0.0972
 1115TIP3    H224837   5.338   0.194  11.471  0.3899 -0.1193  1.0612
 1116TIP3   OH224838   3.247   3.210  13.294  0.5195 -0.3897  0.1795
 1116TIP3    H124839   3.200   3.215  13.377 -0.5710  0.7503 -0.4630
 1116TIP3    H224840   3.309   3.283  13.298  0.3890 -0.2658 -0.0420
 1117TIP3   OH224841   1.125   1.063   3.389 -0.0259  0.2091 -0.4484
 1117TIP3    H124842   1.217   1.083   3.406  0.1006 -1.0258  0.4100
 1117TIP3    H224843   1.094   1.022   3.469 -1.0267 -0.4266 -1.1398
 1118TIP3   OH224844   1.584   3.743   3.480  0.4406 -0.0713 -0.0988
 1118TIP3    H124845   1.644   3.761   3.408  0.0128 -1.6914 -0.9178
 1118TIP3    H224846   1.540   3.662   3.454 -0.6912  0.0333  1.3796
 1119TIP3   OH224847   3.048   1.809   2.131 -0.7936  0.3151 -1.0566
 1119TIP3    H124848   3.025   1.872   2.199  0.0825  0.4928 -0.9074
 1119TIP3    H224849   3.068   1.728   2.179  1.3253  0.8519 -0.9107
 1120TIP3   OH224850   5.610   1.041   4.791 -0.2415 -0.0901 -0.3999
 1120TIP3    H124851   5.630   1.043   4.697 -1.6605  0.9987 -0.7016
 1120TIP3    H224852   5.693   1.014   4.832 -0.1774 -2.8938 -2.0827
 1121TIP3   OH224853   1.317   3.057   5.253 -0.1465  0.1160  0.0508
 1121TIP3    H124854   1.326   3.107   5.334  1.3712  1.9115 -1.1538
 1121TIP3    H224855   1.234   3.088   5.216 -1.4502 -1.5608  1.3963
 1122TIP3   OH224856   6.349   2.183   0.735  0.2591 -0.6433 -0.4022
 1122TIP3    H124857   6.295   2.251   0.776 -0.3554 -1.2350 -0.2150
 1122TIP3    H224858   6.412   2.232   0.682 -0.8572  0.0603 -1.1440
 1123TIP3   OH224859   6.365   1.388  11.266  0.0735  0.6357 -0.3687
 1123TIP3    H124860   6.424   1.463  11.259 -0.0752  0.6348 -2.2140
 1123TIP3    H224861   6.280   1.422  11.237 -0.0529 -0.1678 -0.9674
 1124TIP3   OH224862   6.556   5.666  14.861  0.0171  0.0253  0.3596
 1124TIP3    H124863   6.633   5.721  14.877 -0.3964  0.1033  2.2982
 1124TIP3    H224864   6.485   5.728  14.846 -0.1408 -0.0071  0.9756
 1125TIP3   OH224865   1.761   5.524   1.209  0.5986  0.3589 -0.5426
 1125TIP3    H124866   1.694   5.560   1.151  0.0697 -0.9801 -0.8112
 1125TIP3    H224867   1.717   5.517   1.294  0.2511 -0.8285 -0.7948
 1126TIP3   OH224868   2.497   5.304  16.058  0.0265 -0.5539  0.3463
 1126TIP3    H124869   2.525   5.214  16.041  1.5347 -0.2929  1.2316
 1126TIP3    H224870   2.425   5.294  16.120 -1.1516 -1.2076 -1.0769
 1127TIP3   OH224871   3.467   1.706   2.559 -0.0082  0.0692 -0.1388
 1127TIP3    H124872   3.383   1.671   2.588  0.2371 -0.2754  0.1744
 1127TIP3    H224873   3.530   1.675   2.624  0.3065  0.6235 -0.1746
 1128TIP3   OH224874   0.493   3.331  11.540  0.3571  0.3966  0.5857
 1128TIP3    H124875   0.476   3.267  11.609  0.7403 -1.5126 -1.0026
 1128TIP3    H224876   0.587   3.346  11.543  0.6191 -0.9452 -0.5472
 1129TIP3   OH224877   6.466   3.263   5.002  0.2581  0.5327  0.1147
 1129TIP3    H124878   6.403   3.261   5.075 -0.5308  0.6935 -0.5488
 1129TIP3    H224879   6.431   3.330   4.943  0.5463 -0.0426 -0.7171
 1130TIP3   OH224880   5.850   5.951  11.007  0.1067  0.2920  0.3142
 1130TIP3    H124881   5.858   5.892  10.932  1.0683 -0.1188  0.7169
 1130TIP3    H224882   5.836   6.037  10.968 -3.0945 -0.3820 -0.2499
 1131TIP3   OH224883   2.229   3.786   3.380  0.0820  0.2946 -0.2680
 1131TIP3    H124884   2.288   3.857   3.353 -0.3426  0.6714 -0.2292
 1131TIP3    H224885   2.223   3.729   3.304  0.9508 -0.0636 -0.0799
 1132TIP3   OH224886   1.384   1.651   5.801  0.4557  0.4553 -0.0834
 1132TIP3    H124887   1.323   1.724   5.807 -1.4009 -1.1407  2.7199
 1132TIP3    H224888   1.340   1.587   5.744  0.7584  0.3434 -0.1975
 1133TIP3   OH224889   1.575   2.622  12.673 -0.0517 -0.3412 -0.1263
 1133TIP3    H124890   1.543   2.539  12.637 -0.1460 -0.8347  1.0399
 1133TIP3    H224891   1.503   2.653  12.728 -0.1652  0.7194 -0.8458
 1134TIP3   OH224892   3.049   5.986  16.593 -0.1619  0.2720 -0.0976
 1134TIP3    H124893   3.020   5.915  16.535  1.7324  0.2507 -1.0910
 1134TIP3    H224894   3.000   5.972  16.674 -0.7238 -1.4470 -0.6890
 1135TIP3   OH224895   5.723   4.744  12.251 -0.6323 -0.4310  0.9165
 1135TIP3    H124896   5.796   4.721  12.309  0.4532 -1.6445 -0.8426
 1135TIP3    H224897   5.679   4.661  12.232  0.0547 -0.3670 -1.2529
 1136TIP3   OH224898   0.295   5.625  16.749  0.3963 -0.5118 -0.2362
 1136TIP3    H124899   0.273   5.692  16.813  0.0121  0.9158 -1.7984
 1136TIP3    H224900   0.213   5.609  16.702  0.3872 -2.3810  0.3465
 1137TIP3   OH224901   0.523   4.676   1.018  0.6406 -0.2063 -0.0054
 1137TIP3    H124902   0.485   4.589   1.029  1.0384 -0.4369 -0.3818
 1137TIP3    H224903   0.451   4.730   0.987  0.2764 -0.2865  0.6798
 1138TIP3   OH224904   5.965   3.501   0.422 -0.0437  0.0102  0.4535
 1138TIP3    H124905   6.010   3.494   0.506  0.3597  0.9361  0.3234
 1138TIP3    H224906   6.029   3.542   0.364 -0.3463 -0.5373 -0.2894
 1139TIP3   OH224907   1.486   6.614  15.400  0.3387  0.2079 -0.1844
 1139TIP3    H124908   1.449   6.684  15.346 -2.4100 -2.4923 -2.1896
 1139TIP3    H224909   1.577   6.607  15.371  0.3057  2.0891 -0.8491
 1140TIP3   OH224910   0.071   3.146  12.419 -0.3462 -0.2818  0.1015
 1140TIP3    H124911   0.144   3.125  12.478 -1.6538 -2.1622  1.1288
 1140TIP3    H224912  -0.005   3.153  12.477 -1.3061 -0.1324 -1.1433
 1141TIP3   OH224913   1.446   2.350  13.671  0.0271  0.2185 -0.5773
 1141TIP3    H124914   1.521   2.410  13.673  0.9308 -0.8351 -1.4746
 1141TIP3    H224915   1.466   2.290  13.599 -1.7621 -0.0010 -0.9202
 1142TIP3   OH224916   2.481   1.574   1.342  0.5452 -0.6076  0.1552
 1142TIP3    H124917   2.411   1.517   1.376 -0.6276  1.1382  0.7976
 1142TIP3    H224918   2.460   1.661   1.375  1.8138  0.3899 -1.4729
 1143TIP3   OH224919   5.287   6.027   3.748 -0.1011 -0.1518 -0.2729
 1143TIP3    H124920   5.359   6.073   3.706 -0.4404  0.6223 -0.0203
 1143TIP3    H224921   5.312   6.020   3.840 -0.3936  0.2328 -0.1588
 1144TIP3   OH224922   1.706   2.178  11.049 -0.6916 -0.0096  0.0248
 1144TIP3    H124923   1.756   2.150  10.973 -0.7882  0.8165 -0.3528
 1144TIP3    H224924   1.622   2.132  11.042  0.1848 -1.8446  0.9595
 1145TIP3   OH224925   5.313   3.106  15.352 -0.6595 -0.5750 -0.2438
 1145TIP3    H124926   5.347   3.022  15.382 -1.1096 -0.5958  0.2193
 1145TIP3    H224927   5.256   3.083  15.278  0.4228 -0.5264 -1.1209
 1146TIP3   OH224928   6.031   4.317   6.745 -0.0434 -0.3315 -0.2763
 1146TIP3    H124929   6.062   4.247   6.802 -0.9816 -0.4286  0.1398
 1146TIP3    H224930   5.991   4.380   6.805  0.3618  0.3276 -0.6916
 1147TIP3   OH224931   2.190   5.249   1.618  0.0381  0.0545 -0.5176
 1147TIP3    H124932   2.127   5.305   1.572  0.1407  0.2677 -0.3986
 1147TIP3    H224933   2.145   5.165   1.628 -0.6918  0.5606  0.6331
 1148TIP3   OH224934   1.766   3.027  11.733  0.0858 -0.2637 -0.2152
 1148TIP3    H124935   1.861   3.030  11.741  0.2111 -2.1222 -0.5478
 1148TIP3    H224936   1.746   2.935  11.716 -1.5042  0.5197 -3.5419
 1149TIP3   OH224937   6.568   6.522   6.641  0.1072  0.2705 -0.0629
 1149TIP3    H124938   6.629   6.494   6.709  2.2230  1.5023 -1.3034
 1149TIP3    H224939   6.530   6.441   6.607  1.8870 -0.6833  0.0892
 1150TIP3   OH224940   3.288   4.735   4.009  0.6653 -0.3032 -0.0466
 1150TIP3    H124941   3.369   4.690   4.033 -0.1574 -1.0660  1.4047
 1150TIP3    H224942   3.299   4.824   4.042  0.9269 -0.3931  0.1119
 1151TIP3   OH224943   1.392   4.861   5.955  0.6221  0.2761  0.3760
 1151TIP3    H124944   1.341   4.786   5.985  0.0719 -0.6545 -2.5222
 1151TIP3    H224945   1.421   4.905   6.035  0.0044 -2.3690  2.1704
 1152TIP3   OH224946   3.821   0.318   2.951 -0.1600  0.5846 -0.5197
 1152TIP3    H124947   3.729   0.292   2.955 -0.5187  1.5262 -1.9012
 1152TIP3    H224948   3.821   0.411   2.971  0.6377  0.3837  0.4900
 1153TIP3   OH224949   4.354   2.335   1.137 -0.3031 -0.2982 -0.0222
 1153TIP3    H124950   4.409   2.281   1.193  1.9072  1.3506 -0.4353
 1153TIP3    H224951   4.304   2.390   1.198 -1.1561 -1.4457  0.3498
 1154TIP3   OH224952   0.524   3.529   4.247  0.1844 -0.0928  0.3865
 1154TIP3    H124953   0.538   3.488   4.333  0.9520 -2.3395 -0.7301
 1154TIP3    H224954   0.441   3.575   4.256  1.6189  2.2396  3.1821
 1155TIP3   OH224955   6.823   1.821  16.090  0.5805  0.0204 -1.1882
 1155TIP3    H124956   6.878   1.856  16.160 -0.2230  0.8611 -0.9634
 1155TIP3    H224957   6.754   1.772  16.135 -0.0152  0.6712 -1.3714
 1156TIP3   OH224958   2.374   0.154  10.573  0.2954 -0.2875 -0.2362
 1156TIP3    H124959   2.430   0.132  10.499  0.8098  1.2542 -0.3484
 1156TIP3    H224960   2.303   0.206  10.535 -0.3154 -0.8453  0.1314
 1157TIP3   OH224961   6.403   2.957   0.336  0.2536  0.9052  0.3028
 1157TIP3    H124962   6.469   2.926   0.274 -0.2146  1.2406 -0.3810
 1157TIP3    H224963   6.337   2.889   0.337 -0.5186  1.5996 -0.8014
 1158TIP3   OH224964   1.258   0.994  14.685 -0.1135  0.8200 -0.5933
 1158TIP3    H124965   1.251   0.905  14.719  0.3825  0.8272 -0.4612
 1158TIP3    H224966   1.174   1.035  14.706  0.0163  0.6814  0.2096
 1159TIP3   OH224967   2.976   4.698   3.859  0.3796 -0.3235  0.3419
 1159TIP3    H124968   3.056   4.706   3.808  0.1128 -2.1734 -0.4435
 1159TIP3    H224969   3.004   4.713   3.949  0.9515  2.4604 -0.1925
 1160TIP3   OH224970   1.832   0.362   2.052 -0.0740 -0.1974  0.2846
 1160TIP3    H124971   1.788   0.288   2.092  0.5445 -1.2426 -0.8839
 1160TIP3    H224972   1.827   0.346   1.958  0.0926  1.2413 -0.0067
 1161TIP3   OH224973   6.798   5.866  13.369 -0.4925  0.3092 -0.0271
 1161TIP3    H124974   6.856   5.811  13.316 -0.1759 -1.2203  1.8096
 1161TIP3    H224975   6.855   5.934  13.406 -0.6824  1.2729 -1.4239
 1162TIP3   OH224976   5.852   4.549   4.507 -0.2013 -0.1011  0.0603
 1162TIP3    H124977   5.760   4.555   4.532 -0.0432  1.5872  0.3446
 1162TIP3    H224978   5.881   4.640   4.499  1.7020 -0.5727  0.9429
 1163TIP3   OH224979   6.685   4.465  13.017 -0.0167 -0.7194 -0.1768
 1163TIP3    H124980   6.706   4.448  12.926  1.6776  1.8751 -0.3774
 1163TIP3    H224981   6.770   4.475  13.060 -0.7881 -0.6628  1.4192
 1164TIP3   OH224982   2.166   5.552   5.673  0.3449 -0.4419  0.0341
 1164TIP3    H124983   2.153   5.533   5.580 -2.0329  2.8891 -0.5071
 1164TIP3    H224984   2.147   5.469   5.716  0.2740 -1.7794 -2.3591
 1165TIP3   OH224985   4.575   1.525  12.310 -0.1199  0.0593 -0.3288
 1165TIP3    H124986   4.501   1.481  12.268  0.4961 -2.1928  0.7907
 1165TIP3    H224987   4.630   1.554  12.237 -0.0656 -2.0001 -1.1859
 1166TIP3   OH224988   0.797   1.377   3.896 -0.4435 -0.0216  0.0296
 1166TIP3    H124989   0.758   1.424   3.969 -1.1712  0.0247 -0.3815
 1166TIP3    H224990   0.723   1.331   3.855  0.2828 -1.9298  0.7106
 1167TIP3   OH224991   2.809   5.626  16.691  0.0505 -0.7777 -0.4767
 1167TIP3    H124992   2.904   5.637  16.702  0.0636 -1.4304  0.0867
 1167TIP3    H224993   2.778   5.596  16.776 -0.6954 -0.3911 -0.6057
 1168TIP3   OH224994   6.120   3.471   3.531  0.0246 -0.8616  0.1622
 1168TIP3    H124995   6.027   3.450   3.523  0.0756 -1.3265  0.7351
 1168TIP3    H224996   6.133   3.545   3.471 -1.2517  0.8199  1.8400
 1169TIP3   OH224997   3.558   0.328  12.335 -0.3878 -0.0775 -0.1679
 1169TIP3    H124998   3.463   0.336  12.338 -0.4129  1.0856 -2.3132
 1169TIP3    H224999   3.590   0.405  12.382 -0.4578 -0.9083  1.2999
 1170TIP3   OH225000   3.763   6.390  11.883  0.1043 -0.3125  0.0207
 1170TIP3    H125001   3.709   6.314  11.865 -0.4193  0.3314 -1.2220
 1170TIP3    H225002   3.716   6.439  11.951  0.6528 -1.2808  1.1328
 1171TIP3   OH225003   0.371   1.199  16.172 -0.0608  0.1700 -0.2711
 1171TIP3    H125004   0.381   1.216  16.078 -0.9400 -0.7501 -0.5464
 1171TIP3    H225005   0.350   1.106  16.177 -1.6302  0.5506  0.7198
 1172TIP3   OH225006   5.367   0.026  16.067 -0.1186 -0.6247  0.8069
 1172TIP3    H125007   5.325  -0.035  16.128 -4.2652  1.4959  0.4363
 1172TIP3    H225008   5.343   0.113  16.099 -0.0870  0.6582 -2.2634
 1173TIP3   OH225009   1.740   6.024  15.093 -0.6753 -0.0855 -0.2368
 1173TIP3    H125010   1.747   6.021  15.188 -0.2744 -1.4068 -0.2835
 1173TIP3    H225011   1.658   5.979  15.073 -0.2629 -0.7142 -0.5497
 1174TIP3   OH225012   3.007   6.296   1.159  0.2139 -0.0935  0.4960
 1174TIP3    H125013   3.044   6.374   1.200  0.7301 -0.6221  1.0790
 1174TIP3    H225014   3.046   6.223   1.208  1.4668 -0.7905 -1.4055
 1175TIP3   OH225015   0.930   0.710   0.813  0.0289  0.1126 -0.2272
 1175TIP3    H125016   0.975   0.758   0.743  2.1588 -0.9221  0.3675
 1175TIP3    H225017   0.837   0.715   0.789  0.1745  3.7634 -0.6309
 1176TIP3   OH225018   1.740   5.438   3.359  0.1520 -0.3829 -0.1165
 1176TIP3    H125019   1.771   5.431   3.449  0.6802  0.1674 -0.2557
 1176TIP3    H225020   1.810   5.399   3.306 -0.6360 -1.7307 -0.2141
 1177TIP3   OH225021   2.414   5.819   0.245  0.0143 -0.4124 -0.1411
 1177TIP3    H125022   2.351   5.771   0.298  1.0376 -1.6405  0.0039
 1177TIP3    H225023   2.364   5.850   0.170 -1.2907  0.7220  1.1275
 1178TIP3   OH225024   5.128   5.185   1.353 -0.1860 -1.1574 -0.0658
 1178TIP3    H125025   5.089   5.198   1.267 -2.4629 -1.4276  0.8563
 1178TIP3    H225026   5.060   5.141   1.404  0.3603  0.6268  2.4164
 1179TIP3   OH225027   2.808   5.670  14.567  0.5615 -0.0452 -0.0499
 1179TIP3    H125028   2.852   5.678  14.482 -1.2336 -0.7640 -1.1005
 1179TIP3    H225029   2.866   5.614  14.619  1.3980 -0.0799 -0.9910
 1180TIP3   OH225030   4.712   3.560  15.940 -0.4486  0.2178  0.1502
 1180TIP3    H125031   4.743   3.628  15.999 -0.2070  2.2894 -2.1946
 1180TIP3    H225032   4.775   3.488  15.952 -0.2953  0.6318  2.1735
 1181TIP3   OH225033   1.077   4.117   4.835 -0.5516  1.1773 -0.7675
 1181TIP3    H125034   1.145   4.145   4.897  1.3353  0.8595 -2.5903
 1181TIP3    H225035   1.018   4.193   4.829  0.3793  1.9864 -0.1450
 1182TIP3   OH225036   1.343   5.919   1.775  0.7033 -0.2114  0.0015
 1182TIP3    H125037   1.418   5.899   1.830  0.3552  3.8540  2.3108
 1182TIP3    H225038   1.370   5.995   1.723 -1.5845  1.1636  0.6514
 1183TIP3   OH225039   2.020   0.469   0.252  0.1358 -0.9014  0.3991
 1183TIP3    H125040   1.990   0.486   0.163  0.6297  0.0626  0.4017
 1183TIP3    H225041   1.973   0.534   0.306  2.0662  0.5674  0.4176
 1184TIP3   OH225042   6.654   3.794   0.547  0.0065 -0.4815 -0.8034
 1184TIP3    H125043   6.697   3.710   0.529 -0.3842 -0.7333 -0.5951
 1184TIP3    H225044   6.696   3.856   0.488  0.7594 -0.6902 -0.4998
 1185TIP3   OH225045   3.062   4.768  12.924 -0.0709  0.1407 -0.4312
 1185TIP3    H125046   3.080   4.678  12.898  2.1408  0.8213 -1.4582
 1185TIP3    H225047   3.107   4.779  13.008 -3.1530 -0.6066  1.5007
 1186TIP3   OH225048   6.421   3.799  14.483 -0.6424  0.6867  0.0436
 1186TIP3    H125049   6.399   3.828  14.571  0.0913 -0.4689  0.6266
 1186TIP3    H225050   6.487   3.861  14.453 -0.7321  0.9522  0.3897
 1187TIP3   OH225051   3.098   5.301  13.431 -0.3549 -0.4877 -0.1291
 1187TIP3    H125052   3.069   5.219  13.390 -1.5242 -0.1890  0.0783
 1187TIP3    H225053   3.080   5.288  13.524  1.4393 -0.8055  0.2127
 1188TIP3   OH225054   0.149   4.250   1.749  0.1824 -0.4095 -0.6042
 1188TIP3    H125055   0.170   4.186   1.682  1.7599  0.2830 -0.8193
 1188TIP3    H225056   0.191   4.217   1.828 -0.4648 -0.4969 -0.2859
 1189TIP3   OH225057   4.516   6.692   2.374  0.1932  0.4773  0.4613
 1189TIP3    H125058   4.586   6.727   2.319 -0.2931  1.5183  0.4893
 1189TIP3    H225059   4.560   6.664   2.454  1.0714 -1.9426 -0.7581
 1190TIP3   OH225060   5.379   0.849   2.279 -0.0287  0.3506  0.3497
 1190TIP3    H125061   5.422   0.876   2.198  1.2771 -0.3267  0.7806
 1190TIP3    H225062   5.443   0.792   2.322 -2.6348 -3.6564 -0.5542
 1191TIP3   OH225063   2.058   3.405   4.543  0.0465  0.5919 -0.1817
 1191TIP3    H125064   2.088   3.489   4.576  0.4068  0.6285 -0.5974
 1191TIP3    H225065   2.135   3.348   4.548  0.3849  0.8624 -1.8654
 1192TIP3   OH225066   0.436   0.637  16.977  0.7934 -0.0011  0.5782
 1192TIP3    H125067   0.439   0.713  17.035 -3.3836  0.8692 -0.0055
 1192TIP3    H225068   0.465   0.671  16.892 -0.3013  0.7832  0.4989
 1193TIP3   OH225069   2.651   2.946   0.086 -0.1562 -0.2073  0.1307
 1193TIP3    H125070   2.598   2.872   0.117 -0.7855  0.1394 -0.1012
 1193TIP3    H225071   2.722   2.905   0.036 -0.7163 -0.6448 -0.3180
 1194TIP3   OH225072   0.570   5.166   5.810 -0.5051  0.3823 -0.2633
 1194TIP3    H125073   0.528   5.108   5.746  0.4504 -0.5075 -0.0945
 1194TIP3    H225074   0.545   5.130   5.895 -0.3923  0.5777 -0.1464
 1195TIP3   OH225075   6.310   2.338  10.753 -0.0834  0.0496  0.2116
 1195TIP3    H125076   6.343   2.254  10.719 -0.9508 -1.5044  2.8988
 1195TIP3    H225077   6.215   2.331  10.743 -0.1094  1.1823 -0.4592
 1196TIP3   OH225078   5.106   5.328  11.160 -0.2942  0.5804  0.1272
 1196TIP3    H125079   5.160   5.326  11.081 -0.7738  0.3674 -0.1949
 1196TIP3    H225080   5.032   5.270  11.140 -0.1863  0.1619  0.8932
 1197TIP3   OH225081   4.469   6.535   5.569 -0.3003  0.3445 -0.4437
 1197TIP3    H125082   4.562   6.551   5.553 -0.4902  1.6708 -0.2975
 1197TIP3    H225083   4.466   6.498   5.657  0.0760  0.5315 -0.3495
 1198TIP3   OH225084   3.264   0.706  12.079 -0.0543  0.2351 -0.1641
 1198TIP3    H125085   3.329   0.637  12.063  0.6318 -0.3245  3.8581
 1198TIP3    H225086   3.181   0.669  12.049  0.7827 -0.9876 -1.0564
 1199TIP3   OH225087   3.173   5.245   0.776  0.4229 -0.0954  1.0330
 1199TIP3    H125088   3.220   5.302   0.716 -1.3558  1.0332  0.6366
 1199TIP3    H225089   3.114   5.195   0.720 -2.4010  2.0838  1.8476
 1200TIP3   OH225090   4.119   2.400  13.633 -0.1656  0.7349  0.2670
 1200TIP3    H125091   4.055   2.418  13.563 -0.4368 -0.5832  0.1572
 1200TIP3    H225092   4.197   2.448  13.606 -1.1795  2.6554  0.5637
 1201TIP3   OH225093   4.865   1.543   3.124 -0.1080 -0.4694 -0.2877
 1201TIP3    H125094   4.824   1.592   3.196  0.9279 -0.6046  0.4086
 1201TIP3    H225095   4.818   1.459   3.124 -0.3354 -0.3477  0.0225
 1202TIP3   OH225096   6.111   2.696   4.781 -0.4014  0.4168  0.2197
 1202TIP3    H125097   6.029   2.695   4.829 -0.8711  0.2263 -0.5617
 1202TIP3    H225098   6.088   2.662   4.694  0.5888 -0.0637  0.1284
 1203TIP3   OH225099   2.411   0.481   4.059 -0.2042 -0.1266  0.0035
 1203TIP3    H125100   2.450   0.398   4.085  0.7518  0.6066  1.0368
 1203TIP3    H225101   2.376   0.465   3.972  0.2459 -1.5163  0.0512
 1204TIP3   OH225102   4.649   2.469   6.066  0.1388 -0.0876 -0.0415
 1204TIP3    H125103   4.621   2.377   6.066 -0.9026  0.1817 -1.8519
 1204TIP3    H225104   4.745   2.464   6.068  0.0989 -1.2001  0.0799
 1205TIP3   OH225105   0.893   6.166   0.122 -0.3594  0.2065 -0.4007
 1205TIP3    H125106   0.924   6.223   0.051 -0.0882  0.1516 -0.3288
 1205TIP3    H225107   0.799   6.158   0.107 -0.3793  0.5710 -0.4873
 1206TIP3   OH225108   4.468   1.832   2.319 -0.0646  0.1232 -0.5608
 1206TIP3    H125109   4.375   1.820   2.297 -0.0818  2.2552 -1.9356
 1206TIP3    H225110   4.509   1.858   2.236  1.3606  1.2530  0.4359
 1207TIP3   OH225111   0.014   6.588  16.159 -0.4816  0.5790 -0.0133
 1207TIP3    H125112   0.110   6.591  16.155 -0.4300 -1.0694 -0.9953
 1207TIP3    H225113  -0.005   6.549  16.244 -0.2806  0.7450  0.1097
 1208TIP3   OH225114   3.755   6.092   3.306 -0.2737  0.2248 -0.3246
 1208TIP3    H125115   3.669   6.084   3.265 -1.3999  0.9451  1.7395
 1208TIP3    H225116   3.772   6.005   3.343 -1.0310  0.5669  0.8848
 1209TIP3   OH225117   0.707   1.159   4.794 -0.4099  0.4234 -0.1918
 1209TIP3    H125118   0.738   1.195   4.711 -1.4582 -1.3405 -1.4169
 1209TIP3    H225119   0.624   1.205   4.810  0.6530  2.0665  0.8747
 1210TIP3   OH225120   2.629   4.609  10.998  0.5584 -0.7451 -0.0837
 1210TIP3    H125121   2.712   4.563  10.984  1.0895  0.3704 -0.7197
 1210TIP3    H225122   2.609   4.595  11.091  2.6401  0.8524  0.6757
 1211TIP3   OH225123   3.538   3.490   2.506 -0.5698  0.3598 -0.1514
 1211TIP3    H125124   3.568   3.474   2.596 -0.9916  1.6975  0.2506
 1211TIP3    H225125   3.583   3.424   2.454 -0.7856 -0.8420  1.1235
 1212TIP3   OH225126   5.140   6.672   5.849 -0.3677  0.1382  0.1605
 1212TIP3    H125127   5.231   6.678   5.819 -0.4748  0.6043 -0.0975
 1212TIP3    H225128   5.145   6.679   5.944 -0.2148  1.5242  0.0819
 1213TIP3   OH225129   4.873   0.388   4.629 -0.1862 -0.6013  0.5115
 1213TIP3    H125130   4.881   0.476   4.666  0.0126  0.4744 -1.9363
 1213TIP3    H225131   4.779   0.371   4.626 -0.4808  1.0771 -2.2624
 1214TIP3   OH225132   4.717   3.080   0.360 -0.3470 -0.1445 -0.2953
 1214TIP3    H125133   4.710   3.033   0.443  2.1019  0.5844  0.3843
 1214TIP3    H225134   4.652   3.151   0.368 -0.1438 -0.0749  1.0008
 1215TIP3   OH225135   5.100   6.504  16.522  0.1257 -0.0129  0.4176
 1215TIP3    H125136   5.158   6.434  16.494  2.1406  1.0873  1.5562
 1215TIP3    H225137   5.107   6.504  16.618 -2.8086 -0.6289  0.7384
 1216TIP3   OH225138   0.061   0.247  11.687  0.1861 -0.0265 -0.1537
 1216TIP3    H125139   0.145   0.258  11.642  1.2808  1.6859  2.0625
 1216TIP3    H225140  -0.002   0.295  11.633  0.9248 -0.1179 -1.1131
 1217TIP3   OH225141   3.764   1.052   6.113 -0.3266 -0.4035  0.3644
 1217TIP3    H125142   3.842   1.104   6.094 -0.1974 -0.3211  1.0880
 1217TIP3    H225143   3.793   0.961   6.112 -0.3568 -0.4101  0.0132
 1218TIP3   OH225144   1.472   1.220   2.719  0.5279  0.6499  0.1443
 1218TIP3    H125145   1.507   1.142   2.677 -0.5607 -1.5591  3.0084
 1218TIP3    H225146   1.382   1.227   2.686  0.1397 -0.2331  0.9819
 1219TIP3   OH225147   5.248   0.261  17.037 -0.3413 -0.0610  0.1426
 1219TIP3    H125148   5.190   0.187  17.020 -1.2685  0.5580  0.5347
 1219TIP3    H225149   5.301   0.269  16.957  0.0229 -1.3564  0.2344
 1220TIP3   OH225150   4.793   4.207   5.167 -0.0517  0.3283  0.1782
 1220TIP3    H125151   4.878   4.203   5.211  0.7497 -0.3176 -1.3525
 1220TIP3    H225152   4.779   4.118   5.136 -1.5754  0.2994  0.8819
 1221TIP3   OH225153   6.354   1.522   5.254  0.0776  0.3370 -0.1554
 1221TIP3    H125154   6.423   1.505   5.189  2.0822  1.2763  1.5895
 1221TIP3    H225155   6.366   1.614   5.278 -1.4069  0.3389  0.6743
 1222TIP3   OH225156   3.412   2.692  11.489 -0.1378  0.2569 -0.1366
 1222TIP3    H125157   3.433   2.650  11.572  1.2024  0.1927 -0.4913
 1222TIP3    H225158   3.474   2.764  11.481 -1.3148  1.2912 -0.3334
 1223TIP3   OH225159   0.373   6.163  13.530  0.2992 -0.1063  0.0235
 1223TIP3    H125160   0.455   6.117  13.512 -0.6291 -1.8654  0.0912
 1223TIP3    H225161   0.369   6.232  13.463  1.9571  0.2108  0.2115
 1224TIP3   OH225162   3.772   6.275  14.730  0.4174 -0.1306 -0.2728
 1224TIP3    H125163   3.763   6.324  14.812 -0.2938  0.8171 -0.8937
 1224TIP3    H225164   3.852   6.223  14.742 -0.2841 -0.8768  1.4388
 1225TIP3   OH225165   0.017   6.582   2.715  0.1389 -0.1019  0.4708
 1225TIP3    H125166   0.060   6.604   2.633 -1.0216  1.2525  0.1809
 1225TIP3    H225167   0.046   6.649   2.776  0.2918 -0.5722  0.9209
 1226TIP3   OH225168   4.800   3.061  13.285 -0.1510 -0.0472  0.2222
 1226TIP3    H125169   4.748   3.033  13.360 -1.6710 -2.1762 -1.4988
 1226TIP3    H225170   4.775   3.153  13.272 -0.0288  0.2884  2.1201
 1227TIP3   OH225171   0.318   2.707   0.767 -0.4094 -0.1288 -0.2861
 1227TIP3    H125172   0.371   2.786   0.770 -1.6210  0.7133 -0.4283
 1227TIP3    H225173   0.348   2.661   0.688  0.2680  0.2023 -0.2271
 1228TIP3   OH225174   5.546   6.643   2.876  0.2156  0.5754 -0.3167
 1228TIP3    H125175   5.610   6.696   2.828  1.0120 -0.7985 -0.8353
 1228TIP3    H225176   5.461   6.676   2.847  0.6126  2.6260  0.5858
 1229TIP3   OH225177   0.224   5.871   3.398 -0.4762 -0.9259  0.5432
 1229TIP3    H125178   0.286   5.823   3.454 -2.3023 -2.2490  1.5162
 1229TIP3    H225179   0.173   5.924   3.459  0.4193  1.1057 -0.3688
 1230TIP3   OH225180   1.003   4.938  11.211 -0.4889 -0.0688 -0.0068
 1230TIP3    H125181   1.039   5.002  11.273  0.8285  0.2066 -1.0023
 1230TIP3    H225182   0.947   4.990  11.153 -0.2896 -0.0008 -0.1410
 1231TIP3   OH225183   5.989   4.392  13.252 -0.8152  0.1218 -0.3575
 1231TIP3    H125184   5.927   4.322  13.229 -0.2977 -0.1557 -0.9243
 1231TIP3    H225185   6.074   4.359  13.225 -0.1964 -0.0790  1.6994
 1232TIP3   OH225186   3.813   0.551  16.241  0.2748 -0.4797 -0.2192
 1232TIP3    H125187   3.855   0.602  16.311  0.2515 -1.8852  0.8715
 1232TIP3    H225188   3.736   0.603  16.216 -0.1967 -0.3278  1.4149
 1233TIP3   OH225189   0.457   6.645  15.081  0.6950  0.5506 -0.0576
 1233TIP3    H125190   0.528   6.707  15.065  2.0332 -0.3490  1.9768
 1233TIP3    H225191   0.409   6.681  15.156 -0.8087  0.9470 -1.1664
 1234TIP3   OH225192   4.141   6.792  12.276  0.1180  0.1946  0.0475
 1234TIP3    H125193   4.203   6.816  12.207  2.3771 -0.1381  1.8454
 1234TIP3    H225194   4.192   6.737  12.336 -1.3667  1.4191  2.5839
 1235TIP3   OH225195   0.332   4.350  13.886  0.2270  0.0455 -0.0378
 1235TIP3    H125196   0.251   4.375  13.930 -0.7394  1.6351 -2.5299
 1235TIP3    H225197   0.389   4.427  13.896  1.2517 -0.8167  1.1356
 1236TIP3   OH225198   5.937   4.470  10.577  0.0321  0.2967 -0.0817
 1236TIP3    H125199   6.024   4.434  10.594  0.5101  1.5913  0.3212
 1236TIP3    H225200   5.936   4.487  10.483  0.5161  0.9914  0.0292
 1237TIP3   OH225201   3.284   0.355  12.404  0.4980  0.3891 -0.3835
 1237TIP3    H125202   3.328   0.421  12.458 -1.1273  1.4280 -0.2367
 1237TIP3    H225203   3.201   0.338  12.450 -0.0609 -0.1492 -1.5440
 1238TIP3   OH225204   2.238   3.313  10.328 -0.2707  0.1966 -0.1821
 1238TIP3    H125205   2.174   3.279  10.266  0.4003  0.1313 -0.8504
 1238TIP3    H225206   2.240   3.248  10.398 -0.2743 -0.2498 -0.5952
 1239TIP3   OH225207   1.917   2.409  12.192 -0.3353  0.0094  0.1866
 1239TIP3    H125208   1.992   2.459  12.225  0.6269 -1.0393 -0.3201
 1239TIP3    H225209   1.902   2.444  12.104  0.2518 -0.4847 -0.1174
 1240TIP3   OH225210   1.516   2.106   1.202  0.0679 -0.6506  0.0386
 1240TIP3    H125211   1.508   2.180   1.141 -2.5339 -0.9665 -0.1058
 1240TIP3    H225212   1.451   2.042   1.171 -0.6709 -1.2325  2.5737
 1241TIP3   OH225213   0.109   1.289   0.049 -0.4262 -0.0223 -0.0459
 1241TIP3    H125214   0.117   1.350   0.123  2.5538  0.4211 -0.6059
 1241TIP3    H225215   0.089   1.344  -0.026 -0.6968 -0.1256 -0.0514
 1242TIP3   OH225216   1.239   2.766  14.889  0.0213 -0.3407  0.0755
 1242TIP3    H125217   1.270   2.856  14.878 -0.0023 -0.5643 -2.3137
 1242TIP3    H225218   1.316   2.712  14.876 -0.2457 -0.7167  0.0488
 1243TIP3   OH225219   4.410   6.728   0.765 -0.3514 -0.4767 -0.1228
 1243TIP3    H125220   4.444   6.641   0.744  1.6644  0.4867 -1.1861
 1243TIP3    H225221   4.419   6.735   0.860 -1.7887 -1.8729  0.1550
 1244TIP3   OH225222   6.705   2.843  16.728  0.3124  0.0250  0.1909
 1244TIP3    H125223   6.708   2.798  16.644 -0.3713 -1.3230  0.8474
 1244TIP3    H225224   6.740   2.930  16.710  1.1777 -0.5805 -1.2542
 1245TIP3   OH225225   0.865   5.865   1.304 -0.4324  0.1493 -0.0844
 1245TIP3    H125226   0.784   5.815   1.318  0.2026 -0.8058  0.3492
 1245TIP3    H225227   0.873   5.871   1.209 -1.5187  1.1415 -0.1395
 1246TIP3   OH225228   2.880   6.616  13.400 -0.5680  0.3420 -0.4841
 1246TIP3    H125229   2.831   6.682  13.351 -1.4026  0.3503  0.3359
 1246TIP3    H225230   2.961   6.661  13.425 -0.4037  0.5273 -1.3180
 1247TIP3   OH225231   3.864   5.908   1.238  0.2098 -0.2140  0.4253
 1247TIP3    H125232   3.942   5.854   1.252 -0.5189 -0.9435  1.8855
 1247TIP3    H225233   3.875   5.981   1.299 -0.1359 -0.2066  0.4805
 1248TIP3   OH225234   6.654   5.685  14.450 -0.1846  0.1468  0.1304
 1248TIP3    H125235   6.715   5.722  14.385  1.2659 -0.9639  0.8014
 1248TIP3    H225236   6.701   5.692  14.533 -2.1338  1.8140  1.1835
 1249TIP3   OH225237   5.620   0.346  15.083  0.2275  0.2945  0.0854
 1249TIP3    H125238   5.620   0.253  15.102 -1.4594 -0.0768 -1.4665
 1249TIP3    H225239   5.552   0.383  15.139  0.9818  0.6330  0.7947
 1250TIP3   OH225240   4.316   6.223  14.486 -0.1658  0.3578 -0.0340
 1250TIP3    H125241   4.279   6.266  14.563  0.3572  5.1936 -2.1389
 1250TIP3    H225242   4.241   6.201  14.432 -0.4344 -1.4242  1.0006
 1251TIP3   OH225243   1.237   2.811  11.237  0.7058 -0.6507 -0.0194
 1251TIP3    H125244   1.146   2.837  11.250  1.2227  2.4215 -1.6197
 1251TIP3    H225245   1.232   2.740  11.172 -0.5562  3.2230 -4.7708
 1252TIP3   OH225246   2.701   5.979  14.884  0.0032  0.2128  0.1461
 1252TIP3    H125247   2.760   5.931  14.825  0.5621  1.3046 -0.2098
 1252TIP3    H225248   2.757   6.011  14.954 -0.0793  1.5565 -0.3726
 1253TIP3   OH225249   3.045   4.345  13.356  0.1281 -1.1391  0.1033
 1253TIP3    H125250   3.065   4.253  13.374 -1.0001 -1.1933  1.1851
 1253TIP3    H225251   2.954   4.356  13.382 -0.0517  0.0603 -0.9470
 1254TIP3   OH225252   6.041   4.832   3.068  0.2048  0.4208 -0.4370
 1254TIP3    H125253   6.087   4.902   3.022  1.4588 -0.1460 -0.0729
 1254TIP3    H225254   5.957   4.872   3.094  0.3315  1.3574 -1.4124
 1255TIP3   OH225255   4.863   6.240  15.666  0.2993  0.2612  0.6496
 1255TIP3    H125256   4.813   6.246  15.747  0.4714  0.6400  0.7276
 1255TIP3    H225257   4.897   6.150  15.665  1.4773  0.6755  1.6859
 1256TIP3   OH225258   2.602   3.510   3.590  0.3899  0.6664  0.1343
 1256TIP3    H125259   2.618   3.423   3.626  0.0699  0.1163 -0.9995
 1256TIP3    H225260   2.676   3.525   3.531 -1.0323 -0.1747 -2.0205
 1257TIP3   OH225261   2.316   5.211  13.280 -0.2434 -0.4134 -0.0035
 1257TIP3    H125262   2.376   5.259  13.338  0.0349 -0.9413  0.1589
 1257TIP3    H225263   2.242   5.270  13.268 -0.7781 -0.6830  1.7124
 1258TIP3   OH225264   5.543   2.442  14.217 -0.7689 -0.0608  0.1493
 1258TIP3    H125265   5.536   2.521  14.164  1.4563 -0.2130 -0.4776
 1258TIP3    H225266   5.627   2.404  14.192 -0.8311 -1.5222  1.9488
 1259TIP3   OH225267   1.473   6.321   1.763 -0.0983 -0.3369  0.1848
 1259TIP3    H125268   1.473   6.385   1.692  0.7855 -0.9313 -0.3605
 1259TIP3    H225269   1.438   6.370   1.838 -0.3490  0.5056 -0.4573
 1260TIP3   OH225270   6.305   1.684  14.902  0.3677  0.0107 -0.1089
 1260TIP3    H125271   6.228   1.740  14.913  1.0301  0.7653  0.8694
 1260TIP3    H225272   6.270   1.595  14.901 -0.7067  0.4125 -1.7260
 1261TIP3   OH225273   6.789   4.249   5.943  0.0769 -0.4474 -0.0634
 1261TIP3    H125274   6.813   4.220   6.031  2.4555  0.7879 -0.2123
 1261TIP3    H225275   6.807   4.173   5.887 -1.6782 -1.3202  0.4651
 1262TIP3   OH225276   3.475   1.149  15.137  0.1067  0.1264  0.3359
 1262TIP3    H125277   3.409   1.084  15.115  1.0871 -0.7210 -0.1643
 1262TIP3    H225278   3.550   1.128  15.081  0.1486  2.2175 -0.4865
 1263TIP3   OH225279   0.381   1.309  11.459  0.1409 -0.2322 -0.3680
 1263TIP3    H125280   0.384   1.255  11.380 -0.4648 -0.1807 -0.4258
 1263TIP3    H225281   0.412   1.395  11.431  2.5124 -0.8687  0.0137
 1264TIP3   OH225282   0.289   6.536   0.351 -0.1151 -0.2589 -0.4472
 1264TIP3    H125283   0.218   6.597   0.373  0.5745 -0.3980  2.6679
 1264TIP3    H225284   0.349   6.589   0.298 -2.0263  0.1115 -2.3974
 1265TIP3   OH225285   5.065   2.122  13.643  0.3731  0.5305  0.0573
 1265TIP3    H125286   5.138   2.093  13.588 -0.6695 -0.3523 -0.8926
 1265TIP3    H225287   5.067   2.218  13.635  0.3602  0.4366 -1.3949
 1266TIP3   OH225288   0.449   5.257  16.365  0.2335  0.1392 -1.1253
 1266TIP3    H125289   0.367   5.302  16.380 -0.1617 -0.7304 -0.5870
 1266TIP3    H225290   0.494   5.310  16.299 -0.1572  1.3624 -0.4407
 1267TIP3   OH225291   5.556   0.759  12.696  0.4749 -0.0289  0.1253
 1267TIP3    H125292   5.543   0.674  12.738  1.4116 -0.3576 -0.2227
 1267TIP3    H225293   5.651   0.765  12.684  0.4366  1.1617  0.3372
 1268TIP3   OH225294   1.357   1.984   4.496 -0.1822  0.2205  0.2181
 1268TIP3    H125295   1.300   1.937   4.435  1.3567  0.0589 -1.1685
 1268TIP3    H225296   1.402   1.915   4.545 -0.7584  0.3359  0.9185
 1269TIP3   OH225297   5.248   6.543  14.853  0.2833 -0.2748 -0.4683
 1269TIP3    H125298   5.159   6.562  14.883 -0.0935  0.4041 -1.9048
 1269TIP3    H225299   5.304   6.603  14.902 -0.2761  0.6040 -0.8786
 1270TIP3   OH225300   6.298   0.236  12.242  0.6031  0.1640 -0.5307
 1270TIP3    H125301   6.291   0.146  12.274  0.6163  0.2892 -0.1641
 1270TIP3    H225302   6.393   0.249  12.232  0.5434 -0.2394 -1.7000
 1271TIP3   OH225303   3.653   3.028  15.461 -0.1877  0.2034  0.2302
 1271TIP3    H125304   3.668   2.943  15.420 -1.3948  1.2976 -2.8526
 1271TIP3    H225305   3.662   3.013  15.555  0.4495 -3.1017 -0.2646
 1272TIP3   OH225306   1.698   6.546  15.105  0.4168  0.0837  0.4427
 1272TIP3    H125307   1.715   6.531  15.198 -0.0280 -1.0226  0.3656
 1272TIP3    H225308   1.710   6.640  15.093  1.0037  0.1581  1.5056
 1273TIP3   OH225309   4.815   6.701   4.469 -0.2900 -0.5110 -0.3215
 1273TIP3    H125310   4.751   6.730   4.405  2.0789  1.2116 -2.1177
 1273TIP3    H225311   4.900   6.726   4.431  1.4600 -2.4768  1.9701
 1274TIP3   OH225312   0.737   0.564  13.784 -0.1294 -0.6024 -0.5366
 1274TIP3    H125313   0.687   0.570  13.702 -1.2828  1.1364  0.2435
 1274TIP3    H225314   0.676   0.591  13.852  1.5818  0.6231  0.5909
 1275TIP3   OH225315   1.751   4.924  13.407  0.1869  0.0509  0.3366
 1275TIP3    H125316   1.661   4.938  13.436  0.0725 -0.3441  0.1689
 1275TIP3    H225317   1.751   4.837  13.367  0.4300  0.4235 -0.4979
 1276TIP3   OH225318   1.121   1.361  15.659 -0.2753  0.2463 -0.3712
 1276TIP3    H125319   1.116   1.447  15.618 -1.8973 -1.0432 -3.1852
 1276TIP3    H225320   1.167   1.306  15.596  2.5657 -0.6531  2.2141
 1277TIP3   OH225321   1.265   4.230  13.893  0.5763  0.2685  0.3977
 1277TIP3    H125322   1.285   4.153  13.946  1.8888 -0.7539 -1.4546
 1277TIP3    H225323   1.192   4.203  13.838  1.4814  0.0566 -0.7420
 1278TIP3   OH225324   3.389   0.866   0.392  0.7626 -0.3372  0.2094
 1278TIP3    H125325   3.320   0.803   0.372  1.4583 -1.3096  0.7867
 1278TIP3    H225326   3.468   0.827   0.355  0.7273  1.7627 -2.4004
 1279TIP3   OH225327   4.443   0.822   4.544 -0.7143 -0.5329 -0.6010
 1279TIP3    H125328   4.368   0.880   4.536 -2.1435 -2.4714 -2.0926
 1279TIP3    H225329   4.442   0.794   4.636 -0.2379  1.3696  0.0425
 1280TIP3   OH225330   2.716   6.042  11.676 -0.2879 -0.2827  0.3764
 1280TIP3    H125331   2.674   5.999  11.750 -0.9355  2.7960  1.9954
 1280TIP3    H225332   2.648   6.043  11.608 -0.1137 -2.0685  0.1526
 1281TIP3   OH225333   6.804   5.526   4.849  0.0817  0.2318  0.9305
 1281TIP3    H125334   6.822   5.569   4.932 -0.1466 -0.7472  1.5139
 1281TIP3    H225335   6.719   5.562   4.821 -0.6105 -0.5529  1.9249
 1282TIP3   OH225336   5.478   6.588  15.192 -0.1987 -0.0743  0.6932
 1282TIP3    H125337   5.460   6.652  15.123  0.3734 -0.1176  0.5062
 1282TIP3    H225338   5.466   6.503  15.150  0.6800 -0.1098  0.4951
 1283TIP3   OH225339   6.173   0.697  10.531  0.2257 -0.1416 -0.4592
 1283TIP3    H125340   6.188   0.664  10.620  0.3530 -3.6294 -1.5887
 1283TIP3    H225341   6.080   0.680  10.515  0.4889 -0.7500 -1.3901
 1284TIP3   OH225342   4.596   1.044  11.724 -0.0995  0.2276 -0.0511
 1284TIP3    H125343   4.659   1.113  11.745  1.6976 -1.4421  0.2851
 1284TIP3    H225344   4.641   0.989  11.659 -2.8194  1.2832 -3.1466
 1285TIP3   OH225345   6.076   3.820  15.280 -0.3786  0.0153  0.1714
 1285TIP3    H125346   6.109   3.878  15.212 -0.6112  1.2073  1.0276
 1285TIP3    H225347   6.122   3.848  15.359  0.4154 -1.8101  0.3925
 1286TIP3   OH225348   3.077   2.489  12.976  0.2021 -0.1270 -0.6774
 1286TIP3    H125349   2.996   2.539  12.963  0.4925  0.5999  0.2735
 1286TIP3    H225350   3.124   2.535  13.045  1.4878 -0.4879 -1.2704
 1287TIP3   OH225351   2.164   0.896  14.426  0.5091 -0.0240  0.0838
 1287TIP3    H125352   2.086   0.859  14.468  0.2755  1.6702  1.2096
 1287TIP3    H225353   2.234   0.883  14.490  0.2925  1.9649  0.7710
 1288TIP3   OH225354   2.413   2.534  11.549 -1.1236 -0.0239  1.1874
 1288TIP3    H125355   2.350   2.468  11.518 -0.0570 -0.7350  0.4620
 1288TIP3    H225356   2.487   2.483  11.582  0.5220  0.7625 -1.0421
 1289TIP3   OH225357   1.755   2.165   2.912  0.2346  0.3047 -0.0605
 1289TIP3    H125358   1.684   2.187   2.852 -0.2266  0.8634  0.6731
 1289TIP3    H225359   1.724   2.195   2.998  0.7890 -0.6572  0.4961
 1290TIP3   OH225360   5.782   5.677   2.187 -0.0156  0.3343 -0.5293
 1290TIP3    H125361   5.841   5.649   2.257 -1.2529 -0.8567  0.0756
 1290TIP3    H225362   5.758   5.595   2.143 -0.6888  0.8808 -1.1865
 1291TIP3   OH225363   3.900   2.423  14.151 -0.1244  0.1471  0.0337
 1291TIP3    H125364   3.836   2.422  14.222 -0.5054  0.9589 -0.2806
 1291TIP3    H225365   3.982   2.447  14.193 -0.1066 -0.5116  0.3797
 1292TIP3   OH225366   1.181   5.749   2.607 -0.5601  0.1240 -0.1614
 1292TIP3    H125367   1.254   5.692   2.631 -0.5804  0.1902  0.0527
 1292TIP3    H225368   1.167   5.805   2.683  0.0814  1.0712 -0.7189
 1293TIP3   OH225369   1.218   4.984  11.417 -0.0849 -0.5908  0.1463
 1293TIP3    H125370   1.146   5.046  11.423  0.0698 -0.5386  1.9134
 1293TIP3    H225371   1.245   4.988  11.325 -0.4900  1.4805  0.0672
 1294TIP3   OH225372   0.294   4.051   0.746  0.7040 -0.2358  0.5302
 1294TIP3    H125373   0.285   3.974   0.801 -0.3338 -1.7347 -1.5898
 1294TIP3    H225374   0.204   4.076   0.724  1.0685  0.4997 -0.2122
 1295TIP3   OH225375   4.051   1.892  15.033  0.9279 -0.5254  0.4198
 1295TIP3    H125376   4.069   1.975  15.077  1.5519 -1.0530  1.1792
 1295TIP3    H225377   3.999   1.917  14.957  1.7073  0.6375  0.2390
 1296TIP3   OH225378   6.567   6.276   0.101 -0.0571  0.7652  0.5759
 1296TIP3    H125379   6.566   6.322   0.018 -0.6874 -0.9027 -0.3862
 1296TIP3    H225380   6.645   6.309   0.146  1.0611  0.7266 -1.2440
 1297TIP3   OH225381   4.451   5.909   1.810 -0.0383 -0.0892 -1.6834
 1297TIP3    H125382   4.436   5.834   1.752 -0.8518  0.7083 -2.5415
 1297TIP3    H225383   4.487   5.976   1.752 -1.1083  0.8156 -1.3360
 1298TIP3   OH225384   6.263   1.092  12.360  0.2536  0.4910 -0.2498
 1298TIP3    H125385   6.313   1.073  12.280 -0.4426  0.5910 -0.7120
 1298TIP3    H225386   6.298   1.030  12.425  0.7514  0.3408 -0.6585
 1299TIP3   OH225387   4.607   2.018   4.159  0.0705  0.1397 -0.5096
 1299TIP3    H125388   4.694   1.979   4.154 -0.6830 -1.4914 -3.2112
 1299TIP3    H225389   4.617   2.092   4.219  2.4829 -1.9379  1.9233
 1300TIP3   OH225390   6.000   4.282  15.750 -0.5217  0.4733  0.4703
 1300TIP3    H125391   5.958   4.228  15.683 -0.4458  1.5287 -0.4537
 1300TIP3    H225392   5.982   4.372  15.723  1.8784  0.9592  0.3439
 1301TIP3   OH225393   1.035   5.620   3.885  0.1403  0.2441 -0.3315
 1301TIP3    H125394   1.097   5.596   3.816 -0.5673 -2.7574 -0.0645
 1301TIP3    H225395   1.078   5.691   3.933  3.0834 -1.2356 -0.5587
 1302TIP3   OH225396   2.182   5.652  17.051 -0.0581 -0.2386  0.5431
 1302TIP3    H125397   2.100   5.695  17.028 -0.4738 -1.0721  0.4186
 1302TIP3    H225398   2.196   5.675  17.143 -0.2442  0.1933  0.4655
 1303TIP3   OH225399   3.493   6.607  15.298  0.4873  0.0404 -0.0945
 1303TIP3    H125400   3.458   6.637  15.382  0.5748  0.5539 -0.2384
 1303TIP3    H225401   3.584   6.635  15.298  0.0194  1.6875 -1.1177
 1304TIP3   OH225402   6.714   6.721   4.023  0.5688  0.3678  0.3142
 1304TIP3    H125403   6.783   6.683   4.076  0.0285 -0.8777  0.1675
 1304TIP3    H225404   6.731   6.689   3.934 -0.1024  0.1539  0.2530
 1305TIP3   OH225405   2.806   4.649  11.964 -0.3096 -0.1301 -0.0584
 1305TIP3    H125406   2.791   4.740  11.938  0.4246 -0.1391 -0.5613
 1305TIP3    H225407   2.806   4.651  12.059 -0.9475  0.2834 -0.0647
 1306TIP3   OH225408   5.468   2.182  15.206 -0.0886  0.1523  0.5385
 1306TIP3    H125409   5.441   2.265  15.246  0.4457  0.2977  0.6072
 1306TIP3    H225410   5.449   2.116  15.273 -2.3116 -0.0462 -0.2343
 1307TIP3   OH225411   0.646   2.949   4.292 -0.8283  0.2030 -0.1783
 1307TIP3    H125412   0.661   2.881   4.227 -0.2734  0.7693 -0.6546
 1307TIP3    H225413   0.677   2.911   4.374 -0.6281 -0.1663 -0.4213
 1308TIP3   OH225414   5.876   1.109  12.335 -0.5144  0.1160 -0.0645
 1308TIP3    H125415   5.831   1.038  12.382 -1.2141  1.1270  0.8530
 1308TIP3    H225416   5.937   1.145  12.399 -1.8669  1.8709  0.3415
 1309TIP3   OH225417   6.806   0.594   0.486  0.0547  0.1140  0.1479
 1309TIP3    H125418   6.799   0.651   0.410  0.0003 -1.3321 -0.9868
 1309TIP3    H225419   6.899   0.595   0.509  0.1678  0.1290 -0.3042
 1310TIP3   OH225420   4.328   0.120   0.315 -0.1282 -0.1292 -0.0711
 1310TIP3    H125421   4.282   0.068   0.249  1.7250  0.4434 -1.9273
 1310TIP3    H225422   4.298   0.085   0.399 -1.9371 -1.4623 -1.2147
 1311TIP3   OH225423   5.313   5.514   4.609 -0.5501 -0.4522 -0.1017
 1311TIP3    H125424   5.372   5.558   4.670  0.6634 -1.3080 -0.6033
 1311TIP3    H225425   5.344   5.541   4.523  0.4993 -2.5314 -0.4429
 1312TIP3   OH225426   5.676   5.054   3.305  0.1163  0.3846 -0.2984
 1312TIP3    H125427   5.712   5.040   3.393 -0.8923 -0.1890  0.0404
 1312TIP3    H225428   5.661   5.149   3.300  2.4552  0.8009 -0.7946
 1313TIP3   OH225429   4.959   6.055   2.816 -0.5153 -0.0697  0.1942
 1313TIP3    H125430   4.919   6.130   2.773  1.2673  0.4909 -0.5506
 1313TIP3    H225431   4.937   5.981   2.760  1.6742  0.6311 -1.7456
 1314TIP3   OH225432   5.974   5.325   2.508 -0.0231  0.6721 -0.3539
 1314TIP3    H125433   6.004   5.290   2.592 -0.9534 -0.4364 -0.4675
 1314TIP3    H225434   5.920   5.255   2.470  0.3212  1.1782 -1.8449
 1315TIP3   OH225435   4.462   0.743  16.450  0.2023  0.2441 -0.2584
 1315TIP3    H125436   4.491   0.704  16.368  0.3324  0.6174 -0.3892
 1315TIP3    H225437   4.535   0.798  16.478  0.0500  0.3340 -0.0368
 1316TIP3   OH225438   0.811   3.904   1.879 -0.0837 -0.0788  0.4186
 1316TIP3    H125439   0.719   3.900   1.854 -0.1717  1.0065  0.5479
 1316TIP3    H225440   0.845   3.817   1.856 -0.1818  0.7018 -3.3828
 1317TIP3   OH225441   1.427   0.900  11.567 -0.1113 -0.2547 -0.0278
 1317TIP3    H125442   1.388   0.828  11.617  1.7034 -0.8497  0.6171
 1317TIP3    H225443   1.521   0.880  11.565  0.4963  2.2183  0.3788
 1318TIP3   OH225444   0.869   2.125  17.024 -0.0702 -0.5394  0.2267
 1318TIP3    H125445   0.878   2.105  16.931 -0.4124  1.4851 -0.2859
 1318TIP3    H225446   0.854   2.219  17.027 -1.9510 -0.8247  2.2207
 1319TIP3   OH225447   5.906   4.190  15.504 -0.2120 -0.0160 -0.0264
 1319TIP3    H125448   5.810   4.184  15.496 -0.2333 -0.6400  0.5940
 1319TIP3    H225449   5.929   4.270  15.457 -1.1383  0.6333  0.5837
 1320TIP3   OH225450   3.966   4.879   2.662  0.5841  0.0614  0.4356
 1320TIP3    H125451   3.893   4.913   2.612  0.0132 -2.3300 -0.5143
 1320TIP3    H225452   4.044   4.904   2.612  0.1102 -0.9413 -0.8686
 1321TIP3   OH225453   5.116   0.486   5.722 -0.2363  0.7511 -0.1150
 1321TIP3    H125454   5.079   0.570   5.751 -0.4229  0.5466  0.2469
 1321TIP3    H225455   5.044   0.443   5.675  0.2722  1.3829 -1.5275
 1322TIP3   OH225456   4.253   0.869  15.072 -1.1518  0.5519 -0.7832
 1322TIP3    H125457   4.223   0.881  14.981 -0.6208 -0.9904 -1.1968
 1322TIP3    H225458   4.244   0.955  15.112 -1.0286  1.3579 -2.4191
 1323TIP3   OH225459   0.968   0.304   1.807 -0.5168 -0.3634  0.5760
 1323TIP3    H125460   1.037   0.366   1.782  0.0627 -1.0350  0.4899
 1323TIP3    H225461   1.008   0.247   1.872 -1.5336  0.3485  1.8924
 1324TIP3   OH225462   2.355   1.339   6.464 -0.2910 -0.5174  0.1239
 1324TIP3    H125463   2.442   1.305   6.483 -0.2473  0.2704  1.4212
 1324TIP3    H225464   2.299   1.261   6.466 -0.2975 -0.6094  3.7047
 1325TIP3   OH225465   6.160   6.672   5.632  0.1554  0.8462  0.2950
 1325TIP3    H125466   6.203   6.629   5.558  0.1870 -0.3065  0.9606
 1325TIP3    H225467   6.215   6.651   5.707 -2.4783 -2.4157  1.5680
 1326TIP3   OH225468   2.192   0.576  11.385  0.2093  0.0683 -0.3481
 1326TIP3    H125469   2.117   0.578  11.444 -0.0862  1.2070 -0.7297
 1326TIP3    H225470   2.224   0.486  11.389  0.0986  0.0830  1.4083
 1327TIP3   OH225471   2.217   2.535  12.962 -0.0939  0.8196 -0.0073
 1327TIP3    H125472   2.253   2.512  13.047 -2.4300 -0.1977  0.7858
 1327TIP3    H225473   2.136   2.581  12.981 -1.0011  0.0080 -1.6591
 1328TIP3   OH225474   5.735   5.247  13.670 -0.1231  0.4662 -0.1082
 1328TIP3    H125475   5.821   5.233  13.709  0.6715  2.1875 -1.1304
 1328TIP3    H225476   5.734   5.191  13.592 -0.4434 -0.4966  0.5694
 1329TIP3   OH225477   0.038   5.484   1.037 -0.2205  0.0322 -0.9135
 1329TIP3    H125478   0.056   5.573   1.066 -0.1253  0.4233 -2.1467
 1329TIP3    H225479  -0.020   5.448   1.105 -0.9077  1.2836 -0.8138
 1330TIP3   OH225480   1.407   4.865  10.214 -0.4580  0.2213 -0.9369
 1330TIP3    H125481   1.368   4.824  10.136 -0.1813  1.8343 -1.9632
 1330TIP3    H225482   1.496   4.830  10.217 -0.6160 -0.1977 -1.0795
 1331TIP3   OH225483   0.759   6.143  14.709  0.1387 -0.1304 -0.0156
 1331TIP3    H125484   0.831   6.201  14.682  0.9330 -0.7445  0.7402
 1331TIP3    H225485   0.716   6.119  14.627  0.0369  1.2152 -0.3706
 1332TIP3   OH225486   2.993   4.977   3.375 -0.1558 -0.2375  0.1971
 1332TIP3    H125487   2.927   5.041   3.348  0.1049  0.2167  0.6117
 1332TIP3    H225488   2.950   4.892   3.365 -1.3981  0.1131  2.0337
 1333TIP3   OH225489   5.151   5.029  12.779  0.0883  0.4282 -0.1014
 1333TIP3    H125490   5.062   4.996  12.764  0.1491 -0.4586  1.3069
 1333TIP3    H225491   5.149   5.064  12.868  1.4226 -0.6174  0.3737
 1334TIP3   OH225492   0.265   2.781  16.242 -0.2974  0.2608 -0.5556
 1334TIP3    H125493   0.170   2.795  16.248 -0.0105  2.1896  0.3502
 1334TIP3    H225494   0.289   2.747  16.328 -0.4426 -2.6517 -1.5577
 1335TIP3   OH225495   1.020   3.507   5.160 -0.4172 -0.2086  0.6177
 1335TIP3    H125496   0.969   3.563   5.102  0.6977 -0.1718 -0.3736
 1335TIP3    H225497   1.063   3.567   5.220 -1.7356 -0.2603  1.6654
 1336TIP3   OH225498   3.421   4.470  15.255  0.1129  0.4828 -0.2891
 1336TIP3    H125499   3.401   4.438  15.167 -2.5919  0.6886  0.1873
 1336TIP3    H225500   3.365   4.418  15.313  0.3080  1.7634  1.1077
 1337TIP3   OH225501   6.731   0.905   5.864 -0.1197 -0.3900  0.5135
 1337TIP3    H125502   6.771   0.986   5.898  0.1415 -0.4551  0.3640
 1337TIP3    H225503   6.793   0.836   5.888  0.2269 -0.3966 -0.3668
 1338TIP3   OH225504   6.204   0.790   3.276 -0.4545  0.0908 -0.2665
 1338TIP3    H125505   6.295   0.762   3.272 -1.0227 -2.0972  0.5298
 1338TIP3    H225506   6.166   0.762   3.193 -0.6630 -0.1190 -0.1049
 1339TIP3   OH225507   5.033   4.989   2.323 -0.4789  0.3511  0.6228
 1339TIP3    H125508   5.069   5.021   2.406 -0.9209 -0.4884  1.1477
 1339TIP3    H225509   4.953   5.039   2.310  0.8987  2.3800 -0.6531
 1340TIP3   OH225510   5.691   3.887  16.315 -0.3895 -0.1837  0.0120
 1340TIP3    H125511   5.740   3.969  16.303 -0.4464 -0.2696 -0.8233
 1340TIP3    H225512   5.731   3.825  16.255  0.0749 -0.9802  1.1009
 1341TIP3   OH225513   2.006   1.070   0.984  0.7980 -0.4094 -0.0268
 1341TIP3    H125514   2.072   1.000   0.982 -0.0566 -1.2470  0.1998
 1341TIP3    H225515   1.930   1.029   1.026 -0.3919  0.0430 -1.6496
 1342TIP3   OH225516   0.480   0.409   2.460  0.2192 -0.3088 -0.2447
 1342TIP3    H125517   0.512   0.429   2.373 -0.7539 -0.1369 -0.5717
 1342TIP3    H225518   0.486   0.314   2.467  0.2673 -0.3245 -0.5174
 1343TIP3   OH225519   1.274   5.445  14.791  0.3661 -0.1521  0.1526
 1343TIP3    H125520   1.180   5.457  14.804  0.7136  3.0903  0.2917
 1343TIP3    H225521   1.311   5.449  14.879  0.6995 -1.4287  0.1011
 1344TIP3   OH225522   4.840   2.793   5.422 -0.3810  0.7334 -0.6613
 1344TIP3    H125523   4.864   2.849   5.496 -0.3127  0.3248 -0.3734
 1344TIP3    H225524   4.924   2.758   5.391 -0.4615  0.4807 -0.5936
 1345TIP3   OH225525   5.521   3.218  13.024  0.4874  0.2952  0.0141
 1345TIP3    H125526   5.520   3.314  13.022 -1.7013  0.3418 -0.0021
 1345TIP3    H225527   5.496   3.196  13.113 -1.0781 -0.1729 -0.4958
 1346TIP3   OH225528   1.995   3.532  14.916 -0.4101 -0.3774 -0.1997
 1346TIP3    H125529   2.000   3.517  14.821 -0.3971  0.1212 -0.2805
 1346TIP3    H225530   1.932   3.467  14.947 -0.0122 -0.9018 -0.4692
 1347TIP3   OH225531   0.048   2.663   0.814 -0.2210  0.5874  0.8219
 1347TIP3    H125532   0.132   2.682   0.774 -0.6102 -1.9387 -1.4624
 1347TIP3    H225533   0.062   2.678   0.908  2.4568  1.0860  0.4123
 1348TIP3   OH225534   6.163   2.141   1.777  0.5769 -0.1950  0.3733
 1348TIP3    H125535   6.209   2.117   1.696  1.4123 -0.4803  0.9145
 1348TIP3    H225536   6.071   2.128   1.757  0.5752  1.8037 -1.2340
 1349TIP3   OH225537   2.554   4.891  15.656 -0.3463 -0.1397  0.0105
 1349TIP3    H125538   2.623   4.867  15.718 -0.5749  0.2838  0.4378
 1349TIP3    H225539   2.599   4.945  15.590 -0.0154 -0.9559 -0.4507
 1350TIP3   OH225540   6.788   0.880   2.990 -0.1404  0.3560 -0.3726
 1350TIP3    H125541   6.791   0.871   3.085  1.2928 -0.2343 -0.4467
 1350TIP3    H225542   6.780   0.974   2.974  2.2522  0.7480  0.3441
 1351TIP3   OH225543   5.085   3.055  13.628  0.0821  0.2582  0.1329
 1351TIP3    H125544   5.136   3.129  13.661  0.5068  1.0504 -2.1142
 1351TIP3    H225545   5.000   3.093  13.605 -0.0829 -0.1828  0.0097
 1352TIP3   OH225546   0.140   2.913  11.331  0.2399 -0.3306  0.4699
 1352TIP3    H125547   0.220   2.966  11.335 -0.7295  1.2611 -0.1341
 1352TIP3    H225548   0.169   2.824  11.346  2.0022  0.3307  1.2483
 1353TIP3   OH225549   3.847   0.157  17.013  0.0970 -0.1344  0.6285
 1353TIP3    H125550   3.870   0.068  16.986  1.6764  0.2097  0.7776
 1353TIP3    H225551   3.785   0.187  16.946  2.3828 -0.0362 -1.5803
 1354TIP3   OH225552   3.527   6.664   5.848  0.1151  0.4876  0.3474
 1354TIP3    H125553   3.595   6.728   5.826  0.2703 -0.2241 -1.4134
 1354TIP3    H225554   3.576   6.587   5.877 -0.0302  0.6900  1.1537
 1355TIP3   OH225555   6.605   1.157  12.794  0.8706 -0.0351 -0.5952
 1355TIP3    H125556   6.584   1.167  12.701  1.0052 -0.8096 -0.7113
 1355TIP3    H225557   6.671   1.088  12.797 -0.0336 -0.9057  0.1698
 1356TIP3   OH225558   5.518   5.161   6.312 -0.2058  0.3025 -0.4043
 1356TIP3    H125559   5.453   5.226   6.336  0.8312  1.0293  0.5785
 1356TIP3    H225560   5.591   5.211   6.276 -0.2950 -0.5185 -1.8234
 1357TIP3   OH225561   5.933   1.326   3.166 -0.7054 -0.0664 -0.3104
 1357TIP3    H125562   6.021   1.302   3.137 -0.6294 -1.8377  1.1998
 1357TIP3    H225563   5.905   1.395   3.106  1.4880  0.1397 -1.1601
 1358TIP3   OH225564   2.816   4.832   1.600  0.8329  0.5078 -0.1196
 1358TIP3    H125565   2.873   4.897   1.560  1.9697 -1.1487 -1.2967
 1358TIP3    H225566   2.747   4.817   1.535  1.3885 -0.4827 -0.5086
 1359TIP3   OH225567   1.971   1.611  14.600  0.0664 -0.1693  0.0997
 1359TIP3    H125568   2.022   1.576  14.527  0.8155 -0.7071  0.8744
 1359TIP3    H225569   1.904   1.665  14.558  2.7808  2.7399 -0.8988
 1360TIP3   OH225570   1.162   0.447   5.883 -0.8750  0.2191 -0.2037
 1360TIP3    H125571   1.126   0.430   5.970  1.8169 -0.3950  0.8779
 1360TIP3    H225572   1.204   0.365   5.858  0.2436  1.0408 -1.1133
 1361TIP3   OH225573   3.074   2.855  14.550  0.3480 -0.2151  0.1501
 1361TIP3    H125574   3.146   2.902  14.507  0.5999 -0.6788  0.0573
 1361TIP3    H225575   3.009   2.842  14.481 -0.4203  1.3712  0.5442
 1362TIP3   OH225576   0.558   1.411   4.920 -0.0507  0.4040  0.2694
 1362TIP3    H125577   0.490   1.355   4.959 -0.4916  1.0025  0.3653
 1362TIP3    H225578   0.611   1.440   4.995  1.2056 -1.1983  0.0680
 1363TIP3   OH225579   3.814   4.165  16.230  0.6138 -0.0242 -0.0300
 1363TIP3    H125580   3.903   4.131  16.233  0.0825 -1.4875 -0.2111
 1363TIP3    H225581   3.764   4.107  16.287 -0.3100  0.5036 -0.2771
 1364TIP3   OH225582   1.569   2.213  13.904  0.4178  0.5517  0.6800
 1364TIP3    H125583   1.485   2.229  13.861  0.3391  1.3510  1.1140
 1364TIP3    H225584   1.608   2.300  13.914  2.5672  0.0564 -1.9794
 1365TIP3   OH225585   3.288   4.018  11.539  0.1253  0.5965  0.0292
 1365TIP3    H125586   3.265   3.999  11.630 -0.0072 -1.0359 -0.3265
 1365TIP3    H225587   3.207   4.003  11.490 -0.2875  3.1288 -0.1953
 1366TIP3   OH225588   4.613   6.600   2.644 -0.1603 -0.5377  0.1553
 1366TIP3    H125589   4.524   6.574   2.669 -0.4143  0.9735  0.9002
 1366TIP3    H225590   4.666   6.580   2.721 -0.0998 -0.1515  0.2112
 1367TIP3   OH225591   4.412   6.445  11.376 -0.3603 -0.0477 -0.0512
 1367TIP3    H125592   4.490   6.403  11.339 -0.6405 -0.4970 -0.1346
 1367TIP3    H225593   4.358   6.466  11.300 -1.7660 -2.5756  0.1210
 1368TIP3   OH225594   6.794   0.187   0.415 -0.3415 -0.1922  0.5002
 1368TIP3    H125595   6.741   0.108   0.423 -1.2229  0.3811  0.5266
 1368TIP3    H225596   6.737   0.257   0.446  0.3986  0.4649  0.4162
 1369TIP3   OH225597   3.297   6.209  11.295  0.1429  0.2415 -0.3412
 1369TIP3    H125598   3.282   6.300  11.271 -0.5804 -0.4090 -2.5489
 1369TIP3    H225599   3.345   6.172  11.221  0.7411 -1.1225  0.6694
 1370TIP3   OH225600   1.545   0.776   0.643 -0.4122  0.2295 -0.1681
 1370TIP3    H125601   1.584   0.842   0.585  1.1433 -1.2586 -0.8577
 1370TIP3    H225602   1.506   0.712   0.583 -2.9263  1.0018  0.4933
 1371TIP3   OH225603   2.178   6.201   5.410 -0.7827 -0.3825 -0.0640
 1371TIP3    H125604   2.170   6.296   5.399  1.5438  0.2017  2.2660
 1371TIP3    H225605   2.089   6.171   5.428 -1.3697  1.6077  0.6166
 1372TIP3   OH225606   3.191   1.216  17.098  0.0389  0.4219  0.9214
 1372TIP3    H125607   3.222   1.135  17.138  2.0040 -0.7558 -2.5220
 1372TIP3    H225608   3.096   1.209  17.100  0.1364 -2.3568  0.2165
 1373TIP3   OH225609   4.218   3.544   2.194 -0.2698 -0.0273 -0.2794
 1373TIP3    H125610   4.238   3.464   2.243  2.3945  0.2523 -0.7754
 1373TIP3    H225611   4.134   3.573   2.229  0.0390 -1.5138  1.8847
 1374TIP3   OH225612   6.654   3.500  16.968 -0.1963  0.3054 -0.0132
 1374TIP3    H125613   6.736   3.466  17.004  0.4547  1.1415 -0.6687
 1374TIP3    H225614   6.663   3.595  16.974 -1.2997  0.3993  0.2946
 1375TIP3   OH225615   2.205   4.795  13.047 -0.3806  0.4688  0.0526
 1375TIP3    H125616   2.279   4.797  12.987  1.5892 -0.3838  2.3150
 1375TIP3    H225617   2.166   4.709  13.033 -0.1949  0.4380 -0.2856
 1376TIP3   OH225618   3.481   6.203  14.776  0.2358 -0.7788  0.4433
 1376TIP3    H125619   3.537   6.269  14.735  0.1513 -2.2452 -2.2572
 1376TIP3    H225620   3.539   6.151  14.831  1.0622 -0.8507 -0.4894
 1377TIP3   OH225621   2.658   0.844  13.591 -0.6015 -0.0230  0.6705
 1377TIP3    H125622   2.592   0.840  13.522  1.3161  0.4603 -1.3080
 1377TIP3    H225623   2.734   0.799  13.554  1.0759  1.7682  1.7444
 1378TIP3   OH225624   6.604   0.824  11.874  0.7368 -0.3096 -0.0515
 1378TIP3    H125625   6.640   0.861  11.794  0.3359  0.6339  0.1868
 1378TIP3    H225626   6.675   0.830  11.938  0.1772  1.7066  0.4671
 1379TIP3   OH225627   2.678   4.141   2.149  0.3008 -0.6865  0.0269
 1379TIP3    H125628   2.675   4.074   2.080 -0.3657 -0.2052 -0.4196
 1379TIP3    H225629   2.601   4.124   2.203 -0.2180  0.0914 -0.4512
 1380TIP3   OH225630   3.770   5.801  15.567 -0.6521 -0.1918  0.0592
 1380TIP3    H125631   3.748   5.821  15.476 -0.8465 -0.4985  0.0355
 1380TIP3    H225632   3.746   5.708  15.577  1.8487 -0.9538 -0.3351
 1381TIP3   OH225633   5.801   3.634  14.931  0.3977 -0.3728  0.5035
 1381TIP3    H125634   5.817   3.705  14.869 -2.8183  1.8454  1.9348
 1381TIP3    H225635   5.869   3.646  14.998 -1.3198  3.0232  1.9038
 1382TIP3   OH225636   0.173   2.725  14.761  0.1506  0.0838  0.1487
 1382TIP3    H125637   0.224   2.651  14.792 -0.3454  0.1004  1.0348
 1382TIP3    H225638   0.238   2.789  14.732  0.6045 -0.3052  0.2977
 1383TIP3   OH225639   5.267   1.876  16.139  0.7929  0.1823 -0.4482
 1383TIP3    H125640   5.324   1.817  16.188 -0.2468 -0.9427 -0.5592
 1383TIP3    H225641   5.246   1.947  16.200 -0.1023 -0.9563  0.6044
 1384TIP3   OH225642   1.284   6.343  13.485 -0.2853  0.4434 -0.0560
 1384TIP3    H125643   1.378   6.330  13.494 -0.3982 -1.4663 -1.2115
 1384TIP3    H225644   1.276   6.431  13.447  0.9952  0.7687  0.3656
 1385TIP3   OH225645   1.966   6.428  12.359 -0.6196 -0.0224  0.1685
 1385TIP3    H125646   1.952   6.376  12.280 -0.1792  1.3169 -0.8308
 1385TIP3    H225647   1.978   6.517  12.327 -2.4192  0.9242  1.8865
 1386TIP3   OH225648   6.504   5.720   6.575  0.1160 -0.2404  0.0955
 1386TIP3    H125649   6.582   5.667   6.592  0.5464  0.3704  0.0467
 1386TIP3    H225650   6.442   5.694   6.643  1.5748  1.6944  2.3171
 1387TIP3   OH225651   5.928   5.743   1.672  0.2282 -0.5870 -0.2197
 1387TIP3    H125652   5.992   5.711   1.736  0.4747  1.1371  0.4518
 1387TIP3    H225653   5.973   5.815   1.628 -1.9214  2.2356  1.8684
 1388TIP3   OH225654   5.523   5.500  17.103 -0.7104 -0.2732  0.3633
 1388TIP3    H125655   5.554   5.542  17.183  0.3150 -2.1142  0.9917
 1388TIP3    H225656   5.436   5.537  17.089 -0.2658  1.2868  1.4023
 1389TIP3   OH225657   2.308   3.066  16.435 -0.1790  0.1496  0.2360
 1389TIP3    H125658   2.259   2.992  16.470 -1.3798  0.6241 -0.3828
 1389TIP3    H225659   2.338   3.037  16.349 -2.0142  0.8718 -0.7115
 1390TIP3   OH225660   5.464   2.195   5.630  0.6158 -0.5477  0.4057
 1390TIP3    H125661   5.498   2.109   5.603  1.4089 -0.0598 -0.1672
 1390TIP3    H225662   5.508   2.214   5.712  1.8512  0.1368 -0.3936
 1391TIP3   OH225663   3.447   2.481   4.901  0.1161 -0.0782  0.0652
 1391TIP3    H125664   3.386   2.409   4.918  0.7144 -0.7361 -0.4888
 1391TIP3    H225665   3.499   2.451   4.827  2.1335 -0.1819  1.4463
 1392TIP3   OH225666   2.701   5.880   4.152 -0.3128  0.0189 -0.0574
 1392TIP3    H125667   2.728   5.971   4.157  2.8135 -0.8275  1.2283
 1392TIP3    H225668   2.663   5.862   4.238  2.1509 -0.6085  0.9993
 1393TIP3   OH225669   3.684   1.599   2.241  0.6756  0.0858  0.0400
 1393TIP3    H125670   3.589   1.594   2.231  0.7408 -1.6856 -0.0404
 1393TIP3    H225671   3.698   1.668   2.305 -0.6850  0.1632  0.2883
 1394TIP3   OH225672   5.081   2.757   4.011 -0.5004 -0.5082 -0.3069
 1394TIP3    H125673   5.052   2.786   4.098  1.3867 -0.7206  0.4423
 1394TIP3    H225674   5.176   2.769   4.012 -0.0832 -3.0482 -1.3530
 1395TIP3   OH225675   6.424   4.678   1.791  0.2856 -0.0369 -0.2628
 1395TIP3    H125676   6.400   4.732   1.715  1.7645  0.8242 -0.1539
 1395TIP3    H225677   6.433   4.741   1.863 -0.1441 -0.7315  0.4207
 1396TIP3   OH225678   5.087   2.134   4.682  0.3424  0.5139  0.3649
 1396TIP3    H125679   5.011   2.076   4.689  0.3063  0.3667 -1.0340
 1396TIP3    H225680   5.078   2.194   4.756 -1.5569  0.9847 -0.1918
 1397TIP3   OH225681   5.654   1.465   0.189 -0.1935 -0.2230  0.1902
 1397TIP3    H125682   5.619   1.550   0.216  0.8826 -0.2188  1.7144
 1397TIP3    H225683   5.664   1.471   0.094 -0.9966  1.0111  0.1718
 1398TIP3   OH225684   5.372   6.272  13.618  0.1243 -0.5912  0.5899
 1398TIP3    H125685   5.317   6.211  13.569  0.3949 -0.4820  0.1501
 1398TIP3    H225686   5.401   6.222  13.694 -1.5447 -0.3008  1.4825
 1399TIP3   OH225687   0.737   2.266   2.124 -0.2091 -0.3086 -0.3707
 1399TIP3    H125688   0.831   2.259   2.138  0.1439 -0.9718 -2.5297
 1399TIP3    H225689   0.705   2.321   2.195  1.8571  0.2230  0.2103
 1400TIP3   OH225690   0.454   0.798   4.251 -0.3400 -0.7590 -0.3359
 1400TIP3    H125691   0.546   0.811   4.227 -0.3763 -0.9156 -0.5635
 1400TIP3    H225692   0.456   0.773   4.343 -0.3223  1.8778  0.4749
 1401TIP3   OH225693   3.270   2.189   1.383 -0.0940  0.2843  0.0651
 1401TIP3    H125694   3.277   2.183   1.288  0.4002 -1.2980  0.1654
 1401TIP3    H225695   3.273   2.098   1.413 -3.6011  0.4460  1.3912
 1402TIP3   OH225696   0.803   0.528   5.581 -0.0297 -0.1770 -0.0111
 1402TIP3    H125697   0.802   0.535   5.677 -0.1769  0.8660 -0.0803
 1402TIP3    H225698   0.860   0.453   5.563  0.6315  0.0997  0.8651
 1403TIP3   OH225699   3.676   4.760  12.349 -0.3075 -0.5206 -0.4802
 1403TIP3    H125700   3.603   4.701  12.333 -1.1070  0.2926  0.0988
 1403TIP3    H225701   3.739   4.740  12.279 -1.2661 -0.9276 -1.2510
 1404TIP3   OH225702   0.659   1.543  14.383 -0.0059  0.6913 -0.7226
 1404TIP3    H125703   0.665   1.637  14.371 -0.0274  0.8150  0.1619
 1404TIP3    H225704   0.684   1.528  14.474  0.6948 -0.2310 -1.0496
 1405TIP3   OH225705   1.161   2.960  11.621  0.0872  0.2421 -0.6708
 1405TIP3    H125706   1.095   2.977  11.688  0.8553  0.6868 -0.0108
 1405TIP3    H225707   1.131   2.879  11.578 -0.8921  0.4513 -0.4099
 1406TIP3   OH225708   5.425   2.962  15.067  0.3404  0.7646  0.1636
 1406TIP3    H125709   5.345   2.914  15.050  0.8657  0.0345 -0.3276
 1406TIP3    H225710   5.408   3.051  15.035 -0.0761  0.4665 -0.4454
 1407TIP3   OH225711   1.682   4.881  12.573  0.1928  0.0865  0.3762
 1407TIP3    H125712   1.675   4.910  12.664 -0.4517 -1.4851  0.8704
 1407TIP3    H225713   1.602   4.830  12.559  1.3353 -1.6012 -0.3307
 1408TIP3   OH225714   2.470   2.615   4.076  0.2446 -0.3874  0.4706
 1408TIP3    H125715   2.419   2.579   4.003 -0.6176  1.0518  0.3246
 1408TIP3    H225716   2.481   2.541   4.135 -3.4445 -0.5253  1.2716
 1409TIP3   OH225717   1.384   2.310  12.888 -0.1610 -0.3467 -0.3875
 1409TIP3    H125718   1.460   2.266  12.850 -0.6730 -1.0202 -0.6569
 1409TIP3    H225719   1.355   2.371  12.820 -0.1869 -0.4899 -0.5067
 1410TIP3   OH225720   1.668   2.154   3.838 -0.2629 -0.8251  0.2408
 1410TIP3    H125721   1.713   2.226   3.793 -1.1422 -0.8676 -0.7353
 1410TIP3    H225722   1.696   2.163   3.930  0.6544 -0.0342 -0.0891
 1411TIP3   OH225723   5.666   6.626  12.990  0.3165 -0.1968 -0.4418
 1411TIP3    H125724   5.640   6.574  13.066 -1.2784 -0.9548 -1.4398
 1411TIP3    H225725   5.694   6.562  12.925 -2.2419  0.0235 -1.9000
 1412TIP3   OH225726   3.538   3.586  10.388 -0.4390  0.5253 -0.7658
 1412TIP3    H125727   3.538   3.506  10.336 -1.9419  0.0412 -0.0923
 1412TIP3    H225728   3.600   3.570  10.458  0.6070  0.6725 -1.6297
 1413TIP3   OH225729   2.253   3.563   4.804  0.3270 -0.0207  0.0715
 1413TIP3    H125730   2.319   3.501   4.834  1.7395  1.3397 -0.0925
 1413TIP3    H225731   2.266   3.568   4.709  1.3845  1.7147  0.2577
 1414TIP3   OH225732   5.939   0.413   5.614  0.7040 -0.7071 -0.0337
 1414TIP3    H125733   6.011   0.471   5.591 -0.8293  1.4983  0.3516
 1414TIP3    H225734   5.942   0.408   5.710 -0.0907  0.0284  0.0371
 1415TIP3   OH225735   5.614   2.506  10.239 -0.1812  0.4986  0.9209
 1415TIP3    H125736   5.652   2.548  10.162  0.3044 -3.1655 -1.1086
 1415TIP3    H225737   5.688   2.461  10.280 -0.7824  0.8593  2.4273
 1416TIP3   OH225738   3.964   5.728   4.588 -0.5243  0.0684  0.5309
 1416TIP3    H125739   3.974   5.650   4.644  0.5636 -2.3505 -2.7060
 1416TIP3    H225740   4.037   5.785   4.613  0.7467 -1.5556  0.7144
 1417TIP3   OH225741   2.449   2.672   6.000 -0.0429  0.2062 -0.3623
 1417TIP3    H125742   2.542   2.680   6.022 -0.5442 -0.2941  2.2253
 1417TIP3    H225743   2.423   2.587   6.035 -1.7454  0.8353  0.0048
 1418TIP3   OH225744   4.931   2.853  11.578  0.2244  0.1736 -0.6162
 1418TIP3    H125745   4.854   2.870  11.632 -0.3102 -2.3747 -0.4711
 1418TIP3    H225746   4.898   2.808  11.501  1.5816 -1.5346 -0.2676
 1419TIP3   OH225747   1.524   6.186  11.069 -0.2159  0.0488 -0.1067
 1419TIP3    H125748   1.464   6.133  11.121  0.1755  0.0058  0.3165
 1419TIP3    H225749   1.552   6.129  10.998 -1.1064  0.2575 -0.6358
 1420TIP3   OH225750   6.352   3.329   3.861  0.3331 -0.0872 -0.2242
 1420TIP3    H125751   6.398   3.327   3.945 -0.3787 -1.5260  0.1636
 1420TIP3    H225752   6.418   3.305   3.796  0.2756 -1.6448  0.2660
 1421TIP3   OH225753   0.563   1.144  14.045 -0.2459  0.0012  0.3153
 1421TIP3    H125754   0.472   1.128  14.019 -0.6130  1.4178  0.6352
 1421TIP3    H225755   0.610   1.066  14.017 -0.9288  0.5889 -2.9222
 1422TIP3   OH225756   4.110   2.279   2.159 -0.2701 -0.5556 -0.2396
 1422TIP3    H125757   4.107   2.327   2.242 -0.9257  1.6485 -1.4658
 1422TIP3    H225758   4.021   2.246   2.148 -0.0887 -1.1720  0.0896
 1423TIP3   OH225759   2.999   2.519   0.467 -0.6989 -0.3636  0.8515
 1423TIP3    H125760   2.929   2.465   0.429 -0.1877 -0.7575  0.4580
 1423TIP3    H225761   2.952   2.585   0.518 -1.5399  1.0942 -1.5808
 1424TIP3   OH225762   6.504   5.276   4.755 -0.0317 -0.3848 -0.0715
 1424TIP3    H125763   6.549   5.263   4.671 -1.2293 -1.8485 -0.5216
 1424TIP3    H225764   6.568   5.249   4.820  1.1214  1.3048 -0.4358
 1425TIP3   OH225765   2.801   2.305   5.817  0.4236  0.2247 -0.3480
 1425TIP3    H125766   2.708   2.304   5.794 -0.5008  1.5827  2.7682
 1425TIP3    H225767   2.810   2.236   5.882  1.2136  1.0696  0.4722
 1426TIP3   OH225768   3.793   2.755  14.858  0.4511  0.0228  0.3050
 1426TIP3    H125769   3.704   2.722  14.861  0.2579  0.3565 -0.9744
 1426TIP3    H225770   3.824   2.732  14.770  1.2531  0.8194  0.3601
 1427TIP3   OH225771   5.760   4.204  10.493  0.0080 -0.5480 -0.3284
 1427TIP3    H125772   5.686   4.156  10.531  0.4156 -1.4813 -0.6900
 1427TIP3    H225773   5.831   4.140  10.488  1.2132  0.5962  1.0271
 1428TIP3   OH225774   4.199   2.997  10.365 -0.1130  0.0673  0.5146
 1428TIP3    H125775   4.131   3.055  10.331 -0.0949  0.0797  0.4996
 1428TIP3    H225776   4.226   3.039  10.447 -0.7440 -0.3994  0.9729
 1429TIP3   OH225777   4.362   2.236  17.148  0.1093 -0.1655  0.4371
 1429TIP3    H125778   4.330   2.317  17.108  2.1727  1.4522  1.8334
 1429TIP3    H225779   4.432   2.207  17.090  0.3663 -0.1033  0.7141
 1430TIP3   OH225780   0.833   3.291  13.667  0.1759 -0.1585  0.3360
 1430TIP3    H125781   0.849   3.305  13.760 -0.0740 -1.1294  0.5265
 1430TIP3    H225782   0.740   3.269  13.661 -0.5092  2.5325 -0.4598
 1431TIP3   OH225783   5.663   4.259   3.370 -0.3410 -0.1094 -0.5211
 1431TIP3    H125784   5.733   4.250   3.305 -1.2181 -0.8554 -1.3868
 1431TIP3    H225785   5.666   4.351   3.395 -0.9783  0.5961 -2.7973
 1432TIP3   OH225786   2.840   3.338   0.812 -0.4626 -0.0886  0.1725
 1432TIP3    H125787   2.857   3.315   0.721  0.5004 -0.6002  0.4692
 1432TIP3    H225788   2.865   3.430   0.819  1.6959 -0.6330  0.4319
 1433TIP3   OH225789   2.811   0.438  13.207 -0.0170  0.4114  0.0739
 1433TIP3    H125790   2.750   0.440  13.281 -0.5524  0.7307 -0.3663
 1433TIP3    H225791   2.893   0.475  13.242  0.4770 -1.5659  1.1230
 1434TIP3   OH225792   1.015   2.205   2.964 -0.1753  0.0700  0.8324
 1434TIP3    H125793   1.081   2.153   3.010 -1.9464 -0.7880  2.5602
 1434TIP3    H225794   0.939   2.148   2.956 -0.6261  0.8790 -1.4960
 1435TIP3   OH225795   5.944   0.478  12.007 -0.3741  0.3072  0.5029
 1435TIP3    H125796   5.976   0.413  12.071  2.5562 -2.1582 -3.0474
 1435TIP3    H225797   5.876   0.432  11.958 -0.1304  0.8728 -0.3868
 1436TIP3   OH225798   1.720   4.321   6.423 -0.3548 -0.8558  0.0396
 1436TIP3    H125799   1.782   4.275   6.481 -0.5795 -3.2862 -1.4971
 1436TIP3    H225800   1.641   4.266   6.425 -2.3146  1.7923  1.4118
 1437TIP3   OH225801   2.432   6.265   6.022 -0.0410  0.1233 -0.2812
 1437TIP3    H125802   2.353   6.263   6.077  0.2136 -0.6259  0.0724
 1437TIP3    H225803   2.503   6.246   6.083  0.0448 -3.0841 -1.2120
 1438TIP3   OH225804   3.185   1.183   4.440  0.4357  0.3027  0.0480
 1438TIP3    H125805   3.265   1.145   4.402 -0.3057 -0.5808 -0.6709
 1438TIP3    H225806   3.168   1.129   4.517  0.0961 -0.0291 -0.2532
 1439TIP3   OH225807   1.542   0.285  11.670 -0.2058 -1.3232 -0.1111
 1439TIP3    H125808   1.577   0.234  11.743 -1.9550 -0.6429  1.2641
 1439TIP3    H225809   1.614   0.288  11.606  1.9089 -0.7137  2.1634
 1440TIP3   OH225810   2.633   2.251  15.394  0.1506 -0.7143  0.3924
 1440TIP3    H125811   2.690   2.302  15.337  0.4600  0.3801  1.6404
 1440TIP3    H225812   2.544   2.272  15.365  0.3079 -0.4328  0.1135
 1441TIP3   OH225813   3.816   5.030   4.366 -0.5118 -0.1117  0.1710
 1441TIP3    H125814   3.722   5.047   4.372 -0.4813  0.2725 -0.3505
 1441TIP3    H225815   3.856   5.117   4.366 -0.1495 -0.2787  0.5081
 1442TIP3   OH225816   5.546   5.923   4.626  0.3355 -0.0801 -0.2984
 1442TIP3    H125817   5.549   6.004   4.677  1.3377  0.1319 -0.6652
 1442TIP3    H225818   5.459   5.922   4.587 -1.1718 -1.1578  2.8282
 1443TIP3   OH225819   0.390   2.229  11.055 -0.5352  0.1703  0.2079
 1443TIP3    H125820   0.346   2.276  11.126  3.2089  1.6662  1.8091
 1443TIP3    H225821   0.418   2.297  10.995 -1.1635 -0.8262 -1.2827
 1444TIP3   OH225822   1.753   3.699   2.197  0.0696 -0.1006 -0.0022
 1444TIP3    H125823   1.815   3.686   2.125  0.5041  2.7815 -0.2659
 1444TIP3    H225824   1.668   3.704   2.154  0.0394 -0.7299 -0.0244
 1445TIP3   OH225825   2.399   3.074   4.008  0.1996 -0.6472  0.3085
 1445TIP3    H125826   2.330   3.139   4.022  1.6971  1.2808 -0.8236
 1445TIP3    H225827   2.355   2.990   4.022 -1.5218  0.5767  3.0673
 1446TIP3   OH225828   0.138   0.375  15.599  0.0207 -0.1573 -0.1846
 1446TIP3    H125829   0.137   0.305  15.663 -1.0622 -1.1687 -1.2455
 1446TIP3    H225830   0.045   0.390  15.579  0.1562  2.1744  0.6201
 1447TIP3   OH225831   2.189   6.829   1.199 -0.0759  0.0591  0.1526
 1447TIP3    H125832   2.170   6.920   1.175 -1.9178 -0.0273  1.0622
 1447TIP3    H225833   2.279   6.831   1.231  0.2433  1.3675 -0.7367
 1448TIP3   OH225834   3.866   0.163   5.605 -0.4878 -0.2879 -0.0387
 1448TIP3    H125835   3.879   0.158   5.700  1.7114 -0.3950 -0.2951
 1448TIP3    H225836   3.887   0.254   5.583 -1.1379 -0.2223 -0.4221
 1449TIP3   OH225837   3.364   5.140  10.751 -0.2818  0.1932  0.0646
 1449TIP3    H125838   3.284   5.092  10.772 -1.3925  1.8839 -0.1146
 1449TIP3    H225839   3.383   5.190  10.830 -0.8863  1.7512 -0.7403
 1450TIP3   OH225840   2.169   5.079   2.024  0.4373  0.8601 -0.1138
 1450TIP3    H125841   2.123   5.105   2.104  0.9186 -0.5517  0.6542
 1450TIP3    H225842   2.257   5.056   2.054  0.0035 -1.7822 -0.6888
 1451TIP3   OH225843   0.540   2.773   1.375  0.0969  0.5556  0.1352
 1451TIP3    H125844   0.578   2.750   1.460  0.2661  0.8811  0.1475
 1451TIP3    H225845   0.535   2.689   1.328 -2.1029 -0.0362  1.2794
 1452TIP3   OH225846   4.971   0.257   5.738 -0.1143 -0.1633 -0.4240
 1452TIP3    H125847   4.899   0.302   5.781 -0.0612  1.5219 -1.9923
 1452TIP3    H225848   4.943   0.166   5.733 -0.5278 -0.2688  2.2270
 1453TIP3   OH225849   2.660   3.361  11.724  0.4472  0.1899  0.0912
 1453TIP3    H125850   2.738   3.378  11.670  2.0958 -1.4431  1.7874
 1453TIP3    H225851   2.646   3.266  11.716 -0.4035  0.2200  1.0522
 1454TIP3   OH225852   6.778   6.249  11.455 -0.1436 -0.0160 -0.1704
 1454TIP3    H125853   6.871   6.229  11.464 -0.5982 -2.9412 -0.8522
 1454TIP3    H225854   6.775   6.318  11.388  1.5216  0.3518  0.0915
 1455TIP3   OH225855   3.449   5.261   2.352  0.1685  0.5157  0.1941
 1455TIP3    H125856   3.396   5.197   2.400  0.5803 -1.0663 -1.3848
 1455TIP3    H225857   3.391   5.292   2.282  0.7725 -0.0564 -0.5831
 1456TIP3   OH225858   2.693   2.556   1.517  0.3615  0.3718  0.0032
 1456TIP3    H125859   2.766   2.556   1.454  0.7017  0.8375  0.3927
 1456TIP3    H225860   2.720   2.618   1.585  1.2119 -2.0555  2.0368
 1457TIP3   OH225861   6.198   6.264   3.429 -0.1137 -0.0818  0.6261
 1457TIP3    H125862   6.163   6.335   3.375 -1.4811 -0.4056  1.0289
 1457TIP3    H225863   6.122   6.234   3.480  0.0755 -2.7039 -0.4757
 1458TIP3   OH225864   5.986   5.935  10.704 -0.1126 -0.5519 -0.7247
 1458TIP3    H125865   5.911   5.887  10.740  0.8674 -1.2804  0.4308
 1458TIP3    H225866   6.013   5.883  10.627 -0.3457 -0.6961 -0.7101
 1459TIP3   OH225867   6.761   5.415   3.400  0.1547  0.1285 -0.1328
 1459TIP3    H125868   6.844   5.372   3.377 -0.4461 -1.7657  0.9729
 1459TIP3    H225869   6.780   5.462   3.481  0.7743  1.9203 -1.2614
 1460TIP3   OH225870   6.601   3.797   5.450  0.2944 -0.3095 -0.5278
 1460TIP3    H125871   6.525   3.783   5.394 -0.1547  0.6812 -0.1798
 1460TIP3    H225872   6.593   3.730   5.519 -0.3294 -0.1296 -0.4219
 1461TIP3   OH225873   2.007   4.778  14.290 -0.1042  0.4806 -0.1735
 1461TIP3    H125874   1.972   4.706  14.342  1.2982  0.9006  1.4410
 1461TIP3    H225875   1.947   4.851  14.307  0.6704  0.7809  1.3703
 1462TIP3   OH225876   0.523   6.734  16.587 -0.2460 -0.0250 -0.2682
 1462TIP3    H125877   0.493   6.710  16.675 -0.0385  2.5606  0.5799
 1462TIP3    H225878   0.614   6.701  16.584  0.4276  1.5203  1.2738
 1463TIP3   OH225879   0.820   4.097  12.874 -0.7408  0.5131  0.1351
 1463TIP3    H125880   0.853   4.184  12.895  3.5995 -0.8374 -0.2227
 1463TIP3    H225881   0.807   4.055  12.959  1.9101  0.0399  0.3861
 1464TIP3   OH225882   5.055   5.556   4.584  0.2473 -0.1919 -0.3410
 1464TIP3    H125883   5.146   5.539   4.560  0.5595 -2.9073  2.2454
 1464TIP3    H225884   5.004   5.496   4.530  0.0309  0.6493 -1.0983
 1465TIP3   OH225885   6.063   3.006   1.500 -0.0469 -0.3035  0.3486
 1465TIP3    H125886   6.008   2.995   1.423  2.4457 -0.4484 -1.5477
 1465TIP3    H225887   6.077   2.917   1.533  0.2277 -0.4100 -0.0527
 1466TIP3   OH225888   2.955   3.329  15.583  0.0924  0.1346  0.1158
 1466TIP3    H125889   3.044   3.325  15.618  0.2239 -2.5197 -0.3249
 1466TIP3    H225890   2.958   3.273  15.505 -2.0440 -0.3710  0.3484
 1467TIP3   OH225891   2.026   3.128   1.875  0.2327 -0.5608  0.1510
 1467TIP3    H125892   2.067   3.057   1.924 -2.0327 -3.1762 -1.4389
 1467TIP3    H225893   2.042   3.106   1.783 -0.5611  0.9799 -0.3969
 1468TIP3   OH225894   1.992   3.177   3.792 -0.3051  0.6355  0.0482
 1468TIP3    H125895   2.070   3.145   3.747 -1.0259 -1.7201  0.3333
 1468TIP3    H225896   2.023   3.204   3.878  0.1249 -0.9790  0.4272
 1469TIP3   OH225897   6.026   0.952  14.241 -0.4610  0.0818  0.0965
 1469TIP3    H125898   6.046   1.022  14.304  0.3782  0.3415 -0.4436
 1469TIP3    H225899   6.069   0.979  14.160 -2.5186  0.3410 -0.9844
 1470TIP3   OH225900   3.385   6.053   2.875  0.0950 -0.0114  0.4742
 1470TIP3    H125901   3.462   5.997   2.865  0.4908  0.5129  0.5471
 1470TIP3    H225902   3.415   6.141   2.853  0.3403  0.7736  3.4162
 1471TIP3   OH225903   0.056   1.700   4.493  1.1955  0.1841 -0.4757
 1471TIP3    H125904   0.062   1.702   4.589  1.0553 -0.5484 -0.4501
 1471TIP3    H225905   0.114   1.629   4.466  0.4893 -0.2514 -0.8676
 1472TIP3   OH225906   3.300   5.920  12.740 -0.3010 -0.6108 -0.1341
 1472TIP3    H125907   3.257   5.845  12.780  1.1008 -1.9420 -0.9710
 1472TIP3    H225908   3.374   5.882  12.692  0.8865  1.3767 -0.0179
 1473TIP3   OH225909   1.365   4.638   1.181 -0.5711 -0.0462 -0.2605
 1473TIP3    H125910   1.274   4.611   1.171 -0.3998 -1.3003  1.1681
 1473TIP3    H225911   1.410   4.559   1.212  1.4575 -0.0595 -2.8863
 1474TIP3   OH225912   0.160   4.111   2.002 -0.0621 -0.2193 -0.1706
 1474TIP3    H125913   0.084   4.065   1.967  0.2573  0.0333 -1.2186
 1474TIP3    H225914   0.122   4.181   2.056 -0.6065  0.5832 -1.5585
 1475TIP3   OH225915   5.878   5.286   1.344 -0.1934 -0.5239 -0.9733
 1475TIP3    H125916   5.860   5.197   1.375 -1.7516 -0.1171 -0.6607
 1475TIP3    H225917   5.796   5.333   1.354  1.0054  1.4528  0.4987
 1476TIP3   OH225918   1.580   0.118  14.716  0.4745  0.1516  0.3735
 1476TIP3    H125919   1.521   0.148  14.784 -0.8122 -0.8275 -0.2639
 1476TIP3    H225920   1.664   0.104  14.760 -0.1383  0.2380  1.5868
 1477TIP3   OH225921   1.146   6.798   2.015  0.5463 -0.1129  0.0074
 1477TIP3    H125922   1.093   6.742   1.959  0.0558  1.0263 -0.7020
 1477TIP3    H225923   1.227   6.749   2.028  1.3699  0.2050 -3.0397
 1478TIP3   OH225924   5.010   3.765  11.551 -0.1000  0.0995  0.1026
 1478TIP3    H125925   5.103   3.743  11.559 -0.0822 -0.4065 -1.2055
 1478TIP3    H225926   5.008   3.859  11.536  0.2757 -0.0013 -0.6546
 1479TIP3   OH225927   6.162   0.498   0.344  0.0011 -0.0191  0.5105
 1479TIP3    H125928   6.110   0.539   0.413 -1.0262 -1.7576  0.8231
 1479TIP3    H225929   6.172   0.407   0.373  2.2330 -0.0288 -0.1236
 1480TIP3   OH225930   5.569   1.807  15.801  0.1601  0.5706 -0.2216
 1480TIP3    H125931   5.485   1.761  15.809 -0.0200  0.9914  0.3467
 1480TIP3    H225932   5.629   1.740  15.769 -0.0074 -0.1881  0.9754
 1481TIP3   OH225933   2.056   4.434  15.354  0.1952 -0.2711  0.2734
 1481TIP3    H125934   2.080   4.344  15.335  0.5868 -0.2904  0.8249
 1481TIP3    H225935   2.044   4.436  15.449  1.3104  0.4943  0.4287
 1482TIP3   OH225936   1.529   3.084   5.871 -0.2482 -0.5287 -0.2576
 1482TIP3    H125937   1.542   3.130   5.788  1.8117 -3.7818 -1.9684
 1482TIP3    H225938   1.592   3.124   5.931 -0.3836  0.5845 -0.8301
 1483TIP3   OH225939   3.412   6.834  12.834  0.1699 -0.0321  0.1345
 1483TIP3    H125940   3.330   6.854  12.879 -1.2907 -1.0709 -1.8903
 1483TIP3    H225941   3.443   6.918  12.802 -1.1042  0.1782 -0.6162
 1484TIP3   OH225942   6.675   6.569   2.223  0.3878 -0.3116  0.4031
 1484TIP3    H125943   6.642   6.641   2.170  0.5504 -0.5078  0.0261
 1484TIP3    H225944   6.632   6.579   2.308  0.1467  0.0234  0.2429
 1485TIP3   OH225945   6.650   3.483   5.054 -0.5899  0.0884  0.1367
 1485TIP3    H125946   6.608   3.433   5.124 -1.4163  0.4158 -0.1142
 1485TIP3    H225947   6.596   3.561   5.044 -2.3490 -1.3041 -2.9077
 1486TIP3   OH225948   5.932   6.640   3.072 -0.1930  0.4960  0.2785
 1486TIP3    H125949   5.946   6.636   3.167 -1.4253 -2.4036  0.4374
 1486TIP3    H225950   6.009   6.597   3.035  0.6252  2.2291 -0.1691
 1487TIP3   OH225951   2.848   1.756  14.505  0.2484  0.6837 -0.1879
 1487TIP3    H125952   2.899   1.804  14.571  0.2814  1.9135 -1.0648
 1487TIP3    H225953   2.874   1.665  14.515  2.0172  1.1683 -0.0586
 1488TIP3   OH225954   6.462   1.275  11.782 -0.0211 -0.0538 -0.1538
 1488TIP3    H125955   6.402   1.325  11.836  0.7124  0.4659  0.2061
 1488TIP3    H225956   6.452   1.311  11.694 -1.2843 -0.9629 -0.4055
 1489TIP3   OH225957   1.668   3.435  13.356  0.0259  0.6508 -1.1348
 1489TIP3    H125958   1.658   3.521  13.398 -1.0857  0.7014 -1.4586
 1489TIP3    H225959   1.743   3.395  13.399 -0.8863  0.8152  0.6846
 1490TIP3   OH225960   2.098   3.718  16.079  0.2045  0.2513  0.6382
 1490TIP3    H125961   2.074   3.753  16.165 -0.5673 -1.7107  1.2804
 1490TIP3    H225962   2.162   3.650  16.098  1.1319  0.7789 -0.4954
 1491TIP3   OH225963   2.255   3.189  10.573  0.5429 -0.3317 -0.1706
 1491TIP3    H125964   2.324   3.253  10.589 -0.0734  0.2270  0.3259
 1491TIP3    H225965   2.270   3.121  10.639 -0.6592  0.8701  1.4211
 1492TIP3   OH225966   2.287   2.360  15.843  0.3674  0.4382 -0.2554
 1492TIP3    H125967   2.341   2.350  15.765 -0.2281  0.1891 -0.6426
 1492TIP3    H225968   2.335   2.315  15.912  0.9077  0.6779 -0.4725
 1493TIP3   OH225969   3.816   5.444  15.274 -0.1437  0.1839 -0.2753
 1493TIP3    H125970   3.751   5.505  15.310  1.5163  0.1317  3.1442
 1493TIP3    H225971   3.877   5.500  15.226  0.1683  0.9677  0.9999
 1494TIP3   OH225972   3.983   1.408   4.325 -0.6005  0.1011  0.0529
 1494TIP3    H125973   4.067   1.452   4.330  0.0975 -1.0727 -0.8868
 1494TIP3    H225974   3.951   1.426   4.237 -1.1711  0.2103  0.2714
 1495TIP3   OH225975   3.636   4.154   2.044 -0.1286  0.4442  1.0699
 1495TIP3    H125976   3.726   4.187   2.050  1.4755 -3.0251 -0.5616
 1495TIP3    H225977   3.618   4.118   2.131  0.0038  1.2376  1.4328
 1496TIP3   OH225978   3.943   3.363  11.842 -0.3561  0.2909  0.0776
 1496TIP3    H125979   3.905   3.395  11.923  2.7514 -0.5506  2.0612
 1496TIP3    H225980   4.009   3.429  11.819  1.4834 -1.3283  0.4845
 1497TIP3   OH225981   1.214   5.842  14.880  0.2532 -0.0229 -0.2512
 1497TIP3    H125982   1.188   5.910  14.818 -0.7422  0.8755  1.0921
 1497TIP3    H225983   1.132   5.817  14.923  0.5252 -2.3672 -0.9481
 1498TIP3   OH225984   3.729   6.149  10.875 -0.3152  0.0731 -0.2824
 1498TIP3    H125985   3.741   6.089  10.949  1.1264  2.3216  1.4579
 1498TIP3    H225986   3.661   6.210  10.905  1.5367  2.1015  0.0419
 1499TIP3   OH225987   1.138   3.263  13.703 -0.1490  0.0300  0.0908
 1499TIP3    H125988   1.165   3.302  13.786 -1.0431 -1.8025  1.3186
 1499TIP3    H225989   1.160   3.329  13.637  3.5733  0.3077  1.3515
 1500TIP3   OH225990   1.801   5.865   1.653  0.2807  0.1253  0.6049
 1500TIP3    H125991   1.746   5.938   1.625  1.6870  0.2894 -2.0403
 1500TIP3    H225992   1.773   5.847   1.743 -0.6721  3.3527  1.0848
 1501TIP3   OH225993   1.713   3.295  16.763  0.1758  0.1014  0.2219
 1501TIP3    H125994   1.686   3.278  16.673 -0.4847  0.1985  0.3899
 1501TIP3    H225995   1.808   3.297  16.760  0.1494  0.8537 -0.6143
 1502TIP3   OH225996   6.608   2.818   3.068 -0.5576  0.0579  0.0038
 1502TIP3    H125997   6.610   2.878   3.143  0.2800  0.4237 -0.2964
 1502TIP3    H225998   6.658   2.863   3.000  0.3449 -1.0944 -0.1402
 1503TIP3   OH225999   4.009   1.420  14.304  0.3608 -0.2477 -0.0000
 1503TIP3    H126000   4.068   1.478  14.256 -1.0020  0.4611 -0.8728
 1503TIP3    H226001   3.990   1.349  14.244  0.6356 -0.6947  0.4316
 1504TIP3   OH226002   2.273   2.764   1.228  1.0204 -0.7732  0.2869
 1504TIP3    H126003   2.314   2.845   1.261 -2.0440  0.5779  1.1704
 1504TIP3    H226004   2.273   2.774   1.133  1.3984 -0.0956  0.3501
 1505TIP3   OH226005   0.917   6.775   5.998  0.6260 -0.6044  0.7138
 1505TIP3    H126006   0.945   6.767   6.090  0.6252  0.8923  0.8553
 1505TIP3    H226007   0.970   6.710   5.952  3.1885  0.9690  1.2517
 1506TIP3   OH226008   2.411   3.927   4.308 -0.1372  0.3586 -0.2059
 1506TIP3    H126009   2.434   3.844   4.267 -0.0611  0.9015 -1.3044
 1506TIP3    H226010   2.495   3.970   4.325 -0.0504 -0.5917  2.2098
 1507TIP3   OH226011   1.993   6.200   1.353  0.1663 -0.2862 -0.0019
 1507TIP3    H126012   1.944   6.283   1.349  0.6222  0.0064  0.3373
 1507TIP3    H226013   2.022   6.185   1.263  1.2129  0.6214  0.1641
 1508TIP3   OH226014   2.150   1.704   6.148  0.5106  0.2595  0.3228
 1508TIP3    H126015   2.245   1.706   6.159  0.6300  1.5623 -0.6982
 1508TIP3    H226016   2.117   1.767   6.212  0.3954  0.4224  0.1016
 1509TIP3   OH226017   0.005   1.224  15.939  0.5921 -0.0629  0.2566
 1509TIP3    H126018   0.038   1.265  16.019  1.7965  1.7815 -1.1039
 1509TIP3    H226019   0.075   1.238  15.875 -0.0421 -2.0979 -0.9687
 1510TIP3   OH226020   0.346   4.719   4.949 -0.0033  0.3137 -0.0237
 1510TIP3    H126021   0.370   4.643   5.003 -0.9915 -0.3379 -0.4788
 1510TIP3    H226022   0.374   4.695   4.861 -0.0237  0.6231 -0.1143
 1511TIP3   OH226023   0.988   0.931  13.941  0.0395 -0.0916  0.5038
 1511TIP3    H126024   1.082   0.952  13.933 -0.0104  0.3653  1.0397
 1511TIP3    H226025   0.947   1.015  13.961 -0.3540 -0.4661  1.3008
 1512TIP3   OH226026   6.457   3.126  16.656 -0.0614  0.1641 -0.0937
 1512TIP3    H126027   6.537   3.173  16.633  0.6093 -1.0265 -0.2836
 1512TIP3    H226028   6.392   3.195  16.671  0.6477  1.1062 -1.2199
 1513TIP3   OH226029   3.558   0.386   6.081  0.7498 -0.6737  0.3153
 1513TIP3    H126030   3.567   0.390   6.177  1.6678 -1.0240  0.2498
 1513TIP3    H226031   3.538   0.294   6.063  2.3430 -0.9882  0.0425
 1514TIP3   OH226032   3.679   5.351   4.304  0.5561 -0.3299 -0.1093
 1514TIP3    H126033   3.680   5.381   4.395 -0.1565  0.5356 -0.3666
 1514TIP3    H226034   3.770   5.362   4.275  0.7367 -0.3702  0.4174
 1515TIP3   OH226035   5.989   4.051   3.758 -0.1548  0.1566 -0.5281
 1515TIP3    H126036   5.932   4.124   3.784 -1.0212 -0.7553  0.2033
 1515TIP3    H226037   6.056   4.047   3.826 -0.2053  0.1659 -0.4778
 1516TIP3   OH226038   5.391   6.813   0.609  0.1837  0.0784  0.3310
 1516TIP3    H126039   5.450   6.759   0.557  0.6684  0.5162  0.4193
 1516TIP3    H226040   5.406   6.902   0.578  0.5747  0.3645  1.2839
 1517TIP3   OH226041   5.093   0.312  16.630  0.5485 -0.0141 -0.1547
 1517TIP3    H126042   5.063   0.225  16.659 -1.7114  0.8011  0.1696
 1517TIP3    H226043   5.146   0.344  16.702  0.3014 -0.5950  0.2980
 1518TIP3   OH226044   3.730   1.081  15.000  0.1282  0.4434 -0.6292
 1518TIP3    H126045   3.777   0.998  14.994  0.1360  0.4433 -0.5722
 1518TIP3    H226046   3.796   1.144  15.028 -0.2463  0.1126  1.1373
 1519TIP3   OH226047   5.600   2.594  15.924 -0.3880 -0.0918 -0.2779
 1519TIP3    H126048   5.570   2.543  16.000 -1.1284 -0.9519 -1.1242
 1519TIP3    H226049   5.540   2.570  15.854  0.9360 -0.1341 -1.4412
 1520TIP3   OH226050   4.241   1.729  12.044 -0.2839  0.0859  0.2911
 1520TIP3    H126051   4.161   1.753  11.996 -0.7393 -2.6176 -0.4365
 1520TIP3    H226052   4.229   1.769  12.130 -1.9542  0.6009 -0.1292
 1521TIP3   OH226053   1.928   0.277   2.783 -0.3472 -0.1597 -0.3532
 1521TIP3    H126054   1.853   0.219   2.791 -0.5595  0.1362 -0.2136
 1521TIP3    H226055   1.978   0.264   2.864 -0.1123 -0.5427 -0.5549
 1522TIP3   OH226056   5.140   0.330   5.980 -0.0045  0.5832 -0.3389
 1522TIP3    H126057   5.111   0.420   5.998 -1.1106 -0.1192  1.6402
 1522TIP3    H226058   5.105   0.310   5.894  0.4094  2.0892 -0.8942
 1523TIP3   OH226059   6.636   5.612  11.828 -0.6308  0.1002  0.0667
 1523TIP3    H126060   6.630   5.598  11.733 -0.5846 -0.4204  0.1379
 1523TIP3    H226061   6.546   5.604  11.859 -0.4402 -1.3617  0.2819
 1524TIP3   OH226062   3.555   4.362   3.782 -0.3523 -0.1168  0.2108
 1524TIP3    H126063   3.510   4.280   3.762 -1.1949  0.7052 -1.4460
 1524TIP3    H226064   3.491   4.412   3.832 -0.8040  0.5236 -0.9874
 1525TIP3   OH226065   1.504   4.468   0.834 -0.0022 -0.3084 -0.0712
 1525TIP3    H126066   1.475   4.380   0.858 -1.9480  0.9682  2.7865
 1525TIP3    H226067   1.441   4.498   0.769 -0.5773 -0.3405  0.4568
 1526TIP3   OH226068   3.851   0.797  13.739 -0.3166  0.6492  0.3109
 1526TIP3    H126069   3.909   0.816  13.665 -0.5737 -1.5073 -0.5438
 1526TIP3    H226070   3.774   0.852  13.725  0.8782  2.4627  0.6586
 1527TIP3   OH226071   5.423   0.645  13.212  0.4119  0.2211  0.2415
 1527TIP3    H126072   5.328   0.634  13.203  0.3725 -1.9873  2.2247
 1527TIP3    H226073   5.432   0.705  13.286  0.5558  0.1532  0.2780
 1528TIP3   OH226074   2.290   6.798   3.602 -0.3588  0.2119 -0.3223
 1528TIP3    H126075   2.295   6.839   3.516 -1.0869 -0.3913 -0.6613
 1528TIP3    H226076   2.278   6.871   3.663  1.1314  0.7324 -0.6047
 1529TIP3   OH226077   4.739   5.443   5.803  0.2650 -0.5976 -0.4408
 1529TIP3    H126078   4.798   5.375   5.769  1.6593  0.3351  0.0006
 1529TIP3    H226079   4.755   5.442   5.898 -0.2410 -0.1616 -0.3494
 1530TIP3   OH226080   5.482   3.756  12.009  0.3336 -0.0641  0.9023
 1530TIP3    H126081   5.460   3.712  11.927  1.8377  0.6273  0.0790
 1530TIP3    H226082   5.502   3.686  12.070  1.1507 -0.5775  0.0739
 1531TIP3   OH226083   3.172   2.193   3.739 -0.2773 -0.7711  0.2182
 1531TIP3    H126084   3.220   2.275   3.725 -0.8718 -0.1946  1.4018
 1531TIP3    H226085   3.234   2.125   3.712  2.0070 -0.1612  3.2882
 1532TIP3   OH226086   6.714   4.113   2.253 -0.0209 -0.9740 -0.0895
 1532TIP3    H126087   6.747   4.190   2.299 -0.8293  0.0469 -1.1731
 1532TIP3    H226088   6.791   4.056   2.243  0.6806 -0.1123  0.3075
 1533TIP3   OH226089   2.504   1.752   6.567  0.7705  0.9439 -0.2522
 1533TIP3    H126090   2.513   1.825   6.506  1.1500 -1.9392 -3.9771
 1533TIP3    H226091   2.425   1.707   6.539  1.7201 -1.2929  0.4986
 1534TIP3   OH226092   4.802   0.710   3.058  0.2050 -0.5053 -0.1567
 1534TIP3    H126093   4.830   0.799   3.034  0.9384 -1.0440 -1.4027
 1534TIP3    H226094   4.882   0.658   3.053  0.0385 -1.0385  1.7846
 1535TIP3   OH226095   3.532   2.077  13.962 -0.1076  0.7344  0.6025
 1535TIP3    H126096   3.603   2.141  13.974  0.4901  0.3193 -0.6063
 1535TIP3    H226097   3.546   2.042  13.874  1.0469 -2.7726  2.0019
 1536TIP3   OH226098   1.162   3.853  14.216 -0.0216  0.0163  0.1700
 1536TIP3    H126099   1.246   3.823  14.180  0.3046  1.8103 -0.6803
 1536TIP3    H226100   1.141   3.931  14.165 -0.6984  1.3722  2.3984
 1537TIP3   OH226101   0.550   6.445  16.259  0.1897 -0.2037 -0.3180
 1537TIP3    H126102   0.569   6.531  16.223  1.5676 -0.6067 -0.6098
 1537TIP3    H226103   0.625   6.391  16.233 -1.1987 -1.8056 -1.1777
 1538TIP3   OH226104   4.687   1.108  15.250 -0.3047  0.0642 -0.9948
 1538TIP3    H126105   4.692   1.014  15.264  1.7984  0.2182 -0.3766
 1538TIP3    H226106   4.709   1.146  15.336 -2.1946  1.1604 -0.9282
 1539TIP3   OH226107   3.321   5.974  15.461  0.6908  0.7093 -0.2593
 1539TIP3    H126108   3.410   5.981  15.496  0.8928 -1.9667 -0.0390
 1539TIP3    H226109   3.268   5.944  15.535 -0.0188  0.4670 -0.8494
 1540TIP3   OH226110   0.381   2.313  13.169  0.2661  0.1704  0.7257
 1540TIP3    H126111   0.474   2.290  13.171  0.6013  1.4276  0.5341
 1540TIP3    H226112   0.338   2.236  13.133  1.5784  0.6272 -2.0713
 1541TIP3   OH226113   1.860   3.134   0.573 -0.0575  0.4922 -0.0892
 1541TIP3    H126114   1.953   3.149   0.588  0.2314 -0.8109 -0.4292
 1541TIP3    H226115   1.834   3.203   0.513  0.4806  1.3763  0.6754
 1542TIP3   OH226116   5.194   2.077   5.600 -0.5586  0.4392  0.0614
 1542TIP3    H126117   5.211   2.164   5.635  2.7835  0.4154 -1.1450
 1542TIP3    H226118   5.168   2.092   5.509 -0.2440  0.2154 -0.0691
 1543TIP3   OH226119   5.996   0.362   5.346  0.1004 -0.5476 -0.1418
 1543TIP3    H126120   6.085   0.327   5.343 -0.4288 -2.0045  0.3295
 1543TIP3    H226121   5.978   0.373   5.439 -0.6121 -1.3745 -0.1670
 1544TIP3   OH226122   5.063   6.742  13.857  0.0225 -0.4831  0.2974
 1544TIP3    H126123   5.072   6.658  13.812  1.0827 -0.3410  0.2202
 1544TIP3    H226124   5.123   6.737  13.931 -1.0504 -0.3717  1.2098
 1545TIP3   OH226125   5.706   2.924  14.279  0.4804  0.4709  0.3738
 1545TIP3    H126126   5.757   2.852  14.318 -1.0756 -1.0270 -0.2352
 1545TIP3    H226127   5.772   2.978  14.235  1.8519  0.1885  1.9618
 1546TIP3   OH226128   1.077   3.039   4.202 -0.6090 -0.5644  0.5662
 1546TIP3    H126129   1.097   2.946   4.192  2.0112 -0.0394 -0.0717
 1546TIP3    H226130   1.134   3.068   4.274  0.0464  0.8568 -0.4621
 1547TIP3   OH226131   3.409   0.182  16.883 -0.3216  0.0468 -0.3908
 1547TIP3    H126132   3.490   0.132  16.883  0.2028  0.8513 -1.5806
 1547TIP3    H226133   3.367   0.161  16.799 -0.7313  0.5868 -0.3323
 1548TIP3   OH226134   2.900   2.789  14.352  0.2065  0.4361  0.1208
 1548TIP3    H126135   2.871   2.810  14.263  1.2212 -1.5257 -0.7149
 1548TIP3    H226136   2.832   2.731  14.386  0.3378  0.3682  0.2620
 1549TIP3   OH226137   3.281   0.446  15.244  0.1083 -0.0337 -0.7528
 1549TIP3    H126138   3.247   0.359  15.226 -0.5421 -0.4701  2.0901
 1549TIP3    H226139   3.354   0.432  15.304  0.3020  1.3706 -0.6107
 1550TIP3   OH226140   0.826   0.591   1.194 -0.1736  0.3417 -0.0266
 1550TIP3    H126141   0.919   0.572   1.206 -0.1211  1.0847  0.9063
 1550TIP3    H226142   0.821   0.687   1.194 -1.1723  0.3622  2.2086
 1551TIP3   OH226143   1.887   6.267  12.151  0.3765  0.5065  0.2075
 1551TIP3    H126144   1.793   6.252  12.147  0.5687 -0.8662  0.3933
 1551TIP3    H226145   1.924   6.208  12.085  1.1021  1.0990  0.0712
 1552TIP3   OH226146   1.351   6.193   5.545  0.1624  0.8154  0.1482
 1552TIP3    H126147   1.432   6.149   5.519  0.6211  1.3861  0.5857
 1552TIP3    H226148   1.380   6.272   5.591 -0.5962 -0.4181  2.9404
 1553TIP3   OH226149   0.092   5.547   3.587  0.3264 -0.1043 -0.2475
 1553TIP3    H126150   0.160   5.609   3.560 -0.2045  0.1505 -1.0211
 1553TIP3    H226151   0.036   5.596   3.647  0.0042  0.1114 -0.7268
 1554TIP3   OH226152   2.761   2.960  10.822 -0.0264  0.1730 -0.1694
 1554TIP3    H126153   2.813   2.926  10.895  0.3383 -0.0294 -0.5154
 1554TIP3    H226154   2.707   3.028  10.861  1.7487  1.6193 -0.0980
 1555TIP3   OH226155   3.435   6.136   0.638 -0.5163 -0.5170  0.2760
 1555TIP3    H126156   3.388   6.169   0.561 -1.3691 -1.3121  0.4326
 1555TIP3    H226157   3.518   6.183   0.637 -1.2172  0.7769 -0.1443
 1556TIP3   OH226158   6.031   4.956   0.508  0.4670 -1.0180  0.2714
 1556TIP3    H126159   5.962   5.005   0.553  0.1570 -1.0420 -0.1634
 1556TIP3    H226160   6.110   5.007   0.521 -0.1604  0.6110 -1.7138
 1557TIP3   OH226161   0.177   0.718  16.756 -0.1269  0.1944 -0.2174
 1557TIP3    H126162   0.236   0.646  16.734 -1.0408 -1.0488  1.2422
 1557TIP3    H226163   0.094   0.695  16.712 -0.1133  0.9531 -0.6705
 1558TIP3   OH226164   5.151   0.266  11.135  0.3193  0.8501 -0.7011
 1558TIP3    H126165   5.122   0.330  11.200 -1.2502 -0.3103 -0.1668
 1558TIP3    H226166   5.210   0.208  11.183 -2.1731 -1.0459  0.3030
 1559TIP3   OH226167   2.909   2.259   3.840  0.0827 -0.2232  0.2030
 1559TIP3    H126168   2.991   2.237   3.796  0.1932  1.3765 -0.4658
 1559TIP3    H226169   2.935   2.315   3.912 -0.3260 -0.8189  0.8291
 1560TIP3   OH226170   4.510   1.055  11.417  0.7424  0.0297  0.0820
 1560TIP3    H126171   4.570   1.091  11.352 -0.0490  0.7196 -0.2881
 1560TIP3    H226172   4.537   1.096  11.500 -1.8487  3.8628 -0.7095
 1561TIP3   OH226173   4.525   5.401  16.849  0.3546  0.8266 -0.4582
 1561TIP3    H126174   4.485   5.344  16.914  2.3043 -0.4287 -0.2708
 1561TIP3    H226175   4.469   5.478  16.846 -0.3839  0.4410  1.8927
 1562TIP3   OH226176   5.497   6.408  16.342 -0.1817 -0.0268 -0.2390
 1562TIP3    H126177   5.565   6.425  16.408 -1.2379  0.9222  0.6454
 1562TIP3    H226178   5.433   6.354  16.388 -0.2688 -0.4963 -0.9124
 1563TIP3   OH226179   5.133   5.495  13.444 -0.1664  0.0667 -0.5246
 1563TIP3    H126180   5.196   5.517  13.513  1.4162 -3.0797 -0.7624
 1563TIP3    H226181   5.048   5.518  13.481  0.8696  1.7483  0.9982
 1564TIP3   OH226182   0.724   0.432  12.749 -0.4425  0.0160  0.2991
 1564TIP3    H126183   0.780   0.431  12.826  1.7680 -2.5634 -1.1714
 1564TIP3    H226184   0.721   0.341  12.720 -1.2654  0.8599 -2.5801
 1565TIP3   OH226185   4.222   2.850   2.483  0.0685 -0.0498  0.0537
 1565TIP3    H126186   4.238   2.775   2.539 -0.1259  0.7399  1.1915
 1565TIP3    H226187   4.281   2.838   2.409 -0.7135 -1.8634 -0.3317
 1566TIP3   OH226188   3.370   2.334  14.333  0.6336 -0.2007  0.2448
 1566TIP3    H126189   3.383   2.241  14.352 -1.1694 -0.4792  0.3030
 1566TIP3    H226190   3.283   2.338  14.294  0.3420  1.5792  1.0072
 1567TIP3   OH226191   0.467   3.357  16.733  0.0006  0.4753  0.0381
 1567TIP3    H126192   0.555   3.355  16.696 -1.0667  2.0721 -2.9170
 1567TIP3    H226193   0.475   3.413  16.811  1.4417  1.4404 -0.7562
 1568TIP3   OH226194   3.029   4.265   1.120  0.2965  0.0171 -0.1271
 1568TIP3    H126195   3.016   4.351   1.079  2.0131  0.0283 -0.7669
 1568TIP3    H226196   3.059   4.209   1.048 -1.3609 -1.3134  0.1534
 1569TIP3   OH226197   2.928   6.281   2.165  0.5162 -0.3302  0.0718
 1569TIP3    H126198   2.835   6.286   2.145  0.3082  0.4393  1.1345
 1569TIP3    H226199   2.948   6.364   2.209  2.0141  0.1205 -1.3642
 1570TIP3   OH226200   0.855   0.623   6.399 -0.1395  0.3439  0.3097
 1570TIP3    H126201   0.921   0.554   6.406 -0.8602 -0.3224  0.7789
 1570TIP3    H226202   0.850   0.661   6.487 -0.4682  0.2990  0.3140
 1571TIP3   OH226203   4.808   0.329   1.632 -0.5027 -0.2659 -0.5842
 1571TIP3    H126204   4.721   0.354   1.665 -0.0285 -0.4094  0.8400
 1571TIP3    H226205   4.847   0.411   1.603 -0.0722  0.2822  1.3769
 1572TIP3   OH226206   5.474   0.226   0.610 -0.1073 -0.2326  0.0039
 1572TIP3    H126207   5.429   0.238   0.526  1.2586  0.7631 -0.6377
 1572TIP3    H226208   5.526   0.306   0.620  2.6148 -1.8552 -0.0402
 1573TIP3   OH226209   4.420   1.696   0.393  0.2399 -0.5832  0.5012
 1573TIP3    H126210   4.352   1.662   0.334 -0.5302 -0.7376  1.4635
 1573TIP3    H226211   4.396   1.788   0.407  0.5057 -0.5067  0.4644
 1574TIP3   OH226212   6.587   0.915  15.384 -0.0324 -0.3506 -0.2257
 1574TIP3    H126213   6.530   0.990  15.398  3.1780  2.3482 -0.4542
 1574TIP3    H226214   6.567   0.856  15.457 -2.8646  0.4702 -0.2077
 1575TIP3   OH226215   3.354   0.563  14.631  0.3911 -0.0571  0.0915
 1575TIP3    H126216   3.448   0.550  14.643  0.5366  0.6665 -0.1883
 1575TIP3    H226217   3.332   0.636  14.690 -0.1612 -0.7358  0.7609
 1576TIP3   OH226218   2.477   4.356   3.791 -0.2918  0.3199  0.0888
 1576TIP3    H126219   2.548   4.414   3.763  1.1667 -0.9427  1.0035
 1576TIP3    H226220   2.403   4.380   3.736  0.8707  1.6130 -0.9753
 1577TIP3   OH226221   2.816   1.238   5.266 -0.4803  0.1346 -0.3554
 1577TIP3    H126222   2.823   1.255   5.172 -0.4259 -0.5066 -0.4727
 1577TIP3    H226223   2.723   1.247   5.286 -0.4663  0.4651 -0.4255
 1578TIP3   OH226224   3.931   3.429   0.124 -0.3868 -0.3931  0.1063
 1578TIP3    H126225   3.852   3.455   0.077 -0.9578  0.4390  1.4831
 1578TIP3    H226226   4.003   3.458   0.068 -1.0189 -1.1711 -1.1734
 1579TIP3   OH226227   4.227   1.901   3.090  0.1705  0.5280  0.6905
 1579TIP3    H126228   4.250   1.809   3.071 -2.3576  0.1469 -1.0486
 1579TIP3    H226229   4.302   1.951   3.057  1.0022 -0.8504  0.3827
 1580TIP3   OH226230   4.099   1.050   5.325  0.1756  0.6724  0.0736
 1580TIP3    H126231   4.084   1.002   5.243  0.0376 -0.3808  0.6869
 1580TIP3    H226232   4.130   1.136   5.297  1.3313 -0.0704 -1.0728
 1581TIP3   OH226233   1.470   4.191  15.514 -0.3880  0.1857  0.1146
 1581TIP3    H126234   1.456   4.105  15.552  0.5370 -0.1464 -0.2649
 1581TIP3    H226235   1.562   4.210  15.528 -0.4094  0.7944 -0.4531
 1582TIP3   OH226236   3.577   0.524  15.154  0.3803 -0.3318 -0.2527
 1582TIP3    H126237   3.558   0.500  15.244  1.0531  2.7042  0.8251
 1582TIP3    H226238   3.522   0.601  15.138 -1.0859 -1.8073 -3.1347
 1583TIP3   OH226239   0.883   3.250  14.711 -0.0422  0.1303 -0.3609
 1583TIP3    H126240   0.840   3.165  14.704  1.0657 -0.4245 -0.7707
 1583TIP3    H226241   0.942   3.253  14.636 -0.7968  1.7106 -0.9331
 1584TIP3   OH226242   0.302   3.780  16.822  0.6405  0.4292 -0.2507
 1584TIP3    H126243   0.252   3.850  16.865 -0.7341 -0.6389 -0.0135
 1584TIP3    H226244   0.343   3.823  16.747 -1.6518  1.1679 -1.1711
 1585TIP3   OH226245   5.420   6.484  14.491 -0.5467 -0.4329  0.2028
 1585TIP3    H126246   5.439   6.480  14.398 -0.9621 -0.4895  0.1200
 1585TIP3    H226247   5.504   6.468  14.534  0.0399  1.4404 -0.1656
 1586TIP3   OH226248   5.459   2.857   1.985 -0.2634 -0.1290  0.7925
 1586TIP3    H126249   5.431   2.772   1.950 -2.1449  0.0277  1.8314
 1586TIP3    H226250   5.403   2.872   2.061  3.1815 -0.1297  3.5863
 1587TIP3   OH226251   5.820   0.286   6.856 -0.2011  0.0626 -0.1409
 1587TIP3    H126252   5.780   0.239   6.782 -1.7728 -0.8235  1.2198
 1587TIP3    H226253   5.895   0.232   6.880  0.6341  0.6247 -1.3823
 1588TIP3   OH226254   0.705   1.144   0.386  0.1640 -0.0158 -0.0165
 1588TIP3    H126255   0.652   1.101   0.320  1.1766 -0.0701 -0.8269
 1588TIP3    H226256   0.781   1.177   0.338  1.4001 -0.8710  1.2429
 1589TIP3   OH226257   0.307   0.346   0.099 -0.2297 -0.0177  0.2911
 1589TIP3    H126258   0.385   0.400   0.089  1.1803 -1.8873  0.6934
 1589TIP3    H226259   0.274   0.333   0.010  0.5849 -0.1341  0.0060
 1590TIP3   OH226260   3.414   4.339   0.255  0.2874 -0.0447 -0.7131
 1590TIP3    H126261   3.328   4.301   0.270 -0.3621  1.6059  0.0597
 1590TIP3    H226262   3.476   4.272   0.285 -0.8198  0.0130  2.0097
 1591TIP3   OH226263   5.118   1.367  13.036 -0.2065  0.0398 -0.2028
 1591TIP3    H126264   5.121   1.462  13.049 -0.0289  0.1192 -0.7997
 1591TIP3    H226265   5.187   1.333  13.092 -0.1450  0.2820 -0.1298
 1592TIP3   OH226266   1.929   5.047   3.090  0.1375  0.1834 -0.6811
 1592TIP3    H126267   1.964   4.978   3.146  0.0845  0.9699  0.3681
 1592TIP3    H226268   1.840   5.019   3.070  0.2160 -0.1966 -0.5133
 1593TIP3   OH226269   3.506   0.523   0.413  0.7459 -0.3001 -0.5335
 1593TIP3    H126270   3.501   0.434   0.448  0.7371  0.4910  1.6570
 1593TIP3    H226271   3.589   0.557   0.446 -0.8382  1.6478  1.7622
 1594TIP3   OH226272   2.644   6.316  10.875 -0.0518 -0.4350  0.1684
 1594TIP3    H126273   2.708   6.301  10.805 -0.1184  1.2590 -0.2846
 1594TIP3    H226274   2.559   6.309  10.832 -0.0914  0.7317  0.0282
 1595TIP3   OH226275   1.321   6.389   1.018 -0.1823 -0.3513 -0.1706
 1595TIP3    H126276   1.300   6.473   1.059  0.3698 -0.8900  1.2959
 1595TIP3    H226277   1.249   6.332   1.042 -1.2000 -0.0047 -2.2318
 1596TIP3   OH226278   2.058   4.118  11.160  0.1050  0.4365 -0.2543
 1596TIP3    H126279   2.122   4.180  11.124  1.6962 -0.8684  0.2086
 1596TIP3    H226280   1.980   4.130  11.107  0.7997  1.9434 -0.9807
 1597TIP3   OH226281   1.298   6.526   0.418 -0.2070  0.2601  0.1219
 1597TIP3    H126282   1.208   6.531   0.452  0.0255  0.4522  0.7112
 1597TIP3    H226283   1.354   6.543   0.493  0.4179 -2.1453  0.2628
 1598TIP3   OH226284   0.434   3.129   2.195  0.0511 -0.5270  0.3850
 1598TIP3    H126285   0.520   3.130   2.154  0.0185  0.6572  0.3139
 1598TIP3    H226286   0.453   3.130   2.289  0.1239  0.1444  0.3680
 1599TIP3   OH226287   2.841   3.187   4.279 -0.3147  0.2893 -0.0097
 1599TIP3    H126288   2.918   3.178   4.336 -0.7467 -1.4388  0.3548
 1599TIP3    H226289   2.878   3.212   4.194  0.5205  0.8047  0.4845
 1600TIP3   OH226290   1.581   5.903  15.866 -0.5244 -0.1828 -0.2042
 1600TIP3    H126291   1.578   5.999  15.872  0.1453 -0.2267  2.6823
 1600TIP3    H226292   1.490   5.876  15.880 -0.5678  0.0334 -0.0518
 1601TIP3   OH226293   0.036   1.002  12.472 -0.1307  0.1484  0.3551
 1601TIP3    H126294   0.048   1.097  12.477 -1.9015  0.4278  0.0440
 1601TIP3    H226295  -0.008   0.979  12.554  0.9644 -0.5435  0.7702
 1602TIP3   OH226296   2.596   4.957   3.369  0.1520 -0.2723 -0.4397
 1602TIP3    H126297   2.670   4.897   3.358 -0.6584 -1.2187 -0.9390
 1602TIP3    H226298   2.557   4.964   3.281  1.6235  2.9220 -0.9495
 1603TIP3   OH226299   5.707   1.981  13.831 -0.2104  0.6515 -0.4667
 1603TIP3    H126300   5.675   2.007  13.745 -1.9228 -0.4202 -0.2056
 1603TIP3    H226301   5.735   1.890  13.820 -1.6339  0.0759  0.3520
 1604TIP3   OH226302   2.734   0.388  12.574  0.0526  0.2359 -0.3671
 1604TIP3    H126303   2.664   0.408  12.513 -0.8626 -0.3095  0.4890
 1604TIP3    H226304   2.723   0.451  12.645 -1.3968 -1.6476  1.1918
 1605TIP3   OH226305   5.766   5.882  15.312  0.0565  0.5430  0.5420
 1605TIP3    H126306   5.702   5.819  15.280  0.3729  1.0129 -1.1360
 1605TIP3    H226307   5.851   5.843  15.291  0.2564  1.4534 -0.4239
 1606TIP3   OH226308   5.001   4.956   6.255 -0.0440  0.2420 -0.5360
 1606TIP3    H126309   5.053   4.924   6.181 -1.7031 -0.9406 -1.2279
 1606TIP3    H226310   5.027   4.901   6.329  0.3291  0.2598 -0.6521
 1607TIP3   OH226311   6.815   6.712   4.794  0.0899 -0.4402 -0.1971
 1607TIP3    H126312   6.834   6.646   4.727 -1.1397  0.4547 -1.4875
 1607TIP3    H226313   6.721   6.726   4.787  0.2048  0.8699  0.6014
 1608TIP3   OH226314   3.512   6.755   4.670 -0.1958 -0.1303  1.1308
 1608TIP3    H126315   3.474   6.670   4.648  0.5620  0.1002 -1.4339
 1608TIP3    H226316   3.438   6.815   4.673 -0.4939 -0.4679  0.6229
 1609TIP3   OH226317   0.068   0.324   1.919  0.5109  0.2098  0.0521
 1609TIP3    H126318   0.057   0.369   2.003 -0.5378  0.0073  0.0339
 1609TIP3    H226319   0.141   0.370   1.877  0.1152  1.2424  0.4566
 1610TIP3   OH226320   2.813   0.610  14.584  0.1164 -0.0436  0.0604
 1610TIP3    H126321   2.800   0.519  14.610  0.1095 -0.1271 -0.2359
 1610TIP3    H226322   2.891   0.638  14.632  0.3138 -0.3063 -0.1077
 1611TIP3   OH226323   1.207   3.092  13.416  0.0871  0.1007  0.0138
 1611TIP3    H126324   1.262   3.015  13.402  0.6981  0.3264  1.0725
 1611TIP3    H226325   1.267   3.166  13.406 -0.3012  0.4070 -0.0615
 1612TIP3   OH226326   6.373   2.497  14.487  0.6637  0.1009 -0.3978
 1612TIP3    H126327   6.326   2.554  14.426 -1.8376 -0.9924  0.3523
 1612TIP3    H226328   6.347   2.408  14.461  1.1654 -0.4845  0.9962
 1613TIP3   OH226329   6.027   4.118   1.184 -0.0708  0.1406  0.4123
 1613TIP3    H126330   6.005   4.028   1.160  1.4246  0.2370 -1.5869
 1613TIP3    H226331   6.079   4.109   1.264 -0.4367 -0.7061  0.5696
 1614TIP3   OH226332   0.094   3.783  12.966 -0.3104 -0.2517  0.3578
 1614TIP3    H126333   0.155   3.777  12.893 -0.6601  2.2629 -0.2519
 1614TIP3    H226334   0.008   3.767  12.926 -0.5585  1.6613  0.0456
 1615TIP3   OH226335   6.229   6.252  16.445 -0.0153 -0.8622  0.0680
 1615TIP3    H126336   6.135   6.258  16.426  0.0090 -1.4247 -0.2845
 1615TIP3    H226337   6.262   6.193  16.377  0.2810 -2.0729  1.2167
 1616TIP3   OH226338   5.883   2.885   0.349  0.4035  0.0350 -0.1120
 1616TIP3    H126339   5.858   2.940   0.422  0.1221 -0.8706  0.4965
 1616TIP3    H226340   5.923   2.807   0.389 -0.1918 -0.6941 -0.8847
 1617TIP3   OH226341   2.364   2.427  12.247  0.3424  0.1371 -0.0880
 1617TIP3    H126342   2.441   2.376  12.224 -0.3877 -1.0086 -0.0394
 1617TIP3    H226343   2.381   2.459  12.335  0.2391 -1.1496  0.4077
 1618TIP3   OH226344   2.587   1.747   4.414  0.2938 -0.1686  0.0086
 1618TIP3    H126345   2.627   1.810   4.355 -1.3344 -0.4742 -1.5158
 1618TIP3    H226346   2.544   1.800   4.481  1.2662  0.2082  0.3606
 1619TIP3   OH226347   5.556   5.289   5.334 -0.2008 -0.1801 -0.5238
 1619TIP3    H126348   5.525   5.204   5.366 -0.1235  0.2327  0.7097
 1619TIP3    H226349   5.476   5.339   5.317 -0.2450  0.1322  0.5523
 1620TIP3   OH226350   0.967   6.316   0.358 -0.1555  0.5427 -0.1562
 1620TIP3    H126351   0.933   6.296   0.271 -1.3391  0.2859  0.3466
 1620TIP3    H226352   1.043   6.259   0.368  0.6082  1.3000 -1.3985
 1621TIP3   OH226353   1.250   6.271  15.936 -0.2492 -0.4558  0.1899
 1621TIP3    H126354   1.265   6.366  15.939  1.5991 -0.6866 -0.3293
 1621TIP3    H226355   1.332   6.236  15.900 -1.0850 -2.2110 -0.0565
 1622TIP3   OH226356   1.083   1.649   1.419  0.4148 -0.2665 -0.2426
 1622TIP3    H126357   1.104   1.699   1.340  2.5572 -0.6507  0.0306
 1622TIP3    H226358   1.013   1.699   1.461  0.1615  0.6584 -1.6946
 1623TIP3   OH226359   5.568   3.787  13.983 -0.1452 -0.3561  0.3182
 1623TIP3    H126360   5.636   3.750  13.927 -1.6569 -0.2877 -1.6627
 1623TIP3    H226361   5.493   3.730  13.972 -1.2119  0.9593  0.4474
 1624TIP3   OH226362   5.513   2.173   5.240  0.2591  0.2526  0.2968
 1624TIP3    H126363   5.482   2.096   5.192  1.2150 -0.3387  0.6196
 1624TIP3    H226364   5.441   2.193   5.301 -0.1709 -0.1244 -0.0773
 1625TIP3   OH226365   3.683   5.934  14.475 -0.6681 -0.4582  0.2400
 1625TIP3    H126366   3.608   5.993  14.481 -0.7178 -0.2064 -1.9867
 1625TIP3    H226367   3.701   5.928  14.381  1.4984 -1.2831  0.6517
 1626TIP3   OH226368   0.229   6.033  16.658 -0.7061  0.3105  0.3123
 1626TIP3    H126369   0.265   6.122  16.670  2.4817 -0.8343  0.2947
 1626TIP3    H226370   0.297   5.986  16.610 -2.2566 -2.1929  0.3884
 1627TIP3   OH226371   1.990   0.550  11.560  0.2961  0.5739  0.3201
 1627TIP3    H126372   1.907   0.560  11.515 -0.1509  1.0135  1.2192
 1627TIP3    H226373   1.983   0.466  11.606  0.4092  0.5368  0.2700
 1628TIP3   OH226374   0.199   0.418   6.751  0.1485  0.1390  0.8329
 1628TIP3    H126375   0.128   0.356   6.770 -0.0824  0.0864 -0.1215
 1628TIP3    H226376   0.276   0.362   6.739  0.1189  0.1036  0.8050
 1629TIP3   OH226377   2.181   2.099  15.924 -0.2268 -0.5249 -0.0745
 1629TIP3    H126378   2.259   2.145  15.955 -0.6456 -0.1402  0.4206
 1629TIP3    H226379   2.133   2.165  15.873 -1.2601 -0.1344  1.3563
 1630TIP3   OH226380   6.176   1.669   4.532  0.1561  0.2184  0.9971
 1630TIP3    H126381   6.178   1.632   4.620 -0.4391  0.5155  1.1443
 1630TIP3    H226382   6.206   1.597   4.475 -0.3447 -0.2832  1.3498
 1631TIP3   OH226383   6.548   4.565   1.558  0.2011  0.5061  0.7783
 1631TIP3    H126384   6.555   4.611   1.642  0.1631 -0.2554  1.2099
 1631TIP3    H226385   6.455   4.543   1.550  0.1595  0.8107  0.4071
 1632TIP3   OH226386   5.724   4.704  11.601 -0.0693 -0.1001 -0.0144
 1632TIP3    H126387   5.694   4.625  11.646  1.6679 -1.5170 -1.2236
 1632TIP3    H226388   5.812   4.683  11.570 -0.0060  1.8966 -1.4245
 1633TIP3   OH226389   2.049   3.286   3.338  0.4830  0.4137 -0.2373
 1633TIP3    H126390   2.040   3.193   3.360  0.5774  0.4238 -0.1562
 1633TIP3    H226391   2.024   3.332   3.418  1.3241  0.4414  0.0148
 1634TIP3   OH226392   6.592   4.451  16.906 -0.4672  0.1898  0.6324
 1634TIP3    H126393   6.546   4.367  16.899 -0.9659  0.4560  0.6991
 1634TIP3    H226394   6.525   4.517  16.890 -0.3769  0.6192  1.8662
 1635TIP3   OH226395   5.590   4.567  14.829 -0.0977 -0.1801  0.2768
 1635TIP3    H126396   5.554   4.521  14.905 -2.3357  1.3830  0.2511
 1635TIP3    H226397   5.649   4.503  14.788 -0.8199 -1.9532  1.8609
 1636TIP3   OH226398   4.921   3.997  16.701 -0.3588 -0.3756  0.1292
 1636TIP3    H126399   4.982   4.026  16.769  0.5984 -3.1494  0.5896
 1636TIP3    H226400   4.837   3.990  16.746 -0.1185 -0.5174  0.5634
 1637TIP3   OH226401   2.855   1.633   5.329  0.4887 -0.2034 -0.4026
 1637TIP3    H126402   2.909   1.660   5.403 -1.7984  1.4052  0.7892
 1637TIP3    H226403   2.802   1.710   5.307 -0.5711 -1.3514 -2.1854
 1638TIP3   OH226404   4.293   4.874   2.740  0.4974  0.3029  0.3559
 1638TIP3    H126405   4.335   4.945   2.691  1.1252  0.7145  1.4584
 1638TIP3    H226406   4.300   4.798   2.682  1.5346  0.6981 -0.0642
 1639TIP3   OH226407   0.678   2.985   0.243 -0.0880  0.1992  0.5138
 1639TIP3    H126408   0.662   3.020   0.331  2.7536 -2.2855  2.1958
 1639TIP3    H226409   0.773   2.990   0.232 -0.3082 -0.1978 -2.1808
 1640TIP3   OH226410   5.200   5.233   0.615  0.3975  0.6783  0.3611
 1640TIP3    H126411   5.150   5.315   0.609 -0.0358  0.3027 -1.7937
 1640TIP3    H226412   5.288   5.256   0.584 -0.8259 -0.4342 -4.9087
 1641TIP3   OH226413   4.753   3.090  10.730 -0.0130  0.0922  0.0540
 1641TIP3    H126414   4.753   3.017  10.792  0.7191  0.5262  0.5724
 1641TIP3    H226415   4.805   3.158  10.772 -0.0129  0.6234 -0.7778
 1642TIP3   OH226416   6.468   6.762  16.521 -0.1625 -0.3731  0.1274
 1642TIP3    H126417   6.444   6.671  16.506 -0.6949 -0.0051 -1.4211
 1642TIP3    H226418   6.386   6.805  16.547 -0.0860 -0.1619  0.0235
 1643TIP3   OH226419   6.584   1.595   0.874  0.2587  0.1061 -0.3167
 1643TIP3    H126420   6.499   1.631   0.896 -0.8408 -2.3678 -0.2259
 1643TIP3    H226421   6.627   1.665   0.824 -1.7113  1.4866 -0.1995
 1644TIP3   OH226422   0.574   2.181  11.720  0.3763 -0.4333  0.3298
 1644TIP3    H126423   0.618   2.099  11.698 -0.1047 -0.1521 -2.0005
 1644TIP3    H226424   0.523   2.202  11.642 -1.4271  0.8556  1.7672
 1645TIP3   OH226425   2.442   1.954   0.941 -0.3957  0.6866 -0.4445
 1645TIP3    H126426   2.384   1.975   0.868  0.5748  0.1738 -1.3993
 1645TIP3    H226427   2.530   1.954   0.903  0.0560 -0.5390  0.5066
 1646TIP3   OH226428   5.745   3.251  12.616 -0.1058  0.1433  0.0293
 1646TIP3    H126429   5.770   3.270  12.706  1.4683  0.8162 -0.5094
 1646TIP3    H226430   5.727   3.336  12.577  1.2956  0.1002 -0.8237
 1647TIP3   OH226431   3.558   3.518  11.052  0.3417 -0.2219  0.0243
 1647TIP3    H126432   3.539   3.449  11.115  1.0691  0.9075  1.5299
 1647TIP3    H226433   3.611   3.582  11.100  1.1686  0.5597 -1.8014
 1648TIP3   OH226434   4.715   1.446  11.231  0.1975  0.5917 -0.6826
 1648TIP3    H126435   4.804   1.435  11.265  0.1930  1.7140 -0.2750
 1648TIP3    H226436   4.724   1.503  11.155  0.2403 -2.1279 -2.8743
 1649TIP3   OH226437   0.224   0.904   1.609 -0.0674 -0.1906  0.2915
 1649TIP3    H126438   0.223   0.810   1.627 -0.5185 -0.1414  0.5526
 1649TIP3    H226439   0.137   0.923   1.574 -0.1520  0.2142  0.7094
 1650TIP3   OH226440   0.023   4.952   4.213  0.7451  0.7392 -0.6319
 1650TIP3    H126441   0.062   4.969   4.128  1.0176  0.9190 -0.4743
 1650TIP3    H226442   0.006   4.858   4.214 -0.3543  0.9196 -1.3356
 1651TIP3   OH226443   4.137   5.789  15.832  0.2719 -0.4078 -0.1169
 1651TIP3    H126444   4.088   5.756  15.757  1.6148  0.0403 -1.2397
 1651TIP3    H226445   4.097   5.747  15.908 -1.1909 -0.7994 -1.0670
 1652TIP3   OH226446   5.426   3.721   4.215  0.1916  0.3425  0.3200
 1652TIP3    H126447   5.405   3.790   4.279  0.3800  0.0275  0.7270
 1652TIP3    H226448   5.343   3.676   4.201  0.2067  0.2373  0.5566
 1653TIP3   OH226449   0.814   5.414  10.452 -0.4778 -0.0388 -0.5419
 1653TIP3    H126450   0.832   5.389  10.362 -1.2508 -0.7841 -0.5019
 1653TIP3    H226451   0.884   5.373  10.503  1.6706  2.7103 -1.0330
 1654TIP3   OH226452   3.237   3.866  15.260 -0.3107 -0.0863  0.4312
 1654TIP3    H126453   3.315   3.812  15.250 -0.5073 -0.3625  0.3989
 1654TIP3    H226454   3.166   3.804  15.271 -0.8740  0.0820 -1.8087
 1655TIP3   OH226455   4.343   1.871   1.030  0.0734 -0.1855 -0.1501
 1655TIP3    H126456   4.265   1.918   1.000  0.2278  0.0608 -0.1759
 1655TIP3    H226457   4.356   1.901   1.120 -0.8897 -1.5814  0.4742
 1656TIP3   OH226458   3.565   5.086   5.288 -0.0983 -0.8935  0.0344
 1656TIP3    H126459   3.501   5.026   5.251 -0.3708 -0.1042 -0.7986
 1656TIP3    H226460   3.550   5.169   5.243  0.3165 -0.2122  1.1122
 1657TIP3   OH226461   5.842   5.250   0.124 -0.4099  0.0051 -0.0352
 1657TIP3    H126462   5.753   5.214   0.130 -0.4296  0.1199  0.4499
 1657TIP3    H226463   5.889   5.210   0.198  0.1978 -0.7359 -0.8061
 1658TIP3   OH226464   0.362   2.378   1.401  0.1339  0.5634 -0.1078
 1658TIP3    H126465   0.304   2.386   1.476 -0.5139 -0.7172 -0.4378
 1658TIP3    H226466   0.306   2.398   1.325  0.4496  0.5745 -0.3421
 1659TIP3   OH226467   1.386   0.024  16.812  0.1095 -0.3272 -0.2017
 1659TIP3    H126468   1.467   0.013  16.862 -0.7445  0.1278  1.3478
 1659TIP3    H226469   1.320   0.046  16.878 -0.9028  1.1385 -1.6425
 1660TIP3   OH226470   3.586   1.460   6.009 -0.1068  0.0990  0.6276
 1660TIP3    H126471   3.616   1.376   5.976  0.9977  0.2430  1.2319
 1660TIP3    H226472   3.618   1.524   5.945 -0.5041  0.1204  0.4417
 1661TIP3   OH226473   4.553   6.416  16.425 -0.0342  0.2208 -0.1796
 1661TIP3    H126474   4.560   6.376  16.511 -0.4699 -0.3468 -0.3975
 1661TIP3    H226475   4.613   6.490  16.427 -0.6374  0.6855  0.8663
 1662TIP3   OH226476   1.622   4.101  13.375  0.1799  0.2668  0.1836
 1662TIP3    H126477   1.675   4.175  13.404 -1.5747  1.3288  0.7984
 1662TIP3    H226478   1.535   4.137  13.360 -1.1925 -1.9326  2.1700
 1663TIP3   OH226479   0.847   2.272  15.784  0.0057  0.1884  0.4399
 1663TIP3    H126480   0.872   2.352  15.830  1.0332 -0.5160  1.1540
 1663TIP3    H226481   0.792   2.225  15.847 -0.7554  0.4015 -0.0498
 1664TIP3   OH226482   5.670   2.797  16.272  0.0812  0.4224  0.2620
 1664TIP3    H126483   5.607   2.730  16.244  1.3966  0.1367 -2.2366
 1664TIP3    H226484   5.698   2.839  16.191  1.4882  2.0415  1.5183
 1665TIP3   OH226485   3.803   0.273   0.077 -0.5422  0.1105 -0.8507
 1665TIP3    H126486   3.826   0.196   0.024 -2.5702 -1.5634  0.5427
 1665TIP3    H226487   3.770   0.337   0.013  2.3877  0.4438 -2.1931
 1666TIP3   OH226488   0.118   3.095   4.676  0.3092  0.6936 -0.1592
 1666TIP3    H126489   0.188   3.130   4.730  0.8735 -0.7816  0.1107
 1666TIP3    H226490   0.042   3.150   4.696  0.8599  1.0304  1.0879
 1667TIP3   OH226491   3.325   0.554  15.564 -0.1867 -0.1503  0.1297
 1667TIP3    H126492   3.300   0.623  15.625  1.4239  0.8763 -0.3024
 1667TIP3    H226493   3.246   0.501  15.553 -0.8188  0.2733  2.2252
 1668TIP3   OH226494   0.233   3.685  15.976  0.0956  0.2211 -0.0323
 1668TIP3    H126495   0.296   3.629  16.023 -1.5610 -2.0815 -0.3699
 1668TIP3    H226496   0.158   3.628  15.962 -1.9481  2.7571  0.0317
 1669TIP3   OH226497   1.955   1.132   2.994 -0.2257  0.0992 -0.1114
 1669TIP3    H126498   1.985   1.096   2.910  0.3502 -0.4280  0.3123
 1669TIP3    H226499   1.864   1.105   3.001 -0.3200  0.2702 -0.6340
 1670TIP3   OH226500   2.240   4.350   6.036  0.2517  0.2071  0.3232
 1670TIP3    H126501   2.319   4.403   6.045 -1.2363  2.5582  0.4352
 1670TIP3    H226502   2.226   4.312   6.123  1.0206  0.0779  0.4011
 1671TIP3   OH226503   0.894   0.621  14.826 -0.1364  0.2990  0.0836
 1671TIP3    H126504   0.915   0.529  14.835  0.0883  0.2089 -1.2158
 1671TIP3    H226505   0.809   0.631  14.871  1.0007  0.0157  2.4446
 1672TIP3   OH226506   3.085   3.549   3.657 -0.5052  0.5371 -0.7666
 1672TIP3    H126507   3.083   3.533   3.751  0.3803  1.5303 -0.5695
 1672TIP3    H226508   3.065   3.642   3.647  1.4234  0.9350 -1.4036
 1673TIP3   OH226509   6.057   0.239   5.904 -0.3897  0.2157  0.0915
 1673TIP3    H126510   6.052   0.212   5.996  0.9280  1.8063  0.6837
 1673TIP3    H226511   5.996   0.312   5.897 -0.5978  0.0011 -0.3376
 1674TIP3   OH226512   1.022   6.710  15.361 -0.6892 -0.2505 -0.3620
 1674TIP3    H126513   0.944   6.655  15.355  0.1302 -1.7799  1.8721
 1674TIP3    H226514   1.095   6.651  15.341  0.0790  0.4851  0.1935
 1675TIP3   OH226515   0.643   2.695   0.143 -0.4217  0.0105  0.0479
 1675TIP3    H126516   0.725   2.692   0.193  0.8917  0.4386 -1.9695
 1675TIP3    H226517   0.604   2.780   0.167  0.5464  0.5286 -0.1632
 1676TIP3   OH226518   6.249   0.126   2.837 -0.2309 -0.9223  0.4921
 1676TIP3    H126519   6.313   0.090   2.775  1.0039  0.7719  0.6850
 1676TIP3    H226520   6.268   0.083   2.920 -1.4848 -2.7496 -0.1206
 1677TIP3   OH226521   3.887   3.177   0.231  0.3763  0.1270  0.2165
 1677TIP3    H126522   3.791   3.167   0.236  0.2865  1.3435  1.5322
 1677TIP3    H226523   3.900   3.267   0.204  1.1685 -0.3390 -0.9958
 1678TIP3   OH226524   4.842   1.104   5.272  0.6658 -0.3727  0.1512
 1678TIP3    H126525   4.851   1.012   5.300  0.0855 -0.3884  0.3096
 1678TIP3    H226526   4.811   1.149   5.350 -4.0441 -0.9525 -1.0706
 1679TIP3   OH226527   0.919   5.175  14.335 -0.0078 -0.5372 -0.2705
 1679TIP3    H126528   0.999   5.124  14.318 -0.6291 -0.9546 -2.0954
 1679TIP3    H226529   0.871   5.123  14.399  1.1652 -0.2657  0.8876
 1680TIP3   OH226530   1.622   2.423  14.285 -0.3385  0.7579  0.0749
 1680TIP3    H126531   1.707   2.461  14.261 -0.5753  0.0185 -2.1449
 1680TIP3    H226532   1.562   2.455  14.218 -1.4093 -0.2400  0.5366
 1681TIP3   OH226533   0.262   3.041   2.008 -0.0816 -0.5790  0.6757
 1681TIP3    H126534   0.308   2.960   1.987  0.7961 -0.0589  0.5430
 1681TIP3    H226535   0.323   3.089   2.064 -0.6934 -0.1158  0.9524
 1682TIP3   OH226536   4.946   1.012  10.522 -0.3528  0.7128  0.0853
 1682TIP3    H126537   4.870   0.967  10.484  0.3362 -0.6283  0.2322
 1682TIP3    H226538   4.970   1.078  10.456 -1.1683  0.6258 -0.3107
 1683TIP3   OH226539   1.860   6.647  16.628  0.2173  0.5030  0.0094
 1683TIP3    H126540   1.783   6.702  16.612 -1.7037 -1.9502  0.3579
 1683TIP3    H226541   1.868   6.594  16.549 -1.0666 -2.1422  1.5125
 1684TIP3   OH226542   3.165   5.645   4.059 -0.1310  0.1859  0.2895
 1684TIP3    H126543   3.099   5.710   4.038  1.6255  1.5998 -1.3041
 1684TIP3    H226544   3.134   5.565   4.016 -1.6383  0.3010  1.1026
 1685TIP3   OH226545   4.051   0.269  11.856 -0.7731 -0.2239 -0.3415
 1685TIP3    H126546   4.048   0.261  11.760 -1.2495  0.8259 -0.4234
 1685TIP3    H226547   3.991   0.202  11.887 -0.4156 -0.7495 -0.7672
 1686TIP3   OH226548   5.449   1.292  10.295  0.1148  0.2863  0.2508
 1686TIP3    H126549   5.411   1.235  10.362  1.6203  0.1544  1.0547
 1686TIP3    H226550   5.536   1.313  10.329  1.3639 -0.6517 -2.1298
 1687TIP3   OH226551   0.156   0.112  16.556 -0.0333 -0.3104 -0.7426
 1687TIP3    H126552   0.130   0.202  16.575  2.8632  0.2053  1.5344
 1687TIP3    H226553   0.088   0.079  16.498 -2.0524  2.8119 -0.3846
 1688TIP3   OH226554   1.876   4.506  14.134 -0.2643  0.0584 -0.3017
 1688TIP3    H126555   1.892   4.536  14.223 -0.8102 -1.7833  0.4650
 1688TIP3    H226556   1.782   4.489  14.131 -0.1837 -0.2784 -1.1049
 1689TIP3   OH226557   1.300   5.815   2.967  0.6724  0.5655  0.9080
 1689TIP3    H126558   1.211   5.838   2.941  0.6986 -0.6462 -0.3547
 1689TIP3    H226559   1.350   5.896   2.952  0.1945  0.6285 -0.5181
 1690TIP3   OH226560   0.520   4.712   1.876  0.1685  0.4623 -0.1960
 1690TIP3    H126561   0.496   4.741   1.787 -0.1378  1.8592  0.3216
 1690TIP3    H226562   0.573   4.784   1.911 -1.1007  0.6866  1.3434
 1691TIP3   OH226563   5.455   5.556   3.443  0.5566 -0.1564 -0.5334
 1691TIP3    H126564   5.426   5.626   3.502 -2.1960 -1.1380 -0.5492
 1691TIP3    H226565   5.413   5.577   3.359 -0.4161 -1.8135 -0.5061
 1692TIP3   OH226566   2.062   4.584  11.722 -0.2482  0.4486 -0.0886
 1692TIP3    H126567   2.138   4.642  11.711 -0.3999  0.7490  0.3949
 1692TIP3    H226568   2.006   4.630  11.785 -1.8498  1.2628 -1.9967
 1693TIP3   OH226569   2.021   4.634   2.623  0.0484  0.7032 -0.3133
 1693TIP3    H126570   2.055   4.579   2.694 -0.4034  1.5539  0.5775
 1693TIP3    H226571   2.046   4.723   2.647 -2.2327  1.3086  0.0841
 1694TIP3   OH226572   6.226   5.629   1.443  0.1836 -0.3010 -0.1907
 1694TIP3    H126573   6.270   5.666   1.520  0.2264 -0.4929 -0.1224
 1694TIP3    H226574   6.254   5.685   1.371 -1.3983  1.0956  0.2242
 1695TIP3   OH226575   4.223   2.886  14.567 -0.1049 -0.3408 -0.1552
 1695TIP3    H126576   4.133   2.887  14.534  0.0726 -1.7299 -0.7452
 1695TIP3    H226577   4.277   2.880  14.489  0.5155  0.4107  0.2021
 1696TIP3   OH226578   0.390   5.200   0.245  0.1891 -0.5443 -0.0034
 1696TIP3    H126579   0.419   5.264   0.181 -1.6891 -0.1573 -0.5404
 1696TIP3    H226580   0.331   5.143   0.197 -0.0375 -1.2067  1.0232
 1697TIP3   OH226581   3.777   0.292  16.373  0.6223  0.1206 -0.5976
 1697TIP3    H126582   3.687   0.288  16.404  1.1504 -0.9297  0.8739
 1697TIP3    H226583   3.785   0.379  16.334 -0.5335  0.8804  0.7958
 1698TIP3   OH226584   6.408   1.255   2.996  0.0004  0.4546 -0.2670
 1698TIP3    H126585   6.467   1.324   2.966  1.1953  0.6643  2.3411
 1698TIP3    H226586   6.446   1.174   2.961  1.5518  0.6532  0.8476
 1699TIP3   OH226587   5.433   3.566   4.654  0.1178 -0.5534 -0.1474
 1699TIP3    H126588   5.503   3.538   4.595  0.5357  0.2420 -0.0294
 1699TIP3    H226589   5.459   3.653   4.683 -1.7901  0.5339 -1.5060
 1700TIP3   OH226590   4.331   3.926   2.166  0.0826 -0.3805 -0.0927
 1700TIP3    H126591   4.276   3.952   2.240 -0.7837  0.6487 -1.0685
 1700TIP3    H226592   4.419   3.955   2.190 -0.1178 -0.4107  0.7027
 1701TIP3   OH226593   0.900   1.431   6.240  0.1610 -0.9165 -0.1398
 1701TIP3    H126594   0.986   1.469   6.259  0.4078 -1.8431  0.6895
 1701TIP3    H226595   0.919   1.344   6.207 -0.4790 -1.3751  0.6749
 1702TIP3   OH226596   6.252   5.867  16.236 -0.2180 -0.2085  0.3936
 1702TIP3    H126597   6.182   5.907  16.185 -0.2277 -1.4697 -0.6214
 1702TIP3    H226598   6.207   5.810  16.299 -0.1297 -0.7169  0.0026
 1703TIP3   OH226599   2.258   3.281  11.875 -0.0376 -0.6728 -0.0128
 1703TIP3    H126600   2.330   3.342  11.862 -0.7710  0.0290 -0.8888
 1703TIP3    H226601   2.273   3.244  11.962  2.4174 -1.9693 -0.8964
 1704TIP3   OH226602   4.014   2.390   1.353  0.1172  0.1375 -0.0747
 1704TIP3    H126603   4.067   2.432   1.285 -0.3789 -0.1439 -0.6430
 1704TIP3    H226604   3.950   2.338   1.305 -1.0502  0.9169  0.5680
 1705TIP3   OH226605   4.396   4.486   1.804 -0.1907 -0.4943 -0.2560
 1705TIP3    H126606   4.315   4.439   1.784  0.4297 -1.0921 -1.4374
 1705TIP3    H226607   4.417   4.533   1.723  0.5481 -0.1923  0.1019
 1706TIP3   OH226608   3.587   5.697  11.396  1.0286 -0.0198 -0.1703
 1706TIP3    H126609   3.544   5.687  11.481  1.0983  1.4523  0.0691
 1706TIP3    H226610   3.678   5.670  11.412  1.0638  0.3359  0.2578
 1707TIP3   OH226611   5.711   5.780  13.412  0.6745  0.0717  0.3646
 1707TIP3    H126612   5.770   5.723  13.363 -1.7098 -0.9285 -1.5332
 1707TIP3    H226613   5.659   5.824  13.345  0.1242  1.9048  1.9079
 1708TIP3   OH226614   6.165   2.970   2.913  0.1566  0.4870 -1.0288
 1708TIP3    H126615   6.236   2.964   2.849  0.4815  1.0248 -0.7321
 1708TIP3    H226616   6.141   3.063   2.913 -0.4586  0.3311 -1.0301
 1709TIP3   OH226617   2.524   2.980  11.034  0.2910 -0.5722 -0.2029
 1709TIP3    H126618   2.457   2.991  11.102 -0.2482  0.6479 -0.9041
 1709TIP3    H226619   2.607   2.990  11.081 -0.0090 -1.5708  0.5806
 1710TIP3   OH226620   2.342   1.296  13.502  0.5038 -0.1759  0.0487
 1710TIP3    H126621   2.251   1.314  13.526  0.4057  0.3952 -0.6935
 1710TIP3    H226622   2.364   1.215  13.549 -0.5457 -0.5964 -0.1431
 1711TIP3   OH226623   0.868   1.128  14.081 -0.1316  0.6535 -0.4819
 1711TIP3    H126624   0.812   1.192  14.125 -0.4016  0.7754 -0.9999
 1711TIP3    H226625   0.948   1.126  14.134  0.1590  1.9221 -0.8306
 1712TIP3   OH226626   4.581   1.601  12.003  0.1911  0.3982 -0.1018
 1712TIP3    H126627   4.497   1.647  11.995  0.5067  1.0300  0.1208
 1712TIP3    H226628   4.557   1.510  12.018 -0.4947  0.7707  1.2627
 1713TIP3   OH226629   1.967   3.106  15.115  0.6060  0.1183 -0.1369
 1713TIP3    H126630   2.024   3.125  15.040 -0.2354 -0.2652 -0.9015
 1713TIP3    H226631   1.898   3.172  15.110 -0.1679 -0.6907 -0.4901
 1714TIP3   OH226632   0.989   3.296  16.682 -0.6038  0.3180  0.0149
 1714TIP3    H126633   1.019   3.207  16.663 -0.5671  0.1372  0.8978
 1714TIP3    H226634   1.064   3.351  16.660 -0.7558  0.1772 -0.9077
 1715TIP3   OH226635   0.172   3.512  12.166 -0.0617 -0.2885 -0.2111
 1715TIP3    H126636   0.118   3.432  12.168 -1.1060  0.3386 -1.6447
 1715TIP3    H226637   0.218   3.507  12.082 -1.3681  1.3596 -1.0811
 1716TIP3   OH226638   2.472   4.247  14.749  0.3014 -0.4362 -0.0171
 1716TIP3    H126639   2.492   4.192  14.825  0.6302 -1.0142 -0.5178
 1716TIP3    H226640   2.510   4.332  14.772 -1.2799 -0.0274  1.2905
 1717TIP3   OH226641   0.157   6.331  11.234  0.0363  0.1621 -0.0845
 1717TIP3    H126642   0.221   6.326  11.164 -0.6859  0.0576 -0.7549
 1717TIP3    H226643   0.178   6.258  11.292  2.8968  2.2917  1.8241
 1718TIP3   OH226644   1.335   0.423  16.583 -0.3368 -0.7839  0.4629
 1718TIP3    H126645   1.302   0.338  16.554  0.6598 -0.1011 -3.3422
 1718TIP3    H226646   1.418   0.434  16.535  0.6185  1.4804  2.4166
 1719TIP3   OH226647   6.199   1.323  15.833 -0.0364  0.4277  0.0150
 1719TIP3    H126648   6.277   1.304  15.781  0.1061 -0.7927  0.6278
 1719TIP3    H226649   6.218   1.285  15.919 -1.0042  0.7928  0.4085
 1720TIP3   OH226650   2.039   3.581  14.033 -0.3300 -0.2566 -0.1047
 1720TIP3    H126651   2.021   3.564  14.125  1.0699 -3.2202 -0.2467
 1720TIP3    H226652   1.979   3.523  13.986 -1.3967  1.6000 -1.1495
 1721TIP3   OH226653   2.792   4.649   1.282 -0.5599 -0.2055 -0.3033
 1721TIP3    H126654   2.711   4.683   1.320 -0.6500  0.5691 -1.1499
 1721TIP3    H226655   2.823   4.719   1.225  0.8136 -0.4230  0.1422
 1722TIP3   OH226656   4.140   6.219  16.108  0.0980  0.0995 -0.2348
 1722TIP3    H126657   4.070   6.282  16.123  0.1928  0.8671 -2.5267
 1722TIP3    H226658   4.104   6.158  16.044  0.7100 -0.9815  0.4185
 1723TIP3   OH226659   2.289   4.347  11.589 -0.1337  0.8080  0.2719
 1723TIP3    H126660   2.354   4.329  11.656 -0.9234  0.7901  1.0571
 1723TIP3    H226661   2.240   4.265  11.580 -2.5586  1.8745  2.5386
 1724TIP3   OH226662   4.188   0.290   3.329 -0.0499  0.1933 -0.6022
 1724TIP3    H126663   4.182   0.197   3.351 -1.4667  0.2225 -0.7682
 1724TIP3    H226664   4.280   0.304   3.308  0.6238 -0.6942  1.4787
 1725TIP3   OH226665   0.163   1.236   0.869  0.0209 -0.0550 -0.4441
 1725TIP3    H126666   0.183   1.279   0.952  1.4037 -1.8456  0.2316
 1725TIP3    H226667   0.221   1.279   0.805  0.0098  0.3572 -0.1792
 1726TIP3   OH226668   0.819   2.356  15.209 -0.0812 -0.0982  0.4738
 1726TIP3    H126669   0.800   2.350  15.116  1.5727  0.3809  0.0718
 1726TIP3    H226670   0.747   2.310  15.251 -1.1479  0.1518 -1.0019
 1727TIP3   OH226671   0.290   3.315   4.477 -0.3697 -0.0969  0.0244
 1727TIP3    H126672   0.384   3.317   4.493  0.0514 -0.0510 -2.1446
 1727TIP3    H226673   0.257   3.396   4.515  0.8737  1.0353 -1.1926
 1728TIP3   OH226674   1.267   2.647  16.677 -0.3765  0.2531  0.1502
 1728TIP3    H126675   1.360   2.639  16.695 -0.2971 -1.0565 -0.7399
 1728TIP3    H226676   1.225   2.580  16.730 -0.6840  0.0166 -0.3762
 1729TIP3   OH226677   0.697   5.917  12.407  0.2469  0.6630  0.0361
 1729TIP3    H126678   0.697   5.992  12.348  1.9868  0.7966  0.1492
 1729TIP3    H226679   0.640   5.943  12.479 -0.9630  0.9610 -0.9867
 1730TIP3   OH226680   6.581   0.749   0.711 -0.1009 -0.2024 -0.4671
 1730TIP3    H126681   6.606   0.776   0.623  2.1209 -0.1781  0.1127
 1730TIP3    H226682   6.620   0.815   0.769  1.2362 -1.8804  0.6727
 1731TIP3   OH226683   3.858   2.028  13.472 -0.2434 -0.6688 -0.0899
 1731TIP3    H126684   3.901   2.013  13.557  1.0582 -0.3627 -0.6732
 1731TIP3    H226685   3.930   2.034  13.410 -1.0283  1.4429 -0.8706
 1732TIP3   OH226686   3.113   5.806   6.024 -0.3100  0.1152 -0.3593
 1732TIP3    H126687   3.168   5.744   5.977 -2.8771 -1.3937 -1.6291
 1732TIP3    H226688   3.089   5.872   5.959  0.3686  1.0705  0.3241
 1733TIP3   OH226689   0.721   3.026  13.436  0.0649 -0.0144 -0.4784
 1733TIP3    H126690   0.672   3.090  13.489  0.1361  0.2922 -0.7815
 1733TIP3    H226691   0.813   3.044  13.456  0.1708  1.1431 -1.8771
 1734TIP3   OH226692   0.337   0.450  14.183  0.4938  0.0561 -0.5549
 1734TIP3    H126693   0.353   0.400  14.264  0.7213  1.7823  0.5242
 1734TIP3    H226694   0.246   0.431  14.161  0.7355 -1.2598 -0.5168
 1735TIP3   OH226695   1.080   0.760  14.691  0.2665 -0.3130  0.2887
 1735TIP3    H126696   1.021   0.689  14.716  0.8174 -0.8614  0.0487
 1735TIP3    H226697   1.091   0.751  14.596 -1.2694  1.3388 -0.1027
 1736TIP3   OH226698   0.438   6.452   1.655 -0.4205 -0.3415 -0.1221
 1736TIP3    H126699   0.507   6.437   1.590 -0.7382 -1.8541 -0.1606
 1736TIP3    H226700   0.464   6.398   1.729 -0.5099  0.7030  0.6893
 1737TIP3   OH226701   0.516   5.243  15.042  0.2604  0.0624 -0.2107
 1737TIP3    H126702   0.502   5.296  15.121 -2.0528 -1.0285  0.1646
 1737TIP3    H226703   0.449   5.273  14.981  0.9093 -0.3437 -1.1449
 1738TIP3   OH226704   1.679   5.520   6.476  0.1501  0.1477  0.0009
 1738TIP3    H126705   1.758   5.486   6.433 -0.3678  0.0921 -0.9230
 1738TIP3    H226706   1.625   5.442   6.490  0.9628 -0.0908  2.2308
 1739TIP3   OH226707   0.081   0.431  14.146  0.0948  0.0756 -0.0590
 1739TIP3    H126708   0.038   0.464  14.225 -1.1434  0.6132 -0.9299
 1739TIP3    H226709   0.013   0.431  14.079  0.7666 -1.6864 -0.8056
 1740TIP3   OH226710   2.526   3.455  14.268  0.0250  0.4802  0.4923
 1740TIP3    H126711   2.542   3.533  14.322 -1.5736  0.7561  0.6128
 1740TIP3    H226712   2.560   3.382  14.321 -2.3515  0.6319  2.3710
 1741TIP3   OH226713   3.832   2.210   6.416 -0.0292 -0.2896 -0.1446
 1741TIP3    H126714   3.814   2.120   6.441 -1.3082  0.4191  1.8301
 1741TIP3    H226715   3.890   2.243   6.485  0.0257  0.5228 -0.5626
 1742TIP3   OH226716   1.278   6.042  10.918 -0.7784  0.4019  0.3754
 1742TIP3    H126717   1.234   6.016  10.837 -0.5351 -0.0701  0.3904
 1742TIP3    H226718   1.359   5.990  10.920 -1.0407  0.0035  1.1881
 1743TIP3   OH226719   4.564   4.722  13.326 -0.6280  0.1782  0.0504
 1743TIP3    H126720   4.519   4.793  13.370  0.3407 -0.0599  1.5090
 1743TIP3    H226721   4.553   4.740  13.233 -2.7333  0.7131  0.3619
 1744TIP3   OH226722   4.456   3.785   1.658 -0.1533 -0.1428  0.1334
 1744TIP3    H126723   4.492   3.796   1.746 -0.2728 -0.5285  0.2326
 1744TIP3    H226724   4.373   3.738   1.672 -0.5447  0.4584 -0.1193
 1745TIP3   OH226725   2.493   1.089   1.190  0.1325  0.2315 -0.5649
 1745TIP3    H126726   2.489   1.184   1.180  1.0282  0.0652 -3.2634
 1745TIP3    H226727   2.541   1.058   1.114 -0.8861 -2.4834 -0.2377
 1746TIP3   OH226728   5.322   0.460  12.527 -0.2403  0.3022 -0.3764
 1746TIP3    H126729   5.412   0.428  12.530  0.5928  2.5240  1.2719
 1746TIP3    H226730   5.273   0.400  12.582  0.2943 -0.7255 -0.9996
 1747TIP3   OH226731   5.025   0.700   4.283 -0.5963  0.1388  0.3189
 1747TIP3    H126732   5.036   0.615   4.327  0.4466  0.1018  0.0149
 1747TIP3    H226733   5.092   0.756   4.323  0.2482  0.1572 -1.0848
 1748TIP3   OH226734   1.298   4.546  15.917  0.3363 -0.4517  0.0104
 1748TIP3    H126735   1.344   4.491  15.854  2.0575  1.2053 -0.2899
 1748TIP3    H226736   1.326   4.512  16.002 -1.1526 -2.0145 -0.0766
 1749TIP3   OH226737   3.811   1.833   0.336 -0.1302 -0.5266  0.4612
 1749TIP3    H126738   3.818   1.865   0.246 -0.0748 -2.8143 -0.4340
 1749TIP3    H226739   3.876   1.883   0.385  1.3883 -0.6935 -1.2656
 1750TIP3   OH226740   3.215   1.128   3.547  0.4106  0.3184 -0.3581
 1750TIP3    H126741   3.289   1.088   3.501  0.3643  0.1290 -0.2706
 1750TIP3    H226742   3.174   1.185   3.482  0.6168  0.4025 -0.4144
 1751TIP3   OH226743   6.454   6.332  15.021 -0.3661  0.1791 -0.1950
 1751TIP3    H126744   6.453   6.273  15.096 -3.5865  1.0068  0.5511
 1751TIP3    H226745   6.455   6.420  15.059  0.2663  0.6302 -1.1998
 1752TIP3   OH226746   0.676   0.331   0.411 -0.2284 -0.0798  0.3277
 1752TIP3    H126747   0.729   0.344   0.490  1.2400 -1.1215 -0.4245
 1752TIP3    H226748   0.684   0.413   0.362  1.0762 -0.3613  0.0332
 1753TIP3   OH226749   0.750   1.917   1.973 -0.0577 -0.3729 -0.3716
 1753TIP3    H126750   0.763   1.848   2.038 -0.3152  0.2719  0.3748
 1753TIP3    H226751   0.666   1.897   1.932 -0.4752 -0.0915  0.3503
 1754TIP3   OH226752   3.724   5.471   4.530 -0.4793  0.1967 -0.0426
 1754TIP3    H126753   3.727   5.498   4.622 -0.5587  1.1395 -0.3054
 1754TIP3    H226754   3.764   5.543   4.483 -3.8657  1.5663 -1.1378
 1755TIP3   OH226755   1.144   1.146  12.288 -0.0518  0.0649  0.2793
 1755TIP3    H126756   1.198   1.098  12.351 -1.0119 -0.9456  0.3662
 1755TIP3    H226757   1.194   1.146  12.207  0.2249 -0.5770  0.4452
 1756TIP3   OH226758   6.673   3.488   6.169  0.1111 -0.0056  0.3217
 1756TIP3    H126759   6.720   3.567   6.143  0.8070 -0.6646 -0.5149
 1756TIP3    H226760   6.611   3.517   6.236 -1.3485  1.6739 -1.6589
 1757TIP3   OH226761   1.333   3.737  11.060 -0.3483 -0.8635  0.9508
 1757TIP3    H126762   1.400   3.762  11.123  0.4830 -0.4811 -0.0664
 1757TIP3    H226763   1.367   3.658  11.019  0.7141  0.7037 -1.3520
 1758TIP3   OH226764   5.704   1.525   4.941 -0.1340 -0.6274 -0.1144
 1758TIP3    H126765   5.711   1.605   4.889 -1.0585  0.1606  0.8976
 1758TIP3    H226766   5.790   1.515   4.982  0.2268 -0.5933 -0.8498
 1759TIP3   OH226767   5.523   0.740   4.889  0.2318  0.0050  0.1141
 1759TIP3    H126768   5.599   0.765   4.837  0.8091 -2.8570 -0.5706
 1759TIP3    H226769   5.560   0.700   4.968 -0.4961 -1.7047 -0.3711
 1760TIP3   OH226770   4.750   3.840  13.279 -0.5221 -0.3908 -0.1286
 1760TIP3    H126771   4.761   3.902  13.352  0.3492  0.8282 -1.2563
 1760TIP3    H226772   4.671   3.871  13.233  1.7687  2.1696 -2.7365
 1761TIP3   OH226773   4.424   0.306  12.859  0.2660  0.2459  0.0443
 1761TIP3    H126774   4.420   0.212  12.875 -2.1489  0.5724  1.9167
 1761TIP3    H226775   4.335   0.331  12.834  0.8895  2.0291 -0.5861
 1762TIP3   OH226776   6.210   3.071   3.520  0.5043 -0.3825  0.3734
 1762TIP3    H126777   6.204   3.003   3.454  0.3894  0.4179 -0.4529
 1762TIP3    H226778   6.120   3.081   3.552  0.7122 -1.4459  1.3777
 1763TIP3   OH226779   6.285   4.411   1.086  0.6117  0.0179 -0.1392
 1763TIP3    H126780   6.257   4.458   1.165 -0.0790  0.3605 -0.5787
 1763TIP3    H226781   6.380   4.400   1.098  0.4913 -0.1131  0.8263
 1764TIP3   OH226782   4.232   1.568  11.717  0.0256  0.1916 -0.5130
 1764TIP3    H126783   4.234   1.662  11.699  0.1793  0.0168 -1.4632
 1764TIP3    H226784   4.322   1.539  11.701 -0.3937 -0.4104 -1.9496
 1765TIP3   OH226785   4.181   1.743  15.330  0.3090 -0.1493 -0.2646
 1765TIP3    H126786   4.133   1.741  15.413  1.3011  1.3800  0.4073
 1765TIP3    H226787   4.272   1.723  15.354  0.8145  1.3514 -0.7539
 1766TIP3   OH226788   4.065   3.323   2.024 -0.3345 -0.0719  0.2533
 1766TIP3    H126789   4.070   3.241   2.074 -1.8637 -1.0119 -1.0824
 1766TIP3    H226790   3.988   3.368   2.059 -0.5011 -0.0041 -0.1981
 1767TIP3   OH226791   2.023   1.159  13.196  0.0081  0.2738  0.3770
 1767TIP3    H126792   2.112   1.139  13.225  0.5848  1.1017 -0.7260
 1767TIP3    H226793   1.975   1.077  13.205  1.1439 -0.4464  0.0654
 1768TIP3   OH226794   4.230   2.934  11.775  0.2131  0.7921  0.1978
 1768TIP3    H126795   4.214   3.025  11.749 -0.3047  1.0901  1.4320
 1768TIP3    H226796   4.325   2.927  11.784  0.3625  0.8027 -1.2414
 1769TIP3   OH226797   5.962   6.263   6.794 -0.3056  0.0602 -0.4961
 1769TIP3    H126798   5.990   6.325   6.861  1.1008 -1.7215  0.6571
 1769TIP3    H226799   5.870   6.245   6.816 -0.5156  1.1273 -0.4114
 1770TIP3   OH226800   2.541   6.651  12.516  0.6068 -0.3492  0.1640
 1770TIP3    H126801   2.584   6.720  12.566  1.7032  0.9558 -2.3578
 1770TIP3    H226802   2.452   6.683  12.501  1.2995  0.9683 -1.5608
 1771TIP3   OH226803   3.321   1.098   0.880  0.2500 -0.0614 -0.2832
 1771TIP3    H126804   3.381   1.042   0.929 -0.0395  0.3617  0.5713
 1771TIP3    H226805   3.377   1.168   0.846  0.3147  0.0811  0.1183
 1772TIP3   OH226806   3.260   2.873  14.355  0.1474  0.0260  0.4201
 1772TIP3    H126807   3.261   2.779  14.374  1.6543 -0.0943 -0.0947
 1772TIP3    H226808   3.262   2.878  14.259 -0.6601  0.5978  0.4204
 1773TIP3   OH226809   2.373   4.050  15.691 -0.2288  0.5911  0.2691
 1773TIP3    H126810   2.302   3.991  15.717  1.4314 -0.6102  2.4110
 1773TIP3    H226811   2.446   3.991  15.672  0.2022  1.7759 -2.1986
 1774TIP3   OH226812   6.580   0.910   5.216  0.1234  0.1666  0.6681
 1774TIP3    H126813   6.535   0.928   5.134  0.9530  0.0252  0.1767
 1774TIP3    H226814   6.528   0.840   5.257 -1.2730  1.3940  1.0909
 1775TIP3   OH226815   0.680   0.729  15.684 -0.3734  0.4361  0.2277
 1775TIP3    H126816   0.714   0.645  15.716 -0.6836  0.5521  0.8656
 1775TIP3    H226817   0.717   0.737  15.596 -1.0599 -0.7895 -0.2003
 1776TIP3   OH226818   6.028   5.465  15.897  0.2723  0.2799  0.2300
 1776TIP3    H126819   6.064   5.387  15.938  0.6387  0.9952  1.3144
 1776TIP3    H226820   6.021   5.443  15.804  0.6450 -0.9271  0.4783
 1777TIP3   OH226821   4.780   1.498  14.624  0.6362 -0.1129  0.3792
 1777TIP3    H126822   4.743   1.417  14.661 -0.3545 -0.3433 -1.0360
 1777TIP3    H226823   4.703   1.550  14.600  1.2391  0.2025 -0.9560
 1778TIP3   OH226824   2.122   6.458  12.579  0.1323  0.5841 -0.2789
 1778TIP3    H126825   2.069   6.477  12.657 -0.2180 -2.9712  0.5424
 1778TIP3    H226826   2.059   6.424  12.516  0.6565  1.9463 -1.5699
 1779TIP3   OH226827   2.282   0.439   2.746 -0.5913 -0.4096  0.2565
 1779TIP3    H126828   2.245   0.456   2.659 -1.6314 -0.9242  0.5931
 1779TIP3    H226829   2.334   0.360   2.734  0.7600  0.5226 -0.3027
 1780TIP3   OH226830   2.403   1.357   1.163  0.3285  0.4145  0.0448
 1780TIP3    H126831   2.314   1.336   1.190  0.4042 -0.4899 -0.3606
 1780TIP3    H226832   2.418   1.446   1.194 -1.1665  1.0627 -0.9835
 1781TIP3   OH226833   2.663   4.866  15.310 -0.1794 -0.5405  0.1445
 1781TIP3    H126834   2.717   4.795  15.275 -0.9130 -1.2114  0.3680
 1781TIP3    H226835   2.576   4.828  15.320 -0.4704  0.2507  0.7166
 1782TIP3   OH226836   2.352   1.885   0.099 -0.1771 -0.0242 -0.0600
 1782TIP3    H126837   2.438   1.876   0.140 -0.2472  0.8352  0.2867
 1782TIP3    H226838   2.371   1.921   0.012  0.0713 -2.8850 -1.3041
 1783TIP3   OH226839   2.043   4.391   5.311  0.5094  0.1394  0.0119
 1783TIP3    H126840   2.078   4.309   5.275 -1.4228 -0.9574  0.4413
 1783TIP3    H226841   2.061   4.456   5.244  2.0257 -0.6452 -0.3835
 1784TIP3   OH226842   2.160   3.030   1.232  0.9680 -0.1440 -0.4044
 1784TIP3    H126843   2.150   3.107   1.288  0.3183  0.2167 -0.9921
 1784TIP3    H226844   2.112   3.053   1.152  0.1400 -1.4377 -0.3038
 1785TIP3   OH226845   2.820   5.004   0.624 -0.2443  0.5448  0.1238
 1785TIP3    H126846   2.727   4.994   0.643 -0.0688 -0.7389  0.3615
 1785TIP3    H226847   2.841   4.932   0.564  1.4819 -1.8564  3.3398
 1786TIP3   OH226848   1.308   0.397  12.115 -0.2105  0.2995 -0.2979
 1786TIP3    H126849   1.348   0.447  12.186 -0.6987  0.1313  0.1038
 1786TIP3    H226850   1.260   0.461  12.063  2.3253  0.8759 -2.0761
 1787TIP3   OH226851   6.777   6.488   5.015  0.4504  0.3153  0.1041
 1787TIP3    H126852   6.831   6.564   4.993  0.1410  1.0924  1.8577
 1787TIP3    H226853   6.833   6.436   5.074 -0.6168  1.1181  1.9256
 1788TIP3   OH226854   1.271   0.113  10.698 -0.5460 -0.1835 -0.4677
 1788TIP3    H126855   1.231   0.052  10.637  1.0656 -1.7542 -0.0477
 1788TIP3    H226856   1.359   0.078  10.713  0.3985  2.1455 -0.0500
 1789TIP3   OH226857   6.725   2.156  15.230  0.5156 -0.7961  0.1252
 1789TIP3    H126858   6.776   2.146  15.311 -2.2000 -1.3052  1.9217
 1789TIP3    H226859   6.750   2.080  15.177  0.8171 -1.6482  1.4116
 1790TIP3   OH226860   0.150   5.332  16.439  0.0909 -0.0875  0.6349
 1790TIP3    H126861   0.059   5.319  16.413  0.0894 -1.1192  1.1223
 1790TIP3    H226862   0.174   5.417  16.401 -0.8102 -0.1936 -0.2050
 1791TIP3   OH226863   4.301   3.488  17.089  0.2433  0.2994 -0.7990
 1791TIP3    H126864   4.381   3.490  17.037  1.2466 -0.8414  0.6005
 1791TIP3    H226865   4.301   3.402  17.131 -2.5481 -0.3752 -1.9448
 1792TIP3   OH226866   3.841   4.307  17.146  0.3505  0.2324  0.4344
 1792TIP3    H126867   3.781   4.270  17.082 -0.4601  0.4763  1.0425
 1792TIP3    H226868   3.789   4.371  17.194  1.0949  0.4536  0.9721
 1793TIP3   OH226869   1.675   6.157   1.879  0.2350  0.0951 -0.5174
 1793TIP3    H126870   1.640   6.069   1.867 -1.7726  0.6600  0.7428
 1793TIP3    H226871   1.611   6.214   1.836  0.9993  1.0102 -0.4697
 1794TIP3   OH226872   0.802   5.021  15.401  0.0779 -0.2427  0.5500
 1794TIP3    H126873   0.884   5.043  15.445  1.4258  1.3197 -2.4220
 1794TIP3    H226874   0.760   5.106  15.384 -0.6296 -0.8000 -0.6492
 1795TIP3   OH226875   5.626   3.971   4.311  0.0407  0.7497  0.0725
 1795TIP3    H126876   5.594   4.008   4.393  2.6568 -0.1644  1.6225
 1795TIP3    H226877   5.579   3.888   4.302  0.9131  0.0475  1.5913
 1796TIP3   OH226878   1.411   6.707  12.234 -0.2824  0.0981  0.0679
 1796TIP3    H126879   1.479   6.640  12.234  0.0810  0.3952  2.3690
 1796TIP3    H226880   1.456   6.787  12.260 -0.7978  1.2188 -2.1914
 1797TIP3   OH226881   0.897   6.669   1.575  0.3816 -0.1299  0.3642
 1797TIP3    H126882   0.933   6.591   1.618  0.2088 -0.2780  0.2412
 1797TIP3    H226883   0.885   6.732   1.646 -0.9632 -0.7601  0.7331
 1798TIP3   OH226884   2.658   4.040  14.658  0.6441  0.0719 -0.5425
 1798TIP3    H126885   2.675   4.087  14.577  2.0032  2.0080  0.7859
 1798TIP3    H226886   2.622   4.105  14.718  1.3414 -0.8497  0.9568
 1799TIP3   OH226887   3.427   4.703  16.459  0.3085  0.5033 -0.1367
 1799TIP3    H126888   3.451   4.741  16.543 -0.3371  0.1257  0.2313
 1799TIP3    H226889   3.332   4.698  16.461  0.3553 -1.2623 -0.0777
 1800TIP3   OH226890   1.964   4.357  15.909 -0.1740  0.2191  0.4335
 1800TIP3    H126891   1.880   4.339  15.951 -0.5072  2.6990  0.9797
 1800TIP3    H226892   2.014   4.406  15.975  0.0101  2.5802 -1.3347
 1801TIP3   OH226893   1.963   6.805  15.728 -0.3917 -0.1995  0.0503
 1801TIP3    H126894   1.931   6.768  15.811  0.8389  0.3902  0.8062
 1801TIP3    H226895   2.027   6.871  15.754 -1.4147  1.3996 -1.3167
 1802TIP3   OH226896   3.850   3.372   2.173  0.1333 -0.0583  0.3482
 1802TIP3    H126897   3.763   3.373   2.132 -0.0164 -2.7162  0.4183
 1802TIP3    H226898   3.861   3.460   2.209 -2.4899  0.3652  0.2822
 1803TIP3   OH226899   2.440   1.036  13.634  0.8719 -0.7192 -0.4999
 1803TIP3    H126900   2.379   1.015  13.705  1.0776  0.3891  0.0271
 1803TIP3    H226901   2.502   0.963  13.634  1.3359 -0.3604  1.0007
 1804TIP3   OH226902   3.596   2.058   0.899  0.3355  0.3077  0.4676
 1804TIP3    H126903   3.505   2.042   0.925  0.9890 -0.7827  2.2588
 1804TIP3    H226904   3.592   2.070   0.804 -1.3178 -2.6375  0.0588
 1805TIP3   OH226905   4.299   1.653  15.006  0.1873  0.1573  0.3076
 1805TIP3    H126906   4.290   1.661  14.911 -0.5834  0.4761  0.3966
 1805TIP3    H226907   4.387   1.619  15.019 -0.1217 -1.0440 -0.5698
 1806TIP3   OH226908   6.518   4.801  14.149 -0.3868 -0.0105 -0.5396
 1806TIP3    H126909   6.471   4.718  14.162  2.5621 -1.4502  2.5588
 1806TIP3    H226910   6.596   4.776  14.099  1.2793  0.4614  1.6799
 1807TIP3   OH226911   0.639   5.231  11.120  0.0328  0.5468 -0.2074
 1807TIP3    H126912   0.709   5.275  11.072 -0.0255 -1.0589 -1.8754
 1807TIP3    H226913   0.566   5.230  11.059  0.1434 -2.0947 -0.3874
 1808TIP3   OH226914   2.690   6.083  14.267  0.0436  0.0581 -0.4321
 1808TIP3    H126915   2.763   6.021  14.266  1.0958  0.9099  3.7590
 1808TIP3    H226916   2.721   6.156  14.213  1.0263 -0.8158 -1.1026
 1809TIP3   OH226917   6.430   5.619  13.836  0.5188  0.5626  0.0411
 1809TIP3    H126918   6.361   5.603  13.900  0.3180  0.7338 -0.1303
 1809TIP3    H226919   6.511   5.620  13.887  0.5751 -1.1911  0.0344
 1810TIP3   OH226920   2.730   5.930   0.957  0.3763  0.0185  0.5394
 1810TIP3    H126921   2.717   5.913   1.051  1.1112  1.1663  0.8620
 1810TIP3    H226922   2.757   5.845   0.921  0.2541 -0.3932  1.3934
 1811TIP3   OH226923   0.756   5.923   3.499  0.2209 -0.1244  0.6943
 1811TIP3    H126924   0.776   5.848   3.555 -1.5547 -0.1629  1.3341
 1811TIP3    H226925   0.700   5.979   3.552 -1.5426 -0.1797 -0.9866
 1812TIP3   OH226926   6.544   4.898   2.323  0.0831  0.5201 -0.2013
 1812TIP3    H126927   6.521   4.990   2.333  0.6235  0.8352 -1.6189
 1812TIP3    H226928   6.603   4.896   2.248 -1.8917 -1.2924 -1.8100
 1813TIP3   OH226929   3.043   6.035  11.589  0.4509  0.0418 -0.1624
 1813TIP3    H126930   2.986   6.105  11.559 -0.7715 -0.6070  0.5946
 1813TIP3    H226931   3.061   5.983  11.511 -0.3689 -0.0185 -0.3124
 1814TIP3   OH226932   2.465   0.872   2.104  0.9235 -0.6992 -0.0345
 1814TIP3    H126933   2.508   0.926   2.171  0.8553 -1.3482  0.5342
 1814TIP3    H226934   2.519   0.794   2.097  1.4955 -0.2143 -1.4674
 1815TIP3   OH226935   5.302   0.971  11.389 -0.5626 -0.6763  0.6396
 1815TIP3    H126936   5.348   0.931  11.463  2.1487  3.4138  1.4689
 1815TIP3    H226937   5.362   0.960  11.315  0.6737  2.2861  1.0841
 1816TIP3   OH226938   0.257   1.476  14.846 -0.4549  0.1302 -0.2528
 1816TIP3    H126939   0.303   1.444  14.768 -1.5286  1.0206 -1.2665
 1816TIP3    H226940   0.302   1.557  14.868 -0.6942  0.3207 -0.4611
 1817TIP3   OH226941   4.317   2.022   5.003  0.3729 -0.2405  0.3338
 1817TIP3    H126942   4.351   2.091   4.945  0.4944  0.3713  1.1189
 1817TIP3    H226943   4.229   2.005   4.970  0.4082  0.1622  0.0174
 1818TIP3   OH226944   5.200   1.817   3.202  0.2728 -0.2665  0.6715
 1818TIP3    H126945   5.110   1.837   3.173  1.0480  1.2005 -0.9688
 1818TIP3    H226946   5.249   1.898   3.183  2.1654 -1.4009  0.4748
 1819TIP3   OH226947   5.192   4.740  13.383 -0.5514 -0.5446  0.2517
 1819TIP3    H126948   5.250   4.740  13.459 -0.3914  0.2348  0.1388
 1819TIP3    H226949   5.163   4.649  13.374 -0.9033 -0.5672  1.4960
 1820TIP3   OH226950   2.566   2.703   1.912 -0.4140 -0.0325 -0.5035
 1820TIP3    H126951   2.509   2.701   1.989 -1.3032 -0.3793 -1.1590
 1820TIP3    H226952   2.562   2.614   1.877 -1.1333  0.4566 -1.7313
 1821TIP3   OH226953   5.590   4.420   0.349  0.4053 -1.1481 -0.1286
 1821TIP3    H126954   5.661   4.386   0.403  0.4311  0.5790  0.9777
 1821TIP3    H226955   5.591   4.364   0.271  1.4740 -2.6009  0.8727
 1822TIP3   OH226956   4.238   0.609   1.117  0.2476 -0.2647 -0.4898
 1822TIP3    H126957   4.232   0.682   1.056  1.5443  0.4802  0.2464
 1822TIP3    H226958   4.147   0.580   1.128 -0.3343  1.4477 -0.5425
 1823TIP3   OH226959   6.150   5.681  14.255 -0.7109 -0.2679  0.5311
 1823TIP3    H126960   6.213   5.750  14.278 -1.7655  1.0871 -0.5032
 1823TIP3    H226961   6.201   5.618  14.204 -0.0193  0.4265  0.3465
 1824TIP3   OH226962   1.726   3.549   5.686 -0.0260 -0.7304 -0.1851
 1824TIP3    H126963   1.775   3.486   5.633  0.1809 -2.1903  1.6472
 1824TIP3    H226964   1.791   3.588   5.744 -0.2646  0.7655 -0.8793
 1825TIP3   OH226965   6.336   3.894  17.125  0.1892 -0.8172  0.4195
 1825TIP3    H126966   6.259   3.924  17.174 -0.3291  1.4265 -1.5926
 1825TIP3    H226967   6.395   3.969  17.123  0.6408 -1.1793 -1.4581
 1826TIP3   OH226968   4.421   0.014  12.853 -0.2725  0.1839  0.3446
 1826TIP3    H126969   4.441   0.008  12.946 -1.9876 -0.8067  0.6854
 1826TIP3    H226970   4.484  -0.045  12.811  1.2926  1.5186  0.6883
 1827TIP3   OH226971   4.345   6.804  13.561  0.3254 -0.1310 -0.4169
 1827TIP3    H126972   4.279   6.793  13.629  0.1279  0.9076 -0.4230
 1827TIP3    H226973   4.373   6.895  13.570  0.7556 -0.1687 -1.3126
 1828TIP3   OH226974   0.386   1.139   2.824 -0.0948 -0.3342 -0.0053
 1828TIP3    H126975   0.359   1.048   2.833 -0.8198  0.0216  2.0972
 1828TIP3    H226976   0.304   1.189   2.829  0.2532  0.4475 -1.5089
 1829TIP3   OH226977   2.999   3.499  13.790  0.3318 -0.5810  0.3025
 1829TIP3    H126978   2.960   3.418  13.755  0.6454 -0.4846 -0.3002
 1829TIP3    H226979   2.977   3.566  13.725  2.1035 -0.6709 -0.4606
 1830TIP3   OH226980   3.920   2.504   3.821 -0.0640  0.3653  0.2957
 1830TIP3    H126981   3.853   2.446   3.786  0.0134  1.0504 -1.0392
 1830TIP3    H226982   4.003   2.458   3.806  0.2993  1.8882 -3.3700
 1831TIP3   OH226983   1.232   5.620   1.302 -0.9787 -0.1725 -0.3691
 1831TIP3    H126984   1.285   5.579   1.233 -1.1068  0.2745 -0.7431
 1831TIP3    H226985   1.157   5.562   1.313 -1.3741  0.1610 -1.1935
 1832TIP3   OH226986   4.788   1.564  11.807 -0.3027 -0.5183 -0.0288
 1832TIP3    H126987   4.727   1.580  11.879 -2.4532 -1.3745 -1.5431
 1832TIP3    H226988   4.761   1.625  11.739  1.7376  0.3232 -0.1426
 1833TIP3   OH226989   3.796   5.127  15.956  0.1843  0.0914  0.1217
 1833TIP3    H126990   3.777   5.108  16.048 -0.1784 -2.6614 -0.4555
 1833TIP3    H226991   3.710   5.133  15.914  0.3686  0.2505 -0.2358
 1834TIP3   OH226992   2.287   6.646  12.429  0.3421  0.4488 -0.0965
 1834TIP3    H126993   2.233   6.597  12.491 -0.1877 -0.0932 -0.9740
 1834TIP3    H226994   2.321   6.579  12.369  3.2169  0.5048  1.2555
 1835TIP3   OH226995   5.318   0.743   1.070 -1.0613  0.2907 -0.9880
 1835TIP3    H126996   5.252   0.783   1.126  0.2474 -0.2101  0.9931
 1835TIP3    H226997   5.268   0.691   1.007 -2.5949  1.5006 -0.8371
 1836TIP3   OH226998   0.444   0.549  10.883 -0.6347 -0.2921 -0.0889
 1836TIP3    H126999   0.396   0.494  10.946  0.3678 -0.2415  0.7476
 1836TIP3    H227000   0.536   0.535  10.905 -0.2812 -0.0347 -1.3745
 1837TIP3   OH227001   3.162   0.017   5.389 -0.1796 -0.3631  0.1011
 1837TIP3    H127002   3.222   0.043   5.320 -0.4249 -0.1607 -0.0394
 1837TIP3    H227003   3.173  -0.077   5.397 -1.3191 -0.6416 -1.3248
 1838TIP3   OH227004   5.334   3.154  15.917 -0.4060 -0.0544  0.2168
 1838TIP3    H127005   5.316   3.173  15.825 -0.0026 -1.0880 -0.0803
 1838TIP3    H227006   5.422   3.117  15.918 -0.4192 -0.0857  1.0167
 1839TIP3   OH227007   3.480   3.500  16.766 -0.1550  0.2137  0.5442
 1839TIP3    H127008   3.392   3.478  16.797 -0.2619 -0.4288 -0.1644
 1839TIP3    H227009   3.520   3.549  16.838 -0.5069 -0.9161  1.5429
 1840TIP3   OH227010   0.869   5.700   6.196 -0.1858 -0.0314 -0.3534
 1840TIP3    H127011   0.899   5.761   6.264 -2.6581  0.0911  0.7277
 1840TIP3    H227012   0.822   5.755   6.134  0.7756 -0.3632 -1.3952
 1841TIP3   OH227013   0.883   2.943  14.202 -0.5495  0.9023  0.1901
 1841TIP3    H127014   0.920   2.968  14.117  0.1037  2.0199  0.7817
 1841TIP3    H227015   0.955   2.900  14.248  0.1255  3.1421  1.3709
 1842TIP3   OH227016   3.484   2.055  14.359 -0.0317  0.0235  0.2588
 1842TIP3    H127017   3.491   1.974  14.308 -1.2706 -0.5826  0.9987
 1842TIP3    H227018   3.564   2.104  14.338 -0.1354 -0.5486 -1.6356
 1843TIP3   OH227019   4.148   0.813   4.385  0.3911  0.1824 -0.0536
 1843TIP3    H127020   4.128   0.735   4.436 -0.2557  0.6535  0.4374
 1843TIP3    H227021   4.199   0.781   4.310  1.9007 -0.4350  1.1977
 1844TIP3   OH227022   5.928   6.319  11.373  0.2436 -0.3855  0.3613
 1844TIP3    H127023   5.921   6.224  11.363 -0.1452 -0.3308  0.0883
 1844TIP3    H227024   5.991   6.331  11.444 -0.6626 -0.8794  1.2786
 1845TIP3   OH227025   0.790   5.529  16.783  0.7009  0.2349  0.4539
 1845TIP3    H127026   0.851   5.473  16.831  1.7840  1.6862  0.8405
 1845TIP3    H227027   0.840   5.560  16.707 -0.3850 -0.5226 -0.6055
 1846TIP3   OH227028   3.490   5.672  12.732 -0.1383  0.4435  0.5380
 1846TIP3    H127029   3.483   5.589  12.685  3.1272  1.1315 -1.4677
 1846TIP3    H227030   3.410   5.676  12.785 -0.7996 -3.5713  0.1700
 1847TIP3   OH227031   1.166   3.184  12.605 -0.0054 -0.1597  0.2956
 1847TIP3    H127032   1.189   3.093  12.589 -0.5994 -0.0298 -1.5071
 1847TIP3    H227033   1.102   3.180  12.676  0.5359 -1.0611  0.7584
 1848TIP3   OH227034   3.586   6.448   1.940  0.0385 -0.5152 -0.1371
 1848TIP3    H127035   3.672   6.488   1.936 -0.5195  0.8011  0.5009
 1848TIP3    H227036   3.543   6.472   1.858  0.5138 -1.7959 -0.7908
 1849TIP3   OH227037   3.602   1.363   2.551 -0.2314  0.0732  0.2197
 1849TIP3    H127038   3.626   1.452   2.580  0.3852 -0.7728  2.5377
 1849TIP3    H227039   3.621   1.308   2.627  2.6800 -2.5946 -2.1580
 1850TIP3   OH227040   1.404   1.480  16.218 -0.2287 -0.6487  0.2962
 1850TIP3    H127041   1.406   1.385  16.206 -0.8055 -0.7967  1.3218
 1850TIP3    H227042   1.495   1.503  16.237  0.0067 -0.9109 -0.4550
 1851TIP3   OH227043   5.706   2.302  13.754  0.3424 -0.3428 -0.0071
 1851TIP3    H127044   5.790   2.280  13.795  0.8908 -0.0591 -0.9551
 1851TIP3    H227045   5.678   2.220  13.712 -0.2146 -0.6304  0.8752
 1852TIP3   OH227046   1.609   5.117  13.997  0.3371 -0.0803 -0.4283
 1852TIP3    H127047   1.602   5.183  13.929 -1.6874  0.1027 -0.1096
 1852TIP3    H227048   1.596   5.033  13.952  0.6771 -0.0867 -0.5130
 1853TIP3   OH227049   4.039   0.093   0.251 -0.6912 -0.3250  0.7091
 1853TIP3    H127050   3.966   0.079   0.310 -2.4222 -0.0682 -1.2494
 1853TIP3    H227051   4.054   0.188   0.253 -0.5422 -0.3517  0.9382
 1854TIP3   OH227052   3.662   1.414  13.027  0.4028  0.4048 -0.1972
 1854TIP3    H127053   3.647   1.328  13.067  1.3749  0.8564  1.2503
 1854TIP3    H227054   3.708   1.394  12.945  0.8389 -0.4623  0.2363
 1855TIP3   OH227055   1.289   4.750   1.796  0.0258 -0.2418  0.0774
 1855TIP3    H127056   1.286   4.845   1.798 -1.4557 -0.2238 -1.0999
 1855TIP3    H227057   1.331   4.729   1.713 -0.3020 -0.6082  0.0024
 1856TIP3   OH227058   3.105   5.166  11.014  0.5636 -0.4620  0.0797
 1856TIP3    H127059   3.028   5.210  10.979  1.3556 -0.0434 -1.1934
 1856TIP3    H227060   3.175   5.230  11.006  0.7677 -0.2309  2.7375
 1857TIP3   OH227061   5.378   3.928  12.296  0.0045  0.0923 -0.1769
 1857TIP3    H127062   5.468   3.958  12.300  0.0751 -0.1912  0.4666
 1857TIP3    H227063   5.367   3.896  12.206  1.1151 -1.6067  0.2366
 1858TIP3   OH227064   2.849   0.805   3.978 -0.1687 -0.2332  0.0903
 1858TIP3    H127065   2.858   0.878   3.917  0.6835 -0.5559 -0.1841
 1858TIP3    H227066   2.759   0.777   3.969 -0.5288  0.8130  0.2323
 1859TIP3   OH227067   3.006   6.099   6.474 -0.1305 -0.3503  0.3962
 1859TIP3    H127068   3.060   6.080   6.397  0.7569 -1.0161  1.1573
 1859TIP3    H227069   2.928   6.142   6.438  0.1096 -0.9355 -0.9009
 1860TIP3   OH227070   2.546   2.738   2.972 -0.4821 -0.1019  0.8910
 1860TIP3    H127071   2.584   2.824   2.991 -0.8149  0.4137 -0.6580
 1860TIP3    H227072   2.453   2.755   2.962 -0.5985 -0.7104  0.9053
 1861TIP3   OH227073   0.978   0.409   1.416  0.6900  0.6321  0.4364
 1861TIP3    H127074   1.060   0.385   1.372 -1.5845 -1.6516 -3.1503
 1861TIP3    H227075   0.968   0.502   1.398  2.1449  0.7848  0.2973
 1862TIP3   OH227076   3.738   6.780  16.516  0.1050 -0.4842  0.1535
 1862TIP3    H127077   3.754   6.870  16.545 -2.6823  0.1734 -0.0908
 1862TIP3    H227078   3.755   6.726  16.593  0.9142  0.3364  0.5606
 1863TIP3   OH227079   4.484   0.779  14.985  0.0496  0.0091 -0.7139
 1863TIP3    H127080   4.468   0.699  14.935 -0.2515 -1.1547  1.1732
 1863TIP3    H227081   4.401   0.799  15.026  0.9138 -0.6352  1.4804
 1864TIP3   OH227082   5.000   6.313  11.183  0.0129 -0.1615 -0.4090
 1864TIP3    H127083   5.050   6.300  11.102 -0.2724 -0.1571 -0.5878
 1864TIP3    H227084   4.941   6.386  11.163 -0.1751 -0.2705 -0.2513
 1865TIP3   OH227085   0.818   4.212   5.986  0.6790 -0.2936 -0.8815
 1865TIP3    H127086   0.725   4.203   6.007  1.1789 -0.7664  1.3644
 1865TIP3    H227087   0.825   4.300   5.949 -0.5669  0.0247 -0.4351
 1866TIP3   OH227088   0.347   1.527   5.629 -0.1728  0.4529 -0.0876
 1866TIP3    H127089   0.330   1.588   5.556  0.0564  0.1294 -0.4150
 1866TIP3    H227090   0.442   1.517   5.631 -0.2940 -2.1139 -1.9185
 1867TIP3   OH227091   5.166   5.836  15.195 -0.3642  0.1072 -0.1133
 1867TIP3    H127092   5.117   5.805  15.271 -0.6708  2.2791  0.6215
 1867TIP3    H227093   5.216   5.759  15.166 -0.6825 -0.9234  1.9087
 1868TIP3   OH227094   3.554   2.651  14.353 -0.5824  0.1290 -0.2334
 1868TIP3    H127095   3.479   2.696  14.392 -0.6966  0.1919 -0.5253
 1868TIP3    H227096   3.516   2.588  14.292 -0.5792 -2.3790  2.1424
 1869TIP3   OH227097   1.403   1.821  13.567 -0.2064  0.5247  0.0823
 1869TIP3    H127098   1.349   1.895  13.594 -0.7382 -0.5368  2.1315
 1869TIP3    H227099   1.493   1.852  13.578 -0.3700  1.4565 -0.9280
 1870TIP3   OH227100   4.642   1.436  13.838  0.2622 -0.0054  0.2109
 1870TIP3    H127101   4.627   1.358  13.892  0.2539  0.4879  0.9405
 1870TIP3    H227102   4.718   1.478  13.878  0.3717  0.2695 -0.2833
 1871TIP3   OH227103   1.041   5.489  13.462 -0.0901  0.0963  0.2481
 1871TIP3    H127104   1.009   5.535  13.385 -0.9519  0.8176  1.0120
 1871TIP3    H227105   1.132   5.517  13.471 -0.3064  0.8647  0.1183
 1872TIP3   OH227106   3.958   1.993   5.524 -0.3112  0.0770 -0.0149
 1872TIP3    H127107   3.964   1.948   5.440  2.3166  0.2997 -0.0257
 1872TIP3    H227108   4.049   2.013   5.547 -0.7522 -1.3308  3.6000
 1873TIP3   OH227109   4.802   4.625   0.780  0.3531  0.1805  0.3843
 1873TIP3    H127110   4.769   4.650   0.694 -0.1162  2.0393  1.0686
 1873TIP3    H227111   4.765   4.538   0.796  0.7846 -0.3810 -1.4401
 1874TIP3   OH227112   6.598   5.219   2.060 -0.3022 -0.1618 -0.1540
 1874TIP3    H127113   6.652   5.242   2.135 -0.2474 -4.2355  1.3340
 1874TIP3    H227114   6.525   5.280   2.062  1.1510  1.6206  1.4538
 1875TIP3   OH227115   5.449   4.088   0.373  0.4881  0.1549 -0.0189
 1875TIP3    H127116   5.482   4.167   0.330  0.0260  0.4198  0.1131
 1875TIP3    H227117   5.360   4.110   0.399  0.6190 -0.1439  0.7066
 1876TIP3   OH227118   2.296   3.862  13.984  0.0693 -0.1748  0.9181
 1876TIP3    H127119   2.267   3.826  14.067 -0.5052  0.1388  0.8566
 1876TIP3    H227120   2.378   3.816  13.965 -0.0601 -0.6090  1.4045
 1877TIP3   OH227121   5.590   4.396   3.723  0.4644 -0.3509  0.0348
 1877TIP3    H127122   5.577   4.329   3.790  1.0337  0.1979  0.7040
 1877TIP3    H227123   5.524   4.462   3.743  1.0433  0.1115  0.4458
 1878TIP3   OH227124   3.781   5.079  13.295  0.9871  0.0248  0.3636
 1878TIP3    H127125   3.701   5.083  13.346  1.4675  0.1958  1.1178
 1878TIP3    H227126   3.752   5.090  13.204  0.2182  0.6342  0.6742
 1879TIP3   OH227127   6.565   6.263  15.321 -0.3427 -0.3000 -0.3845
 1879TIP3    H127128   6.543   6.352  15.349  0.2242 -0.2956  0.0708
 1879TIP3    H227129   6.661   6.258  15.330 -0.4201 -1.1391  0.1627
 1880TIP3   OH227130   3.495   3.824  13.458  0.7282 -0.2684  0.1090
 1880TIP3    H127131   3.498   3.899  13.398 -0.4694 -0.2582  0.0391
 1880TIP3    H227132   3.402   3.801  13.462  0.6124  0.3767  2.7849
 1881TIP3   OH227133   1.094   5.836  15.287  0.6189  0.1975 -0.2990
 1881TIP3    H127134   1.170   5.810  15.339  1.5679  1.6509 -0.9036
 1881TIP3    H227135   1.062   5.916  15.329  0.4403  0.5081 -1.0106
 1882TIP3   OH227136   5.646   3.176  14.093  0.4190  0.7504 -0.0141
 1882TIP3    H127137   5.734   3.160  14.127  0.1400  1.0201  0.8792
 1882TIP3    H227138   5.633   3.107  14.028  1.3745  0.8507 -0.3255
 1883TIP3   OH227139   3.996   4.733  16.379  0.2868 -0.7639 -0.6070
 1883TIP3    H127140   4.059   4.661  16.371  3.6184  1.6239  1.1888
 1883TIP3    H227141   3.972   4.734  16.472  0.1296  0.2693 -0.6399
 1884TIP3   OH227142   0.792   3.744  13.422 -0.0895 -0.5118 -0.4283
 1884TIP3    H127143   0.800   3.652  13.445  2.3738 -0.5340 -1.0737
 1884TIP3    H227144   0.740   3.782  13.493 -0.7214 -2.2692  0.1157
 1885TIP3   OH227145   2.146   1.561  15.069  0.5244 -0.4251  0.6130
 1885TIP3    H127146   2.238   1.544  15.047 -0.0806 -2.2082 -0.8225
 1885TIP3    H227147   2.120   1.632  15.011  1.2082  0.7635  1.7042
 1886TIP3   OH227148   2.407   3.643   1.160  0.1606 -0.6134  0.3570
 1886TIP3    H127149   2.451   3.658   1.076  1.9755  1.3731  1.5808
 1886TIP3    H227150   2.456   3.571   1.200  0.4258 -0.3896  0.4409
 1887TIP3   OH227151   2.625   0.961   0.979 -0.5490  0.3447 -0.2374
 1887TIP3    H127152   2.694   0.989   0.917  1.1272 -0.9744  0.9402
 1887TIP3    H227153   2.570   0.902   0.928  0.1341  0.1791 -0.8087
 1888TIP3   OH227154   2.022   4.462  15.636 -0.6105 -0.2579 -0.0986
 1888TIP3    H127155   2.113   4.455  15.666 -0.9082 -1.3727  0.5859
 1888TIP3    H227156   1.998   4.553  15.656  0.1107 -0.1628  0.3986
 1889TIP3   OH227157   2.430   3.059  13.567 -0.1022  0.4574  0.3929
 1889TIP3    H127158   2.471   3.005  13.635  0.9875 -1.5814 -1.7587
 1889TIP3    H227159   2.501   3.114  13.534 -0.0991 -0.0416 -0.4600
 1890TIP3   OH227160   0.208   2.577   3.231  0.4248  0.1951  1.0906
 1890TIP3    H127161   0.265   2.653   3.218  0.6449 -0.1518 -0.1297
 1890TIP3    H227162   0.156   2.599   3.308  0.9585  1.2885  1.1638
 1891TIP3   OH227163   4.242   1.065   5.022 -0.0266 -0.3939  0.1687
 1891TIP3    H127164   4.182   1.126   5.065  0.3558 -0.2774  0.5442
 1891TIP3    H227165   4.230   1.081   4.928  0.4588  0.6484  0.2660
 1892TIP3   OH227166   5.753   2.827  13.860 -0.8089  0.3439 -0.4402
 1892TIP3    H127167   5.798   2.837  13.776  2.1397  0.9874  1.0849
 1892TIP3    H227168   5.665   2.799  13.837  0.7063 -2.5219 -3.6571
 1893TIP3   OH227169   1.233   2.783   3.570 -0.2711 -0.2561  0.5773
 1893TIP3    H127170   1.145   2.805   3.541 -1.0157 -1.5727  1.6883
 1893TIP3    H227171   1.268   2.865   3.605 -1.1460  0.2305  0.3453
 1894TIP3   OH227172   2.603   6.212   2.475  0.1420 -0.0778 -0.3906
 1894TIP3    H127173   2.567   6.172   2.396 -0.2690  0.1492 -0.3225
 1894TIP3    H227174   2.554   6.172   2.547  0.6785 -0.4565 -0.2347
 1895TIP3   OH227175   4.725   0.648   4.687  0.1690 -0.7871  0.0314
 1895TIP3    H127176   4.657   0.646   4.620  0.2339  1.6984 -0.2031
 1895TIP3    H227177   4.677   0.665   4.769  0.4654  4.6502 -0.5489
 1896TIP3   OH227178   5.845   1.173   3.380  0.2068 -0.4504 -0.1847
 1896TIP3    H127179   5.869   1.225   3.303  1.9562  1.0145  1.2623
 1896TIP3    H227180   5.750   1.170   3.378  0.1679  0.2824 -1.9169
 1897TIP3   OH227181   2.515   5.865   2.041  0.1979 -0.0203 -0.2987
 1897TIP3    H127182   2.609   5.850   2.052  0.5558  0.9954 -1.6162
 1897TIP3    H227183   2.498   5.947   2.088 -0.1104 -0.3944  0.2473
 1898TIP3   OH227184   4.788   6.610  15.954  0.4116 -0.3126 -0.3840
 1898TIP3    H127185   4.749   6.624  15.868  0.4114 -0.3295 -0.3866
 1898TIP3    H227186   4.739   6.536  15.990 -0.4490  0.4822  0.1368
 1899TIP3   OH227187   5.110   5.240   3.067  0.2611  0.3109 -0.3462
 1899TIP3    H127188   5.152   5.282   3.142 -0.3615  0.0771  0.1347
 1899TIP3    H227189   5.144   5.150   3.068 -1.2932 -0.3127  0.8959
 1900TIP3   OH227190   1.968   1.979  13.427  0.2826  0.1582 -0.0334
 1900TIP3    H127191   1.975   1.899  13.480  0.7342  0.0454 -0.2622
 1900TIP3    H227192   2.038   1.971  13.363 -0.4059  0.1862 -0.7961
 1901TIP3   OH227193   0.767   2.552   5.672  0.2106 -0.7205  0.0954
 1901TIP3    H127194   0.833   2.565   5.604  2.2118  0.1022  2.0948
 1901TIP3    H227195   0.760   2.636   5.716 -2.3037 -0.7550 -0.0939
 1902TIP3   OH227196   1.691   2.254   0.154  0.2754 -0.3069  0.2577
 1902TIP3    H127197   1.727   2.343   0.160  0.7571 -0.4782 -0.0545
 1902TIP3    H227198   1.685   2.237   0.060  0.2667 -0.6408  0.3173
 1903TIP3   OH227199   0.865   6.051   4.906 -0.5347 -0.0329 -0.4846
 1903TIP3    H127200   0.855   5.980   4.970  1.8690 -0.5093 -0.5156
 1903TIP3    H227201   0.908   6.009   4.831 -0.3989  1.1716 -1.1081
 1904TIP3   OH227202   0.496   0.753  12.306 -0.2643  0.0020  0.3983
 1904TIP3    H127203   0.465   0.823  12.363 -0.4026  0.5094 -0.2747
 1904TIP3    H227204   0.588   0.741  12.331  0.2231  1.5079 -0.4820
 1905TIP3   OH227205   0.600   1.109  16.635  0.2677 -0.1526 -0.3514
 1905TIP3    H127206   0.531   1.136  16.694  0.3920 -0.8974  0.1481
 1905TIP3    H227207   0.554   1.081  16.556  0.0676  0.2941 -0.3984
 1906TIP3   OH227208   4.729   4.656  13.551 -0.7753 -0.4088 -0.1666
 1906TIP3    H127209   4.788   4.731  13.558 -0.0994 -0.7550 -1.8915
 1906TIP3    H227210   4.710   4.648  13.458 -1.3472 -1.9979  0.0508
 1907TIP3   OH227211   1.040   2.764  14.654  0.3684 -0.0096 -0.0268
 1907TIP3    H127212   1.076   2.720  14.731 -2.1068 -0.6139  0.8731
 1907TIP3    H227213   1.052   2.857  14.671  2.5479 -0.1694 -0.3677
 1908TIP3   OH227214   4.172   4.547   5.527  0.0785  0.1111  0.0121
 1908TIP3    H127215   4.113   4.555   5.452 -1.3746 -1.4981  0.9232
 1908TIP3    H227216   4.135   4.477   5.580  2.1735 -0.1566  1.2499
 1909TIP3   OH227217   6.537   0.368  12.267 -0.6251  0.5257  0.3099
 1909TIP3    H127218   6.546   0.378  12.172 -1.2896  3.2388  0.4495
 1909TIP3    H227219   6.618   0.325  12.294 -0.8689 -1.2842 -1.5464
 1910TIP3   OH227220   3.680   6.085  11.478  0.2568 -0.2566 -0.4468
 1910TIP3    H127221   3.626   6.038  11.542 -0.4297  1.0888  0.0070
 1910TIP3    H227222   3.761   6.104  11.525  0.3246 -0.5316 -0.4536
 1911TIP3   OH227223   3.963   6.474  12.712  0.0268  0.0379  0.5223
 1911TIP3    H127224   3.966   6.382  12.738  3.2501 -0.1761 -0.1802
 1911TIP3    H227225   4.028   6.517  12.767 -0.6614  1.7111  0.0955
 1912TIP3   OH227226   2.353   1.254   3.273  0.2703  0.6652  0.0245
 1912TIP3    H127227   2.395   1.230   3.190  0.0042 -1.0848  0.3503
 1912TIP3    H227228   2.425   1.266   3.334  0.4382 -2.7959  0.7048
 1913TIP3   OH227229   4.296   3.075   0.695  0.0816 -0.2807 -0.3197
 1913TIP3    H127230   4.318   3.129   0.771 -1.0952 -1.0471  0.6006
 1913TIP3    H227231   4.356   3.001   0.700 -1.2664 -1.3425  1.0384
 1914TIP3   OH227232   2.887   5.164  13.899  0.0852  0.3166  0.2995
 1914TIP3    H127233   2.848   5.077  13.907  1.4970 -0.1754  5.0531
 1914TIP3    H227234   2.954   5.154  13.832 -0.3167 -2.0583  0.1737
 1915TIP3   OH227235   3.705   2.071  11.692  0.4859  0.3625  0.1105
 1915TIP3    H127236   3.634   2.128  11.720  0.3713 -0.0491  0.6744
 1915TIP3    H227237   3.663   2.006  11.636  0.5708  0.6554 -0.2995
 1916TIP3   OH227238   2.149   0.737  12.217 -0.8653  0.0154  0.0796
 1916TIP3    H127239   2.222   0.763  12.160 -0.3275  2.9517  1.8857
 1916TIP3    H227240   2.189   0.681  12.283 -0.3494  1.0169  0.6378
 1917TIP3   OH227241   0.252   6.556  14.714 -0.0796  0.5086  0.0572
 1917TIP3    H127242   0.238   6.642  14.755 -1.2774  0.3397  0.0445
 1917TIP3    H227243   0.324   6.570  14.653  0.2299  1.3232  0.5944
 1918TIP3   OH227244   2.360   5.730  11.369  0.4287  0.5507  0.4401
 1918TIP3    H127245   2.269   5.702  11.372 -0.1614  2.2546 -0.4136
 1918TIP3    H227246   2.401   5.669  11.307 -0.7399  1.2829 -1.1216
 1919TIP3   OH227247   1.528   2.738  15.434 -0.4590  0.3869  0.2660
 1919TIP3    H127248   1.436   2.711  15.440 -0.3991  0.3338  1.2296
 1919TIP3    H227249   1.577   2.656  15.437 -0.3335  0.4889  1.5178
 1920TIP3   OH227250   5.456   3.327   0.196 -0.3126  0.4871 -0.4863
 1920TIP3    H127251   5.395   3.277   0.252  0.0576  0.1444 -0.3819
 1920TIP3    H227252   5.454   3.415   0.233 -0.8919  0.5297 -0.6025
 1921TIP3   OH227253   1.901   4.772  14.944 -0.2418 -0.0456 -0.5625
 1921TIP3    H127254   1.989   4.781  14.906 -0.1289 -1.1159 -0.5921
 1921TIP3    H227255   1.847   4.740  14.871 -0.2565 -1.0926 -0.1166
 1922TIP3   OH227256   4.074   6.300   2.645  0.2115 -0.1670 -0.0085
 1922TIP3    H127257   4.083   6.290   2.551  2.7702 -1.0563  0.2589
 1922TIP3    H227258   3.987   6.265   2.664  0.6453 -2.4608 -1.7620
 1923TIP3   OH227259   4.724   5.745  15.491 -0.3996  0.3226  0.0807
 1923TIP3    H127260   4.781   5.753  15.415  1.1543  0.0663  1.1663
 1923TIP3    H227261   4.771   5.790  15.561 -0.5961 -1.5747  1.5095
 1924TIP3   OH227262   6.604   2.182  11.061  0.2304 -0.3717 -0.2863
 1924TIP3    H127263   6.622   2.089  11.046  1.3891 -0.9653  3.6494
 1924TIP3    H227264   6.691   2.221  11.072 -0.3216  0.3317  1.9454
 1925TIP3   OH227265   1.932   6.343   5.204 -0.0505 -0.1709  0.2715
 1925TIP3    H127266   1.970   6.324   5.118  0.6074 -2.1141  0.9352
 1925TIP3    H227267   1.998   6.396   5.248 -0.7794  1.6231 -0.6904
 1926TIP3   OH227268   2.058   5.058  15.583  0.4365  0.3494  0.1858
 1926TIP3    H127269   2.036   5.032  15.494  0.4123 -0.6465  0.4632
 1926TIP3    H227270   2.154   5.058  15.585  0.4829 -1.9643  0.7589
 1927TIP3   OH227271   1.119   1.754   0.089  0.3576  0.0783  0.7929
 1927TIP3    H127272   1.120   1.669   0.046  2.3387 -0.1212  1.1577
 1927TIP3    H227273   1.027   1.768   0.113 -0.1763 -1.4324 -0.2425
 1928TIP3   OH227274   5.576   4.104   3.576  0.3614 -0.5878 -0.2349
 1928TIP3    H127275   5.653   4.071   3.622  0.4712 -0.4743 -0.3359
 1928TIP3    H227276   5.611   4.168   3.514  0.1286 -0.0953  0.1364
 1929TIP3   OH227277   1.997   4.928  16.400 -0.0075  0.1172 -0.1232
 1929TIP3    H127278   1.966   4.961  16.484  0.1717 -1.6968  0.7104
 1929TIP3    H227279   1.940   4.970  16.335  0.7326  2.6052  0.7340
 1930TIP3   OH227280   6.244   0.816   4.229 -0.1877 -0.5249 -0.2001
 1930TIP3    H127281   6.293   0.891   4.264 -1.3676  0.6475 -0.9441
 1930TIP3    H227282   6.312   0.756   4.197  0.8234 -0.3089  1.3882
 1931TIP3   OH227283   3.802   3.699   1.211  0.7076 -0.2749 -0.2216
 1931TIP3    H127284   3.796   3.704   1.306 -1.8091  0.9275 -0.3542
 1931TIP3    H227285   3.820   3.789   1.183  0.6014 -0.4545 -0.8998
 1932TIP3   OH227286   3.814   5.630  12.382 -0.4053  0.0200 -0.2977
 1932TIP3    H127287   3.737   5.615  12.327 -0.7763 -0.3316  0.3119
 1932TIP3    H227288   3.888   5.614  12.323 -0.7896  0.1726 -0.8382
 1933TIP3   OH227289   4.066   3.973   5.520  0.0264 -0.1089 -0.3298
 1933TIP3    H127290   4.108   3.947   5.602  0.2538 -0.6123 -0.6039
 1933TIP3    H227291   4.081   4.068   5.515 -1.5681  0.2622  1.1066
 1934TIP3   OH227292   5.747   5.779   3.311  0.6662 -0.1321 -0.2012
 1934TIP3    H127293   5.681   5.845   3.333 -0.4266 -0.9518 -0.9304
 1934TIP3    H227294   5.810   5.783   3.383  0.0196  0.9221  0.3277
 1935TIP3   OH227295   6.226   4.682   4.946  0.8737  0.8843 -0.2218
 1935TIP3    H127296   6.228   4.599   4.900  0.3052  1.0789 -0.6164
 1935TIP3    H227297   6.292   4.736   4.903  0.5593  0.9603 -0.6145
 1936TIP3   OH227298   0.841   1.442  13.655  0.6727 -0.0644 -0.3807
 1936TIP3    H127299   0.785   1.374  13.693 -1.1669  1.1927 -0.6920
 1936TIP3    H227300   0.864   1.408  13.568 -1.0019  0.0631 -0.9074
 1937TIP3   OH227301   3.369   4.607   0.180  0.0043  0.1503  0.1328
 1937TIP3    H127302   3.385   4.513   0.189 -0.0848 -0.0433 -1.4841
 1937TIP3    H227303   3.283   4.612   0.138 -0.9329  1.0252  2.0424
 1938TIP3   OH227304   0.915   4.492  11.229 -0.0207  0.1228 -0.2863
 1938TIP3    H127305   0.970   4.483  11.307 -0.0500 -0.5931 -0.3401
 1938TIP3    H227306   0.835   4.534  11.260  0.3017  0.5963 -0.0904
 1939TIP3   OH227307   0.276   1.639  12.124 -0.3691 -0.3998 -0.0933
 1939TIP3    H127308   0.287   1.726  12.163 -0.6838  0.6613 -2.2027
 1939TIP3    H227309   0.182   1.623  12.126 -0.8591  1.2867 -3.4643
 1940TIP3   OH227310   2.863   0.833   5.148 -0.8077 -0.3759 -0.1523
 1940TIP3    H127311   2.875   0.744   5.115  0.5892 -0.1436 -0.3482
 1940TIP3    H227312   2.801   0.824   5.221 -1.4930 -1.3420 -0.8330
 1941TIP3   OH227313   1.750   1.454   4.944  0.1764 -0.0115 -0.0675
 1941TIP3    H127314   1.737   1.375   4.997 -0.9999  0.0394 -0.2446
 1941TIP3    H227315   1.661   1.480   4.918  0.5184  1.4625  0.1191
 1942TIP3   OH227316   0.078   5.416  13.340  0.4332 -0.2412 -0.7443
 1942TIP3    H127317   0.009   5.478  13.361  0.2297 -0.1685 -1.5865
 1942TIP3    H227318   0.138   5.421  13.415 -0.9776 -1.0792  0.5050
 1943TIP3   OH227319   1.713   1.198   3.340 -0.1897  1.0962  0.2630
 1943TIP3    H127320   1.807   1.180   3.330  0.0623  2.6258 -0.4658
 1943TIP3    H227321   1.695   1.185   3.433  0.6612  0.4687  0.3526
 1944TIP3   OH227322   5.639   5.861  11.626  0.4066  0.2233  0.2015
 1944TIP3    H127323   5.620   5.939  11.679  0.7478 -0.3072  1.1321
 1944TIP3    H227324   5.685   5.802  11.686 -1.4518 -1.4539  0.0736
 1945TIP3   OH227325   2.646   5.346   2.443 -1.0101  0.1873 -0.5237
 1945TIP3    H127326   2.697   5.369   2.366 -1.3583  0.7746 -0.5845
 1945TIP3    H227327   2.657   5.421   2.502 -1.8191  0.3323 -0.5519
 1946TIP3   OH227328   4.419   0.924   1.575 -0.2860 -0.0136 -0.4863
 1946TIP3    H127329   4.400   1.018   1.566 -0.5117 -0.1663 -1.8152
 1946TIP3    H227330   4.503   0.922   1.621  0.1718  0.8814 -1.2336
 1947TIP3   OH227331   5.678   5.218  12.964 -0.6015 -0.0546  0.6262
 1947TIP3    H127332   5.612   5.170  13.014 -0.4661 -0.5812  0.3080
 1947TIP3    H227333   5.658   5.198  12.873 -1.3690  1.5661  0.3928
 1948TIP3   OH227334   4.896   1.897  16.205 -0.1044 -0.3203 -0.1173
 1948TIP3    H127335   4.882   1.813  16.248  3.9173 -0.9327  0.3675
 1948TIP3    H227336   4.945   1.876  16.126  0.3875  1.4779 -0.3419
 1949TIP3   OH227337   5.101   2.009  12.135 -0.5157 -0.9270  0.3873
 1949TIP3    H127338   5.081   1.967  12.052 -0.6940  0.1549 -0.1278
 1949TIP3    H227339   5.197   2.013  12.137 -0.5165 -0.7746  0.1439
 1950TIP3   OH227340   2.928   3.804  10.997  0.5092 -0.1413 -0.0796
 1950TIP3    H127341   2.892   3.792  10.910  0.1921  1.6545 -0.2303
 1950TIP3    H227342   2.859   3.776  11.057 -0.0856  0.6326 -0.3955
 1951TIP3   OH227343   5.182   2.036  12.486 -0.3528 -0.1026  0.5948
 1951TIP3    H127344   5.242   2.043  12.413  0.6967  0.3290  1.4746
 1951TIP3    H227345   5.238   2.036  12.564 -1.5138  1.0339  1.4782
 1952TIP3   OH227346   0.719   1.057  13.224  0.2585  0.0075  0.1230
 1952TIP3    H127347   0.625   1.040  13.214  0.7445 -3.5189  0.4518
 1952TIP3    H227348   0.726   1.153  13.221 -3.0526  0.3614 -2.2426
 1953TIP3   OH227349   1.496   1.912  16.078 -0.0651  0.4323  0.0994
 1953TIP3    H127350   1.450   1.985  16.038 -1.7018 -1.0045 -0.7759
 1953TIP3    H227351   1.513   1.940  16.168 -1.3802  1.5772  0.0203
 1954TIP3   OH227352   6.699   4.269  14.759  0.2663 -0.3942 -0.2694
 1954TIP3    H127353   6.763   4.337  14.781 -0.3200 -0.1034  0.5932
 1954TIP3    H227354   6.636   4.272  14.831 -1.8754  0.6941 -2.0895
 1955TIP3   OH227355   1.355   4.732  13.461 -0.0471  0.3923  0.3029
 1955TIP3    H127356   1.413   4.742  13.385  1.6232 -0.1948  1.4262
 1955TIP3    H227357   1.394   4.789  13.527 -0.5462 -0.2995  1.2053
 1956TIP3   OH227358   2.843   2.710   4.085  0.1915  0.4035  0.3954
 1956TIP3    H127359   2.787   2.784   4.058  0.0972 -0.0498 -0.6857
 1956TIP3    H227360   2.927   2.751   4.106  0.1761  0.8066 -0.3029
 1957TIP3   OH227361   3.311   0.324  13.393 -0.1974 -0.4110 -0.2282
 1957TIP3    H127362   3.359   0.375  13.327 -1.7150  0.4755 -0.7002
 1957TIP3    H227363   3.284   0.389  13.458  0.2862 -1.1022  0.6887
 1958TIP3   OH227364   4.020   1.038   2.109  0.1941 -0.6224 -0.8042
 1958TIP3    H127365   4.057   1.125   2.117  1.3918 -1.1441 -0.4132
 1958TIP3    H227366   3.950   1.047   2.045 -0.0102  0.7099 -0.4167
 1959TIP3   OH227367   5.772   2.377  15.151  0.2536 -0.0965 -0.1324
 1959TIP3    H127368   5.755   2.464  15.188 -3.0553 -0.4480 -0.5529
 1959TIP3    H227369   5.721   2.317  15.206  1.0709 -1.5724 -0.9265
 1960TIP3   OH227370   3.594   3.792   2.321 -0.2206  0.3864  0.5516
 1960TIP3    H127371   3.651   3.825   2.251 -1.4625 -0.1316 -0.7544
 1960TIP3    H227372   3.570   3.704   2.293 -0.8340  0.2137  1.5830
 1961TIP3   OH227373   5.539   4.685  10.998 -0.8568  0.1820  0.0165
 1961TIP3    H127374   5.546   4.590  11.013 -2.2888 -0.0398 -0.4906
 1961TIP3    H227375   5.449   4.706  11.023 -0.7324  1.3037 -0.4380
 1962TIP3   OH227376   0.531   3.884   0.320 -0.1181 -0.6451  0.2860
 1962TIP3    H127377   0.604   3.886   0.259  0.0313 -0.4348  0.4675
 1962TIP3    H227378   0.555   3.948   0.388 -1.2395  0.6855 -0.5197
 1963TIP3   OH227379   5.052   6.337   1.132  0.2230  0.0692 -0.7245
 1963TIP3    H127380   4.983   6.299   1.187  0.7393  0.2959  0.0922
 1963TIP3    H227381   5.093   6.404   1.187  2.0752 -1.0654 -0.6479
 1964TIP3   OH227382   3.178   0.370   3.565 -0.1211 -0.0814 -0.3645
 1964TIP3    H127383   3.202   0.285   3.528  0.3966 -0.6826  1.2690
 1964TIP3    H227384   3.219   0.433   3.507  1.5488 -1.0079 -0.2531
 1965TIP3   OH227385   4.927   2.511   4.564 -0.2625 -0.2387  0.5176
 1965TIP3    H127386   4.894   2.567   4.634 -1.6181 -0.6773  0.2416
 1965TIP3    H227387   5.008   2.554   4.536 -1.0479  1.3671  0.5939
 1966TIP3   OH227388   6.208   1.176  14.121 -0.1315  0.1646 -0.4431
 1966TIP3    H127389   6.184   1.123  14.046  1.9848  0.0428 -1.0896
 1966TIP3    H227390   6.303   1.187  14.114  0.3451 -0.7160  2.7381
 1967TIP3   OH227391   6.651   6.802   0.510  0.7679 -0.5883 -0.2868
 1967TIP3    H127392   6.648   6.747   0.588  0.2781 -1.1842 -0.7153
 1967TIP3    H227393   6.580   6.769   0.454 -0.8527  1.7299  0.2506
 1968TIP3   OH227394   3.410   5.908   5.412 -0.3885 -0.6638  0.2508
 1968TIP3    H127395   3.394   5.814   5.408  1.3894 -0.9808  0.0352
 1968TIP3    H227396   3.479   5.925   5.348 -1.1286  0.9086 -0.1964
 1969TIP3   OH227397   0.775   3.897  12.367 -0.4437 -1.1386 -0.0118
 1969TIP3    H127398   0.772   3.967  12.301  0.3340 -0.0568  1.0708
 1969TIP3    H227399   0.683   3.874  12.382 -0.7578  0.1886  0.1681
 1970TIP3   OH227400   1.962   6.451   3.827  0.7559 -0.5788  0.4436
 1970TIP3    H127401   1.871   6.473   3.846  0.6770 -0.3501 -0.1680
 1970TIP3    H227402   1.988   6.512   3.758  0.8791 -1.6398 -0.4848
 1971TIP3   OH227403   1.660   4.401  12.110  0.0406  0.6031 -0.0311
 1971TIP3    H127404   1.618   4.427  12.192  0.8834  0.0711  0.5769
 1971TIP3    H227405   1.650   4.477  12.053  0.3614  1.3691  0.9144
 1972TIP3   OH227406   3.523   0.253  13.022  0.4014 -0.3769  0.0398
 1972TIP3    H127407   3.435   0.222  13.044  1.7063 -4.0020  0.9420
 1972TIP3    H227408   3.537   0.223  12.932  0.5745  0.5692 -0.2539
 1973TIP3   OH227409   1.721   5.034   5.455  0.2650 -0.4932  0.8604
 1973TIP3    H127410   1.780   5.061   5.384  0.7143 -0.2464  1.3156
 1973TIP3    H227411   1.694   4.945   5.432  0.7264 -0.5667  0.5884
 1974TIP3   OH227412   3.682   6.419   5.919 -0.1480  0.0347 -0.2175
 1974TIP3    H127413   3.730   6.358   5.863  0.1519  0.8792 -0.9016
 1974TIP3    H227414   3.748   6.450   5.981 -0.6628 -1.5103  1.1602
 1975TIP3   OH227415   4.722   1.704   4.248  0.2777 -0.3565  0.1206
 1975TIP3    H127416   4.739   1.679   4.339  1.4595 -0.2409 -0.0547
 1975TIP3    H227417   4.631   1.678   4.233  0.0501 -0.3304  1.3462
 1976TIP3   OH227418   1.264   4.680   2.068  0.0798 -0.5046  0.1407
 1976TIP3    H127419   1.328   4.701   2.136 -0.1456 -2.5585  1.0451
 1976TIP3    H227420   1.300   4.720   1.989  1.4151  0.1433  1.0309
 1977TIP3   OH227421   2.248   6.047  11.405  0.2161 -0.0836  0.0346
 1977TIP3    H127422   2.278   6.111  11.340 -0.6730 -0.5889 -0.8929
 1977TIP3    H227423   2.261   6.092  11.489  1.6752  0.4592 -0.4379
 1978TIP3   OH227424   4.248   5.686  14.606 -0.3662 -1.1302  0.2420
 1978TIP3    H127425   4.295   5.757  14.563 -1.2142 -1.0226 -0.5539
 1978TIP3    H227426   4.294   5.672  14.689  0.4786 -0.4128 -0.0981
 1979TIP3   OH227427   0.058   2.980   2.184  0.1067 -0.8638  0.0473
 1979TIP3    H127428   0.145   3.015   2.167  0.9000 -2.7638 -0.1016
 1979TIP3    H227429   0.021   2.964   2.097 -0.4523  0.0547  0.1093
 1980TIP3   OH227430   5.004   3.971   2.405 -0.0468  0.4236 -0.2808
 1980TIP3    H127431   5.081   3.954   2.459 -1.2777  0.0036  1.4162
 1980TIP3    H227432   5.033   4.037   2.342  1.0026  2.3542  2.0710
 1981TIP3   OH227433   5.738   4.037  13.869 -0.2429 -0.4576 -0.8079
 1981TIP3    H127434   5.745   4.041  13.773 -0.7319  1.0081 -0.8072
 1981TIP3    H227435   5.684   3.959  13.886  2.2447 -2.4833 -1.5367
 1982TIP3   OH227436   4.363   0.831   5.113  0.5173 -0.1953 -0.6453
 1982TIP3    H127437   4.309   0.893   5.065 -1.2014  1.0058  2.5052
 1982TIP3    H227438   4.354   0.749   5.065 -2.1184  0.5721 -1.6402
 1983TIP3   OH227439   4.603   6.281  14.408 -0.6922  0.0995 -1.4856
 1983TIP3    H127440   4.515   6.245  14.395 -1.1158  1.1442 -1.6323
 1983TIP3    H227441   4.600   6.320  14.495  0.3481 -1.8165 -0.5331
 1984TIP3   OH227442   5.586   0.411  12.549 -0.1831 -1.0875  0.5237
 1984TIP3    H127443   5.610   0.323  12.578  1.9522  0.1029  2.7757
 1984TIP3    H227444   5.661   0.441  12.498 -0.4823 -0.2596  0.5517
 1985TIP3   OH227445   4.395   4.299   5.559  0.8575 -0.3655  0.3032
 1985TIP3    H127446   4.406   4.233   5.628  2.1292 -1.2166 -0.6707
 1985TIP3    H227447   4.474   4.291   5.505  0.5439  1.2401 -0.4632
 1986TIP3   OH227448   3.390   1.045  12.288 -0.0363 -0.1069 -0.3831
 1986TIP3    H127449   3.364   1.111  12.223 -0.0378  0.7387  0.4572
 1986TIP3    H227450   3.307   1.007  12.318 -0.4453  2.5898  2.2975
 1987TIP3   OH227451   5.274   6.827  13.364  0.5355  0.2881 -0.2469
 1987TIP3    H127452   5.253   6.831  13.458  1.9656 -0.6223  0.1476
 1987TIP3    H227453   5.332   6.752  13.356  0.4390  0.3588 -1.8869
 1988TIP3   OH227454   6.353   2.813  16.250 -0.2773  0.2394 -0.2459
 1988TIP3    H127455   6.373   2.830  16.342  0.5216 -0.8954 -0.1833
 1988TIP3    H227456   6.376   2.894  16.204 -0.3758  0.6990  0.5077
 1989TIP3   OH227457   1.691   0.177  15.439 -0.0603  0.1281  0.6863
 1989TIP3    H127458   1.760   0.113  15.420 -0.1199 -0.0941  1.2089
 1989TIP3    H227459   1.718   0.217  15.522 -0.5282  0.0923  0.8544
 1990TIP3   OH227460   1.385   1.348   1.930 -0.6727  0.7813  0.6248
 1990TIP3    H127461   1.428   1.425   1.895  0.0033  1.1121  2.1212
 1990TIP3    H227462   1.456   1.290   1.957 -1.1674 -0.2560 -0.2126
 1991TIP3   OH227463   5.465   5.694   4.752 -0.1842 -0.5373 -0.4224
 1991TIP3    H127464   5.507   5.773   4.718  1.2586 -0.9121  0.3976
 1991TIP3    H227465   5.536   5.629   4.755 -1.1100 -1.5519 -0.1089
 1992TIP3   OH227466   6.499   5.170   2.348 -0.0175 -0.6142  0.5173
 1992TIP3    H127467   6.585   5.204   2.326  0.3705 -1.7094  0.2661
 1992TIP3    H227468   6.455   5.241   2.395  0.5770  0.3720 -0.3969
 1993TIP3   OH227469   5.799   2.401   2.512 -0.3388  1.1670  0.0839
 1993TIP3    H127470   5.747   2.322   2.494  2.3008 -0.9468  0.9910
 1993TIP3    H227471   5.831   2.388   2.601  0.6815  2.9992  0.0239
 1994TIP3   OH227472   1.783   2.372  15.643 -0.1288  0.1492 -0.2427
 1994TIP3    H127473   1.859   2.424  15.670  2.5545 -2.4304 -2.0251
 1994TIP3    H227474   1.741   2.424  15.575  0.1831  1.5488  0.6107
 1995TIP3   OH227475   5.119   4.909   5.554  0.2525  0.4464 -0.3064
 1995TIP3    H127476   5.184   4.975   5.527 -0.1273  1.0664  0.2529
 1995TIP3    H227477   5.077   4.883   5.472  1.5123 -0.3086 -0.7364
 1996TIP3   OH227478   6.735   4.999   5.496 -0.3853 -0.0706 -0.2017
 1996TIP3    H127479   6.754   4.937   5.425 -0.3785 -0.5452  0.2032
 1996TIP3    H227480   6.724   4.943   5.573 -1.1396  0.3827  0.0212
 1997TIP3   OH227481   2.396   6.169   5.772 -0.3099 -0.7423 -0.5770
 1997TIP3    H127482   2.336   6.240   5.753  0.1461 -0.2875 -0.3364
 1997TIP3    H227483   2.412   6.175   5.866  1.7394  0.4549 -0.9513
 1998TIP3   OH227484   4.626   2.932   5.282 -0.4368  0.5210 -0.1299
 1998TIP3    H127485   4.608   3.026   5.291  0.2432  0.6110  0.4213
 1998TIP3    H227486   4.706   2.919   5.333  0.3658 -0.0705 -1.5015
 1999TIP3   OH227487   4.613   4.865   2.711 -0.3746  0.3663 -0.0606
 1999TIP3    H127488   4.547   4.796   2.699 -0.0464  0.1951 -0.9521
 1999TIP3    H227489   4.647   4.851   2.799  0.1150 -1.0016 -0.4486
 2000TIP3   OH227490   3.410   2.204   4.328 -0.0266 -0.2601  0.1530
 2000TIP3    H127491   3.472   2.277   4.322 -2.1623  1.6332 -0.4030
 2000TIP3    H227492   3.420   2.157   4.246 -0.3044  0.9077 -0.5716
 2001TIP3   OH227493   2.712   0.658  12.678 -0.3216  0.5324 -0.1206
 2001TIP3    H127494   2.736   0.629  12.766 -0.7534  0.7897  0.0812
 2001TIP3    H227495   2.636   0.715  12.690 -1.1666 -0.4134 -0.7735
 2002TIP3   OH227496   5.554   0.660  15.200  0.2584  0.0309 -0.1675
 2002TIP3    H127497   5.586   0.599  15.267  0.0340  0.1379  0.0368
 2002TIP3    H227498   5.631   0.711  15.175  0.3953 -0.1740 -0.1671
 2003TIP3   OH227499   0.353   4.211   4.607 -0.1125  0.3826 -0.7170
 2003TIP3    H127500   0.265   4.199   4.571  0.1774  0.7611 -1.5817
 2003TIP3    H227501   0.411   4.213   4.530  0.8924 -1.6614 -0.0820
 2004TIP3   OH227502   1.506   1.301  15.908 -0.4062  0.1620 -0.2341
 2004TIP3    H127503   1.565   1.339  15.973 -0.9500  0.3156  0.1770
 2004TIP3    H227504   1.453   1.375  15.878 -0.5622 -0.0242 -0.4188
 2005TIP3   OH227505   2.835   3.780   2.610 -0.4151  0.4434 -0.2701
 2005TIP3    H127506   2.792   3.830   2.680 -0.0915  0.1447  0.1422
 2005TIP3    H227507   2.806   3.823   2.529 -1.1335  0.5236  0.0222
 2006TIP3   OH227508   6.688   2.874   5.069  0.1596  0.1059 -0.1877
 2006TIP3    H127509   6.654   2.843   5.153 -0.2379  0.8304 -0.0745
 2006TIP3    H227510   6.780   2.847   5.069  0.5602  1.3168  1.1234
 2007TIP3   OH227511   5.979   4.462   3.891 -0.1869  0.4222  0.8215
 2007TIP3    H127512   5.921   4.523   3.936  0.1790  0.7257  0.8875
 2007TIP3    H227513   6.055   4.515   3.867  0.5445 -0.2235  1.6963
 2008TIP3   OH227514   3.422   6.481  17.021 -0.0573  0.1388  0.3880
 2008TIP3    H127515   3.394   6.539  17.091 -0.0979 -0.2425  0.6934
 2008TIP3    H227516   3.517   6.475  17.032 -0.0294  0.2947  0.2398
 2009TIP3   OH227517   4.240   6.218  12.138  0.2830  0.4216 -0.4117
 2009TIP3    H127518   4.147   6.235  12.124  0.2783 -0.6559 -1.9933
 2009TIP3    H227519   4.249   6.208  12.233 -1.2892  0.1538 -0.2635
 2010TIP3   OH227520   5.391   4.293  10.234 -0.1004 -0.5603 -0.4852
 2010TIP3    H127521   5.483   4.317  10.237  0.0839 -1.3038  0.9583
 2010TIP3    H227522   5.383   4.223  10.299 -1.5971 -0.7976 -0.8947
 2011TIP3   OH227523   2.471   3.003   2.228  0.5788 -0.1702 -0.2814
 2011TIP3    H127524   2.414   2.979   2.301 -0.8834 -1.8444 -1.8656
 2011TIP3    H227525   2.560   2.988   2.260  0.0380  0.3371  1.5282
 2012TIP3   OH227526   1.869   3.400   1.311 -0.2488 -0.2038 -0.9475
 2012TIP3    H127527   1.907   3.460   1.246  0.4793 -0.9050 -1.1738
 2012TIP3    H227528   1.787   3.370   1.270  0.1996 -0.6348 -1.5411
 2013TIP3   OH227529   3.100   3.822  11.209 -0.6120  0.6253  0.2725
 2013TIP3    H127530   3.157   3.875  11.153  0.0267 -1.9781 -1.7664
 2013TIP3    H227531   3.028   3.797  11.151  0.6478 -3.1138  0.0688
 2014TIP3   OH227532   2.939   3.555  16.438 -0.0241 -0.4425  0.3122
 2014TIP3    H127533   2.923   3.461  16.446 -2.8447 -0.0950 -0.1583
 2014TIP3    H227534   2.950   3.586  16.528  1.2015 -1.2365  0.4516
 2015TIP3   OH227535   0.313   4.170  14.937  0.2155 -0.0499 -0.0303
 2015TIP3    H127536   0.353   4.237  14.993  0.7666 -0.3069 -0.1138
 2015TIP3    H227537   0.319   4.089  14.987  0.6987 -0.2792 -0.4437
 2016TIP3   OH227538   2.804   0.200  15.365  0.1629 -0.4672  0.4491
 2016TIP3    H127539   2.850   0.263  15.310 -0.0042 -0.2019  0.6149
 2016TIP3    H227540   2.729   0.172  15.312 -0.7007  0.7143  1.0119
 2017TIP3   OH227541   4.895   4.251   3.808 -0.6963  0.5507 -0.2058
 2017TIP3    H127542   4.955   4.188   3.848 -1.8186 -0.6183 -0.2834
 2017TIP3    H227543   4.892   4.324   3.869 -1.2565 -0.5600  1.1453
 2018TIP3   OH227544   2.586   6.698   1.357 -0.2476  1.3732 -0.5891
 2018TIP3    H127545   2.649   6.770   1.349 -1.0502  2.0037 -1.4406
 2018TIP3    H227546   2.527   6.725   1.427  0.1283  1.0111 -0.1292
 2019TIP3   OH227547   3.184   2.073  14.303 -0.2242 -0.6129  0.1399
 2019TIP3    H127548   3.258   2.039  14.253 -1.1145 -2.8251  0.2091
 2019TIP3    H227549   3.207   2.056  14.394 -0.0056  0.4624  0.2980
 2020TIP3   OH227550   0.949   3.962   5.010 -0.8849 -0.5481  0.2983
 2020TIP3    H127551   0.865   4.005   5.026 -0.9841 -1.0655  1.2812
 2020TIP3    H227552   0.983   4.004   4.931 -1.9726 -0.1982 -0.0084
 2021TIP3   OH227553   0.138   5.916   0.198  0.5608  0.6109  0.0367
 2021TIP3    H127554   0.148   5.822   0.180 -0.7843  0.4815 -0.1409
 2021TIP3    H227555   0.227   5.948   0.210  1.1215 -0.4523 -1.1079
 2022TIP3   OH227556   1.188   6.507   1.912 -0.4527  0.5945 -0.0873
 2022TIP3    H127557   1.260   6.487   1.972 -1.3562  2.1117  1.5924
 2022TIP3    H227558   1.142   6.424   1.901  0.7777 -0.1054 -0.1553
 2023TIP3   OH227559   0.405   1.465  13.627 -0.1080 -0.2419 -0.6246
 2023TIP3    H127560   0.462   1.390  13.607  0.4865 -0.0930  0.4740
 2023TIP3    H227561   0.465   1.538  13.641 -0.6730  0.3780 -1.3652
 2024TIP3   OH227562   1.386   5.612  11.822 -0.8817 -0.0609 -0.0950
 2024TIP3    H127563   1.441   5.640  11.750  0.3031  1.4573  1.3288
 2024TIP3    H227564   1.350   5.528  11.793  0.6461 -0.1752 -1.8541
 2025TIP3   OH227565   4.592   2.734   0.311 -0.2863  0.3228 -0.4664
 2025TIP3    H127566   4.521   2.696   0.259 -0.6057  1.6339 -1.0266
 2025TIP3    H227567   4.593   2.683   0.391 -2.0043  0.3980 -0.3647
 2026TIP3   OH227568   1.268   6.364  14.658 -0.2007  0.4011 -0.4960
 2026TIP3    H127569   1.288   6.450  14.622 -0.5594  0.6476 -0.1142
 2026TIP3    H227570   1.181   6.344  14.623 -0.5288  0.6185  0.1763
 2027TIP3   OH227571   1.975   3.183   5.351  0.3810 -0.4611  0.7819
 2027TIP3    H127572   2.039   3.117   5.379  1.4743  0.4249  0.4848
 2027TIP3    H227573   1.992   3.194   5.257  0.4327  0.4455  0.8829
 2028TIP3   OH227574   1.311   6.648   3.251  0.1964  0.4651 -0.1957
 2028TIP3    H127575   1.288   6.561   3.286  1.1671  0.2328 -0.1015
 2028TIP3    H227576   1.227   6.689   3.232 -0.3975  0.5107  2.1942
 2029TIP3   OH227577   4.377   0.699  16.742 -0.3196 -0.1557 -0.1538
 2029TIP3    H127578   4.411   0.778  16.783  2.7986 -1.2160 -0.4702
 2029TIP3    H227579   4.405   0.705  16.651  0.8987 -2.0508  0.0488
 2030TIP3   OH227580   5.215   2.691  11.702  0.1963 -0.2580 -0.3475
 2030TIP3    H127581   5.161   2.760  11.665 -0.0772 -0.4263 -0.2646
 2030TIP3    H227582   5.304   2.727  11.702 -0.2284  0.9706  1.7460
 2031TIP3   OH227583   0.331   1.588   2.774  0.2154  0.3204 -0.7052
 2031TIP3    H127584   0.257   1.554   2.723  0.4613  0.2012 -0.9846
 2031TIP3    H227585   0.362   1.663   2.723 -1.1181  1.7738  0.5329
 2032TIP3   OH227586   5.597   0.490  13.891 -0.2896  0.2391 -0.4503
 2032TIP3    H127587   5.643   0.549  13.950 -0.4233  1.5142 -1.5811
 2032TIP3    H227588   5.633   0.404  13.910  0.6138  0.8181  0.5501
 2033TIP3   OH227589   4.343   1.288  14.429 -0.7126  0.2127  0.7206
 2033TIP3    H127590   4.334   1.255  14.340 -0.1235 -1.0297  1.1023
 2033TIP3    H227591   4.377   1.377  14.418 -1.9350  0.5787 -0.3232
 2034TIP3   OH227592   3.370   4.681  11.527 -0.3635 -0.5906 -0.8350
 2034TIP3    H127593   3.361   4.745  11.456 -0.4954  2.1904  1.5297
 2034TIP3    H227594   3.283   4.674  11.565  0.2714  0.3006  0.8964
 2035TIP3   OH227595   6.351   4.566  10.661  0.2551  0.0546 -0.9288
 2035TIP3    H127596   6.280   4.503  10.677  1.9160 -1.3870  1.5657
 2035TIP3    H227597   6.321   4.647  10.702  0.7337 -1.1224  2.0402
 2036TIP3   OH227598   4.053   3.432   3.436 -0.2727  0.4349  0.3211
 2036TIP3    H127599   4.071   3.466   3.349 -2.3878  0.0588 -0.3269
 2036TIP3    H227600   4.125   3.372   3.454  0.6247  1.1373 -0.8028
 2037TIP3   OH227601   6.620   3.240   1.016 -0.7296  0.3582 -0.2908
 2037TIP3    H127602   6.631   3.193   1.098  0.8260  0.6764 -0.2758
 2037TIP3    H227603   6.703   3.287   1.004 -0.6928 -0.1093 -2.3066
 2038TIP3   OH227604   3.473   5.839  12.240  0.5352 -0.0870 -0.0312
 2038TIP3    H127605   3.488   5.915  12.184 -0.4907  0.1532 -0.0149
 2038TIP3    H227606   3.378   5.840  12.256  0.5231 -1.2891  0.0863
 2039TIP3   OH227607   1.203   2.129  16.978  0.0857 -0.8555  0.7910
 2039TIP3    H127608   1.211   2.220  16.950  0.4837 -0.9044  0.7332
 2039TIP3    H227609   1.113   2.121  17.010  0.1693 -0.3382  1.1688
 2040TIP3   OH227610   2.918   5.277  11.869  0.2841 -0.0492 -0.0592
 2040TIP3    H127611   2.920   5.276  11.773  0.2977 -0.4113 -0.0547
 2040TIP3    H227612   2.828   5.255  11.892  0.2905 -0.0008  0.0139
 2041TIP3   OH227613   3.471   3.585  10.801 -0.1575  0.2008  0.1306
 2041TIP3    H127614   3.517   3.539  10.731 -1.4446  0.9356 -1.2933
 2041TIP3    H227615   3.513   3.557  10.882  2.0370  0.0543 -1.0075
 2042TIP3   OH227616   6.357   0.593  13.358 -0.4536  0.0112 -0.7904
 2042TIP3    H127617   6.311   0.595  13.441 -0.3767 -1.3294 -0.6838
 2042TIP3    H227618   6.431   0.533  13.373  0.7075  1.2752 -1.2570
 2043TIP3   OH227619   0.275   0.188  16.114 -0.0375 -0.1602 -0.0404
 2043TIP3    H127620   0.365   0.158  16.115  0.0905  0.1096 -1.5305
 2043TIP3    H227621   0.237   0.154  16.196  1.4250 -0.1658  0.6573
 2044TIP3   OH227622   3.862   6.689   0.954  0.3085 -0.3425  0.4508
 2044TIP3    H127623   3.948   6.648   0.962  0.6471  0.2496 -0.0470
 2044TIP3    H227624   3.848   6.734   1.037  0.9035  0.3413  0.1903
 2045TIP3   OH227625   2.972   1.304  13.699 -0.1955 -0.0224 -0.4793
 2045TIP3    H127626   2.905   1.237  13.717  0.6522 -0.4421  1.4079
 2045TIP3    H227627   2.932   1.386  13.728 -0.2877 -0.1078 -0.3646
 2046TIP3   OH227628   4.867   5.725  13.786  0.2343 -0.5275  0.5651
 2046TIP3    H127629   4.893   5.633  13.778 -0.8530 -0.8206  0.2254
 2046TIP3    H227630   4.832   5.747  13.699  0.9783  0.3760  0.4785
 2047TIP3   OH227631   3.017   0.048   4.666  0.3666  0.2113  0.5292
 2047TIP3    H127632   2.936   0.018   4.625  0.8968 -0.3651 -0.1276
 2047TIP3    H227633   3.006   0.026   4.759  0.8236 -2.3789  0.0598
 2048TIP3   OH227634   5.053   0.709   4.947 -0.3252 -0.1849  0.2297
 2048TIP3    H127635   5.104   0.682   4.870  1.3679  1.0585  0.8512
 2048TIP3    H227636   5.063   0.637   5.009  0.9928  0.1727  0.4609
 2049TIP3   OH227637   2.377   0.171  16.815 -0.5118  0.2498 -0.1268
 2049TIP3    H127638   2.334   0.089  16.839  0.7012 -0.3384  0.1417
 2049TIP3    H227639   2.392   0.164  16.721 -0.6083  0.2575 -0.1426
 2050TIP3   OH227640   3.917   1.515   4.076  0.6828 -0.2811 -0.0427
 2050TIP3    H127641   3.909   1.603   4.113 -0.0115 -0.9825  1.5778
 2050TIP3    H227642   3.829   1.494   4.044 -0.1500 -1.6844  2.8211
 2051TIP3   OH227643   4.524   2.024   1.529  0.4748  0.1518 -0.3031
 2051TIP3    H127644   4.583   1.949   1.522 -0.7136 -0.9515  0.8566
 2051TIP3    H227645   4.460   1.998   1.596  0.2215  2.3550  0.3907
 2052TIP3   OH227646   2.300   6.534  14.162  0.0876  0.3940  0.3841
 2052TIP3    H127647   2.206   6.521  14.173  0.0516 -2.4049 -1.8595
 2052TIP3    H227648   2.307   6.588  14.083  0.3197  0.1280  0.2179
 2053TIP3   OH227649   3.773   2.955  17.051  0.2633 -0.1413  0.1268
 2053TIP3    H127650   3.766   2.860  17.062  2.2748 -0.3256  0.0799
 2053TIP3    H227651   3.721   2.991  17.123  0.9472 -1.2963  1.2407
 2054TIP3   OH227652   2.263   0.074  12.767  0.3802 -0.4246 -0.4668
 2054TIP3    H127653   2.317   0.153  12.779 -0.4815 -0.1031  1.7066
 2054TIP3    H227654   2.250   0.040  12.856  0.3585 -2.7965 -1.3091
 2055TIP3   OH227655   3.460   3.042   0.853  0.1724 -0.3636  0.3652
 2055TIP3    H127656   3.513   3.033   0.932  3.8997 -2.1904 -2.0914
 2055TIP3    H227657   3.523   3.054   0.782 -2.7157 -2.1015 -2.7928
 2056TIP3   OH227658   3.368   6.277   3.097  0.2908 -0.7297  0.7118
 2056TIP3    H127659   3.423   6.201   3.112 -0.9228 -1.9535 -0.6066
 2056TIP3    H227660   3.300   6.272   3.164 -0.4162 -1.4846 -0.0284
 2057TIP3   OH227661   6.116   6.064  16.790  0.3070 -0.3753 -0.2653
 2057TIP3    H127662   6.108   5.977  16.829  0.8379 -0.5068 -0.4416
 2057TIP3    H227663   6.150   6.048  16.702  0.0381 -0.0125 -0.4411
 2058TIP3   OH227664   5.977   4.462  10.317  0.7272 -0.2260 -0.1820
 2058TIP3    H127665   5.911   4.506  10.263  2.2115  0.9493 -1.1366
 2058TIP3    H227666   6.000   4.383  10.269  0.8041 -0.0656 -0.4094
 2059TIP3   OH227667   3.996   5.608   2.309 -0.0442 -0.1944 -0.8807
 2059TIP3    H127668   4.070   5.645   2.357 -0.9453  0.8125 -0.2078
 2059TIP3    H227669   3.940   5.570   2.377 -0.1314 -0.9864 -1.3855
 2060TIP3   OH227670   2.404   0.579   3.759 -0.2312 -0.1435 -0.2521
 2060TIP3    H127671   2.481   0.531   3.787  0.4573  0.6929 -0.6836
 2060TIP3    H227672   2.428   0.617   3.674 -1.2265 -0.1418 -0.5476
 2061TIP3   OH227673   4.166   1.818  12.310 -0.0107  0.4741  0.1283
 2061TIP3    H127674   4.107   1.753  12.348 -0.9742  2.3733  2.1048
 2061TIP3    H227675   4.250   1.804  12.355 -0.1050  0.3676  0.2714
 2062TIP3   OH227676   4.046   2.205   4.853 -0.2996  0.0553  0.0465
 2062TIP3    H127677   3.981   2.275   4.861 -0.6766 -0.4347  1.5372
 2062TIP3    H227678   4.130   2.247   4.872 -0.3742  0.3482 -0.2593
 2063TIP3   OH227679   4.995   1.279  15.696 -0.6975  0.4418  0.1163
 2063TIP3    H127680   4.995   1.235  15.781 -0.4168  0.7951  0.2982
 2063TIP3    H227681   4.924   1.342  15.701 -1.3553 -0.2449 -0.2852
 2064TIP3   OH227682   3.562   5.959   6.433  0.5096 -0.1310  0.1652
 2064TIP3    H127683   3.512   5.877   6.437  2.3392 -1.3515  4.3802
 2064TIP3    H227684   3.515   6.019   6.491  1.8760 -0.1121  1.3382
 2065TIP3   OH227685   1.769   6.027  12.699 -0.2814  0.1404  0.1079
 2065TIP3    H127686   1.789   6.105  12.752 -1.8776  1.0033 -0.4880
 2065TIP3    H227687   1.771   6.058  12.609 -0.7567 -0.5550 -0.1491
 2066TIP3   OH227688   5.375   5.312   3.957 -0.2083  0.0222 -0.5467
 2066TIP3    H127689   5.450   5.355   3.916 -1.3501  3.4062  0.5676
 2066TIP3    H227690   5.306   5.314   3.890 -0.4008  0.3806 -0.3414
 2067TIP3   OH227691   5.333   4.715  13.625  0.1698 -0.1881  0.1812
 2067TIP3    H127692   5.394   4.718  13.698  0.7704  2.6312 -0.3367
 2067TIP3    H227693   5.251   4.749  13.660 -0.2762 -1.1936  0.1391
 2068TIP3   OH227694   2.718   3.633  12.981 -0.3954 -0.0449  0.3616
 2068TIP3    H127695   2.676   3.548  12.969  0.8262 -0.4742 -1.2096
 2068TIP3    H227696   2.676   3.690  12.917  0.8209 -0.2654 -0.6522
 2069TIP3   OH227697   0.056   4.701   1.788 -1.2582 -0.0466 -1.5410
 2069TIP3    H127698  -0.039   4.688   1.792 -1.1524 -0.6613 -0.9007
 2069TIP3    H227699   0.090   4.621   1.749 -1.0116  0.2337 -1.9073
 2070TIP3   OH227700   5.493   3.538  13.355 -0.5595  0.1197  0.6181
 2070TIP3    H127701   5.478   3.443  13.361 -0.5926 -0.0088 -1.1296
 2070TIP3    H227702   5.434   3.575  13.421 -1.1605 -1.0323  0.7614
 2071TIP3   OH227703   2.091   6.584   3.585 -0.2919 -0.0304 -0.5297
 2071TIP3    H127704   2.129   6.671   3.591  0.3399 -0.3326  0.0600
 2071TIP3    H227705   2.065   6.575   3.493 -0.3719  0.7787 -0.5897
 2072TIP3   OH227706   0.471   5.702   0.794 -0.0950 -0.1570  0.3527
 2072TIP3    H127707   0.453   5.747   0.712 -0.4406  0.7558  0.9192
 2072TIP3    H227708   0.441   5.762   0.862  1.9813 -0.0101  1.2232
 2073TIP3   OH227709   5.297   6.355   3.505  0.4888  0.1424  0.1081
 2073TIP3    H127710   5.355   6.354   3.429  0.7391  2.6031  0.1958
 2073TIP3    H227711   5.212   6.382   3.470  0.4745  0.7802  0.6306
 2074TIP3   OH227712   3.147   6.480  15.832 -0.5186  0.0744 -0.3269
 2074TIP3    H127713   3.081   6.414  15.854  0.1069 -0.2347  0.7079
 2074TIP3    H227714   3.106   6.533  15.764 -1.8344 -0.1063  0.2915
 2075TIP3   OH227715   3.614   2.035  16.366 -0.5294 -0.2975  0.6826
 2075TIP3    H127716   3.635   2.034  16.273  1.3538 -0.4007  1.0798
 2075TIP3    H227717   3.532   1.985  16.372  0.0872 -1.5643 -0.7464
 2076TIP3   OH227718   6.415   2.557  11.501  0.4554  0.3174  0.1689
 2076TIP3    H127719   6.447   2.474  11.466 -1.1289  0.1840 -1.0668
 2076TIP3    H227720   6.395   2.610  11.424 -1.9209  0.4941  0.8374
 2077TIP3   OH227721   2.168   1.665  13.673 -0.0541 -0.5989 -0.5522
 2077TIP3    H127722   2.225   1.702  13.741 -1.8885  0.6561  0.4050
 2077TIP3    H227723   2.186   1.571  13.674  1.7589 -0.2814 -0.1013
 2078TIP3   OH227724   5.654   5.845   5.837 -0.1466  0.0892 -0.0759
 2078TIP3    H127725   5.674   5.834   5.930  1.8275 -0.8282 -0.5570
 2078TIP3    H227726   5.620   5.760   5.809 -0.1506  0.1704 -0.3220
 2079TIP3   OH227727   2.598   0.419  11.173 -0.6760  0.1666 -0.1960
 2079TIP3    H127728   2.533   0.358  11.138 -0.6375 -1.0351  1.7021
 2079TIP3    H227729   2.581   0.421  11.267  1.6617  0.2685  0.2784
 2080TIP3   OH227730   0.021   3.438  14.146  0.3911 -0.5192  0.2312
 2080TIP3    H127731   0.102   3.488  14.154  0.5399 -0.8694  1.0213
 2080TIP3    H227732  -0.038   3.476  14.211  0.0924 -0.6052  0.0171
 2081TIP3   OH227733   0.215   2.123  16.122 -0.1674 -0.4238 -0.7492
 2081TIP3    H127734   0.128   2.129  16.161  0.2690  2.2494  0.0268
 2081TIP3    H227735   0.200   2.131  16.028 -0.7731  0.6486 -0.5804
 2082TIP3   OH227736   5.998   0.473  14.335 -0.5012  0.4357 -0.3604
 2082TIP3    H127737   5.923   0.515  14.377 -0.2596  0.0006  0.5168
 2082TIP3    H227738   6.014   0.394  14.386  0.2812  0.2963 -0.8000
 2083TIP3   OH227739   3.193   1.110  11.593  0.0546  0.2357  0.2867
 2083TIP3    H127740   3.222   1.096  11.503 -0.5081 -0.8003  0.2487
 2083TIP3    H227741   3.102   1.139  11.585  0.5051  1.7678  0.4710
 2084TIP3   OH227742   6.633   1.393  16.963 -0.1971 -0.3026 -0.6735
 2084TIP3    H127743   6.626   1.488  16.970 -0.8086 -0.3434 -0.6839
 2084TIP3    H227744   6.567   1.369  16.898  0.3992 -0.6691 -1.1601
 2085TIP3   OH227745   4.195   5.796   4.736  0.0846  0.1050  0.7334
 2085TIP3    H127746   4.213   5.888   4.750  0.4189  1.1943 -4.6062
 2085TIP3    H227747   4.281   5.756   4.724 -0.0635  0.3832 -2.0274
 2086TIP3   OH227748   1.557   4.458   2.679  0.5699 -0.0411 -0.0048
 2086TIP3    H127749   1.471   4.499   2.671  1.3723  1.9208  0.6850
 2086TIP3    H227750   1.619   4.527   2.654  1.9540 -1.5098 -0.8417
 2087TIP3   OH227751   5.605   4.964  11.848  0.6240  0.0683  0.1724
 2087TIP3    H127752   5.593   4.946  11.941  3.2821 -0.2371  0.5509
 2087TIP3    H227753   5.561   4.891  11.803  3.6327 -2.7725  1.4137
 2088TIP3   OH227754   5.359   5.718   5.702  0.0881  0.1645 -0.4096
 2088TIP3    H127755   5.433   5.718   5.763  0.2979 -0.1367 -0.6605
 2088TIP3    H227756   5.291   5.767   5.747  1.5285  3.5392 -1.5313
 2089TIP3   OH227757   2.674   1.468   1.171 -0.2422 -0.1644 -0.0080
 2089TIP3    H127758   2.595   1.487   1.220  0.1866  1.1928  0.1899
 2089TIP3    H227759   2.702   1.552   1.134  1.4684 -0.4659  0.4835
 2090TIP3   OH227760   1.504   2.862   1.032 -0.7284 -0.6309  0.2019
 2090TIP3    H127761   1.531   2.814   1.110  2.2770 -1.3612 -1.1391
 2090TIP3    H227762   1.495   2.794   0.965 -2.6078  0.0583 -0.3137
 2091TIP3   OH227763   2.961   1.597   6.248  0.3016 -0.2146 -0.1237
 2091TIP3    H127764   3.055   1.596   6.264  0.4178  0.4058 -0.7342
 2091TIP3    H227765   2.949   1.657   6.174 -0.5049 -0.8273 -0.5102
 2092TIP3   OH227766   0.826   4.937   6.521  0.0321  0.3993 -0.0890
 2092TIP3    H127767   0.899   4.988   6.486 -0.4233  2.6846  1.9965
 2092TIP3    H227768   0.751   4.996   6.519 -1.2225 -1.0992  0.0053
 2093TIP3   OH227769   2.598   1.890   1.623  0.1518  1.1934  0.2935
 2093TIP3    H127770   2.523   1.874   1.565 -0.3298 -0.0352  1.2038
 2093TIP3    H227771   2.665   1.926   1.566  0.0151 -0.8089 -1.2410
 2094TIP3   OH227772   1.459   4.168   5.294  0.0422  0.4194  0.2723
 2094TIP3    H127773   1.505   4.094   5.333  0.2214  0.1160 -0.4933
 2094TIP3    H227774   1.366   4.149   5.308  0.0955  0.1532  0.2733
 2095TIP3   OH227775   5.161   0.959   5.968 -0.7188  0.3451 -0.1071
 2095TIP3    H127776   5.219   1.034   5.957 -1.1170  0.7608  0.5628
 2095TIP3    H227777   5.126   0.968   6.056 -1.5792 -0.0493 -0.3938
 2096TIP3   OH227778   5.518   6.828  11.734 -0.2355  0.0919  0.1210
 2096TIP3    H127779   5.453   6.834  11.804 -0.8796 -1.1114 -0.3362
 2096TIP3    H227780   5.470   6.789  11.661  0.7263  0.2350 -0.6003
 2097TIP3   OH227781   1.073   5.026   3.790  0.2569 -0.3468  0.0480
 2097TIP3    H127782   1.060   5.119   3.771  0.1375 -0.3964 -0.1139
 2097TIP3    H227783   1.166   5.011   3.777  0.2259 -0.3160 -0.2144
 2098TIP3   OH227784   2.728   6.205   3.586  0.0354  0.0418  0.4254
 2098TIP3    H127785   2.808   6.157   3.610 -0.5771 -1.8639 -1.0128
 2098TIP3    H227786   2.689   6.230   3.669  0.8455 -1.2423  1.2325
 2099TIP3   OH227787   5.850   6.632  12.652  0.5722 -0.8282 -0.5407
 2099TIP3    H127788   5.888   6.548  12.626  0.9499 -0.0910 -2.6411
 2099TIP3    H227789   5.803   6.662  12.574 -2.1306 -0.4430  1.1175
 2100TIP3   OH227790   0.175   2.461   3.921  0.0258 -0.3546  0.3407
 2100TIP3    H127791   0.215   2.545   3.944  1.1091 -0.9020  0.5252
 2100TIP3    H227792   0.087   2.466   3.959 -0.0549  0.8252  0.0450
 2101TIP3   OH227793   3.177   0.573   2.657 -0.1601  0.0637  0.1443
 2101TIP3    H127794   3.158   0.515   2.731  3.2466 -1.3413  0.1258
 2101TIP3    H227795   3.222   0.517   2.594 -0.3009  1.9130 -1.6948
 2102TIP3   OH227796   2.795   4.286  13.850 -0.3581  0.2213  0.3107
 2102TIP3    H127797   2.765   4.202  13.886 -0.2163 -0.3854 -0.9346
 2102TIP3    H227798   2.715   4.334  13.830 -0.4792 -0.3614 -0.6426
 2103TIP3   OH227799   3.564   2.973   3.716 -0.6313 -0.2300  0.2585
 2103TIP3    H127800   3.505   2.898   3.707 -1.6586  0.5571  0.2118
 2103TIP3    H227801   3.508   3.049   3.701 -0.2465  0.6976  2.9582
 2104TIP3   OH227802   3.673   3.355   0.724 -0.0928 -0.1972  0.2077
 2104TIP3    H127803   3.630   3.426   0.675  1.1375  1.2929  1.1882
 2104TIP3    H227804   3.641   3.275   0.682 -2.5412  0.8532 -0.1375
 2105TIP3   OH227805   4.171   2.361  15.471  0.4740  0.1133  0.2856
 2105TIP3    H127806   4.099   2.316  15.427  1.3372 -0.1087 -0.9598
 2105TIP3    H227807   4.195   2.431  15.410 -0.5820  2.0967  1.9937
 2106TIP3   OH227808   5.159   0.267  15.932 -0.4480  0.3858 -0.4516
 2106TIP3    H127809   5.247   0.239  15.906 -0.6823  0.6097 -1.5180
 2106TIP3    H227810   5.105   0.253  15.854 -1.1412  1.2438 -0.1406
 2107TIP3   OH227811   0.438   1.280   0.114  0.4906  0.1416 -0.1900
 2107TIP3    H127812   0.375   1.221   0.155  0.6216  0.3397  0.3051
 2107TIP3    H227813   0.385   1.347   0.070  0.3398  1.2700  1.6209
 2108TIP3   OH227814   1.961   5.190  13.894  0.0247  0.3753 -0.0577
 2108TIP3    H127815   1.945   5.121  13.958 -0.6658  1.9770  1.5800
 2108TIP3    H227816   1.916   5.160  13.815 -0.0821 -1.1294  0.5381
 2109TIP3   OH227817   3.921   4.886  12.135  0.2427 -0.5880  0.4634
 2109TIP3    H127818   4.005   4.855  12.168  0.0159 -0.1377  1.4871
 2109TIP3    H227819   3.876   4.807  12.105  0.7719 -0.9012  0.4825
 2110TIP3   OH227820   5.426   2.342  12.070  0.1850  0.1384  0.2737
 2110TIP3    H127821   5.355   2.403  12.091 -0.1571  0.2971 -1.2868
 2110TIP3    H227822   5.444   2.356  11.977  0.5387 -1.7004  0.0271
 2111TIP3   OH227823   3.442   0.646  16.365 -0.7440 -0.2231 -0.6643
 2111TIP3    H127824   3.487   0.585  16.424 -0.5538  0.3265 -0.2366
 2111TIP3    H227825   3.473   0.622  16.278  0.7399  0.4406 -0.3406
 2112TIP3   OH227826   3.249   2.199   2.170 -0.5506 -0.0194  0.5164
 2112TIP3    H127827   3.242   2.185   2.264  1.4888 -0.7284  0.6236
 2112TIP3    H227828   3.246   2.112   2.132 -2.1620  0.3106 -0.1774
 2113TIP3   OH227829   2.550   2.774   4.459 -0.1489  0.6144 -0.0606
 2113TIP3    H127830   2.592   2.837   4.400  1.7255  0.2262  0.7984
 2113TIP3    H227831   2.564   2.809   4.546 -0.3898 -0.2484  0.3346
 2114TIP3   OH227832   3.744   1.061  15.316 -0.7436  0.0585 -0.0502
 2114TIP3    H127833   3.691   1.052  15.238 -0.2994  1.1261 -0.4975
 2114TIP3    H227834   3.681   1.082  15.386 -1.1230 -0.7614 -0.1357
 2115TIP3   OH227835   4.270   3.433   5.524  0.0295 -0.2599  0.2238
 2115TIP3    H127836   4.255   3.393   5.438  0.7554  2.1875 -1.1570
 2115TIP3    H227837   4.353   3.479   5.514  0.6790 -0.7791  2.6306
 2116TIP3   OH227838   4.421   4.251  12.943  0.3798 -0.6133  0.0564
 2116TIP3    H127839   4.361   4.310  12.989  1.6367  0.9497 -0.2110
 2116TIP3    H227840   4.479   4.217  13.012 -0.3932 -1.6251  0.2219
 2117TIP3   OH227841   1.539   6.545   1.624 -0.2961  0.2517  0.3515
 2117TIP3    H127842   1.562   6.590   1.705  2.7203  0.2633 -0.3636
 2117TIP3    H227843   1.595   6.586   1.557 -0.1421 -2.0482 -1.0359
 2118TIP3   OH227844   1.626   5.008   1.889  0.2865 -0.3075  1.0697
 2118TIP3    H127845   1.597   4.957   1.813 -2.1958  1.5077  0.7089
 2118TIP3    H227846   1.651   5.093   1.853 -1.0378  0.6201  2.2461
 2119TIP3   OH227847   1.091   5.215   5.389  0.0079 -0.3285  0.2489
 2119TIP3    H127848   1.141   5.292   5.360 -0.8694 -0.2239 -1.0463
 2119TIP3    H227849   1.119   5.146   5.330 -1.0843 -0.3622 -0.2479
 2120TIP3   OH227850   3.013   1.481  15.198 -0.3452  0.0747  0.6338
 2120TIP3    H127851   3.089   1.451  15.149 -1.3221 -0.2026 -0.7820
 2120TIP3    H227852   2.948   1.411  15.188 -1.3550  1.0102  0.4292
 2121TIP3   OH227853   3.143   3.067  12.808  0.3481  0.2169  0.1625
 2121TIP3    H127854   3.194   3.089  12.887 -0.8872 -0.3043  1.1402
 2121TIP3    H227855   3.052   3.061  12.839 -0.2602  0.6489 -1.4405
 2122TIP3   OH227856   2.855   3.331  12.019 -0.4697 -0.8983 -0.3942
 2122TIP3    H127857   2.845   3.237  12.004  0.6523 -1.1798  0.4393
 2122TIP3    H227858   2.941   3.352  11.985 -0.5384 -0.2577 -0.1932
 2123TIP3   OH227859   3.998   1.173  14.122  0.4705  0.2978 -0.4145
 2123TIP3    H127860   4.041   1.182  14.037  0.8885 -0.5579 -0.3094
 2123TIP3    H227861   4.028   1.088  14.154 -0.6941  0.0373  0.0182
 2124TIP3   OH227862   6.215   2.861  13.830 -0.1828 -0.0988  0.0757
 2124TIP3    H127863   6.300   2.819  13.840  0.7961  1.5571 -0.8483
 2124TIP3    H227864   6.192   2.848  13.738 -0.5077  0.1804  0.1134
 2125TIP3   OH227865   2.336   2.657  12.740  0.3261 -0.4414 -0.0397
 2125TIP3    H127866   2.294   2.596  12.801 -1.8740  2.0108  1.0935
 2125TIP3    H227867   2.401   2.703  12.793  0.7311 -0.5686 -0.4208
 2126TIP3   OH227868   2.859   1.710   1.293  0.3675  0.2727  0.0320
 2126TIP3    H127869   2.942   1.755   1.309 -0.0200  0.8424  0.5057
 2126TIP3    H227870   2.876   1.619   1.318  1.0123  0.2621 -0.4332
 2127TIP3   OH227871   1.579   2.593   0.144 -0.0570  0.1625  0.3429
 2127TIP3    H127872   1.646   2.542   0.189 -1.0705 -1.2092  0.3614
 2127TIP3    H227873   1.616   2.681   0.137  0.6100  0.1484  2.8036
 2128TIP3   OH227874   2.391   2.280   5.549 -0.2030  0.7765 -0.3218
 2128TIP3    H127875   2.442   2.325   5.482  1.3763  1.3951  1.2228
 2128TIP3    H227876   2.331   2.346   5.583 -0.0986  0.8261 -0.2342
 2129TIP3   OH227877   3.552   5.483  16.156  0.1342 -0.1314  0.1106
 2129TIP3    H127878   3.487   5.513  16.220  0.8456  2.5694 -0.3124
 2129TIP3    H227879   3.514   5.403  16.120 -0.8552 -1.0888  2.9895
 2130TIP3   OH227880   2.587   5.663  16.538  0.3873  0.2323  0.0189
 2130TIP3    H127881   2.630   5.633  16.618  0.5187 -0.5100 -0.3215
 2130TIP3    H227882   2.526   5.730  16.567  0.6486  0.1752  0.7057
 2131TIP3   OH227883   1.855   2.511  11.730 -0.1960  0.0149 -0.0122
 2131TIP3    H127884   1.884   2.429  11.689  1.5923  0.6524 -0.1063
 2131TIP3    H227885   1.793   2.548  11.667  0.0490 -0.5942 -0.6290
 2132TIP3   OH227886   0.259   5.367   6.041  0.1209 -0.0871  0.1489
 2132TIP3    H127887   0.244   5.288   5.990  2.2617  0.5272 -1.6026
 2132TIP3    H227888   0.299   5.337   6.123  1.9507 -0.7977 -0.9656
 2133TIP3   OH227889   5.565   5.773  16.487  0.1233  0.3034 -0.5876
 2133TIP3    H127890   5.585   5.692  16.439 -0.4328  0.2423 -0.7253
 2133TIP3    H227891   5.562   5.840  16.419 -0.1845  0.3033 -0.5751
 2134TIP3   OH227892   5.953   3.094  16.031  0.8948  0.3263 -0.4361
 2134TIP3    H127893   5.977   3.104  15.939 -1.9708  0.5553 -1.2598
 2134TIP3    H227894   5.953   2.999  16.045  2.2272  0.3111 -0.3445
 2135TIP3   OH227895   3.618   0.433  15.658  0.0930  0.2654  0.4806
 2135TIP3    H127896   3.666   0.494  15.714 -0.5555  1.5465 -0.3062
 2135TIP3    H227897   3.527   0.443  15.684 -0.1119  0.2506 -0.2138
 2136TIP3   OH227898   2.907   0.362   4.628 -0.0319  0.4666  0.0220
 2136TIP3    H127899   2.920   0.455   4.646  2.5731  0.2903 -0.5067
 2136TIP3    H227900   2.893   0.323   4.714 -1.3994  1.3442  0.2280
 2137TIP3   OH227901   2.167   3.822   1.149  0.2123 -0.2389 -0.0121
 2137TIP3    H127902   2.170   3.917   1.144 -0.7998 -0.2136 -0.4515
 2137TIP3    H227903   2.258   3.795   1.153  0.5285  0.8569  2.5869
 2138TIP3   OH227904   1.334   6.563   2.376  0.1701  0.4438 -0.1790
 2138TIP3    H127905   1.345   6.652   2.343  0.8811 -0.0813 -1.4478
 2138TIP3    H227906   1.415   6.518   2.353  0.2787 -0.2545  1.4394
 2139TIP3   OH227907   0.454   3.338  14.592  0.4174 -0.5083  0.4213
 2139TIP3    H127908   0.496   3.270  14.644 -0.1812 -0.0833  1.5036
 2139TIP3    H227909   0.452   3.303  14.503  0.1662 -1.8849  0.9431
 2140TIP3   OH227910   1.551   6.525  13.364 -0.5958  0.6235 -0.3246
 2140TIP3    H127911   1.554   6.618  13.345 -0.0457  0.4819 -0.9625
 2140TIP3    H227912   1.492   6.489  13.298 -0.3077  0.4296 -0.4785
 2141TIP3   OH227913   0.661   0.890   5.238 -0.0131 -0.2455 -0.3287
 2141TIP3    H127914   0.675   0.898   5.144 -0.9650 -1.2620 -0.5841
 2141TIP3    H227915   0.652   0.796   5.253  0.6903 -0.1449  0.8772
 2142TIP3   OH227916   4.229   4.684   3.296  0.1353 -0.2358  0.5492
 2142TIP3    H127917   4.314   4.694   3.339 -0.3946 -0.3313  1.6603
 2142TIP3    H227918   4.250   4.664   3.205  1.3167 -0.9835  0.9634
 2143TIP3   OH227919   6.176   0.147  11.927 -0.3397 -0.1961 -1.1348
 2143TIP3    H127920   6.211   0.073  11.977 -0.1060 -0.1034 -1.1587
 2143TIP3    H227921   6.217   0.224  11.967 -0.7430 -0.0618 -0.9738
 2144TIP3   OH227922   4.931   6.541  14.975 -0.1623 -0.6651  0.2026
 2144TIP3    H127923   4.902   6.545  14.883  2.1778  1.5025 -0.5679
 2144TIP3    H227924   4.928   6.632  15.005  0.5607 -1.1218  1.7848
 2145TIP3   OH227925   4.880   4.062   1.792  0.0127  0.2236 -0.5174
 2145TIP3    H127926   4.894   4.152   1.760 -0.7677  0.4218 -0.3243
 2145TIP3    H227927   4.788   4.061   1.820 -0.1939 -0.8518 -1.2020
 2146TIP3   OH227928   1.479   3.799  16.399  0.8377 -0.0904  0.6779
 2146TIP3    H127929   1.472   3.747  16.319 -1.2268  0.1408  0.6548
 2146TIP3    H227930   1.529   3.876  16.374 -0.9006  0.6321 -0.7937
 2147TIP3   OH227931   4.947   3.376   6.222 -0.0172 -0.2157 -0.0187
 2147TIP3    H127932   4.918   3.285   6.224  0.6262 -0.4530 -0.6634
 2147TIP3    H227933   4.991   3.390   6.306  0.9469 -0.8844 -0.3898
 2148TIP3   OH227934   1.572   2.571  10.598 -0.0449  0.1771 -0.1582
 2148TIP3    H127935   1.649   2.622  10.625  0.1889 -0.1267 -0.2396
 2148TIP3    H227936   1.581   2.488  10.644  1.6969 -1.3629 -2.9189
 2149TIP3   OH227937   3.621   1.584   1.951 -0.5821  0.6179  0.7171
 2149TIP3    H127938   3.631   1.542   1.865 -1.4419  0.0199  0.9045
 2149TIP3    H227939   3.609   1.512   2.012 -3.1595  1.1052  0.9083
 2150TIP3   OH227940   6.199   5.482  14.785  0.3624  0.1565 -0.1614
 2150TIP3    H127941   6.271   5.430  14.820  0.1632 -0.2387 -0.3411
 2150TIP3    H227942   6.137   5.487  14.858 -0.0540 -0.6703 -0.4494
 2151TIP3   OH227943   0.274   2.383   4.323  0.0250  0.3934  0.2296
 2151TIP3    H127944   0.269   2.403   4.416 -0.2416  0.9252  0.1052
 2151TIP3    H227945   0.308   2.293   4.319 -1.4465 -0.2295  0.8898
 2152TIP3   OH227946   6.318   3.394  12.245 -0.1327  0.0237  0.9325
 2152TIP3    H127947   6.384   3.325  12.242  0.4229  0.5275  1.2764
 2152TIP3    H227948   6.237   3.349  12.270 -0.1624 -0.7649 -0.4750
 2153TIP3   OH227949   5.310   1.967   0.930 -0.2445 -0.0951 -0.3326
 2153TIP3    H127950   5.301   1.957   1.025  0.9610  0.1159 -0.1814
 2153TIP3    H227951   5.397   2.004   0.918 -1.0313  1.5213 -1.4214
 2154TIP3   OH227952   0.925   4.326  12.243  0.0795  0.4120 -0.6088
 2154TIP3    H127953   0.861   4.381  12.288  1.1439  0.2344  1.2445
 2154TIP3    H227954   0.986   4.387  12.202 -1.5794  0.5955 -2.9984
 2155TIP3   OH227955   6.047   0.741   0.204  0.1577  0.3315  0.0340
 2155TIP3    H127956   6.080   0.826   0.173  1.5032  0.1386  0.8635
 2155TIP3    H227957   5.976   0.764   0.265 -1.8326  0.7325 -2.2726
 2156TIP3   OH227958   2.442   3.545  13.232  0.1315  0.0697 -0.0541
 2156TIP3    H127959   2.509   3.612  13.223  0.2737 -0.2302 -1.3975
 2156TIP3    H227960   2.378   3.584  13.293 -0.0472  1.6471 -1.1729
 2157TIP3   OH227961   4.074   5.083  15.203 -0.2387 -0.1829 -0.0789
 2157TIP3    H127962   4.041   5.099  15.291 -0.4666 -2.6511  0.3730
 2157TIP3    H227963   4.028   5.004  15.175  0.4240  0.1004 -2.1094
 2158TIP3   OH227964   2.411   0.525  10.485 -0.1647  0.0697  0.7774
 2158TIP3    H127965   2.388   0.591  10.420 -1.9217  0.1149  1.4006
 2158TIP3    H227966   2.475   0.468  10.441  1.2510  2.0308  0.1618
 2159TIP3   OH227967   5.735   1.235  14.702 -0.5615  0.4848 -0.5150
 2159TIP3    H127968   5.665   1.287  14.741 -1.6666 -1.3979  0.1593
 2159TIP3    H227969   5.699   1.203  14.619  0.2222  1.0080 -1.0815
 2160TIP3   OH227970   4.741   3.745   2.082 -0.2006 -0.0416  0.2967
 2160TIP3    H127971   4.759   3.658   2.117 -2.4393  0.0714  2.0005
 2160TIP3    H227972   4.810   3.761   2.018  0.5760 -2.8268  0.3338
 2161TIP3   OH227973   6.014   5.769   5.369 -0.1929  0.3623  0.3332
 2161TIP3    H127974   6.003   5.721   5.451 -1.4742 -0.5380 -0.3389
 2161TIP3    H227975   6.070   5.714   5.315 -0.7462  0.1315 -0.0186
 2162TIP3   OH227976   1.122   2.546   1.389  0.0745  0.1440  0.0345
 2162TIP3    H127977   1.124   2.608   1.316  1.1514 -0.4612 -0.4718
 2162TIP3    H227978   1.048   2.488   1.370  0.5492 -0.2141 -0.7624
 2163TIP3   OH227979   5.754   6.086   0.710 -0.3301 -0.1686 -0.0177
 2163TIP3    H127980   5.745   6.003   0.664  0.7043  0.8521 -2.1810
 2163TIP3    H227981   5.842   6.116   0.689 -0.8276  1.6782  0.3447
 2164TIP3   OH227982   5.103   6.067  15.997 -0.3551 -0.1026 -0.2510
 2164TIP3    H127983   5.133   6.014  15.924  0.1790  0.3669 -0.3829
 2164TIP3    H227984   5.058   6.141  15.957 -2.0639 -0.9848 -0.0494
 2165TIP3   OH227985   0.029   1.216   2.233  0.3642 -0.3376  0.6266
 2165TIP3    H127986   0.098   1.271   2.196  3.5457 -3.2757  1.6747
 2165TIP3    H227987  -0.016   1.273   2.295  1.6573  1.8272 -0.3192
 2166TIP3   OH227988   2.037   4.339   4.818  0.2052 -0.3190  0.4730
 2166TIP3    H127989   2.011   4.247   4.820 -2.6566  0.3587 -0.4149
 2166TIP3    H227990   2.016   4.371   4.906  0.7535 -0.4098  0.6367
 2167TIP3   OH227991   4.636   4.238   5.410  0.3029 -0.3808 -0.4283
 2167TIP3    H127992   4.676   4.178   5.473 -0.1281 -0.4334 -0.1944
 2167TIP3    H227993   4.679   4.220   5.327 -1.8598 -3.1548 -1.0834
 2168TIP3   OH227994   5.654   0.514   5.762  0.1561  0.1450  0.2119
 2168TIP3    H127995   5.579   0.458   5.741  0.1535  0.6743 -1.2890
 2168TIP3    H227996   5.707   0.514   5.682  1.0739  0.8616  0.8006
 2169TIP3   OH227997   1.578   0.705   2.886  0.6949  0.3616  0.4881
 2169TIP3    H127998   1.540   0.717   2.799 -1.1994 -0.9522  1.0868
 2169TIP3    H227999   1.640   0.633   2.876 -0.1078 -0.3242  0.3785
 2170TIP3   OH228000   2.174   3.211   2.455 -0.6075  0.5395 -0.3809
 2170TIP3    H128001   2.087   3.191   2.489 -1.0427 -0.0565 -1.7653
 2170TIP3    H228002   2.221   3.127   2.459 -0.8836  0.2859 -1.7957
 2171TIP3   OH228003   5.564   2.489  15.511  0.2394 -0.8012  0.0143
 2171TIP3    H128004   5.638   2.517  15.457  0.8825 -3.1694 -0.4221
 2171TIP3    H228005   5.603   2.436  15.580 -0.9893 -1.4277  0.2511
 2172TIP3   OH228006   1.424   5.286  12.814  0.1652  0.6982 -0.4598
 2172TIP3    H128007   1.419   5.223  12.742 -0.2778  0.5656 -0.3122
 2172TIP3    H228008   1.469   5.362  12.776 -0.6151  0.8708 -1.0531
 2173TIP3   OH228009   4.397   3.106  16.158 -0.0174  0.3710 -0.2366
 2173TIP3    H128010   4.421   3.197  16.144  0.4387  0.3281  0.2756
 2173TIP3    H228011   4.304   3.102  16.134 -0.2973  1.1768  0.6708
 2174TIP3   OH228012   4.608   2.465   5.656  0.6527 -0.1436 -0.0984
 2174TIP3    H128013   4.703   2.480   5.653  0.5129  1.0882  0.7235
 2174TIP3    H228014   4.593   2.394   5.594  2.0550 -0.0517 -0.5820
 2175TIP3   OH228015   2.300   4.392   4.673  0.0821  0.0003  0.2122
 2175TIP3    H128016   2.375   4.397   4.732 -0.7805  0.6870  1.2867
 2175TIP3    H228017   2.224   4.380   4.730 -0.7524  0.4010 -0.7667
 2176TIP3   OH228018   4.180   3.870  17.050 -0.1231  0.5739  0.1880
 2176TIP3    H128019   4.261   3.919  17.034  0.2729 -0.2795 -0.4419
 2176TIP3    H228020   4.121   3.896  16.979 -0.3690  1.0779  0.5616
 2177TIP3   OH228021   6.795   0.375  13.728 -0.9774  0.1355  0.1436
 2177TIP3    H128022   6.871   0.408  13.679 -0.1893 -0.5919  0.8442
 2177TIP3    H228023   6.819   0.286  13.751 -2.3033 -0.2954 -0.1081
 2178TIP3   OH228024   6.540   5.086  15.458 -0.1517 -0.2982  0.3530
 2178TIP3    H128025   6.557   5.140  15.381 -0.3180 -1.4649 -0.5232
 2178TIP3    H228026   6.610   5.022  15.459  0.7014  0.5910  2.0425
 2179TIP3   OH228027   1.825   5.526   0.710  0.0932  0.1540  0.1808
 2179TIP3    H128028   1.836   5.617   0.682 -0.9862  0.7007  1.4082
 2179TIP3    H228029   1.877   5.519   0.790  1.3167 -0.7380 -0.6607
 2180TIP3   OH228030   1.201   5.264  16.938 -0.4450  0.3173 -0.3309
 2180TIP3    H128031   1.290   5.300  16.937  0.9227 -2.4404  2.9804
 2180TIP3    H228032   1.208   5.181  16.891 -0.9909 -0.3892  0.7948
 2181TIP3   OH228033   5.781   1.635  15.732 -0.0470  0.0641  0.4054
 2181TIP3    H128034   5.844   1.621  15.803  0.9236  2.9919  0.2560
 2181TIP3    H228035   5.826   1.604  15.654 -0.0999 -0.8423  0.7292
 2182TIP3   OH228036   1.929   2.603  13.270  0.0486  0.4838 -0.4420
 2182TIP3    H128037   1.929   2.655  13.190  0.9516 -1.6589 -1.9085
 2182TIP3    H228038   2.022   2.595  13.293  0.0144 -1.2970 -0.8332
 2183TIP3   OH228039   5.056   0.773  16.466  0.5017 -0.0552  0.1548
 2183TIP3    H128040   4.964   0.797  16.478 -0.0670  0.2255 -3.7541
 2183TIP3    H228041   5.055   0.678  16.458  0.7569 -0.1502  1.0489
 2184TIP3   OH228042   2.847   0.390  11.063 -0.2860 -0.0749  0.2365
 2184TIP3    H128043   2.903   0.427  11.132 -0.7560 -1.3432  1.3292
 2184TIP3    H228044   2.758   0.408  11.093 -0.5015  0.6453 -0.7829
 2185TIP3   OH228045   1.104   4.027  13.132 -0.2555  0.5455 -0.1439
 2185TIP3    H128046   1.011   4.026  13.154 -0.1562 -0.7911  0.2857
 2185TIP3    H228047   1.146   3.981  13.205  0.7632  1.2524 -0.2652
 2186TIP3   OH228048   4.667   1.432   5.739  0.0264  0.2834  0.3025
 2186TIP3    H128049   4.686   1.512   5.690  2.2312  0.4493  1.3215
 2186TIP3    H228050   4.647   1.462   5.828  0.3890 -0.2702  0.5754
 2187TIP3   OH228051   5.351   5.804  12.460 -0.4802  0.8097 -0.6997
 2187TIP3    H128052   5.339   5.819  12.554 -0.6314 -1.5445 -0.2841
 2187TIP3    H228053   5.437   5.764  12.453 -1.7497 -2.0732 -1.1074
 2188TIP3   OH228054   6.371   5.647  14.511  0.2687 -0.3932 -0.2848
 2188TIP3    H128055   6.453   5.680  14.475  1.3863 -0.0508  2.3372
 2188TIP3    H228056   6.353   5.704  14.586 -2.6682 -0.1648 -1.0489
 2189TIP3   OH228057   3.303   5.775  15.897 -0.5246 -0.3041  0.4409
 2189TIP3    H128058   3.248   5.819  15.833  1.4418  0.5061 -0.7837
 2189TIP3    H228059   3.272   5.684  15.898 -0.1986 -0.5169 -2.1912
 2190TIP3   OH228060   1.349   5.855  12.580  0.0577  0.2206 -0.2311
 2190TIP3    H128061   1.355   5.939  12.535 -0.5617 -0.4764 -1.6700
 2190TIP3    H228062   1.272   5.813  12.541  0.2587 -0.9496  0.5933
 2191TIP3   OH228063   3.153   2.742  15.872  1.2658  0.6766  0.8108
 2191TIP3    H128064   3.137   2.800  15.947  1.1201 -0.9199  2.0718
 2191TIP3    H228065   3.233   2.696  15.894  1.1526  0.0830  0.0191
 2192TIP3   OH228066   2.173   4.569  10.575 -0.1156 -0.1520 -0.2809
 2192TIP3    H128067   2.131   4.654  10.567 -0.3072 -0.2968 -0.9243
 2192TIP3    H228068   2.260   4.582  10.538  1.3987  0.7789  3.2216
 2193TIP3   OH228069   0.736   1.603   0.787  0.3965 -0.1869  0.0022
 2193TIP3    H128070   0.648   1.641   0.784  0.2582 -0.5301 -0.5553
 2193TIP3    H228071   0.725   1.519   0.832  0.3690 -0.3991 -0.3956
 2194TIP3   OH228072   1.130   5.968   1.935 -0.3294  0.2795  0.4528
 2194TIP3    H128073   1.202   5.995   1.991 -0.6898 -0.8541  1.5097
 2194TIP3    H228074   1.171   5.952   1.850  0.4102  1.0194  0.6545
 2195TIP3   OH228075   0.705   5.022  12.896 -0.6190  0.2482 -0.3389
 2195TIP3    H128076   0.636   4.964  12.929  1.8931 -1.7958  1.7026
 2195TIP3    H228077   0.674   5.110  12.916 -1.9449 -0.6745  2.0185
 2196TIP3   OH228078   1.067   4.838   0.941  0.1914 -0.5409 -0.4943
 2196TIP3    H128079   1.082   4.747   0.968  1.9221  0.0388  0.6594
 2196TIP3    H228080   0.974   4.842   0.922 -0.1731 -2.2321  0.6980
 2197TIP3   OH228081   6.056   4.364   6.451  0.0186  0.4351 -0.7638
 2197TIP3    H128082   6.043   4.344   6.544  0.1966  1.4716 -0.5092
 2197TIP3    H228083   6.008   4.295   6.405  2.1249 -1.7211  0.0288
 2198TIP3   OH228084   2.583   5.900   1.559  0.0532 -0.0273  0.2042
 2198TIP3    H128085   2.622   5.978   1.597 -0.0768 -0.3411  0.9969
 2198TIP3    H228086   2.495   5.927   1.534 -0.1887 -0.0687  1.0015
 2199TIP3   OH228087   3.360   2.438   0.337  0.4216 -0.1416 -0.3841
 2199TIP3    H128088   3.279   2.388   0.330 -0.4605  1.3685 -1.4174
 2199TIP3    H228089   3.420   2.395   0.275  0.6512 -1.5955  0.7794
 2200TIP3   OH228090   1.302   3.031   2.999  0.4529  0.8090  0.1038
 2200TIP3    H128091   1.328   2.985   2.919 -0.0925  0.7653 -0.0477
 2200TIP3    H228092   1.298   2.962   3.065  0.4542  0.7730  0.0667
 2201TIP3   OH228093   4.473   3.567   6.349  0.0814 -0.0929  0.8232
 2201TIP3    H128094   4.439   3.482   6.377 -0.3312 -0.4928 -0.7689
 2201TIP3    H228095   4.437   3.580   6.262  0.4666  1.5482  0.8660
 2202TIP3   OH228096   1.206   1.951  12.785  0.0390  0.0191  0.2522
 2202TIP3    H128097   1.301   1.962  12.797  0.0931  1.8088 -1.2034
 2202TIP3    H228098   1.198   1.914  12.697 -0.6154 -0.5182  0.5311
 2203TIP3   OH228099   0.907   0.806  16.456  0.0115 -0.3391 -0.2769
 2203TIP3    H128100   0.891   0.856  16.537  0.5009 -1.9231  0.8577
 2203TIP3    H228101   0.949   0.869  16.397 -0.5046  0.9115  0.6294
 2204TIP3   OH228102   2.189   1.986  14.293 -0.3442  0.0687  0.0481
 2204TIP3    H128103   2.109   1.961  14.340 -0.0116  0.3095  0.7520
 2204TIP3    H228104   2.258   1.933  14.332  0.0698  0.8224  0.3707
 2205TIP3   OH228105   6.186   0.218   1.275 -0.5923  0.1481 -0.7547
 2205TIP3    H128106   6.152   0.174   1.353 -1.7642 -0.7035 -1.7125
 2205TIP3    H228107   6.113   0.217   1.213  0.8935 -0.9802 -2.5942
 2206TIP3   OH228108   6.419   1.732  15.168  0.0639 -0.2993  0.1357
 2206TIP3    H128109   6.497   1.728  15.114 -0.2080  1.3541 -0.4143
 2206TIP3    H228110   6.376   1.647  15.154  0.9159 -0.5916 -0.8155
 2207TIP3   OH228111   3.540   0.290   0.534 -0.3243 -0.0151  0.4312
 2207TIP3    H128112   3.483   0.231   0.583 -0.9851  0.3177  0.0661
 2207TIP3    H228113   3.568   0.239   0.458 -0.5633 -0.0024  0.3333
 2208TIP3   OH228114   2.647   6.738   1.101 -0.4858 -0.1251 -0.2587
 2208TIP3    H128115   2.625   6.723   1.193 -1.3592 -2.4734 -0.7839
 2208TIP3    H228116   2.568   6.714   1.053 -0.0869  1.1921 -1.6540
 2209TIP3   OH228117   5.165   4.257  16.764  0.0532  0.1787 -0.2173
 2209TIP3    H128118   5.229   4.197  16.726  1.0407  0.1021  1.4424
 2209TIP3    H228119   5.122   4.206  16.833 -1.4834  0.3882 -0.9752
 2210TIP3   OH228120   5.759   2.518   1.129  0.1702  0.0061 -0.2801
 2210TIP3    H128121   5.741   2.445   1.071 -2.1962  0.8296 -0.6588
 2210TIP3    H228122   5.714   2.496   1.211  1.4575 -0.0294  0.4550
 2211TIP3   OH228123   6.560   0.375   2.124 -0.2494  0.0123 -0.2113
 2211TIP3    H128124   6.573   0.402   2.215 -0.3933  0.6855 -0.3836
 2211TIP3    H228125   6.474   0.333   2.124 -0.9118  1.3107 -0.2996
 2212TIP3   OH228126   2.893   3.979  12.137  0.2417  0.0001 -0.3157
 2212TIP3    H128127   2.845   3.935  12.067 -0.1958  0.8252 -0.5570
 2212TIP3    H228128   2.863   3.937  12.217 -0.1831 -0.1256 -0.5373
 2213TIP3   OH228129   5.336   1.884  13.076 -0.3605  0.0014  0.5112
 2213TIP3    H128130   5.420   1.916  13.110 -1.1654  1.8044  0.9418
 2213TIP3    H228131   5.284   1.866  13.154 -0.5221 -0.7072  0.2456
 2214TIP3   OH228132   2.621   6.537   5.890  0.4142 -0.1074 -0.1321
 2214TIP3    H128133   2.700   6.590   5.877  1.7264 -2.1455 -0.9339
 2214TIP3    H228134   2.637   6.458   5.838 -2.5169 -0.2654 -0.9592
 2215TIP3   OH228135   2.864   4.843   2.446 -0.4331 -0.1750 -0.7617
 2215TIP3    H128136   2.955   4.837   2.417 -0.3832 -0.7511 -0.5058
 2215TIP3    H228137   2.855   4.933   2.476 -0.5118  0.4672 -2.5887
 2216TIP3   OH228138   2.423   1.596  15.013  0.9453  0.4273 -0.0938
 2216TIP3    H128139   2.492   1.534  15.037 -1.2586 -2.6060 -0.8876
 2216TIP3    H228140   2.403   1.574  14.922 -1.1254  1.1018  0.1632
 2217TIP3   OH228141   6.211   3.059  12.306 -0.3918 -0.3775 -0.5178
 2217TIP3    H128142   6.263   3.070  12.226  0.4043  0.9341  0.1649
 2217TIP3    H228143   6.270   3.082  12.377 -1.2963 -0.8910  0.4263
 2218TIP3   OH228144   2.585   5.141  12.242  0.0853  0.4979 -0.0806
 2218TIP3    H128145   2.616   5.138  12.333  1.7174 -0.4358 -0.6278
 2218TIP3    H228146   2.531   5.062  12.233  1.5127 -0.4812 -0.4193
 2219TIP3   OH228147   2.773   1.681   4.074 -0.0598  0.1962 -0.4088
 2219TIP3    H128148   2.758   1.736   3.996 -1.4530 -0.4357 -0.6201
 2219TIP3    H228149   2.771   1.592   4.041  0.6503 -0.0352  0.1659
 2220TIP3   OH228150   3.808   4.017   5.484  0.1598  0.2681 -0.4107
 2220TIP3    H128151   3.801   3.944   5.422  0.4222 -0.6401  0.5856
 2220TIP3    H228152   3.902   4.036   5.488  0.2859 -0.4617  0.5467
 2221TIP3   OH228153   2.163   5.471  12.941 -0.0008 -1.0226  0.2984
 2221TIP3    H128154   2.131   5.423  12.865 -0.8027  0.0439 -0.0569
 2221TIP3    H228155   2.200   5.552  12.905  0.3436 -0.8701  0.9706
 2222TIP3   OH228156   3.401   0.543  12.550  0.0520 -0.3408  0.1626
 2222TIP3    H128157   3.369   0.633  12.553  0.2610 -0.2301 -0.6575
 2222TIP3    H228158   3.492   0.550  12.521  0.2673 -0.7816  0.6941
 2223TIP3   OH228159   4.175   4.564  14.942  0.1108 -0.0576 -0.1397
 2223TIP3    H128160   4.265   4.535  14.937  0.2552  0.3884 -0.2318
 2223TIP3    H228161   4.145   4.537  15.029  0.8137  1.1178  0.4977
 2224TIP3   OH228162   3.893   4.854  13.193 -0.1507 -0.5206  0.4472
 2224TIP3    H128163   3.817   4.796  13.204 -0.4095 -0.2506  0.1082
 2224TIP3    H228164   3.861   4.939  13.224 -0.4432 -0.0704 -1.0115
 2225TIP3   OH228165   5.972   1.084  15.160  0.1591 -0.6979  0.3495
 2225TIP3    H128166   5.983   1.149  15.090  0.6608 -2.0943 -0.9374
 2225TIP3    H228167   5.878   1.083  15.177  0.1098  0.1490  0.1784
 2226TIP3   OH228168   4.377   4.162  11.846 -0.1922  0.3844 -0.0492
 2226TIP3    H128169   4.345   4.222  11.779  1.3814  0.0952 -1.1119
 2226TIP3    H228170   4.394   4.080  11.799  0.7309  0.1035  0.7385
 2227TIP3   OH228171   1.518   3.086  15.902 -0.5532  0.0349  0.2809
 2227TIP3    H128172   1.433   3.077  15.945 -0.5645  2.7632  1.0035
 2227TIP3    H228173   1.542   3.178  15.914  1.5142 -0.1313 -1.7867
 2228TIP3   OH228174   5.548   2.033   2.214  0.3731 -0.0032 -0.1946
 2228TIP3    H128175   5.458   2.048   2.243  0.5073 -1.4275  1.0353
 2228TIP3    H228176   5.538   1.983   2.133  0.0650  0.6619 -0.5832
 2229TIP3   OH228177   6.640   1.983   3.753 -0.0082  0.0382  0.3559
 2229TIP3    H128178   6.731   2.004   3.772 -0.7821  2.4510  1.8646
 2229TIP3    H228179   6.620   2.028   3.671 -0.1271  0.4872  0.6260
 2230TIP3   OH228180   3.027   6.561   5.587 -0.3758  0.2385  0.4567
 2230TIP3    H128181   3.106   6.592   5.544 -0.3766 -0.1505  0.1706
 2230TIP3    H228182   3.048   6.473   5.617 -1.2941 -0.6590 -1.3369
 2231TIP3   OH228183   6.692   0.550   5.136  0.2152  0.2120  0.1025
 2231TIP3    H128184   6.711   0.474   5.191  0.1494  0.0294 -0.1271
 2231TIP3    H228185   6.615   0.589   5.177 -0.6387 -0.6724 -0.6009
 2232TIP3   OH228186   3.926   2.000   4.743  0.3315 -0.0078 -0.1030
 2232TIP3    H128187   3.889   2.035   4.662  0.7469  1.3551  0.2522
 2232TIP3    H228188   3.973   2.075   4.781  3.4077 -1.5945 -0.4992
 2233TIP3   OH228189   0.127   6.717  12.746 -0.2323 -0.9036 -0.3365
 2233TIP3    H128190   0.214   6.755  12.744  0.0335 -1.2244  1.8437
 2233TIP3    H228191   0.135   6.633  12.700  0.5145 -0.7608 -0.4714
 2234TIP3   OH228192   3.517   4.443  10.989  0.2802 -0.1009 -0.5566
 2234TIP3    H128193   3.564   4.470  11.068  0.1968  0.3242 -0.6503
 2234TIP3    H228194   3.442   4.502  10.984 -0.5595 -1.1051 -0.1331
 2235TIP3   OH228195   5.422   4.262   0.766  0.2945  0.5348  0.1195
 2235TIP3    H128196   5.381   4.296   0.845 -2.0271 -0.9273 -0.3607
 2235TIP3    H228197   5.515   4.253   0.789  0.3102  3.1565  1.5577
 2236TIP3   OH228198   3.082   4.760   0.714  0.2165 -0.8639 -0.2208
 2236TIP3    H128199   3.132   4.808   0.780 -1.3325 -0.7790  0.9761
 2236TIP3    H228200   3.099   4.805   0.632  1.2020 -0.1773  0.3483
 2237TIP3   OH228201   3.161   3.362   2.716 -0.6070  0.3268  0.2631
 2237TIP3    H128202   3.082   3.343   2.767 -0.3177  0.2211  0.6742
 2237TIP3    H228203   3.140   3.443   2.669 -0.7381  0.6473  0.8529
 2238TIP3   OH228204   3.201   3.989  13.630 -0.2353  0.4023  0.0307
 2238TIP3    H128205   3.241   3.906  13.603  2.4983  0.9442  1.9829
 2238TIP3    H228206   3.165   3.971  13.717 -1.6952  0.7317 -0.4740
 2239TIP3   OH228207   3.212   1.274   1.101  0.1289  0.2647  0.4830
 2239TIP3    H128208   3.280   1.266   1.168 -0.4319 -0.9524  0.9300
 2239TIP3    H228209   3.200   1.186   1.068 -0.3646  0.6802 -0.4730
 2240TIP3   OH228210   2.660   3.415   1.097 -0.3331 -0.1762  0.8657
 2240TIP3    H128211   2.620   3.418   1.184 -0.8611  0.8227  0.6028
 2240TIP3    H228212   2.725   3.485   1.098 -1.7170  1.1856 -0.1783
 2241TIP3   OH228213   3.927   1.287   1.585  0.1647  0.5719  0.3918
 2241TIP3    H128214   3.837   1.255   1.588  0.3090  0.1056 -0.0945
 2241TIP3    H228215   3.957   1.266   1.496  1.4107 -1.0648  1.1628
 2242TIP3   OH228216   3.831   6.729   5.859  0.7015 -0.4640 -0.0774
 2242TIP3    H128217   3.894   6.686   5.800  1.7761 -0.7192  1.1996
 2242TIP3    H228218   3.857   6.699   5.946 -1.2851 -0.6565  0.4920
 2243TIP3   OH228219   2.554   3.549  16.317 -0.4625  0.4187  0.1585
 2243TIP3    H128220   2.605   3.512  16.245 -0.6990  0.8128 -0.2206
 2243TIP3    H228221   2.585   3.639  16.325 -0.6395  0.4629  0.3629
 2244TIP3   OH228222   6.012   6.081   2.898  0.1050  0.0767  0.1026
 2244TIP3    H128223   5.986   6.126   2.978  0.2369  1.4439 -0.5867
 2244TIP3    H228224   6.053   6.150   2.844  1.4710 -1.1460 -0.4839
 2245TIP3   OH228225   4.277   4.606   1.269  0.1212  0.3793 -0.2460
 2245TIP3    H128226   4.309   4.599   1.180 -1.0706  0.8524 -0.7365
 2245TIP3    H228227   4.204   4.543   1.273 -0.1104  0.6718  0.2482
 2246TIP3   OH228228   6.777   0.507  12.366 -0.3574 -0.0644  0.3918
 2246TIP3    H128229   6.706   0.551  12.318 -1.1766  0.2912  1.8924
 2246TIP3    H228230   6.834   0.473  12.297 -0.0042  2.8208 -0.8837
 2247TIP3   OH228231   1.360   2.419  16.056 -0.0098 -0.0154  0.3504
 2247TIP3    H128232   1.310   2.433  16.137  0.5489  2.7061  0.3239
 2247TIP3    H228233   1.349   2.500  16.007  0.8023 -1.0853 -1.7035
 2248TIP3   OH228234   0.528   4.920   0.122  0.0467  0.0177 -0.1058
 2248TIP3    H128235   0.549   4.830   0.147  1.2123 -0.4283 -2.4921
 2248TIP3    H228236   0.600   4.948   0.066 -1.0334  1.9306 -0.6414
 2249TIP3   OH228237   5.245   2.874  13.782 -0.1024 -0.0483  0.2399
 2249TIP3    H128238   5.267   2.923  13.861  1.5113  0.4158 -0.4435
 2249TIP3    H228239   5.192   2.935  13.730 -1.6955 -0.5716  1.1812
 2250TIP3   OH228240   3.385   5.432  14.052 -0.6692 -0.0133  0.1258
 2250TIP3    H128241   3.469   5.434  14.098 -1.2638  1.1594  1.2272
 2250TIP3    H228242   3.382   5.514  14.003 -0.9727 -0.2515 -0.2581
 2251TIP3   OH228243   5.071   5.767  11.314 -0.2114 -0.3063 -0.0793
 2251TIP3    H128244   5.132   5.694  11.326 -0.1616 -0.2769 -0.1536
 2251TIP3    H228245   5.119   5.843  11.347 -0.5880 -0.4422  0.8198
 2252TIP3   OH228246   1.553   0.904   3.228 -0.1115  0.1488  0.3498
 2252TIP3    H128247   1.611   0.852   3.172 -1.4335 -0.6970 -0.2850
 2252TIP3    H228248   1.471   0.909   3.179 -0.7785  0.7915  1.4979
 2253TIP3   OH228249   2.159   3.981   2.305 -0.0797  0.3953 -0.6269
 2253TIP3    H128250   2.066   3.982   2.286 -0.8335  3.5564  2.3499
 2253TIP3    H228251   2.169   3.915   2.373 -0.5067  1.2420  0.2784
 2254TIP3   OH228252   0.737   4.266   3.440  0.5964 -0.1605  0.0947
 2254TIP3    H128253   0.819   4.307   3.467  0.5356  1.2397 -1.6522
 2254TIP3    H228254   0.669   4.330   3.463  0.1483 -0.6336  0.1233
 2255TIP3   OH228255   5.293   6.182  15.758 -0.2000 -0.2909 -0.1766
 2255TIP3    H128256   5.298   6.197  15.852  0.6865  0.8024 -0.3774
 2255TIP3    H228257   5.383   6.164  15.731 -0.5931 -1.6717 -0.6665
 2256TIP3   OH228258   2.482   1.836  14.147  0.0793 -0.0554  0.6404
 2256TIP3    H128259   2.516   1.842  14.235  2.6543 -2.0739 -0.0884
 2256TIP3    H228260   2.507   1.918  14.105 -1.4689  1.0704  1.7764
 2257TIP3   OH228261   1.234   4.301  16.681  0.3270  0.0426 -0.5636
 2257TIP3    H128262   1.149   4.275  16.646 -0.7630  0.9823  1.2593
 2257TIP3    H228263   1.267   4.222  16.723 -0.9590  0.3551  1.1311
 2258TIP3   OH228264   3.525   0.288   1.869 -0.1683 -0.7843  0.1588
 2258TIP3    H128265   3.517   0.271   1.962  0.5353  0.9079  0.5575
 2258TIP3    H228266   3.619   0.282   1.852 -0.2035 -0.2314 -0.2560
 2259TIP3   OH228267   1.417   4.530  17.027 -0.0342  0.5944 -0.3086
 2259TIP3    H128268   1.363   4.607  17.044  2.6434  2.7409 -0.8301
 2259TIP3    H228269   1.480   4.559  16.960  0.2252 -2.4965 -1.5678
 2260TIP3   OH228270   4.734   4.282   2.518  0.3571 -0.0799 -0.1990
 2260TIP3    H128271   4.737   4.354   2.455  0.8039  1.1125  1.1325
 2260TIP3    H228272   4.814   4.291   2.570 -0.4434 -0.4293  1.1662
 2261TIP3   OH228273   6.100   4.513  15.512  0.5576  0.0945 -0.3460
 2261TIP3    H128274   6.016   4.520  15.558  1.1096  1.1978  0.5576
 2261TIP3    H228275   6.082   4.548  15.425  0.1196  0.5175 -0.0959
 2262TIP3   OH228276   5.664   4.497  11.769 -0.0581 -0.0928  0.7677
 2262TIP3    H128277   5.730   4.435  11.800 -2.5709 -2.2038  2.3178
 2262TIP3    H228278   5.638   4.546  11.847 -0.6140  0.4399  0.2607
 2263TIP3   OH228279   3.025   6.276   1.505 -0.4190 -0.3998 -0.2608
 2263TIP3    H128280   3.000   6.337   1.574 -2.8747 -1.6792  0.1074
 2263TIP3    H228281   3.074   6.208   1.549 -0.2493 -0.2032 -0.1445
 2264TIP3   OH228282   5.422   4.434  11.028 -0.3796 -0.9189  0.2308
 2264TIP3    H128283   5.386   4.346  11.015 -1.3034 -0.5432  0.1910
 2264TIP3    H228284   5.348   4.493  11.011  0.5772 -0.0687 -1.1559
 2265TIP3   OH228285   4.493   0.221   5.731 -0.4716 -0.0336  0.3320
 2265TIP3    H128286   4.498   0.315   5.711  0.6583 -0.1128  0.1607
 2265TIP3    H228287   4.522   0.215   5.822  3.2892 -0.5392 -0.7251
 2266TIP3   OH228288   5.670   1.510  15.096 -0.1746 -0.0816  0.2141
 2266TIP3    H128289   5.581   1.489  15.068 -0.0226 -0.8443  0.3018
 2266TIP3    H228290   5.714   1.536  15.015  0.2938 -2.3958 -0.3470
 2267TIP3   OH228291   3.394   5.788  17.032 -0.2935  0.0509 -0.5244
 2267TIP3    H128292   3.486   5.775  17.056 -0.7823 -1.4466  0.6536
 2267TIP3    H228293   3.354   5.825  17.111 -0.4770  1.9470 -1.4513
 2268TIP3   OH228294   5.299   0.271  14.849 -0.1595  0.7259 -0.4101
 2268TIP3    H128295   5.291   0.309  14.937 -0.0918  1.4805 -0.7190
 2268TIP3    H228296   5.336   0.342  14.796  1.8073 -0.3793 -0.5940
 2269TIP3   OH228297   1.157   0.299   4.078 -0.1366 -0.0570 -0.1609
 2269TIP3    H128298   1.125   0.241   4.009 -2.0521 -0.2516  0.8312
 2269TIP3    H228299   1.105   0.378   4.069 -0.7801 -0.2742  1.3376
 2270TIP3   OH228300   4.724   2.563   4.767 -0.3623 -0.4691 -0.8026
 2270TIP3    H128301   4.779   2.623   4.817  1.1052 -2.4910  0.1620
 2270TIP3    H228302   4.634   2.588   4.789  0.1817  1.3591 -0.4954
 2271TIP3   OH228303   4.650   4.069   1.943  0.2747 -0.2890 -0.0649
 2271TIP3    H128304   4.589   4.135   1.976 -1.2938 -0.8094 -1.7395
 2271TIP3    H228305   4.603   3.986   1.952  0.6604 -0.6910 -1.4747
 2272TIP3   OH228306   2.101   4.000   0.429 -0.0252  0.0636  0.2107
 2272TIP3    H128307   2.165   4.026   0.361  1.4206 -1.0624  1.0855
 2272TIP3    H228308   2.099   4.075   0.489  0.4266  0.1357  0.1423
 2273TIP3   OH228309   4.780   6.117  16.993 -0.1343 -0.1964  0.0340
 2273TIP3    H128310   4.780   6.039  17.049 -1.3767  0.1384  0.5338
 2273TIP3    H228311   4.704   6.167  17.023 -0.0213  0.6464 -1.0624
 2274TIP3   OH228312   6.704   0.414  15.653 -0.3177 -0.1756  0.2838
 2274TIP3    H128313   6.694   0.509  15.654 -0.7175 -0.2006 -0.5873
 2274TIP3    H228314   6.729   0.391  15.743 -1.9863  0.5574  0.9736
 2275TIP3   OH228315   5.629   5.029  11.379  0.5396  0.7726  0.1032
 2275TIP3    H128316   5.564   4.983  11.432  2.3834  0.8475  2.5593
 2275TIP3    H228317   5.576   5.080  11.317 -1.6649 -0.7738  0.5679
 2276TIP3   OH228318   1.780   4.068   6.115 -0.3729 -0.0057  0.3062
 2276TIP3    H128319   1.738   4.055   6.200  0.0834  1.7734  0.8517
 2276TIP3    H228320   1.854   4.126   6.134 -1.3824  2.0152 -1.5582
 2277TIP3   OH228321   4.001   3.595  17.037 -0.3870 -0.0126 -0.0461
 2277TIP3    H128322   3.997   3.638  16.952  2.2008  2.4099  0.9012
 2277TIP3    H228323   4.075   3.535  17.030 -0.0527  0.3242  0.5117
 2278TIP3   OH228324   0.991   2.642  15.613  0.4682 -1.0481  0.1312
 2278TIP3    H128325   0.902   2.658  15.579  0.8130 -0.7068 -0.6551
 2278TIP3    H228326   1.007   2.550  15.594  0.1728 -1.1858  0.5406
 2279TIP3   OH228327   6.564   5.968   0.725  0.1864 -0.2514  0.1403
 2279TIP3    H128328   6.603   5.889   0.686  1.9148 -0.0706  1.3727
 2279TIP3    H228329   6.566   6.033   0.655 -0.4467 -1.0313 -0.6265
 2280TIP3   OH228330   3.917   0.566  15.295  0.3238 -0.3205  0.4058
 2280TIP3    H128331   3.861   0.618  15.352  0.5821  1.8969 -1.2090
 2280TIP3    H228332   3.966   0.631  15.243  0.4829 -2.1602 -1.9459
 2281TIP3   OH228333   5.300   5.394  15.593  0.2308  0.2993 -0.2758
 2281TIP3    H128334   5.252   5.431  15.518  4.5575  1.6998 -2.6993
 2281TIP3    H228335   5.291   5.300  15.584 -1.1902  0.4907 -1.1707
 2282TIP3   OH228336   5.930   0.977   5.700  0.4614  0.2519  1.0715
 2282TIP3    H128337   5.838   0.984   5.725  0.5417  1.4101  1.0752
 2282TIP3    H228338   5.961   1.067   5.696  1.6783 -0.1334  1.3631
 2283TIP3   OH228339   0.410   5.547   4.847  0.1265 -0.1156  0.1641
 2283TIP3    H128340   0.470   5.617   4.872 -1.2063  0.8720  0.7482
 2283TIP3    H228341   0.343   5.547   4.916 -0.6499 -1.0481 -0.5555
 2284TIP3   OH228342   6.373   3.100  16.185 -0.2660  0.5049 -0.2819
 2284TIP3    H128343   6.304   3.124  16.246  0.6382  2.4796  0.0464
 2284TIP3    H228344   6.369   3.166  16.116  0.3586 -0.2131 -1.0405
 2285TIP3   OH228345   4.292   1.753   2.081 -0.5036  0.2767  0.2582
 2285TIP3    H128346   4.332   1.706   2.008  0.4725  0.7593  0.4664
 2285TIP3    H228347   4.258   1.833   2.041 -0.0967  0.4740  0.3034
 2286TIP3   OH228348   5.513   3.438   1.791  0.4202  0.4440  0.0999
 2286TIP3    H128349   5.582   3.373   1.776 -0.9194 -0.8227 -0.8456
 2286TIP3    H228350   5.534   3.510   1.732  0.4134 -0.3686 -0.9284
 2287TIP3   OH228351   5.274   2.609   3.080  0.5400  0.2230  0.2595
 2287TIP3    H128352   5.296   2.522   3.110  0.2037  0.3635  0.9224
 2287TIP3    H228353   5.179   2.616   3.092 -0.1906 -0.7295 -3.4400
 2288TIP3   OH228354   1.818   1.331  16.816 -0.7207  0.3713  0.2258
 2288TIP3    H128355   1.800   1.293  16.730  1.6232 -1.0744  0.2701
 2288TIP3    H228356   1.777   1.271  16.878  1.1558 -1.0121  0.2106
 2289TIP3   OH228357   2.184   5.964   5.831 -0.0679  0.2232 -0.3066
 2289TIP3    H128358   2.148   6.053   5.821 -0.0692  0.2045 -0.4715
 2289TIP3    H228359   2.127   5.910   5.776 -0.3456  0.0466  0.1490
 2290TIP3   OH228360   5.811   3.815   5.373  0.7734  0.4473 -0.1077
 2290TIP3    H128361   5.787   3.904   5.347 -3.0040 -0.9901 -2.2941
 2290TIP3    H228362   5.746   3.791   5.439  1.4467 -0.8707  0.1139
 2291TIP3   OH228363   4.435   2.466  15.278  0.0071 -0.3054  1.1678
 2291TIP3    H128364   4.416   2.476  15.184 -1.1700  1.5803  1.5560
 2291TIP3    H228365   4.530   2.453  15.282  0.1812  0.3889 -0.2350
 2292TIP3   OH228366   3.892   0.304  13.797 -0.2783  0.4494 -0.3222
 2292TIP3    H128367   3.941   0.224  13.779 -2.4428 -0.8497 -0.8371
 2292TIP3    H228368   3.918   0.364  13.727  0.0993 -0.4344 -0.9561
 2293TIP3   OH228369   3.628   1.752   3.043 -0.3194 -0.0588  0.3724
 2293TIP3    H128370   3.536   1.740   3.020 -0.4895  1.6347  0.0343
 2293TIP3    H228371   3.651   1.838   3.006  1.4374 -0.5181  0.3212
 2294TIP3   OH228372   3.883   5.889   2.519  0.3176  0.2012  0.1512
 2294TIP3    H128373   3.795   5.905   2.486  0.7371 -0.4389 -1.3556
 2294TIP3    H228374   3.891   5.946   2.595 -0.9814  1.1282 -0.3736
 2295TIP3   OH228375   5.625   3.465  11.437 -0.4602 -0.3824 -0.1732
 2295TIP3    H128376   5.693   3.529  11.459  0.2252 -0.8842 -0.8069
 2295TIP3    H228377   5.587   3.441  11.521  0.5227 -0.5067  0.2453
 2296TIP3   OH228378   4.184   2.553  14.424  0.5799 -0.0197 -0.2651
 2296TIP3    H128379   4.277   2.573  14.417  0.8303 -1.3973 -1.2712
 2296TIP3    H228380   4.142   2.608  14.358  0.9963 -1.1225 -1.4911
 2297TIP3   OH228381   3.145   0.503  14.907 -0.0768  0.4506 -0.3298
 2297TIP3    H128382   3.217   0.556  14.872  1.9602 -1.4422  0.7390
 2297TIP3    H228383   3.181   0.414  14.912 -2.2431 -0.4326  0.9997
 2298TIP3   OH228384   1.959   3.649   2.749 -0.0763  0.2646  0.1051
 2298TIP3    H128385   1.898   3.580   2.773 -1.9363  1.3293 -1.2991
 2298TIP3    H228386   1.967   3.702   2.829  0.0441 -0.5801  0.6751
 2299TIP3   OH228387   3.269   5.112   1.668  0.7918  0.3469 -0.3458
 2299TIP3    H128388   3.231   5.065   1.742  1.2276  1.6507  0.7502
 2299TIP3    H228389   3.284   5.201   1.701  1.0280  0.9551 -1.9982
 2300TIP3   OH228390   6.292   6.131  17.048 -0.4355 -0.0167 -0.2234
 2300TIP3    H128391   6.301   6.152  16.956 -0.7112  0.7030 -0.0908
 2300TIP3    H228392   6.278   6.215  17.091  3.7103  0.2402  1.0089
 2301TIP3   OH228393   4.237   0.200  14.889 -0.2954 -0.5384  0.1208
 2301TIP3    H128394   4.204   0.247  14.813 -0.3566 -0.1688  0.3711
 2301TIP3    H228395   4.206   0.110  14.877  2.2364 -1.2436 -1.8115
 2302TIP3   OH228396   0.134   1.959   0.313  0.5801  0.1758 -0.1587
 2302TIP3    H128397   0.047   1.983   0.345  0.2150 -1.8140  0.4697
 2302TIP3    H228398   0.182   1.933   0.391  1.0476 -0.7366 -0.7346
 2303TIP3   OH228399   3.562   1.027  11.718  0.3465  0.2540 -0.0511
 2303TIP3    H128400   3.596   1.064  11.637  0.6739 -0.2109 -0.1289
 2303TIP3    H228401   3.632   0.968  11.749  0.2703  0.5072  0.6198
 2304TIP3   OH228402   1.427   4.869   5.678  0.1855 -0.2030  0.1262
 2304TIP3    H128403   1.431   4.776   5.652 -0.4821  0.1145 -1.2155
 2304TIP3    H228404   1.421   4.867   5.773  1.4666 -1.5018  0.2132
 2305TIP3   OH228405   4.017   5.337  16.340 -0.1713 -0.7518  0.7013
 2305TIP3    H128406   4.000   5.409  16.401  2.4952  0.6900 -0.1034
 2305TIP3    H228407   4.057   5.269  16.394  1.6091  0.2740  0.7437
 2306TIP3   OH228408   3.293   2.504  14.882 -0.7904 -0.1485  0.8171
 2306TIP3    H128409   3.241   2.519  14.803  0.0078  3.2189  0.7425
 2306TIP3    H228410   3.246   2.550  14.951  0.7127  0.8508  1.2528
 2307TIP3   OH228411   3.703   1.992   3.942  0.2121 -0.2026 -0.0286
 2307TIP3    H128412   3.652   2.056   3.892 -0.2604 -0.6830 -0.1773
 2307TIP3    H228413   3.791   1.996   3.904  0.2866  0.6204  0.2124
 2308TIP3   OH228414   3.777   4.850  12.582 -0.1115  0.2238 -0.3105
 2308TIP3    H128415   3.740   4.788  12.645  1.6656 -2.1328 -1.4176
 2308TIP3    H228416   3.736   4.827  12.499  1.0939  0.0295 -0.8654
 2309TIP3   OH228417   2.057   4.829  12.241 -0.3321  0.1292  0.3481
 2309TIP3    H128418   2.084   4.762  12.178 -0.0357  1.1558 -0.6528
 2309TIP3    H228419   2.097   4.803  12.324  1.4411  0.1278 -0.4668
 2310TIP3   OH228420   2.846   6.615   0.527  0.6645  0.0900  0.0255
 2310TIP3    H128421   2.860   6.710   0.529  0.2117  0.1861 -0.7681
 2310TIP3    H228422   2.913   6.579   0.585  2.4785  0.7029 -1.5769
 2311TIP3   OH228423   1.054   0.208   2.049  0.4661 -0.4958  0.3815
 2311TIP3    H128424   1.072   0.114   2.059 -1.0287 -0.8663 -0.0476
 2311TIP3    H228425   0.988   0.226   2.117 -2.8006 -0.8956 -2.4045
 2312TIP3   OH228426   3.455   2.338   3.319  0.1311  0.3647  0.4611
 2312TIP3    H128427   3.402   2.380   3.251  0.7766  0.8064  0.2181
 2312TIP3    H228428   3.543   2.333   3.281 -0.1092 -2.1518  0.0749
 2313TIP3   OH228429   1.592   3.104   2.287  0.6579  0.0180 -0.2296
 2313TIP3    H128430   1.648   3.028   2.272 -1.2710 -1.5039 -0.1888
 2313TIP3    H228431   1.612   3.164   2.216  1.4845 -0.9982 -0.8840
 2314TIP3   OH228432   6.353   1.505  12.424 -0.2625  0.1635 -0.2076
 2314TIP3    H128433   6.354   1.600  12.410  0.7439  0.0915 -0.7103
 2314TIP3    H228434   6.260   1.482  12.423 -0.7092  1.4705  2.3420
 2315TIP3   OH228435   3.264   6.456   5.742  0.0275  0.5642 -0.2626
 2315TIP3    H128436   3.313   6.505   5.676 -1.6130  1.9462 -0.5325
 2315TIP3    H228437   3.251   6.519   5.813 -0.1700 -0.2142  0.4042
 2316TIP3   OH228438   1.674   1.200   3.612  0.9619  0.1322  0.3220
 2316TIP3    H128439   1.725   1.258   3.670 -0.6764  0.7928  1.1619
 2316TIP3    H228440   1.646   1.128   3.668 -1.9085  1.5295  0.8600
 2317TIP3   OH228441   1.547   6.624   2.769 -0.1108  0.0878  0.1136
 2317TIP3    H128442   1.531   6.685   2.697  1.2348 -1.2340 -1.3952
 2317TIP3    H228443   1.499   6.545   2.745 -0.7028  0.0406  1.3475
 2318TIP3   OH228444   0.154   6.437  12.717 -0.0749  0.6697 -0.2170
 2318TIP3    H128445   0.135   6.367  12.654 -2.1288  1.4594 -0.5639
 2318TIP3    H228446   0.105   6.413  12.795  1.3367  0.4175  0.6189
 2319TIP3   OH228447   5.134   0.773  11.982  0.4260 -0.1692  0.7653
 2319TIP3    H128448   5.203   0.754  12.046  0.7988 -0.7237  0.2121
 2319TIP3    H228449   5.111   0.688  11.945 -0.8781 -0.0442  1.2490
 2320TIP3   OH228450   1.724   0.806   4.498 -0.2372  0.2145 -0.6501
 2320TIP3    H128451   1.718   0.772   4.587 -0.5864 -0.8118 -1.0495
 2320TIP3    H228452   1.653   0.762   4.451 -0.2801  1.0067 -1.3553
 2321TIP3   OH228453   1.391   3.218   4.443 -0.3672  0.5792  0.7635
 2321TIP3    H128454   1.391   3.287   4.377  1.7615  2.7082  2.7557
 2321TIP3    H228455   1.445   3.148   4.406 -1.0576  0.7378 -0.5865
 2322TIP3   OH228456   3.862   0.685  10.568  0.1967  0.5798 -0.1880
 2322TIP3    H128457   3.769   0.682  10.588 -0.0904  2.4895 -1.0630
 2322TIP3    H228458   3.886   0.593  10.551 -1.8568  0.2147 -1.4502
 2323TIP3   OH228459   1.854   4.389  14.706 -0.2608 -0.1046  0.2532
 2323TIP3    H128460   1.907   4.317  14.740  1.8766  1.3829  0.3216
 2323TIP3    H228461   1.911   4.466  14.713 -1.9955  1.3895 -0.9306
 2324TIP3   OH228462   3.284   5.378  16.735 -0.0246  0.4739  0.5194
 2324TIP3    H128463   3.357   5.428  16.699  0.7424  0.4095  1.9241
 2324TIP3    H228464   3.269   5.416  16.821 -1.1238 -0.0482  0.5698
 2325TIP3   OH228465   1.681   4.639   4.005  0.1603  0.4372 -0.0981
 2325TIP3    H128466   1.664   4.733   4.001  0.4371  0.6263  1.8933
 2325TIP3    H228467   1.599   4.600   4.035 -0.0789 -0.0344 -1.2982
 2326TIP3   OH228468   3.598   3.642  11.667 -0.0683 -0.2815 -0.4680
 2326TIP3    H128469   3.570   3.733  11.684 -1.3501 -0.2106 -2.6879
 2326TIP3    H228470   3.517   3.596  11.646  0.6934 -1.7462 -0.2751
 2327TIP3   OH228471   5.284   0.183  13.938  0.1183  0.3336 -0.5907
 2327TIP3    H128472   5.311   0.258  13.991  0.5629 -0.5185  0.4318
 2327TIP3    H228473   5.282   0.216  13.848  1.1351  1.3431 -0.2619
 2328TIP3   OH228474   6.310   2.889   3.126  0.5800 -0.2404 -0.7514
 2328TIP3    H128475   6.395   2.892   3.081  0.5093 -2.9687 -1.2147
 2328TIP3    H228476   6.247   2.911   3.057  0.7423 -0.7317 -1.0651
 2329TIP3   OH228477   0.886   3.841  13.888 -0.2817  0.2505 -0.4013
 2329TIP3    H128478   0.924   3.810  13.971  3.2072  0.6351 -1.6892
 2329TIP3    H228479   0.802   3.880  13.913 -0.8152 -2.3353  2.4754
 2330TIP3   OH228480   3.542   0.803  12.676  0.0027 -1.0320 -0.0474
 2330TIP3    H128481   3.555   0.895  12.700 -0.0810 -0.0742 -3.2335
 2330TIP3    H228482   3.452   0.799  12.644 -0.8856 -2.8955  2.4139
 2331TIP3   OH228483   3.647   1.575   3.264 -0.4586 -0.0352 -0.3309
 2331TIP3    H128484   3.656   1.636   3.191 -1.0485  0.1945 -0.2200
 2331TIP3    H228485   3.642   1.489   3.222 -0.7260  0.0880 -0.5575
 2332TIP3   OH228486   5.175   5.665  15.929 -0.7981  0.1941 -0.6571
 2332TIP3    H128487   5.177   5.578  15.891 -1.3682  0.4071 -1.1959
 2332TIP3    H228488   5.244   5.664  15.996 -0.0536 -0.3135 -1.4129
 2333TIP3   OH228489   2.111   6.489   5.356 -0.3028 -0.5481  0.3557
 2333TIP3    H128490   2.161   6.507   5.276 -1.0263 -1.8252 -0.4236
 2333TIP3    H228491   2.104   6.574   5.399  1.3962 -0.1126 -0.1680
 2334TIP3   OH228492   2.493   5.836   3.296 -0.4848  0.0434 -0.5850
 2334TIP3    H128493   2.447   5.805   3.218  0.3027 -1.1560 -0.5883
 2334TIP3    H228494   2.584   5.845   3.269  0.0205 -1.4994  0.4687
 2335TIP3   OH228495   2.125   2.012   4.842  0.0621  0.1661 -0.0074
 2335TIP3    H128496   2.171   1.936   4.878  1.6475  1.2852  0.4568
 2335TIP3    H228497   2.056   2.030   4.905  0.8776  0.2436  0.8887
 2336TIP3   OH228498   1.030   4.997  11.698  0.4782  0.6160 -0.1305
 2336TIP3    H128499   0.988   4.989  11.612  2.1907 -0.1097 -0.9656
 2336TIP3    H228500   1.025   5.090  11.718 -2.3752  0.4614  0.3350
 2337TIP3   OH228501   5.113   6.046  16.447 -0.4438 -0.4339  0.0065
 2337TIP3    H128502   5.023   6.060  16.476  0.3256 -0.2061  2.5291
 2337TIP3    H228503   5.105   5.990  16.370 -2.6967 -0.8723  0.4774
 2338TIP3   OH228504   1.877   0.903  11.106  0.2029  0.3260  0.8441
 2338TIP3    H128505   1.947   0.838  11.098 -0.9913 -0.7638 -1.8965
 2338TIP3    H228506   1.892   0.964  11.033 -0.2429  1.6383  1.7961
 2339TIP3   OH228507   1.926   0.549   2.215  0.1354 -0.1299 -0.1432
 2339TIP3    H128508   1.851   0.571   2.270  1.6169  1.9362  1.1916
 2339TIP3    H228509   1.891   0.490   2.148 -2.3486 -0.3530  1.2644
 2340TIP3   OH228510   5.008   5.035  12.240 -0.1323  0.8107  0.1378
 2340TIP3    H128511   4.986   4.983  12.317 -0.7282 -1.4442 -1.4354
 2340TIP3    H228512   4.923   5.062  12.204 -0.1260 -1.2272 -1.6188
 2341TIP3   OH228513   5.038   1.779  15.984 -0.0654  0.5687  0.0905
 2341TIP3    H128514   5.029   1.687  16.009 -1.0389  0.3847 -0.8484
 2341TIP3    H228515   5.130   1.800  16.001  0.1440 -0.5446  0.4063
 2342TIP3   OH228516   3.606   2.313  10.589 -0.5498 -0.6770  0.2141
 2342TIP3    H128517   3.667   2.239  10.594 -2.2967 -2.2447 -0.2990
 2342TIP3    H228518   3.537   2.291  10.651 -2.4686 -0.8901 -1.8480
 2343TIP3   OH228519   4.600   4.954  12.050  0.2664  0.8263 -0.4345
 2343TIP3    H128520   4.527   4.979  11.994 -1.6061 -1.0262  1.0250
 2343TIP3    H228521   4.560   4.929  12.133  2.5335 -0.5268  0.3535
 2344TIP3   OH228522   1.637   0.249  12.155  0.0564  0.2152  0.3768
 2344TIP3    H128523   1.648   0.338  12.187 -2.6943  0.1802  1.7451
 2344TIP3    H228524   1.694   0.196  12.210  0.5963  0.9552  0.5413
 2345TIP3   OH228525   5.806   3.281   0.929 -0.0913 -0.1826  0.3399
 2345TIP3    H128526   5.843   3.364   0.900 -0.2332 -0.9900 -2.4546
 2345TIP3    H228527   5.868   3.215   0.899 -0.9213 -1.1982  0.8070
 2346TIP3   OH228528   0.839   0.702   2.750  0.3844  0.5690 -0.6483
 2346TIP3    H128529   0.768   0.670   2.695  0.1541  2.1423 -1.2917
 2346TIP3    H228530   0.913   0.646   2.728 -0.8314 -1.7508  0.7299
 2347TIP3   OH228531   2.166   1.321  10.494  0.1302  0.5795 -0.5170
 2347TIP3    H128532   2.175   1.226  10.482  2.1500  0.8894 -2.0567
 2347TIP3    H228533   2.182   1.335  10.588 -0.2146 -0.5934 -0.2684
 2348TIP3   OH228534   3.421   2.726   0.328 -0.8302  0.7272  0.0291
 2348TIP3    H128535   3.366   2.648   0.336  0.5040 -0.3184 -0.4685
 2348TIP3    H228536   3.408   2.773   0.411 -1.9060  0.1524  0.2088
 2349TIP3   OH228537   2.043   1.843   0.969  0.0330 -0.1605 -0.4779
 2349TIP3    H128538   2.133   1.837   1.000  0.8709  3.3660 -1.7428
 2349TIP3    H228539   2.050   1.840   0.873 -1.2718 -0.4172 -0.5855
 2350TIP3   OH228540   1.485   0.761  13.409 -0.0655  0.1600  0.0633
 2350TIP3    H128541   1.571   0.721  13.400 -0.9218 -2.3406  1.7669
 2350TIP3    H228542   1.497   0.831  13.474  0.9444  0.9379 -0.9275
 2351TIP3   OH228543   3.111   5.694  12.712 -0.8362  0.6496 -0.4118
 2351TIP3    H128544   3.064   5.753  12.772 -1.0617 -0.2083  0.2760
 2351TIP3    H228545   3.094   5.606  12.746 -0.0051  0.2160 -1.0652
 2352TIP3   OH228546   1.651   2.202   2.339 -0.1707 -0.6152 -0.1058
 2352TIP3    H128547   1.665   2.279   2.284 -0.3720 -0.4204  0.1114
 2352TIP3    H228548   1.737   2.181   2.374 -0.1034 -0.5265 -0.2190
 2353TIP3   OH228549   6.608   6.384  11.604 -0.0252 -0.2292 -0.4465
 2353TIP3    H128550   6.648   6.304  11.571  0.9973 -0.1149  0.4313
 2353TIP3    H228551   6.591   6.366  11.697 -1.1762  0.0607 -0.5884
 2354TIP3   OH228552   1.381   2.171   6.003  0.2065 -0.0982 -0.0873
 2354TIP3    H128553   1.465   2.185   5.959  1.0941 -0.6554  1.3688
 2354TIP3    H228554   1.341   2.258   6.005  0.8330  0.2152 -0.6099
 2355TIP3   OH228555   5.517   6.012  16.678 -0.4430 -0.3661 -0.3798
 2355TIP3    H128556   5.511   6.100  16.717  0.3916 -0.5071  0.0866
 2355TIP3    H228557   5.526   5.954  16.753  0.8107 -0.6806 -0.7658
 2356TIP3   OH228558   4.938   3.887   3.201 -0.5452 -0.3544 -0.4216
 2356TIP3    H128559   4.899   3.965   3.161  0.2910  0.6036  0.5594
 2356TIP3    H228560   5.026   3.915   3.228 -0.7992 -1.1480  1.3860
 2357TIP3   OH228561   2.195   6.741  16.297 -0.0881  0.0461  0.0158
 2357TIP3    H128562   2.161   6.652  16.306 -0.3150  0.2074  0.8782
 2357TIP3    H228563   2.116   6.796  16.300  0.1624  0.3681  1.1115
 2358TIP3   OH228564   5.280   5.908   5.509  0.5487  0.6274  0.2150
 2358TIP3    H128565   5.250   5.821   5.537 -0.4046  0.9065  0.0817
 2358TIP3    H228566   5.374   5.896   5.492  0.4453 -0.3596  0.2557
 2359TIP3   OH228567   5.479   5.193  14.116  0.5313  0.1933  0.0653
 2359TIP3    H128568   5.473   5.234  14.202  0.0168 -0.5916  0.4203
 2359TIP3    H228569   5.428   5.112  14.125 -0.0083  0.3766 -1.1423
 2360TIP3   OH228570   5.253   5.284   4.206 -0.1829  0.1219  0.3769
 2360TIP3    H128571   5.178   5.340   4.224  0.1780  0.2932  1.3999
 2360TIP3    H228572   5.286   5.315   4.121 -1.4364 -0.1696 -0.2444
 2361TIP3   OH228573   0.062   2.202   5.086 -0.3933 -0.2234 -0.3053
 2361TIP3    H128574   0.060   2.298   5.092  0.9855 -0.2533  1.1237
 2361TIP3    H228575  -0.027   2.175   5.109 -0.4470  0.6531  0.5884
 2362TIP3   OH228576   3.695   4.870  10.460  0.0396 -0.4055 -0.3131
 2362TIP3    H128577   3.692   4.965  10.463  1.0022 -0.3568  2.8852
 2362TIP3    H228578   3.780   4.850  10.421 -0.1911  0.0082 -1.0471
 2363TIP3   OH228579   4.753   2.924   0.817  0.1006  0.0076  0.0434
 2363TIP3    H128580   4.698   3.002   0.828  0.7305  0.7254 -1.6336
 2363TIP3    H228581   4.774   2.922   0.724  2.3733 -0.6026  0.5115
 2364TIP3   OH228582   4.089   5.652   2.800  0.4653  0.1612 -0.2931
 2364TIP3    H128583   4.131   5.734   2.827  0.7979  0.0338 -0.4200
 2364TIP3    H228584   3.995   5.671   2.803  0.3270 -0.4191  2.9684
 2365TIP3   OH228585   0.409   5.272  15.657  0.4504  0.3398  0.5955
 2365TIP3    H128586   0.371   5.221  15.729  0.8612  0.4255  0.8782
 2365TIP3    H228587   0.431   5.208  15.590  0.4531  0.2108  0.7209
 2366TIP3   OH228588   5.668   3.647  14.275 -0.4441  0.3915  0.2080
 2366TIP3    H128589   5.726   3.680  14.207 -0.0329 -0.9675 -0.1480
 2366TIP3    H228590   5.616   3.580  14.231  0.1045 -0.7946  1.2935
 2367TIP3   OH228591   5.240   2.089   3.109 -0.2947 -0.2726  0.2674
 2367TIP3    H128592   5.198   2.094   3.023 -3.3050 -0.1176  1.6020
 2367TIP3    H228593   5.276   2.176   3.125  0.2226 -0.2869 -0.7780
 2368TIP3   OH228594   0.802   4.010  15.480 -0.3381  0.3411  0.7577
 2368TIP3    H128595   0.775   4.091  15.435  0.3558  0.0297 -0.2590
 2368TIP3    H228596   0.811   3.946  15.409  0.6060 -0.2224  1.3682
 2369TIP3   OH228597   3.962   4.093  11.938  0.4095 -0.2264  0.4216
 2369TIP3    H128598   3.976   4.181  11.974 -0.5961  0.4996 -0.8584
 2369TIP3    H228599   4.018   4.090  11.860 -0.6948 -0.1134 -0.4083
 2370TIP3   OH228600   4.182   0.444  14.737  0.4418 -0.3299 -0.3330
 2370TIP3    H128601   4.096   0.484  14.724  0.1673 -0.9810 -0.5476
 2370TIP3    H228602   4.226   0.454  14.652  0.3241 -0.6063 -0.4257
 2371TIP3   OH228603   3.974   5.748  14.734 -0.4299 -0.1249 -0.3095
 2371TIP3    H128604   4.012   5.710  14.655  1.1592  1.6435 -0.4590
 2371TIP3    H228605   3.971   5.842  14.716  0.1040  0.3343  1.7684
 2372TIP3   OH228606   0.644   5.423  16.215  0.1977  0.0911 -0.0813
 2372TIP3    H128607   0.605   5.449  16.131  1.9606 -0.6832 -1.2022
 2372TIP3    H228608   0.731   5.390  16.191 -0.0828 -2.2153  1.8216
 2373TIP3   OH228609   0.759   6.001  11.298  0.8105 -0.3789  0.3285
 2373TIP3    H128610   0.759   5.949  11.217  1.0794 -0.8278  0.6092
 2373TIP3    H228611   0.678   5.975  11.342  0.2456  0.4848 -0.1782
 2374TIP3   OH228612   0.824   3.320   5.009 -0.2779 -0.3512 -0.4760
 2374TIP3    H128613   0.760   3.369   5.060  0.5640  0.2882 -0.0214
 2374TIP3    H228614   0.822   3.232   5.047 -2.3713 -0.9602 -1.8112
 2375TIP3   OH228615   2.660   3.107  14.703 -0.0864 -0.2017  0.3099
 2375TIP3    H128616   2.633   3.176  14.643 -1.5331 -1.9779 -1.2150
 2375TIP3    H228617   2.744   3.077  14.669 -0.0579 -0.0226  0.2229
 2376TIP3   OH228618   2.191   2.257  14.339  0.0459  0.0974  0.5245
 2376TIP3    H128619   2.164   2.168  14.320 -0.3679  0.5366 -1.1150
 2376TIP3    H228620   2.256   2.278  14.273  2.5672 -0.0088  2.7885
 2377TIP3   OH228621   1.259   6.439   1.473  0.2504 -0.7702  0.3052
 2377TIP3    H128622   1.287   6.497   1.543  0.6016 -1.5441  0.8186
 2377TIP3    H228623   1.286   6.351   1.501  1.9995 -0.9259 -1.5648
 2378TIP3   OH228624   0.265   2.870   3.352 -0.2568  0.3695  0.2281
 2378TIP3    H128625   0.224   2.859   3.267  0.0172 -1.0672  0.2671
 2378TIP3    H228626   0.337   2.931   3.336  0.4336 -0.6816 -0.7952
 2379TIP3   OH228627   4.341   2.874  12.407 -0.7716 -0.4099  0.2234
 2379TIP3    H128628   4.311   2.787  12.433  1.0423 -0.9814  0.5326
 2379TIP3    H228629   4.379   2.861  12.320 -1.7044  0.3606 -0.3102
 2380TIP3   OH228630   5.347   4.008   4.661 -0.0332  0.1543 -0.2210
 2380TIP3    H128631   5.363   4.081   4.720  1.2756 -1.4400  1.5222
 2380TIP3    H228632   5.323   3.935   4.719 -0.1557 -1.1052 -1.7929
 2381TIP3   OH228633   3.886   0.909   1.728  0.5002 -0.1789 -0.3977
 2381TIP3    H128634   3.948   0.875   1.792  2.1958 -0.3210 -2.0497
 2381TIP3    H228635   3.887   0.846   1.656 -2.8178 -1.0555  0.1635
 2382TIP3   OH228636   3.760   2.622   2.979  0.0530  0.1092  0.5509
 2382TIP3    H128637   3.776   2.675   3.057 -1.6387  0.9705  0.3573
 2382TIP3    H228638   3.706   2.678   2.923 -1.1854 -1.5378  0.0199
 2383TIP3   OH228639   4.284   0.450  11.938 -0.1609  0.2505  0.1616
 2383TIP3    H128640   4.213   0.387  11.929 -1.1911  1.5428 -1.1123
 2383TIP3    H228641   4.313   0.466  11.848 -0.4504  2.1755  0.3788
 2384TIP3   OH228642   6.356   6.658  13.672  0.4434  0.0617  0.5333
 2384TIP3    H128643   6.337   6.743  13.634 -1.2745 -0.5324 -0.0012
 2384TIP3    H228644   6.397   6.677  13.756  0.3617  1.4000  0.2789
 2385TIP3   OH228645   0.520   0.144   3.363 -0.0019  0.2565 -0.2837
 2385TIP3    H128646   0.591   0.190   3.408  0.2721  1.2308 -1.6452
 2385TIP3    H228647   0.562   0.065   3.328 -0.6294 -1.5543  2.6667
 2386TIP3   OH228648   3.117   0.480   0.830  0.3803  0.9984 -0.1804
 2386TIP3    H128649   3.064   0.493   0.908 -0.0678 -2.5268  0.2685
 2386TIP3    H228650   3.057   0.492   0.757 -0.1710  0.5036  0.1866
 2387TIP3   OH228651   2.171   6.036  14.546  0.1238  0.7938  0.6020
 2387TIP3    H128652   2.210   5.990  14.471  1.9652  0.5345  1.6572
 2387TIP3    H228653   2.081   6.004  14.550  0.9561 -1.8147  0.5183
 2388TIP3   OH228654   6.615   0.146   6.078 -0.8864  0.0042  0.2163
 2388TIP3    H128655   6.593   0.222   6.133 -1.1474 -0.1938  0.3872
 2388TIP3    H228656   6.568   0.162   5.996 -0.5872  0.2440  0.0884
 2389TIP3   OH228657   4.562   5.655  11.402  0.7638 -0.3887  0.0705
 2389TIP3    H128658   4.587   5.597  11.474 -1.3423 -1.1041  0.3151
 2389TIP3    H228659   4.506   5.721  11.443  0.2477 -0.2973 -0.7620
 2390TIP3   OH228660   5.578   5.622  14.781  0.6076  0.2951  0.3222
 2390TIP3    H128661   5.660   5.631  14.734  0.3394 -0.8012 -0.4017
 2390TIP3    H228662   5.511   5.617  14.713  0.2151 -1.2872  0.7643
 2391TIP3   OH228663   4.236   2.839  13.068 -0.1714  0.3529  0.0643
 2391TIP3    H128664   4.312   2.804  13.114 -0.3254 -0.1748 -0.0744
 2391TIP3    H228665   4.171   2.852  13.137 -0.8843 -1.7150 -0.1246
 2392TIP3   OH228666   4.582   6.193   3.353 -0.0733  0.7359  0.6576
 2392TIP3    H128667   4.498   6.148   3.351  0.4983 -0.3665  0.2584
 2392TIP3    H228668   4.608   6.191   3.445  0.6692 -1.2116  0.4484
 2393TIP3   OH228669   4.726   6.212   2.339 -0.2551  0.2832 -0.1974
 2393TIP3    H128670   4.667   6.275   2.296 -0.6820  0.4994  0.6827
 2393TIP3    H228671   4.812   6.229   2.299 -1.1818 -1.7914 -3.4128
 2394TIP3   OH228672   1.729   4.342  13.207  0.1113 -0.3975 -0.4287
 2394TIP3    H128673   1.731   4.364  13.301 -0.4937 -1.6555 -0.1076
 2394TIP3    H228674   1.640   4.365  13.180  0.1331 -0.5051 -0.5883
 2395TIP3   OH228675   2.305   4.586  11.448 -0.3741  0.4468 -0.2970
 2395TIP3    H128676   2.328   4.508  11.499  0.2636  0.7518 -0.1091
 2395TIP3    H228677   2.275   4.552  11.364 -0.7407 -0.0303  0.0257
 2396TIP3   OH228678   3.480   2.976   3.154 -0.0546 -0.1823  0.0536
 2396TIP3    H128679   3.408   2.997   3.095 -0.9691 -0.5581  1.0220
 2396TIP3    H228680   3.484   2.881   3.154  1.0420 -0.1554 -0.6841
 2397TIP3   OH228681   4.929   3.561  15.149 -0.4479  0.3392  0.1514
 2397TIP3    H128682   5.003   3.514  15.186 -0.4904  0.6840  0.6911
 2397TIP3    H228683   4.967   3.618  15.082 -0.3841 -0.3667 -0.4232
 2398TIP3   OH228684   5.965   3.771   4.760  0.5862  0.0790  0.1971
 2398TIP3    H128685   5.999   3.737   4.843 -0.3676 -0.1081  0.5226
 2398TIP3    H228686   5.919   3.852   4.784  0.9687  0.4372 -0.2628
 2399TIP3   OH228687   6.114   4.916  11.397 -0.6575  0.0151  0.3180
 2399TIP3    H128688   6.032   4.924  11.349 -1.3642  1.4537  1.6632
 2399TIP3    H228689   6.133   4.822  11.398 -2.9034 -0.4812  0.9272
 2400TIP3   OH228690   0.420   1.977  12.588 -0.3297 -0.0775 -0.2763
 2400TIP3    H128691   0.392   2.038  12.657 -1.5756 -1.6332  0.6773
 2400TIP3    H228692   0.407   2.025  12.507 -1.1842  0.9853  0.4525
 2401TIP3   OH228693   0.738   5.473   1.095  0.3365 -0.3305  0.1495
 2401TIP3    H128694   0.741   5.420   1.016 -1.7686 -0.3507  0.0198
 2401TIP3    H228695   0.723   5.410   1.166 -0.5667 -0.0914  0.1892
 2402TIP3   OH228696   3.274   0.424   2.450  0.0391 -0.0209 -0.1306
 2402TIP3    H128697   3.211   0.375   2.397  0.8885 -1.8877  0.4716
 2402TIP3    H228698   3.332   0.466   2.387 -0.2732 -0.4123 -0.6818
 2403TIP3   OH228699   6.450   4.755  11.291 -0.3395  0.1096 -0.0581
 2403TIP3    H128700   6.494   4.671  11.301 -1.0603 -0.2715 -0.0206
 2403TIP3    H228701   6.504   4.803  11.227  0.3730 -0.1605  0.3307
 2404TIP3   OH228702   5.888   3.273   2.215 -0.0671 -0.4866  0.3045
 2404TIP3    H128703   5.865   3.246   2.304 -0.5606 -0.6418  0.1356
 2404TIP3    H228704   5.855   3.202   2.159 -0.8074  0.1504 -0.0927
 2405TIP3   OH228705   4.610   6.818   0.997 -0.6145 -0.2784 -0.4683
 2405TIP3    H128706   4.532   6.806   1.052  1.3350 -2.1333  2.1356
 2405TIP3    H228707   4.622   6.913   0.992 -0.8689 -0.0294  2.4295
 2406TIP3   OH228708   0.368   2.460   3.553 -0.4190  0.1934 -0.6418
 2406TIP3    H128709   0.310   2.523   3.595 -1.5850 -0.2205 -1.5760
 2406TIP3    H228710   0.310   2.405   3.500  0.2684 -2.8602  1.5219
 2407TIP3   OH228711   0.791   0.048  11.651 -0.3696 -0.5790  0.1153
 2407TIP3    H128712   0.883   0.071  11.635 -1.0230  0.7191 -2.1900
 2407TIP3    H228713   0.773   0.083  11.738  0.4874  2.0893 -0.6852
 2408TIP3   OH228714   1.156   5.675   0.433 -0.4444 -0.4397 -0.0243
 2408TIP3    H128715   1.191   5.664   0.344 -0.3660  0.2639 -0.0870
 2408TIP3    H228716   1.203   5.751   0.468  0.3510 -1.3805  1.0380
 2409TIP3   OH228717   5.969   1.690  12.623 -0.1099  0.5068 -0.2192
 2409TIP3    H128718   6.029   1.665  12.553  0.7331  0.1796  0.5936
 2409TIP3    H228719   5.893   1.727  12.578  0.0872 -0.3881 -1.3225
 2410TIP3   OH228720   4.244   1.514   4.324 -0.4315  0.3541  0.8142
 2410TIP3    H128721   4.234   1.597   4.371  1.8221  0.6664  0.8915
 2410TIP3    H228722   4.328   1.479   4.356  0.0080 -0.5827 -1.2080
 2411TIP3   OH228723   4.711   5.397   0.819 -0.0691  0.2879 -0.7742
 2411TIP3    H128724   4.702   5.302   0.821 -1.3750  0.3129 -2.6083
 2411TIP3    H228725   4.705   5.420   0.726 -1.9419  2.3341 -0.2354
 2412TIP3   OH228726   3.006   0.096   1.648  0.1611 -0.6991  0.5984
 2412TIP3    H128727   3.027   0.016   1.600  0.0892  0.1579 -0.9183
 2412TIP3    H228728   3.090   0.126   1.683  1.0075  0.6887 -2.2764
 2413TIP3   OH228729   5.651   0.836   0.427 -0.5721 -0.3622 -0.5082
 2413TIP3    H128730   5.687   0.760   0.381  0.2318  0.3430 -1.0696
 2413TIP3    H228731   5.681   0.825   0.517 -2.3995 -1.9061 -0.0147
 2414TIP3   OH228732   1.297   4.787  14.661  0.5467 -0.2143 -0.0218
 2414TIP3    H128733   1.348   4.815  14.584 -0.0177  1.3733  0.1487
 2414TIP3    H228734   1.298   4.691  14.656  2.4433 -0.2121 -0.7381
 2415TIP3   OH228735   6.545   5.900  14.680 -0.7915 -0.3520  0.2975
 2415TIP3    H128736   6.452   5.890  14.660 -0.7752 -0.5826  0.3325
 2415TIP3    H228737   6.581   5.944  14.603 -0.3559 -3.0421 -1.1349
 2416TIP3   OH228738   4.146   5.600  14.879  0.0606  0.1813 -0.0845
 2416TIP3    H128739   4.192   5.645  14.950 -0.3632  0.4927 -0.0031
 2416TIP3    H228740   4.087   5.666  14.844  0.2966  0.0401 -0.7580
 2417TIP3   OH228741   6.741   5.086   0.231  0.2523 -0.0966 -0.1203
 2417TIP3    H128742   6.730   4.995   0.203  1.1048 -0.2259 -0.0928
 2417TIP3    H228743   6.662   5.130   0.203  0.0206 -0.7586 -0.5318
 2418TIP3   OH228744   2.423   5.072  14.623  0.2108  1.2797 -0.1997
 2418TIP3    H128745   2.478   5.125  14.680  3.1905 -1.9687  0.3057
 2418TIP3    H228746   2.441   5.104  14.535  2.1217  1.0175  0.0666
 2419TIP3   OH228747   1.204   6.724   0.652  0.1511  0.6016  0.4339
 2419TIP3    H128748   1.288   6.681   0.671 -0.2116 -0.0559  0.5781
 2419TIP3    H228749   1.151   6.656   0.611 -0.6058  0.7718  1.1140
 2420TIP3   OH228750   0.157   5.490  14.861 -0.2008  0.3799 -0.1407
 2420TIP3    H128751   0.212   5.568  14.847 -0.7666  0.7139 -0.5328
 2420TIP3    H228752   0.136   5.461  14.772  0.4658 -0.5550 -0.0039
 2421TIP3   OH228753   4.387   3.208   1.964 -0.1334 -0.2559  0.3888
 2421TIP3    H128754   4.352   3.293   1.990 -0.3764 -0.3867  0.4947
 2421TIP3    H228755   4.334   3.182   1.889  0.3283 -0.0460 -0.0159
 2422TIP3   OH228756   1.601   5.380   0.640 -0.1987  0.1657  0.2405
 2422TIP3    H128757   1.522   5.379   0.694 -0.5599 -2.3784 -0.1992
 2422TIP3    H228758   1.670   5.412   0.698 -1.0677 -0.0205  1.4093
 2423TIP3   OH228759   3.743   4.564   5.052  0.3458  0.3096 -0.5152
 2423TIP3    H128760   3.777   4.502   4.987  2.6836  0.4908  0.4348
 2423TIP3    H228761   3.651   4.541   5.061  0.9414 -2.5425 -0.7480
 2424TIP3   OH228762   3.249   2.653   4.324 -0.3796  0.4500 -0.0471
 2424TIP3    H128763   3.183   2.649   4.255 -0.3153  1.0436 -0.1528
 2424TIP3    H228764   3.297   2.734   4.306 -0.8199  0.9987  1.0959
 2425TIP3   OH228765   2.605   2.329   2.712 -0.2918 -0.3318  0.1595
 2425TIP3    H128766   2.510   2.323   2.702 -0.3575  0.5538  0.1895
 2425TIP3    H228767   2.627   2.263   2.777 -0.7503 -1.2830 -0.6259
 2426TIP3   OH228768   2.081   4.728  15.377  0.4837  0.0691  0.2362
 2426TIP3    H128769   2.169   4.731  15.414  0.9051  0.2695 -0.7389
 2426TIP3    H228770   2.065   4.634  15.361  0.4729  0.0222  0.5269
 2427TIP3   OH228771   5.102   6.746  12.967 -0.2750 -0.1963  0.3218
 2427TIP3    H128772   5.178   6.791  13.004  0.4381 -1.6217  0.6610
 2427TIP3    H228773   5.088   6.789  12.883 -0.0663  1.1123  0.9199
 2428TIP3   OH228774   1.686   4.866   1.166 -0.6276  0.1587  0.3099
 2428TIP3    H128775   1.672   4.790   1.109  1.1248 -0.3934  0.5492
 2428TIP3    H228776   1.612   4.865   1.225 -1.1963 -0.7343 -0.3791
 2429TIP3   OH228777   2.718   3.736  11.183 -0.8452  0.1827  0.7365
 2429TIP3    H128778   2.650   3.694  11.131  1.5865 -3.4912  0.2132
 2429TIP3    H228779   2.709   3.699  11.270 -0.8265  1.3416  1.2564
 2430TIP3   OH228780   2.003   0.512  13.016 -0.1334 -0.1957 -0.2389
 2430TIP3    H128781   1.925   0.512  13.070  0.3749  1.5367  0.5627
 2430TIP3    H228782   1.972   0.531  12.928 -0.6540  0.0063 -0.0116
 2431TIP3   OH228783   0.780   2.382  11.192  0.0343 -0.4565  0.3828
 2431TIP3    H128784   0.797   2.292  11.221 -0.3156 -1.1975 -1.5364
 2431TIP3    H228785   0.686   2.393  11.203  0.2980  0.3303  2.2265
 2432TIP3   OH228786   4.792   2.534   0.671  0.3019  0.0216  0.4249
 2432TIP3    H128787   4.776   2.523   0.764 -0.8529  0.4350  0.2856
 2432TIP3    H228788   4.879   2.575   0.666  0.6342 -0.5624  1.2821
 2433TIP3   OH228789   2.903   0.410   3.634 -0.6083  0.4549 -0.0934
 2433TIP3    H128790   2.878   0.502   3.634  0.9316  0.9143  0.3378
 2433TIP3    H228791   2.999   0.412   3.624 -0.5564 -1.0929 -0.0869
 2434TIP3   OH228792   1.774   3.902  11.968  0.1941  0.1176 -0.4330
 2434TIP3    H128793   1.684   3.912  11.937 -0.2293 -1.1469  0.3312
 2434TIP3    H228794   1.817   3.984  11.943 -0.9660  0.4363 -1.4657
 2435TIP3   OH228795   3.647   6.358  15.009  0.2043  0.0448 -0.0419
 2435TIP3    H128796   3.592   6.321  15.078 -0.3801 -1.2360 -1.1412
 2435TIP3    H228797   3.735   6.327  15.030 -0.0915 -1.0187 -0.2641
 2436TIP3   OH228798   4.524   6.066  15.320  0.1040 -0.2429 -0.4078
 2436TIP3    H128799   4.457   5.997  15.325 -0.1516 -0.0810 -1.3313
 2436TIP3    H228800   4.477   6.147  15.340  0.7653 -0.4781  2.4985
 2437TIP3   OH228801   0.032   6.732  13.934  0.3655 -0.5566 -0.6573
 2437TIP3    H128802  -0.005   6.659  13.983  0.9771  1.1083  2.5067
 2437TIP3    H228803  -0.043   6.785  13.908  0.1117  0.5061  1.9206
 2438TIP3   OH228804   2.462   6.776  16.203  0.2616  0.0931 -0.0439
 2438TIP3    H128805   2.367   6.775  16.216  0.2088  0.8033 -0.3313
 2438TIP3    H228806   2.476   6.714  16.132 -0.1738  1.1330 -1.0749
 2439TIP3   OH228807   3.776   3.013   1.095  0.1971  0.2606 -0.1294
 2439TIP3    H128808   3.691   2.973   1.113 -0.9074  1.1986 -2.7846
 2439TIP3    H228809   3.828   2.996   1.174 -1.6936 -2.2794  0.6865
 2440TIP3   OH228810   0.209   3.991  13.991 -0.2153 -0.5424  0.8597
 2440TIP3    H128811   0.194   3.927  14.061 -1.9167  0.8978  1.8841
 2440TIP3    H228812   0.224   4.073  14.037  0.1881  0.1439 -0.4677
 2441TIP3   OH228813   5.873   2.649   4.910  0.3498 -0.0470  0.5395
 2441TIP3    H128814   5.869   2.554   4.910 -0.4538 -0.0352  1.3340
 2441TIP3    H228815   5.787   2.676   4.943  0.9662  0.9178  1.4138
 2442TIP3   OH228816   0.620   5.757   3.944 -0.1031  0.3098  0.1419
 2442TIP3    H128817   0.578   5.844   3.945  0.8806  0.7969 -0.0480
 2442TIP3    H228818   0.667   5.752   4.027  0.9650  0.5281 -0.4373
 2443TIP3   OH228819   6.548   5.549   5.066  0.2085  0.2981  0.4384
 2443TIP3    H128820   6.461   5.508   5.068  0.8028 -1.5824 -3.4115
 2443TIP3    H228821   6.609   5.476   5.082  1.1383  0.4774 -1.8896
 2444TIP3   OH228822   5.671   0.583   1.414 -0.2617 -0.4891  0.3777
 2444TIP3    H128823   5.633   0.529   1.483 -0.3833 -1.0925 -0.1514
 2444TIP3    H228824   5.741   0.529   1.378  0.4248  0.2052  0.6590
 2445TIP3   OH228825   4.196   1.338  11.059  0.3731  0.1622 -0.0020
 2445TIP3    H128826   4.166   1.317  10.970  0.9856 -1.0361  0.0608
 2445TIP3    H228827   4.291   1.337  11.053  0.4191 -0.4757  0.7975
 2446TIP3   OH228828   3.534   2.876   3.993  0.3447  0.2157 -0.2351
 2446TIP3    H128829   3.565   2.860   4.082 -0.9855  0.9205  0.3993
 2446TIP3    H228830   3.613   2.880   3.939  1.6621  3.9977  1.5773
 2447TIP3   OH228831   1.217   4.216  14.971 -0.0479 -0.0674  0.1438
 2447TIP3    H128832   1.243   4.160  14.898 -1.3010 -0.3376 -0.1248
 2447TIP3    H228833   1.177   4.292  14.928 -1.2006 -0.4351  0.5431
 2448TIP3   OH228834   3.278   4.864   1.241 -0.2600 -0.1193  0.3063
 2448TIP3    H128835   3.325   4.803   1.185 -1.4709  0.5170 -1.4707
 2448TIP3    H228836   3.320   4.949   1.227 -1.3747  0.2975 -0.6876
 2449TIP3   OH228837   5.675   2.318  15.672 -0.3124 -0.2662 -0.1645
 2449TIP3    H128838   5.652   2.227  15.694 -1.8718 -0.1745 -1.2831
 2449TIP3    H228839   5.770   2.316  15.661  0.0611 -1.1764  2.4107
 2450TIP3   OH228840   1.729   6.481   5.773 -0.0764 -0.0314 -0.6752
 2450TIP3    H128841   1.699   6.407   5.721  0.6598 -0.7078 -0.1511
 2450TIP3    H228842   1.767   6.442   5.851 -1.1641  0.9795  0.3860
 2451TIP3   OH228843   0.911   4.590  14.669 -0.2564 -0.0545  0.2707
 2451TIP3    H128844   0.889   4.677  14.635  0.3349 -0.5124 -1.4012
 2451TIP3    H228845   0.997   4.570  14.631 -1.2885 -2.2255 -1.1617
 2452TIP3   OH228846   4.241   6.037  15.233  0.1360  0.3404 -0.5292
 2452TIP3    H128847   4.280   6.061  15.149  0.4762  2.9162  0.2776
 2452TIP3    H228848   4.191   5.958  15.215  1.3610  0.0086 -2.8172
 2453TIP3   OH228849   4.373   2.894   3.624  0.0603 -0.4632 -0.4744
 2453TIP3    H128850   4.402   2.830   3.559  1.9501 -0.0375 -0.1244
 2453TIP3    H228851   4.348   2.843   3.700  1.6549 -0.8240 -0.1607
 2454TIP3   OH228852   1.980   2.927  16.028 -0.4747 -0.0394  0.1293
 2454TIP3    H128853   1.926   2.941  15.951  2.2839 -0.2426 -1.9979
 2454TIP3    H228854   1.937   2.979  16.097 -3.4108 -0.3814 -1.2779
 2455TIP3   OH228855   2.477   6.822   1.584 -0.1635  0.4467 -0.2475
 2455TIP3    H128856   2.448   6.783   1.666  0.6706 -2.3818 -1.1884
 2455TIP3    H228857   2.563   6.859   1.604  1.2470 -2.5257 -0.3179
 2456TIP3   OH228858   3.057   1.506  16.021 -0.3003 -0.1722  0.3876
 2456TIP3    H128859   3.015   1.488  15.937 -0.1638  1.5541 -0.0836
 2456TIP3    H228860   3.142   1.462  16.016 -0.6180 -0.7498 -0.0408
 2457TIP3   OH228861   2.171   3.335  16.215 -0.4231 -0.1483  0.5785
 2457TIP3    H128862   2.224   3.257  16.203  0.6918  0.9350 -2.9255
 2457TIP3    H228863   2.229   3.407  16.190 -2.1685  1.5684  1.1999
 2458TIP3   OH228864   3.234   4.906   4.386 -0.2934 -0.0597  0.1351
 2458TIP3    H128865   3.164   4.969   4.403 -0.2506  0.0232  0.0026
 2458TIP3    H228866   3.254   4.917   4.293 -0.1781 -0.1590  0.1487
 2459TIP3   OH228867   4.721   6.156   6.336 -0.1147  0.6098  0.6811
 2459TIP3    H128868   4.626   6.163   6.327  0.0702  0.7372 -2.0681
 2459TIP3    H228869   4.739   6.063   6.327  0.1145  0.7678 -0.7163
 2460TIP3   OH228870   1.912   1.132  12.340  0.3261  0.2437  0.1093
 2460TIP3    H128871   1.830   1.110  12.295  1.5292 -0.8618 -1.6606
 2460TIP3    H228872   1.941   1.049  12.378  0.8634  0.5165  0.3081
 2461TIP3   OH228873   0.535   5.545  16.514 -0.2152  0.3422  0.4727
 2461TIP3    H128874   0.566   5.462  16.549 -1.3053 -0.3956 -0.2368
 2461TIP3    H228875   0.460   5.569  16.569 -1.7551 -0.6802 -1.0529
 2462TIP3   OH228876   4.833   1.033  13.285 -0.3884  0.5335 -0.3414
 2462TIP3    H128877   4.885   1.106  13.320  0.9113 -0.3437 -0.3877
 2462TIP3    H228878   4.793   0.993  13.362 -0.6358  0.9358 -0.2575
 2463TIP3   OH228879   1.153   1.203   1.947 -0.4151  0.0783  0.5347
 2463TIP3    H128880   1.221   1.266   1.925 -0.0078 -0.6484 -0.4019
 2463TIP3    H228881   1.200   1.131   1.989 -0.5781 -0.4582 -0.1746
 2464TIP3   OH228882   3.069   6.624   2.987  0.1579  0.0083  0.3850
 2464TIP3    H128883   3.061   6.634   3.082 -0.6840  1.1989  0.2250
 2464TIP3    H228884   2.987   6.582   2.961 -1.2434  2.7911 -0.1374
 2465TIP3   OH228885   2.572   4.286   3.452 -0.2220 -0.2837 -0.1403
 2465TIP3    H128886   2.537   4.221   3.391  0.6004 -1.7470  0.9054
 2465TIP3    H228887   2.649   4.245   3.490 -0.2599  0.9068  1.3210
 2466TIP3   OH228888   0.261   2.043   4.503 -0.3369  0.2627  0.0003
 2466TIP3    H128889   0.218   1.958   4.503 -0.9762  0.5117 -2.2341
 2466TIP3    H228890   0.307   2.046   4.419  0.5404  1.7031  0.5046
 2467TIP3   OH228891   0.307   2.752  16.514 -1.1079 -0.6637 -0.3251
 2467TIP3    H128892   0.387   2.804  16.528 -0.3023 -1.8817 -0.2083
 2467TIP3    H228893   0.282   2.724  16.602 -0.6965 -1.6376 -0.4999
 2468TIP3   OH228894   5.996   1.733  11.085  0.0431  0.3831 -0.3292
 2468TIP3    H128895   5.962   1.644  11.074  0.8464  0.1694 -1.2966
 2468TIP3    H228896   6.008   1.743  11.179  0.6251 -0.8180 -0.2517
 2469TIP3   OH228897   2.639   4.190  14.427 -0.0904 -0.0937 -0.0976
 2469TIP3    H128898   2.635   4.137  14.348 -1.2588 -1.0301  0.5463
 2469TIP3    H228899   2.642   4.280  14.396  1.9813 -0.5041 -1.2169
 2470TIP3   OH228900   4.013   5.197   0.162  0.0804  0.8098 -0.5180
 2470TIP3    H128901   4.022   5.102   0.152  0.1157  0.3607  2.6689
 2470TIP3    H228902   4.062   5.234   0.089  0.9299 -1.6168 -1.2695
 2471TIP3   OH228903   0.070   0.849  11.739 -0.0146  0.1609 -0.3386
 2471TIP3    H128904   0.102   0.801  11.663  1.6418 -0.6042  0.7869
 2471TIP3    H228905   0.096   0.795  11.814 -0.5591  1.4698  0.8319
 2472TIP3   OH228906   3.067   0.390   2.243  0.1887 -0.0218  0.2025
 2472TIP3    H128907   3.112   0.448   2.181 -0.5155 -0.3586 -0.6439
 2472TIP3    H228908   3.083   0.302   2.210 -0.1855 -0.2094  0.5122
 2473TIP3   OH228909   5.123   1.189   5.369  0.4204 -0.2251 -0.2421
 2473TIP3    H128910   5.152   1.162   5.281  3.3194 -0.5529  0.7122
 2473TIP3    H228911   5.081   1.112   5.405  1.3516 -0.8706 -0.5059
 2474TIP3   OH228912   5.317   3.199   4.290 -0.2959  0.0197 -0.4564
 2474TIP3    H128913   5.330   3.160   4.203  0.4096 -1.4418  0.2691
 2474TIP3    H228914   5.404   3.226   4.317 -0.2186 -1.0197  0.4389
 2475TIP3   OH228915   1.330   5.680  13.933 -0.4919  0.4372  0.0680
 2475TIP3    H128916   1.271   5.632  13.991  1.2618 -2.4001 -0.2555
 2475TIP3    H228917   1.283   5.686  13.850 -1.1550  0.1686  0.4178
 2476TIP3   OH228918   0.317   1.697  14.274 -0.8623 -0.2542  0.0160
 2476TIP3    H128919   0.367   1.758  14.220 -1.1653  1.1693  1.2629
 2476TIP3    H228920   0.361   1.612  14.262 -0.5464  0.1351 -1.9018
 2477TIP3   OH228921   2.250   6.009   3.267 -0.0578  0.5216  0.0187
 2477TIP3    H128922   2.228   6.059   3.346 -0.3045  0.1368  0.1962
 2477TIP3    H228923   2.323   5.953   3.294 -0.9889 -0.5679  0.3619
 2478TIP3   OH228924   4.280   2.182   1.681  0.4157 -0.1032  0.4940
 2478TIP3    H128925   4.330   2.260   1.657  1.2190 -0.4683  0.9341
 2478TIP3    H228926   4.258   2.195   1.773 -0.2487  0.0138  0.3277
 2479TIP3   OH228927   5.725   0.682   0.119  0.3818  0.5389 -0.0072
 2479TIP3    H128928   5.773   0.744   0.065 -0.0223  0.4841 -0.4407
 2479TIP3    H228929   5.762   0.691   0.206 -0.2875  2.0580  0.1571
 2480TIP3   OH228930   5.318   5.640   5.412 -0.2751 -0.2802  0.0468
 2480TIP3    H128931   5.258   5.569   5.434 -1.5661  0.8837  0.4871
 2480TIP3    H228932   5.367   5.657   5.492 -0.5195 -0.1769  0.1764
 2481TIP3   OH228933   2.936   3.616  14.383 -0.0546  0.2777  0.2654
 2481TIP3    H128934   3.012   3.560  14.373 -1.3364 -1.3576 -0.8109
 2481TIP3    H228935   2.884   3.574  14.451 -0.6350  0.6061  0.0356
 2482TIP3   OH228936   5.570   4.715   0.681  0.0002  0.1947  0.1036
 2482TIP3    H128937   5.664   4.721   0.662 -0.1429  1.1855 -0.3379
 2482TIP3    H228938   5.550   4.622   0.670  1.0741 -0.1596  0.9484
 2483TIP3   OH228939   4.263   5.296  13.812 -0.1099  0.1895 -0.2409
 2483TIP3    H128940   4.188   5.327  13.762  0.3479 -0.1793 -1.1805
 2483TIP3    H228941   4.338   5.311  13.755  0.2800 -1.4718 -0.2237
 2484TIP3   OH228942   0.373   6.070  12.393 -0.0711 -0.3099 -0.4787
 2484TIP3    H128943   0.291   6.042  12.353 -0.5310 -0.2642  0.3984
 2484TIP3    H228944   0.382   6.162  12.369  0.9378 -0.8809 -2.5391
 2485TIP3   OH228945   1.356   5.556  11.459 -0.7648  0.2864 -0.5295
 2485TIP3    H128946   1.333   5.468  11.490 -2.7650  1.3705  1.3291
 2485TIP3    H228947   1.428   5.583  11.516 -2.2655  1.0206  1.0833
 2486TIP3   OH228948   1.586   0.715  11.996 -0.1947  0.3566  0.2483
 2486TIP3    H128949   1.616   0.670  11.917 -0.2975  0.0793  0.3667
 2486TIP3    H228950   1.528   0.784  11.964 -2.0522 -1.1623  0.1885
 2487TIP3   OH228951   6.793   3.117  16.714  0.4954 -0.5286 -0.2255
 2487TIP3    H128952   6.877   3.160  16.725  0.8575 -0.7795 -1.7614
 2487TIP3    H228953   6.745   3.173  16.653 -1.0083  0.3212  1.6279
 2488TIP3   OH228954   4.160   6.736   5.672  0.1987 -0.0058 -0.0145
 2488TIP3    H128955   4.237   6.742   5.615 -0.1601  0.5177 -0.4572
 2488TIP3    H228956   4.190   6.688   5.749  0.0474 -3.2746 -1.7906
 2489TIP3   OH228957   3.182   2.327   0.873  0.0324 -0.2880 -0.2560
 2489TIP3    H128958   3.097   2.284   0.861 -0.5668  0.2976  1.5335
 2489TIP3    H228959   3.195   2.375   0.791 -2.0821  0.7403 -0.0803
 2490TIP3   OH228960   0.557   0.941   5.583  0.3549 -0.5516 -0.0541
 2490TIP3    H128961   0.547   0.876   5.653 -1.1390 -2.3600 -1.8385
 2490TIP3    H228962   0.646   0.928   5.551  0.6144 -0.5907  0.6578
 2491TIP3   OH228963   0.771   0.186  11.906  0.0175  0.5159 -0.3452
 2491TIP3    H128964   0.800   0.218  11.992  0.5940 -1.2210  0.1350
 2491TIP3    H228965   0.767   0.091  11.915  1.4008  0.1585 -2.6117
 2492TIP3   OH228966   1.928   0.672   0.578  0.3866 -0.1049 -0.4099
 2492TIP3    H128967   1.901   0.753   0.622 -0.8089 -0.3268 -0.7240
 2492TIP3    H228968   1.939   0.697   0.486 -1.4334 -0.5870 -0.7982
 2493TIP3   OH228969   5.143   3.999  15.500  0.1778 -0.3438  0.3355
 2493TIP3    H128970   5.223   3.956  15.468 -0.3052 -2.5801  1.9463
 2493TIP3    H228971   5.074   3.966  15.443  0.1615  0.5002 -0.1577
 2494TIP3   OH228972   3.765   3.560  15.693  0.7855  0.1649 -0.0794
 2494TIP3    H128973   3.838   3.605  15.736 -1.1318  2.8590  0.6385
 2494TIP3    H228974   3.770   3.586  15.602  0.5436  0.6458  0.0409
 2495TIP3   OH228975   0.775   0.399  11.421 -0.0694 -0.0362 -0.5371
 2495TIP3    H128976   0.819   0.364  11.344 -1.4221 -1.2822 -0.7887
 2495TIP3    H228977   0.732   0.479  11.389  0.4420  0.1583 -0.7474
 2496TIP3   OH228978   5.101   3.423  16.251  0.0026  0.2172  0.0376
 2496TIP3    H128979   5.115   3.439  16.344  0.5725 -0.9130  0.1669
 2496TIP3    H228980   5.115   3.507  16.209  1.1706  0.4323  0.8228
 2497TIP3   OH228981   1.840   0.191  10.499  0.0703  0.3623  0.6259
 2497TIP3    H128982   1.765   0.170  10.443  0.2859  3.3136 -0.9920
 2497TIP3    H228983   1.841   0.287  10.502  0.5893  0.4252  5.1160
 2498TIP3   OH228984   6.787   3.472   3.329  0.0414  0.1322 -0.5969
 2498TIP3    H128985   6.839   3.543   3.291 -0.4573  0.5922 -0.4425
 2498TIP3    H228986   6.792   3.487   3.424  1.2735 -1.0049 -0.4541
 2499TIP3   OH228987   2.234   3.186   2.835  0.3183  0.6920  0.3686
 2499TIP3    H128988   2.300   3.117   2.830  2.2147  2.2976  1.5886
 2499TIP3    H228989   2.163   3.148   2.888  0.9703 -0.5611  0.3622
 2500TIP3   OH228990   5.724   4.991  17.026  0.1450  0.6403  0.3508
 2500TIP3    H128991   5.721   5.073  17.075 -0.3012  1.7530 -1.4171
 2500TIP3    H228992   5.761   5.016  16.941 -1.3371 -0.6812 -0.7344
 2501TIP3   OH228993   5.392   6.475  14.226  0.1164 -0.2474 -0.5544
 2501TIP3    H128994   5.430   6.517  14.148 -0.3995 -0.4100 -0.9000
 2501TIP3    H228995   5.298   6.488  14.216  0.1233  1.3747  1.0036
 2502TIP3   OH228996   0.822   1.752   2.196 -0.0884  0.3375 -0.3131
 2502TIP3    H128997   0.744   1.738   2.250 -0.1681 -1.9927 -0.9086
 2502TIP3    H228998   0.868   1.825   2.237 -2.9492  2.3611 -0.3848
 2503TIP3   OH228999   2.713   6.443   2.593 -0.4763 -0.0064  0.2750
 2503TIP3    H129000   2.673   6.382   2.531  0.3102  0.0680 -0.3349
 2503TIP3    H229001   2.680   6.416   2.678  0.2164 -1.6220  0.0813
 2504TIP3   OH229002   5.753   6.482   1.096 -0.4491 -0.6519  0.4657
 2504TIP3    H129003   5.664   6.487   1.131 -0.2560  0.8827  0.7820
 2504TIP3    H229004   5.808   6.523   1.163  0.3296 -0.4462 -0.2802
 2505TIP3   OH229005   1.026   3.515   0.390 -0.1573  0.4272 -0.1981
 2505TIP3    H129006   1.052   3.591   0.337 -1.7714  1.7987  0.8744
 2505TIP3    H229007   0.940   3.538   0.424 -0.2813 -1.5140  0.9339
 2506TIP3   OH229008   4.451   5.279  17.095  0.0420  0.3854  0.4746
 2506TIP3    H129009   4.486   5.263  17.182 -0.0965  0.1140  0.4804
 2506TIP3    H229010   4.479   5.204  17.043 -0.8024  0.0034  0.5601
 2507TIP3   OH229011   6.828   6.287  11.809 -0.2292 -0.0239  0.1794
 2507TIP3    H129012   6.900   6.334  11.767 -1.9812  0.8004 -2.1621
 2507TIP3    H229013   6.794   6.349  11.874  1.5263 -0.6828  1.7824
 2508TIP3   OH229014   3.533   5.781   2.101 -0.1330 -0.5542 -0.1645
 2508TIP3    H129015   3.556   5.845   2.033 -0.7990 -0.7283 -0.5560
 2508TIP3    H229016   3.610   5.779   2.158  1.2401 -1.8326 -1.9695
 2509TIP3   OH229017   0.156   1.249   3.220 -0.4132  0.3512  0.0836
 2509TIP3    H129018   0.188   1.162   3.244  2.7279  1.4853  0.5690
 2509TIP3    H229019   0.172   1.302   3.299  0.9703  2.0483 -1.2570
 2510TIP3   OH229020   2.016   4.335  13.930 -0.0665  0.4582 -0.0918
 2510TIP3    H129021   1.951   4.368  13.992  2.0410  1.7416  1.5717
 2510TIP3    H229022   2.099   4.335  13.979  1.2300 -1.1038 -2.0991
 2511TIP3   OH229023   2.836   6.093  15.108  0.2253  0.3096  0.1503
 2511TIP3    H129024   2.776   6.050  15.169 -0.4384  1.2435  0.1739
 2511TIP3    H229025   2.922   6.058  15.131 -0.0979  0.1778  1.2095
 2512TIP3   OH229026   1.732   1.451   2.829 -0.3377  0.0720 -0.2382
 2512TIP3    H129027   1.802   1.415   2.776 -0.4791  1.0506 -1.1059
 2512TIP3    H229028   1.724   1.542   2.801 -1.5933  0.1223  0.2189
 2513TIP3   OH229029   4.905   3.649   1.872 -0.1684  0.6460  0.1655
 2513TIP3    H129030   4.919   3.556   1.855 -0.5918  0.6848 -0.3998
 2513TIP3    H229031   4.951   3.693   1.800  0.2161  0.8804  0.5533
 2514TIP3   OH229032   2.671   6.299   0.886 -0.7486  0.5496 -0.0104
 2514TIP3    H129033   2.674   6.332   0.976 -0.1974  2.0023 -0.5276
 2514TIP3    H229034   2.667   6.378   0.832 -0.7506 -0.2897 -1.2776
 2515TIP3   OH229035   0.855   0.896   5.532 -0.0331  0.0260 -0.0665
 2515TIP3    H129036   0.906   0.816   5.525 -0.9094 -0.6477  0.9383
 2515TIP3    H229037   0.920   0.967   5.529  1.0045 -0.8092  1.4887
 2516TIP3   OH229038   3.345   4.481   3.893 -0.2046  0.3311 -0.6909
 2516TIP3    H129039   3.268   4.437   3.855 -0.0848  0.3622 -0.9724
 2516TIP3    H229040   3.313   4.568   3.916 -0.3402  0.2320 -0.4954
 2517TIP3   OH229041   6.440   3.103   5.996  0.0802 -0.0449  0.5756
 2517TIP3    H129042   6.486   3.183   5.972  0.6704 -0.3446  0.6915
 2517TIP3    H229043   6.373   3.131   6.059  1.6894  0.0860  2.3280
 2518TIP3   OH229044   5.886   6.456   5.434  0.0992  0.1983 -0.3916
 2518TIP3    H129045   5.871   6.542   5.473 -0.0493  0.5305 -1.1571
 2518TIP3    H229046   5.905   6.399   5.508 -0.5676  0.7253  0.1960
 2519TIP3   OH229047   3.201   0.029  16.248  0.0294 -0.1321 -0.2125
 2519TIP3    H129048   3.189  -0.041  16.312  2.3429 -0.5429 -0.1543
 2519TIP3    H229049   3.112   0.051  16.220 -0.8363 -2.2104  0.6989
 2520TIP3   OH229050   6.533   0.419   0.248  0.0299  0.3206  0.0620
 2520TIP3    H129051   6.570   0.402   0.334  0.3278  0.7228  0.0164
 2520TIP3    H229052   6.490   0.336   0.223  3.4628 -1.2762 -1.2027
 2521TIP3   OH229053   3.930   0.111  13.439  0.3840 -0.2135 -0.3744
 2521TIP3    H129054   3.981   0.191  13.426  0.5876 -0.4626 -1.1050
 2521TIP3    H229055   3.842   0.134  13.411  0.0753  0.2145  0.8809
 2522TIP3   OH229056   0.630   6.050  13.455 -0.2003 -0.0571 -0.7287
 2522TIP3    H129057   0.725   6.040  13.463 -0.4628 -1.2064  2.0769
 2522TIP3    H229058   0.599   5.963  13.429 -0.6813 -0.6136  1.5155
 2523TIP3   OH229059   4.430   6.206  16.112  0.5869  0.2066  0.4108
 2523TIP3    H129060   4.346   6.250  16.100  1.4022  1.5396 -0.5992
 2523TIP3    H229061   4.406   6.118  16.143 -1.2295  0.1573 -0.9584
 2524TIP3   OH229062   6.784   1.361   0.722  0.3290 -0.0658  0.1846
 2524TIP3    H129063   6.736   1.390   0.800  1.0450 -1.9436  1.3925
 2524TIP3    H229064   6.848   1.298   0.755  0.5763 -1.0231 -1.9471
 2525TIP3   OH229065   3.376   0.552   5.051 -0.3955 -0.7018  0.3025
 2525TIP3    H129066   3.423   0.631   5.027 -0.7067 -0.9686 -1.3052
 2525TIP3    H229067   3.415   0.483   4.997 -1.5229 -1.2335  0.1388
 2526TIP3   OH229068   1.451   4.423  13.108 -0.5206  0.7392  0.4779
 2526TIP3    H129069   1.453   4.354  13.041  0.5349 -0.5400  1.7568
 2526TIP3    H229070   1.394   4.491  13.071 -0.5519 -0.2393 -1.3833
 2527TIP3   OH229071   6.598   4.441  10.631  0.3303 -0.2009 -0.2934
 2527TIP3    H129072   6.589   4.356  10.674  1.8620 -0.8613 -1.2050
 2527TIP3    H229073   6.509   4.478  10.632 -0.2937 -1.6532  0.4196
 2528TIP3   OH229074   1.233   6.511  15.310 -0.0133  0.2449  0.4501
 2528TIP3    H129075   1.319   6.505  15.350  0.7385  0.5127 -1.0420
 2528TIP3    H229076   1.205   6.420  15.299  0.2782  0.1448  0.5234
 2529TIP3   OH229077   5.323   5.840  11.066 -0.0427  0.4824  0.0939
 2529TIP3    H129078   5.258   5.806  11.004  0.0510  0.6137 -0.0769
 2529TIP3    H229079   5.382   5.766  11.081 -0.4690  0.2373  0.5702
 2530TIP3   OH229080   3.377   0.174   0.706  0.0524 -0.1032 -0.1195
 2530TIP3    H129081   3.321   0.097   0.693 -1.7236  1.3079 -1.3165
 2530TIP3    H229082   3.363   0.198   0.798  0.2211 -0.8958  0.1227
 2531TIP3   OH229083   5.422   2.490   2.600 -0.0237 -0.0140  0.1550
 2531TIP3    H129084   5.506   2.445   2.601  0.0422  0.1182  1.4153
 2531TIP3    H229085   5.369   2.440   2.538  1.6800  1.2510 -2.5632
 2532TIP3   OH229086   4.334   3.883  15.417 -0.1170 -0.4787  0.1395
 2532TIP3    H129087   4.411   3.829  15.395 -0.6202 -0.8739 -0.7366
 2532TIP3    H229088   4.370   3.964  15.452  0.7444 -0.3251 -1.0235
 2533TIP3   OH229089   6.452   3.757   3.463 -0.3126  0.4430  0.0644
 2533TIP3    H129090   6.545   3.779   3.474 -0.6572  0.6016  3.4711
 2533TIP3    H229091   6.440   3.678   3.514 -2.1444  0.6296 -0.0285
 2534TIP3   OH229092   5.905   4.623  16.953  0.3851  0.0901  0.0148
 2534TIP3    H129093   5.931   4.647  17.042 -0.6351 -1.7640  0.8769
 2534TIP3    H229094   5.933   4.697  16.899  1.0682  1.2546  1.8581
 2535TIP3   OH229095   5.055   0.979  15.209 -0.1444 -0.2984 -0.2129
 2535TIP3    H129096   5.133   0.976  15.153  1.1154  2.0315  1.2897
 2535TIP3    H229097   5.087   0.956  15.296 -1.3001 -0.0742  0.2896
 2536TIP3   OH229098   3.147   5.614  13.477 -0.5661  0.0870 -0.2613
 2536TIP3    H129099   3.135   5.641  13.569 -2.5866 -1.0525 -0.1401
 2536TIP3    H229100   3.165   5.696  13.431 -0.6838  0.8370  0.9670
 2537TIP3   OH229101   2.029   2.241   3.848 -0.1159 -0.2864 -0.0473
 2537TIP3    H129102   2.105   2.247   3.790  0.8482  4.1525  1.2483
 2537TIP3    H229103   1.993   2.330   3.849 -3.0877 -1.3358  2.3497
 2538TIP3   OH229104   5.645   2.458   0.427  0.1676 -0.4733  0.3706
 2538TIP3    H129105   5.716   2.436   0.488  0.7535  0.6788  0.1192
 2538TIP3    H229106   5.667   2.411   0.347  0.9914  0.3631  0.0936
 2539TIP3   OH229107   4.644   2.599  13.813  0.6867 -0.3721  0.2409
 2539TIP3    H129108   4.586   2.659  13.766 -0.4474 -2.4360 -1.1161
 2539TIP3    H229109   4.642   2.631  13.903 -0.2410  1.3377 -0.3348
 2540TIP3   OH229110   2.812   5.460  13.798  0.4650  0.6185  0.9323
 2540TIP3    H129111   2.828   5.397  13.728  1.2787  1.0085  0.7538
 2540TIP3    H229112   2.733   5.428  13.842 -1.0803  1.2748 -1.2076
 2541TIP3   OH229113   3.270   5.042  14.794  1.3788 -0.2518 -0.1820
 2541TIP3    H129114   3.213   5.075  14.725 -2.0983 -1.0017  2.0937
 2541TIP3    H229115   3.306   4.960  14.759  1.0008  0.1822 -1.6479
 2542TIP3   OH229116   5.369   3.167  14.207  0.1409  0.3402  0.3070
 2542TIP3    H129117   5.464   3.166  14.194 -0.0429 -0.2322 -1.0561
 2542TIP3    H229118   5.344   3.258  14.188 -0.0772 -0.3552 -3.4678
 2543TIP3   OH229119   4.567   3.065  11.325 -0.9186 -0.3005 -0.0151
 2543TIP3    H129120   4.649   3.099  11.362 -0.0909  0.9094 -2.7024
 2543TIP3    H229121   4.515   3.143  11.305 -2.0500 -0.9812  0.1359
 2544TIP3   OH229122   4.683   0.155  11.895  0.1645  0.3186 -0.0713
 2544TIP3    H129123   4.747   0.086  11.878 -0.0305 -0.1370  0.9817
 2544TIP3    H229124   4.611   0.136  11.835 -0.2836 -0.9387  0.8462
 2545TIP3   OH229125   3.353   1.894  16.443 -0.1760  0.5062 -0.4750
 2545TIP3    H129126   3.289   1.950  16.398 -1.3092 -0.0478  0.3985
 2545TIP3    H229127   3.302   1.821  16.477  0.8511  0.2821  0.6620
 2546TIP3   OH229128   6.724   1.034   0.574 -0.2003 -0.0085  0.2689
 2546TIP3    H129129   6.781   1.011   0.647 -2.6875  0.2754  2.4785
 2546TIP3    H229130   6.715   1.129   0.579  1.9008  0.4661 -2.3900
 2547TIP3   OH229131   5.562   1.779   3.405  0.4153  1.0689 -0.1322
 2547TIP3    H129132   5.640   1.768   3.459 -0.1579 -1.9763  0.2637
 2547TIP3    H229133   5.588   1.748   3.318 -0.5188 -0.8965  0.2339
 2548TIP3   OH229134   5.542   1.745  14.281  0.0609 -0.4120  0.3457
 2548TIP3    H129135   5.526   1.839  14.286 -0.3410 -0.4534 -0.0953
 2548TIP3    H229136   5.611   1.729  14.345  0.5287  0.2688  0.0231
 2549TIP3   OH229137   6.703   6.765  12.749  0.0042 -0.0998 -0.8590
 2549TIP3    H129138   6.697   6.808  12.664  0.0979  1.5046 -0.0932
 2549TIP3    H229139   6.797   6.752  12.764  0.4077  3.3480  0.6791
 2550TIP3   OH229140   4.758   2.208   6.309 -0.2416 -0.2889  0.3691
 2550TIP3    H129141   4.691   2.183   6.246 -1.6641  2.8061  0.4688
 2550TIP3    H229142   4.739   2.155   6.387 -2.2162  0.1006  0.1807
 2551TIP3   OH229143   5.862   4.105  15.224 -0.2892 -0.0191  0.0087
 2551TIP3    H129144   5.875   4.113  15.319 -1.2637 -0.5785  0.1939
 2551TIP3    H229145   5.768   4.089  15.213 -0.1871  0.0318 -1.0535
 2552TIP3   OH229146   0.319   1.030  13.950 -0.4552  0.0614  0.2057
 2552TIP3    H129147   0.336   1.062  13.861 -0.4198 -1.5346 -0.3878
 2552TIP3    H229148   0.254   0.961  13.938 -0.3670 -0.2466  1.4199
 2553TIP3   OH229149   4.482   3.900   2.875  0.1705 -0.2353 -0.2246
 2553TIP3    H129150   4.534   3.952   2.814  0.8070 -0.8693 -0.2404
 2553TIP3    H229151   4.522   3.916   2.961 -1.1049  1.1437  0.1588
 2554TIP3   OH229152   5.907   6.429  11.969  0.2023 -0.5813 -0.0391
 2554TIP3    H129153   5.903   6.433  11.873 -1.6768  0.4674  0.0317
 2554TIP3    H229154   5.950   6.346  11.987  0.4453 -0.8910 -1.7884
 2555TIP3   OH229155   5.775   5.245  15.147  0.4568  0.0071 -0.1392
 2555TIP3    H129156   5.743   5.154  15.152  0.6962 -0.0581  0.2978
 2555TIP3    H229157   5.742   5.277  15.064  1.8785 -1.0571 -1.1656
 2556TIP3   OH229158   2.893   0.347  11.532  0.3963  0.2208  0.5420
 2556TIP3    H129159   2.966   0.298  11.495  0.4276  0.3439  0.4399
 2556TIP3    H229160   2.914   0.439  11.514 -0.4716  0.1831 -0.7392
 2557TIP3   OH229161   4.398   1.129  14.206 -0.1723 -0.0314  0.1356
 2557TIP3    H129162   4.357   1.058  14.157 -0.5857 -0.4423  1.0605
 2557TIP3    H229163   4.440   1.183  14.139  1.4882 -1.9722 -0.5089
 2558TIP3   OH229164   3.639   4.302   4.130 -0.3755  0.0048 -0.3282
 2558TIP3    H129165   3.612   4.214   4.157  0.5983  0.3187  1.9602
 2558TIP3    H229166   3.586   4.361   4.185  0.6702  0.7645 -0.0995
 2559TIP3   OH229167   4.285   5.170   2.670 -0.2182  0.0133 -0.0398
 2559TIP3    H129168   4.297   5.174   2.765 -0.7552  2.1318 -0.0136
 2559TIP3    H229169   4.369   5.201   2.634  0.5689 -2.2994 -0.3536
 2560TIP3   OH229170   1.103   0.470  15.389  0.5551 -0.4955  0.0853
 2560TIP3    H129171   1.159   0.544  15.363  0.7596 -0.7720 -0.2699
 2560TIP3    H229172   1.165   0.401  15.414  0.3690 -0.1571  1.5705
 2561TIP3   OH229173   4.630   4.851  16.689 -0.2011 -0.0320  0.0748
 2561TIP3    H129174   4.709   4.833  16.739  1.0412  2.1011 -0.9860
 2561TIP3    H229175   4.601   4.765  16.658  2.9973 -0.7190 -1.3580
 2562TIP3   OH229176   1.588   6.305  16.480 -0.4965  0.4730  0.8002
 2562TIP3    H129177   1.574   6.254  16.400  0.5689  0.8393  0.3691
 2562TIP3    H229178   1.606   6.239  16.547 -1.8679  0.1305  0.8743
 2563TIP3   OH229179   5.672   1.728  11.524  0.2297 -0.2373 -0.5285
 2563TIP3    H129180   5.629   1.713  11.608 -0.0888 -1.1638 -0.8468
 2563TIP3    H229181   5.733   1.800  11.541  0.7143 -0.9024  0.6860
 2564TIP3   OH229182   4.809   5.097   3.673 -0.2221 -0.1387 -0.3875
 2564TIP3    H129183   4.819   5.124   3.764 -0.0170 -1.0323 -0.1286
 2564TIP3    H229184   4.771   5.009   3.679  0.6619 -0.5862 -1.1387
 2565TIP3   OH229185   4.072   3.713   3.437 -0.0047 -0.0962 -0.4964
 2565TIP3    H129186   4.054   3.651   3.508 -1.8708  0.4410 -0.4459
 2565TIP3    H229187   4.117   3.786   3.480  0.2420 -0.4336 -0.1655
 2566TIP3   OH229188   5.026   4.286   2.613 -0.7269  0.1998 -0.1423
 2566TIP3    H129189   5.070   4.358   2.567  1.5529  0.6618  2.5115
 2566TIP3    H229190   5.084   4.211   2.600 -0.1157  0.2989  1.6788
 2567TIP3   OH229191   4.255   1.825   2.508 -0.0840 -0.3436  0.1541
 2567TIP3    H129192   4.342   1.797   2.480  0.5441 -0.4455  2.0191
 2567TIP3    H229193   4.220   1.749   2.555 -0.0007  0.6076  1.8321
 2568TIP3   OH229194   6.485   2.340   4.799  0.2953  0.1029  0.3793
 2568TIP3    H129195   6.569   2.298   4.785  1.2351  1.7386  0.8542
 2568TIP3    H229196   6.453   2.361   4.711  0.4672 -0.3469  0.2097
 2569TIP3   OH229197   4.863   3.572   1.321 -0.5042  0.4988 -0.1002
 2569TIP3    H129198   4.845   3.550   1.412  0.0767 -1.6810 -0.4757
 2569TIP3    H229199   4.797   3.638   1.299 -1.7908 -0.2442  1.3678
 2570TIP3   OH229200   2.089   1.495   5.321  0.5269  0.2534  0.2681
 2570TIP3    H129201   2.025   1.445   5.373 -0.5744 -0.1409 -1.3729
 2570TIP3    H229202   2.170   1.489   5.372  0.1791 -2.3221  0.6988
 2571TIP3   OH229203   0.762   3.995   3.364  0.8135 -0.5129 -0.5181
 2571TIP3    H129204   0.740   4.086   3.388 -1.0227 -0.9216 -0.4666
 2571TIP3    H229205   0.821   4.004   3.289 -0.8084  0.7826 -1.7451
 2572TIP3   OH229206   5.488   5.017   5.394 -0.3395 -0.4647 -0.4855
 2572TIP3    H129207   5.581   4.999   5.380 -0.1294  0.4888 -0.3846
 2572TIP3    H229208   5.444   4.936   5.367  0.3411 -0.1372 -2.7911
 2573TIP3   OH229209   5.139   4.135   1.347 -0.1315 -0.3132  0.1006
 2573TIP3    H129210   5.207   4.126   1.280 -0.2361 -0.4929  0.0170
 2573TIP3    H229211   5.170   4.079   1.419 -0.1003 -0.2502  0.1361
 2574TIP3   OH229212   4.210   6.712   2.959  0.0785  1.1040 -0.2820
 2574TIP3    H129213   4.195   6.750   2.872 -2.6718  0.4276 -0.2099
 2574TIP3    H229214   4.215   6.618   2.943 -0.6856  0.9564  0.2932
 2575TIP3   OH229215   4.266   5.086  14.840  0.0878 -0.4015  0.0848
 2575TIP3    H129216   4.265   5.178  14.814  0.5369 -0.5445 -0.4611
 2575TIP3    H229217   4.174   5.063  14.848 -0.0598  0.7113  2.5209
 2576TIP3   OH229218   0.922   2.749  16.289 -0.1616  0.1603  0.1938
 2576TIP3    H129219   0.828   2.743  16.277  0.0704 -0.3693 -1.5926
 2576TIP3    H229220   0.942   2.681  16.354 -0.9104 -0.2499  0.0045
 2577TIP3   OH229221   5.214   6.625  12.370  0.4999  0.8827 -0.3132
 2577TIP3    H129222   5.225   6.720  12.371  1.1949  0.8249  1.1502
 2577TIP3    H229223   5.127   6.610  12.405  0.5431  0.9769 -0.1637
 2578TIP3   OH229224   4.973   2.154   3.205 -0.4329  0.0159 -0.2360
 2578TIP3    H129225   5.050   2.193   3.247 -0.7970  1.2104 -0.6383
 2578TIP3    H229226   4.992   2.060   3.201  0.4416  0.1355  0.8250
 2579TIP3   OH229227   0.230   2.302  16.380 -1.0921  0.0542 -0.3764
 2579TIP3    H129228   0.280   2.369  16.334  0.9163 -1.2000 -0.1482
 2579TIP3    H229229   0.155   2.286  16.323 -1.7788  2.6191 -0.3052
 2580TIP3   OH229230   0.523   6.836  13.862  0.1422  0.7082  0.2688
 2580TIP3    H129231   0.580   6.810  13.789  0.1936  1.2750  0.0997
 2580TIP3    H229232   0.508   6.929  13.848 -2.3136  0.2394 -0.7102
 2581TIP3   OH229233   4.778   5.765   2.102  0.0982  0.7866  0.4871
 2581TIP3    H129234   4.779   5.772   2.198  1.2760  0.1380  0.5387
 2581TIP3    H229235   4.696   5.807   2.076  0.2035  1.8030  1.7091
 2582TIP3   OH229236   6.344   1.488  16.994 -0.0459  0.4217  0.4244
 2582TIP3    H129237   6.349   1.423  16.924  4.6530  0.5008  0.4112
 2582TIP3    H229238   6.327   1.570  16.949  3.0722  0.4995 -0.8619
 2583TIP3   OH229239   3.901   4.297   0.518  0.0937 -0.0084  0.3234
 2583TIP3    H129240   3.874   4.371   0.573 -1.7020  0.1531 -0.7085
 2583TIP3    H229241   3.939   4.338   0.440  2.1536 -0.2367  1.1450
 2584TIP3   OH229242   4.234   4.949   0.746  0.4330  0.8523 -0.6215
 2584TIP3    H129243   4.233   4.971   0.839 -3.1321 -0.2075 -0.2285
 2584TIP3    H229244   4.326   4.939   0.724  1.4232 -2.0139  3.6381
 2585TIP3   OH229245   0.438   4.313  13.524  0.6674  0.5625  0.2499
 2585TIP3    H129246   0.409   4.383  13.583 -0.1332  0.8933 -0.5119
 2585TIP3    H229247   0.412   4.343  13.437 -0.4106 -1.0457 -0.0244
 2586TIP3   OH229248   1.195   4.774   0.462 -0.8191  0.2245 -0.2729
 2586TIP3    H129249   1.234   4.719   0.530 -0.6971  0.8492  0.1643
 2586TIP3    H229250   1.249   4.757   0.384 -2.2795 -2.1794 -0.8630
 2587TIP3   OH229251   2.540   0.027   5.875  0.3728 -0.0174 -0.1649
 2587TIP3    H129252   2.632   0.000   5.881 -0.0304 -1.2470  1.3122
 2587TIP3    H229253   2.536   0.110   5.922  1.0746  1.1358 -2.0538
 2588TIP3   OH229254   2.477   4.681  13.933 -0.2258  0.2552  0.0107
 2588TIP3    H129255   2.392   4.647  13.906 -0.6644  1.4090 -0.1100
 2588TIP3    H229256   2.529   4.682  13.852 -0.1587 -0.2342  0.0417
 2589TIP3   OH229257   0.143   6.797  13.110 -0.6242  0.2144  0.0124
 2589TIP3    H129258   0.129   6.872  13.054 -1.5579 -0.5732 -0.8510
 2589TIP3    H229259   0.058   6.782  13.152 -1.1104 -1.6249 -1.4721
 2590TIP3   OH229260   3.828   0.209   4.361  0.5581  0.2364 -0.1480
 2590TIP3    H129261   3.798   0.152   4.290  0.3631  0.8458 -0.5611
 2590TIP3    H229262   3.760   0.200   4.429  0.0788  0.6405 -0.5650
 2591TIP3   OH229263   1.486   3.556   0.088  0.2473  0.0701  0.4737
 2591TIP3    H129264   1.444   3.575   0.004 -0.5143 -0.9324  0.6082
 2591TIP3    H229265   1.580   3.556   0.068  0.1047  0.4651 -0.2344
 2592TIP3   OH229266   2.531   1.316   0.203 -0.2562 -0.0916  0.7461
 2592TIP3    H129267   2.472   1.263   0.150  1.4225 -1.8588  0.5263
 2592TIP3    H229268   2.487   1.327   0.287 -1.0627 -1.0369  0.4600
 2593TIP3   OH229269   1.506   2.246   4.426  0.1744  0.1087  0.5638
 2593TIP3    H129270   1.569   2.221   4.493  0.3158 -1.2893 -0.0478
 2593TIP3    H229271   1.430   2.190   4.444  0.5366 -0.9109 -0.9268
 2594TIP3   OH229272   3.221   2.229  16.067  0.0721  0.0586 -0.2404
 2594TIP3    H129273   3.315   2.224  16.048  0.5789 -2.3956  2.2185
 2594TIP3    H229274   3.179   2.200  15.985  1.5938 -1.0627 -0.6791
 2595TIP3   OH229275   2.003   0.152   5.398 -0.2687 -0.6243 -0.3529
 2595TIP3    H129276   1.953   0.117   5.324 -1.2815  0.7707 -0.3678
 2595TIP3    H229277   1.997   0.247   5.387  2.5516 -0.3767 -0.4521
 2596TIP3   OH229278   1.176   6.582  13.382 -0.2598  0.6406 -0.3535
 2596TIP3    H129279   1.170   6.669  13.341 -0.3610  0.8182  0.0298
 2596TIP3    H229280   1.086   6.563  13.409 -0.1878  0.5432 -0.1826
 2597TIP3   OH229281   1.252   0.361  12.705 -0.1067 -0.7396 -0.1859
 2597TIP3    H129282   1.320   0.404  12.758  0.1137 -2.8046  1.3153
 2597TIP3    H229283   1.276   0.269  12.704 -0.2133 -0.8836 -3.8622
 2598TIP3   OH229284   4.237   4.731  15.536 -0.0355  0.2176  0.2162
 2598TIP3    H129285   4.206   4.651  15.494  0.8066  0.6689 -1.3649
 2598TIP3    H229286   4.212   4.722  15.628 -0.7270 -1.4514 -0.1052
 2599TIP3   OH229287   5.803   2.387  14.134  0.0288 -0.3616  0.0598
 2599TIP3    H129288   5.765   2.302  14.113 -0.4874 -0.5960  1.7742
 2599TIP3    H229289   5.887   2.367  14.175  0.5349  0.0263 -0.7567
 2600TIP3   OH229290   5.675   0.064  11.520  0.1650 -0.3844 -0.1356
 2600TIP3    H129291   5.634   0.074  11.606  1.7470  0.5604  0.5659
 2600TIP3    H229292   5.714   0.149  11.502  1.9766 -1.2555 -0.6281
 2601TIP3   OH229293   2.946   6.781  11.449 -0.1074  0.7494  0.0841
 2601TIP3    H129294   3.007   6.708  11.453 -1.4305 -0.4519 -0.6933
 2601TIP3    H229295   3.001   6.859  11.457  1.4125 -0.3016  0.2591
 2602TIP3   OH229296   2.630   1.893  13.895  0.2758 -0.1396 -0.5372
 2602TIP3    H129297   2.716   1.854  13.911  1.1424  1.9528  0.2952
 2602TIP3    H229298   2.628   1.910  13.801  0.8051 -0.1815 -0.5591
 2603TIP3   OH229299   6.293   0.841  12.917  0.2606  0.4575  0.5962
 2603TIP3    H129300   6.293   0.792  12.835  1.3436 -0.8879  1.3647
 2603TIP3    H229301   6.384   0.868  12.929 -0.2196  2.2958  0.4368
 2604TIP3   OH229302   3.805   6.117   1.428  0.1695 -0.4203  0.4580
 2604TIP3    H129303   3.842   6.153   1.508 -2.3702  2.5988  0.4650
 2604TIP3    H229304   3.724   6.074   1.456 -0.2826 -0.1384 -0.3916
 2605TIP3   OH229305   3.802   5.679   2.741  1.0528  0.1297 -0.0543
 2605TIP3    H129306   3.770   5.685   2.651 -0.4545 -0.8476  0.3854
 2605TIP3    H229307   3.771   5.594   2.772 -0.3910  1.3664  2.1233
 2606TIP3   OH229308   6.091   5.111   5.135  0.0676  0.1708 -0.0469
 2606TIP3    H129309   6.143   5.030   5.142 -0.7052 -0.2497  1.0937
 2606TIP3    H229310   6.155   5.178   5.112  0.7455 -0.7406 -0.9023
 2607TIP3   OH229311   2.912   0.239   6.630  0.0663  0.5949 -0.5436
 2607TIP3    H129312   2.842   0.177   6.611  0.7438 -0.4556  0.3000
 2607TIP3    H229313   2.899   0.310   6.567 -0.5240 -0.5554 -1.7550
 2608TIP3   OH229314   4.165   2.008   1.495  0.2724  0.4016  0.3060
 2608TIP3    H129315   4.072   2.005   1.518  0.4405  0.7940  1.0461
 2608TIP3    H229316   4.205   2.060   1.563  0.8674  1.1667 -0.6082
 2609TIP3   OH229317   6.426   3.764   5.854  0.0003  0.3351  0.6416
 2609TIP3    H129318   6.481   3.713   5.795 -1.1576  1.2226 -1.2809
 2609TIP3    H229319   6.447   3.855   5.835 -1.3273  0.6668  0.6523
 2610TIP3   OH229320   3.659   3.746   3.448 -0.3544  0.2122  0.0259
 2610TIP3    H129321   3.712   3.674   3.482  0.4489 -1.0134 -3.4128
 2610TIP3    H229322   3.723   3.807   3.412 -1.1675  0.6667 -0.6784
 2611TIP3   OH229323   1.091   4.287  13.345  0.3554  0.3534 -0.0525
 2611TIP3    H129324   1.130   4.200  13.352  0.2548  0.3105 -0.0255
 2611TIP3    H229325   1.083   4.302  13.250 -0.0286  0.1541 -0.0500
 2612TIP3   OH229326   2.996   4.454   3.475 -0.5743 -0.0643  0.1500
 2612TIP3    H129327   3.071   4.403   3.445 -0.9851 -0.3647 -0.3737
 2612TIP3    H229328   2.928   4.389   3.492 -0.3782  0.0955  1.7057
 2613TIP3   OH229329   4.584   2.224  16.952  0.5840 -0.4145  0.1608
 2613TIP3    H129330   4.647   2.240  17.022 -1.1002  1.5588  1.3197
 2613TIP3    H229331   4.619   2.148  16.905  3.0052 -0.3036  1.6501
 2614TIP3   OH229332   3.934   1.324   5.772  0.5141  0.7565 -0.2004
 2614TIP3    H129333   3.932   1.258   5.842  0.1877  0.3668 -0.5675
 2614TIP3    H229334   3.990   1.394   5.806  0.0544  0.7489  0.6042
 2615TIP3   OH229335   1.060   4.370  14.453  0.0347 -0.0308  0.2441
 2615TIP3    H129336   1.046   4.319  14.533 -2.5804  1.3277  0.7861
 2615TIP3    H229337   0.977   4.361  14.405  0.3915  1.7497 -0.7788
 2616TIP3   OH229338   5.492   4.009  14.155  0.1797 -0.2145  0.4421
 2616TIP3    H129339   5.566   3.977  14.104  1.1539  1.3062  0.8379
 2616TIP3    H229340   5.472   3.937  14.215 -0.7513 -1.8875 -1.7516
 2617TIP3   OH229341   3.812   1.377   5.237 -0.3718 -0.5844  0.4627
 2617TIP3    H129342   3.772   1.464   5.227 -2.4156 -1.6076 -0.9718
 2617TIP3    H229343   3.820   1.365   5.331 -0.0283  1.1470  0.6885
 2618TIP3   OH229344   2.625   5.997  15.310 -0.1950  0.0762  0.1170
 2618TIP3    H129345   2.659   5.947  15.384 -2.1304 -0.6942  0.5615
 2618TIP3    H229346   2.577   5.933  15.257 -0.6787  1.0190 -0.6273
 2619TIP3   OH229347   0.653   3.961   2.349  0.6351  0.4168  0.2202
 2619TIP3    H129348   0.600   3.882   2.352 -1.0247  1.4895  1.0063
 2619TIP3    H229349   0.714   3.947   2.276  0.8365 -1.8076  0.7406
 2620TIP3   OH229350   6.414   3.334   1.556 -0.1818  0.2951  0.4641
 2620TIP3    H129351   6.360   3.273   1.507  0.6846  0.6373 -0.9883
 2620TIP3    H229352   6.479   3.365   1.492  0.7408  1.0726  1.7334
 2621TIP3   OH229353   1.632   1.862  15.340 -0.5972 -1.0136 -0.4977
 2621TIP3    H129354   1.642   1.769  15.320 -0.3404 -0.8343 -1.2308
 2621TIP3    H229355   1.565   1.864  15.408  0.5408 -1.8400  0.6939
 2622TIP3   OH229356   4.045   4.366  11.618  0.0366 -0.1864 -0.0475
 2622TIP3    H129357   3.990   4.437  11.651  2.3568  1.1476  1.2494
 2622TIP3    H229358   4.054   4.306  11.692 -0.0990 -0.6641 -0.4127
 2623TIP3   OH229359   1.610   2.489   2.900 -0.6243 -0.0850 -0.2079
 2623TIP3    H129360   1.585   2.520   2.987  1.8978  0.4158  0.3910
 2623TIP3    H229361   1.577   2.556   2.840 -0.1708  0.8700  0.5938
 2624TIP3   OH229362   1.107   2.885   5.630 -0.2405  0.5521 -0.8807
 2624TIP3    H129363   1.125   2.830   5.707 -0.4693  2.3299  0.5039
 2624TIP3    H229364   1.154   2.842   5.559  0.4858 -0.8267  0.3761
 2625TIP3   OH229365   0.067   3.514   0.227 -1.0314  0.1369 -0.1492
 2625TIP3    H129366   0.090   3.589   0.173 -0.2184 -0.6605 -0.9470
 2625TIP3    H229367   0.030   3.552   0.306  1.9538  1.5203  0.7233
 2626TIP3   OH229368   1.000   4.942   0.689 -0.2550 -0.5995 -0.5822
 2626TIP3    H129369   1.076   4.919   0.742 -1.2081  0.5430  1.3680
 2626TIP3    H229370   0.975   4.860   0.646  0.1665 -1.7463  1.2620
 2627TIP3   OH229371   2.218   3.712  14.424 -0.1438  0.0603 -0.5328
 2627TIP3    H129372   2.274   3.667  14.487 -1.0697 -1.4551 -0.7428
 2627TIP3    H229373   2.157   3.645  14.394 -0.2865  0.9679 -2.3984
 2628TIP3   OH229374   2.467   2.815  13.729 -0.3469 -0.8042  0.2124
 2628TIP3    H129375   2.381   2.784  13.757 -0.1409 -0.2374  1.5258
 2628TIP3    H229376   2.501   2.863  13.804  1.9585 -2.6525  0.4570
 2629TIP3   OH229377   6.605   5.057  10.435  0.0918  0.0525  0.1251
 2629TIP3    H129378   6.548   5.133  10.439 -1.3872 -1.0233  0.1068
 2629TIP3    H229379   6.678   5.084  10.379  0.2500  1.8436  1.1205
 2630TIP3   OH229380   0.371   5.889  15.379 -0.0196  0.6009 -0.1648
 2630TIP3    H129381   0.332   5.860  15.462 -1.0142  1.1814 -0.4186
 2630TIP3    H229382   0.334   5.830  15.313  2.0483 -0.9594 -0.0312
 2631TIP3   OH229383   3.985   5.398  14.952 -0.0387 -0.3855 -0.1316
 2631TIP3    H129384   4.035   5.472  14.917 -0.4697 -0.2749 -0.5193
 2631TIP3    H229385   4.048   5.350  15.006 -0.1142  1.0704  1.3383
 2632TIP3   OH229386   5.482   4.383  11.579  0.3400  0.1159 -0.1887
 2632TIP3    H129387   5.395   4.400  11.615  0.0189 -0.8009 -0.5010
 2632TIP3    H229388   5.542   4.399  11.651 -0.0087  1.4637 -0.1575
 2633TIP3   OH229389   1.057   4.573   1.053  0.0019 -0.2614 -1.0333
 2633TIP3    H129390   1.111   4.510   1.006 -0.0148  0.9058 -2.7154
 2633TIP3    H229391   0.985   4.521   1.089  1.1871 -1.5316 -0.4138
 2634TIP3   OH229392   4.972   5.544  10.995 -0.2238  0.2278 -0.1908
 2634TIP3    H129393   4.930   5.504  10.919  0.0709  0.2501 -0.3665
 2634TIP3    H229394   5.023   5.473  11.034  0.5740  0.5127 -0.6989
 2635TIP3   OH229395   0.469   5.860  12.882 -0.0467  0.7492  0.0875
 2635TIP3    H129396   0.556   5.895  12.903  0.4246  0.6262 -1.4986
 2635TIP3    H229397   0.455   5.885  12.791  0.4998 -3.3677 -1.3706
 2636TIP3   OH229398   5.956   4.775   6.798 -0.0934  0.0873 -0.1142
 2636TIP3    H129399   6.022   4.743   6.738  0.0262  0.6531 -0.2839
 2636TIP3    H229400   5.936   4.863   6.768  0.8546  0.8574  1.3883
 2637TIP3   OH229401   4.455   2.829   0.775  0.4884  0.2900  0.2786
 2637TIP3    H129402   4.399   2.756   0.802  0.0484  0.9832  1.2992
 2637TIP3    H229403   4.530   2.824   0.834  0.8941  0.1427 -0.2378
 2638TIP3   OH229404   6.830   1.731  14.073  0.1461 -0.1246 -0.5167
 2638TIP3    H129405   6.836   1.735  14.168 -1.9006  1.1945 -0.3740
 2638TIP3    H229406   6.764   1.664  14.055  0.6533 -0.4972 -1.0159
 2639TIP3   OH229407   1.287   1.270  13.654  0.2462 -0.2132 -0.1450
 2639TIP3    H129408   1.296   1.252  13.747  0.5871 -0.9329 -0.3002
 2639TIP3    H229409   1.348   1.342  13.637  1.2759 -1.0278 -0.0578
 2640TIP3   OH229410   1.292   1.075   3.114  0.2671 -0.4607  0.2196
 2640TIP3    H129411   1.321   1.143   3.175  3.2726 -1.2118 -0.2256
 2640TIP3    H229412   1.234   1.020   3.166  0.4246  0.5557  1.5354
 2641TIP3   OH229413   3.627   3.387  12.364  0.3526  0.3033  0.1720
 2641TIP3    H129414   3.640   3.295  12.343  1.2562  0.0080  1.7814
 2641TIP3    H229415   3.534   3.402  12.351 -0.0671 -1.2046  1.0963
 2642TIP3   OH229416   0.079   1.752   3.855  0.2047  0.6204 -0.0569
 2642TIP3    H129417   0.111   1.796   3.776  2.7300 -0.9385 -0.0279
 2642TIP3    H229418   0.080   1.820   3.922 -2.1948  2.0293 -1.2952
 2643TIP3   OH229419   0.083   3.690   3.251 -0.0326 -0.1810 -0.0948
 2643TIP3    H129420   0.144   3.764   3.256  1.5320 -1.4730  2.2588
 2643TIP3    H229421   0.059   3.684   3.159 -0.7618  3.6060 -0.2943
 2644TIP3   OH229422   0.094   0.089  10.919  0.0553 -0.4381 -0.0437
 2644TIP3    H129423   0.012   0.057  10.957 -0.5253  2.1385  1.0708
 2644TIP3    H229424   0.067   0.157  10.858  1.2695 -1.4333 -1.7748
 2645TIP3   OH229425   1.130   2.566   3.754  0.1668  0.3665 -0.7085
 2645TIP3    H129426   1.052   2.621   3.744  0.3136  1.0778  1.5203
 2645TIP3    H229427   1.200   2.616   3.712 -0.2333  0.5698 -1.1417
 2646TIP3   OH229428   6.184   0.414  14.933  0.0418 -0.8651 -0.1501
 2646TIP3    H129429   6.229   0.479  14.879 -1.2341  0.4149  0.2355
 2646TIP3    H229430   6.095   0.449  14.942 -0.7039 -2.6952  0.0678
 2647TIP3   OH229431   2.755   6.505  12.730  0.2295 -0.1639 -0.3716
 2647TIP3    H129432   2.679   6.539  12.778  1.2478  0.7540  0.6595
 2647TIP3    H229433   2.718   6.473  12.648 -1.3387 -0.2022  0.2999
 2648TIP3   OH229434   2.288   0.818   3.867  0.1367  0.0085  0.3231
 2648TIP3    H129435   2.354   0.763   3.824 -0.0751  0.5901 -0.7681
 2648TIP3    H229436   2.224   0.837   3.798  1.8785  4.3950 -0.3854
 2649TIP3   OH229437   6.721   3.712  13.765  0.2650 -0.0336 -0.2734
 2649TIP3    H129438   6.764   3.755  13.838 -0.5373  1.3535 -0.5958
 2649TIP3    H229439   6.628   3.712  13.788  0.1067 -0.4069 -0.8811
 2650TIP3   OH229440   3.099   6.110  17.016 -0.4322  0.1263 -0.1378
 2650TIP3    H129441   3.154   6.080  17.088  0.4423  1.6751 -0.1146
 2650TIP3    H229442   3.116   6.204  17.011 -1.4757  0.2674 -1.5245
 2651TIP3   OH229443   2.237   0.056   1.996 -0.1906  0.0414 -0.1907
 2651TIP3    H129444   2.268   0.145   1.979 -1.2344  0.7303  1.3639
 2651TIP3    H229445   2.304   0.018   2.053 -0.1779  0.1111 -0.1590
 2652TIP3   OH229446   5.375   6.193  11.143 -0.0638 -0.2485  0.0572
 2652TIP3    H129447   5.362   6.251  11.218 -1.1925 -0.7670  0.2871
 2652TIP3    H229448   5.374   6.251  11.067  1.6155  0.3501  0.4387
 2653TIP3   OH229449   4.591   5.150  12.872  0.5879  0.3093 -0.2161
 2653TIP3    H129450   4.577   5.220  12.807  1.2048 -0.3465 -1.0812
 2653TIP3    H229451   4.683   5.126  12.861  0.5559 -0.1746  0.5549
 2654TIP3   OH229452   0.939   2.671  12.810  0.2898  0.3089  0.1151
 2654TIP3    H129453   0.957   2.760  12.839  0.0402  1.0013 -1.7143
 2654TIP3    H229454   0.923   2.622  12.891 -0.3580  2.0909  1.1213
 2655TIP3   OH229455   0.871   1.965  15.987 -0.0551  0.0159  0.2738
 2655TIP3    H129456   0.838   1.875  15.993  1.0134 -0.5084 -1.1567
 2655TIP3    H229457   0.793   2.019  15.977 -0.6151 -0.9713 -0.9520
 2656TIP3   OH229458   6.565   1.579   4.927 -0.2760 -0.0489 -0.3212
 2656TIP3    H129459   6.480   1.535   4.931 -0.3498  0.1201  0.0351
 2656TIP3    H229460   6.545   1.670   4.905 -0.0362 -0.4285 -2.2763
 2657TIP3   OH229461   2.401   2.257   3.272  0.4480 -0.0757 -0.4134
 2657TIP3    H129462   2.445   2.311   3.339  1.5235 -1.8554  0.4002
 2657TIP3    H229463   2.400   2.312   3.194  3.0542  0.5692 -0.1058
 2658TIP3   OH229464   1.820   5.750   3.650 -0.0144 -0.2962  0.2794
 2658TIP3    H129465   1.744   5.732   3.704  0.0386 -0.8321  0.1802
 2658TIP3    H229466   1.867   5.667   3.646  0.7183  0.0924  0.5568
 2659TIP3   OH229467   5.605   3.624  16.221  0.2748 -0.2849 -0.0331
 2659TIP3    H129468   5.546   3.550  16.209 -0.2983  0.1864 -0.1273
 2659TIP3    H229469   5.686   3.597  16.178 -0.7258  0.1197 -2.3060
 2660TIP3   OH229470   2.927   0.149  12.072  0.2689 -0.1427 -0.1012
 2660TIP3    H129471   2.844   0.167  12.116  0.1359 -1.3825  0.2100
 2660TIP3    H229472   2.907   0.152  11.979 -0.2932 -1.0712 -0.0262
 2661TIP3   OH229473   3.124   4.631  13.854  0.0290 -0.0224  0.1815
 2661TIP3    H129474   3.150   4.547  13.891 -1.6865  0.2287  2.1400
 2661TIP3    H229475   3.203   4.663  13.809  1.5640 -1.3838  1.7708
 2662TIP3   OH229476   0.088   3.738   4.702  0.2147 -0.3462 -0.2991
 2662TIP3    H129477   0.051   3.804   4.644  0.0950  0.3277  0.5388
 2662TIP3    H229478   0.169   3.777   4.735 -0.3395 -0.2141  0.9500
 2663TIP3   OH229479   2.307   5.829  15.613  0.1599 -0.0492  0.7008
 2663TIP3    H129480   2.230   5.773  15.602  1.5372 -1.9425  0.0595
 2663TIP3    H229481   2.292   5.877  15.694 -1.4307 -0.8084  0.8758
 2664TIP3   OH229482   0.196   1.432  16.761  0.5707 -0.6234 -0.4942
 2664TIP3    H129483   0.146   1.367  16.711  0.3092  0.3629 -1.5504
 2664TIP3    H229484   0.212   1.503  16.699  0.9093  0.3016  0.6174
 2665TIP3   OH229485   0.911   5.998   1.569  0.8782  1.2975 -0.1980
 2665TIP3    H129486   0.896   5.973   1.478  3.5485  2.4712 -1.0459
 2665TIP3    H229487   0.875   6.086   1.577 -0.3656  0.7707  0.2413
 2666TIP3   OH229488   6.281   3.984   3.124  0.7695 -0.3433  0.1759
 2666TIP3    H129489   6.351   4.006   3.185 -0.6705  2.2754  1.0364
 2666TIP3    H229490   6.270   4.063   3.070 -1.2064 -0.8070 -0.2081
 2667TIP3   OH229491   1.940   3.446   0.957 -0.7175  1.0783  0.3164
 2667TIP3    H129492   1.983   3.478   0.878 -0.9553 -0.4359 -0.4773
 2667TIP3    H229493   1.929   3.352   0.941  0.1670  0.5322  2.5906
 2668TIP3   OH229494   5.686   6.210  12.635  0.2724  0.3143 -0.0460
 2668TIP3    H129495   5.776   6.205  12.603  1.8693  0.9927  3.8706
 2668TIP3    H229496   5.666   6.121  12.665 -0.0058  0.3842 -0.0181
 2669TIP3   OH229497   6.144   5.018   1.591  0.7217 -0.3866 -0.1339
 2669TIP3    H129498   6.154   5.001   1.497  1.9743  1.4188 -0.3599
 2669TIP3    H229499   6.063   5.069   1.597  1.1119  0.2550 -0.3305
 2670TIP3   OH229500   1.406   5.651  12.095 -0.3806  0.2800 -0.3213
 2670TIP3    H129501   1.351   5.578  12.124  0.0770  0.0279 -0.0695
 2670TIP3    H229502   1.414   5.639  12.001  0.9729 -0.9207 -0.0940
 2671TIP3   OH229503   0.805   1.711  16.086 -0.1323  0.5872  0.4611
 2671TIP3    H129504   0.854   1.661  16.021 -3.6404 -0.6885 -1.4556
 2671TIP3    H229505   0.748   1.647  16.129 -1.1254  2.1422  1.6072
 2672TIP3   OH229506   2.763   1.920   2.232 -0.0322 -0.0579  0.1492
 2672TIP3    H129507   2.797   1.867   2.160 -0.4140 -0.1250  0.0168
 2672TIP3    H229508   2.683   1.959   2.198 -0.3213 -0.2496  0.5961
 2673TIP3   OH229509   5.685   4.259   5.102 -0.5751  0.1208  0.9391
 2673TIP3    H129510   5.672   4.354   5.108 -0.2363  0.2509 -0.1700
 2673TIP3    H229511   5.626   4.231   5.033 -1.5404 -0.6741  2.0611
 2674TIP3   OH229512   1.849   5.080  15.891 -0.1735  0.1202  0.1311
 2674TIP3    H129513   1.815   4.999  15.853  0.3634 -0.3613  0.6670
 2674TIP3    H229514   1.831   5.147  15.824 -1.2157 -0.3071 -0.0369
 2675TIP3   OH229515   4.857   3.647  15.404 -0.0916  0.4511  0.4759
 2675TIP3    H129516   4.881   3.597  15.482 -1.3207 -0.5836  0.2346
 2675TIP3    H229517   4.864   3.584  15.332 -3.7088 -0.1227  0.4367
 2676TIP3   OH229518   4.788   1.586   5.382 -0.3877 -0.5757 -0.2332
 2676TIP3    H129519   4.765   1.662   5.328 -0.4188 -0.9872 -0.8125
 2676TIP3    H229520   4.778   1.617   5.472 -0.0750  0.2066 -0.4550
 2677TIP3   OH229521   6.706   3.141   0.050 -0.1754  0.0033 -0.8984
 2677TIP3    H129522   6.760   3.172   0.122 -0.3210  3.1149 -1.9549
 2677TIP3    H229523   6.767   3.094  -0.007  0.0322 -2.0536  0.8954
 2678TIP3   OH229524   0.756   0.712   6.167 -0.1278 -0.0788 -0.8453
 2678TIP3    H129525   0.792   0.650   6.230  0.5681 -0.4967 -1.6249
 2678TIP3    H229526   0.825   0.778   6.156  0.3385 -0.7355 -2.1411
 2679TIP3   OH229527   3.873   2.039  12.957  0.1870 -0.6018 -0.2637
 2679TIP3    H129528   3.931   1.966  12.934  1.7379  0.6009 -0.3051
 2679TIP3    H229529   3.931   2.106  12.993 -1.1597  0.7160 -0.4351
 2680TIP3   OH229530   1.546   6.666  14.772  0.0295  0.0150  0.3198
 2680TIP3    H129531   1.581   6.711  14.849  0.8250 -1.3833  0.8129
 2680TIP3    H229532   1.546   6.732  14.703  1.0647  0.7852  1.0355
 2681TIP3   OH229533   0.905   5.109   1.789 -0.4216 -0.0980  0.0588
 2681TIP3    H129534   0.814   5.101   1.761 -0.6500  2.1879 -0.0209
 2681TIP3    H229535   0.937   5.188   1.746  0.9775  0.2877  1.6732
 2682TIP3   OH229536   6.797   3.950   0.348 -0.1605  0.1851 -0.5300
 2682TIP3    H129537   6.734   3.913   0.286  1.2003 -0.4090 -1.6103
 2682TIP3    H229538   6.809   4.041   0.319 -1.0388  0.5220  0.1221
 2683TIP3   OH229539   0.133   2.044  11.668 -0.3085 -0.4813 -0.0728
 2683TIP3    H129540   0.221   2.035  11.630  0.7219  0.5801  1.9115
 2683TIP3    H229541   0.124   2.138  11.684 -2.5138 -0.3380 -1.7193
 2684TIP3   OH229542   2.316   2.439   1.633 -0.2544  0.1121 -0.5916
 2684TIP3    H129543   2.296   2.513   1.691 -0.4458  1.1857 -1.9770
 2684TIP3    H229544   2.410   2.425   1.645 -0.1210  0.8907 -0.6500
 2685TIP3   OH229545   5.223   0.060  12.406 -0.5219  0.6952  0.6046
 2685TIP3    H129546   5.207   0.153  12.389  0.8759  0.5307 -2.2215
 2685TIP3    H229547   5.315   0.055  12.429  0.0992 -0.1362 -1.7268
 2686TIP3   OH229548   2.067   4.804   3.263 -0.1750 -0.0284  0.2149
 2686TIP3    H129549   2.133   4.772   3.325 -1.1047 -0.7772  0.8511
 2686TIP3    H229550   1.984   4.791   3.309 -0.8855 -0.6308 -1.2111
 2687TIP3   OH229551   4.800   4.824   3.652 -0.0547  0.2277  0.3087
 2687TIP3    H129552   4.766   4.736   3.638 -1.8347  0.8562  0.3922
 2687TIP3    H229553   4.891   4.811   3.679 -1.1048 -1.8089  3.5413
 2688TIP3   OH229554   4.272   2.202   5.465  0.2698 -0.5338 -0.5430
 2688TIP3    H129555   4.245   2.193   5.556 -0.9159  1.7196 -0.5910
 2688TIP3    H229556   4.253   2.117   5.425 -1.5760 -0.7898  0.7540
 2689TIP3   OH229557   6.507   4.330  14.938  0.6884  0.0318  0.6705
 2689TIP3    H129558   6.502   4.340  15.033  1.8227  1.7611  0.6059
 2689TIP3    H229559   6.430   4.376  14.905  0.1477 -0.8048  0.7516
 2690TIP3   OH229560   4.660   4.589  11.346 -0.4371  0.2973  0.0483
 2690TIP3    H129561   4.637   4.560  11.258  0.1643  0.0341 -0.0276
 2690TIP3    H229562   4.755   4.603  11.343 -0.0864 -1.5424  1.1641
 2691TIP3   OH229563   2.569   5.202   1.932 -0.3845  0.7813  0.5875
 2691TIP3    H129564   2.539   5.289   1.905  0.7196  0.7345 -0.9240
 2691TIP3    H229565   2.563   5.150   1.852  0.6020 -0.0674  1.0565
 2692TIP3   OH229566   5.955   1.552   1.353 -0.2123  0.2833 -0.5762
 2692TIP3    H129567   5.907   1.603   1.288  0.3760 -0.0340 -1.2782
 2692TIP3    H229568   6.034   1.524   1.307  1.0902  1.5273  0.7884
 2693TIP3   OH229569   6.296   5.211  15.208 -0.5387  0.3660  0.6036
 2693TIP3    H129570   6.230   5.256  15.155 -0.5504 -2.1850 -1.7441
 2693TIP3    H229571   6.257   5.206  15.295 -2.6332  0.5959 -0.2558
 2694TIP3   OH229572   0.215   3.102   1.357 -0.6898 -0.1325  0.0578
 2694TIP3    H129573   0.282   3.105   1.288  0.4942  1.0860  1.2044
 2694TIP3    H229574   0.176   3.015   1.347  1.0718 -0.9131 -0.6641
 2695TIP3   OH229575   1.978   0.948  16.109 -0.2548  0.1713 -0.4093
 2695TIP3    H129576   1.967   0.981  16.199 -0.5777 -0.2986 -0.2695
 2695TIP3    H229577   2.056   0.893  16.113  1.3015  2.2554 -1.0391
 2696TIP3   OH229578   2.605   3.113   3.389 -0.1797 -0.4462 -0.8114
 2696TIP3    H129579   2.614   3.197   3.345 -0.5834 -0.6453 -1.2792
 2696TIP3    H229580   2.693   3.076   3.390  0.1228  0.2666 -0.0226
 2697TIP3   OH229581   6.612   3.469   2.386  0.1952  0.4719  0.3448
 2697TIP3    H129582   6.654   3.500   2.466  0.6997  2.0369 -0.4916
 2697TIP3    H229583   6.678   3.480   2.318  0.8287 -3.4942  0.0674
 2698TIP3   OH229584   6.728   4.588  16.198  0.3864  0.2861  0.4097
 2698TIP3    H129585   6.639   4.600  16.230  0.2984  0.8968 -0.0719
 2698TIP3    H229586   6.771   4.672  16.211  1.3684 -0.4170  2.0862
 2699TIP3   OH229587   6.259   1.307   1.209 -0.0144 -0.2213  0.2962
 2699TIP3    H129588   6.333   1.272   1.160 -0.3150 -0.3521 -0.0718
 2699TIP3    H229589   6.283   1.297   1.301  0.0333 -1.1193  0.1943
 2700TIP3   OH229590   4.889   6.551  15.294 -0.4478  0.0264 -0.2423
 2700TIP3    H129591   4.838   6.492  15.349  0.7327 -0.4694  0.3583
 2700TIP3    H229592   4.897   6.504  15.211 -1.4578  0.3719 -0.5461
 2701TIP3   OH229593   0.073   4.789  17.122 -0.0842 -0.1612 -0.4996
 2701TIP3    H129594   0.011   4.861  17.133 -0.8325 -0.8973  0.2633
 2701TIP3    H229595   0.018   4.711  17.111  0.6663 -0.9435  0.9528
 2702TIP3   OH229596   5.982   5.982  16.506 -0.3625 -0.1555 -0.3820
 2702TIP3    H129597   5.960   6.069  16.473  0.7675  0.3434  0.1000
 2702TIP3    H229598   5.908   5.957  16.561  0.6310  1.9391  2.1115
 2703TIP3   OH229599   1.270   5.400  14.426 -0.4094  0.2659  0.3788
 2703TIP3    H129600   1.361   5.419  14.403 -0.2131  0.3143  1.1567
 2703TIP3    H229601   1.272   5.310  14.459 -1.0154 -0.5119 -1.5411
 2704TIP3   OH229602   3.998   4.824  16.654 -0.2287  0.1723 -0.4596
 2704TIP3    H129603   4.086   4.790  16.667  0.2910  1.1690 -1.1826
 2704TIP3    H229604   3.951   4.804  16.735  1.1099  0.9978  0.5472
 2705TIP3   OH229605   6.492   5.050   6.255 -0.3521  0.2271 -0.0145
 2705TIP3    H129606   6.406   5.063   6.295 -0.1126  2.7637 -0.1805
 2705TIP3    H229607   6.549   5.023   6.327 -1.1541 -1.0552  0.1755
 2706TIP3   OH229608   4.748   1.675  15.965 -0.3945 -0.5106 -0.1296
 2706TIP3    H129609   4.730   1.601  16.023  0.1032 -2.3657 -2.1990
 2706TIP3    H229610   4.662   1.699  15.930 -0.8373  1.2728  2.0276
 2707TIP3   OH229611   0.131   0.712  16.026 -0.0484  0.2615 -0.1322
 2707TIP3    H129612   0.211   0.754  16.059  0.3520 -1.3867  1.2066
 2707TIP3    H229613   0.134   0.624  16.066 -1.6300 -0.4434 -1.4957
 2708TIP3   OH229614   0.170   5.125  11.419 -0.7134  0.2149  0.1065
 2708TIP3    H129615   0.140   5.052  11.365 -0.6460  0.4427 -0.2368
 2708TIP3    H229616   0.111   5.197  11.397 -0.1563  0.5549 -0.2869
 2709TIP3   OH229617   2.992   4.190  12.874  0.0524 -0.0004 -0.3167
 2709TIP3    H129618   2.928   4.206  12.805  0.7676  0.2067 -0.9436
 2709TIP3    H229619   3.030   4.275  12.892  1.1655 -0.3360 -0.9722
 2710TIP3   OH229620   5.313   1.534  16.016 -0.4671  0.3558  0.2012
 2710TIP3    H129621   5.239   1.519  16.075 -0.8628  1.0552 -0.1027
 2710TIP3    H229622   5.310   1.462  15.954 -1.4702  0.8787 -0.3760
 2711TIP3   OH229623   5.489   5.988  15.940 -0.4875  0.5060  0.0145
 2711TIP3    H129624   5.430   5.955  16.008 -0.4031 -0.7373 -0.4983
 2711TIP3    H229625   5.497   6.082  15.959 -1.3975  0.4007  1.0091
 2712TIP3   OH229626   2.913   2.279   1.394  0.0411  0.6319 -0.0621
 2712TIP3    H129627   2.947   2.213   1.454 -1.3985 -0.6888 -0.6260
 2712TIP3    H229628   2.976   2.351   1.399  1.3143 -0.5038  1.0746
 2713TIP3   OH229629   3.684   4.743  13.940  0.1174  0.2422  0.2806
 2713TIP3    H129630   3.674   4.798  14.018 -0.8343 -0.7838  0.9149
 2713TIP3    H229631   3.620   4.674  13.952  0.4486 -0.3270 -1.0964
 2714TIP3   OH229632   6.749   1.947   4.428 -0.1723 -0.2506 -0.1986
 2714TIP3    H129633   6.657   1.940   4.455  0.2782 -1.7672  1.0388
 2714TIP3    H229634   6.792   1.873   4.469  1.7360  0.7187 -0.3450
 2715TIP3   OH229635   1.989   4.865  13.744 -0.0081 -0.1943  0.0504
 2715TIP3    H129636   2.042   4.939  13.715 -1.8437  1.1079 -0.1085
 2715TIP3    H229637   2.012   4.794  13.684  1.1269  0.4896 -0.3469
 2716TIP3   OH229638   3.814   0.181  13.084 -0.6617 -0.1798  0.5985
 2716TIP3    H129639   3.893   0.235  13.092  0.4035 -1.7393  0.9302
 2716TIP3    H229640   3.783   0.198  12.995  0.3325  0.0950  0.2838
 2717TIP3   OH229641   5.407   1.045  15.522 -0.5801 -0.6448  0.2295
 2717TIP3    H129642   5.436   0.976  15.582 -1.8819 -1.0825  0.3842
 2717TIP3    H229643   5.417   1.008  15.435 -0.3459 -0.6551  0.2594
 2718TIP3   OH229644   2.420   4.987   3.692  0.4371 -0.7047 -0.0734
 2718TIP3    H129645   2.510   4.958   3.701  0.3341 -0.8922  0.4030
 2718TIP3    H229646   2.396   5.018   3.780  1.1381  2.5488 -0.8814
 2719TIP3   OH229647   6.290   5.802   0.726 -0.1119  0.1273  0.5214
 2719TIP3    H129648   6.248   5.857   0.660  0.3334 -0.5964 -0.3990
 2719TIP3    H229649   6.372   5.847   0.746 -0.3547  0.4684  0.7544
 2720TIP3   OH229650   4.016   2.946  12.573  0.6187 -0.0332 -0.1527
 2720TIP3    H129651   4.090   2.941  12.632  1.5268  0.1592 -1.2373
 2720TIP3    H229652   3.992   3.039  12.571 -0.2822 -0.2205  0.9173
 2721TIP3   OH229653   3.309   2.133   5.401  0.1293 -0.1542  0.2997
 2721TIP3    H129654   3.318   2.044   5.367 -1.3336 -0.4733  0.6892
 2721TIP3    H229655   3.397   2.171   5.394  0.4060 -1.0558 -1.4456
 2722TIP3   OH229656   5.092   0.992   1.458  0.3217  0.1674  0.1312
 2722TIP3    H129657   5.127   0.949   1.536 -1.9576  2.8398  2.8256
 2722TIP3    H229658   5.001   0.962   1.453 -0.1593  1.6451 -0.2254
 2723TIP3   OH229659   2.418   3.782  11.178  0.3606  0.2947  0.0549
 2723TIP3    H129660   2.435   3.709  11.238 -2.6141  0.6579  1.5316
 2723TIP3    H229661   2.460   3.756  11.096  1.3056 -2.0294  1.1792
 2724TIP3   OH229662   4.359   1.339   1.035  0.5077 -0.1194 -0.0662
 2724TIP3    H129663   4.328   1.430   1.035  1.2470  0.1444  0.6923
 2724TIP3    H229664   4.439   1.341   1.087  0.1191 -1.3494  0.6206
 2725TIP3   OH229665   5.837   3.605   3.258 -0.0468  0.1495 -0.0384
 2725TIP3    H129666   5.925   3.613   3.221  0.8182 -0.6404  1.7546
 2725TIP3    H229667   5.808   3.517   3.234 -0.0996  0.1861 -0.1091
 2726TIP3   OH229668   5.281   3.246  11.325 -0.6167  1.0202 -0.1261
 2726TIP3    H129669   5.277   3.329  11.372  0.6803  2.0058 -1.6655
 2726TIP3    H229670   5.315   3.184  11.390 -0.2244  2.0185  0.6469
 2727TIP3   OH229671   1.110   5.835   5.781  0.2234 -0.2193 -0.3982
 2727TIP3    H129672   1.080   5.923   5.802  0.9291  0.1263 -0.8162
 2727TIP3    H229673   1.166   5.846   5.704  0.8560 -0.9459 -0.0592
 2728TIP3   OH229674   5.005   4.473  11.790  0.4785  0.5709 -0.0925
 2728TIP3    H129675   5.031   4.562  11.767  0.5677  0.6347  0.2492
 2728TIP3    H229676   4.933   4.453  11.731 -2.1470  2.2777  2.3123
 2729TIP3   OH229677   6.614   2.895   0.161 -0.4436  0.3971 -0.2728
 2729TIP3    H129678   6.620   2.973   0.105 -0.0420 -1.0395 -2.3291
 2729TIP3    H229679   6.692   2.843   0.139 -0.4545 -0.3959  1.4006
 2730TIP3   OH229680   3.811   0.736   5.835  0.9319  0.3190 -0.2794
 2730TIP3    H129681   3.882   0.726   5.898  0.7638  0.5542 -0.0491
 2730TIP3    H229682   3.821   0.661   5.775  0.0016 -0.9831  1.1011
 2731TIP3   OH229683   1.128   3.805  17.160  0.4311 -0.0370  0.0275
 2731TIP3    H129684   1.105   3.891  17.125  1.0656  0.2168  0.2332
 2731TIP3    H229685   1.201   3.776  17.107 -0.2961 -0.8192 -0.5791
 2732TIP3   OH229686   0.916   2.156   1.876  0.1657  0.0186 -0.1603
 2732TIP3    H129687   0.885   2.076   1.917 -0.8084  0.9204  0.9246
 2732TIP3    H229688   0.912   2.222   1.945 -0.5007  1.3560 -1.4246
 2733TIP3   OH229689   2.256   4.506  14.429  0.1124  0.3417  0.1382
 2733TIP3    H129690   2.339   4.521  14.474  0.3286 -1.0751  0.2692
 2733TIP3    H229691   2.275   4.524  14.337  0.3155  0.9075  0.2875
 2734TIP3   OH229692   2.667   3.084  13.945 -0.4363  0.1139  0.0321
 2734TIP3    H129693   2.671   3.144  14.020  0.2528  1.5207 -1.1007
 2734TIP3    H229694   2.716   3.128  13.876 -1.5260 -0.8867 -1.4429
 2735TIP3   OH229695   2.271   5.508   4.402 -0.2067 -0.4539 -0.4640
 2735TIP3    H129696   2.332   5.581   4.394  1.4276 -1.5859  1.0362
 2735TIP3    H229697   2.307   5.441   4.344 -2.0472  0.0383 -2.3457
 2736TIP3   OH229698   3.440   4.750   0.721 -0.2551 -0.6220 -0.5012
 2736TIP3    H129699   3.357   4.754   0.674 -1.5678  0.7134  1.7535
 2736TIP3    H229700   3.502   4.715   0.657 -2.6123 -2.1271 -2.1461
 2737TIP3   OH229701   2.524   5.818   1.135 -0.1431 -0.1071 -0.0906
 2737TIP3    H129702   2.460   5.872   1.088  0.6492  1.0362  0.1048
 2737TIP3    H229703   2.509   5.839   1.227  0.5421  0.2029 -0.0489
 2738TIP3   OH229704   2.503   2.059  16.311 -0.9830  0.5100  0.8563
 2738TIP3    H129705   2.488   2.117  16.236  0.8182  1.1539  0.9395
 2738TIP3    H229706   2.599   2.053  16.318 -1.1101 -1.4909  1.6219
 2739TIP3   OH229707   6.534   3.965  13.652  0.5025 -0.1071  0.5671
 2739TIP3    H129708   6.625   3.986  13.630  0.0816 -0.4345 -1.6901
 2739TIP3    H229709   6.540   3.925  13.739  2.7795 -1.8630 -0.2916
 2740TIP3   OH229710   4.470   2.070   5.693  0.1306 -0.5512 -0.1843
 2740TIP3    H129711   4.477   2.097   5.785 -1.5669 -0.8224  0.0534
 2740TIP3    H229712   4.402   2.127   5.656 -0.6563 -1.8059 -0.7248
 2741TIP3   OH229713   1.801   1.845  13.178 -0.0592  0.7190  0.0560
 2741TIP3    H129714   1.864   1.908  13.144 -0.3681 -0.1687 -2.3287
 2741TIP3    H229715   1.720   1.894  13.187 -0.3442  0.6928 -1.9376
 2742TIP3   OH229716   6.341   0.102  12.746  0.4662 -0.0074 -0.0807
 2742TIP3    H129717   6.364   0.169  12.809 -2.4145 -0.6613  1.8473
 2742TIP3    H229718   6.304   0.149  12.672 -1.3065  0.6458  1.1533
 2743TIP3   OH229719   4.114   4.889   2.205 -0.4914 -0.2980  0.2184
 2743TIP3    H129720   4.132   4.963   2.262 -0.2966  0.0640 -0.2996
 2743TIP3    H229721   4.193   4.834   2.209 -1.0621 -1.0692  1.4666
 2744TIP3   OH229722   6.629   1.470  15.454  0.0628 -0.0451  0.5147
 2744TIP3    H129723   6.603   1.557  15.423  0.3100 -0.1550 -0.0066
 2744TIP3    H229724   6.701   1.445  15.397  0.6688 -0.1625  1.3195
 2745TIP3   OH229725   4.051   5.003   1.796 -0.1727 -0.0197  0.2118
 2745TIP3    H129726   4.121   5.067   1.808  1.3718 -1.4717 -0.6171
 2745TIP3    H229727   3.990   5.045   1.735  0.7190  0.7392 -0.1849
 2746TIP3   OH229728   0.010   2.238   1.648 -0.3975  0.4089 -0.0862
 2746TIP3    H129729  -0.065   2.257   1.705 -1.4413 -0.4727 -1.0923
 2746TIP3    H229730   0.008   2.306   1.582 -1.3235 -0.5036 -1.0360
 2747TIP3   OH229731   6.318   5.628   0.328 -0.0394  0.1109 -0.7692
 2747TIP3    H129732   6.329   5.723   0.330 -0.1522  0.1192 -0.5252
 2747TIP3    H229733   6.407   5.594   0.326 -0.0026  0.2363 -1.7036
 2748TIP3   OH229734   6.567   2.699  15.226  0.2995 -0.6189  0.2264
 2748TIP3    H129735   6.662   2.706  15.215 -0.0150  0.9360 -2.3771
 2748TIP3    H229736   6.531   2.748  15.152 -2.5585  0.1771  2.0044
 2749TIP3   OH229737   4.369   4.231  15.104  0.1152  0.2453  0.1352
 2749TIP3    H129738   4.337   4.142  15.090 -0.9289  0.7197 -0.6870
 2749TIP3    H229739   4.382   4.238  15.198 -0.8785 -0.4335  0.3386
 2750TIP3   OH229740   2.819   2.993   0.555  0.0635  0.6860  0.2509
 2750TIP3    H129741   2.888   3.052   0.584 -1.1844  2.3858 -0.1101
 2750TIP3    H229742   2.743   3.050   0.540 -0.4482 -0.5973 -2.7025
 2751TIP3   OH229743   2.718   5.652   3.962  0.4507 -0.0811  0.7697
 2751TIP3    H129744   2.662   5.582   3.927  0.4172  0.6805 -0.7809
 2751TIP3    H229745   2.657   5.711   4.005 -0.2632  1.4649 -2.0795
 2752TIP3   OH229746   2.076   3.255  12.916  0.1768 -0.1549  0.4096
 2752TIP3    H129747   2.121   3.305  12.847 -2.0354  0.5711 -0.6115
 2752TIP3    H229748   2.047   3.322  12.978 -1.3333 -0.3005 -0.0892
 2753TIP3   OH229749   2.056   2.187  12.540  0.4252  0.0320 -0.6649
 2753TIP3    H129750   1.979   2.179  12.483  1.6667 -2.2372 -2.1622
 2753TIP3    H229751   2.065   2.281  12.554 -2.5049  0.3912 -0.5423
 2754TIP3   OH229752   2.231   3.116  16.799 -0.2095  0.1153 -0.2974
 2754TIP3    H129753   2.140   3.085  16.797 -1.2332  2.8610 -0.5680
 2754TIP3    H229754   2.225   3.205  16.833  2.5491 -0.0070  0.7284
 2755TIP3   OH229755   4.602   3.829   6.108 -0.1274 -0.1020  0.0033
 2755TIP3    H129756   4.583   3.759   6.169  0.0376  0.2478  0.4583
 2755TIP3    H229757   4.547   3.902   6.137  0.5602  0.3295  0.2314
 2756TIP3   OH229758   2.121   0.733  17.118  0.1591  0.3210  0.4560
 2756TIP3    H129759   2.097   0.777  17.036  1.7185  0.1931 -0.1046
 2756TIP3    H229760   2.202   0.686  17.097  0.6302  0.3425  2.0980
 2757TIP3   OH229761   1.858   0.508   4.983 -0.2899 -0.1388 -0.6653
 2757TIP3    H129762   1.864   0.586   5.039  0.9614 -0.0647 -0.8878
 2757TIP3    H229763   1.768   0.477   4.995 -0.9339  1.5590 -0.8837
 2758TIP3   OH229764   3.707   5.922   4.113 -0.2816  0.7360  0.1187
 2758TIP3    H129765   3.656   5.854   4.158 -1.3491 -0.0908 -2.1656
 2758TIP3    H229766   3.775   5.874   4.066 -0.9293  1.2385 -1.3768
 2759TIP3   OH229767   3.142   5.310   3.021  0.3767 -0.8542  0.2687
 2759TIP3    H129768   3.143   5.315   3.117  0.9128  0.6399  0.2059
 2759TIP3    H229769   3.072   5.370   2.995  1.9779  0.8080 -0.3475
 2760TIP3   OH229770   3.430   0.017   5.321 -0.2280  0.2311  0.2055
 2760TIP3    H129771   3.437   0.101   5.368  0.5699  0.3676 -0.1415
 2760TIP3    H229772   3.510  -0.029   5.343 -1.0692 -0.8416  1.1220
 2761TIP3   OH229773   0.759   2.519  12.426 -0.4180 -0.0582  0.6618
 2761TIP3    H129774   0.751   2.467  12.507  2.9337 -0.9784  0.5532
 2761TIP3    H229775   0.744   2.609  12.455 -1.2433 -0.5418  1.8798
 2762TIP3   OH229776   2.822   4.226  10.714  0.0836 -0.2782 -0.1680
 2762TIP3    H129777   2.899   4.169  10.717  0.0933 -0.2508  0.0874
 2762TIP3    H229778   2.766   4.187  10.646  1.7030  1.4330 -2.6888
 2763TIP3   OH229779   1.928   2.726   2.649 -0.1762  0.2408  0.0907
 2763TIP3    H129780   1.916   2.701   2.740 -1.6476 -0.1813 -0.2020
 2763TIP3    H229781   1.865   2.673   2.600 -0.0558  1.1231 -1.0758
 2764TIP3   OH229782   2.301   1.154  15.439  0.7502  0.4810 -0.0361
 2764TIP3    H129783   2.372   1.093  15.457  1.3513  0.4500 -2.2526
 2764TIP3    H229784   2.225   1.098  15.424  0.1311  0.5177  2.4589
 2765TIP3   OH229785   0.460   0.970  13.137 -0.2686 -0.1546 -0.1083
 2765TIP3    H129786   0.482   0.907  13.205  0.7341 -0.6106 -0.8362
 2765TIP3    H229787   0.391   0.926  13.086  0.9584 -1.0176 -1.0754
 2766TIP3   OH229788   1.124   3.746  16.535 -0.2255 -0.2098  0.4908
 2766TIP3    H129789   1.187   3.818  16.540 -0.2504 -0.2038  0.6950
 2766TIP3    H229790   1.039   3.789  16.539 -0.2924 -0.0641 -1.3070
 2767TIP3   OH229791   6.178   0.116   4.357  0.2143  0.5656 -0.4462
 2767TIP3    H129792   6.188   0.107   4.452 -0.0712  0.3034 -0.4397
 2767TIP3    H229793   6.210   0.204   4.338 -3.3526  2.2342  0.4483
 2768TIP3   OH229794   0.389   6.190  12.720 -0.0720  0.4432 -0.2828
 2768TIP3    H129795   0.341   6.112  12.693  0.5341 -0.6081  1.4709
 2768TIP3    H229796   0.476   6.179  12.681  0.7551 -0.9966  1.7739
 2769TIP3   OH229797   0.512   6.174  15.750 -0.3692  0.1626  0.2051
 2769TIP3    H129798   0.466   6.195  15.668 -1.1792  0.5400  0.7471
 2769TIP3    H229799   0.507   6.079  15.757 -0.1053  0.1074 -0.2894
 2770TIP3   OH229800   5.587   2.804  11.495  0.5596 -1.1795 -0.4537
 2770TIP3    H129801   5.525   2.824  11.565 -0.4039 -0.9257 -1.3508
 2770TIP3    H229802   5.553   2.851  11.418  2.7297  0.3375 -0.6173
 2771TIP3   OH229803   3.929   6.291  13.077  0.1361 -0.5009  0.2307
 2771TIP3    H129804   3.947   6.198  13.088 -0.4788 -1.0776 -2.7810
 2771TIP3    H229805   4.012   6.334  13.099  0.3580 -1.6678  1.8872
 2772TIP3   OH229806   2.975   2.176  11.827  0.7110 -0.0274 -0.1416
 2772TIP3    H129807   3.040   2.109  11.808 -0.7656 -1.9059  1.0155
 2772TIP3    H229808   2.891   2.132  11.811 -0.4345  3.0040 -4.0395
 2773TIP3   OH229809   4.004   4.145  14.570 -0.2067 -0.2653 -0.0444
 2773TIP3    H129810   4.086   4.095  14.574 -0.4784 -0.8042 -0.9920
 2773TIP3    H229811   4.030   4.233  14.545  0.3358  0.2667  2.1265
 2774TIP3   OH229812   4.566   2.916   1.682 -0.4852  0.3329 -0.0193
 2774TIP3    H129813   4.536   2.931   1.592 -0.3715  0.3156 -0.0604
 2774TIP3    H229814   4.628   2.987   1.698  0.6370 -0.5098 -0.4812
 2775TIP3   OH229815   4.010   1.941  10.645 -0.2002  0.7115  0.1017
 2775TIP3    H129816   4.062   2.018  10.667  0.7942  0.1111 -0.0966
 2775TIP3    H229817   4.051   1.905  10.567 -1.2859  0.5586 -0.4216
 2776TIP3   OH229818   0.268   2.903   1.695  0.6729  0.1740 -0.2587
 2776TIP3    H129819   0.281   2.880   1.787  0.6825 -1.5176 -0.6446
 2776TIP3    H229820   0.295   2.995   1.689 -0.9042  0.8569  1.7601
 2777TIP3   OH229821   1.679   5.519  12.523  0.3857  0.6789 -0.0086
 2777TIP3    H129822   1.619   5.520  12.449  0.4623  1.2417 -0.0628
 2777TIP3    H229823   1.678   5.608  12.557  0.2470  0.3988  0.7551
 2778TIP3   OH229824   2.105   6.590  13.055 -0.6435 -0.1905 -0.9272
 2778TIP3    H129825   2.186   6.628  13.022  0.2174  0.5031  1.7650
 2778TIP3    H229826   2.052   6.666  13.081 -0.3514 -0.6629  1.2444
 2779TIP3   OH229827   5.919   6.056  11.379  0.0945  0.0468  0.0807
 2779TIP3    H129828   5.857   5.984  11.364 -0.2249  0.3951 -0.2711
 2779TIP3    H229829   5.987   6.017  11.433 -0.8214 -0.1472  1.1323
 2780TIP3   OH229830   2.028   2.343   1.682 -0.2628 -0.1818  0.4505
 2780TIP3    H129831   1.970   2.380   1.615  1.4068 -0.4552 -1.1994
 2780TIP3    H229832   2.115   2.375   1.660  1.0018 -3.5146  0.0107
 2781TIP3   OH229833   3.308   1.672  14.708 -0.5793  0.3678 -0.5800
 2781TIP3    H129834   3.375   1.735  14.734 -1.5122  1.1511 -0.0008
 2781TIP3    H229835   3.353   1.588  14.709  0.2441  0.7967  0.3971
 2782TIP3   OH229836   6.605   0.659   4.011 -0.1505 -0.1138 -0.5866
 2782TIP3    H129837   6.614   0.583   3.954 -0.5733  0.4374 -1.4142
 2782TIP3    H229838   6.576   0.729   3.952  1.8203  1.1293 -0.1822
 2783TIP3   OH229839   5.835   0.158   1.366  0.0735  0.2445  0.4616
 2783TIP3    H129840   5.748   0.157   1.406  0.8437  1.1829  2.3092
 2783TIP3    H229841   5.867   0.247   1.381  2.2134 -0.6842  1.9395
 2784TIP3   OH229842   1.049   2.853  10.759  0.1556  0.3026 -0.3288
 2784TIP3    H129843   0.997   2.774  10.769  0.8738 -0.0569  0.6735
 2784TIP3    H229844   0.991   2.914  10.712 -0.9753 -0.2616  0.2961
 2785TIP3   OH229845   3.485   6.508  12.611 -0.3981  0.1264  0.1278
 2785TIP3    H129846   3.547   6.552  12.669 -1.3893  1.5505  0.1709
 2785TIP3    H229847   3.401   6.512  12.658 -0.8497 -0.3096 -0.6225
 2786TIP3   OH229848   6.503   5.318   3.714  0.2483 -0.2475  0.6640
 2786TIP3    H129849   6.421   5.299   3.668  1.4508  0.5299 -2.0108
 2786TIP3    H229850   6.563   5.249   3.685  1.4047  1.0019 -0.0262
 2787TIP3   OH229851   4.640   6.265  11.333 -0.0366 -0.3826 -0.1731
 2787TIP3    H129852   4.616   6.173  11.320  0.7085 -0.4180 -1.4166
 2787TIP3    H229853   4.723   6.261  11.381  0.6505 -0.4050 -1.3342
 2788TIP3   OH229854   4.578   1.002  12.551  0.2722 -0.0331  0.3436
 2788TIP3    H129855   4.635   0.990  12.475  1.2701 -0.0708  1.0731
 2788TIP3    H229856   4.579   1.096  12.568 -2.5773  0.4845 -1.6185
 2789TIP3   OH229857   6.719   3.501  16.390 -0.6685  0.2715 -0.1679
 2789TIP3    H129858   6.628   3.470  16.382 -0.0564 -2.2242  1.4999
 2789TIP3    H229859   6.772   3.421  16.388  1.3318  1.4782  1.1456
 2790TIP3   OH229860   3.812   3.727  15.451  0.3043  0.0889 -0.4495
 2790TIP3    H129861   3.753   3.754  15.380 -0.7402  0.2782  0.4625
 2790TIP3    H229862   3.843   3.809  15.489  0.4168 -0.0119 -0.3239
 2791TIP3   OH229863   0.002   3.064  13.895 -0.0886  0.4870 -0.0108
 2791TIP3    H129864   0.060   3.131  13.858 -0.4189 -0.1832 -1.8292
 2791TIP3    H229865  -0.053   3.036  13.822  0.6342 -2.3942  0.4109
 2792TIP3   OH229866   0.219   3.900   1.145 -0.5600  0.4260  0.4946
 2792TIP3    H129867   0.167   3.837   1.194  0.7552 -1.0944  0.0169
 2792TIP3    H229868   0.219   3.867   1.055  1.2013  0.3676  0.4808
 2793TIP3   OH229869   2.292   1.861  15.794  0.2205  0.5495  0.3557
 2793TIP3    H129870   2.247   1.944  15.774 -0.1333  0.0809 -0.8918
 2793TIP3    H229871   2.384   1.886  15.801  0.1274  1.0444 -0.0788
 2794TIP3   OH229872   3.683   2.465   1.173 -0.5111  0.2175 -0.0251
 2794TIP3    H129873   3.749   2.396   1.168 -1.2331 -0.5202  0.3307
 2794TIP3    H229874   3.733   2.547   1.165  0.6225 -0.2557  1.7908
 2795TIP3   OH229875   6.693   1.155  11.365  1.0137 -1.0962  0.5527
 2795TIP3    H129876   6.767   1.202  11.404  1.3773 -1.2295  0.0360
 2795TIP3    H229877   6.714   1.063  11.379 -0.1356 -1.1280  2.3753
 2796TIP3   OH229878   1.440   1.013  10.604 -0.3178  0.4735  0.1949
 2796TIP3    H129879   1.470   0.923  10.593 -0.5249  0.1308  2.0792
 2796TIP3    H229880   1.352   1.005  10.640 -0.7853  1.4502 -0.6911
 2797TIP3   OH229881   4.313   1.612   0.976 -0.1761  0.6155 -0.3376
 2797TIP3    H129882   4.345   1.690   1.022  2.3225 -1.4270  1.6132
 2797TIP3    H229883   4.218   1.615   0.989 -0.1838  3.3262 -0.4141
 2798TIP3   OH229884   2.417   0.308   3.427 -0.6660  0.1261 -0.2963
 2798TIP3    H129885   2.442   0.400   3.414  0.0312 -0.0607 -0.3010
 2798TIP3    H229886   2.386   0.304   3.517 -1.4648  0.5279 -0.5365
 2799TIP3   OH229887   5.281   1.351   1.598 -0.5303 -0.2954 -0.9495
 2799TIP3    H129888   5.214   1.358   1.666  1.4505  1.0912  0.9750
 2799TIP3    H229889   5.294   1.440   1.566  0.5936 -0.4703 -1.0457
 2800TIP3   OH229890   4.693   5.773   1.712  0.0350  0.1370  0.8660
 2800TIP3    H129891   4.675   5.703   1.776 -2.2150  1.3453  1.6672
 2800TIP3    H229892   4.766   5.822   1.751  0.8903 -1.0642  0.8411
 2801TIP3   OH229893   5.641   4.087  12.268  0.1923  0.1978  0.2388
 2801TIP3    H129894   5.737   4.088  12.275  0.1182 -0.1763  1.6377
 2801TIP3    H229895   5.624   4.061  12.178  1.4183 -0.8140  0.2626
 2802TIP3   OH229896   3.878   1.684  15.220  0.5205  0.0815 -0.0715
 2802TIP3    H129897   3.803   1.699  15.162  1.3648 -1.1999 -1.5833
 2802TIP3    H229898   3.879   1.760  15.278 -0.9706  0.9235 -1.0673
 2803TIP3   OH229899   3.903   2.932  16.190 -0.0138  0.1660  0.0529
 2803TIP3    H129900   3.841   2.966  16.255  1.3637  1.6812  0.6451
 2803TIP3    H229901   3.853   2.930  16.108 -1.5037 -0.8919  0.9345
 2804TIP3   OH229902   3.070   1.798   6.075 -0.4662  0.1036 -0.4815
 2804TIP3    H129903   3.161   1.777   6.055 -0.3457  0.0237  0.1303
 2804TIP3    H229904   3.034   1.832   5.993 -0.1886 -0.8859 -1.0302
 2805TIP3   OH229905   4.903   0.963  14.532 -0.1306  0.3804 -0.2702
 2805TIP3    H129906   4.906   1.020  14.609  2.4491 -1.2763  0.9804
 2805TIP3    H229907   4.810   0.947  14.518 -0.7700  2.3892  1.2110
 2806TIP3   OH229908   6.469   6.764   6.716  0.0705 -0.0847 -0.1559
 2806TIP3    H129909   6.373   6.763   6.713 -0.0658  0.7348  1.9002
 2806TIP3    H229910   6.494   6.671   6.720 -0.6569 -0.2919 -0.2848
 2807TIP3   OH229911   6.393   1.284   0.492 -0.2473 -0.0332  0.2480
 2807TIP3    H129912   6.357   1.262   0.406 -1.2751  1.0394  0.3714
 2807TIP3    H229913   6.485   1.260   0.486  0.4231  2.6264 -2.1602
 2808TIP3   OH229914   0.275   0.308   2.962 -0.6999 -0.8190 -1.5080
 2808TIP3    H129915   0.309   0.347   3.043 -0.2770  1.1805 -2.5617
 2808TIP3    H229916   0.342   0.245   2.936  1.1359  1.2852 -2.2457
 2809TIP3   OH229917   2.206   0.497  13.190 -0.0226 -0.8104  0.1009
 2809TIP3    H129918   2.121   0.493  13.145 -0.6651  0.3736  1.1368
 2809TIP3    H229919   2.247   0.576  13.155  1.2406 -2.0354 -1.3164
 2810TIP3   OH229920   5.144   1.546   4.666 -0.2452  0.2847 -0.2566
 2810TIP3    H129921   5.189   1.479   4.717 -0.2524 -0.9359 -1.8046
 2810TIP3    H229922   5.127   1.616   4.730  0.6938 -0.7080  1.1572
 2811TIP3   OH229923   5.462   2.932   4.163  0.3437 -0.3784 -0.3150
 2811TIP3    H129924   5.392   2.950   4.227  1.0624 -1.2486  0.7446
 2811TIP3    H229925   5.540   2.919   4.216  1.4325  0.9955 -1.5112
 2812TIP3   OH229926   5.291   4.428   3.043  0.5054 -0.1730  0.1021
 2812TIP3    H129927   5.324   4.406   3.130 -0.3537  1.8333  0.9832
 2812TIP3    H229928   5.243   4.510   3.054  0.0649 -0.0273 -2.2059
 2813TIP3   OH229929   3.601   6.690  14.113  0.0899 -0.4692  0.5801
 2813TIP3    H129930   3.643   6.776  14.116 -1.2402  0.2393 -0.0534
 2813TIP3    H229931   3.664   6.633  14.069  0.9521  0.2002  0.9270
 2814TIP3   OH229932   0.414   5.128   1.784  0.1696 -0.1194  0.2247
 2814TIP3    H129933   0.335   5.180   1.773  0.1478 -0.3177 -0.6508
 2814TIP3    H229934   0.383   5.045   1.821  0.0215 -0.0274  0.3049
 2815TIP3   OH229935   2.819   3.111   3.118 -0.0896 -0.3758 -0.3718
 2815TIP3    H129936   2.854   3.062   3.044 -0.0572 -2.0732  0.7160
 2815TIP3    H229937   2.866   3.077   3.194 -0.1621  1.2740  0.4556
 2816TIP3   OH229938   0.079   4.940   3.644  0.3160  0.0189  0.1182
 2816TIP3    H129939   0.105   4.941   3.552 -0.0176 -0.0550  0.0197
 2816TIP3    H229940   0.159   4.961   3.692  0.7109 -0.9043 -0.1275
 2817TIP3   OH229941   2.148   0.492   2.418 -0.2884  0.0660 -0.1671
 2817TIP3    H129942   2.237   0.495   2.381  0.0625  0.0475  0.6620
 2817TIP3    H229943   2.094   0.457   2.347  0.0332  1.8236 -1.3492
 2818TIP3   OH229944   2.673   4.459   2.746 -0.3672 -0.3052  0.0702
 2818TIP3    H129945   2.737   4.484   2.680  0.3916  1.1490  1.3140
 2818TIP3    H229946   2.717   4.473   2.830 -2.1090  0.2462  0.9514
 2819TIP3   OH229947   5.649   5.432  12.628  0.5268  0.1257  0.0787
 2819TIP3    H129948   5.645   5.461  12.536  1.2150 -0.5809 -0.1866
 2819TIP3    H229949   5.655   5.513  12.678 -0.4244  0.5462 -0.4539
 2820TIP3   OH229950   3.685   5.950   6.198 -0.3339  0.9003  0.3529
 2820TIP3    H129951   3.765   6.002   6.212 -0.6871  1.2871  0.9736
 2820TIP3    H229952   3.642   5.950   6.283 -1.4244  1.4117 -0.1808
 2821TIP3   OH229953   4.129   1.599   1.577  0.3463 -0.3334  0.1739
 2821TIP3    H129954   4.158   1.625   1.490  0.5530  0.0863  0.3685
 2821TIP3    H229955   4.122   1.680   1.627 -2.5352 -0.2197 -0.2405
 2822TIP3   OH229956   5.464   5.665   2.729 -0.1013  1.0300  0.3944
 2822TIP3    H129957   5.456   5.744   2.782  1.3090  1.7783 -0.4797
 2822TIP3    H229958   5.374   5.644   2.704 -0.6441  1.5052  1.8233
 2823TIP3   OH229959   1.476   2.525   4.335  0.4095 -0.5767 -0.2053
 2823TIP3    H129960   1.542   2.567   4.390 -0.1501  0.2414 -0.1367
 2823TIP3    H229961   1.480   2.433   4.359  0.2059 -0.2506  1.1758
 2824TIP3   OH229962   1.614   6.708  16.841 -0.1713  0.8000 -0.1976
 2824TIP3    H129963   1.673   6.768  16.795  0.9715 -0.1703 -0.0438
 2824TIP3    H229964   1.668   6.668  16.908  0.2935 -3.2025 -2.6173
 2825TIP3   OH229965   4.348   1.306  15.831 -0.4540 -0.1598 -0.5266
 2825TIP3    H129966   4.362   1.371  15.762 -0.5812  0.8949  0.4267
 2825TIP3    H229967   4.302   1.234  15.787 -0.9490  0.6900 -1.4307
 2826TIP3   OH229968   5.072   1.630   2.955 -0.4994  0.1620 -0.0839
 2826TIP3    H129969   5.005   1.578   2.998 -1.1550 -0.4029 -1.7046
 2826TIP3    H229970   5.043   1.721   2.967 -1.6803 -0.0821 -0.9058
 2827TIP3   OH229971   0.824   5.075  11.918  0.0379 -0.1856 -0.3069
 2827TIP3    H129972   0.770   5.116  11.985  1.1193  0.7598  0.0211
 2827TIP3    H229973   0.786   5.105  11.835  0.8634  1.6366 -0.0758
 2828TIP3   OH229974   4.992   5.118   1.583  0.4105  0.2032 -0.3744
 2828TIP3    H129975   4.990   5.209   1.614  0.4869  0.4372 -1.0408
 2828TIP3    H229976   4.908   5.082   1.610 -1.1044  1.4766 -2.9997
 2829TIP3   OH229977   6.486   5.077   5.797  0.6987 -0.0292  0.1447
 2829TIP3    H129978   6.462   5.169   5.805 -0.7230 -0.4008  0.3732
 2829TIP3    H229979   6.456   5.036   5.877  0.1690 -0.9282 -0.4911
 2830TIP3   OH229980   6.030   5.439  16.263 -0.0097 -0.0545  0.3106
 2830TIP3    H129981   6.077   5.370  16.310 -0.1934 -0.5862 -0.2780
 2830TIP3    H229982   5.938   5.421  16.282 -0.0001  1.2424  1.8213
 2831TIP3   OH229983   2.697   1.946   0.857 -0.0201  0.2929  0.0032
 2831TIP3    H129984   2.706   1.875   0.793  0.2933 -0.4403  0.8425
 2831TIP3    H229985   2.786   1.978   0.869 -0.0481  0.2951  0.2111
 2832TIP3   OH229986   4.202   2.272  14.544  0.1141  0.2729  0.3568
 2832TIP3    H129987   4.145   2.206  14.504  2.1259 -0.5652 -1.3574
 2832TIP3    H229988   4.192   2.349  14.488  0.7196  0.0733 -0.0415
 2833TIP3   OH229989   4.215   5.997  12.873  0.3931  0.3060  0.0566
 2833TIP3    H129990   4.141   5.956  12.917 -0.1482  0.6518 -0.5263
 2833TIP3    H229991   4.291   5.945  12.901 -0.2812 -1.1563 -0.7545
 2834TIP3   OH229992   3.771   4.025   3.611  1.1699  0.2432  0.2375
 2834TIP3    H129993   3.781   4.115   3.581  0.3717  0.2298 -0.1117
 2834TIP3    H229994   3.729   4.032   3.696 -1.3686  0.1749 -0.9139
 2835TIP3   OH229995   3.592   5.515   2.375  0.4312  0.0222 -0.4142
 2835TIP3    H129996   3.552   5.430   2.359 -1.7449  0.7174  1.0193
 2835TIP3    H229997   3.522   5.570   2.408  1.4287  2.8259 -2.5040
 2836TIP3   OH229998   0.069   3.664   5.806 -0.1299  0.1806  0.1670
 2836TIP3    H129999   0.071   3.607   5.729  0.0580 -0.2084  0.4561
 2836TIP3    H230000   0.012   3.736   5.780 -2.2731 -1.2631  0.5549
 2837TIP3   OH230001   1.582   3.019   4.391  0.2633 -0.6312  0.4441
 2837TIP3    H130002   1.651   3.045   4.451  0.7817 -1.7227  0.3435
 2837TIP3    H230003   1.614   2.938   4.351 -1.1220 -1.2429  0.5068
 2838TIP3   OH230004   2.791   1.174   1.583 -0.3306 -0.0143  0.0463
 2838TIP3    H130005   2.754   1.120   1.514  0.1433 -0.3106  0.0241
 2838TIP3    H230006   2.766   1.130   1.664 -0.2566 -0.0666  0.0405
 2839TIP3   OH230007   4.174   3.231  11.788 -0.1039  0.4041 -0.0416
 2839TIP3    H130008   4.112   3.289  11.832 -2.6136 -0.8309 -1.6674
 2839TIP3    H230009   4.169   3.257  11.696  3.5790  1.7051 -0.0226
 2840TIP3   OH230010   1.701   6.472   3.051  0.7567 -0.8749  0.2615
 2840TIP3    H130011   1.676   6.445   2.962  2.1479  1.7361 -1.0732
 2840TIP3    H230012   1.790   6.438   3.062  0.9416 -0.4082  0.2465
 2841TIP3   OH230013   4.767   6.421   1.095 -0.2040  0.1553 -0.3170
 2841TIP3    H130014   4.816   6.460   1.167  0.6049  0.9168 -1.2578
 2841TIP3    H230015   4.833   6.374   1.044 -0.7499 -0.2990 -0.6132
 2842TIP3   OH230016   6.595   1.706   4.594 -0.1038 -0.4364  0.3718
 2842TIP3    H130017   6.559   1.618   4.596  2.2093 -1.4988 -0.7207
 2842TIP3    H230018   6.535   1.755   4.538 -0.6421 -1.7121 -0.2107
 2843TIP3   OH230019   0.148   1.833  16.739  0.2761  0.3775 -0.1719
 2843TIP3    H130020   0.091   1.889  16.686 -0.0926  0.6459  0.4869
 2843TIP3    H230021   0.111   1.839  16.827  1.0178  0.1322  0.1632
 2844TIP3   OH230022   4.185   2.668  15.582 -0.1081  0.0252  0.7576
 2844TIP3    H130023   4.092   2.645  15.586 -0.1671  0.2132  0.4617
 2844TIP3    H230024   4.230   2.585  15.597 -0.3117 -0.5201 -1.4050
 2845TIP3   OH230025   2.277   5.542   0.132 -0.2628  0.3410  0.1750
 2845TIP3    H130026   2.239   5.458   0.156 -0.4688  0.5609  0.6456
 2845TIP3    H230027   2.372   5.530   0.142 -0.3239  0.3211  0.7655
 2846TIP3   OH230028   0.460   0.809   6.488  0.0724  0.2246  0.6045
 2846TIP3    H130029   0.498   0.789   6.403  2.1919 -0.0867  1.5672
 2846TIP3    H230030   0.395   0.740   6.502 -1.0973  0.8954 -1.1796
 2847TIP3   OH230031   5.438   1.055   6.312 -0.2340  0.0369 -0.5959
 2847TIP3    H130032   5.363   1.109   6.337  0.4077  1.0021 -0.7345
 2847TIP3    H230033   5.399   0.973   6.281 -1.2052  0.3255 -0.1652
 2848TIP3   OH230034   5.323   4.985  14.164  0.5676  0.0845  0.1600
 2848TIP3    H130035   5.299   4.894  14.147 -1.2076  0.7701 -1.2792
 2848TIP3    H230036   5.243   5.026  14.196  1.2717  1.2157  0.5377
 2849TIP3   OH230037   4.877   5.365   0.514  0.0623  0.1170  0.8217
 2849TIP3    H130038   4.957   5.419   0.516 -0.1985  0.5049  0.8465
 2849TIP3    H230039   4.909   5.276   0.528  0.4298  0.3399  1.4581
 2850TIP3   OH230040   6.269   2.960  12.682 -0.1523 -0.1320  0.0132
 2850TIP3    H130041   6.302   2.887  12.629  1.0756  0.1298  0.3911
 2850TIP3    H230042   6.174   2.944  12.688 -0.1740 -0.7046 -1.4039
 2851TIP3   OH230043   1.689   6.143   3.761 -0.2338  0.1970 -0.0294
 2851TIP3    H130044   1.687   6.103   3.674 -1.1574  1.2850 -0.5280
 2851TIP3    H230045   1.659   6.075   3.821 -0.5943 -0.2322 -0.6994
 2852TIP3   OH230046   2.206   5.659   2.478 -0.6332  0.0294 -0.3005
 2852TIP3    H130047   2.190   5.564   2.476 -0.1813 -0.0848 -2.8945
 2852TIP3    H230048   2.128   5.697   2.440 -2.6608  1.2180  4.3637
 2853TIP3   OH230049   3.524   4.092  16.762 -0.4085  0.0597  0.3713
 2853TIP3    H130050   3.471   4.063  16.688 -2.0634  0.5626  1.3014
 2853TIP3    H230051   3.541   4.012  16.811  2.0633 -0.5488 -1.3042
 2854TIP3   OH230052   6.058   1.224   4.426 -0.3107  0.0638 -1.0017
 2854TIP3    H130053   6.030   1.185   4.343  0.5938 -0.6223 -0.9948
 2854TIP3    H230054   6.127   1.166   4.458 -0.5039  0.4332  0.1351
 2855TIP3   OH230055   4.108   2.080  13.388  0.4473  0.6398 -0.2398
 2855TIP3    H130056   4.130   2.152  13.446 -0.4049  0.0856  0.8160
 2855TIP3    H230057   4.184   2.022  13.391 -0.5391 -0.6703  2.4239
 2856TIP3   OH230058   6.748   5.482  13.802 -0.5225 -0.1377  0.4111
 2856TIP3    H130059   6.695   5.495  13.723 -0.8970 -0.7099  0.5664
 2856TIP3    H230060   6.831   5.448  13.770 -0.7673 -0.6176  0.2838
 2857TIP3   OH230061   4.475   5.333  15.107  0.4017 -0.2701 -0.3066
 2857TIP3    H130062   4.528   5.303  15.033  0.1412 -0.1116 -0.5560
 2857TIP3    H230063   4.540   5.354  15.175  0.5934 -1.4238 -0.1069
 2858TIP3   OH230064   0.135   6.427   0.851 -0.1866  0.3234 -0.2653
 2858TIP3    H130065   0.229   6.430   0.866 -0.2566 -0.9524  0.5358
 2858TIP3    H230066   0.115   6.510   0.808  1.7320 -0.4669 -2.9629
 2859TIP3   OH230067   1.847   0.528   6.248  0.7415  0.4054  0.3016
 2859TIP3    H130068   1.940   0.548   6.255  1.2245 -1.8087  0.9494
 2859TIP3    H230069   1.835   0.449   6.301 -1.2428 -0.1409 -0.8442
 2860TIP3   OH230070   6.495   2.368  13.922 -0.3667 -0.7639  0.5499
 2860TIP3    H130071   6.433   2.317  13.974  0.1501 -1.0189  0.9283
 2860TIP3    H230072   6.552   2.303  13.881 -0.1251 -0.5238  0.4982
 2861TIP3   OH230073   2.348   6.082  15.216 -0.2596 -0.3215  0.2005
 2861TIP3    H130074   2.379   6.005  15.168  0.5855  0.2313 -0.1515
 2861TIP3    H230075   2.262   6.101  15.177 -0.2956 -0.8358  0.0151
 2862TIP3   OH230076   0.751   1.989   5.807  0.0542  0.0756  0.3487
 2862TIP3    H130077   0.734   2.083   5.816 -1.4320 -0.0270 -0.9001
 2862TIP3    H230078   0.799   1.965   5.886 -1.2808  1.5189  1.6559
 2863TIP3   OH230079   4.169   0.729  15.683  0.1719 -0.0603 -0.9760
 2863TIP3    H130080   4.118   0.648  15.689  1.2563 -0.8570 -1.8604
 2863TIP3    H230081   4.259   0.699  15.669  0.6988  1.3053 -0.6980
 2864TIP3   OH230082   0.126   4.023   4.206 -0.5661 -0.1692 -0.2043
 2864TIP3    H130083   0.164   4.111   4.206 -2.7038  0.8383  1.0118
 2864TIP3    H230084   0.172   3.976   4.276  0.0291  0.2170 -0.3286
 2865TIP3   OH230085   6.816   6.228   0.969 -0.2047 -0.2041 -0.0053
 2865TIP3    H130086   6.874   6.291   0.926 -1.5137  2.0342  1.3835
 2865TIP3    H230087   6.863   6.203   1.049 -0.6720  0.8352  0.6113
 2866TIP3   OH230088   0.054   1.994   1.557 -0.2467 -0.2853  0.3330
 2866TIP3    H130089   0.026   1.994   1.466  1.4221  0.1850 -0.2269
 2866TIP3    H230090   0.061   2.087   1.580  0.1872 -0.3911  0.6464
 2867TIP3   OH230091   4.597   4.262   2.756  0.4071 -0.1123  0.0823
 2867TIP3    H130092   4.636   4.175   2.763  1.1802  0.2016 -0.2743
 2867TIP3    H230093   4.644   4.304   2.684  0.6734  0.9289  0.8436
 2868TIP3   OH230094   2.071   1.452   2.502 -0.1089  0.1136 -0.1381
 2868TIP3    H130095   2.098   1.470   2.412 -1.6040  0.4089 -0.5547
 2868TIP3    H230096   2.103   1.527   2.552 -1.5125  1.2784 -0.9058
 2869TIP3   OH230097   4.677   0.671  16.269  0.5513  0.1960 -0.0766
 2869TIP3    H130098   4.728   0.644  16.193  2.2592  2.7495  0.0303
 2869TIP3    H230099   4.716   0.624  16.342  1.8645  1.0586 -0.2008
 2870TIP3   OH230100   6.787   4.723   0.934  0.2855  0.0802  0.3293
 2870TIP3    H130101   6.767   4.806   0.892  0.1488  0.2471  0.7133
 2870TIP3    H230102   6.808   4.747   1.025 -1.5767 -0.4759  0.9485
 2871TIP3   OH230103   2.705   1.061   5.930  0.3354  0.5641 -0.1761
 2871TIP3    H130104   2.777   1.124   5.927  0.9760 -0.1867 -1.5600
 2871TIP3    H230105   2.711   1.021   6.017  1.1279  1.0275 -0.0099
 2872TIP3   OH230106   6.188   5.496   5.652 -0.1304 -0.2419  0.1648
 2872TIP3    H130107   6.275   5.457   5.647 -0.4262 -0.8007 -1.0323
 2872TIP3    H230108   6.153   5.486   5.563 -0.9467  1.0629  0.3225
 2873TIP3   OH230109   6.395   2.549  15.528  0.5490  0.0135  0.1667
 2873TIP3    H130110   6.391   2.470  15.581  1.3257 -0.7351 -0.8623
 2873TIP3    H230111   6.312   2.594  15.547 -1.8670 -3.0032 -2.1835
 2874TIP3   OH230112   5.982   0.507   1.661 -0.1237 -0.1906 -0.8244
 2874TIP3    H130113   5.978   0.594   1.700 -1.0751 -0.4849 -0.2370
 2874TIP3    H230114   5.895   0.470   1.675  0.7649 -1.9020  0.4685
 2875TIP3   OH230115   0.646   5.402  15.710  0.0372  0.6285 -0.1690
 2875TIP3    H130116   0.657   5.348  15.788 -0.4598  1.1645  0.2839
 2875TIP3    H230117   0.569   5.366  15.666 -1.6631  2.2580  1.2819
 2876TIP3   OH230118   6.118   4.963  15.701 -0.7394  0.0655  1.1294
 2876TIP3    H130119   6.042   5.010  15.735 -0.3692 -0.5879  2.9897
 2876TIP3    H230120   6.121   4.882  15.752  0.1009 -0.8304 -0.2491
 2877TIP3   OH230121   4.513   6.793  15.814  0.0894  0.1172  0.1431
 2877TIP3    H130122   4.555   6.845  15.746 -2.4457  2.4201  0.1566
 2877TIP3    H230123   4.513   6.704  15.779  1.6104  0.6653 -1.4272
 2878TIP3   OH230124   3.514   0.444  15.398  0.8318 -0.0753 -0.5487
 2878TIP3    H130125   3.466   0.474  15.475  0.3181  0.2090 -0.9730
 2878TIP3    H230126   3.602   0.423  15.431  0.4646 -0.4727  0.2096
 2879TIP3   OH230127   4.593   4.988   5.098 -0.4694 -0.1360 -0.0590
 2879TIP3    H130128   4.507   4.946   5.090  0.1069 -1.2823 -0.4780
 2879TIP3    H230129   4.579   5.077   5.065 -1.4266 -0.3872 -0.3840
 2880TIP3   OH230130   5.790   1.339   5.339 -0.3592 -0.2142  0.1130
 2880TIP3    H130131   5.735   1.357   5.263  0.5357  0.3474 -0.4195
 2880TIP3    H230132   5.842   1.263   5.314  0.5786  0.5198 -0.1939
 2881TIP3   OH230133   1.543   6.369  15.649  0.5105  0.0741 -0.0813
 2881TIP3    H130134   1.589   6.439  15.695  0.8619 -0.7458  0.8445
 2881TIP3    H230135   1.461   6.409  15.620  0.1736  0.5456  1.4534
 2882TIP3   OH230136   3.132   2.455  13.817 -0.2339 -0.6334 -0.5534
 2882TIP3    H130137   3.212   2.496  13.850  0.9629 -2.7361 -0.6139
 2882TIP3    H230138   3.065   2.524  13.821  1.1102  0.6626  1.3136
 2883TIP3   OH230139   5.197   0.573  15.839  0.4933 -0.1866 -0.5697
 2883TIP3    H130140   5.286   0.549  15.865  0.5747 -0.0057 -0.6834
 2883TIP3    H230141   5.189   0.544  15.749 -0.2902 -2.1763  0.0899
 2884TIP3   OH230142   5.921   0.661   2.740 -0.6901  0.1081 -0.0391
 2884TIP3    H130143   5.882   0.749   2.737  0.8101  0.8834  1.1129
 2884TIP3    H230144   6.011   0.675   2.711 -1.0574 -1.5328 -2.1846
 2885TIP3   OH230145   0.437   4.152   2.321  0.6760 -0.3595 -0.5546
 2885TIP3    H130146   0.512   4.092   2.332 -0.0449 -1.1159  0.5000
 2885TIP3    H230147   0.380   4.132   2.396  0.2196  1.3877 -0.3878
 2886TIP3   OH230148   0.720   3.039  12.760  0.1221 -0.7197 -0.1941
 2886TIP3    H130149   0.732   3.088  12.841  3.0927 -3.6948  1.3962
 2886TIP3    H230150   0.635   2.996  12.770 -0.9170  1.2140 -0.1056
 2887TIP3   OH230151   0.123   4.730  10.895  0.1846  0.2639 -0.1894
 2887TIP3    H130152   0.194   4.779  10.853 -0.0233  0.0976 -0.7513
 2887TIP3    H230153   0.047   4.746  10.839 -0.2688  0.5875  0.5102
 2888TIP3   OH230154   0.072   1.530  15.031 -0.0395  0.3904  0.0516
 2888TIP3    H130155   0.046   1.618  15.004  1.0666  0.4938 -0.7095
 2888TIP3    H230156   0.150   1.510  14.980  0.0665 -0.8138  0.6333
 2889TIP3   OH230157   3.622   0.951   5.182  0.3077  0.1671 -0.1020
 2889TIP3    H130158   3.532   0.955   5.213 -0.2890 -0.0666 -1.7024
 2889TIP3    H230159   3.663   0.883   5.235 -1.0673 -1.2447 -0.7847
 2890TIP3   OH230160   6.836   3.534  15.412  0.0210  0.2927 -0.4366
 2890TIP3    H130161   6.766   3.567  15.469  0.7691 -0.5897  1.0606
 2890TIP3    H230162   6.795   3.464  15.361  0.0478 -1.0441  1.2915
 2891TIP3   OH230163   2.828   1.630   5.752  0.6522  0.3506 -0.2265
 2891TIP3    H130164   2.791   1.620   5.840 -0.4421 -0.5567 -0.7748
 2891TIP3    H230165   2.768   1.690   5.707 -1.6649 -2.9133 -1.8709
 2892TIP3   OH230166   4.743   5.712   2.405  0.3567 -0.2220  0.2705
 2892TIP3    H130167   4.771   5.641   2.463 -0.3286 -1.3904 -0.7586
 2892TIP3    H230168   4.664   5.678   2.363 -0.7448  1.7058  0.7207
 2893TIP3   OH230169   0.165   2.266   5.361  0.2204 -0.3765 -0.7117
 2893TIP3    H130170   0.220   2.343   5.356  3.0758 -2.1849  0.3346
 2893TIP3    H230171   0.159   2.235   5.271  3.2657 -1.5438 -0.6347
 2894TIP3   OH230172   0.802   0.176  13.350 -0.2724  0.2914  0.2193
 2894TIP3    H130173   0.764   0.241  13.290 -0.5844 -1.0935 -1.1679
 2894TIP3    H230174   0.756   0.095  13.328  0.3073 -0.4664  1.6975
 2895TIP3   OH230175   6.100   4.412  14.264  0.8725  0.8247 -0.2214
 2895TIP3    H130176   6.022   4.360  14.282  1.6004 -0.5660 -0.8779
 2895TIP3    H230177   6.088   4.492  14.314 -0.3067  0.0271  0.8344
 2896TIP3   OH230178   4.837   3.739   2.934  0.4404  0.1119  0.1335
 2896TIP3    H130179   4.899   3.709   3.001 -0.5425 -0.3259  0.8604
 2896TIP3    H230180   4.775   3.667   2.925 -1.1812  1.3627  0.9336
 2897TIP3   OH230181   3.007   4.467   5.453  0.3674  0.1884 -0.2603
 2897TIP3    H130182   3.058   4.478   5.533 -1.0771  1.1826  0.5780
 2897TIP3    H230183   2.927   4.518   5.468 -0.1943 -0.0526 -2.1198
 2898TIP3   OH230184   2.972   1.288   2.271  0.2638 -0.0095 -0.0198
 2898TIP3    H130185   2.914   1.283   2.347 -0.0862 -1.4348 -0.3557
 2898TIP3    H230186   2.912   1.292   2.196  0.6002  1.8584 -0.2269
 2899TIP3   OH230187   3.589   1.225  14.765 -0.5326  0.0170 -0.3142
 2899TIP3    H130188   3.633   1.165  14.825 -1.6047  0.6909  1.2052
 2899TIP3    H230189   3.661   1.275  14.725  0.2232 -0.7359  0.0587
 2900TIP3   OH230190   6.670   5.915   3.497  0.1455 -0.4295 -0.2199
 2900TIP3    H130191   6.670   5.846   3.431  1.3400 -0.9963  0.3517
 2900TIP3    H230192   6.582   5.912   3.535  0.1445 -1.5770 -0.2804
 2901TIP3   OH230193   3.260   5.348   4.011 -0.1456  0.1565  0.0108
 2901TIP3    H130194   3.353   5.353   4.034 -0.4256  0.2431  1.1879
 2901TIP3    H230195   3.260   5.327   3.918  1.0546  0.3004 -0.0463
 2902TIP3   OH230196   1.566   0.427   1.769  0.1174  0.5302 -0.6519
 2902TIP3    H130197   1.662   0.428   1.766  0.1497 -0.0722 -0.1802
 2902TIP3    H230198   1.539   0.479   1.694  0.8143  0.1957 -1.1496
 2903TIP3   OH230199   0.980   0.810  15.450  0.0505  0.0898 -0.3246
 2903TIP3    H130200   1.022   0.847  15.372 -0.6281 -1.2271 -1.3444
 2903TIP3    H230201   0.886   0.823  15.435 -0.0810 -0.1127  0.3132
 2904TIP3   OH230202   4.196   2.723  10.197 -0.0688  0.3552  0.0995
 2904TIP3    H130203   4.210   2.774  10.117 -1.0536 -0.3974 -0.5706
 2904TIP3    H230204   4.184   2.789  10.266 -3.4538  1.1735 -1.0827
 2905TIP3   OH230205   1.273   3.081   4.675  0.3866 -0.0256 -0.0344
 2905TIP3    H130206   1.297   3.135   4.599  0.2616  1.0008  0.6314
 2905TIP3    H230207   1.180   3.063   4.662 -0.6552  3.2578  1.6166
 2906TIP3   OH230208   4.304   5.766  15.013  0.0677 -0.4459  0.3891
 2906TIP3    H130209   4.364   5.790  15.084 -1.8273  0.4628  1.7880
 2906TIP3    H230210   4.328   5.823  14.941  0.8755 -0.1052  0.9093
 2907TIP3   OH230211   0.705   0.457  15.725  0.1535  0.0120 -0.4280
 2907TIP3    H130212   0.647   0.432  15.653  1.9224 -0.6229 -1.7095
 2907TIP3    H230213   0.790   0.421  15.700  1.2760  1.5291  1.0084
 2908TIP3   OH230214   1.004   1.569  16.333 -0.0618  0.4113 -0.0762
 2908TIP3    H130215   0.988   1.655  16.293  0.5425  1.2140  1.3396
 2908TIP3    H230216   0.933   1.559  16.397  0.2463  0.1494  0.2256
 2909TIP3   OH230217   3.401   0.469  15.845 -0.3978  0.2911 -0.0416
 2909TIP3    H130218   3.492   0.449  15.865 -0.4121 -0.7670 -0.9732
 2909TIP3    H230219   3.352   0.432  15.919 -0.2074 -0.9171 -0.4875
 2910TIP3   OH230220   3.906   0.800   1.387 -0.4220  0.1822  0.5015
 2910TIP3    H130221   3.887   0.769   1.299  3.7936  0.6298 -0.8136
 2910TIP3    H230222   3.917   0.720   1.438 -0.8786 -0.1473  0.0870
 2911TIP3   OH230223   3.002   3.580   6.297  0.3021 -0.2675 -0.4282
 2911TIP3    H130224   2.935   3.647   6.314  1.2626  0.5884  0.1157
 2911TIP3    H230225   2.987   3.514   6.364 -0.0637 -0.1451 -0.3849
 2912TIP3   OH230226   4.361   4.844  13.888 -0.0628 -0.4659  0.6642
 2912TIP3    H130227   4.278   4.795  13.895  1.0349 -2.8854 -1.4583
 2912TIP3    H230228   4.347   4.903  13.814 -0.4366  0.4090  1.4174
 2913TIP3   OH230229   1.187   2.082   2.108 -0.3728 -0.3567  0.2169
 2913TIP3    H130230   1.238   2.001   2.099  0.4846  0.3692 -2.0832
 2913TIP3    H230231   1.244   2.140   2.159  0.3906 -0.1580 -0.8301
 2914TIP3   OH230232   5.674   5.384  13.197  0.2057 -0.0352  0.4426
 2914TIP3    H130233   5.635   5.452  13.142 -2.4038 -0.6291  1.3902
 2914TIP3    H230234   5.686   5.310  13.137 -1.7246 -0.3606  0.3725
 2915TIP3   OH230235   1.969   0.038  13.094  0.5301 -0.5033  0.3345
 2915TIP3    H130236   1.890   0.049  13.040  1.5820 -1.9438 -1.5982
 2915TIP3    H230237   1.962   0.108  13.159 -1.0857  1.0273 -1.3336
 2916TIP3   OH230238   0.509   3.910   1.224 -0.2631  0.1202  0.0093
 2916TIP3    H130239   0.459   3.849   1.170  2.2420 -2.8884  0.8036
 2916TIP3    H230240   0.490   3.882   1.314 -0.4744  1.7751  0.5094
 2917TIP3   OH230241   1.216   2.036   3.107 -0.3729  0.3582 -0.5441
 2917TIP3    H130242   1.232   1.944   3.086  1.6863  0.8210 -1.2267
 2917TIP3    H230243   1.259   2.048   3.192  0.3916  0.9465 -1.0066
 2918TIP3   OH230244   3.880   6.538   4.337 -0.2076  0.4861 -0.1434
 2918TIP3    H130245   3.808   6.483   4.368  0.6423  0.0433  1.0938
 2918TIP3    H230246   3.949   6.527   4.402  2.5286 -2.1515 -3.1283
 2919TIP3   OH230247   0.249   2.055   2.617  0.1967 -0.1878 -0.0997
 2919TIP3    H130248   0.188   1.988   2.586  1.0992 -0.8111 -0.5828
 2919TIP3    H230249   0.197   2.135   2.620  0.4010  0.4975 -5.3604
 2920TIP3   OH230250   1.167   6.603  11.608  0.0655 -0.6733 -0.2467
 2920TIP3    H130251   1.130   6.525  11.566 -1.1556 -0.1845 -0.1183
 2920TIP3    H230252   1.174   6.667  11.537 -0.3187 -0.4317 -0.0718
 2921TIP3   OH230253   0.364   5.460   5.328  0.4266 -0.5920 -0.5506
 2921TIP3    H130254   0.437   5.429   5.381  0.8077 -1.3081 -1.4726
 2921TIP3    H230255   0.336   5.541   5.371  1.1379 -0.8188  0.3626
 2922TIP3   OH230256   0.565   3.736  15.920 -0.2535 -0.0773  0.4555
 2922TIP3    H130257   0.620   3.720  15.843  0.2020  0.4829  0.6598
 2922TIP3    H230258   0.544   3.649  15.953  0.7129 -0.2897  0.5180
 2923TIP3   OH230259   0.944   3.272   4.137 -0.1569  0.2010 -0.2799
 2923TIP3    H130260   0.994   3.191   4.146  0.6830  0.4181 -2.3917
 2923TIP3    H230261   0.855   3.243   4.118 -0.9610 -0.1828  3.2440
 2924TIP3   OH230262   2.134   1.089   0.387  0.6008  0.0541  0.0014
 2924TIP3    H130263   2.198   1.160   0.390 -0.4072  1.1103 -1.7852
 2924TIP3    H230264   2.156   1.041   0.307 -1.0908  0.7499 -0.9372
 2925TIP3   OH230265   6.322   2.578   0.848 -0.1407  0.3387 -0.2949
 2925TIP3    H130266   6.413   2.563   0.870 -0.3757 -1.1900 -0.2587
 2925TIP3    H230267   6.282   2.611   0.928  0.0056 -0.7584  0.2499
 2926TIP3   OH230268   2.651   1.963  10.485 -0.3945 -0.4743  0.1604
 2926TIP3    H130269   2.728   1.920  10.522 -0.8696 -1.8092 -0.3524
 2926TIP3    H230270   2.629   1.911  10.408 -0.7335  0.9611 -0.7637
 2927TIP3   OH230271   0.021   2.922  14.115  0.2690 -0.0969 -0.0634
 2927TIP3    H130272   0.059   2.969  14.188 -2.1833  0.7202  0.7866
 2927TIP3    H230273   0.005   2.988  14.048  1.6436 -0.6860 -1.0335
 2928TIP3   OH230274   4.630   4.012  14.827 -0.1609  0.2611 -0.2159
 2928TIP3    H130275   4.697   4.072  14.857 -0.0013  0.1735 -0.3991
 2928TIP3    H230276   4.562   4.017  14.894  0.1197  0.1927  0.0733
 2929TIP3   OH230277   2.530   2.039  15.851 -0.1137  0.1098 -0.3083
 2929TIP3    H130278   2.593   1.969  15.868 -1.0552 -1.0658 -1.5358
 2929TIP3    H230279   2.581   2.106  15.804  1.1432  0.9760  2.0725
 2930TIP3   OH230280   4.925   1.784  17.104  0.0543  0.2926  0.0230
 2930TIP3    H130281   4.895   1.720  17.169 -0.6036 -1.8729 -2.2572
 2930TIP3    H230282   4.847   1.805  17.053  0.9473  0.1933 -1.4506
 2931TIP3   OH230283   6.676   6.837   2.406 -0.1409  0.0680 -0.2388
 2931TIP3    H130284   6.582   6.854   2.402  0.0101  0.7317 -2.0534
 2931TIP3    H230285   6.715   6.910   2.359  1.1695 -0.9949 -0.8593
 2932TIP3   OH230286   0.410   0.922   0.256 -0.3111 -0.3036  0.2329
 2932TIP3    H130287   0.364   1.002   0.278 -3.3110 -1.9044  0.2477
 2932TIP3    H230288   0.420   0.875   0.339  0.5760 -0.3824  0.0949
 2933TIP3   OH230289   2.877   0.985  16.142 -0.4535 -0.3520 -0.4962
 2933TIP3    H130290   2.908   1.042  16.072  1.5261 -2.1543 -1.1662
 2933TIP3    H230291   2.782   0.989  16.136 -0.3314  0.8297 -2.1744
 2934TIP3   OH230292   1.025   3.445  11.208  0.4315  0.1447 -0.2301
 2934TIP3    H130293   1.069   3.461  11.124 -0.1420  1.4860 -0.2889
 2934TIP3    H230294   0.938   3.482  11.197  0.3199  0.2544  0.9410
 2935TIP3   OH230295   0.599   3.573   2.931 -0.2010  0.1558  0.4595
 2935TIP3    H130296   0.676   3.537   2.975  0.9480  0.4622 -1.2048
 2935TIP3    H230297   0.611   3.668   2.937 -2.1927  0.3678  3.0592
 2936TIP3   OH230298   4.028   4.407  14.454  0.2887 -0.3354  0.8199
 2936TIP3    H130299   3.951   4.449  14.415  0.4788 -0.0366  0.7594
 2936TIP3    H230300   4.069   4.476  14.506  1.3752 -0.0386 -0.3836
 2937TIP3   OH230301   1.542   5.710   3.317  0.2270 -0.3791 -0.1485
 2937TIP3    H130302   1.495   5.705   3.234  0.1879 -1.2836 -0.0781
 2937TIP3    H230303   1.632   5.685   3.295  0.4448  0.3152 -0.0856
 2938TIP3   OH230304   1.924   2.271  11.192  0.4054  0.2450 -0.3173
 2938TIP3    H130305   1.929   2.358  11.152 -0.4040  0.6574  0.4411
 2938TIP3    H230306   1.845   2.232  11.154  0.2291  0.2210  0.0701
 2939TIP3   OH230307   0.514   0.753   2.175  1.0988  0.1628  0.5329
 2939TIP3    H130308   0.557   0.680   2.219  1.3290 -0.8493 -1.2670
 2939TIP3    H230309   0.466   0.713   2.103 -0.3421  1.6145  0.6341
 2940TIP3   OH230310   5.873   0.637   3.705  0.2436  0.0300 -0.5105
 2940TIP3    H130311   5.826   0.719   3.691 -1.5298 -0.8748 -0.1513
 2940TIP3    H230312   5.943   0.638   3.640 -1.8582  0.2681 -2.9262
 2941TIP3   OH230313   4.914   4.117  13.171  0.0793  0.4647 -0.2594
 2941TIP3    H130314   4.962   4.153  13.096 -1.4664 -0.1711 -1.6217
 2941TIP3    H230315   4.903   4.192  13.229  2.3404  0.7179 -0.0416
 2942TIP3   OH230316   6.255   2.741   0.651  0.4550  0.6461  0.2213
 2942TIP3    H130317   6.235   2.805   0.719  0.0735  0.3403  0.4016
 2942TIP3    H230318   6.285   2.664   0.698  0.3480  0.4887  0.0351
 2943TIP3   OH230319   0.943   4.342  15.403 -0.2360  0.0033 -0.8335
 2943TIP3    H130320   1.019   4.293  15.432  0.6735  1.6076 -0.3575
 2943TIP3    H230321   0.979   4.418  15.357 -1.5452  0.6251 -0.8893
 2944TIP3   OH230322   0.354   3.047   4.294 -0.2038 -0.0877  0.0902
 2944TIP3    H130323   0.295   3.110   4.336 -0.2241  0.7077 -1.0830
 2944TIP3    H230324   0.399   3.004   4.367 -1.9541 -0.4751  1.0188
 2945TIP3   OH230325   0.178   3.588   2.446  0.2177 -0.0628 -0.1217
 2945TIP3    H130326   0.090   3.625   2.451  0.4116  0.6693 -1.6143
 2945TIP3    H230327   0.166   3.503   2.404  0.2671  0.2963 -0.8871
 2946TIP3   OH230328   2.871   3.026   5.343  0.2074 -0.0860  0.5586
 2946TIP3    H130329   2.855   3.080   5.421  3.1339 -0.0608  1.2623
 2946TIP3    H230330   2.867   3.088   5.270 -3.6298 -0.2824  0.4310
 2947TIP3   OH230331   4.266   3.498   3.743 -0.2566 -0.6111  0.0285
 2947TIP3    H130332   4.337   3.435   3.732 -0.5686 -1.2263  1.3310
 2947TIP3    H230333   4.291   3.572   3.688  2.1229 -0.1933  1.5275
 2948TIP3   OH230334   2.151   2.796  15.162  0.7005  0.0317  0.4698
 2948TIP3    H130335   2.103   2.812  15.080 -0.8778 -0.2404  1.3031
 2948TIP3    H230336   2.240   2.823  15.143  0.2492  0.4800 -1.1829
 2949TIP3   OH230337   1.925   2.064  16.714 -0.0805  0.4575 -0.4873
 2949TIP3    H130338   1.969   2.097  16.793 -1.1122  0.9195 -0.0829
 2949TIP3    H230339   1.988   2.076  16.644  1.2599 -0.9098  0.4284
 2950TIP3   OH230340   0.034   4.929  11.789 -0.1208  0.4883  0.5671
 2950TIP3    H130341  -0.052   4.942  11.829 -0.6734  0.6913 -0.6242
 2950TIP3    H230342   0.026   4.846  11.742 -0.8195  2.0080 -2.2475
 2951TIP3   OH230343   2.356   2.209   1.093 -0.4247  0.4811 -0.0363
 2951TIP3    H130344   2.361   2.147   1.166  0.3754  1.2504  0.5765
 2951TIP3    H230345   2.444   2.243   1.084 -0.7213  1.0876 -0.7707
 2952TIP3   OH230346   4.826   4.756  15.639  0.3348 -0.1717  0.4136
 2952TIP3    H130347   4.840   4.674  15.592  0.8365  0.6208 -0.8721
 2952TIP3    H230348   4.739   4.785  15.613  0.4036  0.0087  0.3819
 2953TIP3   OH230349   0.622   0.876  16.143 -0.2132 -0.2476 -0.0339
 2953TIP3    H130350   0.643   0.913  16.058  1.3674 -0.3591  0.2638
 2953TIP3    H230351   0.682   0.801  16.151 -0.4436 -0.3255  1.1065
 2954TIP3   OH230352   1.089   5.300   5.952 -0.5274  0.2960 -0.6123
 2954TIP3    H130353   1.175   5.270   5.922 -0.1449  0.3949  0.3383
 2954TIP3    H230354   1.036   5.220   5.956  0.3400 -0.2597  1.4188
 2955TIP3   OH230355   3.107   3.692  11.459  0.8502 -0.1324 -0.6582
 2955TIP3    H130356   3.092   3.761  11.395  2.7301  1.0921  0.1527
 2955TIP3    H230357   3.102   3.611  11.409  0.5051  0.6959 -1.9988
 2956TIP3   OH230358   3.510   5.460  10.326  0.0740  0.5402 -0.3717
 2956TIP3    H130359   3.510   5.556  10.323 -0.6259  0.5982  0.7144
 2956TIP3    H230360   3.597   5.437  10.357 -0.2496  0.9286  0.9073
 2957TIP3   OH230361   2.117   1.202   4.065  0.2113 -0.7602  0.0078
 2957TIP3    H130362   2.063   1.127   4.042 -0.8196 -0.2017  0.5290
 2957TIP3    H230363   2.156   1.230   3.982  0.3226 -1.6349 -0.2496
 2958TIP3   OH230364   1.129   4.907  16.020  0.1671 -0.0343 -0.1090
 2958TIP3    H130365   1.104   4.938  16.107 -1.7042  0.7693 -0.8677
 2958TIP3    H230366   1.068   4.836  16.001 -0.4276  0.7643 -1.3135
 2959TIP3   OH230367   2.733   6.038   3.865  0.0869  0.6282  0.4468
 2959TIP3    H130368   2.717   6.037   3.959  1.0308 -2.4867  0.6846
 2959TIP3    H230369   2.701   6.123   3.836 -1.6307  1.0803  3.3149
 2960TIP3   OH230370   5.795   4.569  12.625  0.0222  0.4016 -0.1218
 2960TIP3    H130371   5.867   4.620  12.662  0.0968  0.7822 -0.7741
 2960TIP3    H230372   5.797   4.486  12.673  0.6432  0.5631  0.1375
 2961TIP3   OH230373   2.606   0.083   3.870 -0.0185 -0.3611  0.0394
 2961TIP3    H130374   2.687   0.128   3.845 -0.4287  0.5844  0.3749
 2961TIP3    H230375   2.572   0.046   3.788 -1.9316  3.6247 -1.1951
 2962TIP3   OH230376   3.377   3.033   2.890  0.3411  0.1575 -0.0869
 2962TIP3    H130377   3.292   3.004   2.857  0.7098  0.5656 -1.4521
 2962TIP3    H230378   3.377   3.127   2.877  1.1122  0.1254 -0.3587
 2963TIP3   OH230379   5.439   6.814   5.213  0.5207  0.1002 -0.6615
 2963TIP3    H130380   5.369   6.844   5.270  1.0017  1.1132 -0.5699
 2963TIP3    H230381   5.481   6.742   5.260  1.5904  1.6065  0.7891
 2964TIP3   OH230382   3.607   6.040   0.869 -0.2752 -0.1577 -0.2171
 2964TIP3    H130383   3.683   6.094   0.850  0.1173 -1.3976 -2.5500
 2964TIP3    H230384   3.534   6.085   0.827 -0.9744  1.1380  2.1897
 2965TIP3   OH230385   4.243   4.152  12.095  0.0417  0.0294 -0.3650
 2965TIP3    H130386   4.227   4.060  12.114 -0.5414  0.0056 -0.9379
 2965TIP3    H230387   4.274   4.153  12.005 -0.5806  0.4439 -0.5864
 2966TIP3   OH230388   5.183   0.694  12.575 -0.2548 -0.1156  0.4241
 2966TIP3    H130389   5.122   0.639  12.624 -0.4295 -0.0445  0.2874
 2966TIP3    H230390   5.248   0.634  12.540  0.0408 -0.1325  0.9952
 2967TIP3   OH230391   0.058   0.404   5.531 -0.0264 -0.1518  0.4015
 2967TIP3    H130392   0.103   0.412   5.447 -0.3512 -0.7286  0.1609
 2967TIP3    H230393  -0.033   0.385   5.507  0.0334 -1.1005  0.8819
 2968TIP3   OH230394   3.468   4.712  11.971  0.2343 -0.0527 -0.3220
 2968TIP3    H130395   3.472   4.618  11.989 -0.6267 -0.5177 -2.3071
 2968TIP3    H230396   3.374   4.731  11.966  0.3775  0.3451 -2.4113
 2969TIP3   OH230397   1.526   5.477   0.096 -0.1299  0.3911 -0.4022
 2969TIP3    H130398   1.547   5.384   0.092  0.8879  0.6366 -1.1839
 2969TIP3    H230399   1.548   5.503   0.185  5.6745  1.1806 -1.6859
 2970TIP3   OH230400   1.859   2.673   1.897 -0.0871 -0.3461  0.0492
 2970TIP3    H130401   1.817   2.756   1.919  3.0241  1.5580 -0.6309
 2970TIP3    H230402   1.814   2.645   1.817 -1.8550  0.0959  0.8311
 2971TIP3   OH230403   0.363   1.981  12.902  0.2223  0.1980  1.2561
 2971TIP3    H130404   0.327   1.897  12.873 -0.9995  0.8319  0.8314
 2971TIP3    H230405   0.330   1.992  12.991  1.8731 -0.5766  1.9948
 2972TIP3   OH230406   0.617   2.473  13.269  0.4638 -0.1637 -0.0281
 2972TIP3    H130407   0.646   2.422  13.345  1.7982 -1.0932 -1.1092
 2972TIP3    H230408   0.646   2.563  13.289  0.4893 -0.3308  0.7157
 2973TIP3   OH230409   3.376   1.656  12.269 -0.4423  0.6352  0.5187
 2973TIP3    H130410   3.403   1.742  12.300 -2.0032  1.0749  0.7666
 2973TIP3    H230411   3.457   1.608  12.257  0.5366  2.4351 -0.5064
 2974TIP3   OH230412   0.101   1.642   3.012 -0.4007  0.3734 -0.2799
 2974TIP3    H130413   0.146   1.598   3.085  3.7963  1.2452 -2.0241
 2974TIP3    H230414   0.036   1.698   3.054  0.7905 -0.2814  2.6893
 2975TIP3   OH230415   0.352   5.620   3.459 -0.2574  0.4551 -0.2755
 2975TIP3    H130416   0.407   5.608   3.381  1.0642 -0.1963  0.7054
 2975TIP3    H230417   0.407   5.590   3.531 -1.3633  1.2572  0.9423
 2976TIP3   OH230418   1.530   6.531  11.824  0.2366 -0.1056 -0.2545
 2976TIP3    H130419   1.523   6.474  11.747 -0.2578 -1.1168  0.5109
 2976TIP3    H230420   1.441   6.562  11.838  0.4161  0.4762 -0.3674
 2977TIP3   OH230421   0.651   4.282  11.459 -0.1435 -0.1159 -0.3210
 2977TIP3    H130422   0.659   4.209  11.397 -1.4115 -1.8600  1.4815
 2977TIP3    H230423   0.572   4.328  11.431  1.1666  1.2250 -2.0374
 2978TIP3   OH230424   3.443   4.615  12.406 -0.3436  0.2528  0.2092
 2978TIP3    H130425   3.409   4.538  12.361  1.4390 -0.3331 -0.2420
 2978TIP3    H230426   3.459   4.585  12.496  1.1045 -0.1723 -0.1701
 2979TIP3   OH230427   5.159   2.807  16.668  0.6585  0.2518 -0.4207
 2979TIP3    H130428   5.078   2.781  16.624  0.5389  0.1413 -0.1428
 2979TIP3    H230429   5.156   2.902  16.672 -0.7486  0.1979  1.9166
 2980TIP3   OH230430   6.139   4.263   2.078  0.4769 -0.5581 -0.2970
 2980TIP3    H130431   6.087   4.241   2.001  0.8503  0.2436 -0.7941
 2980TIP3    H230432   6.171   4.351   2.060 -0.6547  0.2451  1.4485
 2981TIP3   OH230433   1.847   2.964   4.923 -0.1005 -0.8005  0.9269
 2981TIP3    H130434   1.901   2.895   4.883  2.7745  1.2547  0.9240
 2981TIP3    H230435   1.854   3.038   4.861 -1.8036  0.0078  1.6525
 2982TIP3   OH230436   1.024   4.202  14.681 -0.0949  0.6277  0.3490
 2982TIP3    H130437   0.981   4.117  14.693 -0.7118  0.9793  0.6596
 2982TIP3    H230438   1.117   4.180  14.671 -0.2676 -0.0971  0.2426
 2983TIP3   OH230439   5.383   5.930  14.139  0.3602  0.1223 -0.3887
 2983TIP3    H130440   5.402   5.861  14.076  1.3400 -1.9374  1.9959
 2983TIP3    H230441   5.451   5.996  14.124  0.8806 -0.5585 -1.1301
 2984TIP3   OH230442   2.548   1.002  14.882  0.6032  0.0255  0.2770
 2984TIP3    H130443   2.462   0.962  14.879  0.8020 -0.5227  1.4821
 2984TIP3    H230444   2.581   0.995  14.792  1.0639 -3.5185  0.5786
 2985TIP3   OH230445   6.590   3.937  16.056 -0.2648 -0.7573  0.1726
 2985TIP3    H130446   6.571   4.026  16.084 -1.0352 -0.5532 -0.9744
 2985TIP3    H230447   6.680   3.922  16.085  1.2843  1.7156 -2.7597
 2986TIP3   OH230448   5.299   0.314   5.076  0.3202 -0.7312  0.2043
 2986TIP3    H130449   5.272   0.230   5.111  0.1986 -0.7059  0.1712
 2986TIP3    H230450   5.358   0.292   5.003 -0.6238 -0.8100 -0.5615
 2987TIP3   OH230451   2.325   1.966  13.486 -0.3540 -0.1140 -0.1529
 2987TIP3    H130452   2.266   1.895  13.462 -0.0653 -0.9158  1.3884
 2987TIP3    H230453   2.385   1.975  13.412 -0.9270 -0.8823 -0.7190
 2988TIP3   OH230454   1.331   4.275   6.072  0.5273 -0.3978  0.2085
 2988TIP3    H130455   1.416   4.280   6.029  0.4731  0.2797  0.1670
 2988TIP3    H230456   1.332   4.191   6.118  1.1324 -0.4906  0.0295
 2989TIP3   OH230457   4.382   3.250  10.831  0.4941  0.0142  0.5315
 2989TIP3    H130458   4.391   3.308  10.906  2.3061 -0.7896  0.9863
 2989TIP3    H230459   4.451   3.278  10.770 -1.5065  1.2488 -1.2918
 2990TIP3   OH230460   2.480   3.748   3.631 -0.2735 -0.5935  0.0386
 2990TIP3    H130461   2.516   3.801   3.560  0.2899  0.5798  1.1685
 2990TIP3    H230462   2.519   3.661   3.619  0.2198 -0.2676 -0.7612
 2991TIP3   OH230463   3.792   4.246  14.853  0.1015 -0.4016 -0.4056
 2991TIP3    H130464   3.849   4.323  14.850  0.2935 -0.5522 -0.6329
 2991TIP3    H230465   3.841   4.182  14.904 -0.8140  0.2369  1.3714
 2992TIP3   OH230466   4.979   5.388   1.614 -0.3372  0.0764  0.1678
 2992TIP3    H130467   5.023   5.392   1.530  0.8523 -0.0345  0.7633
 2992TIP3    H230468   5.004   5.468   1.659 -1.7781  0.6236  0.0474
 2993TIP3   OH230469   6.778   1.445  14.103  0.6369  0.0538  0.0952
 2993TIP3    H130470   6.732   1.449  14.187 -1.0870 -0.5448 -0.7556
 2993TIP3    H230471   6.854   1.389  14.119  1.3177  1.3706  1.6548
 2994TIP3   OH230472   1.128   6.180  13.295 -0.5016  0.3514  0.2134
 2994TIP3    H130473   1.172   6.242  13.355  1.9638 -1.1493  0.0973
 2994TIP3    H230474   1.199   6.124  13.264 -2.4682 -1.8059 -0.5844
 2995TIP3   OH230475   5.551   0.281  16.576 -0.1526  0.3066  0.2269
 2995TIP3    H130476   5.503   0.214  16.527 -0.4389  0.3944  0.3823
 2995TIP3    H230477   5.611   0.232  16.632 -0.1338  0.1915  0.1038
 2996TIP3   OH230478   6.131   4.235  14.565  0.1914  0.7053  0.3011
 2996TIP3    H130479   6.215   4.190  14.574  0.2046  0.9786  1.7081
 2996TIP3    H230480   6.066   4.164  14.567  0.3771  0.4673 -1.0765
 2997TIP3   OH230481   3.941   1.963  13.736 -0.4693 -0.3427 -0.1816
 2997TIP3    H130482   4.000   2.026  13.778 -1.7079  0.8551 -0.1756
 2997TIP3    H230483   3.997   1.914  13.676  0.9039 -0.5625  1.2104
 2998TIP3   OH230484   0.003   6.264  16.493 -0.3915  0.4482  0.1560
 2998TIP3    H130485  -0.065   6.326  16.468 -0.0746  0.2037 -1.4065
 2998TIP3    H230486   0.071   6.318  16.534  0.4074  1.3635 -2.2347
 2999TIP3   OH230487   6.317   0.332  16.514  0.1686  0.0181  0.7236
 2999TIP3    H130488   6.293   0.415  16.473  0.6277  0.2031  0.8194
 2999TIP3    H230489   6.248   0.271  16.488  0.5863  0.0586 -0.5466
 3000TIP3   OH230490   2.487   5.695  16.260  0.0598  0.1896  0.5100
 3000TIP3    H130491   2.510   5.685  16.353 -0.7103  2.0730  0.9425
 3000TIP3    H230492   2.394   5.715  16.260 -0.0185 -0.1000 -0.7079
 3001TIP3   OH230493   6.575   2.900   4.214  0.2287 -0.1729 -0.3568
 3001TIP3    H130494   6.514   2.920   4.143 -0.5822  0.6419  0.5384
 3001TIP3    H230495   6.634   2.975   4.216 -1.4610  1.2309  1.5778
 3002TIP3   OH230496   5.722   6.471   2.155 -0.1593 -0.1222  0.1760
 3002TIP3    H130497   5.772   6.403   2.111 -1.3599 -0.2552 -1.0396
 3002TIP3    H230498   5.630   6.445   2.143 -0.5736  0.4946  1.7097
 3003TIP3   OH230499   0.539   3.845   0.892 -0.4626  0.2564  0.4706
 3003TIP3    H130500   0.622   3.798   0.886 -0.3251  0.6652 -1.2033
 3003TIP3    H230501   0.482   3.785   0.942  0.1055 -1.1162 -0.4615
 3004TIP3   OH230502   1.199   1.626  15.035 -0.1908 -0.0430 -0.3280
 3004TIP3    H130503   1.174   1.562  15.101  1.3368 -1.5556 -1.1410
 3004TIP3    H230504   1.152   1.600  14.956 -0.5658  0.6390 -0.3396
 3005TIP3   OH230505   1.037   6.702   3.974 -0.7104  0.4118  0.3043
 3005TIP3    H130506   1.132   6.696   3.976 -0.6357  1.3264  2.0854
 3005TIP3    H230507   1.019   6.795   3.961 -1.4223 -0.0198 -2.1620
 3006TIP3   OH230508   6.359   0.983  13.243  0.2283 -0.3950 -0.3926
 3006TIP3    H130509   6.273   0.942  13.226  0.3956 -0.4782 -1.0800
 3006TIP3    H230510   6.361   1.058  13.184  0.0239  0.4902  0.6946
 3007TIP3   OH230511   0.868   0.276  15.570 -1.0839  0.1591  0.1367
 3007TIP3    H130512   0.960   0.257  15.549 -1.2167 -0.1457 -0.1678
 3007TIP3    H230513   0.828   0.190  15.583 -1.2760  0.2992  0.5008
 3008TIP3   OH230514   6.807   2.115  13.173  0.0637  0.3461  0.3036
 3008TIP3    H130515   6.778   2.067  13.250 -1.5196 -0.0458 -0.4722
 3008TIP3    H230516   6.751   2.193  13.171  1.2598  1.2385  0.4646
 3009TIP3   OH230517   4.083   0.264  12.138 -0.0157  0.2161 -0.6768
 3009TIP3    H130518   4.063   0.303  12.053 -1.4773  0.9216 -0.0486
 3009TIP3    H230519   4.021   0.192  12.146  0.4960 -0.2032 -0.4387
 3010TIP3   OH230520   0.592   3.046   1.359  0.5435 -0.0891  0.5327
 3010TIP3    H130521   0.596   2.950   1.358  1.4634 -0.0648  1.0514
 3010TIP3    H230522   0.533   3.068   1.287 -1.7596 -1.1235  1.9977
 3011TIP3   OH230523   0.065   3.326   1.258  0.1303  0.1529  0.1347
 3011TIP3    H130524   0.126   3.258   1.288  1.9839  1.7787  0.3145
 3011TIP3    H230525  -0.016   3.280   1.238  1.2761 -2.0659  0.3613
 3012TIP3   OH230526   6.160   3.256  15.820 -0.2052 -0.4585  0.0700
 3012TIP3    H130527   6.133   3.190  15.757 -0.7044 -0.6011  0.4303
 3012TIP3    H230528   6.170   3.336  15.769  0.0912 -0.7361 -0.3117
 3013TIP3   OH230529   0.300   0.371   4.120  0.3396 -0.0794  0.4718
 3013TIP3    H130530   0.246   0.431   4.069 -0.3300 -0.3709  0.8374
 3013TIP3    H230531   0.249   0.290   4.126  1.6314 -1.0482 -0.8326
 3014TIP3   OH230532   4.812   2.539  12.571 -0.5604  0.3535  0.5232
 3014TIP3    H130533   4.842   2.594  12.499  0.3193  0.1686  0.7317
 3014TIP3    H230534   4.766   2.599  12.630 -1.0019  0.5640 -0.0268
 3015TIP3   OH230535   1.908   5.373   2.920 -0.5479  0.0291  0.3907
 3015TIP3    H130536   1.949   5.451   2.956  0.6142 -0.4883  0.2564
 3015TIP3    H230537   1.844   5.406   2.857  1.6068  0.9136 -1.4889
 3016TIP3   OH230538   4.483   3.686   3.633  0.2625  0.4204 -0.2263
 3016TIP3    H130539   4.490   3.781   3.625  2.3092  0.2392 -1.1470
 3016TIP3    H230540   4.506   3.652   3.547 -2.3257 -0.9075 -0.4941
 3017TIP3   OH230541   1.394   6.148  11.662 -0.4590  0.4755  0.5909
 3017TIP3    H130542   1.373   6.081  11.727  1.0568 -2.9850 -2.1959
 3017TIP3    H230543   1.325   6.141  11.597  0.9320 -0.0837 -0.8777
 3018TIP3   OH230544   5.978   5.992   1.559 -0.0689  0.1376 -0.0561
 3018TIP3    H130545   5.929   5.976   1.478  0.9746 -1.9505 -0.3519
 3018TIP3    H230546   6.063   6.026   1.529  0.1485 -0.1945  0.1727
 3019TIP3   OH230547   6.624   3.039   0.681 -0.0744 -0.1817  0.2306
 3019TIP3    H130548   6.616   2.954   0.638 -0.3423  0.2445 -0.5738
 3019TIP3    H230549   6.714   3.041   0.714 -0.5852 -1.4931  1.8267
 3020TIP3   OH230550   1.814   3.374   3.120 -0.0506  0.0946  0.0229
 3020TIP3    H130551   1.829   3.283   3.143 -0.3614  0.2179  0.7298
 3020TIP3    H230552   1.896   3.404   3.081 -0.5421 -1.0343 -2.0518
 3021TIP3   OH230553   6.243   3.254   1.035  0.2004  0.7937  0.2987
 3021TIP3    H130554   6.222   3.269   0.943 -0.8095  0.2013  0.4154
 3021TIP3    H230555   6.164   3.214   1.072  1.7745 -2.3442  0.6170
 3022TIP3   OH230556   0.020   1.998  14.495  0.5173 -0.2423 -0.9270
 3022TIP3    H130557  -0.060   1.966  14.453 -0.3031 -0.7996  0.9786
 3022TIP3    H230558   0.052   1.924  14.546  0.0248  1.1057  1.4793
 3023TIP3   OH230559   3.017   1.630   5.557 -0.7409 -0.4029 -0.2024
 3023TIP3    H130560   3.101   1.659   5.593 -1.3298 -0.5533  1.3538
 3023TIP3    H230561   2.955   1.638   5.629 -2.4005  0.9611 -1.6715
 3024TIP3   OH230562   2.528   2.271  17.028  0.1755 -0.3668  0.0169
 3024TIP3    H130563   2.599   2.226  17.074  0.1938  0.1582  0.5199
 3024TIP3    H230564   2.571   2.315  16.955  0.0836 -1.5572 -0.7825
 3025TIP3   OH230565   2.647   3.541   4.657  0.6447 -0.4810 -0.0961
 3025TIP3    H130566   2.600   3.614   4.616 -1.0551 -1.4990 -0.0684
 3025TIP3    H230567   2.646   3.560   4.750  2.9608  0.9616 -0.3026
 3026TIP3   OH230568   3.836   2.612  12.125  0.0084  0.0650 -0.5948
 3026TIP3    H130569   3.900   2.581  12.061  0.5771 -1.3155  0.5691
 3026TIP3    H230570   3.762   2.641  12.073  0.3439 -1.2354 -1.8815
 3027TIP3   OH230571   4.005   3.411   1.773  0.3619 -0.2071  0.3314
 3027TIP3    H130572   3.968   3.330   1.737  1.7327 -1.7430  2.1464
 3027TIP3    H230573   4.027   3.389   1.864 -0.6840  2.7216  1.4162
 3028TIP3   OH230574   4.420   5.391  12.019 -0.0701  0.1113 -0.3207
 3028TIP3    H130575   4.400   5.403  12.112 -0.3447  0.5453 -0.4348
 3028TIP3    H230576   4.369   5.315  11.993 -1.5314  1.1389 -0.5835
 3029TIP3   OH230577   1.755   5.920   5.583  0.1058  0.1407 -0.5032
 3029TIP3    H130578   1.769   5.978   5.657  0.3779 -0.0001 -0.4428
 3029TIP3    H230579   1.781   5.833   5.615  0.2500  0.0845 -0.7667
 3030TIP3   OH230580   1.249   6.564  16.401  0.0487  0.1712 -0.1551
 3030TIP3    H130581   1.232   6.506  16.475  1.5902 -1.5956 -1.0951
 3030TIP3    H230582   1.248   6.506  16.325  2.4930  1.1949 -1.0651
 3031TIP3   OH230583   6.330   2.453  15.164 -0.2793 -0.3485 -0.6350
 3031TIP3    H130584   6.335   2.464  15.069  0.1575  0.1804 -0.5590
 3031TIP3    H230585   6.237   2.466  15.185 -0.0268  2.2319 -0.7107
 3032TIP3   OH230586   5.412   6.554   4.681  0.2246 -0.1816  0.1707
 3032TIP3    H130587   5.394   6.516   4.767  3.3117  0.3053  1.1556
 3032TIP3    H230588   5.491   6.510   4.651  0.9778  1.7981 -0.9820
 3033TIP3   OH230589   0.649   5.749   5.715 -0.6815 -0.5018  0.0574
 3033TIP3    H130590   0.602   5.775   5.794 -1.4511 -1.1946 -0.1528
 3033TIP3    H230591   0.608   5.800   5.645  1.7712  2.1439  0.4033
 3034TIP3   OH230592   2.851   6.145   2.729 -0.6687 -0.3419  0.0821
 3034TIP3    H130593   2.762   6.180   2.736 -0.4457 -0.0119  1.6515
 3034TIP3    H230594   2.845   6.056   2.763 -0.5777 -0.6849 -0.7698
 3035TIP3   OH230595   2.518   0.776  16.199  0.0271  0.3674 -0.4403
 3035TIP3    H130596   2.475   0.826  16.268  0.8455 -0.3015  0.5865
 3035TIP3    H230597   2.481   0.688  16.207 -0.6611  0.5359 -1.5740
 3036TIP3   OH230598   0.322   1.380   3.835  0.1426 -0.0292  0.1591
 3036TIP3    H130599   0.375   1.419   3.766  0.8160 -0.9252  0.1430
 3036TIP3    H230600   0.236   1.421   3.826 -0.0485 -0.7524 -1.7842
 3037TIP3   OH230601   4.781   2.419  16.283  0.8083  0.4968  0.7467
 3037TIP3    H130602   4.869   2.455  16.285  0.5884  1.0536  0.4779
 3037TIP3    H230603   4.771   2.386  16.193  1.1763 -0.6684  1.1163
 3038TIP3   OH230604   4.740   0.001   6.042 -0.1661  1.0633 -0.3987
 3038TIP3    H130605   4.690  -0.073   6.076 -0.2060 -0.0818 -2.7499
 3038TIP3    H230606   4.830  -0.016   6.067 -0.1960  0.2442 -0.8059
 3039TIP3   OH230607   0.957   5.214  15.212 -0.4794  0.2406  0.7841
 3039TIP3    H130608   0.960   5.120  15.192 -0.3234  0.5265 -0.6641
 3039TIP3    H230609   0.946   5.256  15.127  0.0027  1.5745  1.3528
 3040TIP3   OH230610   0.267   3.581  14.138 -0.3723  0.2797  0.3201
 3040TIP3    H130611   0.356   3.572  14.106 -0.5443 -0.6839  0.0612
 3040TIP3    H230612   0.276   3.617  14.226  0.2209  0.8865  0.0186
 3041TIP3   OH230613   5.973   5.576  14.962 -0.0569  0.3542 -0.2794
 3041TIP3    H130614   5.954   5.556  14.871  2.2580  0.3350 -0.8228
 3041TIP3    H230615   5.894   5.620  14.994 -0.5332  1.3192 -2.5813
 3042TIP3   OH230616   3.854   0.389   5.442  0.2261 -0.9057  0.3101
 3042TIP3    H130617   3.773   0.343   5.418 -1.7460  1.9597  0.9766
 3042TIP3    H230618   3.857   0.465   5.384  1.7884 -0.2784  1.1525
 3043TIP3   OH230619   6.435   1.172  16.541 -0.0085 -0.2292 -0.3629
 3043TIP3    H130620   6.410   1.083  16.569  1.5168 -0.3246  0.8222
 3043TIP3    H230621   6.529   1.166  16.524  0.0621  1.1050 -0.5461
 3044TIP3   OH230622   3.958   3.469  12.720 -0.4081 -0.3690  0.6682
 3044TIP3    H130623   3.888   3.533  12.733 -0.5362 -0.7902  2.1751
 3044TIP3    H230624   4.035   3.521  12.700 -0.4656  0.2780  2.0862
 3045TIP3   OH230625   4.042   2.458  15.240  0.1970  0.3268 -0.1755
 3045TIP3    H130626   4.058   2.475  15.147 -0.7957  1.9460 -0.0818
 3045TIP3    H230627   4.051   2.544  15.282 -0.0208 -0.2678  1.1374
 3046TIP3   OH230628   1.144   5.677   0.877 -0.3528  0.5865 -0.5914
 3046TIP3    H130629   1.095   5.645   0.953  0.1782  1.2889  0.0582
 3046TIP3    H230630   1.175   5.597   0.833 -1.0594  0.1659 -0.3460
 3047TIP3   OH230631   1.984   2.019  13.100  0.1847  0.0395 -0.0255
 3047TIP3    H130632   1.972   2.080  13.027  1.0186  1.0451  0.6436
 3047TIP3    H230633   2.030   2.070  13.166 -0.9621 -0.7059  1.4059
 3048TIP3   OH230634   0.846   6.668  12.461  0.3203 -0.1836 -0.1287
 3048TIP3    H130635   0.895   6.747  12.486  1.3695 -0.8445 -0.0230
 3048TIP3    H230636   0.755   6.690  12.479  0.2639  1.8971 -2.4389
 3049TIP3   OH230637   0.435   4.493   0.711 -0.4372  0.7069  0.1913
 3049TIP3    H130638   0.397   4.555   0.648 -0.5104  1.1084  0.6206
 3049TIP3    H230639   0.528   4.516   0.715 -0.3581  0.4292 -0.0585
 3050TIP3   OH230640   5.926   3.202   1.872  0.2970  0.0277 -0.4473
 3050TIP3    H130641   5.884   3.135   1.927 -0.8732 -1.0590 -2.5218
 3050TIP3    H230642   5.892   3.285   1.905 -0.2506 -0.5753  0.5634
 3051TIP3   OH230643   6.689   1.925  13.604  0.0583  0.2944  0.1156
 3051TIP3    H130644   6.660   1.924  13.513 -0.3442  0.3492  0.2433
 3051TIP3    H230645   6.776   1.885  13.601 -0.9456 -2.0838  0.0319
 3052TIP3   OH230646   4.907   5.324   0.089 -0.1136 -0.2029 -0.7583
 3052TIP3    H130647   4.948   5.263   0.150 -2.3804 -1.2974 -0.2146
 3052TIP3    H230648   4.969   5.397   0.083  1.5095 -1.3898  0.5717
 3053TIP3   OH230649   4.080   6.210  12.421  0.7006 -0.0091 -0.2622
 3053TIP3    H130650   4.058   6.121  12.448 -0.4318 -0.3597 -2.1570
 3053TIP3    H230651   3.998   6.259  12.426  1.4464  1.1544  1.4250
 3054TIP3   OH230652   5.349   5.226  16.906 -0.2151 -0.5146 -0.5194
 3054TIP3    H130653   5.330   5.239  16.813  1.5234 -2.1286 -1.1478
 3054TIP3    H230654   5.266   5.247  16.949 -0.4591  2.5635 -2.1513
 3055TIP3   OH230655   5.606   2.857   4.848 -0.1166  0.4321 -0.7076
 3055TIP3    H130656   5.590   2.765   4.826  1.0117 -0.4012  1.5692
 3055TIP3    H230657   5.620   2.900   4.764 -1.1757 -1.3522 -1.8751
 3056TIP3   OH230658   4.969   1.071  14.174  0.0755 -0.1875  0.4126
 3056TIP3    H130659   5.008   1.138  14.230 -2.1262  1.3337  0.2458
 3056TIP3    H230660   4.906   1.027  14.229  0.3542 -1.0629  0.0565
 3057TIP3   OH230661   5.304   1.171  13.665  0.1894  0.1917  0.1736
 3057TIP3    H130662   5.284   1.169  13.571  0.8324 -2.3741  0.0002
 3057TIP3    H230663   5.396   1.197  13.669 -0.3431  2.2083  0.2798
 3058TIP3   OH230664   5.095   6.610   4.255 -0.0448 -0.3379  0.3799
 3058TIP3    H130665   5.133   6.605   4.342  2.2448 -0.2596 -0.5482
 3058TIP3    H230666   5.142   6.681   4.212 -2.6080  1.0918 -0.2995
 3059TIP3   OH230667   3.669   0.546  12.471  0.2308  0.0870 -0.4224
 3059TIP3    H130668   3.709   0.566  12.556 -0.8846 -0.6700  0.3131
 3059TIP3    H230669   3.729   0.483  12.431  0.0604 -0.6612  0.4540
 3060TIP3   OH230670   2.742   1.451   4.310 -0.0761 -0.1381  0.5486
 3060TIP3    H130671   2.730   1.496   4.226  0.6212  1.6436  1.3543
 3060TIP3    H230672   2.814   1.390   4.294 -1.2763 -1.3094 -0.6689
 3061TIP3   OH230673   0.090   5.151  15.493 -0.3732  0.3013  0.3975
 3061TIP3    H130674   0.101   5.143  15.398 -1.1496 -1.4605  0.4140
 3061TIP3    H230675   0.040   5.074  15.518 -2.5329  2.0633  1.8952
 3062TIP3   OH230676   5.385   3.688  15.152 -0.4680  0.1756 -0.3316
 3062TIP3    H130677   5.465   3.636  15.138 -0.1054  0.5746  0.2158
 3062TIP3    H230678   5.377   3.740  15.072  0.3675  0.8386 -0.0028
 3063TIP3   OH230679   3.692   2.895  12.911 -0.1913 -0.2238  0.2938
 3063TIP3    H130680   3.607   2.862  12.881  0.2276 -0.8425 -0.2328
 3063TIP3    H230681   3.706   2.975  12.862  0.5974 -1.3445 -1.4097
 3064TIP3   OH230682   2.996   2.613  11.112 -0.0334  0.1934  0.0096
 3064TIP3    H130683   2.988   2.662  11.030  0.2443 -1.8794 -1.3386
 3064TIP3    H230684   3.084   2.632  11.143 -0.6325  2.1409  0.6611
 3065TIP3   OH230685   2.325   5.077  12.555 -0.1996 -0.1846 -0.6152
 3065TIP3    H130686   2.256   5.057  12.492 -0.3138 -0.6667 -0.3468
 3065TIP3    H230687   2.313   5.012  12.624  1.7520 -1.6206 -1.5237
 3066TIP3   OH230688   2.652   6.313   2.853 -0.6140 -0.0934  0.0413
 3066TIP3    H130689   2.563   6.315   2.888  0.2187  0.5274  2.3441
 3066TIP3    H230690   2.702   6.370   2.912  0.7329  2.1776 -3.0330
 3067TIP3   OH230691   2.460   2.085  15.183 -0.2576  0.0345 -0.1984
 3067TIP3    H130692   2.396   2.116  15.247 -0.2616 -1.4488  0.5637
 3067TIP3    H230693   2.454   1.989  15.187  0.0101 -0.1090 -2.1696
 3068TIP3   OH230694   4.457   3.555   5.056 -0.2652 -0.1502 -0.4213
 3068TIP3    H130695   4.480   3.505   5.134  0.6989  0.6876 -0.1566
 3068TIP3    H230696   4.515   3.521   4.987  1.3246  1.4371  0.0649
 3069TIP3   OH230697   5.963   1.757   5.890 -0.1932 -0.1162 -0.2025
 3069TIP3    H130698   6.052   1.784   5.911 -0.2474  1.1175 -1.3789
 3069TIP3    H230699   5.974   1.671   5.848  0.7711  1.0405 -2.5481
 3070TIP3   OH230700   1.006   2.369   5.354 -0.1912 -0.7253  0.2159
 3070TIP3    H130701   1.069   2.310   5.312 -0.5223  0.2510 -1.7663
 3070TIP3    H230702   0.928   2.316   5.368 -0.4738 -0.8078 -1.5203
 3071TIP3   OH230703   3.399   2.981  12.221 -0.2234  0.6173  0.1271
 3071TIP3    H130704   3.362   3.056  12.268 -2.3146  1.1851 -2.1895
 3071TIP3    H230705   3.376   2.905  12.274 -0.9576  1.3675  0.9211
 3072TIP3   OH230706   2.210   5.593   0.713 -0.3089 -0.1181  0.6061
 3072TIP3    H130707   2.186   5.501   0.724 -1.0479  0.0702  0.6316
 3072TIP3    H230708   2.141   5.641   0.760 -0.1798  0.4612  0.2063
 3073TIP3   OH230709   6.451   0.998  16.307 -0.3170  0.0545 -0.2129
 3073TIP3    H130710   6.478   1.083  16.271  2.2275 -0.0490  1.1981
 3073TIP3    H230711   6.515   0.980  16.376 -1.0641 -2.8077 -0.1439
 3074TIP3   OH230712   2.215   3.679  13.340  0.1571  0.3355 -0.5170
 3074TIP3    H130713   2.152   3.609  13.322  0.8292 -0.2129 -0.7898
 3074TIP3    H230714   2.235   3.671  13.433  1.4500 -0.8920 -0.8676
 3075TIP3   OH230715   3.907   4.374   0.937 -0.6993  0.0348  0.4224
 3075TIP3    H130716   3.863   4.289   0.934  0.7739 -0.9950  3.6525
 3075TIP3    H230717   3.867   4.419   1.011  1.4412  0.3069  1.5002
 3076TIP3   OH230718   3.280   4.355   1.796 -0.3285  0.7680  0.4773
 3076TIP3    H130719   3.321   4.407   1.865 -0.6546  1.3049  0.2739
 3076TIP3    H230720   3.258   4.272   1.838  1.2556  0.3304  0.5024
 3077TIP3   OH230721   0.361   2.536  14.847 -0.1418 -0.1518 -0.0650
 3077TIP3    H130722   0.293   2.474  14.821  0.0438 -0.2210 -0.4066
 3077TIP3    H230723   0.401   2.497  14.925 -1.1283  0.3699  0.7185
 3078TIP3   OH230724   5.740   2.674   4.605 -0.2549 -0.0482  0.1470
 3078TIP3    H130725   5.666   2.628   4.644 -0.3232 -1.0695 -1.0928
 3078TIP3    H230726   5.719   2.676   4.511  1.4910 -0.7915 -0.3006
 3079TIP3   OH230727   3.461   5.546   1.512  0.2068 -0.6335 -0.0381
 3079TIP3    H130728   3.402   5.498   1.454 -1.3824  0.0487  0.9356
 3079TIP3    H230729   3.496   5.617   1.458 -1.0616 -0.1515 -0.2698
 3080TIP3   OH230730   0.048   4.506   3.899  1.0237  0.0653  0.5814
 3080TIP3    H130731   0.119   4.546   3.949  1.1331 -0.2297  0.6610
 3080TIP3    H230732   0.051   4.550   3.814 -0.6243  2.2526  1.5423
 3081TIP3   OH230733   4.226   0.185   4.428  0.0716 -0.4523  0.5357
 3081TIP3    H130734   4.196   0.225   4.346  0.1386  0.5017  0.9698
 3081TIP3    H230735   4.168   0.109   4.439 -1.3868  0.6353  0.7144
 3082TIP3   OH230736   0.418   4.944   3.033  0.0692  0.2009 -0.8502
 3082TIP3    H130737   0.344   5.004   3.044  0.4629  0.4612  0.6323
 3082TIP3    H230738   0.379   4.857   3.041 -0.1350  0.3306 -0.3693
 3083TIP3   OH230739   0.110   3.486  10.653 -0.5082 -0.0901 -0.1144
 3083TIP3    H130740   0.095   3.460  10.562 -3.5352  0.6090  0.0663
 3083TIP3    H230741   0.045   3.554  10.670  0.3820  0.2560  2.4159
 3084TIP3   OH230742   5.275   6.336   4.059  0.3243  0.7530  0.1391
 3084TIP3    H130743   5.318   6.419   4.079  0.0551  0.7195  0.8870
 3084TIP3    H230744   5.231   6.351   3.976 -0.0842  1.5040  0.4808
 3085TIP3   OH230745   5.209   5.485  16.161 -0.3713 -0.2781  0.2691
 3085TIP3    H130746   5.134   5.518  16.112 -1.5461  0.0958  2.2018
 3085TIP3    H230747   5.171   5.424  16.225  1.0592 -0.6358  0.8231
 3086TIP3   OH230748   2.879   4.591   6.416  0.2048  0.0794 -0.5432
 3086TIP3    H130749   2.961   4.548   6.441 -0.7820 -1.5818  0.0249
 3086TIP3    H230750   2.847   4.541   6.341 -0.4712  0.4604 -0.5221
 3087TIP3   OH230751   4.611   0.837  15.237  0.4062 -0.3008 -0.4805
 3087TIP3    H130752   4.578   0.817  15.149 -0.2204 -0.3800 -0.2342
 3087TIP3    H230753   4.539   0.883  15.279 -0.6319 -3.1137  1.0974
 3088TIP3   OH230754   2.726   3.797  11.916 -0.0363  0.3449 -0.1600
 3088TIP3    H130755   2.819   3.801  11.893 -0.0798  0.5095 -0.3073
 3088TIP3    H230756   2.700   3.707  11.899 -0.3102  0.6926 -1.6935
 3089TIP3   OH230757   5.280   2.152  16.606 -0.0618 -0.2885 -0.2690
 3089TIP3    H130758   5.375   2.138  16.609 -0.1263 -0.9602 -1.1082
 3089TIP3    H230759   5.245   2.096  16.675  0.1089 -0.4662 -0.3236
 3090TIP3   OH230760   2.966   1.665   0.646  0.0245 -0.1204 -0.0798
 3090TIP3    H130761   2.873   1.684   0.655 -0.1213 -0.8200 -0.0687
 3090TIP3    H230762   3.009   1.725   0.706 -0.3668  0.7014 -0.6115
 3091TIP3   OH230763   1.011   1.961  12.134 -0.2153  0.5199  0.7936
 3091TIP3    H130764   1.054   1.966  12.219  0.0658 -1.1666  0.7669
 3091TIP3    H230765   1.017   1.869  12.108 -0.0317  1.0387 -1.1965
 3092TIP3   OH230766   0.478   2.043   1.719  1.0204 -0.5326  0.5251
 3092TIP3    H130767   0.495   2.084   1.803  1.6325 -0.5829  0.4287
 3092TIP3    H230768   0.517   2.102   1.655 -0.8427  0.3552  0.1213
 3093TIP3   OH230769   1.006   0.219   0.964 -0.0728 -0.1812  0.5811
 3093TIP3    H130770   1.009   0.213   1.059 -0.9523 -1.0282  0.5769
 3093TIP3    H230771   0.956   0.298   0.945  0.2330  0.0683  0.8192
 3094TIP3   OH230772   6.099   5.880  11.476 -0.5018  0.0425  0.7355
 3094TIP3    H130773   6.056   5.800  11.508  0.9713 -0.2182  2.2147
 3094TIP3    H230774   6.153   5.850  11.403  0.4589 -0.4770  1.6171
 3095TIP3   OH230775   1.153   4.766  10.637 -0.3548 -0.4120 -0.6371
 3095TIP3    H130776   1.104   4.741  10.558 -0.7753 -0.4034 -0.3847
 3095TIP3    H230777   1.119   4.707  10.705  1.0997 -1.4826 -0.7860
 3096TIP3   OH230778   3.160   0.722   3.715  0.7612  0.0240 -0.6462
 3096TIP3    H130779   3.202   0.772   3.645  1.2669  0.8049  0.1739
 3096TIP3    H230780   3.172   0.777   3.793 -0.5595 -0.4086 -0.1122
 3097TIP3   OH230781   1.324   3.019  14.855 -0.0893  0.4468  0.2106
 3097TIP3    H130782   1.321   3.054  14.944  1.1795 -0.4066  0.6174
 3097TIP3    H230783   1.416   3.000  14.839 -0.4026 -0.2378 -0.9548
 3098TIP3   OH230784   0.375   3.039  15.415 -0.0937 -0.2078 -0.1654
 3098TIP3    H130785   0.319   3.012  15.342  1.1178  2.1603 -2.0888
 3098TIP3    H230786   0.464   3.038  15.380  0.8294 -1.0890  1.9812
 3099TIP3   OH230787   1.053   2.864   0.534  0.3139  0.2638  0.0279
 3099TIP3    H130788   1.106   2.890   0.458  1.7469  1.2346  1.2869
 3099TIP3    H230789   1.097   2.786   0.569 -0.4342 -0.2804 -0.2151
 3100TIP3   OH230790   3.867   2.023  15.278 -0.1889 -0.1867 -0.2112
 3100TIP3    H130791   3.813   1.967  15.222  0.9609  0.5129 -2.1138
 3100TIP3    H230792   3.805   2.081  15.320 -1.0405 -0.1390 -1.4755
 3101TIP3   OH230793   1.670   5.005  17.088  0.5694 -0.6115 -0.3296
 3101TIP3    H130794   1.602   4.952  17.046  0.5833 -2.3519  1.6691
 3101TIP3    H230795   1.708   4.947  17.155  2.4695  1.0639  0.1477
 3102TIP3   OH230796   5.635   4.407  16.117  0.0150 -0.2260 -0.7760
 3102TIP3    H130797   5.673   4.467  16.181 -0.0255 -0.7724 -0.2271
 3102TIP3    H230798   5.664   4.441  16.032  1.3066 -0.3271 -0.4044
 3103TIP3   OH230799   1.856   6.698   5.674 -0.0508  0.5062 -0.8661
 3103TIP3    H130800   1.792   6.759   5.709 -0.5302 -0.4692 -0.0014
 3103TIP3    H230801   1.826   6.612   5.703 -0.5923 -0.4230 -3.8127
 3104TIP3   OH230802   5.006   4.273  16.329 -0.3292 -1.5185 -0.1155
 3104TIP3    H130803   5.013   4.363  16.298 -2.0178 -1.2800  0.1085
 3104TIP3    H230804   5.018   4.220  16.250 -0.3628 -1.0631 -0.4346
 3105TIP3   OH230805   1.927   6.373  15.459 -0.1549  0.1634  0.5409
 3105TIP3    H130806   1.990   6.333  15.519  0.0418  0.1773  0.3445
 3105TIP3    H230807   1.882   6.300  15.417  0.5291  0.1406 -0.1615
 3106TIP3   OH230808   2.155   6.437  16.248  0.1817  0.3681 -0.1347
 3106TIP3    H130809   2.146   6.401  16.336 -1.4603  1.6003  0.2537
 3106TIP3    H230810   2.246   6.421  16.224  0.7423  0.2890  1.9012
 3107TIP3   OH230811   2.642   3.335  13.259 -0.1691 -0.1791  1.0602
 3107TIP3    H130812   2.691   3.329  13.177  0.5659 -1.2864  1.5575
 3107TIP3    H230813   2.573   3.399  13.241  1.8171  1.9209  0.5239
 3108TIP3   OH230814   5.912   4.461   1.256 -0.0879  0.2597  0.6333
 3108TIP3    H130815   5.881   4.386   1.205 -0.9988  0.8711  0.2719
 3108TIP3    H230816   5.884   4.442   1.346 -0.0017 -0.0015  0.6047
 3109TIP3   OH230817   2.622   2.094  12.480  0.0471 -0.3036  0.0496
 3109TIP3    H130818   2.531   2.117  12.500 -0.6735 -1.7320 -1.4571
 3109TIP3    H230819   2.633   2.006  12.516  1.2709  0.3434  1.3703
 3110TIP3   OH230820   0.784   0.219   3.826 -0.1504 -0.5742  0.3459
 3110TIP3    H130821   0.770   0.219   3.920  1.1171  2.1548  0.6291
 3110TIP3    H230822   0.698   0.237   3.788 -0.2591  0.7374  1.1578
 3111TIP3   OH230823   0.393   1.863  12.244 -0.3546  0.1494  0.6986
 3111TIP3    H130824   0.384   1.952  12.210 -0.3058  0.0052  0.3034
 3111TIP3    H230825   0.329   1.858  12.315 -0.5183  0.4253  0.5727
 3112TIP3   OH230826   0.703   2.697  13.099 -0.1701  0.7442  0.2394
 3112TIP3    H130827   0.758   2.776  13.095 -0.1940  0.8358  1.2814
 3112TIP3    H230828   0.764   2.626  13.117 -0.0351  0.3625 -1.5924
 3113TIP3   OH230829   1.592   1.445  12.967 -0.6536  0.1416  0.4506
 3113TIP3    H130830   1.554   1.398  13.041  0.4122 -1.4115  0.0581
 3113TIP3    H230831   1.532   1.517  12.951 -2.5761 -1.3057  0.8134
 3114TIP3   OH230832   3.119   0.940   0.472  0.0448 -0.5276 -0.1392
 3114TIP3    H130833   3.194   0.906   0.425  0.3867 -2.0390  1.3923
 3114TIP3    H230834   3.043   0.909   0.423  0.4009 -0.3525 -0.8031
 3115TIP3   OH230835   6.666   1.725  12.933 -0.9970  0.2947 -0.6710
 3115TIP3    H130836   6.729   1.776  12.984 -0.4053 -1.6268  0.6496
 3115TIP3    H230837   6.715   1.696  12.856  0.2978 -2.2883  0.9792
 3116TIP3   OH230838   1.647   4.982   4.617 -0.2003 -0.4443  0.0947
 3116TIP3    H130839   1.571   5.027   4.654 -0.3337  0.1959 -0.9257
 3116TIP3    H230840   1.613   4.897   4.589 -0.5978 -0.0802 -0.5481
 3117TIP3   OH230841   4.275   2.199   3.815  0.0185 -0.2806  0.4578
 3117TIP3    H130842   4.290   2.142   3.890  0.7505 -0.2893  0.3065
 3117TIP3    H230843   4.342   2.174   3.752  0.3165  0.7045  0.3695
 3118TIP3   OH230844   0.066   4.499   0.527  0.4633  0.0542 -0.4019
 3118TIP3    H130845   0.099   4.555   0.457 -1.9727  1.8397 -0.2547
 3118TIP3    H230846   0.010   4.556   0.580 -1.5704 -2.3058  0.2300
 3119TIP3   OH230847   6.013   3.397  13.968  0.3613  0.0315 -0.2131
 3119TIP3    H130848   6.073   3.351  14.027 -0.5875 -0.8741  0.0833
 3119TIP3    H230849   5.987   3.475  14.016  0.1105 -0.3629  0.2975
 3120TIP3   OH230850   4.195   0.691  13.910 -0.2457 -0.5242  0.7853
 3120TIP3    H130851   4.234   0.770  13.872  1.3682 -0.1144  3.0868
 3120TIP3    H230852   4.250   0.619  13.880 -1.0927 -0.6992 -0.4472
 3121TIP3   OH230853   4.433   5.245  15.482  0.3433  0.2590  0.5213
 3121TIP3    H130854   4.451   5.189  15.557 -0.9508 -0.0825  0.5983
 3121TIP3    H230855   4.421   5.185  15.409  0.5347  0.5298  0.2632
 3122TIP3   OH230856   3.809   1.656  12.968 -0.0057  0.1781  0.5355
 3122TIP3    H130857   3.752   1.583  12.993  0.8761 -0.1992  1.5224
 3122TIP3    H230858   3.753   1.714  12.917 -0.6041 -1.4146 -0.6925
 3123TIP3   OH230859   4.873   2.650   0.359  0.1762  0.1621 -0.0642
 3123TIP3    H130860   4.950   2.694   0.323  1.6527 -1.6876  0.6865
 3123TIP3    H230861   4.804   2.666   0.295  1.2698  1.5080 -0.9717
 3124TIP3   OH230862   4.847   6.117   3.804  0.4748  0.1135 -0.0389
 3124TIP3    H130863   4.844   6.204   3.843 -1.4466  0.1399 -0.1943
 3124TIP3    H230864   4.929   6.117   3.753 -0.3972  2.5279 -1.6081
 3125TIP3   OH230865   0.242   3.155  15.046 -0.1732  0.6976 -0.3434
 3125TIP3    H130866   0.185   3.227  15.020  0.0290  0.9048 -0.2074
 3125TIP3    H230867   0.268   3.114  14.964 -1.4860 -0.1457 -0.3676
 3126TIP3   OH230868   1.976   3.037   0.294  0.4621  0.4264  0.1030
 3126TIP3    H130869   2.015   3.008   0.376  4.0810 -1.6646 -2.0671
 3126TIP3    H230870   1.885   3.007   0.298  0.9847 -1.0670  2.6607
 3127TIP3   OH230871   6.118   1.673  13.011 -0.5689 -0.1511 -0.1486
 3127TIP3    H130872   6.159   1.681  12.925 -1.7964  0.3130 -0.6993
 3127TIP3    H230873   6.134   1.582  13.036  0.0911 -0.1993 -0.7079
 3128TIP3   OH230874   2.212   6.438   0.124 -0.4093  0.6847  0.1689
 3128TIP3    H130875   2.293   6.434   0.075 -1.5414  0.7757 -1.8017
 3128TIP3    H230876   2.239   6.436   0.216  1.8890  2.5043 -0.3871
 3129TIP3   OH230877   1.427   0.197   4.475  0.9440  0.3046 -0.1415
 3129TIP3    H130878   1.350   0.165   4.429  1.3347 -1.1809  0.2037
 3129TIP3    H230879   1.394   0.223   4.561  0.7467  0.1931 -0.1824
 3130TIP3   OH230880   3.860   6.785   1.221  0.2616  0.3150 -0.1562
 3130TIP3    H130881   3.869   6.864   1.274  1.4651  1.1507 -1.5272
 3130TIP3    H230882   3.766   6.772   1.212  0.0536  0.9645  0.9910
 3131TIP3   OH230883   1.723   6.631  14.067  0.2553  0.1120  0.0855
 3131TIP3    H130884   1.638   6.655  14.104  1.1829  1.8972  1.1861
 3131TIP3    H230885   1.776   6.710  14.076  1.9631 -0.8762 -0.8497
 3132TIP3   OH230886   4.881   5.359   1.974 -0.4607 -0.5713 -0.0178
 3132TIP3    H130887   4.863   5.267   1.954  2.2978 -1.1930 -0.0466
 3132TIP3    H230888   4.934   5.389   1.901  1.7055 -0.0713  1.6510
 3133TIP3   OH230889   5.378   3.071  13.215 -0.2495  0.2782 -0.6424
 3133TIP3    H130890   5.406   3.011  13.146 -0.6746 -0.8827  0.1559
 3133TIP3    H230891   5.290   3.099  13.189 -0.2626  0.1288 -0.7581
 3134TIP3   OH230892   1.238   3.010   1.527  0.5501 -0.3407 -0.1928
 3134TIP3    H130893   1.304   3.067   1.566 -0.3701  0.6463 -0.0326
 3134TIP3    H230894   1.266   2.999   1.436  1.2689 -0.4516  0.0368
 3135TIP3   OH230895   6.604   0.196  11.173  0.1685  0.1024 -0.1662
 3135TIP3    H130896   6.691   0.230  11.198 -0.8776  1.7758  1.4677
 3135TIP3    H230897   6.584   0.131  11.240  0.1997 -0.3647 -0.6077
 3136TIP3   OH230898   4.676   4.168   5.877 -0.0093 -0.1754  0.3325
 3136TIP3    H130899   4.753   4.214   5.845 -1.0096  1.3701  0.0316
 3136TIP3    H230900   4.637   4.228   5.941 -1.3540 -0.5888 -0.0550
 3137TIP3   OH230901   1.161   5.734  13.726  0.0284  0.1345  0.1203
 3137TIP3    H130902   1.076   5.753  13.684  0.7917  1.8300 -0.7705
 3137TIP3    H230903   1.209   5.683  13.661 -0.2834 -0.8128  0.6184
 3138TIP3   OH230904   6.343   1.815  17.151 -0.1411  0.1049  0.2763
 3138TIP3    H130905   6.258   1.818  17.194 -1.0675  0.6840 -1.5107
 3138TIP3    H230906   6.323   1.806  17.057  1.7644 -3.6116  0.0080
 3139TIP3   OH230907   6.739   5.290  11.711  0.7803 -1.2964 -0.6446
 3139TIP3    H130908   6.733   5.329  11.624 -1.0864 -1.2195 -0.5151
 3139TIP3    H230909   6.691   5.207  11.703 -2.4414  0.2022  1.0517
 3140TIP3   OH230910   4.680   2.800   2.133  0.2110 -0.4482 -0.1650
 3140TIP3    H130911   4.769   2.834   2.139  0.8686 -1.8611 -1.3220
 3140TIP3    H230912   4.634   2.859   2.074  0.3149  0.3839  0.5727
 3141TIP3   OH230913   6.367   5.232   5.073 -0.2625 -0.3257 -0.3675
 3141TIP3    H130914   6.375   5.321   5.038  0.9295  0.3194  1.4062
 3141TIP3    H230915   6.446   5.187   5.042  0.2409 -0.0834  0.5359
 3142TIP3   OH230916   2.733   4.301  11.067  0.2296 -0.3172 -0.3153
 3142TIP3    H130917   2.737   4.254  11.151  0.0073 -1.0115 -0.6894
 3142TIP3    H230918   2.795   4.256  11.010  0.0857 -0.0956 -0.6519
 3143TIP3   OH230919   0.633   4.647  14.813  0.1317  0.1583 -0.5852
 3143TIP3    H130920   0.666   4.576  14.868 -0.4042 -0.2558 -0.7915
 3143TIP3    H230921   0.571   4.605  14.754  0.1434  0.7263 -1.0094
 3144TIP3   OH230922   5.387   0.495   1.205  0.5015  0.6848 -0.4892
 3144TIP3    H130923   5.299   0.467   1.231  0.7149 -0.0822 -0.5759
 3144TIP3    H230924   5.372   0.565   1.141 -0.0705 -0.2887 -1.4559
 3145TIP3   OH230925   2.445   6.699  10.694 -0.3484 -0.0365  0.0211
 3145TIP3    H130926   2.398   6.782  10.700 -1.1764 -0.5895  1.5797
 3145TIP3    H230927   2.528   6.722  10.652 -0.2291  1.7240  1.1000
 3146TIP3   OH230928   3.356   5.712  16.502  0.2083 -0.0767 -0.3336
 3146TIP3    H130929   3.371   5.709  16.597 -0.3560  1.7656 -0.1375
 3146TIP3    H230930   3.407   5.788  16.473 -0.1047 -0.2698 -1.4149
 3147TIP3   OH230931   1.946   3.278   2.670  0.3777  0.4692  0.5326
 3147TIP3    H130932   1.855   3.268   2.641  0.8892 -0.8112 -0.7327
 3147TIP3    H230933   1.981   3.349   2.616 -0.0663  1.5227  1.5857
 3148TIP3   OH230934   1.653   5.736  16.144 -0.6178 -0.0167 -0.6902
 3148TIP3    H130935   1.611   5.651  16.132 -1.2267 -0.0433  1.3593
 3148TIP3    H230936   1.596   5.798  16.099 -1.6693 -0.3422  0.1728
 3149TIP3   OH230937   4.522   0.023   2.815 -0.6480  0.1353  0.5888
 3149TIP3    H130938   4.453  -0.021   2.764  0.2965  0.5493 -1.1038
 3149TIP3    H230939   4.528  -0.029   2.895 -0.3056 -2.2257 -0.8746
 3150TIP3   OH230940   5.806   5.875  16.246  0.1255  0.1676 -0.5691
 3150TIP3    H130941   5.768   5.849  16.162 -0.5990 -0.3819 -0.0842
 3150TIP3    H230942   5.901   5.867  16.233  0.0798  1.2968 -1.7039
 3151TIP3   OH230943   1.690   2.852  15.249 -0.1884  0.3655  0.0891
 3151TIP3    H130944   1.639   2.810  15.318 -0.1770 -1.5270 -0.9907
 3151TIP3    H230945   1.781   2.829  15.269 -0.1885 -0.2259 -0.5620
 3152TIP3   OH230946   2.140   6.804  14.048  0.0322  0.0971 -0.3363
 3152TIP3    H130947   2.089   6.784  14.126 -1.2546  1.1715 -0.8559
 3152TIP3    H230948   2.154   6.719  14.006 -1.9722 -0.1862 -0.5318
 3153TIP3   OH230949   1.734   5.127   3.392  0.4699  0.3185 -0.4815
 3153TIP3    H130950   1.656   5.181   3.408 -0.8292 -0.5282 -3.3598
 3153TIP3    H230951   1.801   5.189   3.364 -0.2366  0.7443 -1.2849
 3154TIP3   OH230952   4.617   2.120  14.722 -0.1618  0.2458 -0.0210
 3154TIP3    H130953   4.616   2.104  14.628 -1.8469  0.9353 -0.1506
 3154TIP3    H230954   4.566   2.048  14.760 -1.3838  1.1631  0.1247
 3155TIP3   OH230955   0.286   1.308  11.781  0.5257  0.8383 -0.3546
 3155TIP3    H130956   0.326   1.288  11.866 -0.0459 -0.5555 -0.3924
 3155TIP3    H230957   0.359   1.315  11.720  0.9175  1.5285  0.1777
 3156TIP3   OH230958   3.398   4.004  13.910  0.1823 -0.3313 -0.1275
 3156TIP3    H130959   3.468   3.942  13.888  0.0377 -1.6241  2.6071
 3156TIP3    H230960   3.336   3.952  13.963  1.0928  2.4687  4.2164
 3157TIP3   OH230961   4.773   2.120  10.565  0.0038 -0.2373  0.0851
 3157TIP3    H130962   4.720   2.124  10.486  0.8206 -1.4825 -0.5485
 3157TIP3    H230963   4.837   2.191  10.555  0.4261 -0.7077 -0.6268
 3158TIP3   OH230964   4.228   5.836  16.988 -0.5133  0.0282  0.0165
 3158TIP3    H130965   4.177   5.911  17.018  1.7887  1.8765 -0.3991
 3158TIP3    H230966   4.210   5.831  16.894  0.0810  0.7166 -0.1415
 3159TIP3   OH230967   4.819   3.390   0.705  0.0589  0.1485  0.0089
 3159TIP3    H130968   4.794   3.442   0.629  0.4894 -0.6783 -0.7098
 3159TIP3    H230969   4.915   3.384   0.700 -0.0224 -1.2496 -0.2916
 3160TIP3   OH230970   0.621   1.524   5.578 -0.5360 -0.4985  0.0535
 3160TIP3    H130971   0.670   1.576   5.641 -2.1967 -0.7904  1.6598
 3160TIP3    H230972   0.680   1.452   5.555  0.1780 -0.2713  1.1091
 3161TIP3   OH230973   3.556   2.125  17.064 -0.1365 -0.3972  0.8229
 3161TIP3    H130974   3.557   2.111  16.969 -0.2452 -0.3408  0.8133
 3161TIP3    H230975   3.478   2.080  17.094 -0.1957 -0.2684  0.8614
 3162TIP3   OH230976   2.256   2.953   5.257 -0.4206  0.2962  0.1084
 3162TIP3    H130977   2.198   3.011   5.207  0.2466  1.5742  0.7601
 3162TIP3    H230978   2.235   2.971   5.349  0.5030  0.2573  0.3354
 3163TIP3   OH230979   4.660   3.007  15.628 -0.1845 -0.2339  0.2797
 3163TIP3    H130980   4.680   2.970  15.714 -0.4583  1.8830  1.3417
 3163TIP3    H230981   4.685   3.099  15.636 -1.6854  0.3810 -1.3877
 3164TIP3   OH230982   6.707   5.992  11.335  0.2602  0.3381 -0.4659
 3164TIP3    H130983   6.679   6.057  11.271 -2.3186  0.6277  0.8229
 3164TIP3    H230984   6.758   6.042  11.400 -1.4352  1.0900  0.3461
 3165TIP3   OH230985   2.263   5.742  12.752 -0.2165  0.0164  0.3181
 3165TIP3    H130986   2.325   5.812  12.773 -0.0875  0.2014 -0.6585
 3165TIP3    H230987   2.183   5.789  12.726 -0.0514 -0.1827 -0.5801
 3166TIP3   OH230988   2.462   4.448   0.359 -0.2993  0.0185  0.4198
 3166TIP3    H130989   2.452   4.503   0.281 -3.8243 -0.5304  0.3095
 3166TIP3    H230990   2.448   4.508   0.432  2.8949  0.5107  0.7637
 3167TIP3   OH230991   6.563   5.693   4.663  0.5495 -0.5653  0.6546
 3167TIP3    H130992   6.480   5.705   4.616  1.1620  2.4233  0.0911
 3167TIP3    H230993   6.548   5.734   4.748  1.5569  0.4502  0.3633
 3168TIP3   OH230994   0.372   1.492   4.715 -0.0891  0.5642  0.0397
 3168TIP3    H130995   0.332   1.536   4.789  2.0811  1.9906  0.4300
 3168TIP3    H230996   0.455   1.459   4.748  0.2581 -0.0786 -1.3848
 3169TIP3   OH230997   3.008   2.796   5.366 -0.2278 -0.2305  0.3262
 3169TIP3    H130998   2.937   2.732   5.365 -1.2996  0.8822 -1.8860
 3169TIP3    H230999   2.964   2.881   5.354  1.4134  0.5619 -0.3852
 3170TIP3   OH231000   2.611   2.293   1.435  0.2843  0.2217  0.0837
 3170TIP3    H131001   2.700   2.259   1.447  0.3349 -0.0462 -0.9688
 3170TIP3    H231002   2.616   2.384   1.464  0.5392 -0.2024  1.4123
 3171TIP3   OH231003   4.990   2.775  13.644 -0.6923  0.0928  0.6988
 3171TIP3    H131004   5.065   2.775  13.585 -2.6559 -2.8029 -2.1631
 3171TIP3    H231005   4.973   2.683  13.661 -0.9133  0.7746  5.1474
 3172TIP3   OH231006   1.312   6.020  14.464 -0.1439  0.0390  0.7396
 3172TIP3    H131007   1.350   6.096  14.421 -0.3125 -0.9937 -1.3539
 3172TIP3    H231008   1.254   5.982  14.398  0.2623 -2.1374  1.5633
 3173TIP3   OH231009   2.984   5.682  10.397 -0.3163  0.3309  0.0496
 3173TIP3    H131010   2.972   5.723  10.483  1.7816  1.3176 -0.0659
 3173TIP3    H231011   2.899   5.691  10.354 -1.5536 -0.5812  2.1387
 3174TIP3   OH231012   2.162   1.927  16.287 -0.1731 -0.3528  0.4363
 3174TIP3    H131013   2.245   1.948  16.244  0.5392 -0.8665  1.5130
 3174TIP3    H231014   2.095   1.966  16.231  0.8450  0.8212  0.0025
 3175TIP3   OH231015   6.818   5.484   4.055  0.4913 -0.0510  0.0339
 3175TIP3    H131016   6.840   5.393   4.078  1.2830  0.6483  2.2493
 3175TIP3    H231017   6.734   5.477   4.010  0.6341 -1.8947 -0.0418
 3176TIP3   OH231018   3.655   5.398  11.626 -0.1412  0.3908 -0.0056
 3176TIP3    H131019   3.613   5.321  11.587  1.5317 -1.1349  1.0048
 3176TIP3    H231020   3.681   5.452  11.552  0.8178 -1.2429 -0.9194
 3177TIP3   OH231021   4.556   2.454  15.787  0.4130 -0.5775  0.5643
 3177TIP3    H131022   4.597   2.484  15.705  1.8621  0.8431  1.7486
 3177TIP3    H231023   4.613   2.383  15.817 -0.6551 -1.7520 -0.1030
 3178TIP3   OH231024   4.434   5.550  10.569 -0.6811 -0.5785  0.1077
 3178TIP3    H131025   4.383   5.628  10.547  0.7861  0.3520 -0.1843
 3178TIP3    H231026   4.415   5.488  10.499 -0.4372  0.2305 -0.7002
 3179TIP3   OH231027   0.027   6.459  12.353 -0.0890 -0.3248  0.3946
 3179TIP3    H131028   0.019   6.404  12.431 -1.5959  0.8299  1.1001
 3179TIP3    H231029  -0.032   6.418  12.289 -0.8757  0.1969  0.7724
 3180TIP3   OH231030   1.317   0.712   0.374 -0.2586 -0.0473  0.5986
 3180TIP3    H131031   1.378   0.639   0.362 -1.0945 -0.9229  1.4747
 3180TIP3    H231032   1.269   0.691   0.455 -0.2667  1.6649  1.0915
 3181TIP3   OH231033   0.545   2.690  11.090  0.0183  0.4443 -0.4289
 3181TIP3    H131034   0.545   2.620  11.024  1.7982  1.1527 -1.2448
 3181TIP3    H231035   0.522   2.769  11.041 -0.9025  0.6277  0.2787
 3182TIP3   OH231036   3.755   6.524   4.872  0.0078 -0.1153 -0.1051
 3182TIP3    H131037   3.774   6.462   4.802 -0.7140 -0.3535 -0.0986
 3182TIP3    H231038   3.828   6.585   4.871  0.0991 -0.2305 -0.9403
 3183TIP3   OH231039   3.235   0.887   4.563 -0.5750 -0.0367 -0.1412
 3183TIP3    H131040   3.293   0.892   4.639  0.7881  1.3073 -1.1955
 3183TIP3    H231041   3.148   0.909   4.597 -0.5446 -2.1579  1.4892
 3184TIP3   OH231042   5.270   2.048   2.295 -0.0342  0.0933 -0.0195
 3184TIP3    H131043   5.203   2.012   2.353 -2.4836  1.4815 -1.8145
 3184TIP3    H231044   5.231   2.127   2.260  1.9812  0.1606 -2.3442
 3185TIP3   OH231045   5.123   3.006   0.462  0.2791 -0.0156  0.3764
 3185TIP3    H131046   5.186   2.943   0.496 -2.1792 -1.6841  2.2496
 3185TIP3    H231047   5.063   2.954   0.409  0.3551  1.4868 -1.2746
 3186TIP3   OH231048   4.691   5.394  11.955 -0.8316  0.3771  0.1966
 3186TIP3    H131049   4.597   5.409  11.946 -0.6949  0.1794 -2.2995
 3186TIP3    H231050   4.728   5.481  11.966 -1.2433  0.5090  0.6005
 3187TIP3   OH231051   2.637   3.734  13.234 -0.1849 -0.3004 -0.2491
 3187TIP3    H131052   2.605   3.824  13.224 -1.0460 -0.6239 -0.5338
 3187TIP3    H231053   2.698   3.722  13.161  0.9044  0.4508  0.5197
 3188TIP3   OH231054   3.666   6.096  14.226  0.5380 -0.3874  0.5114
 3188TIP3    H131055   3.593   6.034  14.233  1.0832 -1.2797 -1.0858
 3188TIP3    H231056   3.731   6.050  14.173  1.4835  1.1123  0.3102
 3189TIP3   OH231057   1.109   3.473  13.494  0.1793 -0.5523  0.6884
 3189TIP3    H131058   1.090   3.518  13.411  0.0561  2.0235  2.0008
 3189TIP3    H231059   1.201   3.492  13.511  0.5273 -2.0546  0.6337
 3190TIP3   OH231060   4.791   4.953  11.612 -0.0552 -0.0927  0.0538
 3190TIP3    H131061   4.858   4.977  11.677  0.0482  2.2819 -0.8401
 3190TIP3    H231062   4.763   5.036  11.575 -1.2050 -1.2850 -1.8973
 3191TIP3   OH231063   3.577   1.709  15.799 -0.1718  0.2130 -0.5390
 3191TIP3    H131064   3.625   1.701  15.881 -0.4928 -1.2909 -0.4815
 3191TIP3    H231065   3.617   1.785  15.756  1.6492 -0.4508 -0.1026
 3192TIP3   OH231066   3.312   3.036   5.065 -0.5834  0.2414 -0.5456
 3192TIP3    H131067   3.219   3.032   5.046 -0.3650  0.4678 -1.7371
 3192TIP3    H231068   3.330   2.957   5.116 -1.3126 -0.1152 -0.8342
 3193TIP3   OH231069   1.886   1.175  15.042  0.2368  0.2645  0.2477
 3193TIP3    H131070   1.872   1.254  14.990  0.0031  0.5576  0.7474
 3193TIP3    H231071   1.802   1.158  15.084  0.1524 -0.5178 -0.2098
 3194TIP3   OH231072   1.972   1.066   5.338  0.1988  0.0092  0.4362
 3194TIP3    H131073   1.886   1.052   5.298 -0.2540  1.4371  0.8345
 3194TIP3    H231074   2.034   1.022   5.279 -0.5162  1.4538 -1.4914
 3195TIP3   OH231075   3.516   1.442   6.473 -0.3950 -0.5822  0.1349
 3195TIP3    H131076   3.571   1.388   6.416 -0.6087 -0.0275 -0.6021
 3195TIP3    H231077   3.466   1.379   6.524  0.9120 -1.1078  0.8217
 3196TIP3   OH231078   3.953   3.271   5.196  0.0810 -0.5128 -0.1100
 3196TIP3    H131079   4.023   3.229   5.145 -0.6474  0.8490 -2.3828
 3196TIP3    H231080   3.992   3.350   5.232  0.4335 -1.1719  0.9906
 3197TIP3   OH231081   0.864   5.864   5.379 -0.2234  0.2124 -0.3166
 3197TIP3    H131082   0.791   5.811   5.413 -0.6766  1.0789  0.0813
 3197TIP3    H231083   0.943   5.818   5.410 -0.5697 -1.1380 -1.3686
 3198TIP3   OH231084   4.238   1.598   0.214 -0.1339 -0.0655  0.3183
 3198TIP3    H131085   4.151   1.558   0.220  0.2244 -0.6239  2.1136
 3198TIP3    H231086   4.230   1.659   0.140 -2.0176 -0.1892  0.3630
 3199TIP3   OH231087   4.028   2.725  14.989  0.0718  0.3469  0.4451
 3199TIP3    H131088   4.079   2.797  14.951 -0.7956  0.9446  0.3738
 3199TIP3    H231089   3.939   2.739  14.957  0.1612 -1.6483 -0.7915
 3200TIP3   OH231090   4.923   0.854  16.097  0.2296 -0.4059 -0.2724
 3200TIP3    H131091   4.916   0.782  16.160  1.7893 -1.1280 -0.8557
 3200TIP3    H231092   4.913   0.811  16.011  2.0562 -0.1227 -0.6701
 3201TIP3   OH231093   2.441   5.117   0.352  0.1259  0.2392  0.5086
 3201TIP3    H131094   2.385   5.190   0.378  1.0350  0.9639  0.4776
 3201TIP3    H231095   2.457   5.070   0.434 -2.1230 -1.1734  0.2339
 3202TIP3   OH231096   0.943   3.724  12.866  0.2675 -0.1222  0.0309
 3202TIP3    H131097   0.852   3.705  12.887  1.0151 -0.8432  3.1961
 3202TIP3    H231098   0.940   3.804  12.814 -2.1805 -0.8322 -1.0597
 3203TIP3   OH231099   5.926   4.732  15.902 -0.1461  0.3211 -0.1414
 3203TIP3    H131100   5.997   4.710  15.841 -0.7086  1.4763 -1.2581
 3203TIP3    H231101   5.863   4.779  15.849  0.4300  3.5861  1.7900
 3204TIP3   OH231102   1.511   2.342   2.539  0.4687 -0.1630 -0.1534
 3204TIP3    H131103   1.492   2.285   2.613 -0.6984 -0.0843 -0.3596
 3204TIP3    H231104   1.567   2.290   2.481  0.9329 -0.4187  0.5205
 3205TIP3   OH231105   0.089   0.813  13.706 -0.0339 -0.9005 -0.0848
 3205TIP3    H131106   0.094   0.810  13.802 -0.3297  2.4901  0.1464
 3205TIP3    H231107   0.173   0.778  13.677  2.0680  2.2376  1.6639
 3206TIP3   OH231108   5.495   6.712  16.891 -0.8880 -0.5386 -0.1460
 3206TIP3    H131109   5.515   6.732  16.983 -3.6176  3.6885 -0.1723
 3206TIP3    H231110   5.430   6.642  16.896  0.9416 -2.2666  0.8655
 3207TIP3   OH231111   2.024   2.488  10.505 -0.0387 -0.3435  0.5381
 3207TIP3    H131112   1.934   2.518  10.498  0.5526  1.4280 -0.0665
 3207TIP3    H231113   2.041   2.483  10.599  0.1040  2.2628  0.7118
 3208TIP3   OH231114   1.462   5.331  16.612 -0.1214  0.1881  0.2223
 3208TIP3    H131115   1.451   5.260  16.675  2.1254  0.7331  1.3284
 3208TIP3    H231116   1.529   5.299  16.552 -0.7639  0.4908 -0.6697
 3209TIP3   OH231117   1.447   3.990  15.717 -0.3095 -0.7565  0.3809
 3209TIP3    H131118   1.382   3.954  15.776 -2.0421  0.6579 -0.5913
 3209TIP3    H231119   1.524   4.005  15.772 -1.9916  0.9528  2.4108
 3210TIP3   OH231120   4.836   0.874   3.762  0.2124  0.2333 -0.0698
 3210TIP3    H131121   4.744   0.868   3.737  0.3004  0.0140 -0.3496
 3210TIP3    H231122   4.858   0.967   3.749 -0.1145  0.3987  0.5322
 3211TIP3   OH231123   5.707   6.180  15.313  0.0393  0.2438 -0.5621
 3211TIP3    H131124   5.712   6.085  15.305  1.3880  0.2046  0.4769
 3211TIP3    H231125   5.614   6.200  15.303 -0.9346 -1.6048  2.9957
 3212TIP3   OH231126   2.992   3.262  15.973 -0.1749  0.4409 -0.3024
 3212TIP3    H131127   3.046   3.235  15.899 -1.1481 -2.2223 -0.1529
 3212TIP3    H231128   2.913   3.209  15.966 -1.6841  2.3871  0.9075
 3213TIP3   OH231129   6.817   2.320  13.782  0.0821  0.5223  0.5642
 3213TIP3    H131130   6.781   2.363  13.704 -0.2205 -0.4812  0.1327
 3213TIP3    H231131   6.756   2.249  13.800  2.0688 -1.5851 -0.5113
 3214TIP3   OH231132   0.958   1.940   5.354  0.0784 -0.2108  0.0925
 3214TIP3    H131133   0.880   1.938   5.410  0.7168  2.2878  1.2513
 3214TIP3    H231134   0.925   1.956   5.266 -0.7873 -0.8496  0.2947
 3215TIP3   OH231135   2.993   3.955   5.386 -0.9137  0.1228 -0.0289
 3215TIP3    H131136   2.971   4.047   5.398  1.6215  0.6159  1.5215
 3215TIP3    H231137   3.062   3.938   5.450 -0.6336 -2.6255 -0.9193
 3216TIP3   OH231138   2.568   0.311  16.977  0.0205  0.2877 -0.3308
 3216TIP3    H131139   2.546   0.337  17.066  2.7162 -0.8913  0.7938
 3216TIP3    H231140   2.484   0.289  16.937 -1.2385  0.5062  2.0069
 3217TIP3   OH231141   0.852   6.769  13.058  0.4848 -0.1687  0.2014
 3217TIP3    H131142   0.912   6.697  13.079  0.6472  0.0373  0.4550
 3217TIP3    H231143   0.774   6.752  13.112  0.1324 -0.6745 -0.4531
 3218TIP3   OH231144   5.088   3.935  14.407  0.3317 -0.2094 -0.0691
 3218TIP3    H131145   5.053   3.997  14.472 -0.5756 -1.4973  0.7146
 3218TIP3    H231146   5.081   3.850  14.449 -1.2022 -1.2196 -2.1982
 3219TIP3   OH231147   1.878   2.067  10.871 -0.0478  0.0362 -0.5061
 3219TIP3    H131148   1.963   2.097  10.904 -0.9185  0.7912  1.1901
 3219TIP3    H231149   1.877   2.093  10.779  1.9334 -0.8591 -0.8175
 3220TIP3   OH231150   1.133   3.740  15.662 -0.2136  0.1086  0.4512
 3220TIP3    H131151   1.069   3.683  15.618  0.2911  1.6170 -2.5248
 3220TIP3    H231152   1.217   3.715  15.624  0.1623  1.9722 -0.0324
 3221TIP3   OH231153   4.566   2.762   2.590 -0.2967  0.5184  0.6928
 3221TIP3    H131154   4.648   2.724   2.560 -0.4642  0.6743  0.0115
 3221TIP3    H231155   4.526   2.798   2.510 -1.2342  0.0463  0.9337
 3222TIP3   OH231156   2.033   3.410   2.933 -0.4081  1.0195 -0.0096
 3222TIP3    H131157   2.073   3.398   2.847  0.1211  0.4273  0.3118
 3222TIP3    H231158   2.106   3.412   2.993 -0.8807 -0.9403  0.6906
 3223TIP3   OH231159   6.574   0.717  12.564 -0.1595 -0.1193 -0.4154
 3223TIP3    H131160   6.591   0.728  12.471  0.0613 -0.2970 -0.3954
 3223TIP3    H231161   6.553   0.624  12.574  2.7784 -0.8043  0.1748
 3224TIP3   OH231162   0.188   0.468  16.140  0.1640 -0.0552  0.2282
 3224TIP3    H131163   0.224   0.383  16.115 -0.8970 -0.9261  1.4984
 3224TIP3    H231164   0.225   0.485  16.226 -0.7532  0.0365  0.6233
 3225TIP3   OH231165   5.382   6.489  15.911  0.1131  0.4498 -0.0657
 3225TIP3    H131166   5.311   6.554  15.911 -1.6943 -1.4127  0.1912
 3225TIP3    H231167   5.443   6.521  15.977 -1.7073  0.9279  1.4982
 3226TIP3   OH231168   4.061   5.571  17.116  0.1634  0.1180  0.3120
 3226TIP3    H131169   4.081   5.549  17.025  1.5352  1.1100  0.3383
 3226TIP3    H231170   4.147   5.580  17.158 -0.4375  0.2180  1.5689
 3227TIP3   OH231171   6.060   5.950   2.021  0.9833 -0.2216  0.3010
 3227TIP3    H131172   6.155   5.938   2.014  0.9168 -0.0569 -1.0330
 3227TIP3    H231173   6.035   5.992   1.939  0.1399  2.2942  1.7521
 3228TIP3   OH231174   2.781   0.190   6.142  0.0114  0.0366  0.2591
 3228TIP3    H131175   2.745   0.250   6.076  1.4209 -0.2874 -0.8526
 3228TIP3    H231176   2.780   0.241   6.223 -1.7319  0.4519  0.0274
 3229TIP3   OH231177   4.102   3.318  14.045  0.0901 -0.0795 -0.0646
 3229TIP3    H131178   4.029   3.351  14.097  0.3519  0.3282  0.0492
 3229TIP3    H231179   4.143   3.251  14.100  1.6657  1.8118  1.1892
 3230TIP3   OH231180   2.081   3.999   5.460 -0.0275  0.6047 -0.4438
 3230TIP3    H131181   2.052   3.991   5.369  0.8170 -2.2766 -0.5452
 3230TIP3    H231182   2.172   4.030   5.454 -0.5729  2.3141 -0.4378
 3231TIP3   OH231183   5.305   2.617  12.007 -0.1678  0.2161 -0.1726
 3231TIP3    H131184   5.215   2.590  11.987  0.1618 -0.5486 -0.6590
 3231TIP3    H231185   5.354   2.598  11.927  0.2508  1.4895 -0.2395
 3232TIP3   OH231186   0.047   3.290  16.109  0.5629  0.2954 -0.4405
 3232TIP3    H131187  -0.048   3.295  16.102  0.5522 -1.0744 -1.6898
 3232TIP3    H231188   0.079   3.344  16.037  0.7370  0.2528 -0.3945
 3233TIP3   OH231189   3.148   5.918   0.296  0.3652 -0.0213 -0.2556
 3233TIP3    H131190   3.159   5.856   0.368 -0.1629  0.0905 -0.0703
 3233TIP3    H231191   3.075   5.974   0.324 -0.9066 -0.9676 -1.5432
 3234TIP3   OH231192   3.752   1.377   0.678 -0.5023 -0.7124  0.6359
 3234TIP3    H131193   3.669   1.415   0.649 -0.2847  0.7590  1.8032
 3234TIP3    H231194   3.728   1.314   0.746 -0.7178 -1.0026  0.2937
 3235TIP3   OH231195   0.086   1.768  14.644  0.1198 -0.3180  0.3789
 3235TIP3    H131196   0.106   1.678  14.619  0.3640 -0.3043  0.5129
 3235TIP3    H231197   0.169   1.801  14.680 -0.3657 -0.5409  1.7768
 3236TIP3   OH231198   1.291   3.992   3.612 -0.3923 -0.2750  0.0476
 3236TIP3    H131199   1.255   4.075   3.644 -0.3084 -0.1515 -0.1720
 3236TIP3    H231200   1.382   3.993   3.641 -1.0321 -1.4932  2.3583
 3237TIP3   OH231201   5.332   0.179   1.577  0.1218 -0.0423  0.0760
 3237TIP3    H131202   5.268   0.246   1.553  0.1637 -0.6219 -1.8190
 3237TIP3    H231203   5.312   0.157   1.668 -1.6534  0.5835 -0.1352
 3238TIP3   OH231204   2.873   1.644  12.152 -0.1573 -0.1226 -0.1633
 3238TIP3    H131205   2.965   1.657  12.129  0.0134 -3.3001 -1.8453
 3238TIP3    H231206   2.873   1.642  12.248  1.0763  2.1314 -0.0412
 3239TIP3   OH231207   4.682   4.138  11.581  0.4473  0.0125  0.1822
 3239TIP3    H131208   4.623   4.186  11.522 -0.4465 -0.4552  0.6670
 3239TIP3    H231209   4.654   4.047  11.573  1.3727 -0.2753  0.1361
 3240TIP3   OH231210   1.630   5.182   0.135  0.5591 -0.4695  0.0564
 3240TIP3    H131211   1.563   5.142   0.190 -1.4666  0.1260 -1.8151
 3240TIP3    H231212   1.616   5.144   0.048  1.9574  0.4712 -0.6320
 3241TIP3   OH231213   4.331   4.709   6.307  0.3432  0.3561 -0.3566
 3241TIP3    H131214   4.292   4.701   6.220  0.6543 -0.1589 -0.4540
 3241TIP3    H231215   4.259   4.688   6.367  0.8065 -2.1711 -0.5706
 3242TIP3   OH231216   6.777   1.366  14.386 -0.7128  0.5198  0.3014
 3242TIP3    H131217   6.723   1.423  14.441 -0.2356  0.6661  0.6246
 3242TIP3    H231218   6.867   1.393  14.404 -0.5806  1.1845 -1.2322
 3243TIP3   OH231219   5.815   3.056   5.241 -0.2929  0.0078  0.5866
 3243TIP3    H131220   5.893   3.093   5.199 -0.8336 -0.4955 -0.9193
 3243TIP3    H231221   5.850   3.006   5.315  0.6874  0.9209  0.7745
 3244TIP3   OH231222   1.354   2.882   2.746 -0.4868  0.0190 -0.0042
 3244TIP3    H131223   1.324   2.930   2.669 -0.6970  1.9051  1.1917
 3244TIP3    H231224   1.304   2.800   2.744 -0.6518  0.1281 -1.7217
 3245TIP3   OH231225   1.722   5.307  12.164 -0.1698  0.1611 -0.2055
 3245TIP3    H131226   1.795   5.261  12.204 -0.4077  1.1173  1.4273
 3245TIP3    H231227   1.762   5.378  12.115  0.0568 -0.0052 -0.2597
 3246TIP3   OH231228   6.612   6.493   3.338 -0.2189 -0.8366  0.0807
 3246TIP3    H131229   6.575   6.419   3.386  0.3189 -2.6560 -2.1552
 3246TIP3    H231230   6.690   6.518   3.387 -0.7790 -1.2716  1.2269
 3247TIP3   OH231231   0.265   4.386   2.416 -0.6661  0.0186  0.5522
 3247TIP3    H131232   0.332   4.320   2.434  0.6227  0.5695 -1.8423
 3247TIP3    H231233   0.263   4.440   2.495  1.8688  0.0890  0.6446
 3248TIP3   OH231234   1.595   6.483   2.344  0.1578  0.6288 -0.6324
 3248TIP3    H131235   1.671   6.455   2.395 -0.9255  1.4728  1.5864
 3248TIP3    H231236   1.619   6.568   2.308 -0.2463  1.6835  1.4493
 3249TIP3   OH231237   6.751   6.819  15.978  1.0502  0.3913  0.4010
 3249TIP3    H131238   6.790   6.733  15.992 -1.3935 -0.8757  0.0898
 3249TIP3    H231239   6.775   6.843  15.889  1.8793  0.1297  0.5445
 3250TIP3   OH231240   4.766   3.955  17.114  0.0782  0.2923 -0.0400
 3250TIP3    H131241   4.767   4.002  17.031  2.4734  1.5237  0.5687
 3250TIP3    H231242   4.747   4.023  17.179  1.1504 -0.0400  0.6457
 3251TIP3   OH231243   6.468   6.700   1.611  0.1578  0.7425  0.5407
 3251TIP3    H131244   6.487   6.708   1.518  0.8696 -1.5864  0.4297
 3251TIP3    H231245   6.374   6.683   1.615  0.0093  1.4866  0.3048
 3252TIP3   OH231246   6.337   1.996   0.947  0.1522 -0.0527  0.0314
 3252TIP3    H131247   6.361   2.042   1.028 -0.1499  1.2907 -0.6248
 3252TIP3    H231248   6.350   2.060   0.878  1.3415 -1.4662 -1.1426
 3253TIP3   OH231249   6.732   2.468  12.340  0.1863 -0.4235 -0.2136
 3253TIP3    H131250   6.763   2.527  12.408 -1.9007 -1.3737  1.6779
 3253TIP3    H231251   6.679   2.524  12.283 -1.5398 -0.3220  1.3968
 3254TIP3   OH231252   6.122   2.635  12.884  0.1021 -0.3295 -0.6782
 3254TIP3    H131253   6.027   2.645  12.878  0.1184  0.7025  0.3263
 3254TIP3    H231254   6.156   2.676  12.805 -0.2451  0.1943 -0.5583
 3255TIP3   OH231255   5.449   4.868   0.463 -0.5272  0.0426  0.1595
 3255TIP3    H131256   5.450   4.800   0.395 -2.0314  1.1789 -1.0596
 3255TIP3    H231257   5.474   4.822   0.543  1.2734 -1.3647 -1.1108
 3256TIP3   OH231258   1.564   1.708  16.517 -0.7205  0.0093 -0.1443
 3256TIP3    H131259   1.640   1.755  16.553 -1.0114  1.0835 -0.8913
 3256TIP3    H231260   1.489   1.764  16.537 -1.3361 -1.0231  0.5445
 3257TIP3   OH231261   2.810   6.034   1.701  0.0853 -0.9773 -0.2514
 3257TIP3    H131262   2.892   6.067   1.663 -0.6966  2.6405  0.8061
 3257TIP3    H231263   2.837   5.959   1.754  2.5952 -0.4016 -0.5744
 3258TIP3   OH231264   0.615   4.743   3.558  0.8735  0.4318  0.5416
 3258TIP3    H131265   0.688   4.787   3.515  1.1166  2.2541  2.6368
 3258TIP3    H231266   0.539   4.797   3.537  0.3627 -0.6275 -0.4152
 3259TIP3   OH231267   1.750   4.133  10.710 -0.1544 -0.4495 -0.1600
 3259TIP3    H131268   1.708   4.129  10.624  1.0100  1.6936 -0.8932
 3259TIP3    H231269   1.688   4.182  10.764  0.8859  1.9517 -1.0078
 3260TIP3   OH231270   6.252   6.640   3.578 -0.6998  0.2264 -0.2078
 3260TIP3    H131271   6.273   6.733   3.585  0.8716 -0.2065  1.5883
 3260TIP3    H231272   6.276   6.617   3.489 -1.9798  1.7136 -0.9823
 3261TIP3   OH231273   0.265   2.727  15.562  0.5876 -0.5779  0.5332
 3261TIP3    H131274   0.171   2.745  15.566  0.2398 -1.6781 -1.3675
 3261TIP3    H231275   0.307   2.807  15.593 -0.9598  0.4238  0.1189
 3262TIP3   OH231276   0.243   4.350   0.136  0.5065  0.5465  0.0755
 3262TIP3    H131277   0.247   4.255   0.146 -1.2485  0.0593 -2.6590
 3262TIP3    H231278   0.294   4.385   0.209  1.1036 -2.4724  1.2232
 3263TIP3   OH231279   1.512   5.883  11.445  0.1620 -0.1112  0.0984
 3263TIP3    H131280   1.512   5.903  11.352  0.7220  1.3248  0.3803
 3263TIP3    H231281   1.563   5.954  11.485 -0.9992 -0.0650  1.6084
 3264TIP3   OH231282   5.172   2.487  14.224  0.1770 -0.4857  0.4789
 3264TIP3    H131283   5.164   2.415  14.286  1.5890 -0.8449  0.2872
 3264TIP3    H231284   5.123   2.460  14.147  0.8596 -1.3428  0.3355
 3265TIP3   OH231285   1.261   4.729  16.921 -0.0817 -0.2954 -0.1495
 3265TIP3    H131286   1.285   4.681  16.842  1.2521 -0.6852  0.4781
 3265TIP3    H231287   1.174   4.764  16.902  0.7850  0.8341 -2.3429
 3266TIP3   OH231288   2.525   3.919  15.972 -0.4729  0.3225 -0.6615
 3266TIP3    H131289   2.441   3.942  16.011 -0.2191 -0.6765  0.5521
 3266TIP3    H231290   2.520   3.825  15.958  0.9479 -0.0215  0.8111
 3267TIP3   OH231291   6.425   4.085  15.442  0.4465 -0.5454 -0.1965
 3267TIP3    H131292   6.385   3.998  15.439  0.9793 -0.8479  0.9936
 3267TIP3    H231293   6.353   4.145  15.421  0.1556 -1.2765 -1.3930
 3268TIP3   OH231294   3.076   5.432  12.803 -0.5768 -0.0926 -0.1620
 3268TIP3    H131295   2.990   5.402  12.830 -1.3588 -0.4094 -2.7014
 3268TIP3    H231296   3.126   5.351  12.789 -0.4103  0.0318 -0.2917
 3269TIP3   OH231297   0.342   0.957  16.695  0.4066 -0.1051  0.0015
 3269TIP3    H131298   0.299   1.039  16.720 -0.2574 -0.2112 -0.7397
 3269TIP3    H231299   0.289   0.889  16.737 -0.3933 -0.2548 -1.1878
 3270TIP3   OH231300   0.611   2.310  14.534  0.2470  0.0976  0.7676
 3270TIP3    H131301   0.566   2.381  14.580  2.0626  0.1926  2.5174
 3270TIP3    H231302   0.576   2.315  14.445 -1.7687  1.3337  1.5322
 3271TIP3   OH231303   0.767   5.596   2.685  0.3139  0.0920  0.2680
 3271TIP3    H131304   0.676   5.611   2.660 -0.1122  2.7498  2.8712
 3271TIP3    H231305   0.765   5.514   2.735 -0.6431  0.1311  0.3084
 3272TIP3   OH231306   0.644   0.805   3.180 -0.7165  0.4640  0.4620
 3272TIP3    H131307   0.626   0.803   3.087 -0.7647  1.4560  0.4366
 3272TIP3    H231308   0.740   0.806   3.186 -0.7104  0.0979  0.4354
 3273TIP3   OH231309   1.444   2.630   5.913  0.0876  0.4122  0.0229
 3273TIP3    H131310   1.405   2.555   5.957 -1.1771  1.1644  0.2684
 3273TIP3    H231311   1.529   2.600   5.883 -0.1316 -0.9142  0.6691
 3274TIP3   OH231312   6.452   0.536  13.810  0.9643 -0.1077 -0.2966
 3274TIP3    H131313   6.432   0.449  13.776  0.5124 -0.1683  0.1086
 3274TIP3    H231314   6.423   0.534  13.901  1.5446  0.2640 -0.0959
 3275TIP3   OH231315   0.864   1.241   4.283  0.0581  0.2744  0.4360
 3275TIP3    H131316   0.944   1.233   4.336  0.4670 -0.5508 -0.2825
 3275TIP3    H231317   0.875   1.177   4.214 -0.6298  1.0982 -0.4572
 3276TIP3   OH231318   4.752   3.650   0.585 -0.4261  0.3426 -0.0717
 3276TIP3    H131319   4.742   3.740   0.557  1.4101  0.9423  1.0383
 3276TIP3    H231320   4.823   3.615   0.531 -1.3006 -0.5414 -0.6804
 3277TIP3   OH231321   5.939   4.227   6.084  0.4402  0.3887 -0.1612
 3277TIP3    H131322   6.005   4.162   6.107  0.0942  0.6079  1.6214
 3277TIP3    H231323   5.899   4.250   6.168 -0.9281  1.2975 -1.0308
 3278TIP3   OH231324   1.925   2.572   2.413  0.0595 -0.8674 -0.0453
 3278TIP3    H131325   1.830   2.564   2.413 -0.0561  0.2056 -1.9610
 3278TIP3    H231326   1.954   2.505   2.351  0.2688  1.0918 -2.1704
 3279TIP3   OH231327   4.020   4.915  15.458  0.2626  0.4833  0.0559
 3279TIP3    H131328   4.107   4.885  15.486  0.4918 -0.3877 -1.4851
 3279TIP3    H231329   3.959   4.865  15.512  0.6932 -0.0862  0.0234
 3280TIP3   OH231330   5.130   4.360   5.088  0.9071  0.1173  0.2342
 3280TIP3    H131331   5.106   4.309   5.166  1.8435 -0.7376 -0.0115
 3280TIP3    H231332   5.078   4.321   5.018  1.2606 -0.1753  0.1353
 3281TIP3   OH231333   1.330   4.066  16.795 -0.4163 -0.2665 -0.5335
 3281TIP3    H131334   1.404   4.086  16.853 -0.2770 -0.9335 -0.4773
 3281TIP3    H231335   1.297   3.982  16.826 -1.3046  0.1059 -0.4597
 3282TIP3   OH231336   2.419   6.128  12.351  0.0036  0.1667 -0.1833
 3282TIP3    H131337   2.333   6.145  12.314 -0.8971 -0.9669  1.3108
 3282TIP3    H231338   2.476   6.194  12.310 -1.7720  1.6715 -0.3255
 3283TIP3   OH231339   1.897   2.529   2.853 -0.2490 -0.2472 -0.6405
 3283TIP3    H131340   1.913   2.563   2.941  1.4660 -0.2247 -0.9452
 3283TIP3    H231341   1.806   2.497   2.857  0.1612 -1.3795  1.5046
 3284TIP3   OH231342   2.879   4.042  14.257  0.5167 -0.4458 -0.4997
 3284TIP3    H131343   2.958   4.011  14.212 -0.1229  1.1962 -2.9153
 3284TIP3    H231344   2.837   4.101  14.195 -0.9296  1.3152  1.9685
 3285TIP3   OH231345   1.151   1.415  12.911 -0.1097  1.1187 -0.0081
 3285TIP3    H131346   1.080   1.478  12.897  0.2581  1.8560  1.2403
 3285TIP3    H231347   1.106   1.336  12.943 -0.4894  1.0963 -0.5913
 3286TIP3   OH231348   4.253   3.938  12.482 -0.4747 -0.0151  0.1450
 3286TIP3    H131349   4.165   3.957  12.511 -0.4138  0.0537  0.2827
 3286TIP3    H231350   4.245   3.923  12.387 -0.5236  0.6776  0.0351
 3287TIP3   OH231351   1.100   2.711   4.265  0.2393 -0.0956  0.0622
 3287TIP3    H131352   1.119   2.680   4.177 -0.3242  3.6910 -1.5831
 3287TIP3    H231353   1.186   2.727   4.304  0.5858  2.0972 -1.4461
 3288TIP3   OH231354   4.042   3.563  15.346 -0.0573 -0.5591 -0.3076
 3288TIP3    H131355   4.028   3.600  15.433 -0.3792 -0.0180 -0.5859
 3288TIP3    H231356   3.956   3.567  15.304  0.1410 -0.6286 -0.7241
 3289TIP3   OH231357   5.117   2.260  12.664  0.3257  0.2391  0.0727
 3289TIP3    H131358   5.069   2.323  12.717  0.4078 -0.5795  1.1437
 3289TIP3    H231359   5.208   2.291  12.665  0.4424 -0.1054  0.9421
 3290TIP3   OH231360   3.351   1.134   2.369 -0.7109  0.0692  0.1549
 3290TIP3    H131361   3.412   1.194   2.412 -0.0395  0.8300 -1.7598
 3290TIP3    H231362   3.397   1.050   2.369 -0.6809  0.0813  0.8152
 3291TIP3   OH231363   6.126   2.800  16.690 -0.0185  0.4371  0.4579
 3291TIP3    H131364   6.186   2.751  16.748 -0.5202  0.3763  0.9354
 3291TIP3    H231365   6.182   2.865  16.648  0.7464 -0.8202 -0.5205
 3292TIP3   OH231366   4.736   6.370  15.436 -0.1765 -0.4939 -0.3353
 3292TIP3    H131367   4.764   6.334  15.520 -0.7482 -0.7659 -0.2571
 3292TIP3    H231368   4.712   6.293  15.384  0.9798 -0.3887 -1.0541
 3293TIP3   OH231369   1.804   3.690   1.534 -0.0076  0.0341  0.6426
 3293TIP3    H131370   1.770   3.709   1.447  0.1545  0.9355  0.7643
 3293TIP3    H231371   1.887   3.739   1.539 -0.8783  1.4806  1.9226
 3294TIP3   OH231372   2.891   2.813   2.966 -0.2511 -0.0470  0.0043
 3294TIP3    H131373   2.930   2.761   3.036 -1.7478  0.9536  1.6736
 3294TIP3    H231374   2.831   2.753   2.922 -1.4261  0.0226  1.4493
 3295TIP3   OH231375   3.632   5.719  10.808 -0.5235  0.4341  0.3273
 3295TIP3    H131376   3.583   5.801  10.801  1.1304  1.4780  0.3812
 3295TIP3    H231377   3.714   5.736  10.761 -0.0448 -1.1033  0.5540
 3296TIP3   OH231378   1.431   0.318   0.702 -0.5105  0.1911  0.0480
 3296TIP3    H131379   1.453   0.258   0.773  1.9021 -0.1222 -0.8537
 3296TIP3    H231380   1.406   0.399   0.746 -1.5831 -0.7572  1.2588
 3297TIP3   OH231381   4.682   0.264  16.203  0.3870  0.3933  0.2231
 3297TIP3    H131382   4.772   0.258  16.171  0.3462 -1.0367  0.3022
 3297TIP3    H231383   4.631   0.288  16.126  0.5273 -1.2853 -0.4376
 3298TIP3   OH231384   2.071   3.835  12.655 -0.0379 -0.0488 -0.0558
 3298TIP3    H131385   2.110   3.779  12.588  0.1931  0.2275 -0.1600
 3298TIP3    H231386   2.134   3.834  12.727  1.3497  2.1976 -1.1035
 3299TIP3   OH231387   3.089   4.207  16.350 -0.4616  0.2673 -0.4795
 3299TIP3    H131388   3.126   4.153  16.281  0.7181  0.8860 -0.3571
 3299TIP3    H231389   3.023   4.261  16.306  0.5783  0.9608 -1.2209
 3300TIP3   OH231390   4.423   4.967  13.395  0.1469  0.1591 -0.3694
 3300TIP3    H131391   4.338   4.923  13.404  0.2114 -0.2279 -1.4164
 3300TIP3    H231392   4.407   5.037  13.332  0.2196  1.1896  0.7432
 3301TIP3   OH231393   1.722   2.127  14.658  0.4174 -0.2841 -0.1713
 3301TIP3    H131394   1.667   2.057  14.620 -0.5926 -0.5591  1.6951
 3301TIP3    H231395   1.774   2.159  14.584 -0.1363 -2.0326 -1.3838
 3302TIP3   OH231396   0.875   3.282   0.062  0.3256  0.0787  0.0911
 3302TIP3    H131397   0.881   3.187   0.068 -1.8245 -0.2678 -1.8360
 3302TIP3    H231398   0.960   3.309   0.026  0.5412 -1.2346 -0.4371
 3303TIP3   OH231399   0.184   5.843  16.891  0.0480  0.6563  0.0167
 3303TIP3    H131400   0.102   5.843  16.939  0.1050 -0.0586  0.1213
 3303TIP3    H231401   0.170   5.904  16.818  0.1554  2.2000  1.2435
 3304TIP3   OH231402   6.292   1.449   0.684  0.0927 -0.4511  0.0282
 3304TIP3    H131403   6.250   1.497   0.612  0.6302 -0.7966 -0.5172
 3304TIP3    H231404   6.332   1.373   0.642 -0.9042 -1.4981  0.9140
 3305TIP3   OH231405   2.250   2.127   1.810  0.3316 -0.0098  0.0391
 3305TIP3    H131406   2.305   2.060   1.850 -0.5337  0.0960  1.5042
 3305TIP3    H231407   2.310   2.182   1.761  1.4615 -0.2293  1.1268
 3306TIP3   OH231408   2.010   6.450  10.967  0.0998 -0.0660  0.4777
 3306TIP3    H131409   1.972   6.395  10.899 -2.5304 -0.0981  1.8427
 3306TIP3    H231410   2.034   6.390  11.037 -1.2200  0.3013  1.2852
 3307TIP3   OH231411   0.704   4.365   3.744 -0.1071  0.0790 -0.2022
 3307TIP3    H131412   0.677   4.299   3.807  0.4380  0.8708  0.8844
 3307TIP3    H231413   0.793   4.388   3.769 -0.4407  1.5622 -0.2604
 3308TIP3   OH231414   5.747   0.286   3.695 -0.1728  0.0651 -0.1527
 3308TIP3    H131415   5.697   0.363   3.669  0.0348 -0.5515 -2.7029
 3308TIP3    H231416   5.694   0.212   3.667  0.5433 -0.6701  0.3739
 3309TIP3   OH231417   1.016   1.821  13.092 -0.1945  0.4840  0.1690
 3309TIP3    H131418   1.059   1.882  13.032 -1.4303  3.1691  1.7964
 3309TIP3    H231419   1.056   1.838  13.177  0.2524 -1.9241  0.5044
 3310TIP3   OH231420   1.062   5.860  12.020  0.0158 -0.1280  0.5122
 3310TIP3    H131421   1.101   5.906  12.094  0.3004 -0.4171  0.5435
 3310TIP3    H231422   1.041   5.773  12.054  2.6507 -1.2336 -0.4379
 3311TIP3   OH231423   6.799   6.038   1.568  0.4954 -0.1126 -0.3555
 3311TIP3    H131424   6.787   6.126   1.602  2.0971  0.3619 -0.9353
 3311TIP3    H231425   6.871   6.002   1.620  0.2138 -0.8869 -0.4886
 3312TIP3   OH231426   1.600   1.304  11.086 -0.3839  0.3484 -0.1879
 3312TIP3    H131427   1.548   1.315  11.165  0.8372  0.6739  0.6060
 3312TIP3    H231428   1.592   1.211  11.064 -0.8190  0.2793  0.2518
 3313TIP3   OH231429   2.964   1.205   3.325  0.8326  0.0442 -0.2113
 3313TIP3    H131430   2.881   1.158   3.336  0.9526  0.2028  1.7622
 3313TIP3    H231431   3.024   1.138   3.292  0.3381 -0.5133 -0.0205
 3314TIP3   OH231432   0.963   1.410  14.520  0.0458 -0.1222 -0.1558
 3314TIP3    H131433   1.027   1.480  14.532  1.1944 -1.3192  1.1342
 3314TIP3    H231434   0.974   1.382  14.429  1.2161 -0.1464 -0.0214
 3315TIP3   OH231435   5.204   6.703   0.394 -0.6453  0.6949  0.2425
 3315TIP3    H131436   5.282   6.653   0.371  0.2723  0.9747  2.4466
 3315TIP3    H231437   5.235   6.765   0.461 -2.1504  2.8719 -0.9602
 3316TIP3   OH231438   5.430   6.748   2.125 -0.4595  0.4577  0.9538
 3316TIP3    H131439   5.484   6.787   2.194  1.7856  0.3119 -0.5973
 3316TIP3    H231440   5.394   6.822   2.077  0.5917  0.6128  0.3819
 3317TIP3   OH231441   1.211   3.760   4.122  0.4322  0.3367  0.2025
 3317TIP3    H131442   1.199   3.698   4.050 -0.5477 -1.4831  1.8498
 3317TIP3    H231443   1.294   3.735   4.161 -0.1873 -0.2813  1.1570
 3318TIP3   OH231444   1.710   5.771   5.231  0.1025  0.3870  0.4778
 3318TIP3    H131445   1.796   5.808   5.212  0.0798 -0.0064 -0.4153
 3318TIP3    H231446   1.727   5.704   5.297  0.7756 -1.0336 -1.0892
 3319TIP3   OH231447   3.233   6.808   5.117 -0.1575  0.0731  0.0587
 3319TIP3    H131448   3.316   6.798   5.162  0.3171  1.1991 -0.5268
 3319TIP3    H231449   3.225   6.730   5.062  0.8521  0.2888 -0.4089
 3320TIP3   OH231450   2.796   5.665   2.808  0.3075  0.1717  0.1856
 3320TIP3    H131451   2.855   5.681   2.734  1.9280 -0.9608  1.1502
 3320TIP3    H231452   2.820   5.731   2.872 -0.0974  0.2627  0.2428
 3321TIP3   OH231453   1.224   1.533  13.170  0.6555  0.0228  0.1176
 3321TIP3    H131454   1.296   1.471  13.180  0.8827 -0.2782 -2.6515
 3321TIP3    H231455   1.177   1.503  13.093 -1.3928  1.2595  0.8047
 3322TIP3   OH231456   3.009   5.552  11.348  0.6783 -0.2016 -0.3510
 3322TIP3    H131457   2.978   5.467  11.317 -0.2888  0.5886 -1.6247
 3322TIP3    H231458   3.013   5.606  11.269 -0.2253  1.3841  0.6572
 3323TIP3   OH231459   6.712   5.387   0.025 -0.2438 -0.0937 -0.1117
 3323TIP3    H131460   6.760   5.440  -0.039  0.0002  0.4204  0.4777
 3323TIP3    H231461   6.781   5.345   0.077 -0.3655  1.4194  1.3797
 3324TIP3   OH231462   0.964   3.591  13.691  0.3318 -0.0225  0.1894
 3324TIP3    H131463   0.906   3.518  13.714 -1.7037  0.8311 -1.8393
 3324TIP3    H231464   1.001   3.566  13.607  0.4915  0.7980  0.0134
 3325TIP3   OH231465   0.133   0.131   4.813  0.2126 -0.0965  0.7564
 3325TIP3    H131466   0.213   0.081   4.796  0.1748  0.3474 -0.9264
 3325TIP3    H231467   0.063   0.066   4.810  0.2024 -0.0309 -1.0233
 3326TIP3   OH231468   2.556   6.013   2.884 -0.2762  0.2725 -0.0447
 3326TIP3    H131469   2.586   6.090   2.932 -0.2976  0.2920 -0.0619
 3326TIP3    H231470   2.590   5.939   2.933 -0.1502  0.2947 -0.0972
 3327TIP3   OH231471   4.124   1.782  13.579  0.2067 -0.4221  0.2025
 3327TIP3    H131472   4.123   1.687  13.563 -0.8238 -0.3502 -0.2330
 3327TIP3    H231473   4.217   1.803  13.593  0.5635 -1.3414 -0.6537
 3328TIP3   OH231474   0.327   2.705   2.229  0.0556 -0.2077  0.1913
 3328TIP3    H131475   0.321   2.649   2.307  1.2131 -0.1047  0.3672
 3328TIP3    H231476   0.294   2.790   2.259 -1.4713 -0.7003 -0.0103
 3329TIP3   OH231477   3.116   4.470  12.136  0.2550 -0.1407 -0.5188
 3329TIP3    H131478   3.030   4.513  12.137  1.0067  1.4299 -0.5507
 3329TIP3    H231479   3.110   4.406  12.065 -0.9757 -0.2633 -0.3270
 3330TIP3   OH231480   6.202   3.413  11.344  0.1539  0.0512  0.8081
 3330TIP3    H131481   6.236   3.469  11.413  0.2189  1.0711 -0.0384
 3330TIP3    H231482   6.108   3.431  11.341  0.2023  0.2641  0.4147
 3331TIP3   OH231483   6.136   4.489  12.222 -0.5352 -0.0403 -0.2083
 3331TIP3    H131484   6.070   4.461  12.286 -0.4835 -1.0930 -0.5918
 3331TIP3    H231485   6.220   4.468  12.263 -0.4354  0.9011  0.0978
 3332TIP3   OH231486   6.377   4.477   6.131  0.4499 -0.1781 -0.7473
 3332TIP3    H131487   6.437   4.542   6.167  0.3675  0.4409 -1.6940
 3332TIP3    H231488   6.318   4.456   6.204  1.3191 -0.2200 -0.0326
 3333TIP3   OH231489   0.735   2.953  15.499 -0.1226  0.3468 -0.0446
 3333TIP3    H131490   0.716   2.974  15.408 -1.5885 -0.2131  0.1002
 3333TIP3    H231491   0.696   3.025  15.549  0.8135  0.7347  0.1446
 3334TIP3   OH231492   3.816   6.054  13.503  0.0725  0.1770 -0.6345
 3334TIP3    H131493   3.754   6.099  13.445  1.0484  1.5596 -0.6615
 3334TIP3    H231494   3.876   6.123  13.531  2.1440 -1.2566 -1.3238
 3335TIP3   OH231495   2.360   3.408   3.892  0.5332  0.3862  0.9609
 3335TIP3    H131496   2.300   3.340   3.860 -0.5490  2.1121 -0.8814
 3335TIP3    H231497   2.430   3.411   3.826  2.0616 -0.7324  2.4387
 3336TIP3   OH231498   3.530   2.595  11.741 -0.2413 -0.1912 -0.0603
 3336TIP3    H131499   3.620   2.592  11.711 -0.1648  2.3735 -0.3467
 3336TIP3    H231500   3.535   2.623  11.832 -0.7431  1.4819 -0.5105
 3337TIP3   OH231501   2.739   2.837  13.816 -0.8673 -0.2949  0.3906
 3337TIP3    H131502   2.743   2.855  13.722  2.0446 -0.2957  0.4226
 3337TIP3    H231503   2.798   2.902  13.855 -0.5108 -1.5102  1.9784
 3338TIP3   OH231504   3.001   1.630   5.081 -0.0660  0.3973  0.1140
 3338TIP3    H131505   2.979   1.604   5.171 -0.6687  0.2594 -0.0676
 3338TIP3    H231506   2.931   1.690   5.056 -0.1324  0.0980 -0.4181
 3339TIP3   OH231507   3.437   1.330   0.680 -0.1645 -0.1314  0.1909
 3339TIP3    H131508   3.432   1.237   0.657  0.5701  0.1188 -1.0701
 3339TIP3    H231509   3.361   1.345   0.736 -1.4839 -1.0477 -1.2669
 3340TIP3   OH231510   2.736   5.833   5.382 -0.1161  0.2806 -0.1905
 3340TIP3    H131511   2.755   5.915   5.336  0.9064  0.3840  0.3828
 3340TIP3    H231512   2.641   5.834   5.393 -0.2435  0.8105 -1.2478
 3341TIP3   OH231513   1.183   6.669  15.062  0.3201 -0.0074 -0.0574
 3341TIP3    H131514   1.195   6.606  15.133  2.0912 -0.5476 -0.7828
 3341TIP3    H231515   1.231   6.747  15.091 -1.4513  0.8736  0.6192
 3342TIP3   OH231516   4.694   5.801  14.903  0.1265 -0.0827 -0.2941
 3342TIP3    H131517   4.610   5.825  14.942  0.3184  0.4046 -0.1687
 3342TIP3    H231518   4.720   5.877  14.852  0.6940 -0.0576  0.0179
 3343TIP3   OH231519   2.485   0.229   4.086  0.1264  0.0695 -0.5974
 3343TIP3    H131520   2.499   0.165   4.017  1.1643  1.8635 -2.1258
 3343TIP3    H231521   2.530   0.192   4.163 -3.0366 -3.0901 -0.0184
 3344TIP3   OH231522   3.361   3.840   4.472 -0.6801 -0.2688 -0.1727
 3344TIP3    H131523   3.403   3.919   4.439 -1.6072  1.2706  2.0976
 3344TIP3    H231524   3.428   3.797   4.525 -0.8413  0.2575  0.4747
 3345TIP3   OH231525   0.449   6.212  11.363 -0.0302 -0.6916 -0.4613
 3345TIP3    H131526   0.489   6.129  11.390  0.4995  0.2090  1.7679
 3345TIP3    H231527   0.356   6.199  11.379  0.3450  0.3438  4.0185
 3346TIP3   OH231528   2.643   3.294  11.130 -0.1619 -0.0868 -0.0407
 3346TIP3    H131529   2.660   3.251  11.047 -1.5211  1.2527 -1.0515
 3346TIP3    H231530   2.692   3.377  11.125 -1.0083  0.4338  0.0732
 3347TIP3   OH231531   6.304   5.842  16.873 -0.0379  0.3377  0.1506
 3347TIP3    H131532   6.322   5.881  16.788  1.5965 -0.0668  0.2738
 3347TIP3    H231533   6.352   5.897  16.935 -1.8781  1.1171  0.9250
 3348TIP3   OH231534   5.603   5.451   5.967  0.4364 -0.2044  0.1831
 3348TIP3    H131535   5.579   5.473   6.057  1.8879 -0.3317  0.6276
 3348TIP3    H231536   5.550   5.374   5.946  2.2264 -2.1017  2.0546
 3349TIP3   OH231537   5.263   5.167   6.156 -0.3266 -0.7505  0.4981
 3349TIP3    H131538   5.264   5.080   6.197 -0.4945 -0.1747  1.7745
 3349TIP3    H231539   5.254   5.228   6.229 -0.0643  0.3608 -0.3659
 3350TIP3   OH231540   2.213   1.423   1.398 -0.2977  0.0894 -0.1332
 3350TIP3    H131541   2.118   1.426   1.388 -0.7011 -0.4757  2.6828
 3350TIP3    H231542   2.232   1.334   1.428  1.5865 -0.8701 -3.6917
 3351TIP3   OH231543   5.865   0.372   0.441 -0.0881  0.4811  0.1553
 3351TIP3    H131544   5.855   0.301   0.377 -0.8927 -0.4400  1.2698
 3351TIP3    H231545   5.839   0.333   0.525 -0.3590  2.0420  0.8283
 3352TIP3   OH231546   2.177   3.974  14.448  0.2653 -0.4414 -0.1217
 3352TIP3    H131547   2.251   4.019  14.409 -0.6271  0.3299 -0.9710
 3352TIP3    H231548   2.183   3.884  14.415  0.0945 -0.0556 -1.2435
 3353TIP3   OH231549   1.084   6.310  12.424  0.5072 -0.1751  0.3050
 3353TIP3    H131550   1.141   6.381  12.394 -0.6258  0.2475 -0.9141
 3353TIP3    H231551   1.067   6.331  12.516  0.4791  0.9361  0.0587
 3354TIP3   OH231552   2.360   5.723   3.090 -0.1472 -0.6123  0.1628
 3354TIP3    H131553   2.328   5.724   3.000 -1.7724 -0.5769  0.7162
 3354TIP3    H231554   2.290   5.682   3.141  0.7706 -0.7135  1.4111
 3355TIP3   OH231555   6.791   3.284   2.996 -0.6188 -0.1325  0.4032
 3355TIP3    H131556   6.783   3.242   3.082  0.6447 -0.1570  0.5278
 3355TIP3    H231557   6.766   3.217   2.934  1.2189 -1.0896  0.6129
 3356TIP3   OH231558   3.007   3.209   4.696  0.1685 -0.0821  0.3489
 3356TIP3    H131559   2.997   3.147   4.768 -1.6101  0.4916  0.6363
 3356TIP3    H231560   2.977   3.293   4.731  2.0978  0.9069 -0.1679
 3357TIP3   OH231561   3.003   4.303   2.293  0.1854 -0.3117 -0.0917
 3357TIP3    H131562   2.975   4.381   2.246 -1.7752  0.1435  1.6781
 3357TIP3    H231563   3.063   4.259   2.233 -1.7422  0.4589 -2.7854
 3358TIP3   OH231564   6.278   4.433   5.354  0.0761  0.6006  0.5738
 3358TIP3    H131565   6.239   4.507   5.402 -0.9432  0.2134  0.3710
 3358TIP3    H231566   6.311   4.473   5.273  1.9324  1.2811  1.6211
 3359TIP3   OH231567   5.090   2.536  14.636 -1.0757  0.6350  0.4023
 3359TIP3    H131568   5.104   2.534  14.731 -0.9337  0.9257  0.3893
 3359TIP3    H231569   5.171   2.572  14.600 -0.2639 -1.4527 -0.0224
 3360TIP3   OH231570   5.797   4.443  11.188  0.8192 -0.3542  0.0935
 3360TIP3    H131571   5.709   4.461  11.221  0.3691 -3.1127  0.6501
 3360TIP3    H231572   5.848   4.419  11.266  2.0624  1.0685 -0.2391
 3361TIP3   OH231573   3.721   5.535   4.804  0.4614  0.0980 -0.2633
 3361TIP3    H131574   3.661   5.498   4.870 -0.2306  1.1760 -0.2568
 3361TIP3    H231575   3.803   5.488   4.818 -0.8495 -2.8166 -1.5309
 3362TIP3   OH231576   6.439   4.351   1.320 -0.6584  0.1068  0.5663
 3362TIP3    H131577   6.522   4.315   1.351 -0.1615  1.4358  0.8188
 3362TIP3    H231578   6.392   4.375   1.400 -0.1444  1.8344  0.3869
 3363TIP3   OH231579   1.281   0.581  15.936 -0.2938  0.2152  0.3970
 3363TIP3    H131580   1.311   0.668  15.911  2.7229 -0.8932 -0.3011
 3363TIP3    H231581   1.198   0.570  15.890  0.0135  2.1330 -0.7346
 3364TIP3   OH231582   1.100   4.656   5.784  0.2021 -0.3266 -0.1868
 3364TIP3    H131583   1.193   4.648   5.806  0.1110  0.9176  0.7754
 3364TIP3    H231584   1.097   4.650   5.689  1.4639  1.0992 -0.3430
 3365TIP3   OH231585   5.953   1.086  15.643  0.3046 -0.3899  0.0006
 3365TIP3    H131586   5.947   1.162  15.701 -0.2216 -1.1276  0.9343
 3365TIP3    H231587   6.014   1.027  15.687  0.1154 -0.8420 -0.3364
 3366TIP3   OH231588   4.733   6.775   0.554 -0.7904  0.3427  0.0046
 3366TIP3    H131589   4.817   6.789   0.597 -2.4780  1.2419  3.4606
 3366TIP3    H231590   4.728   6.842   0.487  0.8938  0.8155  0.3129
 3367TIP3   OH231591   6.522   5.208  14.623  0.2267 -0.0510  0.0990
 3367TIP3    H131592   6.585   5.281  14.627  0.7549 -0.5160  0.3439
 3367TIP3    H231593   6.570   5.137  14.580 -0.8649  0.3081 -1.8308
 3368TIP3   OH231594   6.374   3.149  12.510 -0.3403  0.3626 -0.5055
 3368TIP3    H131595   6.353   3.074  12.566 -0.5074 -2.0697 -3.5644
 3368TIP3    H231596   6.403   3.217  12.571  2.4503 -3.0041  2.3694
 3369TIP3   OH231597   4.780   2.179  13.464 -0.3591  0.2072 -0.4066
 3369TIP3    H131598   4.841   2.142  13.528 -0.7364 -0.1711 -0.2628
 3369TIP3    H231599   4.707   2.118  13.462 -0.1340 -0.0499 -1.5753
 3370TIP3   OH231600   3.177   4.287  14.592  0.0927 -0.6702  0.2374
 3370TIP3    H131601   3.162   4.281  14.686  0.0280  0.2244  0.2935
 3370TIP3    H231602   3.101   4.333  14.558  1.4136  1.6103  0.1730
 3371TIP3   OH231603   2.311   3.649  16.748 -0.2263 -0.0825  0.4416
 3371TIP3    H131604   2.349   3.679  16.830  1.6044 -0.5327 -0.1861
 3371TIP3    H231605   2.219   3.675  16.753  0.7835  4.1350  0.6371
 3372TIP3   OH231606   1.367   6.827   2.342  0.2047 -0.1051 -0.5283
 3372TIP3    H131607   1.393   6.894   2.279  0.3607  2.4711  2.0515
 3372TIP3    H231608   1.275   6.846   2.360 -0.0880 -1.3861 -0.6070
 3373TIP3   OH231609   6.379   2.108  12.503  0.0884 -0.3521 -0.1228
 3373TIP3    H131610   6.437   2.096  12.579  0.3336 -1.6769 -0.4888
 3373TIP3    H231611   6.436   2.144  12.435  0.1997 -0.4824 -0.1003
 3374TIP3   OH231612   6.819   6.195   6.694 -0.5995  0.5806 -0.2374
 3374TIP3    H131613   6.867   6.251   6.633 -0.5828 -0.3635 -1.1158
 3374TIP3    H231614   6.769   6.136   6.638  0.3939 -1.1471  0.6262
 3375TIP3   OH231615   5.299   0.744   1.884 -0.0049  0.2333  0.2405
 3375TIP3    H131616   5.250   0.727   1.964  1.9320  0.1742  1.4781
 3375TIP3    H231617   5.372   0.799   1.912 -0.4700  2.0773 -1.8865
 3376TIP3   OH231618   2.825   1.293   2.480 -0.6031  0.0774 -0.5499
 3376TIP3    H131619   2.740   1.284   2.523 -0.4865 -2.1018 -0.6891
 3376TIP3    H231620   2.889   1.269   2.547 -0.1220  0.8642 -0.7060
 3377TIP3   OH231621   5.222   5.507  16.810 -0.1230  0.1088 -0.1597
 3377TIP3    H131622   5.171   5.432  16.839  0.1397 -0.2385 -0.5870
 3377TIP3    H231623   5.159   5.563  16.765  0.0015 -0.6840 -1.3641
 3378TIP3   OH231624   1.194   3.824  12.971 -0.4102  0.4754  0.4101
 3378TIP3    H131625   1.110   3.781  12.955 -0.7677  1.3048 -0.0325
 3378TIP3    H231626   1.173   3.918  12.969  1.0607  0.9152 -3.4547
 3379TIP3   OH231627   2.153   0.277   4.909  0.1555 -0.5037  0.3932
 3379TIP3    H131628   2.083   0.228   4.867 -0.4947  1.2712 -0.7325
 3379TIP3    H231629   2.113   0.361   4.932  1.8943  0.6239 -0.4265
 3380TIP3   OH231630   5.700   3.637   2.903 -0.3111 -0.1186 -0.4399
 3380TIP3    H131631   5.786   3.603   2.929 -0.2866  0.1188 -0.2043
 3380TIP3    H231632   5.650   3.640   2.984 -0.9458 -1.3760 -0.7618
 3381TIP3   OH231633   3.235   1.270  15.981 -0.0622 -0.3105  0.0174
 3381TIP3    H131634   3.154   1.220  15.989 -0.5270  0.1496 -1.4892
 3381TIP3    H231635   3.304   1.203  15.977 -0.4040 -0.7206  0.8104
 3382TIP3   OH231636   1.935   1.349  11.440  0.1500 -0.7077 -1.0633
 3382TIP3    H131637   1.856   1.380  11.396 -0.4202 -0.5895  0.0049
 3382TIP3    H231638   1.928   1.253  11.437 -0.3310 -0.6990 -0.4827
 3383TIP3   OH231639   2.556   0.598  11.730  0.0656  0.0634 -0.0581
 3383TIP3    H131640   2.644   0.630  11.712  0.3926  0.1907  1.5772
 3383TIP3    H231641   2.568   0.531  11.797 -1.1775  1.0765  1.2319
 3384TIP3   OH231642   0.382   0.373  12.514  0.1631 -0.4540  0.5023
 3384TIP3    H131643   0.435   0.327  12.579 -1.5667  1.2574  3.3855
 3384TIP3    H231644   0.405   0.465  12.524 -1.3905  0.0410 -0.0469
 3385TIP3   OH231645   4.452   0.412   3.276  0.7369  0.1157 -0.2260
 3385TIP3    H131646   4.483   0.492   3.319 -0.8122 -0.9818  3.3136
 3385TIP3    H231647   4.508   0.342   3.312 -0.4090 -0.8323 -0.2111
 3386TIP3   OH231648   0.079   5.973  13.861 -0.3382 -0.2214 -0.8027
 3386TIP3    H131649   0.064   6.067  13.850 -1.6011 -0.3369 -0.2456
 3386TIP3    H231650   0.006   5.943  13.916  0.5778 -1.3542 -0.1518
 3387TIP3   OH231651   3.695   2.106   3.169 -0.2013 -0.1576 -0.0139
 3387TIP3    H131652   3.782   2.068   3.164 -0.0280  0.2301  0.0529
 3387TIP3    H231653   3.706   2.195   3.136 -1.0749 -0.9148 -2.6524
 3388TIP3   OH231654   1.281   5.207  14.212 -0.4199 -0.2217 -0.3012
 3388TIP3    H131655   1.267   5.150  14.288  0.2845 -0.3611 -0.2654
 3388TIP3    H231656   1.284   5.295  14.249 -1.1977 -0.1833 -0.3159
 3389TIP3   OH231657   2.000   6.372   6.016  0.3858 -0.2026 -0.3320
 3389TIP3    H131658   1.925   6.313   6.015 -0.5184  0.8621 -2.6596
 3389TIP3    H231659   1.965   6.455   6.048  0.3391  0.4928 -2.0639
 3390TIP3   OH231660   5.667   6.524  11.840  0.5576 -0.6123  0.4723
 3390TIP3    H131661   5.722   6.476  11.901  1.0466 -0.7618 -0.0686
 3390TIP3    H231662   5.577   6.507  11.868  0.7552 -1.2578  0.7134
 3391TIP3   OH231663   1.337   6.676   5.125  0.0845 -0.0638  0.4097
 3391TIP3    H131664   1.281   6.745   5.089 -1.1689 -1.2279  0.0872
 3391TIP3    H231665   1.393   6.650   5.052  0.4509  0.4654  0.4892
 3392TIP3   OH231666   5.766   3.417   0.005 -0.2820 -0.0190 -0.6863
 3392TIP3    H131667   5.757   3.482  -0.064 -0.8732  0.9943  0.3046
 3392TIP3    H231668   5.768   3.468   0.086  0.2517 -1.1796  0.0552
 3393TIP3   OH231669   2.121   4.254  14.772  0.1519 -0.6956 -0.0852
 3393TIP3    H131670   2.140   4.173  14.819  0.0859 -0.1229  0.9656
 3393TIP3    H231671   2.177   4.319  14.815 -0.2820 -0.0578 -0.4816
 3394TIP3   OH231672   4.758   4.413  16.749 -0.0899 -0.2420 -0.0687
 3394TIP3    H131673   4.818   4.411  16.675  0.4087  0.6900  0.2913
 3394TIP3    H231674   4.786   4.489  16.801 -0.5337 -0.7655  0.9798
 3395TIP3   OH231675   5.809   1.569  13.283 -0.8660 -0.2584 -0.3261
 3395TIP3    H131676   5.893   1.611  13.263  0.0695 -1.8170  0.1793
 3395TIP3    H231677   5.783   1.527  13.201 -0.2946 -1.1841 -0.0424
 3396TIP3   OH231678   5.591   5.322   3.246  0.1567 -0.0484 -0.4546
 3396TIP3    H131679   5.636   5.290   3.168  0.5360  0.5714 -0.4998
 3396TIP3    H231680   5.657   5.372   3.293 -1.0096  2.9277 -1.7072
 3397TIP3   OH231681   0.372   4.004  15.526 -0.6555  0.0080 -0.2678
 3397TIP3    H131682   0.327   4.019  15.609  0.0383 -2.6260  0.6818
 3397TIP3    H231683   0.432   4.077  15.518 -0.3791  0.0675  1.8305
 3398TIP3   OH231684   0.535   5.096   0.634 -0.6768  0.2662 -0.2045
 3398TIP3    H131685   0.505   5.187   0.625 -1.9853 -0.2376 -1.2184
 3398TIP3    H231686   0.521   5.076   0.726 -1.2436  0.8083 -0.1624
 3399TIP3   OH231687   1.030   6.217  16.288  0.1179  0.3213 -0.7631
 3399TIP3    H131688   1.043   6.123  16.289  0.0817  0.2416  2.3382
 3399TIP3    H231689   1.118   6.254  16.288  0.2393  0.1525  1.3226
 3400TIP3   OH231690   6.690   2.383   2.932  0.2095 -0.1996  0.3126
 3400TIP3    H131691   6.745   2.351   3.003 -0.3935 -0.4527  0.6697
 3400TIP3    H231692   6.746   2.444   2.884  0.5313  0.1910  1.1705
 3401TIP3   OH231693   1.824   1.431  10.814  0.1289  0.0459  0.4273
 3401TIP3    H131694   1.767   1.476  10.752 -0.1870 -0.2952  0.4676
 3401TIP3    H231695   1.805   1.471  10.899 -0.2758 -0.2756  0.4913
 3402TIP3   OH231696   1.106   0.590  16.265  0.0344  0.0484 -0.0127
 3402TIP3    H131697   1.122   0.498  16.246  1.6047  0.1420  0.7088
 3402TIP3    H231698   1.168   0.612  16.334  2.0820  2.4781 -2.3883
 3403TIP3   OH231699   1.061   2.918   2.821 -0.2474 -0.3535  0.2003
 3403TIP3    H131700   1.108   2.848   2.867  0.4486 -0.4385 -0.6121
 3403TIP3    H231701   1.050   2.884   2.732 -2.5172 -0.6524  0.5178
 3404TIP3   OH231702   6.521   4.958  13.757  0.2007  0.0635 -0.4586
 3404TIP3    H131703   6.576   5.035  13.752  0.9334 -0.5212 -1.6972
 3404TIP3    H231704   6.579   4.885  13.737 -0.1499 -1.0064  1.9788
 3405TIP3   OH231705   1.896   6.441   2.315  0.5689  0.7442 -0.2496
 3405TIP3    H131706   1.932   6.363   2.357  1.2509 -0.1208 -2.3346
 3405TIP3    H231707   1.970   6.501   2.310  0.3717  1.0279  0.1739
 3406TIP3   OH231708   2.161   2.015   1.553 -0.0223  0.2372  0.4145
 3406TIP3    H131709   2.242   2.044   1.511 -0.2454  0.8887  0.4286
 3406TIP3    H231710   2.143   2.081   1.619 -0.7026  0.2295  0.2431
 3407TIP3   OH231711   5.510   6.794   0.858 -0.4194 -0.4888  0.4614
 3407TIP3    H131712   5.465   6.879   0.853 -0.7133 -0.7283 -1.5862
 3407TIP3    H231713   5.472   6.742   0.787  0.6808 -1.9015  0.8623
 3408TIP3   OH231714   6.466   0.451  17.005 -0.7277  0.1251  0.1079
 3408TIP3    H131715   6.543   0.463  16.949 -0.1937  1.0611  0.9995
 3408TIP3    H231716   6.395   0.495  16.957 -0.8407 -1.1024 -0.9147
 3409TIP3   OH231717   1.722   3.731  10.884  0.0138 -0.2794 -0.6086
 3409TIP3    H131718   1.746   3.822  10.900  0.1623 -0.5163  0.6961
 3409TIP3    H231719   1.740   3.716  10.792 -0.4419  1.1353 -0.9519
 3410TIP3   OH231720   0.123   2.742  14.399 -0.1828  0.2225  0.2889
 3410TIP3    H131721   0.072   2.667  14.372 -2.3957  1.5607  0.5272
 3410TIP3    H231722   0.180   2.761  14.325 -2.1192  0.4213 -1.2188
 3411TIP3   OH231723   3.114   1.913  13.173 -0.2221  0.9010 -0.1408
 3411TIP3    H131724   3.186   1.890  13.113  1.7156 -0.5136  2.5022
 3411TIP3    H231725   3.128   2.005  13.193 -0.1092  1.0452 -0.8425
 3412TIP3   OH231726   5.727   1.475  17.101 -0.0305  0.7128  0.3434
 3412TIP3    H131727   5.799   1.413  17.086 -0.4760  0.6262 -1.8001
 3412TIP3    H231728   5.748   1.550  17.045 -0.7189  1.4801  1.0766
 3413TIP3   OH231729   4.895   0.379   5.121  0.4802  0.3334  0.1165
 3413TIP3    H131730   4.977   0.429   5.116 -0.4801  2.0149  0.2001
 3413TIP3    H231731   4.860   0.399   5.208 -0.3057  0.1158 -0.1399
 3414TIP3   OH231732   2.861   1.000  14.493  0.7198 -0.1232 -0.2567
 3414TIP3    H131733   2.799   0.962  14.431 -1.0168 -0.6679  1.6968
 3414TIP3    H231734   2.866   1.093  14.469  0.6056 -0.4390 -1.5623
 3415TIP3   OH231735   4.927   0.961   4.353 -0.1868  0.2523  0.0377
 3415TIP3    H131736   4.980   0.945   4.431  0.8345 -0.1593 -0.7019
 3415TIP3    H231737   4.874   1.037   4.374  0.9842  0.9203  0.6944
 3416TIP3   OH231738   0.209   2.005   1.809  0.3140 -0.9871  0.1390
 3416TIP3    H131739   0.298   2.009   1.775  1.1845 -0.3593  2.3402
 3416TIP3    H231740   0.157   2.054   1.745  1.8424  0.1765 -0.2715
 3417TIP3   OH231741   0.162   6.321   6.486  0.1205  0.4124  0.0565
 3417TIP3    H131742   0.241   6.287   6.528 -0.0354 -0.8389 -0.6185
 3417TIP3    H231743   0.175   6.416   6.485  2.3155  0.1727 -1.3932
 3418TIP3   OH231744   2.386   6.487  14.786  0.1325 -0.0859 -0.3430
 3418TIP3    H131745   2.349   6.409  14.745 -1.7262 -0.1197  1.2345
 3418TIP3    H231746   2.357   6.560  14.731 -0.8325 -0.2735 -0.0971
 3419TIP3   OH231747   2.759   6.140   1.294 -0.3404  0.4553  0.1676
 3419TIP3    H131748   2.828   6.083   1.328 -1.8829 -1.3405  0.4981
 3419TIP3    H231749   2.797   6.181   1.217  0.0701 -3.2296 -1.7998
 3420TIP3   OH231750   2.012   0.385   1.171  0.0816  0.3297 -0.2092
 3420TIP3    H131751   1.953   0.357   1.241  0.5612  0.1328  0.1245
 3420TIP3    H231752   1.991   0.477   1.157  0.7250  0.6740  0.9617
 3421TIP3   OH231753   2.928   4.340  15.685  0.1734 -0.0290  0.1708
 3421TIP3    H131754   2.840   4.347  15.646  0.6211  3.2260 -0.6292
 3421TIP3    H231755   2.921   4.270  15.749 -2.5375 -0.9912 -1.0131
 3422TIP3   OH231756   3.000   5.001  13.455 -0.6549  0.5382  0.4084
 3422TIP3    H131757   2.978   4.908  13.467  2.9712 -0.3910  1.0655
 3422TIP3    H231758   3.036   5.005  13.366  0.9788  0.8566  1.0529
 3423TIP3   OH231759   4.984   3.119   1.541 -0.0246  0.0822 -0.0694
 3423TIP3    H131760   4.973   3.035   1.497  1.9339  0.0818 -0.6939
 3423TIP3    H231761   5.057   3.160   1.495 -0.2863  1.6952  0.8724
 3424TIP3   OH231762   3.942   1.573   6.172 -0.1983  0.1707  0.2544
 3424TIP3    H131763   3.981   1.596   6.088 -0.1781 -0.5465  0.0560
 3424TIP3    H231764   3.916   1.656   6.211  0.2155  0.5422 -0.2558
 3425TIP3   OH231765   1.174   0.160  14.736  0.2158 -0.6594 -0.3603
 3425TIP3    H131766   1.184   0.066  14.720  0.8706 -0.1777 -3.1856
 3425TIP3    H231767   1.263   0.191  14.752  0.0946 -0.3728 -0.2309
 3426TIP3   OH231768   6.768   1.505   4.351  0.6405 -0.4526  0.1183
 3426TIP3    H131769   6.812   1.578   4.392 -1.3134  1.7050 -1.3465
 3426TIP3    H231770   6.769   1.526   4.257 -1.7286 -1.2169 -0.1525
 3427TIP3   OH231771   2.716   3.834   4.054  0.0367 -0.0256 -0.8457
 3427TIP3    H131772   2.679   3.922   4.063 -0.2987 -0.3689  2.0066
 3427TIP3    H231773   2.644   3.782   4.019  0.6516  0.9989 -3.9633
 3428TIP3   OH231774   1.064   1.563  11.551  0.2805  0.2969  0.3206
 3428TIP3    H131775   1.002   1.526  11.615  0.1655 -0.7298 -0.3672
 3428TIP3    H231776   1.104   1.638  11.597  0.8456 -0.9325  1.9258
 3429TIP3   OH231777   1.757   5.376  14.497 -0.4747  0.5664  0.2631
 3429TIP3    H131778   1.773   5.296  14.447  0.0567  1.0413 -0.3630
 3429TIP3    H231779   1.664   5.395  14.484 -0.8859 -0.5803  1.3989
 3430TIP3   OH231780   3.930   5.356  11.642 -0.6687 -0.0760  0.2812
 3430TIP3    H131781   3.838   5.382  11.647 -0.3069  1.1915  0.9093
 3430TIP3    H231782   3.965   5.408  11.570  0.2803  2.0646  2.1306
 3431TIP3   OH231783   0.206   2.713  12.686 -0.0999  0.0301 -0.1915
 3431TIP3    H131784   0.227   2.653  12.614 -2.2519  0.2480 -1.0653
 3431TIP3    H231785   0.150   2.661  12.744  0.4040  0.3226  0.5643
 3432TIP3   OH231786   0.583   2.619   2.262 -0.1541  0.0618  0.2669
 3432TIP3    H131787   0.514   2.686   2.259 -0.9317 -0.6855  0.9642
 3432TIP3    H231788   0.537   2.537   2.248  0.9629 -0.2648 -1.9586
 3433TIP3   OH231789   1.782   3.426   1.562  0.2131 -0.0052 -0.4276
 3433TIP3    H131790   1.765   3.519   1.579  0.0013 -0.2105  0.5569
 3433TIP3    H231791   1.828   3.425   1.478 -0.8057  0.9022 -1.0283
 3434TIP3   OH231792   6.750   4.618  11.102  0.4152 -0.0827 -0.3755
 3434TIP3    H131793   6.795   4.674  11.039  1.3467 -0.1892  0.1683
 3434TIP3    H231794   6.821   4.572  11.147 -0.0671  1.5733  2.2544
 3435TIP3   OH231795   3.635   1.176   5.413  1.0309  0.4936  0.2135
 3435TIP3    H131796   3.558   1.136   5.372  0.8706  0.6614  0.3493
 3435TIP3    H231797   3.694   1.103   5.429 -0.5332 -0.2503  3.3976
 3436TIP3   OH231798   2.568   3.151   0.506 -0.3112 -0.1081  0.1989
 3436TIP3    H131799   2.647   3.178   0.459  0.6307  0.7576  2.1706
 3436TIP3    H231800   2.589   3.164   0.598 -1.9633 -2.0865  0.9215
 3437TIP3   OH231801   6.835   3.957   4.556  0.0922 -0.4323  0.3838
 3437TIP3    H131802   6.820   4.008   4.636 -0.2897 -0.4404  0.3202
 3437TIP3    H231803   6.851   4.022   4.488 -0.0914 -0.4079  0.3639
 3438TIP3   OH231804   5.094   1.641  11.904  0.0150 -0.0065 -0.1360
 3438TIP3    H131805   5.031   1.600  11.844  1.6408  0.0744 -1.9798
 3438TIP3    H231806   5.084   1.735  11.890 -0.1812  0.0564  0.3766
 3439TIP3   OH231807   3.753   5.974  10.252 -0.2436  0.5074  0.3900
 3439TIP3    H131808   3.739   6.049  10.194 -1.4199 -1.1567 -1.6297
 3439TIP3    H231809   3.665   5.941  10.270  0.2478 -0.5086  1.0588
 3440TIP3   OH231810   0.229   3.276   5.093  0.5182  0.0923 -0.3186
 3440TIP3    H131811   0.288   3.277   5.168  0.7012 -1.5586 -0.3928
 3440TIP3    H231812   0.146   3.243   5.128 -0.0347  1.2886 -0.4507
 3441TIP3   OH231813   2.392   0.650   0.622 -0.1584  0.6568 -0.5487
 3441TIP3    H131814   2.358   0.561   0.611  0.5067  0.5944 -2.4391
 3441TIP3    H231815   2.334   0.705   0.569  1.5048  0.8049 -2.3140
 3442TIP3   OH231816   1.898   4.206   6.573 -0.2977 -0.8026  0.4999
 3442TIP3    H131817   1.933   4.134   6.521  1.2950  1.6525 -2.1911
 3442TIP3    H231818   1.938   4.195   6.659 -0.0644 -3.0554  0.1565
 3443TIP3   OH231819   6.078   4.980   0.815 -0.5085  0.0305 -0.0392
 3443TIP3    H131820   6.146   5.044   0.790 -0.2029 -0.0844  0.4842
 3443TIP3    H231821   6.116   4.895   0.792  0.4347 -0.2213  2.1290
 3444TIP3   OH231822   5.521   4.766  16.615  0.9463  0.0314 -0.7514
 3444TIP3    H131823   5.576   4.844  16.604  0.0183  0.7247 -0.5581
 3444TIP3    H231824   5.464   4.766  16.539 -0.4429  0.7021  0.2487
 3445TIP3   OH231825   0.698   4.029  13.963  0.0844 -0.3615 -0.0883
 3445TIP3    H131826   0.606   4.021  13.937 -0.3854  1.1360  0.9845
 3445TIP3    H231827   0.721   4.120  13.944  0.8958 -0.3078  1.0365
 3446TIP3   OH231828   3.346   3.844   2.032 -0.6408 -0.0232  0.5063
 3446TIP3    H131829   3.440   3.860   2.028 -0.5854 -0.4264  0.1025
 3446TIP3    H231830   3.336   3.751   2.012 -1.2509  0.4205 -1.5985
 3447TIP3   OH231831   5.529   4.915  10.831  0.8492  0.1998 -0.5366
 3447TIP3    H131832   5.535   4.831  10.877  0.7804  0.9364  0.8659
 3447TIP3    H231833   5.469   4.898  10.758 -2.4958 -0.0280  2.0339
 3448TIP3   OH231834   5.559   2.480   3.577  0.2499  0.1187 -0.0529
 3448TIP3    H131835   5.557   2.565   3.621  3.1362  0.2077  0.1058
 3448TIP3    H231836   5.580   2.417   3.647 -0.4008 -0.5450 -0.4328
 3449TIP3   OH231837   6.162   1.764  14.194 -0.4684  0.2725 -0.0365
 3449TIP3    H131838   6.216   1.688  14.171 -0.4999  0.5682 -1.1293
 3449TIP3    H231839   6.203   1.837  14.148 -2.2196  0.3746 -1.5098
 3450TIP3   OH231840   2.346   2.278  16.766  0.0029 -0.3974 -0.5315
 3450TIP3    H131841   2.255   2.304  16.748 -0.0534  0.5883  1.0463
 3450TIP3    H231842   2.390   2.285  16.681 -1.1381  0.1910 -1.0919
 3451TIP3   OH231843   4.623   0.107   0.338  0.9491 -0.6338  0.0221
 3451TIP3    H131844   4.611   0.105   0.243  2.0974  1.0932 -0.2121
 3451TIP3    H231845   4.535   0.106   0.374  0.2150  2.9380 -1.2631
 3452TIP3   OH231846   0.664   2.249  13.116 -0.9399 -0.4415  0.4285
 3452TIP3    H131847   0.757   2.232  13.129 -0.3123  0.8211 -1.8514
 3452TIP3    H231848   0.656   2.344  13.119 -2.1476 -0.5367  0.5915
 3453TIP3   OH231849   5.533   5.198  12.332 -0.2777  0.2721 -0.3986
 3453TIP3    H131850   5.460   5.143  12.303 -0.2739  0.5782 -0.9900
 3453TIP3    H231851   5.609   5.139  12.330 -0.0757  0.5553 -2.0523
 3454TIP3   OH231852   1.225   6.206   5.292 -0.1868  0.2461 -0.1058
 3454TIP3    H131853   1.277   6.197   5.372  1.4858  0.5499 -1.1216
 3454TIP3    H231854   1.278   6.261   5.234 -0.0569 -2.1613 -2.4713
 3455TIP3   OH231855   5.313   0.809   6.221 -0.0952 -0.0468 -0.0471
 3455TIP3    H131856   5.292   0.719   6.246 -1.5840  0.5553  1.0012
 3455TIP3    H231857   5.228   0.854   6.217  0.7003  1.6197  0.7171
 3456TIP3   OH231858   3.501   3.215  12.984 -0.1167 -0.3364 -0.4752
 3456TIP3    H131859   3.590   3.211  12.950 -0.4968 -1.7601 -1.3702
 3456TIP3    H231860   3.494   3.303  13.022  1.2417  0.2778 -1.5570
 3457TIP3   OH231861   5.333   3.704  14.351 -1.0986  0.0816  1.0247
 3457TIP3    H131862   5.416   3.656  14.341  0.6184  2.6412  1.8108
 3457TIP3    H231863   5.282   3.652  14.413  1.0665 -0.2615  2.6364
 3458TIP3   OH231864   3.089   3.796   4.311  0.1845 -0.2315 -0.5875
 3458TIP3    H131865   3.178   3.760   4.308 -0.1820 -1.2501  0.1481
 3458TIP3    H231866   3.083   3.851   4.234  1.3115 -0.5081 -0.8933
 3459TIP3   OH231867   2.387   5.056   2.189  0.7083  0.1583 -0.0574
 3459TIP3    H131868   2.386   5.107   2.269  1.1251  0.8959 -0.5080
 3459TIP3    H231869   2.477   5.064   2.156 -0.1632  2.5190 -2.2324
 3460TIP3   OH231870   1.794   5.690   2.582 -0.3143  0.1411 -0.3961
 3460TIP3    H131871   1.712   5.671   2.535  0.4281  0.1489 -1.7389
 3460TIP3    H231872   1.863   5.675   2.517  0.9443 -2.0587  1.3217
 3461TIP3   OH231873   1.236   1.020  13.932  0.2124  0.0161  0.3863
 3461TIP3    H131874   1.270   1.109  13.938 -0.9106  0.4560  0.4618
 3461TIP3    H231875   1.314   0.965  13.925  0.8941  1.0699 -0.6246
 3462TIP3   OH231876   0.763   0.238   3.474 -0.4988  0.1464 -0.5247
 3462TIP3    H131877   0.748   0.279   3.559 -0.5005 -1.5039  0.3057
 3462TIP3    H231878   0.819   0.162   3.493 -1.5167 -0.9737 -1.7881
 3463TIP3   OH231879   1.549   6.200   2.202  0.3584  0.5380 -0.1947
 3463TIP3    H131880   1.518   6.236   2.285 -1.6674 -0.6329 -0.3631
 3463TIP3    H231881   1.622   6.143   2.226  0.0565  0.5333  0.7356
 3464TIP3   OH231882   0.159   1.481   0.250 -0.7792 -0.1015  0.0814
 3464TIP3    H131883   0.183   1.461   0.341 -1.6468 -1.1104  0.1111
 3464TIP3    H231884   0.066   1.502   0.254 -0.4683  1.5419 -0.3491
 3465TIP3   OH231885   1.390   5.771   0.990  0.1304 -0.7974  0.0953
 3465TIP3    H131886   1.304   5.737   0.967  0.5371 -1.7307 -0.0895
 3465TIP3    H231887   1.372   5.854   1.034 -0.9280 -1.5255  1.0867
 3466TIP3   OH231888   4.003   6.617   2.506  0.1331  0.3867  0.2700
 3466TIP3    H131889   4.058   6.598   2.582  1.8809  2.2681 -0.4335
 3466TIP3    H231890   3.967   6.532   2.481  2.9433 -1.0218  0.6145
 3467TIP3   OH231891   3.137   2.619   3.454  0.1104 -0.2877 -0.3565
 3467TIP3    H131892   3.229   2.603   3.432  0.1651  2.6472 -3.0515
 3467TIP3    H231893   3.140   2.673   3.533  0.7227 -0.1235 -0.4844
 3468TIP3   OH231894   1.519   1.719   3.395 -0.1451 -0.6681  0.5707
 3468TIP3    H131895   1.593   1.658   3.391  0.4273  0.0720 -0.7645
 3468TIP3    H231896   1.536   1.772   3.473  1.0909 -0.0877 -0.0591
 3469TIP3   OH231897   2.091   2.400  16.665  0.2712 -0.6785  0.0183
 3469TIP3    H131898   2.080   2.491  16.691 -0.2812 -0.3851 -1.2008
 3469TIP3    H231899   2.011   2.356  16.694 -0.2150 -0.4124 -0.8939
 3470TIP3   OH231900   2.463   0.614   1.398  0.4043  0.1789 -0.2069
 3470TIP3    H131901   2.556   0.591   1.408  0.7558  1.0174 -1.3023
 3470TIP3    H231902   2.462   0.675   1.325 -0.7153  2.1338  1.3626
 3471TIP3   OH231903   1.817   4.222   1.370 -0.7391 -0.2297  1.1664
 3471TIP3    H131904   1.762   4.278   1.316 -0.0055  1.3948  2.0217
 3471TIP3    H231905   1.821   4.267   1.455  1.6201 -0.4346  1.2217
 3472TIP3   OH231906   3.202   5.274  14.553 -0.3872 -0.5212 -0.2291
 3472TIP3    H131907   3.230   5.342  14.491 -2.5628 -0.3764 -1.1337
 3472TIP3    H231908   3.166   5.205  14.498 -0.8422 -1.1290  0.8095
 3473TIP3   OH231909   4.410   1.189   1.496  0.2750  0.0908  0.3550
 3473TIP3    H131910   4.374   1.261   1.547 -0.5405  0.9104 -1.2694
 3473TIP3    H231911   4.432   1.229   1.411 -0.9425 -1.6692 -0.8773
 3474TIP3   OH231912   0.660   2.711   4.164 -0.0755  0.6563 -0.3340
 3474TIP3    H131913   0.584   2.654   4.156 -0.2098  0.8230 -0.2443
 3474TIP3    H231914   0.735   2.653   4.153 -0.2261  0.5917 -1.0628
 3475TIP3   OH231915   1.236   6.165   1.344  0.2287  0.6916  0.0790
 3475TIP3    H131916   1.245   6.069   1.345 -2.1823  0.4196  0.3160
 3475TIP3    H231917   1.231   6.190   1.436 -4.2199  0.3688  0.1124
 3476TIP3   OH231918   0.237   1.207  15.234  0.1918  0.0641 -0.0431
 3476TIP3    H131919   0.183   1.169  15.302 -0.8922 -0.6006 -1.2225
 3476TIP3    H231920   0.326   1.206  15.270 -0.3549 -0.1837  1.3608
 3477TIP3   OH231921   2.875   5.258  14.772 -0.2519 -0.3554 -0.0524
 3477TIP3    H131922   2.834   5.295  14.694 -0.8217  0.0614  0.4370
 3477TIP3    H231923   2.907   5.172  14.744 -1.4148 -0.6720 -0.4545
 3478TIP3   OH231924   2.359   6.016  10.360 -0.0147 -0.4053 -0.6361
 3478TIP3    H131925   2.344   5.947  10.424  0.2981 -0.3395 -0.4873
 3478TIP3    H231926   2.409   6.082  10.408 -3.1958  1.5437  0.2611
 3479TIP3   OH231927   3.885   0.582  12.144 -0.0240  0.1894  0.3276
 3479TIP3    H131928   3.828   0.517  12.104  0.5568 -0.5787  0.7250
 3479TIP3    H231929   3.923   0.629  12.070 -1.6007  1.1152  0.0679
 3480TIP3   OH231930   5.285   2.775  16.302 -0.0483 -0.0363 -0.2947
 3480TIP3    H131931   5.221   2.845  16.292 -1.4526 -1.0378  1.1673
 3480TIP3    H231932   5.337   2.778  16.222 -3.0728 -0.3109 -2.4456
 3481TIP3   OH231933   3.935   5.739   4.960  0.2277 -0.0191 -0.0715
 3481TIP3    H131934   3.936   5.646   4.938 -0.0485  0.0752 -0.5020
 3481TIP3    H231935   4.027   5.763   4.966  0.3196 -0.0287 -1.2439
 3482TIP3   OH231936   3.106   0.789   4.877 -0.2906 -0.2740  0.4476
 3482TIP3    H131937   3.029   0.732   4.882 -0.4937 -0.0851 -0.4131
 3482TIP3    H231938   3.138   0.794   4.967 -0.8012 -1.0168  0.6757
 3483TIP3   OH231939   1.636   0.814  11.251  1.2343 -0.3123 -0.0365
 3483TIP3    H131940   1.710   0.818  11.190  0.7278 -0.1689 -0.6490
 3483TIP3    H231941   1.638   0.899  11.295  0.5687  0.2728 -1.0944
 3484TIP3   OH231942   6.691   3.590  11.267  0.4808 -0.2654  0.3031
 3484TIP3    H131943   6.739   3.514  11.299  0.8805  0.2459  0.9358
 3484TIP3    H231944   6.755   3.642  11.219  0.3361 -0.0573  0.3313
 3485TIP3   OH231945   1.471   6.678  16.021 -0.0031 -0.2908 -0.7420
 3485TIP3    H131946   1.505   6.636  16.100 -1.7310  0.5138  0.4807
 3485TIP3    H231947   1.525   6.642  15.950  0.6515 -2.1312  0.6066
 3486TIP3   OH231948   0.457   0.978  15.007 -0.1585  0.2968 -0.4292
 3486TIP3    H131949   0.366   0.967  14.981 -0.0795  1.8616 -1.4831
 3486TIP3    H231950   0.496   1.032  14.938  1.8626 -1.2359 -0.5921
 3487TIP3   OH231951   3.245   5.070  13.016  0.2751  0.1807 -0.1277
 3487TIP3    H131952   3.257   5.085  12.922 -1.0670 -2.2696 -0.7627
 3487TIP3    H231953   3.320   5.015  13.041  0.8671  1.1773  0.3947
 3488TIP3   OH231954   4.178   5.906  16.158 -0.3717  0.0492 -0.7036
 3488TIP3    H131955   4.257   5.900  16.212 -0.3524 -1.3902 -0.8552
 3488TIP3    H231956   4.174   5.997  16.131  0.8285  0.3022 -0.0786
 3489TIP3   OH231957   4.039   5.512  14.139  0.2044 -0.1307  0.7974
 3489TIP3    H131958   4.009   5.430  14.177 -0.7951  0.0986  0.5395
 3489TIP3    H231959   4.022   5.504  14.045  0.1708  0.3234  0.7588
 3490TIP3   OH231960   4.586   1.218   0.737  0.3551  0.2097 -0.2889
 3490TIP3    H131961   4.518   1.284   0.724 -0.1108  0.0555  1.1796
 3490TIP3    H231962   4.648   1.259   0.798  0.0190 -0.7163  0.7050
 3491TIP3   OH231963   5.059   2.184   2.201  0.2873 -0.2264  0.1176
 3491TIP3    H131964   5.039   2.109   2.146 -0.9183  0.3350 -0.2497
 3491TIP3    H231965   5.061   2.258   2.140  1.4086  0.0506  0.4779
 3492TIP3   OH231966   0.112   6.046   3.142  0.9395 -0.3655  0.3016
 3492TIP3    H131967   0.059   6.061   3.220  0.5897  0.6356 -0.1116
 3492TIP3    H231968   0.061   6.084   3.071  2.1663  0.5604 -0.1236
 3493TIP3   OH231969   2.936   0.035  12.453  0.1897  0.5077  0.2348
 3493TIP3    H131970   2.994   0.014  12.380 -0.2349  2.9313 -0.8859
 3493TIP3    H231971   2.850   0.046  12.412  0.0744  2.6047  0.9349
 3494TIP3   OH231972   1.740   4.660   2.604 -0.3120 -0.6627  0.1024
 3494TIP3    H131973   1.835   4.651   2.604 -0.3724 -1.5776 -1.3325
 3494TIP3    H231974   1.725   4.755   2.599  0.5384 -0.5475 -0.4901
 3495TIP3   OH231975   4.125   4.176   6.024  0.3607  0.1262  0.2601
 3495TIP3    H131976   4.110   4.263   6.060  1.5578  0.3498  0.2624
 3495TIP3    H231977   4.185   4.134   6.086  0.3478 -0.4370 -0.0966
 3496TIP3   OH231978   1.190   1.196   3.988  0.4840  0.3005 -0.1346
 3496TIP3    H131979   1.209   1.189   3.894  1.5006  0.5407  0.0501
 3496TIP3    H231980   1.151   1.283   3.998 -1.2509 -0.3812 -0.5872
 3497TIP3   OH231981   5.540   0.490  16.950 -0.5755 -0.0870  0.0228
 3497TIP3    H131982   5.606   0.556  16.929  2.3703 -2.8838 -0.2560
 3497TIP3    H231983   5.558   0.465  17.040 -2.6611  0.4654  0.6539
 3498TIP3   OH231984   4.879   2.951  12.833 -0.1222 -0.1934  0.5626
 3498TIP3    H131985   4.933   3.009  12.887 -0.5912  2.2389 -1.3930
 3498TIP3    H231986   4.939   2.919  12.766 -0.5131  0.5031 -0.1361
 3499TIP3   OH231987   2.348   6.766  15.656  0.1134 -0.4842  0.2569
 3499TIP3    H131988   2.310   6.820  15.587 -0.6268 -0.2536  0.8287
 3499TIP3    H231989   2.376   6.686  15.611 -0.3930 -0.3588 -0.3019
 3500TIP3   OH231990   4.483   0.719   5.569  0.2730 -0.0126 -0.2402
 3500TIP3    H131991   4.403   0.708   5.622  0.6146  1.4550  0.6564
 3500TIP3    H231992   4.551   0.674   5.619  0.3044  0.1007 -0.1790
 3501TIP3   OH231993   0.055   5.695  11.411  0.8450 -0.5648 -0.1469
 3501TIP3    H131994   0.044   5.766  11.474  1.3838  0.0169 -0.6985
 3501TIP3    H231995  -0.033   5.676  11.379  0.5845 -0.7733  0.6793
 3502TIP3   OH231996   1.038   1.707  12.134  0.1423  0.4504 -0.0696
 3502TIP3    H131997   0.985   1.668  12.065 -0.4586 -1.4760  1.3844
 3502TIP3    H231998   1.111   1.646  12.147  0.1072  0.6262  1.1487
 3503TIP3   OH231999   3.220   5.678   1.757  0.0061  0.3709  0.4389
 3503TIP3    H132000   3.168   5.754   1.783  0.7843  0.4194  2.0190
 3503TIP3    H232001   3.156   5.609   1.740 -0.6270  0.3776  2.4990
 3504TIP3   OH232002   1.675   0.947  12.131  0.1843  0.3301  0.5155
 3504TIP3    H132003   1.612   0.878  12.112  0.8808 -0.8284  2.1822
 3504TIP3    H232004   1.757   0.917  12.093 -0.1705  1.8225 -1.6204
 3505TIP3   OH232005   5.446   2.034  11.453  0.3171  0.4790  0.2643
 3505TIP3    H132006   5.454   1.971  11.381 -1.2074 -0.3758  0.8118
 3505TIP3    H232007   5.533   2.035  11.493 -0.1201 -3.0269  1.6179
 3506TIP3   OH232008   1.179   5.096  13.560  0.4993 -0.1946 -0.0761
 3506TIP3    H132009   1.161   5.002  13.563  1.5532 -0.3919  2.5164
 3506TIP3    H232010   1.126   5.132  13.632  1.7442  0.8571  0.3406
 3507TIP3   OH232011   4.110   3.466  11.418 -0.0027 -0.1912 -0.2721
 3507TIP3    H132012   4.035   3.454  11.361 -0.4693  0.2994  0.2161
 3507TIP3    H232013   4.143   3.554  11.397  1.2369 -0.8989 -1.3888
 3508TIP3   OH232014   2.461   4.992   6.335 -0.2649  0.2674  0.1769
 3508TIP3    H132015   2.377   4.956   6.308 -0.0692  0.9242 -1.3862
 3508TIP3    H232016   2.491   5.042   6.260  1.3519  0.3694  0.8529
 3509TIP3   OH232017   4.117   6.370   2.383  0.0590 -0.4859 -0.4277
 3509TIP3    H132018   4.157   6.457   2.379 -1.0570  0.0380 -0.4529
 3509TIP3    H232019   4.052   6.371   2.313 -0.8677 -0.8721  0.4132
 3510TIP3   OH232020   0.935   6.387   1.690 -0.2870  0.0088  0.2244
 3510TIP3    H132021   0.864   6.434   1.733 -1.9655 -1.5998 -0.6562
 3510TIP3    H232022   0.988   6.353   1.762 -0.5431  0.9985  0.9013
 3511TIP3   OH232023   2.416   6.164   5.261  0.0192 -0.2736 -0.4422
 3511TIP3    H132024   2.324   6.167   5.287  0.6013 -2.8954  2.4221
 3511TIP3    H232025   2.454   6.243   5.299 -0.9419  0.8395 -1.6532
 3512TIP3   OH232026   3.814   6.055  17.021  0.0212  0.2607 -0.3939
 3512TIP3    H132027   3.724   6.076  17.045 -0.1139  1.4538 -1.8311
 3512TIP3    H232028   3.831   5.971  17.065 -2.0654 -0.4125 -0.7560
 3513TIP3   OH232029   2.236   0.649  15.469  0.4203  0.0242  0.6616
 3513TIP3    H132030   2.321   0.692  15.478  0.6358 -0.0309 -0.7730
 3513TIP3    H232031   2.254   0.573  15.413 -1.0489  1.8082 -2.5253
 3514TIP3   OH232032   1.999   5.057   2.302  0.3643 -0.2925  0.2122
 3514TIP3    H132033   2.013   4.983   2.361  0.1541 -1.4105 -1.1065
 3514TIP3    H232034   1.933   5.026   2.240  1.0551  0.6272 -1.0126
 3515TIP3   OH232035   5.350   2.393  12.669 -0.0282 -0.2129  0.3193
 3515TIP3    H132036   5.425   2.437  12.710  1.0489 -1.4768 -0.2157
 3515TIP3    H232037   5.382   2.364  12.584 -0.6174 -2.1599  0.7114
 3516TIP3   OH232038   2.505   3.441   1.335  0.4335 -0.3151 -0.5643
 3516TIP3    H132039   2.482   3.368   1.392  0.2043 -0.6196 -1.0418
 3516TIP3    H232040   2.538   3.509   1.394 -2.2863  0.4163  0.2589
 3517TIP3   OH232041   2.933   6.485   4.963  0.1118  0.2911  0.8842
 3517TIP3    H132042   3.022   6.517   4.950  0.2552 -0.0294  1.0510
 3517TIP3    H232043   2.931   6.456   5.054 -0.3325  0.8206  1.0486
 3518TIP3   OH232044   5.987   1.722  15.386 -0.5366  0.2247  0.1014
 3518TIP3    H132045   5.910   1.769  15.419  1.1478  2.9956  0.4078
 3518TIP3    H232046   6.061   1.780  15.405  1.1415 -0.0262 -4.4926
 3519TIP3   OH232047   1.156   4.357   2.601  0.3595 -0.3635 -0.7025
 3519TIP3    H132048   1.169   4.295   2.673  0.6077 -0.2714 -0.6692
 3519TIP3    H232049   1.168   4.443   2.640  0.8489 -0.3268 -0.9285
 3520TIP3   OH232050   0.681   1.814   3.211  0.3367  0.4347  0.1349
 3520TIP3    H132051   0.631   1.894   3.227 -0.3553  0.2380 -0.9999
 3520TIP3    H232052   0.651   1.782   3.126  1.1945 -0.5944  0.1904
 3521TIP3   OH232053   3.185   0.887  13.755  0.7160  0.2516 -0.6568
 3521TIP3    H132054   3.227   0.809  13.790 -2.7073 -1.1732  0.6880
 3521TIP3    H232055   3.216   0.958  13.812  0.7589 -0.8530  0.7625
 3522TIP3   OH232056   0.463   2.445  15.985  0.0211 -0.4370 -0.4258
 3522TIP3    H132057   0.536   2.504  15.967 -1.0113  1.4606  1.1327
 3522TIP3    H232058   0.396   2.468  15.920 -0.0366 -0.5726 -0.4158
 3523TIP3   OH232059   2.094   6.326   2.475  0.2931  0.1862 -0.4614
 3523TIP3    H132060   2.141   6.337   2.558  1.5697 -1.4668 -0.8974
 3523TIP3    H232061   2.052   6.240   2.483 -2.2065  1.3347 -0.3604
 3524TIP3   OH232062   2.044   0.239  15.756  0.4140  0.4300  0.3868
 3524TIP3    H132063   2.119   0.228  15.697  1.2553 -0.7524  1.6262
 3524TIP3    H232064   2.061   0.323  15.800 -0.0253  1.1321 -0.7323
 3525TIP3   OH232065   3.235   3.165  14.058 -0.2253 -0.0153  0.2626
 3525TIP3    H132066   3.271   3.249  14.084 -2.3417  1.3696 -0.9592
 3525TIP3    H232067   3.300   3.128  13.998  0.5342  0.9556  0.4670
 3526TIP3   OH232068   5.030   5.400  12.109  0.1112 -0.5438  0.3794
 3526TIP3    H132069   4.973   5.458  12.160  2.0730  0.1101  2.0228
 3526TIP3    H232070   4.985   5.316  12.108 -1.2815  0.1671  0.7952
 3527TIP3   OH232071   1.089   3.228   1.935  0.2738 -0.0365 -0.6871
 3527TIP3    H132072   1.080   3.258   1.844  1.1432 -0.3493 -0.8885
 3527TIP3    H232073   1.154   3.287   1.973  1.3989 -1.1038 -0.8581
 3528TIP3   OH232074   5.594   6.772   3.836 -0.5004  0.8649 -0.0492
 3528TIP3    H132075   5.589   6.785   3.931 -0.7541 -1.0339  0.2364
 3528TIP3    H232076   5.514   6.723   3.814  0.5648 -0.6204 -0.8498
 3529TIP3   OH232077   2.784   4.524   2.221  0.2192 -0.6121 -0.7648
 3529TIP3    H132078   2.789   4.616   2.198 -0.1046 -0.4382 -0.1700
 3529TIP3    H232079   2.713   4.519   2.285  0.9198 -1.1088 -0.0051
 3530TIP3   OH232080   6.406   6.059   2.960  0.2671  0.2757  0.3172
 3530TIP3    H132081   6.360   6.126   2.910  0.8428  0.0127 -0.5762
 3530TIP3    H232082   6.473   6.107   3.009  0.7187  0.3460 -0.3689
 3531TIP3   OH232083   0.882   4.597  13.154 -0.4897 -0.3339 -0.0560
 3531TIP3    H132084   0.902   4.533  13.086  0.4232 -0.1848  0.0583
 3531TIP3    H232085   0.849   4.673  13.106 -1.4580 -0.8258 -0.1996
 3532TIP3   OH232086   0.771   1.073  11.380  0.3456 -0.3741 -0.3081
 3532TIP3    H132087   0.775   0.993  11.433 -0.6094  0.1762  0.6435
 3532TIP3    H232088   0.842   1.128  11.414 -0.1906 -0.0698  0.3292
 3533TIP3   OH232089   0.892   1.930   1.572  0.4271 -0.0803  0.0490
 3533TIP3    H132090   0.891   1.900   1.663 -2.5393  1.0568  0.5041
 3533TIP3    H232091   0.872   1.851   1.521 -4.1785  0.1773  0.9940
 3534TIP3   OH232092   3.198   4.906   0.504 -0.1529  0.0626 -0.5827
 3534TIP3    H132093   3.286   4.897   0.466  0.0564  0.5484 -0.2084
 3534TIP3    H232094   3.178   4.999   0.496 -0.3118  0.0838  0.0516
 3535TIP3   OH232095   3.954   5.837   1.686  0.1625 -0.3695 -0.6898
 3535TIP3    H132096   3.925   5.928   1.682 -0.5170 -0.5200  0.5283
 3535TIP3    H232097   3.967   5.819   1.779  0.2467 -1.5364 -0.9077
 3536TIP3   OH232098   1.317   1.390  12.683  0.5288  0.3243 -0.1845
 3536TIP3    H132099   1.298   1.415  12.773 -1.3216  2.8355 -1.1502
 3536TIP3    H232100   1.263   1.312  12.668  0.2055  0.3785  0.6396
 3537TIP3   OH232101   4.014   5.237   0.668  0.1617 -0.4025  0.0703
 3537TIP3    H132102   3.966   5.156   0.686 -1.3767 -0.0286 -1.8604
 3537TIP3    H232103   4.084   5.211   0.609  0.6645 -0.5579  0.7347
 3538TIP3   OH232104   5.235   4.397  15.507  0.0314  0.7994 -0.4485
 3538TIP3    H132105   5.269   4.477  15.466  2.5700  0.9154  1.5852
 3538TIP3    H232106   5.261   4.405  15.599 -2.2814 -1.0357  0.4471
 3539TIP3   OH232107   5.726   5.372   6.363 -0.3459  0.1969 -0.1154
 3539TIP3    H132108   5.645   5.403   6.322 -0.1992  1.6264  0.6053
 3539TIP3    H232109   5.698   5.325   6.441 -0.5337 -0.5259 -0.6165
 3540TIP3   OH232110   0.059   6.034   6.901 -0.3991 -0.4193  0.4278
 3540TIP3    H132111   0.048   6.100   6.832  0.3253 -0.6953  0.0292
 3540TIP3    H232112  -0.019   5.979   6.895 -1.3713  0.8151  1.2440
 3541TIP3   OH232113   3.998   1.525  16.951  0.0163  0.0828  0.3099
 3541TIP3    H132114   3.988   1.603  17.005 -0.0615  0.3580 -0.0974
 3541TIP3    H232115   3.935   1.462  16.987 -0.5512  0.5185  0.0742
 3542TIP3   OH232116   0.464   0.106  13.253  0.0522  0.1721  0.0048
 3542TIP3    H132117   0.509   0.153  13.183 -2.7013 -0.6818 -2.5635
 3542TIP3    H232118   0.398   0.168  13.285 -0.0735 -0.1436  0.3661
 3543TIP3   OH232119   2.420   6.527   1.227 -0.2378 -0.3892  0.7163
 3543TIP3    H132120   2.465   6.528   1.142  0.0083 -2.2953  0.8021
 3543TIP3    H232121   2.478   6.575   1.286 -0.5104  1.1585 -0.1894
 3544TIP3   OH232122   6.555   4.122   5.328  0.4500  0.2944 -0.3835
 3544TIP3    H132123   6.648   4.136   5.346  0.6000  0.1235 -1.0099
 3544TIP3    H232124   6.526   4.062   5.397  0.8405  0.2225 -0.2793
 3545TIP3   OH232125   4.010   0.460   1.113 -0.1810 -0.2707  0.3173
 3545TIP3    H132126   3.946   0.515   1.160 -0.8121 -1.5957  1.0621
 3545TIP3    H232127   3.959   0.416   1.046  0.3938  0.2828 -0.5034
 3546TIP3   OH232128   4.165   3.367   1.487  0.0664  0.1528 -0.5402
 3546TIP3    H132129   4.249   3.410   1.471  1.0674 -1.2691  0.5935
 3546TIP3    H232130   4.110   3.395   1.414  1.5193  1.1265 -1.3291
 3547TIP3   OH232131   5.409   1.064  14.172  0.0117  0.0508  0.3998
 3547TIP3    H132132   5.494   1.067  14.128  0.6295 -0.3564  1.5243
 3547TIP3    H232133   5.367   1.147  14.147  0.8602  0.4062  0.0871
 3548TIP3   OH232134   2.541   0.662   3.523  0.4493 -0.4401 -0.0530
 3548TIP3    H132135   2.621   0.621   3.490  1.0775  1.7502 -1.5218
 3548TIP3    H232136   2.484   0.666   3.447  0.3000  1.0696  0.1155
 3549TIP3   OH232137   2.114   2.952   2.079  0.4135  0.3253 -0.2832
 3549TIP3    H132138   2.089   2.882   2.139  0.8922 -0.4981 -1.0216
 3549TIP3    H232139   2.086   3.032   2.123 -0.5924 -0.3511  0.3661
 3550TIP3   OH232140   3.140   0.695   5.649 -0.3894 -0.1926  0.1064
 3550TIP3    H132141   3.095   0.717   5.568 -0.1274  0.0465  0.0234
 3550TIP3    H232142   3.155   0.779   5.693 -0.8371 -0.3526  0.5678
 3551TIP3   OH232143   3.210   2.616  17.091  0.3403 -0.3925 -0.0206
 3551TIP3    H132144   3.195   2.528  17.123 -2.3332 -0.0810 -0.1668
 3551TIP3    H232145   3.138   2.631  17.029 -0.8756  2.7480  1.9183
 3552TIP3   OH232146   1.242   1.939  14.000 -0.2043  0.5535  0.5360
 3552TIP3    H132147   1.210   1.939  13.909 -0.4762  1.7674  0.6155
 3552TIP3    H232148   1.203   1.860  14.039  0.8758 -0.6572 -0.7120
 3553TIP3   OH232149   2.819   3.902  16.567  0.6122  0.1408 -0.1405
 3553TIP3    H132150   2.737   3.896  16.518  1.0399  0.6512 -0.9499
 3553TIP3    H232151   2.847   3.993  16.556  1.5328 -0.1476 -0.3128
 3554TIP3   OH232152   4.639   2.228   2.932 -0.0067 -0.2913  0.3307
 3554TIP3    H132153   4.706   2.167   2.961 -0.2023 -1.1726 -0.9799
 3554TIP3    H232154   4.660   2.310   2.976  1.4256 -0.7784  0.6024
 3555TIP3   OH232155   5.150   4.433   4.222 -0.6773 -0.4508 -0.4533
 3555TIP3    H132156   5.140   4.469   4.310 -1.5811 -1.4151 -0.1393
 3555TIP3    H232157   5.145   4.509   4.164 -1.0703  0.0917  0.2713
 3556TIP3   OH232158   4.403   2.301  12.608  0.1052 -0.1793 -0.0720
 3556TIP3    H132159   4.448   2.351  12.540 -0.7200 -1.1946 -1.4333
 3556TIP3    H232160   4.409   2.356  12.686  2.2600  0.4156 -0.6014
 3557TIP3   OH232161   0.906   6.083   2.182  0.2774 -0.1971 -0.5177
 3557TIP3    H132162   0.968   6.021   2.144 -0.1742  0.3867 -2.3046
 3557TIP3    H232163   0.823   6.066   2.136  0.1517  1.7417 -1.1122
 3558TIP3   OH232164   5.449   6.794  14.998 -0.6130  0.3828  0.0258
 3558TIP3    H132165   5.392   6.843  15.057 -0.6062  0.4247 -0.0026
 3558TIP3    H232166   5.514   6.858  14.969  0.1297  0.0653  0.9350
 3559TIP3   OH232167   4.568   1.244   1.253 -0.2908 -0.7981  0.3619
 3559TIP3    H132168   4.521   1.323   1.279  0.6504 -0.0981 -0.0420
 3559TIP3    H232169   4.648   1.245   1.304 -0.3613 -1.6124  0.5086
 3560TIP3   OH232170   4.578   3.162  15.259  0.3473 -0.1738 -0.4442
 3560TIP3    H132171   4.520   3.112  15.317 -1.9850  1.1238 -1.5119
 3560TIP3    H232172   4.666   3.136  15.285 -0.6880 -2.4446  1.1136
 3561TIP3   OH232173   2.906   3.921  12.714 -0.0524  0.2979  0.2086
 3561TIP3    H132174   2.985   3.881  12.751 -0.6709  0.5652  1.8682
 3561TIP3    H232175   2.931   3.942  12.624  1.9020  0.7545  0.8056
 3562TIP3   OH232176   1.748   3.603  15.325 -0.4070 -0.3551  0.8016
 3562TIP3    H132177   1.680   3.571  15.265 -0.2583 -0.6653  0.8006
 3562TIP3    H232178   1.819   3.540  15.317  0.5895  0.8816 -0.4782
 3563TIP3   OH232179   5.518   4.275  12.912  0.0914 -0.0529  0.1156
 3563TIP3    H132180   5.532   4.206  12.976  0.1040 -0.2436 -0.0919
 3563TIP3    H232181   5.429   4.306  12.929  0.0125 -0.2557  0.0815
 3564TIP3   OH232182   4.015   0.194  10.682  0.0022  0.8069  0.2029
 3564TIP3    H132183   4.104   0.159  10.684 -0.6456 -0.9065  0.2943
 3564TIP3    H232184   3.959   0.119  10.666 -1.3402  2.1074 -1.6319
 3565TIP3   OH232185   3.640   1.855  15.170  0.3796 -0.0824  0.1057
 3565TIP3    H132186   3.609   1.906  15.245  0.2007 -0.3718  0.2289
 3565TIP3    H232187   3.560   1.830  15.123  0.2438 -2.4054  1.4345
 3566TIP3   OH232188   3.448   5.707   0.879 -0.5501  0.1155 -0.1283
 3566TIP3    H132189   3.452   5.794   0.919 -0.3747  1.5747 -3.0518
 3566TIP3    H232190   3.357   5.696   0.855 -0.3610  0.0044 -0.8075
 3567TIP3   OH232191   3.920   5.795   4.008  0.4029  0.0916 -0.4532
 3567TIP3    H132192   3.987   5.801   4.076 -1.6601  0.6073  1.6481
 3567TIP3    H232193   3.936   5.872   3.953  1.2761  0.4515  0.2681
 3568TIP3   OH232194   6.355   5.420   4.185  0.2147 -0.0634  0.3315
 3568TIP3    H132195   6.343   5.492   4.247  0.8524  0.1206  0.2487
 3568TIP3    H232196   6.403   5.459   4.112  1.0668 -0.7068  0.5403
 3569TIP3   OH232197   0.826   4.901  11.522 -0.1523  0.0381  0.3603
 3569TIP3    H132198   0.778   4.942  11.450 -0.7029 -0.7913  0.2347
 3569TIP3    H232199   0.782   4.816  11.534 -0.1637  0.2254  1.7706
 3570TIP3   OH232200   1.259   4.658   4.568 -0.0185  0.1186 -0.3775
 3570TIP3    H132201   1.276   4.570   4.534 -0.6068 -0.4322  0.7011
 3570TIP3    H232202   1.168   4.676   4.544 -0.6122 -0.4905  1.2769
 3571TIP3   OH232203   1.030   1.874  16.349  0.6159 -0.6197 -0.2141
 3571TIP3    H132204   1.043   1.913  16.263 -0.4634  0.7389  0.2038
 3571TIP3    H232205   1.027   1.948  16.410 -2.2666 -1.1660  0.5001
 3572TIP3   OH232206   6.290   3.468   5.569  0.2158  0.2485  0.0503
 3572TIP3    H132207   6.200   3.450   5.542  0.3962 -1.8226  0.6730
 3572TIP3    H232208   6.337   3.484   5.488 -0.0347 -2.1095 -0.6306
 3573TIP3   OH232209   0.232   4.333  12.578 -0.0782  0.3895 -0.0077
 3573TIP3    H132210   0.144   4.310  12.607  0.1591 -0.4596  0.0582
 3573TIP3    H232211   0.218   4.378  12.495 -0.6699  1.6413  0.7322
 3574TIP3   OH232212   1.390   1.102   0.957 -0.4201  0.1097  0.0463
 3574TIP3    H132213   1.472   1.136   0.921 -1.8008  1.3360 -2.1340
 3574TIP3    H232214   1.372   1.023   0.906 -0.2334 -0.6103  1.0622
 3575TIP3   OH232215   1.983   6.666  12.198  0.0006 -0.2482 -0.4308
 3575TIP3    H132216   1.962   6.692  12.108  2.9253  3.3635 -0.3385
 3575TIP3    H232217   1.960   6.742  12.251 -0.1355 -1.6743  1.6868
 3576TIP3   OH232218   0.081   1.272   4.070 -0.3577 -0.1443  0.6914
 3576TIP3    H132219   0.027   1.350   4.081  0.7058  0.7287 -0.0372
 3576TIP3    H232220   0.129   1.287   3.989  1.9993 -0.2381  1.9709
 3577TIP3   OH232221   3.038   4.200   6.463 -0.3236  0.3635  0.1599
 3577TIP3    H132222   3.031   4.105   6.459  1.0873  0.1502  1.5805
 3577TIP3    H232223   3.107   4.222   6.399  0.0423  0.3124  0.5313
 3578TIP3   OH232224   4.424   2.247  14.930 -0.1805  0.8183 -0.0430
 3578TIP3    H132225   4.388   2.186  14.866  4.7293 -2.5837 -0.0791
 3578TIP3    H232226   4.397   2.211  15.015  0.7658 -0.1131 -0.1173
 3579TIP3   OH232227   5.064   0.366   5.425  0.3621 -0.3552 -0.6159
 3579TIP3    H132228   4.995   0.402   5.481  1.3519 -0.8906  1.0192
 3579TIP3    H232229   5.118   0.442   5.401  0.5760 -0.2666  0.1182
 3580TIP3   OH232230   0.278   6.790   1.848  0.4800  0.1252 -0.2963
 3580TIP3    H132231   0.340   6.820   1.780 -0.2892  0.1418 -1.0048
 3580TIP3    H232232   0.328   6.728   1.899  1.1489  0.2699 -0.7539
 3581TIP3   OH232233   4.427   5.915   4.561 -0.2429 -0.0502 -0.1820
 3581TIP3    H132234   4.414   5.896   4.468 -2.2447 -0.1349  0.0691
 3581TIP3    H232235   4.348   5.962   4.587 -0.8419 -2.0510  1.9994
 3582TIP3   OH232236   5.399   2.287   0.555  0.1032  0.3981  0.7912
 3582TIP3    H132237   5.352   2.353   0.607  0.5927 -0.0117  1.7743
 3582TIP3    H232238   5.475   2.333   0.520  1.0743  0.1133  2.4165
 3583TIP3   OH232239   1.360   3.394  12.645 -0.5331  0.5691 -0.2357
 3583TIP3    H132240   1.315   3.310  12.636  1.2836 -0.6066  0.9399
 3583TIP3    H232241   1.378   3.421  12.554  0.1971 -1.1223 -0.6402
 3584TIP3   OH232242   0.600   5.703   4.936  0.0532 -0.0801 -0.2247
 3584TIP3    H132243   0.580   5.794   4.956 -2.0222 -0.5591  0.1437
 3584TIP3    H232244   0.625   5.664   5.020  0.7970  0.0994 -0.3561
 3585TIP3   OH232245   0.585   2.844  16.555 -0.1415  0.0553  0.1119
 3585TIP3    H132246   0.599   2.933  16.585 -0.2666  0.5474 -1.2122
 3585TIP3    H232247   0.651   2.792  16.601  3.4004  1.6183 -2.7250
 3586TIP3   OH232248   5.347   4.311   4.473  0.6704 -0.4117 -0.0995
 3586TIP3    H132249   5.298   4.300   4.554  0.3836 -0.2708 -0.2542
 3586TIP3    H232250   5.352   4.223   4.436 -2.2500 -0.0202 -1.7035
 3587TIP3   OH232251   0.158   3.000  15.255 -0.0453 -0.3254 -1.0432
 3587TIP3    H132252   0.116   3.058  15.319 -1.4851 -1.0005 -1.3215
 3587TIP3    H232253   0.184   3.058  15.183  0.9573  0.3395 -0.1710
 3588TIP3   OH232254   4.112   1.950   1.987  0.1955  0.1183  0.0749
 3588TIP3    H132255   4.072   2.032   1.959  0.2635  0.0926 -0.0983
 3588TIP3    H232256   4.055   1.918   2.057  1.8019  1.8565  2.2961
 3589TIP3   OH232257   2.350   4.087   0.280 -0.1507 -0.3164 -0.0320
 3589TIP3    H132258   2.339   4.122   0.192  2.4717 -1.1193 -0.7734
 3589TIP3    H232259   2.409   4.148   0.323  0.1669 -0.9718  0.4816
 3590TIP3   OH232260   3.888   2.409   5.778  0.6579 -0.1156 -0.3874
 3590TIP3    H132261   3.931   2.483   5.735 -0.5331  0.5654 -0.4703
 3590TIP3    H232262   3.818   2.450   5.830 -0.6505 -1.2494 -1.2071
 3591TIP3   OH232263   1.761   6.581  17.054 -0.0995 -0.1271  0.1621
 3591TIP3    H132264   1.748   6.497  17.099 -1.5502 -0.2206 -0.3958
 3591TIP3    H232265   1.853   6.603  17.072 -0.0412 -1.2075  1.3618
 3592TIP3   OH232266   0.088   0.797  15.788  0.3602  0.0568  0.6177
 3592TIP3    H132267   0.131   0.883  15.782  1.3363 -0.3718  1.2409
 3592TIP3    H232268   0.082   0.780  15.882  0.3837 -0.6644  0.4931
 3593TIP3   OH232269   0.729   5.689  12.256 -0.0672  0.4925 -0.2967
 3593TIP3    H132270   0.727   5.774  12.300 -0.7557  1.1610 -1.5658
 3593TIP3    H232271   0.697   5.627  12.322 -0.2094  1.3225  0.4267
 3594TIP3   OH232272   6.134   4.648   0.045  0.1044  0.5634 -0.2327
 3594TIP3    H132273   6.118   4.593   0.121  0.2357  1.2772  0.3276
 3594TIP3    H232274   6.048   4.680   0.019  0.0464  0.2212 -0.4575
 3595TIP3   OH232275   1.301   4.271   5.757  0.2721  0.3030  0.7909
 3595TIP3    H132276   1.321   4.187   5.716  2.5946  1.1098  0.0567
 3595TIP3    H232277   1.221   4.256   5.806 -0.9015 -1.5970 -1.4936
 3596TIP3   OH232278   4.538   4.013  10.878  0.0196 -0.4340  0.9765
 3596TIP3    H132279   4.548   4.092  10.824 -1.3236 -0.3710  0.7702
 3596TIP3    H232280   4.560   3.941  10.819  0.3572 -0.2590  0.8906
 3597TIP3   OH232281   4.028   3.075  17.082  0.1822  0.0783  0.1169
 3597TIP3    H132282   4.014   3.145  17.018  1.0229 -0.4086 -0.6154
 3597TIP3    H232283   3.944   3.028  17.084  0.8811 -1.4981 -2.6181
 3598TIP3   OH232284   5.067   2.969   1.954 -0.7431 -0.2910 -0.3926
 3598TIP3    H132285   5.122   2.952   2.031 -1.6249  1.7748  0.7716
 3598TIP3    H232286   5.123   2.946   1.879  1.5647  1.2389  0.7348
 3599TIP3   OH232287   5.424   4.664   5.388  0.3594 -0.1166 -0.8322
 3599TIP3    H132288   5.437   4.663   5.482 -0.7466  0.9370 -0.6420
 3599TIP3    H232289   5.405   4.572   5.365  0.5858 -0.3673 -0.0322
 3600TIP3   OH232290   2.615   5.920  16.183 -0.7113 -0.5109 -0.1268
 3600TIP3    H132291   2.603   5.990  16.247  2.6101 -0.2423  0.3719
 3600TIP3    H232292   2.587   5.841  16.228 -1.3292  0.0523  0.5092
 3601TIP3   OH232293   6.148   2.939   0.808 -0.3585 -0.0249  0.2939
 3601TIP3    H132294   6.080   2.968   0.868 -2.2385  0.1671 -1.8065
 3601TIP3    H232295   6.195   3.019   0.784 -0.9328  0.2107 -0.0538
 3602TIP3   OH232296   3.925   1.418  16.098  0.8608  1.2230  0.3345
 3602TIP3    H132297   3.921   1.338  16.151 -1.4329  1.7540  1.1113
 3602TIP3    H232298   3.902   1.390  16.010  1.4737  0.8258  0.2959
 3603TIP3   OH232299   0.670   5.841  16.034 -0.1651  0.5206  0.5086
 3603TIP3    H132300   0.753   5.812  16.072  1.6405  0.1212 -3.2933
 3603TIP3    H232301   0.686   5.933  16.009 -1.8275  1.2712  1.9829
 3604TIP3   OH232302   3.166   6.388   3.532 -0.0233 -0.1373  0.1903
 3604TIP3    H132303   3.192   6.463   3.584  1.0852  1.2657 -2.2208
 3604TIP3    H232304   3.247   6.337   3.522  0.5450  1.0868 -2.3326
 3605TIP3   OH232305   0.903   4.597   6.138 -0.3536  0.0201 -0.4018
 3605TIP3    H132306   0.850   4.601   6.057  0.3159 -0.3819 -0.8694
 3605TIP3    H232307   0.988   4.565   6.109  0.1540  0.6581  0.3477
 3606TIP3   OH232308   2.151   5.049  16.998 -0.4009  0.4563 -0.1595
 3606TIP3    H132309   2.096   4.975  16.973 -0.4465 -0.2751  1.9005
 3606TIP3    H232310   2.116   5.079  17.082  1.0454  1.3233  0.1920
 3607TIP3   OH232311   0.989   1.428  14.012  0.1413  0.4521 -0.4120
 3607TIP3    H132312   0.983   1.519  13.984  0.1888  1.7857  3.3637
 3607TIP3    H232313   0.899   1.404  14.036  0.5457  0.5052  1.2410
 3608TIP3   OH232314   5.044   2.258   1.827  0.5499  0.0623 -0.2277
 3608TIP3    H132315   4.987   2.214   1.764  2.2892  0.9759 -2.5986
 3608TIP3    H232316   5.115   2.195   1.843 -0.2666 -0.4823  1.5471
 3609TIP3   OH232317   6.048   3.520  15.867  0.2220 -0.4297  0.0483
 3609TIP3    H132318   6.095   3.488  15.791 -1.5892  0.5429 -1.5920
 3609TIP3    H232319   5.992   3.446  15.894  0.3752 -0.5597  0.0088
 3610TIP3   OH232320   6.521   4.059   3.257  0.1369 -0.6146  0.3125
 3610TIP3    H132321   6.601   4.017   3.225  0.1248 -0.3855 -0.0347
 3610TIP3    H232322   6.547   4.103   3.338  1.0990  1.7999 -1.1773
 3611TIP3   OH232323   2.183   5.699  12.392  0.1600  0.0279  0.0873
 3611TIP3    H132324   2.171   5.637  12.464 -0.7602 -0.3286 -0.3603
 3611TIP3    H232325   2.137   5.778  12.421 -1.8792 -0.7298 -0.8503
 3612TIP3   OH232326   4.371   4.139  16.227  0.3872 -0.0359 -0.4248
 3612TIP3    H132327   4.461   4.165  16.207  1.2445 -1.7737  0.9426
 3612TIP3    H232328   4.380   4.059  16.279 -1.9404  0.0853  0.2682
 3613TIP3   OH232329   3.339   2.364  14.609 -0.6225  0.3072 -0.5208
 3613TIP3    H132330   3.374   2.390  14.524 -0.2515  0.1577 -0.4131
 3613TIP3    H232331   3.244   2.358  14.594 -0.4027 -1.5973 -1.4536
 3614TIP3   OH232332   2.650   1.602   2.282 -0.3415 -0.3951 -0.0442
 3614TIP3    H132333   2.592   1.640   2.216  1.1715  0.9674 -0.6588
 3614TIP3    H232334   2.627   1.648   2.363 -1.0747 -0.8888  0.0350
 3615TIP3   OH232335   3.346   0.058   1.051  0.1344  0.0248 -0.5378
 3615TIP3    H132336   3.327   0.071   1.144 -1.6729  1.7085 -1.0799
 3615TIP3    H232337   3.336   0.145   1.012  0.8556 -0.6504 -2.3200
 3616TIP3   OH232338   3.943   4.829   3.181  0.7930 -0.4170 -0.3254
 3616TIP3    H132339   4.009   4.831   3.111  1.3614 -0.2620  0.1990
 3616TIP3    H232340   3.871   4.882   3.149  1.3287  0.2036 -0.5305
 3617TIP3   OH232341   5.065   6.219  14.715 -0.2048  0.0341  0.4443
 3617TIP3    H132342   5.043   6.194  14.625  0.9668 -2.0285  0.6760
 3617TIP3    H232343   5.157   6.244  14.711 -0.8380  2.7332  0.6083
 3618TIP3   OH232344   6.688   2.535   4.635 -0.2299 -0.3940  0.0104
 3618TIP3    H132345   6.691   2.630   4.622 -0.8510 -0.3359  0.2581
 3618TIP3    H232346   6.780   2.509   4.636 -0.0391  0.2443  0.1931
 3619TIP3   OH232347   0.261   3.383  11.119  0.2867  0.0733  0.7405
 3619TIP3    H132348   0.270   3.459  11.061 -1.5718 -1.4151 -1.7098
 3619TIP3    H232349   0.232   3.419  11.202  1.4820  2.1885  0.3206
 3620TIP3   OH232350   5.836   2.143   3.890  0.0952 -0.2235  0.0833
 3620TIP3    H132351   5.882   2.069   3.930  0.3595  1.0786  2.4043
 3620TIP3    H232352   5.891   2.219   3.910 -1.6902  1.0169  0.5619
 3621TIP3   OH232353   1.453   0.897   6.034 -0.7868 -1.1366  0.0537
 3621TIP3    H132354   1.398   0.833   5.991 -0.4685 -0.0454 -2.0927
 3621TIP3    H232355   1.529   0.847   6.066 -1.4384 -2.0978  0.1130
 3622TIP3   OH232356   1.243   4.221  14.235 -0.0921 -0.1645 -0.2065
 3622TIP3    H132357   1.170   4.222  14.174 -0.5796  0.6687  0.3689
 3622TIP3    H232358   1.205   4.247  14.319  0.2504 -2.6642  0.8307
 3623TIP3   OH232359   1.206   4.184   3.822  0.6757  0.4168 -0.0812
 3623TIP3    H132360   1.130   4.147   3.778 -0.9415  1.5703  1.5966
 3623TIP3    H232361   1.241   4.113   3.875 -0.0712  0.2298  0.1710
 3624TIP3   OH232362   1.956   0.822  13.721  0.9040 -0.3984  0.5003
 3624TIP3    H132363   1.975   0.734  13.754  0.5266 -0.9985 -0.8396
 3624TIP3    H232364   2.040   0.867  13.723  0.9153 -0.4367  2.1573
 3625TIP3   OH232365   2.861   5.015   2.805  0.2266  0.3677  0.7042
 3625TIP3    H132366   2.794   5.034   2.740  0.3114 -0.1858  0.4547
 3625TIP3    H232367   2.814   4.973   2.877  0.4338 -0.8793  0.1345
 3626TIP3   OH232368   4.319   5.225   4.488 -0.2435  0.5228  0.5262
 3626TIP3    H132369   4.360   5.210   4.403  0.3575 -1.2273  1.0840
 3626TIP3    H232370   4.259   5.298   4.473 -1.0940 -0.5376 -1.7320
 3627TIP3   OH232371   0.339   4.546   4.294  0.0568 -0.0128  0.1436
 3627TIP3    H132372   0.419   4.496   4.309  1.8812  2.0171 -1.8751
 3627TIP3    H232373   0.351   4.626   4.346  0.3465  1.1635 -1.6293
 3628TIP3   OH232374   6.169   5.924   2.682 -0.0324 -0.6878  0.3452
 3628TIP3    H132375   6.190   5.858   2.748  0.7338 -0.0910  0.7217
 3628TIP3    H232376   6.096   5.973   2.721  0.8011  0.0417  1.0482
 3629TIP3   OH232377   0.537   4.368   2.575  0.2223  0.0723 -0.1917
 3629TIP3    H132378   0.622   4.363   2.530  0.8533 -1.1033  1.0391
 3629TIP3    H232379   0.509   4.277   2.583 -0.7315  0.3867  0.1985
 3630TIP3   OH232380   1.151   2.459  17.084 -0.0297 -0.0872  0.3544
 3630TIP3    H132381   1.129   2.538  17.133  0.5245  2.0773 -2.5932
 3630TIP3    H232382   1.247   2.455  17.087  0.0985  0.7416 -1.3529
 3631TIP3   OH232383   5.774   2.592  15.346 -0.6195  0.3114  0.6791
 3631TIP3    H132384   5.828   2.572  15.423  1.1539 -1.8048 -0.9534
 3631TIP3    H232385   5.833   2.640  15.288 -1.1016 -0.3289 -0.3591
 3632TIP3   OH232386   5.956   4.017  14.503  0.0023 -0.1580 -0.0248
 3632TIP3    H132387   5.990   3.927  14.497 -2.0917 -0.9313 -1.3346
 3632TIP3    H232388   5.863   4.008  14.486  0.0349  2.5326 -2.2040
 3633TIP3   OH232389   3.879   4.499   0.707  0.3337 -0.1846  0.1920
 3633TIP3    H132390   3.944   4.568   0.698  3.1202 -2.7123 -1.1095
 3633TIP3    H232391   3.910   4.448   0.782  0.0771 -1.6253 -0.6431
 3634TIP3   OH232392   2.279   1.184   0.724 -0.5330 -0.0296 -0.4215
 3634TIP3    H132393   2.373   1.201   0.734 -0.8949  1.7283  0.5128
 3634TIP3    H232394   2.259   1.214   0.635 -0.0165 -1.5133 -1.0551
 3635TIP3   OH232395   1.704   3.431  11.493 -0.1338  0.6739 -0.4579
 3635TIP3    H132396   1.740   3.398  11.411  0.4136 -1.1320  0.4715
 3635TIP3    H232397   1.754   3.511  11.510  1.1459 -0.0130 -0.8718
 3636TIP3   OH232398   5.187   4.921  13.756  0.2640 -0.7296  0.0265
 3636TIP3    H132399   5.197   5.009  13.793 -2.4309 -0.1708 -0.3650
 3636TIP3    H232400   5.119   4.880  13.809  0.0398 -1.8349 -1.0682
 3637TIP3   OH232401   4.557   3.583  13.933  0.5199 -0.1584 -0.3865
 3637TIP3    H132402   4.635   3.562  13.882  0.5691  2.3797 -1.5213
 3637TIP3    H232403   4.561   3.678  13.947 -0.6930 -0.3956  2.4334
 3638TIP3   OH232404   6.322   4.848  15.018 -0.0942 -0.1840  0.1337
 3638TIP3    H132405   6.235   4.887  15.026  0.2575  0.2849  1.8537
 3638TIP3    H232406   6.325   4.781  15.086  0.1076 -1.7644 -1.3589
 3639TIP3   OH232407   2.900   0.974   0.336  0.2811  0.4388 -0.0694
 3639TIP3    H132408   2.854   1.058   0.337 -3.7278 -1.5180 -0.5880
 3639TIP3    H232409   2.902   0.949   0.244  0.5448 -0.4880  0.1789
 3640TIP3   OH232410   0.143   4.293   3.625  0.0721 -0.4237 -0.2347
 3640TIP3    H132411   0.237   4.293   3.641 -0.1328 -1.1829  1.1221
 3640TIP3    H232412   0.119   4.386   3.621  0.7895 -0.2266 -0.0220
 3641TIP3   OH232413   5.054   1.218   3.989 -0.0087  0.5895  0.2089
 3641TIP3    H132414   4.988   1.170   3.939  0.3865  0.4356 -0.1744
 3641TIP3    H232415   5.035   1.310   3.970  0.9326  0.5100 -1.2966
 3642TIP3   OH232416   1.621   6.250  12.143 -0.5139 -0.5922  0.6134
 3642TIP3    H132417   1.535   6.264  12.183 -1.6620  0.3468 -2.0264
 3642TIP3    H232418   1.613   6.168  12.095 -0.3605  0.0918 -0.6307
 3643TIP3   OH232419   5.680   5.488   2.999  0.1268  0.2600  1.1440
 3643TIP3    H132420   5.680   5.395   2.976 -0.5265  0.2020  1.3493
 3643TIP3    H232421   5.761   5.500   3.049  0.8765  0.1026 -0.0067
 3644TIP3   OH232422   5.326   2.894   5.066 -0.0688  0.4876  0.0554
 3644TIP3    H132423   5.297   2.803   5.066 -1.1612  0.7725 -1.3923
 3644TIP3    H232424   5.421   2.890   5.073 -0.0756 -0.7926 -0.3019
 3645TIP3   OH232425   6.336   0.027   3.726  0.1091  0.2421 -0.2091
 3645TIP3    H132426   6.257   0.066   3.763 -1.5574 -1.8261 -1.3345
 3645TIP3    H232427   6.346  -0.057   3.772 -0.2445 -0.9670 -2.1903
 3646TIP3   OH232428   3.930   2.590  15.683  0.1657  0.1423 -0.3232
 3646TIP3    H132429   3.857   2.555  15.734  1.0972 -1.3770  0.0274
 3646TIP3    H232430   3.952   2.521  15.621  1.1008  0.7065 -0.6442
 3647TIP3   OH232431   1.418   3.325   3.648  0.2346 -0.2906  0.1022
 3647TIP3    H132432   1.339   3.297   3.603 -0.2466 -0.4489  1.0243
 3647TIP3    H232433   1.411   3.420   3.652  0.1435 -0.2970  0.0947
 3648TIP3   OH232434   6.378   4.397  12.295 -0.7676  0.3611  0.3009
 3648TIP3    H132435   6.447   4.446  12.251  0.0865 -1.9659 -1.0895
 3648TIP3    H232436   6.424   4.342  12.358 -1.4149 -0.6938 -0.1352
 3649TIP3   OH232437   3.950   6.387   0.820  0.0373  0.3483  0.1747
 3649TIP3    H132438   4.003   6.328   0.767 -1.9785 -0.2483 -1.2830
 3649TIP3    H232439   3.999   6.469   0.821  1.7923 -0.6591  0.3563
 3650TIP3   OH232440   2.934   0.997   3.074 -0.0091  0.2745  0.3067
 3650TIP3    H132441   2.949   1.088   3.050  1.1408  0.2233  0.7684
 3650TIP3    H232442   2.839   0.991   3.087 -0.1619  1.2607 -0.2606
 3651TIP3   OH232443   5.774   2.001   5.283 -0.0415  0.4894  0.1545
 3651TIP3    H132444   5.712   2.073   5.271 -0.3562  0.3157  0.7503
 3651TIP3    H232445   5.772   1.954   5.199 -0.5597  0.6020  0.0994
 3652TIP3   OH232446   3.680   0.700   2.189  0.2971 -0.0542  0.0487
 3652TIP3    H132447   3.770   0.698   2.222  0.2352  2.9856  0.7260
 3652TIP3    H232448   3.688   0.734   2.100 -0.0619 -1.8880 -0.7186
 3653TIP3   OH232449   6.193   5.767  11.021 -0.5091  0.5018 -0.0424
 3653TIP3    H132450   6.211   5.856  10.989 -1.0112  0.1327 -1.4041
 3653TIP3    H232451   6.107   5.773  11.061 -0.3054  0.7435  0.3705
 3654TIP3   OH232452   4.388   2.475  12.819  0.0735 -0.2631  0.1236
 3654TIP3    H132453   4.366   2.445  12.908  1.4116  0.7694  0.8360
 3654TIP3    H232454   4.379   2.570  12.823 -0.2788 -0.2373 -0.9903
 3655TIP3   OH232455   6.676   4.653  17.081  0.3476 -0.3599  0.2429
 3655TIP3    H132456   6.658   4.581  17.021 -1.4183 -0.4401  0.8163
 3655TIP3    H232457   6.646   4.731  17.035  0.8696 -0.1673  0.2228
 3656TIP3   OH232458   1.920   3.040  11.492  0.0569  0.2909  0.4344
 3656TIP3    H132459   1.947   3.129  11.516  0.2105  0.0626  1.1254
 3656TIP3    H232460   2.002   2.991  11.488  0.2517  0.6860 -2.2509
 3657TIP3   OH232461   5.811   1.561   3.400  0.7633  0.1565  0.5112
 3657TIP3    H132462   5.769   1.622   3.338  1.2083 -0.7204 -0.6753
 3657TIP3    H232463   5.742   1.498   3.421  0.9340 -0.2125 -0.0059
 3658TIP3   OH232464   4.539   6.455   2.249 -0.0684  0.1117 -0.7464
 3658TIP3    H132465   4.457   6.417   2.217 -0.5612 -1.3669  1.9552
 3658TIP3    H232466   4.511   6.522   2.312  0.7629 -0.2489  0.0355
 3659TIP3   OH232467   6.350   5.298   3.186 -0.1076  0.2894 -0.4724
 3659TIP3    H132468   6.413   5.232   3.157 -0.8639 -1.3901  1.4698
 3659TIP3    H232469   6.273   5.285   3.131 -0.1669 -0.3004 -0.2521
 3660TIP3   OH232470   5.695   1.762   2.630 -0.3977 -0.7038  0.6197
 3660TIP3    H132471   5.678   1.809   2.549 -0.5871 -0.4728  0.7900
 3660TIP3    H232472   5.777   1.715   2.615 -0.7816 -1.2026  0.0537
 3661TIP3   OH232473   5.041   5.978   1.061  0.4003 -0.2056  0.3029
 3661TIP3    H132474   4.982   5.913   1.020  0.8747 -1.3205  1.3245
 3661TIP3    H232475   5.072   5.934   1.140  1.1139  1.1204  0.7679
 3662TIP3   OH232476   3.680   0.564   3.163 -0.5011  0.4005  0.6940
 3662TIP3    H132477   3.750   0.563   3.098 -0.5779 -1.5791  0.5744
 3662TIP3    H232478   3.715   0.616   3.236  0.4078  0.8763 -0.0601
 3663TIP3   OH232479   2.397   4.007  12.497 -0.2110  0.4716  0.0068
 3663TIP3    H132480   2.439   4.051  12.423  0.7473  0.9551  0.8241
 3663TIP3    H232481   2.456   4.020  12.570 -0.1806 -1.6863  0.4392
 3664TIP3   OH232482   6.694   6.407   0.624 -0.2439 -0.4182  0.1724
 3664TIP3    H132483   6.732   6.449   0.701 -0.0506 -1.5943  0.7331
 3664TIP3    H232484   6.610   6.452   0.610  1.1712  2.1072 -0.9727
 3665TIP3   OH232485   2.440   2.503  13.164 -0.9958 -0.4027 -0.7183
 3665TIP3    H132486   2.472   2.550  13.087 -0.5665 -0.1780 -0.4008
 3665TIP3    H232487   2.511   2.508  13.228 -0.7997 -1.7701 -0.7890
 3666TIP3   OH232488   5.578   2.289   4.643  0.2372  0.3703  0.3068
 3666TIP3    H132489   5.623   2.374   4.639  2.2621 -0.5085  2.3756
 3666TIP3    H232490   5.648   2.225   4.631 -0.6714 -1.0369  2.1354
 3667TIP3   OH232491   0.339   3.049  12.341 -0.3975  0.2336  0.4482
 3667TIP3    H132492   0.418   3.101  12.327  0.1545 -0.6324  0.3324
 3667TIP3    H232493   0.365   2.981  12.402 -1.0684 -0.0430  0.4338
 3668TIP3   OH232494   5.435   5.080  16.133 -0.4679  0.8954  0.2936
 3668TIP3    H132495   5.514   5.135  16.136 -0.6647  1.5096 -2.8637
 3668TIP3    H232496   5.365   5.141  16.109 -1.0550 -0.3477 -1.3086
 3669TIP3   OH232497   4.204   6.350  12.895 -0.9549 -0.0130  0.1659
 3669TIP3    H132498   4.233   6.441  12.898  0.4451 -0.4626  0.6562
 3669TIP3    H232499   4.190   6.333  12.802  4.1646 -0.8894 -0.7198
 3670TIP3   OH232500   4.457   2.913   6.080  0.1639  0.2739 -0.4257
 3670TIP3    H132501   4.402   2.975   6.128  0.1008  0.5821 -0.8852
 3670TIP3    H232502   4.394   2.858   6.033  0.2311  0.1388 -0.3566
 3671TIP3   OH232503   3.080   6.027  14.016  0.2457  0.3690 -0.0667
 3671TIP3    H132504   3.133   6.089  14.066  0.2360 -0.6712  1.2849
 3671TIP3    H232505   3.060   6.073  13.934  1.2861  1.6515  0.3678
 3672TIP3   OH232506   6.294   5.770  14.749  0.4883 -0.0924 -0.2223
 3672TIP3    H132507   6.271   5.813  14.831 -1.4886 -1.2392 -0.1268
 3672TIP3    H232508   6.278   5.677  14.765  4.8496 -1.1154 -0.3242
 3673TIP3   OH232509   0.268   2.799  14.109 -0.8576 -0.0927 -0.4225
 3673TIP3    H132510   0.311   2.800  14.024  0.1913 -0.3983  0.0744
 3673TIP3    H232511   0.181   2.833  14.093 -0.2997  0.9200 -1.4158
 3674TIP3   OH232512   0.938   6.401   2.936  0.0355  0.7504  0.3464
 3674TIP3    H132513   0.874   6.363   2.875 -0.2014 -1.5883  1.9280
 3674TIP3    H232514   0.888   6.465   2.987 -0.4910  0.5626  0.0799
 3675TIP3   OH232515   0.181   3.979   1.663  0.0110  0.6424  0.4938
 3675TIP3    H132516   0.089   3.953   1.668  0.7795 -2.9559 -1.0405
 3675TIP3    H232517   0.218   3.948   1.746  0.3790 -0.7423 -0.1620
 3676TIP3   OH232518   2.544   0.441   4.389  0.7889 -0.7118 -0.9673
 3676TIP3    H132519   2.465   0.387   4.382 -0.4691  0.9900 -0.6121
 3676TIP3    H232520   2.511   0.531   4.391  2.6979  0.0142  0.0662
 3677TIP3   OH232521   0.677   0.858   2.474 -0.2534 -0.2157 -0.0958
 3677TIP3    H132522   0.641   0.936   2.516 -0.0835 -1.1124  1.7887
 3677TIP3    H232523   0.632   0.784   2.515  0.6492 -1.1765 -0.7739
 3678TIP3   OH232524   6.781   5.621  15.279 -0.4420 -0.0278  0.2993
 3678TIP3    H132525   6.724   5.576  15.341 -1.4492  0.1856 -0.4465
 3678TIP3    H232526   6.753   5.589  15.193 -0.1778  0.8971 -0.1502
 3679TIP3   OH232527   2.824   0.149  15.004 -0.2193 -0.3589  0.4670
 3679TIP3    H132528   2.836   0.133  14.910 -0.7504  0.3495  0.2785
 3679TIP3    H232529   2.851   0.067  15.045 -1.9710 -1.4467 -0.4311
 3680TIP3   OH232530   3.710   4.215  13.665  0.2047  0.7903  0.3570
 3680TIP3    H132531   3.717   4.137  13.610 -0.0304 -0.0215  1.4546
 3680TIP3    H232532   3.796   4.223  13.706  0.8047  2.1358 -1.0615
 3681TIP3   OH232533   0.229   5.061  13.276  0.2059  0.0200 -0.2654
 3681TIP3    H132534   0.323   5.050  13.260  0.3051  0.4849 -0.0204
 3681TIP3    H232535   0.206   4.987  13.333  0.0288 -1.1540 -1.7703
 3682TIP3   OH232536   3.385   2.255   5.726 -0.0012  0.0908  0.1274
 3682TIP3    H132537   3.455   2.241   5.790 -1.3016 -0.6681  1.4484
 3682TIP3    H232538   3.364   2.348   5.734 -1.0585 -0.2472  1.8437
 3683TIP3   OH232539   1.647   5.939  13.395  0.2460  0.3263 -0.6038
 3683TIP3    H132540   1.636   5.859  13.345 -1.2288 -1.0332  1.7212
 3683TIP3    H232541   1.741   5.953  13.399  0.6229 -1.9910 -0.0756
 3684TIP3   OH232542   1.674   2.045   0.369  0.1509  0.4229 -0.0331
 3684TIP3    H132543   1.648   2.085   0.286 -1.7791  0.2096  0.4052
 3684TIP3    H232544   1.646   2.108   0.436 -0.7740 -0.5626  0.5487
 3685TIP3   OH232545   5.127   0.967  16.264 -0.4405  0.3842  0.2102
 3685TIP3    H132546   5.091   0.936  16.181 -1.6719  1.4317  0.3302
 3685TIP3    H232547   5.116   0.893  16.323  0.0695 -0.2283 -0.4357
 3686TIP3   OH232548   6.743   0.460  12.701 -0.8584 -0.4271  0.0585
 3686TIP3    H132549   6.764   0.424  12.615 -0.8031  0.2005 -0.1951
 3686TIP3    H232550   6.659   0.504  12.688  0.4188  2.0670 -0.4040
 3687TIP3   OH232551   5.081   6.197   1.429  0.3384 -0.0870  0.2139
 3687TIP3    H132552   5.060   6.287   1.454  3.0460  0.6172  0.2138
 3687TIP3    H232553   5.063   6.146   1.508 -1.5485  0.3397  0.1126
 3688TIP3   OH232554   4.503   3.818   1.947  0.7169 -0.5637 -0.1256
 3688TIP3    H132555   4.441   3.746   1.958 -0.7238  0.7019  0.3714
 3688TIP3    H232556   4.577   3.794   2.004 -1.4210  0.1097  3.2336
 3689TIP3   OH232557   1.152   4.076   2.472 -0.1386 -0.2229  0.0379
 3689TIP3    H132558   1.123   3.994   2.510 -0.1448  0.0283  0.5786
 3689TIP3    H232559   1.204   4.118   2.541  0.5523 -0.1451 -0.5124
 3690TIP3   OH232560   4.167   5.787  12.383  0.0927  0.4792  0.2653
 3690TIP3    H132561   4.192   5.827  12.300  1.0183  0.1773  0.3896
 3690TIP3    H232562   4.128   5.703  12.358 -0.8512  0.9582  0.0708
 3691TIP3   OH232563   5.034   3.298   5.318  0.3795  0.6086 -0.2230
 3691TIP3    H132564   4.971   3.308   5.388 -0.1484  1.4493 -0.8019
 3691TIP3    H232565   5.022   3.208   5.288 -0.1265  0.5777  0.0633
 3692TIP3   OH232566   3.275   3.004   4.425 -0.6031 -0.3940  0.3081
 3692TIP3    H132567   3.325   3.023   4.346 -0.8342 -0.2653  0.1932
 3692TIP3    H232568   3.335   2.952   4.479 -0.7160 -1.1654 -0.2839
 3693TIP3   OH232569   0.117   4.555  12.955  0.0651 -0.2442 -0.0974
 3693TIP3    H132570   0.147   4.472  12.992 -1.1059 -1.1661 -1.1090
 3693TIP3    H232571   0.118   4.540  12.860  0.9347  1.3081 -0.3561
 3694TIP3   OH232572   5.073   3.707  14.561  0.4908  0.1527 -0.4723
 3694TIP3    H132573   5.109   3.743  14.642  1.8144 -2.4137  0.2035
 3694TIP3    H232574   5.122   3.626  14.547 -1.6114 -0.9142 -2.3589
 3695TIP3   OH232575   0.781   2.248  11.919  0.1412  0.1015  0.6808
 3695TIP3    H132576   0.734   2.267  11.837  1.9314 -0.5796 -0.5710
 3695TIP3    H232577   0.715   2.258  11.987 -1.8681 -0.9162 -0.9827
 3696TIP3   OH232578   0.014   1.612  12.102 -0.7358 -0.1526 -0.1684
 3696TIP3    H132579   0.014   1.650  12.015 -1.4049 -0.1494 -0.1747
 3696TIP3    H232580  -0.077   1.619  12.131 -1.1615 -2.7217 -0.6159
 3697TIP3   OH232581   4.624   4.450   4.590  0.4906 -0.2523 -0.0532
 3697TIP3    H132582   4.712   4.416   4.603  1.2901  1.3636 -0.9175
 3697TIP3    H232583   4.571   4.374   4.566  1.6626 -1.2178  0.3418
 3698TIP3   OH232584   4.571   3.960   5.264  0.2943 -0.1901 -0.4593
 3698TIP3    H132585   4.581   3.954   5.359 -0.6211 -2.9721 -0.4624
 3698TIP3    H232586   4.508   4.031   5.251 -0.6035 -0.6595  1.1013
 3699TIP3   OH232587   5.403   5.426  11.574 -0.1007  0.1915 -0.7038
 3699TIP3    H132588   5.308   5.426  11.566 -0.2359  0.7362  0.6190
 3699TIP3    H232589   5.420   5.378  11.656  0.8076 -0.4979 -1.2741
 3700TIP3   OH232590   3.683   3.739  12.484  0.2247  0.7062  0.7521
 3700TIP3    H132591   3.603   3.691  12.505 -0.4600  0.3971 -2.0740
 3700TIP3    H232592   3.656   3.802  12.417  1.9469  2.1440  1.3400
 3701TIP3   OH232593   6.515   2.022   4.005  0.5097  0.3296 -0.0109
 3701TIP3    H132594   6.577   2.095   4.006  0.6913  0.2025  1.7629
 3701TIP3    H232595   6.528   1.980   3.920  3.1423  0.0898  0.4305
 3702TIP3   OH232596   2.700   0.057   6.552 -0.0840 -0.4420 -0.4788
 3702TIP3    H132597   2.741  -0.025   6.579  0.1423 -0.1421  0.1091
 3702TIP3    H232598   2.679   0.044   6.460  1.0350 -0.7337 -0.7121
 3703TIP3   OH232599   2.823   2.152   2.426  0.4068  0.0948  0.0661
 3703TIP3    H132600   2.827   2.203   2.507  1.5867 -1.8516  1.3201
 3703TIP3    H232601   2.739   2.106   2.431  0.5924 -0.2260  0.3549
 3704TIP3   OH232602   5.677   3.296  16.700 -0.2898  0.2806 -0.4861
 3704TIP3    H132603   5.617   3.260  16.635  1.9563 -0.7387 -2.1113
 3704TIP3    H232604   5.704   3.380  16.663 -0.9621  0.9209  0.4305
 3705TIP3   OH232605   5.084   2.469  11.986 -0.3461  0.3885  0.1695
 3705TIP3    H132606   5.066   2.393  12.042  2.3332  0.5038  1.3641
 3705TIP3    H232607   5.104   2.431  11.901  1.0880 -0.3211  0.7812
 3706TIP3   OH232608   5.086   3.144  12.173 -0.1119 -0.3123 -0.2615
 3706TIP3    H132609   4.990   3.137  12.176 -0.0875 -0.5474  1.3339
 3706TIP3    H232610   5.103   3.234  12.146 -0.7764 -0.3644 -0.8664
 3707TIP3   OH232611   3.341   3.833   1.328 -0.2724 -1.0637 -0.6405
 3707TIP3    H132612   3.276   3.900   1.351 -0.2588 -1.3838  0.3931
 3707TIP3    H232613   3.421   3.862   1.372  0.0865 -1.0751 -1.2804
 3708TIP3   OH232614   5.067   6.146  14.141  0.1481 -0.6859 -0.1576
 3708TIP3    H132615   5.042   6.054  14.141 -1.0261 -0.5493  3.5897
 3708TIP3    H232616   5.134   6.153  14.209  1.1059  1.1003 -1.1921
 3709TIP3   OH232617   2.910   5.126   1.936  0.0077  1.0479 -0.3239
 3709TIP3    H132618   2.910   5.146   1.843 -1.6352  0.0858 -0.5776
 3709TIP3    H232619   2.837   5.064   1.947  1.2838 -0.2674  1.3003
 3710TIP3   OH232620   4.874   1.419   4.688 -0.1049 -0.8750  0.0102
 3710TIP3    H132621   4.828   1.348   4.733 -1.1101  0.0147  0.4399
 3710TIP3    H232622   4.964   1.387   4.678  0.4160 -0.8053  3.4114
 3711TIP3   OH232623   0.669   3.435  16.081  0.7613 -0.0151  0.0025
 3711TIP3    H132624   0.690   3.404  16.169 -0.0659 -2.0544 -0.4692
 3711TIP3    H232625   0.642   3.357  16.034  0.8542  1.0955 -1.9860
 3712TIP3   OH232626   6.493   5.551   1.795 -0.5110 -0.0509 -0.1520
 3712TIP3    H132627   6.470   5.490   1.726  0.8431  0.5947 -1.2158
 3712TIP3    H232628   6.459   5.635   1.766 -1.9938 -0.1660  1.1061
 3713TIP3   OH232629   0.621   0.190   2.129 -0.0689 -0.4552  0.2398
 3713TIP3    H132630   0.536   0.158   2.097 -0.9468  1.4666  0.5630
 3713TIP3    H232631   0.661   0.233   2.053  0.0672 -0.2635  0.4187
 3714TIP3   OH232632   5.805   3.903   2.237  0.8535  0.7439  0.2451
 3714TIP3    H132633   5.718   3.868   2.216  1.7396 -2.9677  1.8598
 3714TIP3    H232634   5.803   3.914   2.332  2.0591  0.7728  0.2725
 3715TIP3   OH232635   0.770   3.831   5.536 -0.4075 -0.0124 -0.1080
 3715TIP3    H132636   0.789   3.752   5.486 -2.6022 -0.9067  0.3258
 3715TIP3    H232637   0.807   3.902   5.484 -0.2497 -1.1332 -1.6040
 3716TIP3   OH232638   0.363   1.806   2.296  0.2518 -0.2322 -0.1020
 3716TIP3    H132639   0.314   1.838   2.220 -0.0693 -3.6651 -1.5493
 3716TIP3    H232640   0.453   1.833   2.279 -0.0455  0.2694 -0.9779
 3717TIP3   OH232641   2.644   6.310  11.523 -0.4295  0.1340 -0.1664
 3717TIP3    H132642   2.677   6.400  11.521 -2.2268  0.8718  0.9566
 3717TIP3    H232643   2.569   6.311  11.463 -0.8472 -0.4440  0.3310
 3718TIP3   OH232644   0.701   1.312  12.674 -0.3533  0.0922 -0.6363
 3718TIP3    H132645   0.716   1.396  12.630 -0.8990  0.2816 -0.4742
 3718TIP3    H232646   0.606   1.310  12.688 -0.2653 -0.2836 -0.1002
 3719TIP3   OH232647   5.026   3.969  12.153 -0.2076  0.4679 -0.8675
 3719TIP3    H132648   5.085   4.022  12.206  0.6339 -0.1734 -1.1373
 3719TIP3    H232649   4.942   4.015  12.157  0.3397  1.4774 -0.5983
 3720TIP3   OH232650   5.728   5.210   4.744 -0.5161 -0.3508 -0.1987
 3720TIP3    H132651   5.678   5.167   4.814  0.4292  1.3585  1.6260
 3720TIP3    H232652   5.666   5.272   4.706 -1.0483 -1.3210 -0.9838
 3721TIP3   OH232653   4.150   0.127  14.532  0.0286  0.1517 -0.2882
 3721TIP3    H132654   4.223   0.070  14.557  0.2211  0.4076 -0.2620
 3721TIP3    H232655   4.073   0.070  14.537  0.3803 -0.4963 -1.6463
 3722TIP3   OH232656   0.317   3.509  11.929 -0.3881  0.0893 -0.0863
 3722TIP3    H132657   0.387   3.478  11.987  0.7915 -0.0675 -1.5241
 3722TIP3    H232658   0.284   3.430  11.888 -0.9216  0.2411  0.0510
 3723TIP3   OH232659   0.802   2.199  14.273 -0.4063 -0.2899  0.1142
 3723TIP3    H132660   0.826   2.263  14.340 -0.8604  0.0430 -0.0339
 3723TIP3    H232661   0.885   2.168  14.238 -0.1752  0.6141 -0.1788
 3724TIP3   OH232662   5.805   2.970   2.331  0.2754 -0.7103  0.3538
 3724TIP3    H132663   5.817   2.889   2.381  0.1920 -0.2090  1.2108
 3724TIP3    H232664   5.867   3.032   2.371 -0.0238 -0.2071  0.0446
 3725TIP3   OH232665   4.157   3.854  16.227  0.1211  0.2446  0.0407
 3725TIP3    H132666   4.230   3.842  16.289 -1.2200 -0.1683  1.6058
 3725TIP3    H232667   4.152   3.771  16.179  1.3513  0.6703 -0.8843
 3726TIP3   OH232668   1.092   0.689  13.779  0.3717  0.2150 -0.4512
 3726TIP3    H132669   0.997   0.684  13.774  0.3206 -0.4928  0.7922
 3726TIP3    H232670   1.114   0.650  13.863  1.8246 -0.5113 -1.1190
 3727TIP3   OH232671   4.390   3.073   4.201 -0.3172 -0.8047 -0.1010
 3727TIP3    H132672   4.332   3.091   4.275  0.5757 -0.1308  0.4651
 3727TIP3    H232673   4.427   2.987   4.220  0.8049 -0.1507  0.8937
 3728TIP3   OH232674   0.037   6.176   4.511 -0.4345 -0.0016 -0.2415
 3728TIP3    H132675  -0.021   6.103   4.534  0.8695 -1.5316 -1.5609
 3728TIP3    H232676  -0.012   6.225   4.445 -0.5963 -0.7942 -0.7275
 3729TIP3   OH232677   4.159   6.359  11.500 -0.2748 -0.0833 -0.4256
 3729TIP3    H132678   4.254   6.354  11.484 -0.1939 -1.0807  0.2329
 3729TIP3    H232679   4.120   6.319  11.423 -0.2224  1.1931 -1.1398
 3730TIP3   OH232680   3.681   5.243   0.506  0.4039  0.2360  0.5227
 3730TIP3    H132681   3.640   5.194   0.577 -2.0001 -0.6519 -1.3662
 3730TIP3    H232682   3.627   5.321   0.496  1.0129  0.5940 -0.0507
 3731TIP3   OH232683   0.479   6.395   3.742  0.6222 -0.3417  0.6844
 3731TIP3    H132684   0.549   6.351   3.790  1.5793 -0.1188 -0.4447
 3731TIP3    H232685   0.449   6.329   3.679 -0.7377 -0.6923  1.6489
 3732TIP3   OH232686   3.344   1.032   5.037 -0.2676 -0.7050 -0.2726
 3732TIP3    H132687   3.248   1.021   5.041 -0.1754 -1.3941  0.3497
 3732TIP3    H232688   3.372   1.029   5.129  0.3226 -0.1763 -0.4307
 3733TIP3   OH232689   4.587   5.543  15.633 -0.3680 -0.4249 -0.3363
 3733TIP3    H132690   4.569   5.451  15.611 -0.4318 -0.0119 -2.1050
 3733TIP3    H232691   4.651   5.572  15.568 -0.1408  0.7239  0.3691
 3734TIP3   OH232692   2.556   6.015  11.447 -0.3918 -0.0538  0.7922
 3734TIP3    H132693   2.527   5.926  11.426 -1.2243  0.6168 -1.0366
 3734TIP3    H232694   2.613   6.039  11.375 -0.2329  0.9349  1.2383
 3735TIP3   OH232695   4.553   3.502   4.642  0.7192  0.1583  0.2137
 3735TIP3    H132696   4.512   3.542   4.719  0.8243  0.8136 -0.0639
 3735TIP3    H232697   4.574   3.413   4.670  3.2685  1.1808  1.8792
 3736TIP3   OH232698   2.238   0.331  12.231  0.4084 -0.0764  0.0088
 3736TIP3    H132699   2.260   0.402  12.171 -1.8310 -0.0662 -0.9286
 3736TIP3    H232700   2.296   0.259  12.206  1.1337  0.6923 -0.5697
 3737TIP3   OH232701   3.533   4.477   4.332 -0.1150 -0.1500  0.3071
 3737TIP3    H132702   3.595   4.447   4.399 -0.2728  0.0468  0.5406
 3737TIP3    H232703   3.496   4.558   4.368  0.3841  0.3901 -0.3659
 3738TIP3   OH232704   6.486   5.511  16.057  0.2405 -0.3935  0.6357
 3738TIP3    H132705   6.544   5.560  16.115  0.1670  0.4668 -0.0098
 3738TIP3    H232706   6.410   5.490  16.111 -0.9656  2.5496  0.2242
 3739TIP3   OH232707   4.377   0.179   3.532  0.2907 -0.4150 -0.3140
 3739TIP3    H132708   4.470   0.181   3.556  0.5656  2.0249 -1.2168
 3739TIP3    H232709   4.376   0.137   3.446  0.7695  0.5267 -0.8084
 3740TIP3   OH232710   5.984   4.316   0.709  0.4994  0.3113 -0.6084
 3740TIP3    H132711   5.996   4.286   0.799  0.4390  0.1139 -0.6656
 3740TIP3    H232712   5.970   4.235   0.659 -0.8476  0.5094 -0.5817
 3741TIP3   OH232713   5.029   3.804  12.772  0.5026  0.2562  0.2502
 3741TIP3    H132714   5.004   3.830  12.860 -0.1469 -1.0148  0.4524
 3741TIP3    H232715   4.971   3.854  12.714 -1.4108 -1.4112  0.6618
 3742TIP3   OH232716   5.994   5.861  11.198  0.5207 -0.3458 -0.0870
 3742TIP3    H132717   5.946   5.909  11.131  1.8507  0.3934 -0.5207
 3742TIP3    H232718   5.932   5.856  11.272  0.6372  2.8708  0.3663
 3743TIP3   OH232719   4.655   3.318  13.215 -0.7647 -0.0312 -0.0435
 3743TIP3    H132720   4.621   3.407  13.207 -1.7872 -0.2597  1.3266
 3743TIP3    H232721   4.631   3.275  13.133 -0.9435  0.7411 -0.3975
 3744TIP3   OH232722   1.299   6.789   5.747 -0.1816 -0.3156 -0.4125
 3744TIP3    H132723   1.389   6.764   5.766  1.2932  3.7451 -1.0998
 3744TIP3    H232724   1.250   6.764   5.825  2.0691 -0.2109  1.1147
 3745TIP3   OH232725   5.501   2.582   6.377  0.0197  0.1855  0.0513
 3745TIP3    H132726   5.450   2.524   6.433  0.2442  0.1361  0.2082
 3745TIP3    H232727   5.582   2.597   6.426  0.5274 -0.4341 -0.5732
 3746TIP3   OH232728   1.242   4.598  12.283  0.4812  0.0030 -0.4375
 3746TIP3    H132729   1.272   4.688  12.297 -0.0666  0.0296  0.7753
 3746TIP3    H232730   1.164   4.607  12.228  1.6187  0.0752 -2.0937
 3747TIP3   OH232731   3.725   5.466  17.035  0.0563  0.0723 -0.1647
 3747TIP3    H132732   3.768   5.416  17.105 -2.5726 -1.9961  0.1131
 3747TIP3    H232733   3.710   5.402  16.965 -0.0175  1.4157 -1.4412
 3748TIP3   OH232734   0.632   2.337   4.062  0.4615  0.2897  0.7817
 3748TIP3    H132735   0.704   2.275   4.075 -0.8539 -1.4188  0.2765
 3748TIP3    H232736   0.672   2.411   4.017  2.1106 -0.1236  1.4884
 3749TIP3   OH232737   4.515   4.093   6.149  0.2652 -0.1215 -0.4844
 3749TIP3    H132738   4.596   4.072   6.196  0.6096  0.1526 -0.9329
 3749TIP3    H232739   4.487   4.177   6.185  1.4553  0.9449 -1.8898
 3750TIP3   OH232740   0.066   2.802   3.528  0.4335 -0.8618 -0.2861
 3750TIP3    H132741   0.135   2.828   3.466  1.7537 -1.4071  0.8938
 3750TIP3    H232742   0.038   2.884   3.568  0.6637 -0.6762 -0.4967
 3751TIP3   OH232743   5.017   2.048  15.765  0.5545  0.1954  0.2810
 3751TIP3    H132744   5.094   2.007  15.806  0.8611  1.4381  0.9972
 3751TIP3    H232745   4.943   1.997  15.798  0.8753  0.5588  1.6395
 3752TIP3   OH232746   0.793   4.461  15.684 -0.5960  0.1993  0.1049
 3752TIP3    H132747   0.803   4.366  15.675 -2.6409 -0.1694  1.1663
 3752TIP3    H232748   0.795   4.477  15.778 -0.7285  1.1505 -0.0439
 3753TIP3   OH232749   1.247   5.799  16.395  0.3103 -0.0910  0.5237
 3753TIP3    H132750   1.321   5.843  16.436 -1.8907  1.2627  3.4403
 3753TIP3    H232751   1.240   5.715  16.442  0.1528 -0.3344  0.0711
 3754TIP3   OH232752   1.067   2.951   3.844  0.3509  0.2766 -0.1762
 3754TIP3    H132753   1.004   2.997   3.901 -1.5872 -0.0108 -1.9666
 3754TIP3    H232754   1.116   3.022   3.802  0.6601  0.5372  0.6030
 3755TIP3   OH232755   4.806   5.170   3.942  0.2959  0.1801 -0.2349
 3755TIP3    H132756   4.870   5.108   3.977 -0.5818 -0.6017  0.0048
 3755TIP3    H232757   4.849   5.255   3.949  2.3748 -0.5790 -2.4694
 3756TIP3   OH232758   3.491   4.891  12.967  0.2734 -0.0417 -0.5900
 3756TIP3    H132759   3.432   4.867  12.895 -1.9118 -0.9840  1.3763
 3756TIP3    H232760   3.520   4.808  13.003  0.6221  0.4027  0.1784
 3757TIP3   OH232761   1.030   1.590   4.362 -0.1375  0.0485 -0.2843
 3757TIP3    H132762   1.042   1.563   4.453 -0.6047 -0.5618 -0.4050
 3757TIP3    H232763   0.960   1.655   4.366  0.6416  0.8971 -0.0626
 3758TIP3   OH232764   1.111   6.360  10.836  0.2756  0.0188 -0.4192
 3758TIP3    H132765   1.141   6.308  10.762  0.8428  0.2386 -0.3535
 3758TIP3    H232766   1.190   6.405  10.867 -0.0196  0.1824  0.1111
 3759TIP3   OH232767   4.974   1.984   2.901 -0.0393 -0.4096  0.1242
 3759TIP3    H132768   4.901   1.942   2.856 -1.3161  0.7602  1.0311
 3759TIP3    H232769   4.961   1.963   2.993  0.5703  0.0967  0.3313
 3760TIP3   OH232770   2.678   0.874  14.298  0.0134 -0.4627 -0.1255
 3760TIP3    H132771   2.613   0.907  14.235  0.6573 -0.6602 -0.9087
 3760TIP3    H232772   2.743   0.829  14.244  0.5817 -0.6369  0.6883
 3761TIP3   OH232773   3.611   4.450   4.609 -0.0061 -0.0182  0.1330
 3761TIP3    H132774   3.647   4.394   4.678  1.6543  1.5388  0.5884
 3761TIP3    H232775   3.552   4.510   4.655  2.0408  1.8345  0.4703
 3762TIP3   OH232776   5.785   1.719  13.905  0.0669  0.2335  0.2956
 3762TIP3    H132777   5.867   1.697  13.861 -0.5953  0.2477 -1.0149
 3762TIP3    H232778   5.811   1.761  13.986  1.3539 -1.5225  0.8527
 3763TIP3   OH232779   1.766   6.732   1.100  0.3165  0.1200 -0.7689
 3763TIP3    H132780   1.706   6.694   1.036 -0.7297  0.2169  0.1336
 3763TIP3    H232781   1.714   6.799   1.145  0.5923 -0.8817  1.1182
 3764TIP3   OH232782   0.980   4.988  16.243  0.3577  0.3838 -0.5952
 3764TIP3    H132783   0.887   5.011  16.241  0.2290  0.1142  0.8324
 3764TIP3    H232784   1.022   5.063  16.284  0.8868  0.7874 -1.8334
 3765TIP3   OH232785   6.739   2.336  11.458  0.0451 -0.4761  0.7025
 3765TIP3    H132786   6.763   2.329  11.550  0.9067 -0.7746  0.4654
 3765TIP3    H232787   6.772   2.422  11.431 -0.8308 -0.0814  0.8358
 3766TIP3   OH232788   3.498   6.510  11.795  0.0105  0.6821 -0.5289
 3766TIP3    H132789   3.470   6.602  11.796 -2.6260  0.0532 -2.5012
 3766TIP3    H232790   3.450   6.469  11.868 -0.5883  0.5042 -1.0063
 3767TIP3   OH232791   0.434   5.189   3.413  0.0174  0.7873 -0.3396
 3767TIP3    H132792   0.436   5.219   3.504  0.3213  0.2570 -0.1694
 3767TIP3    H232793   0.507   5.234   3.371  0.2336  0.5871 -0.1795
 3768TIP3   OH232794   4.436   5.455  10.838 -0.0505  0.2297  0.1953
 3768TIP3    H132795   4.499   5.527  10.831  1.0622 -0.7529 -0.5588
 3768TIP3    H232796   4.490   5.379  10.862 -0.6765 -0.9633 -1.9004
 3769TIP3   OH232797   2.805   5.089  15.219  0.1389  0.6616  0.1524
 3769TIP3    H132798   2.745   5.028  15.261 -0.1623  0.9214  0.1038
 3769TIP3    H232799   2.795   5.072  15.125  1.1254 -0.2151  0.1859
 3770TIP3   OH232800   6.717   5.858  12.964 -0.0523  0.3485  0.4121
 3770TIP3    H132801   6.756   5.936  13.001  0.7592 -0.1416  0.6126
 3770TIP3    H232802   6.680   5.811  13.039  1.2532 -0.4522  0.5957
 3771TIP3   OH232803   2.579   1.726  14.680 -0.1561 -0.0266  0.1155
 3771TIP3    H132804   2.613   1.734  14.591  1.4797 -0.7905  0.6250
 3771TIP3    H232805   2.621   1.799  14.727  0.1605 -0.4986  0.5734
 3772TIP3   OH232806   5.179   6.592   1.629 -0.3325 -0.3108  0.5818
 3772TIP3    H132807   5.110   6.528   1.610 -1.4314  0.4285  1.9735
 3772TIP3    H232808   5.133   6.671   1.656  1.0564  0.2980  1.2928
 3773TIP3   OH232809   6.821   5.131  16.558  0.5834 -0.5115  0.0892
 3773TIP3    H132810   6.768   5.141  16.479  0.8559  0.0252 -0.0260
 3773TIP3    H232811   6.911   5.136  16.527  0.6969  1.4642  0.6512
 3774TIP3   OH232812   5.847   5.825   3.064  0.2512 -0.2864 -0.7006
 3774TIP3    H132813   5.935   5.856   3.086 -0.7449  1.6647  0.8699
 3774TIP3    H232814   5.806   5.805   3.149 -1.4116  0.6646 -1.2253
 3775TIP3   OH232815   1.639   5.445  12.784 -0.2643  0.4020  0.0367
 3775TIP3    H132816   1.684   5.362  12.802  0.6500  1.2894  2.1314
 3775TIP3    H232817   1.652   5.459  12.690 -0.8496 -2.0308 -0.4785
 3776TIP3   OH232818   2.258   4.413  14.057 -0.4378  0.5445  0.5817
 3776TIP3    H132819   2.252   4.500  14.097 -1.0431  0.3314  0.9696
 3776TIP3    H232820   2.346   4.382  14.080  0.0067  1.3004 -0.0831
 3777TIP3   OH232821   3.095   4.126  14.017 -0.1803 -0.2122  0.5558
 3777TIP3    H132822   3.059   4.062  13.955  0.3668  0.8678 -0.9198
 3777TIP3    H232823   3.176   4.086  14.048  0.7196  0.1842 -1.1780
 3778TIP3   OH232824   4.862   6.693   0.977  0.6338 -0.1494  1.2576
 3778TIP3    H132825   4.780   6.736   1.003  0.3015 -0.9573  1.5588
 3778TIP3    H232826   4.926   6.727   1.038  0.8338  1.5092  0.2109
 3779TIP3   OH232827   5.956   4.422  12.414  0.4236  0.4313  0.2145
 3779TIP3    H132828   5.979   4.361  12.485 -1.2617 -4.0391 -2.6375
 3779TIP3    H232829   5.885   4.475  12.450  0.7195 -0.5209  2.3637
 3780TIP3   OH232830   1.654   2.455  13.045 -0.0984 -0.2295 -0.3316
 3780TIP3    H132831   1.691   2.374  13.079  1.6351  0.6755  0.0697
 3780TIP3    H232832   1.689   2.462  12.956  1.0716  0.8282  0.1821
 3781TIP3   OH232833   5.801   2.170  14.485 -0.1153 -0.2236 -0.1183
 3781TIP3    H132834   5.823   2.084  14.450 -1.9604 -0.3393 -1.1561
 3781TIP3    H232835   5.712   2.159  14.520 -0.3539  1.2211 -0.2042
 3782TIP3   OH232836   1.915   1.400  15.552 -0.6458  0.1299  0.6546
 3782TIP3    H132837   1.878   1.391  15.464 -1.0511  1.3894  0.6719
 3782TIP3    H232838   1.995   1.347  15.549  0.5643  1.8843 -1.2266
 3783TIP3   OH232839   3.297   4.217  12.725  0.1975  0.0616 -0.1990
 3783TIP3    H132840   3.239   4.292  12.734 -0.9822 -1.0203  2.4535
 3783TIP3    H232841   3.244   4.151  12.680  0.3731 -0.0157 -0.2948
 3784TIP3   OH232842   2.217   5.457  16.074 -0.4176  0.2042  0.7729
 3784TIP3    H132843   2.289   5.515  16.050 -1.1386  0.4262 -1.0347
 3784TIP3    H232844   2.259   5.379  16.110  0.9222 -0.6226 -2.2433
 3785TIP3   OH232845   4.642   2.638  16.059  0.3443 -0.0872  0.1192
 3785TIP3    H132846   4.561   2.591  16.042  0.9041 -2.0576  2.4297
 3785TIP3    H232847   4.699   2.614  15.986 -1.1782  1.7317 -1.8219
 3786TIP3   OH232848   2.899   5.911  15.713  0.3431  0.4017  0.4112
 3786TIP3    H132849   2.846   5.990  15.705  0.0802  0.5029  2.4353
 3786TIP3    H232850   2.873   5.874  15.797  1.7953 -0.8334  0.3609
 3787TIP3   OH232851   0.837   1.502  16.881  0.3177 -0.3751 -0.3082
 3787TIP3    H132852   0.787   1.504  16.963  0.1674 -0.2730 -0.4027
 3787TIP3    H232853   0.794   1.565  16.824 -0.7097 -1.7467 -1.1241
 3788TIP3   OH232854   2.805   3.573   4.156 -0.9483  0.5024 -0.2283
 3788TIP3    H132855   2.806   3.613   4.243  1.3827 -0.7079  0.3643
 3788TIP3    H232856   2.766   3.640   4.099  1.3282  3.0172  0.9758
 3789TIP3   OH232857   4.757   5.423  15.060 -0.5192  0.2668 -0.1194
 3789TIP3    H132858   4.794   5.335  15.054 -1.8710 -0.4707  1.5566
 3789TIP3    H232859   4.714   5.426  15.146 -0.1024  2.7370  0.0915
 3790TIP3   OH232860   0.110   5.201  17.030  0.0863 -0.7292  0.3601
 3790TIP3    H132861   0.129   5.232  16.941 -1.6937 -1.0572 -0.1799
 3790TIP3    H232862   0.121   5.106  17.025 -1.0248 -0.8592  0.1952
 3791TIP3   OH232863   6.318   2.599   4.563  0.2502  0.1815  0.2346
 3791TIP3    H132864   6.234   2.644   4.577  0.6799  1.5318 -1.3070
 3791TIP3    H232865   6.384   2.664   4.584  0.9536 -0.7644  1.0738
 3792TIP3   OH232866   4.441   5.229   4.816 -0.1884 -0.3318  0.0686
 3792TIP3    H132867   4.412   5.313   4.781  0.5160  0.2869  0.9312
 3792TIP3    H232868   4.360   5.185   4.842 -0.5052  0.4633  0.4569
 3793TIP3   OH232869   1.302   6.430   5.927 -0.6105 -0.0318 -0.2565
 3793TIP3    H132870   1.393   6.429   5.958 -0.9252 -0.7929  0.6723
 3793TIP3    H232871   1.296   6.352   5.871 -0.6982  0.0279 -0.3303
 3794TIP3   OH232872   1.632   2.871   5.064  0.1858 -0.2306  0.1793
 3794TIP3    H132873   1.566   2.935   5.036 -1.0918 -0.2733  2.7891
 3794TIP3    H232874   1.711   2.897   5.018 -1.1009  1.1709 -1.3969
 3795TIP3   OH232875   0.948   5.694   5.600 -0.1222 -0.0698 -0.1391
 3795TIP3    H132876   1.042   5.699   5.580 -0.2652 -1.4398 -1.3243
 3795TIP3    H232877   0.940   5.734   5.687  1.3433  1.2820 -0.5856
 3796TIP3   OH232878   0.733   3.748  14.564  0.1314  0.2691 -0.4707
 3796TIP3    H132879   0.827   3.760  14.557  0.2160  0.3256  0.6954
 3796TIP3    H232880   0.708   3.709  14.480  1.0755  0.9044 -1.0701
 3797TIP3   OH232881   3.722   2.397   3.221  0.0784 -0.1732 -0.1358
 3797TIP3    H132882   3.720   2.479   3.172  2.5869 -1.4482 -2.6395
 3797TIP3    H232883   3.814   2.385   3.244 -0.6447 -0.9556  2.7611
 3798TIP3   OH232884   5.198   0.901  14.137  0.0240 -0.4337 -0.2108
 3798TIP3    H132885   5.133   0.964  14.106 -0.9456 -2.1950 -1.9659
 3798TIP3    H232886   5.279   0.951  14.142 -0.5344  0.7941 -2.3067
 3799TIP3   OH232887   6.301   2.333   4.142  0.2271 -0.1917 -0.1599
 3799TIP3    H132888   6.355   2.278   4.199 -0.8163 -2.4589 -1.2117
 3799TIP3    H232889   6.360   2.363   4.073  0.2448 -2.8242 -1.4229
 3800TIP3   OH232890   0.071   4.287   4.558 -0.0530  0.8609 -0.3778
 3800TIP3    H132891  -0.024   4.285   4.549 -0.0623  0.1089 -0.2341
 3800TIP3    H232892   0.097   4.374   4.528 -0.9223  1.6144  0.9655
 3801TIP3   OH232893   6.534   5.124  13.281 -0.1449  0.5248 -0.4760
 3801TIP3    H132894   6.517   5.115  13.187  0.3838  3.6421 -0.9655
 3801TIP3    H232895   6.629   5.137  13.287 -0.3259  1.6312  0.3347
 3802TIP3   OH232896   6.250   4.342  15.296  0.6384 -0.6690 -0.2456
 3802TIP3    H132897   6.163   4.305  15.306  1.6727 -3.5774 -0.8321
 3802TIP3    H232898   6.266   4.389  15.378 -0.8466 -1.4692  0.5429
 3803TIP3   OH232899   3.554   0.928   2.356 -0.4806  0.6135 -0.6243
 3803TIP3    H132900   3.530   0.865   2.288  0.5258 -0.4063 -0.0649
 3803TIP3    H232901   3.634   0.970   2.322  0.6672 -0.6887  0.3813
 3804TIP3   OH232902   2.209   5.105   3.053  0.2951 -0.0648 -0.0149
 3804TIP3    H132903   2.163   5.145   2.979  1.4398 -0.2423 -0.8507
 3804TIP3    H232904   2.146   5.043   3.090  0.0359 -0.7158 -1.4773
 3805TIP3   OH232905   3.670   4.548   3.062  0.2743  0.2321  0.2842
 3805TIP3    H132906   3.684   4.608   2.989 -1.9681  1.3063  0.6491
 3805TIP3    H232907   3.732   4.577   3.129  0.3930  1.0572 -0.1672
 3806TIP3   OH232908   4.810   3.127  12.198  0.4200 -0.2300  0.4013
 3806TIP3    H132909   4.844   3.136  12.287  0.5032  0.0270  0.3436
 3806TIP3    H232910   4.715   3.126  12.208  0.4367 -1.3713  0.6067
 3807TIP3   OH232911   0.764   4.661   1.127  0.2770  0.0498  0.2516
 3807TIP3    H132912   0.671   4.654   1.103  0.3112  0.5731 -0.0549
 3807TIP3    H232913   0.796   4.736   1.077  1.2704 -1.0816 -0.9118
 3808TIP3   OH232914   2.923   0.933   1.328 -0.5059 -0.4348  0.7227
 3808TIP3    H132915   2.830   0.944   1.349 -0.8973 -1.2348 -0.4811
 3808TIP3    H232916   2.968   0.948   1.411 -1.5965  1.2497  1.0708
 3809TIP3   OH232917   0.967   0.688   1.489  0.3555 -0.1178 -0.1939
 3809TIP3    H132918   0.913   0.695   1.567  2.2785 -2.6321  1.4875
 3809TIP3    H232919   1.016   0.770   1.487 -0.4776  0.4213  0.6129
 3810TIP3   OH232920   0.655   3.018  13.829 -0.4248 -0.3063  0.3477
 3810TIP3    H132921   0.579   3.068  13.858 -0.2656 -0.9150  1.9051
 3810TIP3    H232922   0.687   3.065  13.752 -0.7012  1.5843  1.3432
 3811TIP3   OH232923   4.264   5.334   0.190  0.0905 -0.3460 -0.0925
 3811TIP3    H132924   4.244   5.243   0.211  0.2214 -0.1117  1.0978
 3811TIP3    H232925   4.202   5.385   0.242  0.6866  0.2653  0.0383
 3812TIP3   OH232926   5.393   3.637   0.781  0.2754 -0.0540  0.3279
 3812TIP3    H132927   5.422   3.602   0.697  0.2587  1.8452 -0.5096
 3812TIP3    H232928   5.444   3.717   0.793 -0.6798  0.4075  1.4878
 3813TIP3   OH232929   0.227   3.988   2.505 -0.5187 -0.1556 -0.5312
 3813TIP3    H132930   0.145   4.011   2.461 -1.3407  0.8542  1.3766
 3813TIP3    H232931   0.253   3.905   2.466 -2.9382 -0.9608 -0.6105
 3814TIP3   OH232932   6.669   0.875  11.602  0.1944  0.0117 -0.1534
 3814TIP3    H132933   6.765   0.877  11.610  0.0535 -0.4092  2.7078
 3814TIP3    H232934   6.649   0.783  11.584  0.2738 -0.3546  1.4663
 3815TIP3   OH232935   0.188   3.565   1.598  0.4533 -0.3820  0.2305
 3815TIP3    H132936   0.202   3.589   1.689  1.4815 -0.5374  0.1205
 3815TIP3    H232937   0.175   3.470   1.600  1.3221 -0.5090  0.1308
 3816TIP3   OH232938   2.785   4.157   0.988 -0.3996  0.1106 -0.5450
 3816TIP3    H132939   2.871   4.115   0.982 -0.3050  0.3487 -0.8337
 3816TIP3    H232940   2.804   4.248   1.009 -0.5582  0.2921 -1.1761
 3817TIP3   OH232941   2.246   1.342  10.746 -0.1791 -0.5765  0.4159
 3817TIP3    H132942   2.323   1.285  10.735  0.7956  0.6920  0.4219
 3817TIP3    H232943   2.273   1.406  10.811 -1.3364 -0.2267  0.5711
 3818TIP3   OH232944   2.486   0.045  11.188 -0.5664 -0.2770  0.4531
 3818TIP3    H132945   2.536   0.016  11.264  0.4115  2.0137  0.7582
 3818TIP3    H232946   2.546   0.032  11.114 -0.2965  0.4575  0.5319
 3819TIP3   OH232947   5.463   3.069   0.595 -0.3223 -0.5073  0.8641
 3819TIP3    H132948   5.505   3.049   0.679  1.1759 -0.6392  0.1057
 3819TIP3    H232949   5.535   3.083   0.535 -1.3755 -0.9960 -0.5587
 3820TIP3   OH232950   4.838   6.145   1.144 -0.2690  0.6025 -0.1060
 3820TIP3    H132951   4.771   6.077   1.148  0.1808  0.0322 -1.4817
 3820TIP3    H232952   4.906   6.108   1.088  1.2306  1.1460  1.2586
 3821TIP3   OH232953   5.253   2.341   5.056  0.1736  0.3258  0.2386
 3821TIP3    H132954   5.207   2.273   5.007  1.4467 -0.1437 -0.3529
 3821TIP3    H232955   5.227   2.328   5.147 -1.1149  0.2983 -0.1161
 3822TIP3   OH232956   2.144   5.312  16.822 -0.5443 -0.2873 -0.4218
 3822TIP3    H132957   2.149   5.219  16.842  1.4888 -0.6085 -2.0437
 3822TIP3    H232958   2.159   5.356  16.906  1.8063 -1.4778 -0.1401
 3823TIP3   OH232959   6.423   3.212   2.927  0.0851  0.4991  0.3376
 3823TIP3    H132960   6.485   3.147   2.895 -0.2660  0.0593  0.5461
 3823TIP3    H232961   6.421   3.200   3.022  1.0667  1.7505  0.5543
 3824TIP3   OH232962   5.165   5.723  10.856 -0.0520  0.0520 -0.4971
 3824TIP3    H132963   5.238   5.669  10.826  0.1240 -0.0358  0.0822
 3824TIP3    H232964   5.092   5.662  10.866 -0.3197  0.2024 -1.4459
 3825TIP3   OH232965   3.297   6.342   2.244  0.1032 -0.4857  0.6584
 3825TIP3    H132966   3.275   6.421   2.195 -0.1111  0.7873  2.7094
 3825TIP3    H232967   3.255   6.271   2.196 -0.1739  0.6955 -0.9126
 3826TIP3   OH232968   2.994   3.060   2.057  0.6109  0.2338 -0.0004
 3826TIP3    H132969   3.016   3.151   2.075  0.2893  0.3424 -0.1569
 3826TIP3    H232970   2.995   3.053   1.961  0.8103  0.0294  0.0144
 3827TIP3   OH232971   1.462   2.859   1.366 -0.1701 -0.0166  1.0431
 3827TIP3    H132972   1.445   2.768   1.343 -0.6032  0.0684  1.0039
 3827TIP3    H232973   1.411   2.909   1.302  0.9273  0.2775  0.3842
 3828TIP3   OH232974   3.066   2.575   6.207 -0.3559 -0.7485  0.3526
 3828TIP3    H132975   3.001   2.578   6.277 -1.4577  2.1433 -0.6272
 3828TIP3    H232976   3.081   2.667   6.185  0.6688 -1.4959 -2.5284
 3829TIP3   OH232977   4.381   6.303  15.406  0.2543 -0.4460  0.0708
 3829TIP3    H132978   4.425   6.367  15.349  0.3817 -0.2301  0.4083
 3829TIP3    H232979   4.335   6.357  15.471  1.8906 -0.6988  1.5097
 3830TIP3   OH232980   4.041   1.238  12.330 -0.1821  0.7668 -0.0189
 3830TIP3    H132981   4.036   1.293  12.252 -0.4009 -0.2578 -0.7454
 3830TIP3    H232982   4.133   1.210  12.333 -0.3869  0.0378 -0.4558
 3831TIP3   OH232983   4.855   2.781   4.958 -0.2249  0.0859 -0.7318
 3831TIP3    H132984   4.889   2.870   4.970 -0.6829  0.1643  0.0349
 3831TIP3    H232985   4.771   2.782   5.002 -0.6191 -0.4968 -1.4498
 3832TIP3   OH232986   1.995   6.778   1.950  0.4393  0.0693  0.2029
 3832TIP3    H132987   2.023   6.686   1.954  2.0966  0.4636 -1.0339
 3832TIP3    H232988   2.075   6.828   1.963 -0.0442  1.3213 -1.3518
 3833TIP3   OH232989   6.432   5.790   3.032 -0.1429  0.4910  1.0545
 3833TIP3    H132990   6.432   5.885   3.023  0.3914  0.4663  0.8029
 3833TIP3    H232991   6.417   5.775   3.126  0.3260  0.8314  1.1875
 3834TIP3   OH232992   0.672   3.750  12.904 -0.2917 -0.4951 -0.0554
 3834TIP3    H132993   0.634   3.824  12.856 -1.0799 -0.3107  0.8169
 3834TIP3    H232994   0.680   3.782  12.994  1.8139 -0.5937 -0.1661
 3835TIP3   OH232995   3.375   1.829   1.652 -0.0438 -0.6066 -0.4841
 3835TIP3    H132996   3.461   1.802   1.685  0.7918  0.1536 -1.9054
 3835TIP3    H232997   3.314   1.764   1.686  0.8437 -0.3252  1.8038
 3836TIP3   OH232998   2.006   2.332  13.556  0.0455  0.2727  0.1236
 3836TIP3    H132999   2.043   2.420  13.555  1.6905 -0.3891 -0.3366
 3836TIP3    H233000   1.993   2.310  13.464  1.0676 -0.5225  0.1578
 3837TIP3   OH233001   4.238   2.398   5.923 -0.0871 -0.4618  0.1631
 3837TIP3    H133002   4.261   2.449   6.000  0.8993  0.1319 -0.5075
 3837TIP3    H233003   4.313   2.340   5.910 -0.2979 -0.6357 -0.2880
 3838TIP3   OH233004   4.481   5.253   3.981 -0.2792  0.1579  0.4192
 3838TIP3    H133005   4.485   5.279   3.889 -1.9398 -1.7001 -0.2501
 3838TIP3    H233006   4.455   5.333   4.028 -2.2960  0.5093 -1.1424
 3839TIP3   OH233007   2.938   1.239  11.873  0.1279 -0.1601  0.9422
 3839TIP3    H133008   2.969   1.289  11.948  3.1906  0.0184 -0.3089
 3839TIP3    H233009   2.962   1.149  11.892 -0.9441 -0.4391  1.0368
 3840TIP3   OH233010   3.802   6.575   1.806 -0.2901  0.1061  0.2227
 3840TIP3    H133011   3.749   6.654   1.818 -0.9926 -0.5609  1.8166
 3840TIP3    H233012   3.892   6.606   1.807 -0.5648  0.9221  0.5022
 3841TIP3   OH233013   0.089   1.930   2.432 -0.0973  0.4612 -0.0418
 3841TIP3    H133014   0.066   1.930   2.339 -2.2845  1.7671  0.4473
 3841TIP3    H233015   0.038   1.859   2.470 -1.7888  1.9717  0.6687
 3842TIP3   OH233016   4.823   2.858   1.063 -0.3732 -0.5486  0.5236
 3842TIP3    H133017   4.801   2.860   0.970 -3.0208  2.3676  1.0222
 3842TIP3    H233018   4.912   2.824   1.066 -0.8033 -2.4259 -2.8685
 3843TIP3   OH233019   4.410   4.610  13.068  0.2592  0.5028  0.0345
 3843TIP3    H133020   4.425   4.703  13.054 -0.3199  0.8248  1.4442
 3843TIP3    H233021   4.498   4.574  13.082  0.3401  1.1983  1.4840
 3844TIP3   OH233022   2.849   1.709   2.972 -0.1200 -0.1458 -0.1327
 3844TIP3    H133023   2.757   1.724   2.991  0.5279  3.3264  0.9225
 3844TIP3    H233024   2.894   1.722   3.055  1.6721  2.9934 -1.4220
 3845TIP3   OH233025   1.085   5.469   0.601  0.2847  0.1439  0.0825
 3845TIP3    H133026   1.106   5.520   0.523  1.3671 -0.1674  0.1542
 3845TIP3    H233027   1.170   5.449   0.640 -0.2296  0.0026  1.1561
 3846TIP3   OH233028   3.319   4.751  15.967 -0.2161  0.1704  0.5665
 3846TIP3    H133029   3.380   4.769  15.896 -1.1253  1.6892  0.1069
 3846TIP3    H233030   3.369   4.764  16.047  0.4825 -0.2611  0.2014
 3847TIP3   OH233031   5.915   2.827  14.917 -0.1160 -0.0102 -0.9297
 3847TIP3    H133032   5.938   2.760  14.853 -0.0492 -0.0706 -0.8428
 3847TIP3    H233033   5.985   2.892  14.909  0.9965 -0.9871  0.4877
 3848TIP3   OH233034   1.008   0.672   3.366 -0.0965 -0.1963 -0.0016
 3848TIP3    H133035   0.975   0.747   3.317 -0.9893 -0.1254  0.6772
 3848TIP3    H233036   0.986   0.596   3.312 -0.7558 -0.0931  0.1157
 3849TIP3   OH233037   6.461   5.946   4.125  0.2020 -0.2725  0.2124
 3849TIP3    H133038   6.473   5.919   4.216  1.3840  0.8671  0.4163
 3849TIP3    H233039   6.433   6.037   4.131  0.5891 -0.0954 -0.5648
 3850TIP3   OH233040   0.690   5.228  12.518 -0.2035  0.3822 -0.4336
 3850TIP3    H133041   0.601   5.214  12.550  0.1192 -0.4653  0.1200
 3850TIP3    H233042   0.687   5.203  12.425 -0.6308  0.7372 -0.5154
 3851TIP3   OH233043   2.844   2.841   1.131 -0.0385  0.0878 -0.2680
 3851TIP3    H133044   2.837   2.916   1.190 -4.6245  1.3810 -2.0019
 3851TIP3    H233045   2.852   2.880   1.044 -0.8906 -1.4551 -1.0811
 3852TIP3   OH233046   5.100   1.470   5.473 -0.1978 -0.0547  0.0668
 3852TIP3    H133047   5.119   1.380   5.446 -0.7005  0.2320 -1.3161
 3852TIP3    H233048   5.007   1.471   5.493 -0.6511  0.5958 -1.8957
 3853TIP3   OH233049   2.814   2.422  12.737  0.0985  0.3638  0.2189
 3853TIP3    H133050   2.756   2.386  12.804  0.5565 -0.7319  0.0517
 3853TIP3    H233051   2.756   2.446  12.665 -0.1642 -0.7571  0.0367
 3854TIP3   OH233052   3.282   6.787  12.109 -0.0773 -0.0326  0.6532
 3854TIP3    H133053   3.231   6.840  12.171 -0.8090  3.7976 -2.7402
 3854TIP3    H233054   3.358   6.758  12.158 -2.3916 -0.6019  4.2629
 3855TIP3   OH233055   2.096   1.622   0.485  0.2456  0.8592  0.5489
 3855TIP3    H133056   2.169   1.560   0.490 -1.0415 -0.6997  0.9795
 3855TIP3    H233057   2.138   1.708   0.487  2.2412  0.0733 -1.8927
 3856TIP3   OH233058   0.799   3.747   1.647 -0.4892 -0.0881  0.1443
 3856TIP3    H133059   0.747   3.667   1.642 -0.3724 -0.0968 -1.2749
 3856TIP3    H233060   0.844   3.752   1.563  2.1093 -0.2603  1.4155
 3857TIP3   OH233061   5.214   3.060   5.898 -0.2771  0.6879  0.7016
 3857TIP3    H133062   5.228   3.000   5.825 -0.5263 -0.2934  1.4450
 3857TIP3    H233063   5.131   3.033   5.936 -0.4253  1.5531  1.0066
 3858TIP3   OH233064   2.252   3.893  14.705 -0.0878  0.2849  0.0871
 3858TIP3    H133065   2.225   3.939  14.625  0.5751 -1.0629 -0.9532
 3858TIP3    H233066   2.170   3.864  14.745 -0.3931  0.2037 -0.5848
 3859TIP3   OH233067   5.932   1.585   3.996  0.0459 -0.5834  0.4076
 3859TIP3    H133068   5.975   1.610   4.078 -1.7520  1.6862  0.7551
 3859TIP3    H233069   5.996   1.606   3.928 -0.1347  2.0798  0.9432
 3860TIP3   OH233070   2.226   3.271  14.629  0.6927  0.0920  0.0314
 3860TIP3    H133071   2.196   3.271  14.538  0.2611  0.1049  0.1683
 3860TIP3    H233072   2.274   3.353  14.639 -1.0102  1.1059  0.3619
 3861TIP3   OH233073   4.917   4.601  16.570 -0.2176  0.0066 -0.1443
 3861TIP3    H133074   4.864   4.618  16.492  0.6148  0.9640 -0.5385
 3861TIP3    H233075   4.967   4.523  16.548 -1.5155 -0.9801  0.2818
 3862TIP3   OH233076   6.269   5.032   5.996 -0.0027 -0.0980  0.0392
 3862TIP3    H133077   6.329   4.964   6.024 -0.4189 -0.5236 -0.0853
 3862TIP3    H233078   6.269   5.096   6.067 -0.1919 -0.6066  0.5039
 3863TIP3   OH233079   1.585   3.754   0.744 -0.0627 -0.0850 -0.2032
 3863TIP3    H133080   1.527   3.685   0.712  0.2989  0.2922 -1.8014
 3863TIP3    H233081   1.646   3.769   0.671  1.8670 -0.2626  1.2897
 3864TIP3   OH233082   4.922   4.400   1.003 -0.0955  0.4379  0.5076
 3864TIP3    H133083   4.888   4.489   1.012  0.0246  0.4718  0.6100
 3864TIP3    H233084   4.955   4.377   1.089 -2.1616 -0.5405  1.1075
 3865TIP3   OH233085   5.149   2.833  14.753 -0.5699  0.1447 -0.2155
 3865TIP3    H133086   5.194   2.888  14.690  3.4461 -0.6341  1.6527
 3865TIP3    H233087   5.075   2.796  14.704 -0.0457  2.5923 -3.1739
 3866TIP3   OH233088   0.745   2.352  14.935  0.3359  0.2279 -0.3974
 3866TIP3    H133089   0.819   2.355  14.874 -0.6581 -0.0785 -1.6711
 3866TIP3    H233090   0.704   2.266  14.919 -0.7975  0.7369 -0.3564
 3867TIP3   OH233091   2.411   6.414  12.634  0.2534  0.4519 -0.0669
 3867TIP3    H133092   2.460   6.443  12.557  1.3067 -2.1377 -0.4594
 3867TIP3    H233093   2.322   6.400  12.602  0.6612 -0.5103 -0.8378
 3868TIP3   OH233094   5.394   2.453  17.124 -0.6497  0.2147  0.3572
 3868TIP3    H133095   5.472   2.488  17.168 -1.3987  0.7267  1.3287
 3868TIP3    H233096   5.323   2.470  17.186 -1.4269 -0.8600 -0.2238
 3869TIP3   OH233097   1.313   2.466  12.668  0.1545  0.0588 -0.3134
 3869TIP3    H133098   1.335   2.413  12.592 -0.6864  0.1663 -0.6479
 3869TIP3    H233099   1.236   2.516  12.640 -2.2569 -2.2931  1.6383
 3870TIP3   OH233100   0.815   6.139   1.187 -0.1467 -0.5978  0.2514
 3870TIP3    H133101   0.850   6.138   1.276 -0.3737 -2.8953  0.3536
 3870TIP3    H233102   0.818   6.048   1.158 -0.7016 -0.0019 -1.8618
 3871TIP3   OH233103   1.595   1.968   4.055  0.1621 -0.0314 -0.1471
 3871TIP3    H133104   1.559   1.907   4.119 -0.5671 -0.8081 -1.2667
 3871TIP3    H233105   1.686   1.980   4.083 -0.0246 -0.6642  0.7960
 3872TIP3   OH233106   6.337   1.978   0.541  0.3102  0.3545 -0.0959
 3872TIP3    H133107   6.290   2.045   0.492  0.3682  0.9985  0.7290
 3872TIP3    H233108   6.331   2.005   0.632 -1.4824 -1.8630  0.5312
 3873TIP3   OH233109   0.403   4.752   4.447  0.3427  0.0273 -0.0265
 3873TIP3    H133110   0.373   4.749   4.537  1.1527  1.6789  0.3556
 3873TIP3    H233111   0.495   4.780   4.454  1.1305 -2.0269 -1.2700
 3874TIP3   OH233112   0.242   5.924   4.810 -0.1062 -0.0771  0.5751
 3874TIP3    H133113   0.166   5.893   4.760  2.5704 -3.2051 -2.0118
 3874TIP3    H233114   0.247   5.864   4.885  1.2478 -1.7740 -0.7838
 3875TIP3   OH233115   5.243   1.952  15.873  0.5305 -0.2747 -0.4607
 3875TIP3    H133116   5.275   1.946  15.963 -0.3972  0.8867 -0.0201
 3875TIP3    H233117   5.276   1.873  15.830  1.1581 -0.7483  0.8385
 3876TIP3   OH233118   1.232   0.388   2.363  0.3822  0.5915  0.0382
 3876TIP3    H133119   1.170   0.332   2.409  1.4029 -0.5297  0.0927
 3876TIP3    H233120   1.244   0.464   2.421  1.2184 -0.5269  1.3820
 3877TIP3   OH233121   1.412   3.714  17.027 -0.6459  0.2060  0.6113
 3877TIP3    H133122   1.453   3.797  17.053  1.8632 -0.4381 -0.9656
 3877TIP3    H233123   1.350   3.738  16.958 -0.3205  0.8469  0.5323
 3878TIP3   OH233124   3.825   1.646  13.613  0.0442 -0.2030  0.6094
 3878TIP3    H133125   3.808   1.587  13.540 -1.0546 -2.5846  2.6518
 3878TIP3    H233126   3.918   1.670  13.603 -0.4815  1.1229 -2.5112
 3879TIP3   OH233127   5.667   6.371   5.586  0.4606 -0.4365  0.7119
 3879TIP3    H133128   5.726   6.420   5.529  0.3230 -0.6927  0.3480
 3879TIP3    H233129   5.666   6.282   5.550 -1.4571 -0.0459 -0.3160
 3880TIP3   OH233130   3.160   1.401   5.020  0.8325 -0.4578  0.2989
 3880TIP3    H133131   3.164   1.370   5.110  0.1337 -0.3094  0.3866
 3880TIP3    H233132   3.118   1.487   5.026  4.2041  1.3908  0.2795
 3881TIP3   OH233133   3.777   1.312   4.472  0.1318  0.1078  0.2882
 3881TIP3    H133134   3.862   1.330   4.434 -0.1383 -0.9992 -0.9057
 3881TIP3    H233135   3.714   1.335   4.402 -0.4874 -0.1035  0.7661
 3882TIP3   OH233136   1.499   5.034   2.772  0.4045  0.3131  0.1260
 3882TIP3    H133137   1.434   5.067   2.711  0.3250 -1.8011 -1.0268
 3882TIP3    H233138   1.537   5.113   2.812 -1.3512  1.6499 -0.7218
 3883TIP3   OH233139   1.447   4.795   2.243 -0.3415  0.3344 -0.1930
 3883TIP3    H133140   1.486   4.872   2.283 -3.8271  1.1825  2.0503
 3883TIP3    H233141   1.507   4.723   2.264  0.0726  1.4724  3.0842
 3884TIP3   OH233142   3.685   5.275   3.059 -0.8041  0.2780 -0.2237
 3884TIP3    H133143   3.738   5.305   3.133 -0.5787 -0.5050 -0.0560
 3884TIP3    H233144   3.717   5.325   2.984  1.7250 -1.7151 -0.5851
 3885TIP3   OH233145   1.296   5.292   2.883  0.3076  0.0483 -0.0087
 3885TIP3    H133146   1.242   5.369   2.894 -0.2247 -0.3844  0.4973
 3885TIP3    H233147   1.290   5.246   2.967  1.6524  0.1146  0.1448
 3886TIP3   OH233148   5.688   4.267   1.884 -0.3027  0.1441  0.2677
 3886TIP3    H133149   5.665   4.251   1.976  1.8196 -1.1235  0.6426
 3886TIP3    H233150   5.781   4.290   1.886 -0.0262 -0.6215 -1.6331
 3887TIP3   OH233151   6.149   0.996   0.126  0.3625  0.2532 -0.8127
 3887TIP3    H133152   6.168   1.020   0.216  0.2580  0.9788 -0.9770
 3887TIP3    H233153   6.214   1.045   0.074 -0.3220  0.7500 -1.2085
 3888TIP3   OH233154   5.480   5.251  15.318 -0.0149 -0.0612 -0.4261
 3888TIP3    H133155   5.456   5.214  15.403 -0.4092 -0.5089 -0.7255
 3888TIP3    H233156   5.523   5.334  15.339 -1.2162  0.4372  0.1642
 3889TIP3   OH233157   1.079   2.438  15.029  0.2449 -0.0894 -0.1345
 3889TIP3    H133158   1.078   2.349  15.062 -0.9633  0.2082  0.7138
 3889TIP3    H233159   1.086   2.493  15.107 -2.2812  0.6301 -0.3259
 3890TIP3   OH233160   1.367   4.241   2.945  0.2219 -0.3112  0.1535
 3890TIP3    H133161   1.381   4.183   2.870  1.5532  1.1963 -0.8549
 3890TIP3    H233162   1.449   4.291   2.952 -1.1215  2.0007  0.4319
 3891TIP3   OH233163   5.138   5.336  17.026 -0.1553 -0.2296  0.1607
 3891TIP3    H133164   5.126   5.340  17.121 -0.1856  1.6784  0.1146
 3891TIP3    H233165   5.068   5.390  16.990  2.3123  2.8126 -0.6296
 3892TIP3   OH233166   2.492   3.371  10.600  0.2037  0.1002 -0.3710
 3892TIP3    H133167   2.528   3.303  10.542  0.1302  1.0722 -1.5817
 3892TIP3    H233168   2.545   3.448  10.582  0.2614  0.4003  0.9730
 3893TIP3   OH233169   6.160   5.752  12.356 -0.0317  0.1528  0.0573
 3893TIP3    H133170   6.142   5.664  12.390 -2.1306  0.3200 -0.4419
 3893TIP3    H233171   6.245   5.775  12.393  0.5539 -2.0482  0.2438
 3894TIP3   OH233172   1.974   4.973  11.904 -0.5367  0.1642  0.1561
 3894TIP3    H133173   1.961   4.898  11.962  1.5486  0.1305  0.6547
 3894TIP3    H233174   1.936   4.946  11.821  0.9640 -1.8671  0.0483
 3895TIP3   OH233175   1.219   1.032   5.004  0.1935  0.1721  0.1417
 3895TIP3    H133176   1.286   1.098   4.984 -0.6030  1.4958  1.5951
 3895TIP3    H233177   1.181   1.061   5.087 -1.9827 -0.6984 -0.4881
 3896TIP3   OH233178   1.190   5.873   3.659 -0.3331  0.0713 -0.0797
 3896TIP3    H133179   1.118   5.935   3.651 -0.1758  0.2762  0.0798
 3896TIP3    H233180   1.245   5.889   3.582 -1.0026 -0.8013 -0.7610
 3897TIP3   OH233181   3.780   6.318  14.380  0.4953 -0.2585 -0.4669
 3897TIP3    H133182   3.735   6.242  14.345  0.9264  0.0363 -1.7267
 3897TIP3    H233183   3.720   6.391  14.365  1.2234  0.0918 -1.9176
 3898TIP3   OH233184   3.471   2.275  15.917  0.3880  0.1521  0.3479
 3898TIP3    H133185   3.560   2.251  15.943  0.1887  0.1763  1.0473
 3898TIP3    H233186   3.473   2.272  15.821  0.9606 -0.4932  0.3768
 3899TIP3   OH233187   2.279   1.487  16.300  0.4034 -0.7798  0.1004
 3899TIP3    H133188   2.374   1.478  16.301  0.4821  0.0460  0.1667
 3899TIP3    H233189   2.260   1.555  16.364 -0.1409 -0.1496 -0.7037
 3900TIP3   OH233190   2.819   0.980  16.930  0.4915  0.7717  0.1346
 3900TIP3    H133191   2.907   0.945  16.943 -0.6841 -1.7779  2.0300
 3900TIP3    H233192   2.831   1.052  16.868  3.4603 -1.5370 -2.3149
 3901TIP3   OH233193   2.606   2.334  12.877  0.2414  0.1507  0.1185
 3901TIP3    H133194   2.601   2.414  12.929 -0.1588  0.4862 -0.4194
 3901TIP3    H233195   2.516   2.305  12.869  0.3463 -0.1434 -0.0080
 3902TIP3   OH233196   4.244   6.312  13.645 -0.1907  0.3251  0.6388
 3902TIP3    H133197   4.217   6.282  13.557  0.1163 -1.3741  1.0855
 3902TIP3    H233198   4.178   6.377  13.669 -0.3571  0.7195 -0.7958
 3903TIP3   OH233199   3.103   1.721  15.280 -0.4069  0.0317 -0.0540
 3903TIP3    H133200   3.074   1.801  15.237  0.3782  0.8772  0.9344
 3903TIP3    H233201   3.047   1.653  15.244 -0.7139  0.9253 -1.3362
 3904TIP3   OH233202   0.017   4.604   5.608 -0.8190  0.6907 -0.3616
 3904TIP3    H133203   0.016   4.584   5.701 -1.8861 -0.2409 -0.5522
 3904TIP3    H233204  -0.016   4.694   5.603  0.4676  1.2206  0.2288
 3905TIP3   OH233205   1.156   0.050   1.211 -0.3922  0.5856 -0.2653
 3905TIP3    H133206   1.177   0.030   1.120 -1.5381  0.3700 -0.4982
 3905TIP3    H233207   1.181  -0.029   1.260  0.6863  0.8842 -0.2972
 3906TIP3   OH233208   6.479   6.661   4.319  0.0097  0.1077 -0.0188
 3906TIP3    H133209   6.541   6.606   4.270  0.2853 -0.0907  0.5498
 3906TIP3    H233210   6.485   6.629   4.409 -2.4845 -1.3702 -0.2933
 3907TIP3   OH233211   2.190   5.374  17.077  0.1989 -0.1822 -0.0718
 3907TIP3    H133212   2.170   5.467  17.069 -1.1272 -0.4488 -0.1570
 3907TIP3    H233213   2.282   5.371  17.100  0.2182  1.1603  0.1099
 3908TIP3   OH233214   5.746   3.279  14.386  0.0719 -0.0656 -0.3593
 3908TIP3    H133215   5.743   3.221  14.462 -3.6087  0.0154 -0.2755
 3908TIP3    H233216   5.727   3.223  14.311 -0.8561  0.5599 -0.6139
 3909TIP3   OH233217   2.409   5.780  14.163  0.0902  0.4484 -0.6413
 3909TIP3    H133218   2.320   5.810  14.178 -0.4419 -0.5892 -1.5836
 3909TIP3    H233219   2.439   5.748  14.249 -1.1164 -0.9060 -0.7049
 3910TIP3   OH233220   1.102   0.491  14.610 -0.0698 -0.2896 -0.0040
 3910TIP3    H133221   1.020   0.469  14.654  1.5250 -3.4724  1.7316
 3910TIP3    H233222   1.080   0.493  14.517 -2.4631  1.0645  0.5204
 3911TIP3   OH233223   5.221   0.110   2.589 -0.0007 -0.0345 -0.3832
 3911TIP3    H133224   5.234   0.109   2.684 -1.7675  3.6878  0.0955
 3911TIP3    H233225   5.288   0.051   2.555  1.8190 -0.2346  3.0731
 3912TIP3   OH233226   5.633   2.703   3.775 -0.7451 -0.6082  0.3475
 3912TIP3    H133227   5.723   2.674   3.786 -0.2424 -0.1573 -1.9584
 3912TIP3    H233228   5.587   2.671   3.852  1.5967  0.1279  2.1608
 3913TIP3   OH233229   2.981   5.645   2.583  0.5485  0.1912 -0.1748
 3913TIP3    H133230   3.005   5.693   2.504 -0.4928 -0.5094 -0.9500
 3913TIP3    H233231   2.962   5.556   2.553 -3.0381  0.6587  0.2394
 3914TIP3   OH233232   3.143   2.169  13.254 -0.3025 -0.1351 -0.0622
 3914TIP3    H133233   3.228   2.203  13.281  0.0881  0.4478 -1.9255
 3914TIP3    H233234   3.085   2.245  13.253 -1.2910 -0.7457  2.5924
 3915TIP3   OH233235   2.963   0.440  13.540  0.6530  0.2089  0.5156
 3915TIP3    H133236   2.902   0.370  13.517 -0.1671  0.1347  2.6649
 3915TIP3    H233237   2.977   0.488  13.459 -1.6703 -0.2629 -0.2373
 3916TIP3   OH233238   0.294   2.511  12.532 -0.5323 -0.2844 -0.2565
 3916TIP3    H133239   0.288   2.545  12.442 -0.2174  0.3946 -0.0262
 3916TIP3    H233240   0.253   2.425  12.527  0.5225 -0.7533 -1.3071
 3917TIP3   OH233241   5.577   6.518   5.963  0.5626  0.0313 -0.4477
 3917TIP3    H133242   5.647   6.472   5.917  0.6151 -0.2251 -0.1178
 3917TIP3    H233243   5.584   6.487   6.054  0.6199  0.7093 -0.2130
 3918TIP3   OH233244   4.281   0.596   3.613 -0.7866 -0.8766 -0.0055
 3918TIP3    H133245   4.221   0.550   3.554 -2.3779 -0.9406  1.6011
 3918TIP3    H233246   4.282   0.542   3.692 -0.0762  0.1315  0.6894
 3919TIP3   OH233247   1.163   2.523  11.493  0.5486 -0.5061 -0.0719
 3919TIP3    H133248   1.189   2.502  11.583 -1.6740 -1.7526  0.3627
 3919TIP3    H233249   1.141   2.616  11.495  2.8343  0.0758  0.0246
 3920TIP3   OH233250   3.273   5.495  13.214 -0.0771 -0.3613  0.6078
 3920TIP3    H133251   3.206   5.536  13.161  0.9644  0.1738 -0.3358
 3920TIP3    H233252   3.315   5.431  13.156  1.3973  0.5721  0.5815
 3921TIP3   OH233253   5.438   0.733   3.148 -0.1940 -0.4001 -0.1018
 3921TIP3    H133254   5.496   0.664   3.117  0.8610  0.9009 -1.1774
 3921TIP3    H233255   5.376   0.747   3.075 -1.0402 -0.8846  0.5112
 3922TIP3   OH233256   5.721   2.363   5.222 -0.2883  0.2277  0.4113
 3922TIP3    H133257   5.678   2.445   5.244 -0.5669 -0.3367  2.1133
 3922TIP3    H233258   5.651   2.307   5.189  0.1441  1.1033 -2.2058
 3923TIP3   OH233259   6.815   4.325  15.094 -0.0885  0.2320  0.1367
 3923TIP3    H133260   6.721   4.325  15.113 -0.2367  2.2928 -0.3230
 3923TIP3    H233261   6.857   4.344  15.178 -0.2312  1.2710 -0.0132
 3924TIP3   OH233262   6.192   3.403  12.575  0.0524  0.0835  0.8254
 3924TIP3    H133263   6.251   3.433  12.645  2.2745 -0.3348 -0.7463
 3924TIP3    H233264   6.136   3.338  12.617  2.6076 -1.5951  1.9046
 3925TIP3   OH233265   6.769   0.392  16.278  0.0247  0.0007 -0.0183
 3925TIP3    H133266   6.805   0.307  16.254  1.3227 -0.7806  3.9699
 3925TIP3    H233267   6.845   0.449  16.284 -0.3278  0.3815  1.0530
 3926TIP3   OH233268   0.564   0.103   0.327 -0.2602  0.2341  0.5917
 3926TIP3    H133269   0.471   0.117   0.348 -0.2525 -0.1109  0.8544
 3926TIP3    H233270   0.601   0.192   0.326 -0.9586  0.5646 -1.3171
 3927TIP3   OH233271   2.388   4.570  13.695 -1.1252  0.4231  0.9730
 3927TIP3    H133272   2.350   4.528  13.618 -0.9833  3.3662 -0.8609
 3927TIP3    H233273   2.326   4.640  13.718  0.4919  1.8073  1.3268
 3928TIP3   OH233274   2.044   6.414  14.511  0.5287 -0.2742  0.3182
 3928TIP3    H133275   1.972   6.351  14.507  0.5762 -0.3016 -0.0992
 3928TIP3    H233276   2.095   6.397  14.433  0.9313 -0.1814  0.5612
 3929TIP3   OH233277   4.046   3.113  13.428  0.1400  0.1657  0.3243
 3929TIP3    H133278   4.053   3.153  13.514 -2.4858  1.3314  0.0899
 3929TIP3    H233279   4.078   3.180  13.367  2.0651 -0.6832  0.3359
 3930TIP3   OH233280   1.859   3.272  14.749 -0.0336 -0.1206  0.0763
 3930TIP3    H133281   1.812   3.288  14.667  0.9386  1.3232 -0.2486
 3930TIP3    H233282   1.946   3.245  14.721  0.4008  0.6909  0.6230
 3931TIP3   OH233283   6.804   2.336  11.721  0.2950  0.2818 -0.0683
 3931TIP3    H133284   6.820   2.276  11.793  0.9376  2.3580  1.6153
 3931TIP3    H233285   6.889   2.375  11.702 -0.3894  1.9882  0.1629
 3932TIP3   OH233286   6.768   0.893   1.509 -0.4899 -0.4266  0.6145
 3932TIP3    H133287   6.748   0.837   1.585  2.2661 -0.1451  1.6572
 3932TIP3    H233288   6.772   0.981   1.545  0.7118 -0.2755  0.1501
 3933TIP3   OH233289   0.060   5.517  14.168  0.0352 -0.2631 -0.3841
 3933TIP3    H133290   0.155   5.521  14.162  0.2015 -1.7650  0.6032
 3933TIP3    H233291   0.034   5.598  14.211  0.7063  0.7864 -1.8726
 3934TIP3   OH233292   1.292   3.972   1.376  0.0648 -0.1340 -0.2033
 3934TIP3    H133293   1.277   3.884   1.343  1.2323 -0.7137  0.7290
 3934TIP3    H233294   1.313   4.024   1.299 -0.6022 -0.6712 -0.7563
 3935TIP3   OH233295   4.597   0.698  11.362  0.3729  0.2331 -0.1737
 3935TIP3    H133296   4.625   0.687  11.271  0.7291 -1.1956  0.0948
 3935TIP3    H233297   4.670   0.665  11.414 -0.1417  0.3219  0.6196
 3936TIP3   OH233298   5.243   5.726   0.409  0.5572 -0.1993 -0.3665
 3936TIP3    H133299   5.298   5.772   0.472 -0.5338  0.6219  0.0263
 3936TIP3    H233300   5.209   5.795   0.353  1.3048 -0.8899 -1.7237
 3937TIP3   OH233301   1.765   1.833  15.732 -0.1460  0.0184  0.2564
 3937TIP3    H133302   1.716   1.912  15.710  0.4259  0.1448 -0.6101
 3937TIP3    H233303   1.835   1.863  15.790  0.0820  0.1536 -0.0874
 3938TIP3   OH233304   1.526   1.431   2.540 -0.5126  0.3753 -0.2025
 3938TIP3    H133305   1.568   1.399   2.620  0.9720  3.0770  0.2205
 3938TIP3    H233306   1.599   1.447   2.480 -1.5736 -1.1988 -1.9875
 3939TIP3   OH233307   5.540   3.051   0.077  0.0737  0.2837  0.3646
 3939TIP3    H133308   5.475   3.121   0.079  0.0241  0.4659 -2.7578
 3939TIP3    H233309   5.598   3.074   0.004  1.7465 -1.5080  1.0412
 3940TIP3   OH233310   1.118   5.889  14.324  0.0864 -0.1803  0.2158
 3940TIP3    H133311   1.149   5.835  14.251  0.6512  0.2062  0.1618
 3940TIP3    H233312   1.140   5.837  14.402 -1.7996 -1.2544  0.0948
 3941TIP3   OH233313   3.572   5.012   5.846 -0.1760 -0.1143  0.1078
 3941TIP3    H133314   3.556   4.963   5.927  0.5578 -2.0270 -0.8492
 3941TIP3    H233315   3.486   5.024   5.807 -0.3887 -0.3763  0.4926
 3942TIP3   OH233316   0.150   6.294   4.721 -0.0346  0.0704 -0.2620
 3942TIP3    H133317   0.135   6.244   4.640 -0.2039 -2.6754  1.3327
 3942TIP3    H233318   0.065   6.334   4.739 -0.1669  0.1994 -1.0913
 3943TIP3   OH233319   0.297   4.060  11.939 -0.0735  0.6360 -0.1436
 3943TIP3    H133320   0.306   3.965  11.947  0.7573  0.6914 -0.3736
 3943TIP3    H233321   0.357   4.084  11.869 -1.9337  1.0673 -1.6523
 3944TIP3   OH233322   6.547   1.970  16.685 -0.3399  0.3903  0.3056
 3944TIP3    H133323   6.490   1.903  16.722 -1.8683  1.3245 -0.2973
 3944TIP3    H233324   6.508   1.991  16.600  0.7846  1.2090 -0.0275
 3945TIP3   OH233325   4.673   5.902   1.269  0.4153 -0.0613  0.1886
 3945TIP3    H133326   4.621   5.831   1.305 -0.5769  0.0949 -0.8719
 3945TIP3    H233327   4.752   5.905   1.323 -0.1509 -1.0704  1.0870
 3946TIP3   OH233328   0.341   4.547  15.493 -0.0618  0.0195  0.0168
 3946TIP3    H133329   0.339   4.631  15.446  0.3059  0.4934  0.8226
 3946TIP3    H233330   0.266   4.550  15.552 -0.4097 -0.4949 -0.3853
 3947TIP3   OH233331   2.419   4.502   1.657  0.1553  0.7408  0.0189
 3947TIP3    H133332   2.494   4.508   1.716 -0.3438 -0.8396  0.8461
 3947TIP3    H233333   2.347   4.541   1.706 -0.3129 -0.7842  0.5858
 3948TIP3   OH233334   0.877   0.194   6.573 -0.2000  0.1531 -0.3981
 3948TIP3    H133335   0.791   0.211   6.611 -0.1269 -0.8108  0.2546
 3948TIP3    H233336   0.908   0.116   6.620  0.0210 -0.9104 -2.2305
 3949TIP3   OH233337   5.234   2.637  10.760 -0.0715  0.1816  0.1266
 3949TIP3    H133338   5.263   2.716  10.715  0.2921  0.4592  0.8290
 3949TIP3    H233339   5.141   2.651  10.776 -0.6404 -0.6674 -2.0491
 3950TIP3   OH233340   4.605   2.958   4.560  0.0497 -0.1967  0.4838
 3950TIP3    H133341   4.622   2.996   4.474 -1.3433 -0.1943  0.1738
 3950TIP3    H233342   4.691   2.942   4.597  0.6743  0.6388 -0.5429
 3951TIP3   OH233343   2.910   2.596  15.817 -0.2023  0.3117 -0.7203
 3951TIP3    H133344   2.902   2.691  15.827  1.2475  0.3385  0.8884
 3951TIP3    H233345   3.005   2.581  15.809 -0.4884 -0.9182 -2.4092
 3952TIP3   OH233346   4.250   0.420  11.282 -0.1203  0.5652 -0.2705
 3952TIP3    H133347   4.249   0.488  11.215  0.3203  2.4526  1.5462
 3952TIP3    H233348   4.343   0.407  11.301 -0.2805  1.1986  1.0372
 3953TIP3   OH233349   2.363   6.643  11.105 -0.2545 -0.4413 -0.5089
 3953TIP3    H133350   2.394   6.733  11.109 -1.9820  0.1717  0.2472
 3953TIP3    H233351   2.277   6.649  11.063 -0.9608 -1.5583  0.7069
 3954TIP3   OH233352   6.017   0.168   6.171 -0.2249  0.2568  0.0344
 3954TIP3    H133353   6.081   0.163   6.242 -0.1375  0.5405 -0.0234
 3954TIP3    H233354   5.945   0.111   6.199  0.7785 -1.4639 -0.6597
 3955TIP3   OH233355   6.081   4.921  14.144  0.1110 -0.1308 -0.1708
 3955TIP3    H133356   6.080   4.829  14.116 -0.4855  0.1086 -0.9657
 3955TIP3    H233357   5.996   4.956  14.115  0.3191  0.6678  0.1535
 3956TIP3   OH233358   1.985   5.082  13.312  0.3242  0.0559  0.3944
 3956TIP3    H133359   2.035   5.071  13.393  0.1396 -0.9001  0.3896
 3956TIP3    H233360   1.912   5.021  13.321  0.1150  0.1897 -0.3516
 3957TIP3   OH233361   0.330   4.397  13.271 -0.1216  0.4078  0.0137
 3957TIP3    H133362   0.353   4.372  13.182 -0.3792 -0.6711  0.2337
 3957TIP3    H233363   0.235   4.392  13.274 -0.1279  0.6472  0.2903
 3958TIP3   OH233364   2.233   4.763   1.572 -0.6159 -0.3166 -0.1646
 3958TIP3    H133365   2.315   4.783   1.526 -0.7938  0.3096 -0.2241
 3958TIP3    H233366   2.261   4.721   1.654 -0.2074  0.4384  0.0921
 3959TIP3   OH233367   6.516   6.694  14.556  0.7747  0.0697 -0.5926
 3959TIP3    H133368   6.515   6.739  14.472  0.9428  0.5199 -0.3598
 3959TIP3    H233369   6.576   6.621  14.543  1.1361  0.3873 -0.7423
 3960TIP3   OH233370   1.209   5.735   4.050 -0.3098 -0.3015 -0.2202
 3960TIP3    H133371   1.231   5.739   4.143 -1.8404  1.4191  0.1276
 3960TIP3    H233372   1.269   5.670   4.014  0.4715 -0.8519  1.9151
 3961TIP3   OH233373   5.585   5.556  13.544  0.2326 -0.0468  0.1416
 3961TIP3    H133374   5.495   5.587  13.547  0.8908  1.9670  1.1018
 3961TIP3    H233375   5.629   5.615  13.482  1.1800 -0.1314  0.7105
 3962TIP3   OH233376   1.661   5.117  10.530  0.7734  0.1212  0.3470
 3962TIP3    H133377   1.734   5.055  10.532  0.1665 -0.5936  1.9384
 3962TIP3    H233378   1.619   5.108  10.616 -0.9124  0.8454 -0.3526
 3963TIP3   OH233379   0.118   6.562   3.071 -0.2706 -0.1254  0.3826
 3963TIP3    H133380   0.166   6.542   3.151  0.9949  1.7675  0.1431
 3963TIP3    H233381   0.116   6.479   3.023  0.2654 -0.9154  1.6652
 3964TIP3   OH233382   3.480   5.948  16.406 -0.2824 -0.0750 -0.2762
 3964TIP3    H133383   3.468   6.039  16.381  2.3942  0.2039 -0.7888
 3964TIP3    H233384   3.497   5.902  16.323 -1.8173 -1.1173 -0.0538
 3965TIP3   OH233385   2.836   1.741  16.795  0.2285  1.0236 -0.1532
 3965TIP3    H133386   2.777   1.666  16.789 -1.9692  2.5122  0.9772
 3965TIP3    H233387   2.860   1.746  16.887  1.9323  0.6420 -0.5427
 3966TIP3   OH233388   0.883   5.346   3.119 -0.4028 -0.2811  0.2799
 3966TIP3    H133389   0.944   5.377   3.052 -0.3160 -0.8568  0.0917
 3966TIP3    H233390   0.939   5.311   3.189 -0.3983  2.1407  1.6100
 3967TIP3   OH233391   4.131   5.960  11.357 -0.4310 -0.2661  0.0149
 3967TIP3    H133392   4.070   6.032  11.345  1.0831  0.8600 -1.3926
 3967TIP3    H233393   4.086   5.884  11.319 -1.5353  0.1778  0.3895
 3968TIP3   OH233394   2.765   3.080  13.330 -0.5643 -0.1430  0.5167
 3968TIP3    H133395   2.698   3.147  13.315 -2.3790 -1.7123  1.1304
 3968TIP3    H233396   2.845   3.117  13.293 -1.5510  2.2100  0.5776
 3969TIP3   OH233397   0.997   0.305   5.676 -0.0160 -0.4601 -0.6931
 3969TIP3    H133398   1.063   0.236   5.667  1.2889  0.9008 -2.1761
 3969TIP3    H233399   1.001   0.330   5.768  1.0271 -0.9118 -0.5950
 3970TIP3   OH233400   5.673   3.333   1.169 -0.0003  0.0480  0.0034
 3970TIP3    H133401   5.644   3.242   1.171  0.0863  0.0178 -0.0706
 3970TIP3    H233402   5.715   3.342   1.083  1.2114 -0.2247  0.5427
 3971TIP3   OH233403   5.988   6.511   4.736  0.4823 -0.0354  0.0083
 3971TIP3    H133404   6.021   6.446   4.798  4.7991 -0.2127 -2.0649
 3971TIP3    H233405   5.937   6.460   4.673 -0.5813 -0.4934  1.2091
 3972TIP3   OH233406   4.369   2.630   5.123 -0.7643 -0.3232  0.4216
 3972TIP3    H133407   4.278   2.606   5.140  0.0555 -1.0691  5.0881
 3972TIP3    H233408   4.420   2.558   5.158  1.6490  1.7774  1.5254
 3973TIP3   OH233409   6.235   4.846  12.717 -0.0608 -0.4413 -0.0483
 3973TIP3    H133410   6.234   4.942  12.725 -0.5729 -0.3471 -0.9969
 3973TIP3    H233411   6.328   4.823  12.718  0.0644  0.0632  0.2775
 3974TIP3   OH233412   3.589   2.375   0.829  0.3124 -0.2712  0.0981
 3974TIP3    H133413   3.558   2.318   0.759 -1.7711  0.2280  0.5713
 3974TIP3    H233414   3.636   2.316   0.889  0.1870 -1.0793 -0.5793
 3975TIP3   OH233415   6.676   1.178  11.920 -0.2462 -0.3865  0.0980
 3975TIP3    H133416   6.594   1.222  11.897 -0.1956 -0.5531 -0.4081
 3975TIP3    H233417   6.729   1.181  11.840  0.7351  0.8039  0.7692
 3976TIP3   OH233418   4.268   4.218   2.899 -0.3071  0.1279 -0.1520
 3976TIP3    H133419   4.306   4.170   2.973  0.2652  1.3127  0.3477
 3976TIP3    H233420   4.183   4.177   2.885  0.4004 -1.4242 -0.1456
 3977TIP3   OH233421   4.203   6.131   1.699 -0.0327  0.3010 -0.1559
 3977TIP3    H133422   4.162   6.081   1.770 -0.3186  2.1785  1.0911
 3977TIP3    H233423   4.289   6.154   1.734  0.0484  0.7525 -0.6499
 3978TIP3   OH233424   0.239   0.129   3.452  0.0867 -0.1993  0.3077
 3978TIP3    H133425   0.240   0.062   3.520  0.5170 -0.4424  0.0635
 3978TIP3    H233426   0.316   0.110   3.398  0.2851  0.5654  0.3138
 3979TIP3   OH233427   4.879   0.806  11.286  0.1263 -0.4334  0.1095
 3979TIP3    H133428   4.877   0.724  11.335  2.0408 -1.3056 -1.1288
 3979TIP3    H233429   4.822   0.791  11.210  0.5967 -0.6959 -0.1972
 3980TIP3   OH233430   0.539   3.857   4.515  0.5619 -0.2843 -0.0077
 3980TIP3    H133431   0.629   3.889   4.528 -0.1322  0.9393  2.2382
 3980TIP3    H233432   0.524   3.796   4.588 -1.4410  2.0129  1.6469
 3981TIP3   OH233433   3.147   0.402   1.890 -0.0870 -0.1474  0.4272
 3981TIP3    H133434   3.070   0.427   1.940 -0.1421 -1.3043  0.9458
 3981TIP3    H233435   3.221   0.434   1.942 -0.1777 -0.1744  0.5736
 3982TIP3   OH233436   2.284   5.077   4.569 -0.0954  0.0679 -0.7415
 3982TIP3    H133437   2.375   5.057   4.545  0.0825  1.6442 -1.4856
 3982TIP3    H233438   2.242   4.991   4.573  1.3375 -0.6753 -0.7345
 3983TIP3   OH233439   3.358   0.077  12.472  0.5659  0.1854  0.6729
 3983TIP3    H133440   3.289   0.107  12.531  0.3573 -1.0499  1.0892
 3983TIP3    H233441   3.312   0.058  12.390  1.0968  3.6270 -0.6275
 3984TIP3   OH233442   3.544   3.535   2.212 -0.1770  0.4525  0.2826
 3984TIP3    H133443   3.614   3.544   2.148 -0.1278 -0.1286  0.2432
 3984TIP3    H233444   3.465   3.520   2.160  0.0021 -0.8997  0.3521
 3985TIP3   OH233445   3.337   2.727   1.634 -0.0269 -0.5434 -0.0528
 3985TIP3    H133446   3.432   2.732   1.625 -0.1951 -0.3451 -2.0645
 3985TIP3    H233447   3.308   2.678   1.557 -1.6554  0.5425 -0.1785
 3986TIP3   OH233448   0.940   1.449   3.666 -0.0079  0.0654 -0.3834
 3986TIP3    H133449   0.889   1.420   3.742  0.7932 -0.5838 -0.0821
 3986TIP3    H233450   0.875   1.485   3.606 -0.6339  0.7562  0.6786
 3987TIP3   OH233451   4.169   6.220   3.525  0.5181 -0.2925 -0.4290
 3987TIP3    H133452   4.076   6.234   3.509  0.1374 -0.2461  1.5647
 3987TIP3    H233453   4.172   6.139   3.576  1.5706 -0.2716 -0.4456
 3988TIP3   OH233454   0.401   2.066   3.049 -0.4765  0.2551 -0.0685
 3988TIP3    H133455   0.407   2.055   3.144  1.2331  0.4985 -0.1162
 3988TIP3    H233456   0.381   1.979   3.016 -0.4810  0.0487  0.4704
 3989TIP3   OH233457   3.616   1.869  11.446  0.1192  0.7351  0.4691
 3989TIP3    H133458   3.671   1.812  11.394  2.1936  2.1292  1.0085
 3989TIP3    H233459   3.543   1.893  11.388  2.4493  2.4381 -1.9808
 3990TIP3   OH233460   1.216   0.554   5.633  0.3429  0.1799  0.1434
 3990TIP3    H133461   1.242   0.473   5.589  1.4738  0.6788 -0.1167
 3990TIP3    H233462   1.165   0.524   5.709  0.1486 -0.7438 -0.3357
 3991TIP3   OH233463   4.697   5.733   4.548 -0.7598 -0.1107  0.4312
 3991TIP3    H133464   4.672   5.763   4.461  1.4153 -0.8553 -0.5015
 3991TIP3    H233465   4.649   5.651   4.560 -0.4129 -0.4442 -0.4370
 3992TIP3   OH233466   5.589   2.762  11.129 -0.7158  0.0702 -0.1240
 3992TIP3    H133467   5.509   2.809  11.151 -0.9109 -0.8514  1.2868
 3992TIP3    H233468   5.559   2.677  11.097 -0.3149  0.0693 -0.5167
 3993TIP3   OH233469   0.624   2.003  12.977 -0.2686  0.1505 -0.4335
 3993TIP3    H133470   0.635   2.092  13.009 -0.3525  0.1981 -0.5338
 3993TIP3    H233471   0.530   1.997  12.956 -0.1365  0.2666 -1.0906
 3994TIP3   OH233472   4.938   5.585  11.638 -0.8399  0.5201 -0.1807
 3994TIP3    H133473   4.984   5.522  11.693 -0.1400 -0.9978 -2.3939
 3994TIP3    H233474   4.976   5.670  11.662 -0.8621 -0.0193  1.9155
 3995TIP3   OH233475   4.419   1.634  16.199  0.2084  0.0108  0.6841
 3995TIP3    H133476   4.445   1.544  16.181 -0.3678 -0.1042  0.4082
 3995TIP3    H233477   4.496   1.673  16.241  1.0502 -0.1447 -0.6517
 3996TIP3   OH233478   4.823   6.288   0.407  0.2841 -0.2820  0.3079
 3996TIP3    H133479   4.753   6.352   0.393 -0.7202 -1.0909  1.4717
 3996TIP3    H233480   4.878   6.327   0.475  1.2930  0.5681 -0.9309
 3997TIP3   OH233481   5.223   1.151   3.763  0.2573 -0.5507 -0.3396
 3997TIP3    H133482   5.280   1.080   3.793 -1.3235 -1.8011 -0.1486
 3997TIP3    H233483   5.214   1.209   3.838  0.9295 -0.5779 -0.2373
 3998TIP3   OH233484   1.625   4.852  10.646 -0.2900 -0.0254  0.6013
 3998TIP3    H133485   1.647   4.764  10.679  0.3628 -0.3793 -0.6885
 3998TIP3    H233486   1.674   4.858  10.563 -0.6367  1.4125  0.4908
 3999TIP3   OH233487   2.922   1.163  14.886  0.2137  0.6183 -0.2134
 3999TIP3    H133488   2.851   1.138  14.827 -0.2723  1.2182  0.0938
 3999TIP3    H233489   2.967   1.234  14.841  0.8745 -0.0288 -0.5822
 4000TIP3   OH233490   4.456   2.754  13.205 -0.6945 -0.1201  0.0341
 4000TIP3    H133491   4.515   2.827  13.185  0.8754 -0.5903  2.5044
 4000TIP3    H233492   4.497   2.678  13.166 -1.0308 -0.0917 -0.3925
 4001TIP3   OH233493   6.419   1.841  12.898  0.1307 -0.3574 -0.3482
 4001TIP3    H133494   6.368   1.776  12.849 -1.5095  0.8863 -0.3606
 4001TIP3    H233495   6.505   1.801  12.908 -0.2264 -1.6759 -2.1167
 4002TIP3   OH233496   6.222   4.776  11.103  0.2333 -0.1539 -0.1396
 4002TIP3    H133497   6.302   4.778  11.155  0.6617 -1.8389 -0.6781
 4002TIP3    H233498   6.252   4.763  11.013 -0.6423 -0.9898 -0.3266
 4003TIP3   OH233499   3.486   5.899  14.182 -0.9079  0.1423 -0.5388
 4003TIP3    H133500   3.545   5.827  14.206  2.2271  2.8947  0.8777
 4003TIP3    H233501   3.398   5.862  14.190  0.4656 -3.1675  1.3018
 4004TIP3   OH233502   2.582   2.396   0.518 -0.1324  0.0196  0.2212
 4004TIP3    H133503   2.513   2.394   0.452 -0.4018 -0.0904  0.5057
 4004TIP3    H233504   2.662   2.410   0.468 -0.2842 -0.4834 -0.1727
 4005TIP3   OH233505   2.443   5.078   1.704 -0.0539  0.2183 -0.5075
 4005TIP3    H133506   2.364   5.123   1.733 -1.3175 -1.6820 -0.7915
 4005TIP3    H233507   2.434   5.072   1.609 -0.1649 -1.0066 -0.4383
 4006TIP3   OH233508   5.974   1.640   2.170 -0.6462 -0.0936  0.2045
 4006TIP3    H133509   6.023   1.721   2.152 -1.9047  0.7875  0.5653
 4006TIP3    H233510   6.031   1.590   2.228  0.3038  0.3774 -0.2959
 4007TIP3   OH233511   5.616   2.877  15.645  0.2774 -0.5296 -0.1726
 4007TIP3    H133512   5.674   2.935  15.596 -0.0480 -0.2663 -0.2488
 4007TIP3    H233513   5.668   2.797  15.658  0.8238 -0.1253  0.1739
 4008TIP3   OH233514   4.896   0.165   4.446  0.7051 -0.0310  0.3994
 4008TIP3    H133515   4.890   0.218   4.526  0.6868  1.2595 -0.4219
 4008TIP3    H233516   4.805   0.153   4.419  0.6123 -1.6921  1.3057
 4009TIP3   OH233517   3.086   3.741   1.290  0.2350 -0.2035 -0.2495
 4009TIP3    H133518   3.081   3.700   1.377  0.9529 -1.7867 -0.9050
 4009TIP3    H233519   3.177   3.770   1.282 -0.5969  3.0494  0.7967
 4010TIP3   OH233520   2.074   1.461  16.899 -0.4427  0.7799  0.2083
 4010TIP3    H133521   2.055   1.439  16.808 -1.3857 -0.7730  0.7387
 4010TIP3    H233522   2.127   1.541  16.894  1.0509 -0.2494 -1.7723
 4011TIP3   OH233523   5.520   2.231   4.211  0.3978  0.1986 -0.2381
 4011TIP3    H133524   5.437   2.271   4.239  0.6775 -0.0844  1.0607
 4011TIP3    H233525   5.494   2.165   4.146 -0.5770 -0.8631  1.1594
 4012TIP3   OH233526   3.746   5.852  14.070  0.2606  1.0891 -0.3436
 4012TIP3    H133527   3.836   5.822  14.055 -0.5646 -0.7678 -2.1206
 4012TIP3    H233528   3.709   5.862  13.982 -1.4877  1.0574  0.3523
 4013TIP3   OH233529   3.550   3.526  13.027  0.4292 -0.3278 -0.4884
 4013TIP3    H133530   3.570   3.620  13.034  1.4057 -0.4552 -1.3160
 4013TIP3    H233531   3.636   3.485  13.020  0.0090 -1.3000 -0.0193
 4014TIP3   OH233532   3.880   6.822  12.285  0.2742 -0.4679 -0.3753
 4014TIP3    H133533   3.841   6.750  12.334 -0.2959  0.2558  0.2552
 4014TIP3    H233534   3.974   6.816  12.303  0.0528 -0.0567  1.0494
 4015TIP3   OH233535   2.919   5.712   5.174 -0.0021 -0.2994  0.6565
 4015TIP3    H133536   2.974   5.783   5.139 -0.8917 -0.1366 -0.4625
 4015TIP3    H233537   2.864   5.755   5.239 -0.9963  0.2085 -0.4803
 4016TIP3   OH233538   4.201   1.547   4.020  0.0211  0.5783 -0.2944
 4016TIP3    H133539   4.270   1.525   4.083 -0.0875  0.5528 -0.1828
 4016TIP3    H233540   4.124   1.497   4.050 -0.0896  0.7303 -0.3236
 4017TIP3   OH233541   3.179   5.287  15.415  0.0183  0.3300  0.3995
 4017TIP3    H133542   3.188   5.203  15.371  0.5959  1.2582 -1.3769
 4017TIP3    H233543   3.269   5.311  15.438  0.1271  1.3167 -0.9001
 4018TIP3   OH233544   5.356   0.845  15.250 -0.4692 -0.1861 -0.2907
 4018TIP3    H133545   5.432   0.788  15.257 -0.6319 -0.2200  1.4827
 4018TIP3    H233546   5.289   0.790  15.210 -0.9338 -1.6213  2.2830
 4019TIP3   OH233547   1.607   1.075  13.916  0.5143 -0.0031  0.2143
 4019TIP3    H133548   1.680   1.098  13.857  2.4297 -0.3678  2.2902
 4019TIP3    H233549   1.555   1.155  13.922  0.2855  0.0522 -1.8819
 4020TIP3   OH233550   1.077   4.516  15.662 -0.6302 -0.3271 -0.3657
 4020TIP3    H133551   1.065   4.611  15.662  0.7438 -0.1133  0.4245
 4020TIP3    H233552   0.993   4.480  15.635 -0.0392  1.2196 -5.0802
 4021TIP3   OH233553   1.487   2.191  15.955  0.3229 -0.0294  0.2682
 4021TIP3    H133554   1.528   2.214  15.872 -0.0884 -1.4459 -0.3586
 4021TIP3    H233555   1.442   2.270  15.983  0.8610  0.5984 -0.6167
 4022TIP3   OH233556   0.783   6.715   5.182  0.5671  0.0565  0.4284
 4022TIP3    H133557   0.736   6.634   5.205 -0.8353  0.9585  0.8546
 4022TIP3    H233558   0.834   6.736   5.260  1.4258 -0.7252  0.0990
 4023TIP3   OH233559   2.230   6.580  13.892 -0.1334 -0.2635 -0.0470
 4023TIP3    H133560   2.289   6.583  13.817  0.4429  1.7838  0.4071
 4023TIP3    H233561   2.212   6.487  13.905 -0.0734 -0.6936 -2.5516
 4024TIP3   OH233562   6.229   3.333  11.779 -0.3646 -0.3128  0.6560
 4024TIP3    H133563   6.227   3.240  11.758 -0.7888 -0.2206  0.2780
 4024TIP3    H233564   6.212   3.336  11.873  1.1216 -0.6983  0.9715
 4025TIP3   OH233565   3.690   1.659   1.406 -0.1018 -0.3826 -0.4652
 4025TIP3    H133566   3.749   1.618   1.469  0.4964 -0.9651 -1.3739
 4025TIP3    H233567   3.749   1.703   1.345 -0.7175  2.5111  0.8575
 4026TIP3   OH233568   5.801   5.309   2.781  0.7657  0.4398  0.1310
 4026TIP3    H133569   5.839   5.393   2.806  0.3326  0.6998 -0.0814
 4026TIP3    H233570   5.733   5.331   2.717  0.3359 -0.0304  0.4196
 4027TIP3   OH233571   5.790   6.736   0.420 -0.1860 -0.2861 -0.2104
 4027TIP3    H133572   5.812   6.818   0.376 -0.4011  0.3438  0.8131
 4027TIP3    H233573   5.862   6.722   0.481 -1.2209  0.3654  1.2306
 4028TIP3   OH233574   1.919   1.640  14.213 -0.2212  0.4774  0.2274
 4028TIP3    H133575   1.932   1.546  14.222  1.0042  0.4128 -1.7668
 4028TIP3    H233576   1.824   1.651  14.219 -0.5415 -1.1169 -1.1035
 4029TIP3   OH233577   2.737   3.334   3.249  0.0470 -0.6071 -0.2530
 4029TIP3    H133578   2.730   3.404   3.184  2.8895 -1.1068 -1.2166
 4029TIP3    H233579   2.769   3.258   3.200 -1.9415 -2.3410  0.9640
 4030TIP3   OH233580   3.004   2.313   3.106  0.3551 -0.1923  0.5191
 4030TIP3    H133581   2.971   2.294   3.019  0.0985  0.9313  0.3618
 4030TIP3    H233582   2.938   2.275   3.165  0.3550 -0.6479  0.2309
 4031TIP3   OH233583   5.201   4.916  13.185 -0.3295  0.0329 -0.1152
 4031TIP3    H133584   5.216   4.860  13.261  0.4307  0.4117  0.0331
 4031TIP3    H233585   5.237   4.868  13.111 -0.1640  0.0950 -0.0746
 4032TIP3   OH233586   1.291   4.677   6.136  0.0435 -0.0705  0.3040
 4032TIP3    H133587   1.384   4.656   6.148  0.2895 -0.1407 -1.4903
 4032TIP3    H233588   1.248   4.636   6.211  1.4721  0.1621  1.3098
 4033TIP3   OH233589   0.878   1.142   1.965 -0.1479 -0.2434 -0.1162
 4033TIP3    H133590   0.871   1.111   2.055 -0.2799 -0.5728 -0.2405
 4033TIP3    H233591   0.966   1.179   1.959 -0.2947  0.1784  0.2736
 4034TIP3   OH233592   0.739   0.147  12.647 -0.0696 -0.2409  0.2418
 4034TIP3    H133593   0.771   0.183  12.564 -1.4681  0.5814  0.0424
 4034TIP3    H233594   0.729   0.053  12.629 -2.9052  0.2513 -1.4514
 4035TIP3   OH233595   0.068   0.419  11.882 -0.1425 -0.2021 -0.3833
 4035TIP3    H133596   0.030   0.360  11.817  1.1141  0.8942 -2.1858
 4035TIP3    H233597   0.159   0.391  11.890  0.4628  1.3658 -1.2254
 4036TIP3   OH233598   2.521   2.712   3.432  0.2467  0.7588  0.0985
 4036TIP3    H133599   2.426   2.720   3.423  0.2250  1.1347  0.6053
 4036TIP3    H233600   2.549   2.666   3.353 -0.3034  1.0585 -0.2781
 4037TIP3   OH233601   4.779   2.943  14.754 -0.0025  0.1124  0.1238
 4037TIP3    H133602   4.841   2.874  14.733 -1.1739 -1.0067  0.2211
 4037TIP3    H233603   4.695   2.910  14.724 -0.4379  1.9894 -0.8686
 4038TIP3   OH233604   6.222   0.718  15.116  0.0065 -0.4654  0.1114
 4038TIP3    H133605   6.165   0.707  15.040 -0.6762 -0.2472  0.5902
 4038TIP3    H233606   6.280   0.790  15.091  0.3054 -0.9103 -0.5098
 4039TIP3   OH233607   0.625   1.321  13.450 -0.3610 -0.1801  0.4239
 4039TIP3    H133608   0.657   1.241  13.492  1.1944 -1.0403 -2.1542
 4039TIP3    H233609   0.583   1.291  13.370 -0.8047  1.5370 -0.0288
 4040TIP3   OH233610   6.675   5.934   6.704 -0.2480 -0.0973 -0.5798
 4040TIP3    H133611   6.619   5.873   6.656 -1.7040 -1.4225  2.5452
 4040TIP3    H233612   6.618   6.009   6.723 -0.1614 -0.2427  0.3008
 4041TIP3   OH233613   2.464   5.948  12.731 -0.2456  0.1020 -0.1982
 4041TIP3    H133614   2.527   5.998  12.784 -1.1290  1.4602 -0.3940
 4041TIP3    H233615   2.507   5.937  12.647  0.6723 -1.0254  0.3865
 4042TIP3   OH233616   2.670   2.391   3.366 -0.4595  0.2150  0.8231
 4042TIP3    H133617   2.644   2.446   3.293 -2.1885 -0.8710  0.5719
 4042TIP3    H233618   2.764   2.406   3.375 -0.6516  2.2202 -0.0260
 4043TIP3   OH233619   0.912   0.951   3.266 -0.2423  0.2182  0.1188
 4043TIP3    H133620   0.833   0.973   3.314  0.0334  1.3206  0.0939
 4043TIP3    H233621   0.984   0.986   3.319 -0.0057  3.2011 -1.8728
 4044TIP3   OH233622   2.279   0.723  13.033  0.2093  0.5616 -0.1473
 4044TIP3    H133623   2.352   0.782  13.014  0.9742  0.2190  1.5471
 4044TIP3    H233624   2.210   0.781  13.066 -0.3117  0.8873 -1.7589
 4045TIP3   OH233625   3.228   0.780   1.851  0.0164 -0.5670 -0.2449
 4045TIP3    H133626   3.137   0.768   1.823  0.7332 -2.6005 -1.9208
 4045TIP3    H233627   3.279   0.775   1.770  1.7025 -0.1594  0.7467
 4046TIP3   OH233628   3.353   4.108  15.156 -0.2091 -0.0377  0.4828
 4046TIP3    H133629   3.446   4.110  15.176  0.5948 -1.0709 -2.5075
 4046TIP3    H233630   3.318   4.036  15.210  0.9714 -0.3801  0.8114
 4047TIP3   OH233631   4.134   4.317   4.237 -0.1320 -0.7537  0.2099
 4047TIP3    H133632   4.108   4.310   4.329  0.5640 -0.4713  0.4301
 4047TIP3    H233633   4.207   4.256   4.228 -0.2078 -0.7932 -0.1650
 4048TIP3   OH233634   6.631   1.913   4.774  0.3968 -0.1400  0.1573
 4048TIP3    H133635   6.628   1.852   4.700  0.7348  2.4130 -2.1167
 4048TIP3    H233636   6.541   1.941   4.786  0.5078  0.3359 -0.0996
 4049TIP3   OH233637   0.163   0.868  16.340  0.1967 -0.4113 -0.0022
 4049TIP3    H133638   0.230   0.827  16.395  0.5475  0.2783  0.1062
 4049TIP3    H233639   0.213   0.915  16.273 -0.1652  0.2366  0.1691
 4050TIP3   OH233640   0.842   5.379  11.001  0.1596  0.0094 -0.5181
 4050TIP3    H133641   0.853   5.472  10.978  3.0865 -0.2307 -0.4855
 4050TIP3    H233642   0.891   5.332  10.934  1.2554 -1.2867  1.1114
 4051TIP3   OH233643   0.268   3.728   5.569  0.1853 -0.2106  0.5870
 4051TIP3    H133644   0.337   3.774   5.618  0.0917  0.9555 -0.3049
 4051TIP3    H233645   0.315   3.665   5.514  0.4748 -0.0437  0.6413
 4052TIP3   OH233646   2.485   1.500  13.599  0.1442  0.2394 -0.4454
 4052TIP3    H133647   2.436   1.433  13.549  0.6142 -0.4150 -0.0457
 4052TIP3    H233648   2.442   1.502  13.684 -0.1543  0.7874 -0.6012
 4053TIP3   OH233649   1.733   3.836   0.540 -0.6624 -0.4418  0.1785
 4053TIP3    H133650   1.698   3.922   0.564 -2.2106 -0.7632 -0.7744
 4053TIP3    H233651   1.768   3.847   0.452 -1.3045 -0.8865 -0.1391
 4054TIP3   OH233652   6.743   3.673  15.639  0.1264  0.2365  0.3711
 4054TIP3    H133653   6.678   3.618  15.683  0.4814 -0.1744  0.3844
 4054TIP3    H233654   6.795   3.710  15.711  0.1726  0.2305  0.3404
 4055TIP3   OH233655   5.657   4.920   2.847  0.0318  0.1253 -0.0009
 4055TIP3    H133656   5.671   4.849   2.785 -0.0957 -0.4235  0.5837
 4055TIP3    H233657   5.744   4.942   2.879 -0.0342 -0.6808  0.7926
 4056TIP3   OH233658   0.194   0.248   0.529  0.2451  0.1969  0.3125
 4056TIP3    H133659   0.240   0.187   0.471 -0.3190 -0.5674  0.6582
 4056TIP3    H233660   0.104   0.247   0.498  0.5788  2.4030 -0.9734
 4057TIP3   OH233661   5.034   5.363  11.747  0.0255 -0.0960  0.4408
 4057TIP3    H133662   4.954   5.311  11.739  0.9122 -1.5611  0.7168
 4057TIP3    H233663   5.089   5.313  11.807  1.6232  0.2509 -0.6709
 4058TIP3   OH233664   0.406   1.468   3.601  0.3165 -0.1239 -0.7707
 4058TIP3    H133665   0.462   1.545   3.589 -0.3359  0.8675  1.8231
 4058TIP3    H233666   0.463   1.394   3.582  2.1751  0.8953  0.5616
 4059TIP3   OH233667   2.780   3.931  15.132 -0.0914  0.1836  0.5333
 4059TIP3    H133668   2.796   3.875  15.057  1.4510  0.1935  0.8263
 4059TIP3    H233669   2.694   3.903  15.165 -1.4610  1.1292 -2.0064
 4060TIP3   OH233670   4.103   3.665  13.022 -0.2854 -0.1969 -0.9657
 4060TIP3    H133671   4.147   3.690  12.941 -1.3520 -0.9899 -1.8148
 4060TIP3    H233672   4.069   3.747  13.057  0.6935  0.2359 -0.9897
 4061TIP3   OH233673   3.880   1.899  14.801  0.2035 -0.5002  0.4477
 4061TIP3    H133674   3.828   1.830  14.758  1.1718 -0.8400 -0.2353
 4061TIP3    H233675   3.863   1.978  14.750 -1.8381  0.1036  1.9391
 4062TIP3   OH233676   5.804   5.652   5.191 -0.0625 -0.3604  0.2153
 4062TIP3    H133677   5.857   5.694   5.259  1.3186 -2.1271  0.2874
 4062TIP3    H233678   5.736   5.717   5.170  0.1337  0.6578  2.4737
 4063TIP3   OH233679   3.802   6.442   2.413  0.0873 -1.0845 -0.1218
 4063TIP3    H133680   3.727   6.411   2.362  0.2360 -0.0204 -1.0381
 4063TIP3    H233681   3.863   6.474   2.347  0.0364  0.9072  0.7525
 4064TIP3   OH233682   3.727   3.312  15.464  0.1692 -0.2593 -0.1129
 4064TIP3    H133683   3.701   3.222  15.481 -3.6973  0.5324 -0.8945
 4064TIP3    H233684   3.674   3.364  15.523  2.5592  1.5950  0.5774
 4065TIP3   OH233685   1.350   2.854  13.390 -0.0326 -0.0863 -0.3260
 4065TIP3    H133686   1.423   2.838  13.331 -0.1045 -0.9892 -0.1840
 4065TIP3    H233687   1.381   2.826  13.476 -0.6387 -0.7662 -0.3179
 4066TIP3   OH233688   2.313   0.232   4.568 -0.5092 -0.5202  0.2060
 4066TIP3    H133689   2.231   0.194   4.600  0.1716 -0.6429  1.9410
 4066TIP3    H233690   2.312   0.322   4.601 -0.1077 -0.4172 -0.0560
 4067TIP3   OH233691   2.242   3.389  16.863  0.4858  0.4196  0.9055
 4067TIP3    H133692   2.249   3.462  16.800  0.6260 -0.5488 -0.2277
 4067TIP3    H233693   2.289   3.420  16.941 -0.3408  1.9483  0.8419
 4068TIP3   OH233694   6.510   2.445  16.920  0.4140  0.1438  0.0323
 4068TIP3    H133695   6.550   2.423  17.004  1.2201  0.5019 -0.2534
 4068TIP3    H233696   6.582   2.475  16.866  0.4323 -2.8361 -1.7782
 4069TIP3   OH233697   2.840   2.286  11.344  0.1863  0.2960 -0.3816
 4069TIP3    H133698   2.908   2.221  11.362  0.4831  0.9210  0.9433
 4069TIP3    H233699   2.763   2.253  11.390 -0.1480  0.0391 -1.1247
 4070TIP3   OH233700   4.996   3.745   1.171 -0.1200  0.3211 -0.3996
 4070TIP3    H133701   4.927   3.774   1.111 -1.1329 -1.6184 -0.2763
 4070TIP3    H233702   4.956   3.673   1.220  1.1663  0.8650  1.5779
 4071TIP3   OH233703   3.673   3.149   3.311  0.0113  0.5038 -0.3361
 4071TIP3    H133704   3.690   3.102   3.392  0.8839 -0.0821 -0.8406
 4071TIP3    H233705   3.600   3.103   3.271 -0.5921  0.9517  0.2284
 4072TIP3   OH233706   0.784   6.018   6.000  1.1334 -0.2816  0.8149
 4072TIP3    H133707   0.725   5.990   6.070  1.1193  0.8312  1.2573
 4072TIP3    H233708   0.725   6.041   5.928  0.9910  1.0952  1.3505
 4073TIP3   OH233709   5.953   5.585   2.373  0.3092 -0.2355 -0.1151
 4073TIP3    H133710   5.985   5.502   2.409  1.0297  0.6618  1.3838
 4073TIP3    H233711   5.938   5.640   2.450 -2.7905  0.1453 -0.8747
 4074TIP3   OH233712   2.650   6.835  12.682 -0.4031 -0.2287 -0.3753
 4074TIP3    H133713   2.592   6.887  12.738 -1.7668 -1.5632 -0.5001
 4074TIP3    H233714   2.738   6.856  12.713 -1.0801 -0.2466  1.6728
 4075TIP3   OH233715   5.465   4.182  16.111  0.6757  0.4560 -0.4328
 4075TIP3    H133716   5.493   4.272  16.124  1.1184  0.0569  1.7378
 4075TIP3    H233717   5.538   4.141  16.064  0.1678  1.3312 -2.1019
 4076TIP3   OH233718   0.346   0.571   4.841 -0.0487  0.1330  0.0425
 4076TIP3    H133719   0.336   0.642   4.903  1.0391 -0.8508  1.4245
 4076TIP3    H233720   0.439   0.549   4.845  0.4492  1.1070 -3.2102
 4077TIP3   OH233721   4.011   1.133   5.965  0.1475 -0.4416 -0.1742
 4077TIP3    H133722   4.027   1.040   5.984  1.3646 -0.4911 -1.3137
 4077TIP3    H233723   4.083   1.178   6.010  0.2109 -0.1583 -0.5573
 4078TIP3   OH233724   2.510   1.595  12.940  0.4129  0.1557 -0.2915
 4078TIP3    H133725   2.573   1.539  12.984  1.5435  0.9755 -0.8319
 4078TIP3    H233726   2.552   1.681  12.935 -0.8352  0.7912 -0.4559
 4079TIP3   OH233727   2.159   4.818   2.420  0.3618 -0.5477  0.3139
 4079TIP3    H133728   2.235   4.876   2.429  0.6190 -0.8015 -0.1846
 4079TIP3    H233729   2.182   4.741   2.472  0.3294 -0.5090  0.3851
 4080TIP3   OH233730   2.567   4.508   1.411  0.4808  0.3785 -0.0040
 4080TIP3    H133731   2.533   4.552   1.489 -0.7919  1.0567 -0.9046
 4080TIP3    H233732   2.658   4.485   1.434  0.4172  1.3568  1.3398
 4081TIP3   OH233733   2.898   1.917  15.170  0.3339 -0.2930 -0.1137
 4081TIP3    H133734   2.847   1.996  15.153  1.9850  1.4166  2.1976
 4081TIP3    H233735   2.837   1.845  15.155 -1.8349  1.4924 -0.3851
 4082TIP3   OH233736   2.572   0.605   2.444 -0.2205 -0.3740 -0.0301
 4082TIP3    H133737   2.665   0.598   2.426 -0.1493 -0.3287  0.3100
 4082TIP3    H233738   2.529   0.559   2.372  0.0763 -0.6521 -0.0264
 4083TIP3   OH233739   5.734   0.365   3.330  0.3103  0.2578 -0.2924
 4083TIP3    H133740   5.741   0.408   3.415 -1.5328  1.7806 -0.8453
 4083TIP3    H233741   5.818   0.380   3.288  1.6961 -1.5162  1.6291
 4084TIP3   OH233742   2.489   5.661  11.858 -0.0052 -0.5179 -0.3231
 4084TIP3    H133743   2.455   5.691  11.943  0.8393  2.2029 -0.8511
 4084TIP3    H233744   2.443   5.716  11.794  0.6945 -1.2722 -1.4874
 4085TIP3   OH233745   2.226   2.209  13.659  0.0610 -0.0699  0.8778
 4085TIP3    H133746   2.207   2.125  13.703  2.1775 -1.1622 -0.1734
 4085TIP3    H233747   2.155   2.219  13.596  0.1953 -1.4920  0.4651
 4086TIP3   OH233748   6.388   6.008   0.971  0.4211  0.3344 -0.0750
 4086TIP3    H133749   6.457   5.988   1.034  0.3264  1.7947  0.5419
 4086TIP3    H233750   6.433   6.057   0.902  0.1348  0.6715 -0.0242
 4087TIP3   OH233751   1.064   4.922   1.948 -0.0533  0.3839 -0.3471
 4087TIP3    H133752   1.039   5.008   1.916  0.1869  1.0976  1.2901
 4087TIP3    H233753   1.160   4.920   1.940  0.1543  1.1050  1.4842
 4088TIP3   OH233754   1.970   4.504   2.363  0.1242 -0.0649  0.1214
 4088TIP3    H133755   2.002   4.550   2.441  0.3725  1.2152 -0.7026
 4088TIP3    H233756   1.913   4.436   2.398  0.9822 -0.1524  1.4648
 4089TIP3   OH233757   4.566   5.944  16.911 -0.8747 -0.3621 -0.4248
 4089TIP3    H133758   4.541   5.971  16.823 -0.7637 -0.5841 -0.5254
 4089TIP3    H233759   4.540   6.017  16.967 -1.3933 -0.4214 -0.5756
 4090TIP3   OH233760   5.419   0.279   4.387  0.0089  0.1237 -0.4352
 4090TIP3    H133761   5.336   0.235   4.403 -0.8935  2.7085  2.9908
 4090TIP3    H233762   5.471   0.263   4.466  1.3730  1.4466 -1.0103
 4091TIP3   OH233763   3.791   0.280  12.785  0.0330  0.6195 -0.3394
 4091TIP3    H133764   3.855   0.219  12.747 -0.8488  0.2592 -1.2750
 4091TIP3    H233765   3.843   0.357  12.809  1.0667 -0.2383  0.3060
 4092TIP3   OH233766   6.418   1.842  10.617 -0.2516  0.2992 -0.0920
 4092TIP3    H133767   6.488   1.865  10.556 -0.6638 -0.3489 -0.8260
 4092TIP3    H233768   6.380   1.762  10.581  0.2353 -0.7583  1.6326
 4093TIP3   OH233769   5.618   1.725   2.906 -0.8003 -0.4187 -0.1352
 4093TIP3    H133770   5.651   1.752   2.820 -0.4577  0.4969  0.2733
 4093TIP3    H233771   5.531   1.763   2.912 -0.2896  0.7028  0.4696
 4094TIP3   OH233772   3.626   6.505   1.285  0.6132  0.0586  0.3572
 4094TIP3    H133773   3.645   6.589   1.244  1.2282 -0.2485 -0.0118
 4094TIP3    H233774   3.631   6.441   1.213 -0.4787 -0.2170  0.5134
 4095TIP3   OH233775   0.815   1.683   1.500 -0.4508 -0.4222  0.4937
 4095TIP3    H133776   0.762   1.647   1.429 -0.9004  0.1152  0.5578
 4095TIP3    H233777   0.776   1.649   1.580 -0.3477 -0.4904  0.5155
 4096TIP3   OH233778   4.194   6.746   4.709  0.5473  0.1913  0.2321
 4096TIP3    H133779   4.151   6.741   4.623  0.9015  1.2473 -0.0288
 4096TIP3    H233780   4.230   6.835   4.712 -0.1819  0.4613  1.8258
 4097TIP3   OH233781   4.843   1.820   5.813  0.4498 -0.3421  0.3395
 4097TIP3    H133782   4.935   1.835   5.833  0.2509  0.2845  0.8078
 4097TIP3    H233783   4.795   1.860   5.885 -0.2584  0.9821 -0.8188
 4098TIP3   OH233784   6.395   3.062  16.955  0.3710 -0.1816 -0.1725
 4098TIP3    H133785   6.416   3.121  16.882  1.5922 -0.0156  0.2866
 4098TIP3    H233786   6.420   3.111  17.033 -0.9462 -0.3509  0.3786
 4099TIP3   OH233787   4.994   3.925  11.186 -0.0225  0.3382 -0.4627
 4099TIP3    H133788   4.915   3.977  11.173 -0.3491 -0.0161  0.0386
 4099TIP3    H233789   4.961   3.835  11.199  0.4644  0.1812 -0.3106
 4100TIP3   OH233790   1.392   0.125  12.719 -0.0513  0.3768 -0.0270
 4100TIP3    H133791   1.385   0.044  12.669  0.5851  1.4427 -1.9541
 4100TIP3    H233792   1.398   0.097  12.810 -2.2742 -1.6323 -0.3837
 4101TIP3   OH233793   5.637   2.047   3.553 -0.6956  0.3153 -0.3875
 4101TIP3    H133794   5.648   2.013   3.465 -0.7083  0.0723 -0.2954
 4101TIP3    H233795   5.683   1.985   3.609 -1.6224 -0.1306 -0.1094
 4102TIP3   OH233796   0.906   5.675  15.455 -0.0177  0.4347  0.4088
 4102TIP3    H133797   0.932   5.727  15.379  1.1447 -0.8444 -0.0907
 4102TIP3    H233798   0.952   5.592  15.446 -1.3062 -0.4630  1.5471
 4103TIP3   OH233799   1.001   2.403  15.417  0.0760  0.1600  0.3461
 4103TIP3    H133800   1.055   2.454  15.356 -0.3078  1.0178  0.7012
 4103TIP3    H233801   0.916   2.396  15.374 -0.3677  1.2430  0.9804
 4104TIP3   OH233802   0.982   0.346  13.488  0.1585  0.4950 -0.0726
 4104TIP3    H133803   1.011   0.398  13.413  1.1357 -0.5450 -0.4391
 4104TIP3    H233804   0.914   0.288  13.452  0.4115  0.2075 -0.0897
 4105TIP3   OH233805   3.191   3.140  11.821 -0.2980  0.6285  0.0672
 4105TIP3    H133806   3.142   3.144  11.739  0.3098 -3.0144 -0.6238
 4105TIP3    H233807   3.281   3.121  11.794  0.1098  0.3305  1.5514
 4106TIP3   OH233808   2.242   6.365   5.657 -0.4828  0.3566 -0.4374
 4106TIP3    H133809   2.209   6.455   5.658  0.4639  0.7196  0.9686
 4106TIP3    H233810   2.307   6.364   5.587 -0.5231  0.7655 -0.4832
 4107TIP3   OH233811   3.492   1.246   4.968 -0.1107 -0.6718 -0.1146
 4107TIP3    H133812   3.453   1.164   4.999  0.9177 -0.8561  0.7666
 4107TIP3    H233813   3.581   1.222   4.943 -0.3397 -0.1429 -1.4960
 4108TIP3   OH233814   6.255   4.469  12.815 -0.4207 -0.2978  0.1843
 4108TIP3    H133815   6.313   4.431  12.881  0.5307 -0.4189 -0.6815
 4108TIP3    H233816   6.180   4.503  12.864 -1.2046 -3.0332  1.0430
 4109TIP3   OH233817   3.110   3.808  16.388  0.2607 -0.5151  0.0924
 4109TIP3    H133818   3.053   3.731  16.382 -1.7667  0.9281 -0.5075
 4109TIP3    H233819   3.160   3.795  16.468  0.7895 -2.9510 -0.5696
 4110TIP3   OH233820   2.188   3.305  12.216 -0.2873 -0.0539  0.3651
 4110TIP3    H133821   2.240   3.376  12.254 -0.3846 -0.0411  0.4756
 4110TIP3    H233822   2.124   3.350  12.160  0.1820 -0.0997 -0.2183
 4111TIP3   OH233823   3.711   2.403  14.368 -0.0540 -0.0633 -0.3414
 4111TIP3    H133824   3.746   2.411  14.457  0.7220 -0.6542 -0.5843
 4111TIP3    H233825   3.662   2.484  14.354  0.5077  0.4014  0.3221
 4112TIP3   OH233826   3.145   1.168   2.546  0.1918  0.1508 -0.5963
 4112TIP3    H133827   3.214   1.138   2.487  0.7990  1.0037 -0.3415
 4112TIP3    H233828   3.075   1.197   2.488 -0.5816 -2.0462 -0.8502
 4113TIP3   OH233829   1.227   0.123   3.698  0.2735 -0.3217  0.3024
 4113TIP3    H133830   1.317   0.127   3.729  0.4411  0.2092 -0.2174
 4113TIP3    H233831   1.226   0.051   3.636 -0.0777 -1.4259  1.5592
 4114TIP3   OH233832   0.909   2.499  13.030 -0.3282 -0.1770  0.3828
 4114TIP3    H133833   0.942   2.505  13.120 -1.7683  2.3069  0.8375
 4114TIP3    H233834   0.923   2.408  13.006  0.5512 -0.8157  2.9502
 4115TIP3   OH233835   2.463   6.560  16.506  0.1892 -0.2467  0.4015
 4115TIP3    H133836   2.532   6.611  16.550  0.7737  0.6768 -1.4658
 4115TIP3    H233837   2.504   6.533  16.423 -1.7157  0.4491 -0.8228
 4116TIP3   OH233838   6.014   6.345  15.644 -0.8254 -0.3131 -0.9554
 4116TIP3    H133839   5.975   6.352  15.557 -0.4060  1.4924 -1.0452
 4116TIP3    H233840   6.078   6.275  15.636 -2.2955 -1.6506 -1.4780
 4117TIP3   OH233841   2.817   1.701  17.050 -0.5274 -0.7021  0.4037
 4117TIP3    H133842   2.794   1.742  17.134  0.7392  1.1822 -0.0990
 4117TIP3    H233843   2.777   1.614  17.054 -1.2726 -0.3285  2.5709
 4118TIP3   OH233844   4.689   0.001   4.275  0.0839 -0.6287  0.0919
 4118TIP3    H133845   4.706   0.095   4.262 -1.0634 -0.2894  0.8441
 4118TIP3    H233846   4.659  -0.030   4.190  0.4389 -0.3161 -0.1539
 4119TIP3   OH233847   0.105   1.011   4.086  0.5575  0.3461  0.0676
 4119TIP3    H133848   0.097   1.105   4.106 -2.1103  0.2285 -0.1453
 4119TIP3    H233849   0.072   1.003   3.996 -0.1655 -0.8996  0.4217
 4120TIP3   OH233850   0.801   4.883   0.936  0.0749 -0.3904 -0.4978
 4120TIP3    H133851   0.717   4.903   0.977  0.4561 -1.2156  0.7371
 4120TIP3    H233852   0.820   4.960   0.882  0.2942  1.4987  2.0799
 4121TIP3   OH233853   6.203   4.682   1.012 -0.2456  0.3372 -0.2267
 4121TIP3    H133854   6.242   4.596   1.026  0.5041  1.0438  2.8290
 4121TIP3    H233855   6.275   4.736   0.978  0.1484  0.4409  0.7271
 4122TIP3   OH233856   1.105   1.456   4.924 -0.1908 -0.4862 -0.4266
 4122TIP3    H133857   1.125   1.471   4.831  2.7827 -0.6144  0.0946
 4122TIP3    H233858   1.039   1.387   4.923 -0.9896  0.2224 -2.4349
 4123TIP3   OH233859   4.659   2.538  14.901 -0.3706  0.8122  0.8408
 4123TIP3    H133860   4.744   2.573  14.927 -0.3672  0.0610  1.9142
 4123TIP3    H233861   4.602   2.557  14.975 -0.7465 -0.0645  0.7896
 4124TIP3   OH233862   6.144   4.050  13.749 -0.2668 -0.2361  0.7076
 4124TIP3    H133863   6.206   4.095  13.692  0.3585 -0.4423  1.2102
 4124TIP3    H233864   6.197   4.018  13.821 -0.7171 -1.6118  0.4644
 4125TIP3   OH233865   1.624   0.163  15.872 -0.6878  0.1988 -0.3041
 4125TIP3    H133866   1.592   0.246  15.837 -1.0959 -0.6915 -2.1762
 4125TIP3    H233867   1.597   0.163  15.963 -3.5494  0.7367 -1.0533
 4126TIP3   OH233868   4.641   6.036   4.652 -0.1437  0.1339  0.2057
 4126TIP3    H133869   4.691   5.968   4.698  0.8166  0.2492 -0.6206
 4126TIP3    H233870   4.560   5.992   4.626  0.1097 -0.4577  0.3819
 4127TIP3   OH233871   0.059   3.206   0.671  0.1908 -0.1684  0.4515
 4127TIP3    H133872   0.004   3.282   0.652 -1.0541 -0.7181  1.6796
 4127TIP3    H233873   0.091   3.178   0.586 -2.6383 -0.6928 -0.5579
 4128TIP3   OH233874   1.977   5.347  15.069  0.4409 -0.1362 -0.5553
 4128TIP3    H133875   2.026   5.415  15.114  0.8449 -0.4455 -0.5179
 4128TIP3    H233876   2.041   5.277  15.054 -0.1606 -0.8562  0.1437
 4129TIP3   OH233877   0.469   1.378  16.759  0.1246  0.0756  0.1136
 4129TIP3    H133878   0.477   1.433  16.837 -0.2213  0.6752 -0.2716
 4129TIP3    H233879   0.377   1.384  16.735  0.0471 -0.8272  0.1771
 4130TIP3   OH233880   4.813   1.016   2.373 -0.1923 -0.2230 -0.9391
 4130TIP3    H133881   4.821   0.968   2.290 -0.0807 -0.2408 -0.9175
 4130TIP3    H233882   4.785   0.950   2.436  0.1495 -0.3000 -0.8675
 4131TIP3   OH233883   3.699   5.739  14.809  0.3121 -0.2386  0.0022
 4131TIP3    H133884   3.790   5.714  14.799  0.0239 -2.2097  1.6241
 4131TIP3    H233885   3.691   5.764  14.901 -1.2539 -2.6516  0.6183
 4132TIP3   OH233886   4.615   0.658  13.574 -0.1407  0.0055  0.3857
 4132TIP3    H133887   4.640   0.582  13.521 -2.0344 -0.1178 -0.4197
 4132TIP3    H233888   4.694   0.681  13.621  0.6383 -2.1441  0.2517
 4133TIP3   OH233889   3.463   1.267  11.006 -0.2467 -0.1151 -0.2629
 4133TIP3    H133890   3.474   1.207  11.080  2.7183  0.2663 -0.2571
 4133TIP3    H233891   3.499   1.350  11.037 -0.4007  0.4927 -1.6308
 4134TIP3   OH233892   3.014   2.778  10.897  0.2520 -0.0197 -0.6317
 4134TIP3    H133893   3.041   2.870  10.897  0.8255 -0.1863 -0.4900
 4134TIP3    H233894   3.042   2.745  10.811 -1.6124  0.4069 -1.4572
 4135TIP3   OH233895   6.029   1.787  16.887 -0.2598 -0.5596 -0.3234
 4135TIP3    H133896   5.987   1.746  16.811 -0.5985 -0.6548 -0.0876
 4135TIP3    H233897   6.123   1.771  16.874 -0.3614 -1.0935 -0.4243
 4136TIP3   OH233898   3.572   4.841   2.173 -0.1005  1.3640  0.2678
 4136TIP3    H133899   3.534   4.879   2.094  2.2218 -1.5069 -2.5010
 4136TIP3    H233900   3.508   4.776   2.202  0.3948  0.0397 -1.4127
 4137TIP3   OH233901   2.164   4.653  13.848  0.4558 -0.3022 -0.7759
 4137TIP3    H133902   2.158   4.593  13.923  1.5920  1.1621  0.5724
 4137TIP3    H233903   2.089   4.711  13.858  0.5233 -0.1979 -0.8763
 4138TIP3   OH233904   5.233   3.889   3.720 -0.5065 -0.0753 -0.4769
 4138TIP3    H133905   5.180   3.821   3.678  0.9877 -0.6255 -1.5489
 4138TIP3    H233906   5.282   3.842   3.787 -0.5485  0.2193 -0.2414
 4139TIP3   OH233907   4.542   0.351  12.306 -0.0534  0.3129  0.0257
 4139TIP3    H133908   4.636   0.371  12.298  0.1785 -0.7179  0.0300
 4139TIP3    H233909   4.524   0.360  12.400  0.2984 -0.4784  0.1876
 4140TIP3   OH233910   6.250   6.426   2.368  0.0201 -0.6889 -0.7347
 4140TIP3    H133911   6.219   6.431   2.277 -0.5586 -2.5312 -0.6698
 4140TIP3    H233912   6.295   6.342   2.373  1.3962  0.0660  0.3133
 4141TIP3   OH233913   5.850   1.456   4.417 -0.5118 -0.1967  0.0619
 4141TIP3    H133914   5.906   1.379   4.427 -0.5329 -0.0295  1.7948
 4141TIP3    H233915   5.768   1.422   4.383 -0.3456 -0.8770  0.3214
 4142TIP3   OH233916   6.515   6.078   5.744 -0.6652  0.0174  0.0266
 4142TIP3    H133917   6.449   6.012   5.762  0.6761 -1.1363  0.8834
 4142TIP3    H233918   6.505   6.097   5.650 -2.4224  0.1641  0.2069
 4143TIP3   OH233919   1.032   1.105   1.274  0.0387 -0.2303  0.0781
 4143TIP3    H133920   0.971   1.172   1.305 -0.6730 -0.4786 -0.7570
 4143TIP3    H233921   1.041   1.045   1.348  0.0864  0.3749  0.5673
 4144TIP3   OH233922   0.989   0.116  12.424 -0.1665 -0.4674  0.5816
 4144TIP3    H133923   1.039   0.183  12.470  0.7701 -0.7540  0.0076
 4144TIP3    H233924   1.054   0.069  12.371 -1.2366 -0.0028 -1.2154
 4145TIP3   OH233925   4.204   0.993   0.661  0.0734 -0.5154  0.6488
 4145TIP3    H133926   4.239   0.921   0.713  0.2429 -1.0220 -0.1475
 4145TIP3    H233927   4.272   1.011   0.597 -1.1161 -1.5541 -0.9688
 4146TIP3   OH233928   2.328   6.122   4.497 -0.1080  0.1407  0.7538
 4146TIP3    H133929   2.329   6.135   4.402  0.6043  0.7818  0.8332
 4146TIP3    H233930   2.401   6.175   4.529 -0.3525 -0.0481  1.6653
 4147TIP3   OH233931   2.029   5.639   2.987 -0.4005 -0.3017 -0.2358
 4147TIP3    H133932   2.051   5.598   3.071  0.5358  0.9949  0.1967
 4147TIP3    H233933   1.987   5.722   3.012  0.9198  0.6436 -0.9901
 4148TIP3   OH233934   6.174   6.476  16.905  0.5036  0.4815 -0.2245
 4148TIP3    H133935   6.140   6.390  16.928  0.0960  0.6509 -0.1793
 4148TIP3    H233936   6.135   6.495  16.819  0.7599  0.5293 -0.3310
 4149TIP3   OH233937   0.228   4.444  12.342  0.3935  0.2427  0.2382
 4149TIP3    H133938   0.220   4.521  12.285  1.8353  0.4582  0.2731
 4149TIP3    H233939   0.248   4.372  12.282 -0.8535 -0.0936  0.2161
 4150TIP3   OH233940   2.194   5.732   2.781  0.8863  0.1615 -0.0224
 4150TIP3    H133941   2.139   5.696   2.850  1.5110 -0.9896 -0.0901
 4150TIP3    H233942   2.165   5.688   2.701  1.1929  0.3261 -0.2301
 4151TIP3   OH233943   2.978   3.855  15.974 -0.6304 -0.1893  0.1028
 4151TIP3    H133944   3.027   3.773  15.970  1.3170  0.8086  1.6544
 4151TIP3    H233945   3.020   3.911  15.908  0.3666  0.6652  1.4235
 4152TIP3   OH233946   3.821   1.121  12.533 -0.2413  0.1978 -0.3768
 4152TIP3    H133947   3.744   1.172  12.507 -0.5226  0.6443  1.1855
 4152TIP3    H233948   3.895   1.170  12.497 -0.6348  0.4430 -0.8630
 4153TIP3   OH233949   2.355   4.974  13.442 -0.0622  0.4762 -0.3770
 4153TIP3    H133950   2.283   4.913  13.426 -0.6544  0.5050  1.7824
 4153TIP3    H233951   2.345   5.041  13.375 -0.9172 -0.4968 -1.2539
 4154TIP3   OH233952   5.185   0.709  11.297  0.2017  0.6865  0.0385
 4154TIP3    H133953   5.106   0.757  11.322  1.1644  2.2961  0.1292
 4154TIP3    H233954   5.255   0.774  11.302  1.6954 -0.9179  0.8381
 4155TIP3   OH233955   3.627   3.111   0.631 -0.2621  0.3396 -0.4276
 4155TIP3    H133956   3.708   3.098   0.582 -0.5804 -0.7943 -0.6787
 4155TIP3    H233957   3.558   3.080   0.573 -0.5892 -1.6897  0.9343
 4156TIP3   OH233958   1.856   4.219  12.482  0.0856 -0.3093  0.2483
 4156TIP3    H133959   1.911   4.142  12.492  0.3203 -0.0461  1.0445
 4156TIP3    H233960   1.776   4.198  12.531  0.2851  0.0855  0.7425
 4157TIP3   OH233961   1.634   6.606   1.927 -0.4023 -0.1919  0.0303
 4157TIP3    H133962   1.678   6.690   1.939 -0.6658 -0.1541  0.7491
 4157TIP3    H233963   1.688   6.543   1.975  0.7929 -0.7736 -1.9666
 4158TIP3   OH233964   1.192   1.143  12.678  0.8597  0.1868  0.1217
 4158TIP3    H133965   1.235   1.124  12.761  1.0612 -0.7748 -0.1926
 4158TIP3    H233966   1.099   1.128  12.694  0.7495  1.2007  0.5003
 4159TIP3   OH233967   6.337   4.481  17.127  0.6643  0.6859 -0.1214
 4159TIP3    H133968   6.278   4.409  17.105  3.0246 -1.2766 -0.4940
 4159TIP3    H233969   6.279   4.551  17.156 -1.7962 -1.2884  0.1238
 4160TIP3   OH233970   2.221   2.365  11.482 -0.0026  0.0358  0.2331
 4160TIP3    H133971   2.149   2.342  11.540  0.1249 -3.1369 -0.6550
 4160TIP3    H233972   2.200   2.322  11.399  0.9311  2.4995 -1.4105
 4161TIP3   OH233973   0.274   0.007   5.868  0.1953 -0.2583  0.4565
 4161TIP3    H133974   0.283   0.099   5.844  0.0414 -0.9452 -2.7851
 4161TIP3    H233975   0.284   0.005   5.963  0.0371  3.0902  0.6514
 4162TIP3   OH233976   4.248   5.539   0.711  0.0063 -0.0383  0.3527
 4162TIP3    H133977   4.179   5.476   0.733  0.5767 -0.8403 -0.0761
 4162TIP3    H233978   4.254   5.596   0.787  1.9219 -2.7114  2.4002
 4163TIP3   OH233979   1.519   5.472   0.378  0.1272  0.5845 -0.0704
 4163TIP3    H133980   1.526   5.386   0.418 -1.3641 -0.1888 -1.3825
 4163TIP3    H233981   1.542   5.533   0.449  0.9952 -0.8530  0.9386
 4164TIP3   OH233982   6.828   2.755  16.945  0.3526  0.3162 -0.2982
 4164TIP3    H133983   6.846   2.662  16.932 -0.1724  0.1406  0.2042
 4164TIP3    H233984   6.798   2.786  16.859  2.0117  0.3867 -0.8816
 4165TIP3   OH233985   3.415   2.796   4.519 -0.2810  0.1044  0.4474
 4165TIP3    H133986   3.488   2.734   4.527  0.3323  0.9793  2.0894
 4165TIP3    H233987   3.400   2.827   4.609 -3.5641 -1.0031  0.4283
 4166TIP3   OH233988   5.040   6.663   2.844  0.5727  0.1428  0.3432
 4166TIP3    H133989   5.102   6.640   2.774  0.1833 -0.1561  0.0957
 4166TIP3    H233990   4.958   6.622   2.818  0.1986  0.7487  0.5449
 4167TIP3   OH233991   3.346   6.621  16.466 -0.8656 -0.4913 -0.5294
 4167TIP3    H133992   3.311   6.553  16.408 -1.0122 -0.4422 -0.4984
 4167TIP3    H233993   3.284   6.625  16.539  0.3684 -1.9537  0.6675
 4168TIP3   OH233994   0.645   4.588  15.910 -0.0745  0.1764  0.7067
 4168TIP3    H133995   0.620   4.564  15.999 -0.3108  0.0668  0.6097
 4168TIP3    H233996   0.591   4.533  15.854 -0.8956  1.1768  0.4762
 4169TIP3   OH233997   6.716   6.045  11.740 -0.2116  0.2362 -0.1682
 4169TIP3    H133998   6.766   6.125  11.757 -0.3736  0.4580 -0.7060
 4169TIP3    H233999   6.638   6.053  11.794 -0.1399  0.3501 -0.0799
 4170TIP3   OH234000   3.928   5.152   2.435 -0.2776  0.2212  0.1488
 4170TIP3    H134001   3.859   5.110   2.384  0.3642  2.9338 -3.2388
 4170TIP3    H234002   3.896   5.240   2.452  0.5532  0.1488  2.5414
 4171TIP3   OH234003   2.477   1.424  14.220  0.2251 -0.3708  0.2652
 4171TIP3    H134004   2.535   1.394  14.290  1.7666 -0.9284 -1.1952
 4171TIP3    H234005   2.534   1.469  14.158 -1.3474  1.5359  0.0920
 4172TIP3   OH234006   2.213   4.808  14.903  0.4750 -0.2861  0.0964
 4172TIP3    H134007   2.219   4.777  14.993 -2.4859 -0.3740  0.3545
 4172TIP3    H234008   2.161   4.889  14.908 -1.3185 -1.2287 -1.6352
 4173TIP3   OH234009   1.382   6.433  10.888  0.2387 -0.2673 -0.7976
 4173TIP3    H134010   1.453   6.487  10.924  0.4764  0.0791 -1.7407
 4173TIP3    H234011   1.400   6.345  10.919  1.9305 -0.4578 -2.2026
 4174TIP3   OH234012   6.341   3.300  11.094  0.0732  0.4219 -0.0778
 4174TIP3    H134013   6.316   3.393  11.091  0.2548  0.4856  0.2906
 4174TIP3    H234014   6.345   3.273  11.002 -1.7960  0.2806 -0.1490
 4175TIP3   OH234015   1.501   2.280  14.639  0.2444  0.3738  0.0063
 4175TIP3    H134016   1.543   2.287  14.554  0.0521  2.0184  0.0117
 4175TIP3    H234017   1.556   2.219  14.689  1.6971  1.2123 -0.5259
 4176TIP3   OH234018   2.905   5.334  11.212 -0.0618 -0.5761  0.4817
 4176TIP3    H134019   2.918   5.242  11.187  2.8067  0.1874 -1.3159
 4176TIP3    H234020   2.831   5.363  11.158  0.7009 -1.1794 -0.9459
 4177TIP3   OH234021   0.553   0.179   0.015 -0.2839 -0.3153 -0.8201
 4177TIP3    H134022   0.585   0.263   0.047  1.4281 -0.1766 -2.6543
 4177TIP3    H234023   0.481   0.201  -0.044 -1.1489 -0.3160  0.2127
 4178TIP3   OH234024   0.545   0.783  16.757 -0.2074  0.9276  0.3575
 4178TIP3    H134025   0.604   0.779  16.682 -1.7511  0.2652 -0.8905
 4178TIP3    H234026   0.505   0.870  16.752 -0.1012  0.9916  0.5939
 4179TIP3   OH234027   0.847   5.584   2.149 -0.0108 -0.3521 -0.4098
 4179TIP3    H134028   0.780   5.534   2.197  0.1234 -1.4074 -1.2751
 4179TIP3    H234029   0.892   5.518   2.096 -0.2344  0.7902 -2.0868
 4180TIP3   OH234030   1.874   0.465   4.225  0.4468  0.1444  0.3499
 4180TIP3    H134031   1.918   0.429   4.148  1.2258  0.5805  0.5752
 4180TIP3    H234032   1.785   0.430   4.221  0.7644 -0.6235 -0.2150
 4181TIP3   OH234033   4.774   3.113   5.478 -0.2855  0.1400 -0.1996
 4181TIP3    H134034   4.681   3.121   5.454 -0.8554 -2.3934  0.9255
 4181TIP3    H234035   4.796   3.198   5.517 -1.5086  1.5213 -2.3038
 4182TIP3   OH234036   3.145   3.153  14.938  0.9577 -0.2370 -0.3848
 4182TIP3    H134037   3.221   3.142  14.880  1.4279 -0.3520  0.2393
 4182TIP3    H234038   3.176   3.124  15.024 -0.0427 -1.0350 -0.2807
 4183TIP3   OH234039   6.007   5.529  11.230 -0.5779  0.4261  0.4685
 4183TIP3    H134040   6.080   5.578  11.268 -0.7058  0.8661  0.1626
 4183TIP3    H234041   5.968   5.590  11.167 -1.1191  0.1434  0.5272
 4184TIP3   OH234042   2.903   0.768  15.309  0.6411  0.3319  0.1841
 4184TIP3    H134043   2.934   0.715  15.236  1.0055  0.1971  0.4335
 4184TIP3    H234044   2.841   0.829  15.270  0.6584  0.1043 -0.1990
 4185TIP3   OH234045   5.163   1.351   1.202  0.4494  0.2745  0.5155
 4185TIP3    H134046   5.178   1.283   1.268  0.4095 -0.1926  0.0483
 4185TIP3    H234047   5.198   1.314   1.121 -1.1070  0.1179 -0.1102
 4186TIP3   OH234048   0.916   0.777   2.373 -0.3048 -0.4712 -0.5790
 4186TIP3    H134049   0.825   0.774   2.402 -0.1234  2.1901  0.5259
 4186TIP3    H234050   0.965   0.801   2.452  0.9641  1.0507 -1.7728
 4187TIP3   OH234051   4.896   1.882  13.021 -0.5764 -0.0193 -0.0243
 4187TIP3    H134052   4.952   1.956  13.044 -0.3858 -0.4263  0.8295
 4187TIP3    H234053   4.830   1.878  13.090 -0.6900 -0.5330 -0.1540
 4188TIP3   OH234054   4.831   5.295   2.782  0.1227  0.0465 -0.0491
 4188TIP3    H134055   4.842   5.200   2.774  0.9714  0.1748 -0.5410
 4188TIP3    H234056   4.914   5.326   2.818 -0.4706  0.5108  0.9457
 4189TIP3   OH234057   2.444   6.530  13.719  0.0099  0.5958 -0.0495
 4189TIP3    H134058   2.512   6.521  13.652 -0.8716 -2.2800 -0.6599
 4189TIP3    H234059   2.442   6.445  13.762 -2.6643  0.8682  0.4803
 4190TIP3   OH234060   4.973   0.856  13.112 -0.5969  0.5116  0.1802
 4190TIP3    H134061   5.026   0.910  13.053 -2.8772  1.2275 -1.3442
 4190TIP3    H234062   4.920   0.919  13.161 -1.6643 -0.2440  0.0168
 4191TIP3   OH234063   0.843   3.563  10.928 -0.0960 -0.3029 -0.2410
 4191TIP3    H134064   0.823   3.500  10.859  0.0615 -1.5593  0.8316
 4191TIP3    H234065   0.758   3.592  10.960 -0.1680 -0.3010 -0.4320
 4192TIP3   OH234066   3.701   0.337   2.425  0.6892 -0.2648  0.6404
 4192TIP3    H134067   3.700   0.406   2.491 -0.2801  0.0331  0.3279
 4192TIP3    H234068   3.641   0.367   2.357  2.5681 -0.0140 -0.9786
 4193TIP3   OH234069   6.617   6.409  12.107  0.0056  0.0840  0.0601
 4193TIP3    H134070   6.559   6.376  12.176  0.0063  1.5944  0.8433
 4193TIP3    H234071   6.587   6.366  12.027 -1.8173  0.3688  0.5520
 4194TIP3   OH234072   3.562   6.487  14.336  0.3109  0.1662 -0.3761
 4194TIP3    H134073   3.544   6.436  14.257  1.7452  0.3814 -0.8724
 4194TIP3    H234074   3.546   6.578  14.310  1.5279  0.3116 -0.6764
 4195TIP3   OH234075   2.513   3.717   0.887 -0.2797 -0.0586 -0.4022
 4195TIP3    H134076   2.528   3.737   0.795 -0.6049  0.6125 -0.3182
 4195TIP3    H234077   2.538   3.797   0.934 -1.0245 -0.0522  0.0041
 4196TIP3   OH234078   5.893   1.642   0.469 -0.4713  0.3602 -0.3519
 4196TIP3    H134079   5.976   1.654   0.516 -1.5954 -0.1043  1.8479
 4196TIP3    H234080   5.920   1.612   0.382  1.6854  0.9436  0.0485
 4197TIP3   OH234081   3.882   3.642   2.247  0.2361 -0.1078 -0.2130
 4197TIP3    H134082   3.837   3.718   2.209  0.7194  1.1134  1.4887
 4197TIP3    H234083   3.860   3.646   2.340  1.0269 -1.5281  0.0600
 4198TIP3   OH234084   3.689   5.599  13.181  0.4955 -0.0402  0.1992
 4198TIP3    H134085   3.683   5.524  13.121 -2.9822  0.4409 -0.2906
 4198TIP3    H234086   3.701   5.674  13.123 -0.9440  0.2216  0.2004
 4199TIP3   OH234087   3.267   6.535   1.263  0.3396 -0.2026 -0.5008
 4199TIP3    H134088   3.346   6.527   1.315 -0.4037  0.7050  0.8328
 4199TIP3    H234089   3.213   6.599   1.310 -1.2918 -0.9732 -1.2280
 4200TIP3   OH234090   0.757   5.477   3.583  0.3427  0.0585  0.3572
 4200TIP3    H134091   0.747   5.522   3.667  1.1147 -0.2701  0.6430
 4200TIP3    H234092   0.766   5.385   3.607  2.2083  0.1277  0.0661
 4201TIP3   OH234093   1.449   5.909   3.494  0.3419  0.5459 -0.5302
 4201TIP3    H134094   1.537   5.916   3.530 -0.1639 -1.4760  1.3429
 4201TIP3    H234095   1.458   5.845   3.423  0.4883  0.8852 -0.8222
 4202TIP3   OH234096   4.290   1.007  17.162 -0.4128  0.0458  0.1747
 4202TIP3    H134097   4.338   1.022  17.080 -1.6920  0.2514 -0.5582
 4202TIP3    H234098   4.354   0.964  17.219  1.0441  1.4570 -0.3026
 4203TIP3   OH234099   2.224   6.284   4.724  0.1401  0.4388  0.4740
 4203TIP3    H134100   2.223   6.245   4.636 -4.4095  1.1689 -0.0617
 4203TIP3    H234101   2.276   6.363   4.715 -0.1017  0.4132 -1.5919
 4204TIP3   OH234102   6.507   1.682   0.580  0.6809 -0.4521  0.3710
 4204TIP3    H134103   6.485   1.619   0.648 -1.8486 -0.5211 -0.4152
 4204TIP3    H234104   6.452   1.656   0.505  1.1432  1.4249 -0.6674
 4205TIP3   OH234105   2.955   2.457  11.682  0.3922  0.0446  0.2290
 4205TIP3    H134106   2.959   2.361  11.681 -0.6843 -0.0276  1.1828
 4205TIP3    H234107   3.037   2.483  11.725  0.5150 -0.4721  0.3191
 4206TIP3   OH234108   2.422   2.095  10.994  0.6631  0.3185 -0.3233
 4206TIP3    H134109   2.459   2.024  10.943  2.0523  0.6974  0.1022
 4206TIP3    H234110   2.406   2.165  10.931  1.9227  0.6117 -0.3545
 4207TIP3   OH234111   3.071   3.313  17.040  0.0002 -0.2144  0.1277
 4207TIP3    H134112   3.017   3.256  17.096 -0.9698  1.3321  0.8271
 4207TIP3    H234113   3.128   3.252  16.993  0.0671 -1.6603  1.9533
 4208TIP3   OH234114   2.027   3.843  12.154 -0.7098 -0.4706  0.0970
 4208TIP3    H134115   2.017   3.776  12.223 -1.7678  1.4683  1.9470
 4208TIP3    H234116   1.997   3.799  12.075 -2.2408 -1.9747  1.4065
 4209TIP3   OH234117   5.442   0.441  12.148  0.6081 -0.5016  0.1648
 4209TIP3    H134118   5.442   0.387  12.069 -1.5222  0.1020 -0.3179
 4209TIP3    H234119   5.439   0.531  12.115  0.3958 -0.2230  0.9382
 4210TIP3   OH234120   4.921   3.137   5.844  0.2107 -0.5905  0.0659
 4210TIP3    H134121   4.847   3.100   5.891  0.5575 -1.0333  0.2688
 4210TIP3    H234122   4.912   3.232   5.857  1.0227 -0.7534  2.1528
 4211TIP3   OH234123   1.989   2.503  11.043 -0.0617  0.3442 -0.4173
 4211TIP3    H134124   2.083   2.520  11.034 -0.4417  2.9982 -0.3317
 4211TIP3    H234125   1.958   2.487  10.954  0.4564 -0.4254 -0.4582
 4212TIP3   OH234126   1.262   1.334  13.937 -0.0973 -0.1374  0.0730
 4212TIP3    H134127   1.174   1.372  13.938  0.4461  1.1897  0.9878
 4212TIP3    H234128   1.308   1.379  14.009  1.1782 -1.1569 -0.0692
 4213TIP3   OH234129   1.394   2.991  15.564  0.0786  0.4851  0.2261
 4213TIP3    H134130   1.490   2.983  15.567  0.0105 -0.4104  0.0578
 4213TIP3    H234131   1.377   3.027  15.477  0.2796  1.0064  0.3951
 4214TIP3   OH234132   2.202   6.274  14.323  0.6094 -0.5665 -0.9749
 4214TIP3    H134133   2.281   6.312  14.284  0.7317 -0.5556 -0.7144
 4214TIP3    H234134   2.210   6.180  14.305  0.3112 -0.4746 -1.6116
 4215TIP3   OH234135   4.121   1.761   1.787  0.0564 -0.1672 -0.2426
 4215TIP3    H134136   4.094   1.839   1.835 -1.8494 -0.5357 -0.6423
 4215TIP3    H234137   4.074   1.689   1.829 -0.0861 -0.7685 -1.3882
 4216TIP3   OH234138   0.954   1.764  10.114 -0.4517 -0.5422 -0.3086
 4216TIP3    H134139   0.874   1.721  10.083 -1.0984  0.3672  0.0503
 4216TIP3    H234140   0.925   1.850  10.143  0.5983 -0.3454  0.2076
 4217TIP3   OH234141   1.000   6.275  17.036 -0.0351  0.6444  0.3468
 4217TIP3    H134142   1.024   6.332  16.963 -0.8333 -1.2276 -1.5175
 4217TIP3    H234143   0.941   6.210  16.996 -1.5164  0.2656  2.9473
 4218TIP3   OH234144   4.801   5.798  13.506  0.0464 -0.1048  0.0766
 4218TIP3    H134145   4.840   5.780  13.421  0.8533  0.3864  0.3320
 4218TIP3    H234146   4.715   5.836  13.486  0.2584  0.0746 -0.5191
 4219TIP3   OH234147   1.029   2.782  11.487  0.7340 -0.8270 -0.0365
 4219TIP3    H134148   0.940   2.766  11.519  0.6998  4.9301  4.3128
 4219TIP3    H234149   1.017   2.840  11.412  0.7306  0.0184  0.6024
 4220TIP3   OH234150   1.299   5.173  12.568  0.4162 -0.0146 -0.0285
 4220TIP3    H134151   1.242   5.101  12.543 -0.3024  0.2537  0.7796
 4220TIP3    H234152   1.340   5.202  12.487  1.1097 -1.6600 -0.2971
 4221TIP3   OH234153   6.374   2.519  11.172 -0.2456 -0.6959  0.4594
 4221TIP3    H134154   6.374   2.429  11.203  0.6335 -0.4790  1.1089
 4221TIP3    H234155   6.302   2.522  11.108 -0.2759 -1.8466  0.4214
 4222TIP3   OH234156   1.455   5.920  11.144  0.0298 -0.0269  0.2904
 4222TIP3    H134157   1.438   5.827  11.158  4.4378 -0.7255  2.6486
 4222TIP3    H234158   1.500   5.923  11.059 -0.3381  0.0550  0.0925
 4223TIP3   OH234159   0.402   3.531  16.122  0.5559 -0.4090 -0.1928
 4223TIP3    H134160   0.493   3.513  16.099  1.0883 -1.4736  2.3455
 4223TIP3    H234161   0.393   3.497  16.211 -2.3186 -0.2230 -0.3204
 4224TIP3   OH234162   5.394   5.085   4.661 -0.0169 -0.5223 -0.3689
 4224TIP3    H134163   5.433   5.062   4.745  1.1868 -2.0488 -1.2956
 4224TIP3    H234164   5.305   5.113   4.683  0.1783 -1.1549  1.3691
 4225TIP3   OH234165   0.271   6.421   2.385 -0.4118 -0.0559  0.4050
 4225TIP3    H134166   0.266   6.511   2.356 -0.0798  0.2782  1.3326
 4225TIP3    H234167   0.179   6.394   2.395 -0.5492 -0.4099 -1.5483
 4226TIP3   OH234168   1.673   4.789  13.027 -0.3916  0.2523  0.2279
 4226TIP3    H134169   1.653   4.839  12.947 -1.1282 -0.4672 -0.0526
 4226TIP3    H234170   1.717   4.711  12.995  1.3542  0.9885  0.7174
 4227TIP3   OH234171   6.453   6.493   4.534  0.3840 -1.5698 -0.0757
 4227TIP3    H134172   6.366   6.531   4.540  1.2912  1.1782 -2.2658
 4227TIP3    H234173   6.482   6.484   4.625 -0.6265  1.4594  0.6447
 4228TIP3   OH234174   4.496   1.495  11.660 -0.3129 -0.0964 -0.1951
 4228TIP3    H134175   4.461   1.409  11.682  1.0173 -0.2366  1.6632
 4228TIP3    H234176   4.502   1.495  11.565 -0.4136 -2.0413 -0.2437
 4229TIP3   OH234177   3.263   6.112  11.757 -0.2594 -0.0855 -0.2244
 4229TIP3    H134178   3.199   6.063  11.706 -0.8108 -0.8734  1.1538
 4229TIP3    H234179   3.213   6.185  11.794 -0.3362 -0.5443  0.6259
 4230TIP3   OH234180   5.082   5.473  11.391 -0.1097  0.0368  0.1514
 4230TIP3    H134181   5.008   5.432  11.436  0.1033  0.6033  1.0475
 4230TIP3    H234182   5.099   5.416  11.316 -0.6275 -0.8169  0.6619
 4231TIP3   OH234183   6.091   0.143  16.769  0.3407  0.4661 -0.0846
 4231TIP3    H134184   6.021   0.164  16.708 -0.3799 -0.1524  0.5088
 4231TIP3    H234185   6.057   0.167  16.855  1.3939  1.4539  0.0812
 4232TIP3   OH234186   2.773   5.789   3.236 -0.4116  0.2738 -0.1041
 4232TIP3    H134187   2.730   5.712   3.273  0.0565 -0.3106 -0.7346
 4232TIP3    H234188   2.852   5.753   3.193 -0.4380  1.0422 -0.8161
 4233TIP3   OH234189   0.086   3.769  11.610  0.6797 -0.4864  0.0577
 4233TIP3    H134190   0.013   3.807  11.659  1.2870  0.7329  0.0455
 4233TIP3    H234191   0.096   3.681  11.647 -0.4982 -0.5008  0.3701
 4234TIP3   OH234192   4.856   5.429  14.220  0.3742  0.3635 -0.0553
 4234TIP3    H134193   4.816   5.381  14.292  0.8518 -0.3254 -0.2443
 4234TIP3    H234194   4.821   5.518  14.228 -0.9202 -0.1256  0.0018
 4235TIP3   OH234195   5.605   1.155  11.099 -0.5127  0.7339 -0.1725
 4235TIP3    H134196   5.694   1.128  11.077 -1.1630 -1.2718 -0.5367
 4235TIP3    H234197   5.573   1.199  11.020 -0.5565 -0.4540 -0.8278
 4236TIP3   OH234198   2.052   5.907  12.763  0.6421 -0.0375  0.3423
 4236TIP3    H134199   2.045   6.002  12.762  0.3948 -0.0570 -0.1965
 4236TIP3    H234200   1.963   5.877  12.779  0.8119 -0.1776  1.0882
 4237TIP3   OH234201   5.061   2.254  12.290  0.4496  0.3510 -0.5253
 4237TIP3    H134202   5.040   2.180  12.234  2.1861 -0.7258  0.1664
 4237TIP3    H234203   5.154   2.269  12.277  0.7652  0.5089  1.5222
 4238TIP3   OH234204   2.488   0.139   5.248  0.4488 -0.1427 -0.6815
 4238TIP3    H134205   2.543   0.197   5.196 -0.1932  2.1509  1.0079
 4238TIP3    H234206   2.549   0.086   5.299  1.1623  1.3008  0.0404
 4239TIP3   OH234207   6.832   3.532  14.691  0.1074 -0.0697 -0.0325
 4239TIP3    H134208   6.886   3.483  14.629 -0.2898 -0.2185 -0.2639
 4239TIP3    H234209   6.743   3.498  14.678 -0.0530  0.2142  0.3023
 4240TIP3   OH234210   0.896   6.702  16.665  0.3351  0.3936 -0.1927
 4240TIP3    H134211   0.987   6.692  16.690  0.0024 -0.2941  0.7782
 4240TIP3    H234212   0.891   6.663  16.577  1.0169  0.6670 -0.3586
 4241TIP3   OH234213   3.844   2.075   2.467 -0.1503 -0.0895 -0.2384
 4241TIP3    H134214   3.900   2.039   2.535 -0.4844 -0.6460 -0.2496
 4241TIP3    H234215   3.885   2.157   2.442  1.5560 -1.2308 -1.3788
 4242TIP3   OH234216   4.607   6.671  14.566  0.0486  0.1151 -0.4452
 4242TIP3    H134217   4.526   6.709  14.600 -1.5343 -3.6846  0.5281
 4242TIP3    H234218   4.587   6.651  14.474 -0.4855 -1.4665 -0.0232
 4243TIP3   OH234219   3.152   2.899   1.430 -0.1085 -0.3795 -0.1989
 4243TIP3    H134220   3.136   2.820   1.483  0.6842  0.9509  2.1668
 4243TIP3    H234221   3.085   2.961   1.459  1.4233  0.9751  0.6015
 4244TIP3   OH234222   4.977   4.986   4.394  0.0909 -0.5551 -0.0905
 4244TIP3    H134223   5.007   4.920   4.332 -1.1563 -0.0293 -1.3094
 4244TIP3    H234224   5.057   5.031   4.422  0.7250 -1.1426 -0.9209
 4245TIP3   OH234225   0.707   1.842  13.893 -0.0775  0.7939  0.4260
 4245TIP3    H134226   0.739   1.757  13.863 -3.8924 -1.2986  1.6313
 4245TIP3    H234227   0.731   1.844  13.986  0.0194  1.0217  0.3944
 4246TIP3   OH234228   0.235   4.997  14.816  0.3166  0.1842  0.4108
 4246TIP3    H134229   0.301   4.931  14.840  1.3100  0.9164 -0.2141
 4246TIP3    H234230   0.151   4.956  14.837  0.9866 -0.5287  1.8473
 4247TIP3   OH234231   1.619   0.101   3.485 -0.0146 -0.5858 -0.4030
 4247TIP3    H134232   1.605   0.015   3.446  0.3391 -0.0468 -1.7503
 4247TIP3    H234233   1.546   0.154   3.453  0.2824 -0.1357 -0.3427
 4248TIP3   OH234234   0.460   3.538  16.942  0.0464  0.0098 -0.8237
 4248TIP3    H134235   0.432   3.623  16.908 -1.8863 -0.5067 -0.6806
 4248TIP3    H234236   0.396   3.518  17.011  1.8303 -0.5332  0.7603
 4249TIP3   OH234237   0.411   3.442   0.422 -0.3438 -0.1698 -0.0973
 4249TIP3    H134238   0.351   3.367   0.419 -0.1240 -0.3146 -2.2646
 4249TIP3    H234239   0.454   3.434   0.508 -0.3717 -2.4918 -0.2261
 4250TIP3   OH234240   4.634   3.748   1.443 -0.4563  0.5659 -0.3084
 4250TIP3    H134241   4.703   3.813   1.449  0.0047  0.0160  0.4873
 4250TIP3    H234242   4.570   3.775   1.508 -0.3698  0.3438 -0.1321
 4251TIP3   OH234243   1.739   0.413  12.368  0.5036 -0.1191  0.0787
 4251TIP3    H134244   1.812   0.351  12.369  0.3527 -0.3647 -1.4307
 4251TIP3    H234245   1.681   0.382  12.438  1.4077 -0.4434  0.7092
 4252TIP3   OH234246   5.670   0.318   4.811  0.3010 -0.3893 -0.0899
 4252TIP3    H134247   5.584   0.308   4.852  1.2877  0.6076  2.4475
 4252TIP3    H234248   5.654   0.369   4.732 -1.7319 -2.5154 -1.2016
 4253TIP3   OH234249   2.895   1.783  13.905 -0.3836 -0.4873  0.7441
 4253TIP3    H134250   2.959   1.844  13.941  0.4671 -1.5304  1.0354
 4253TIP3    H234251   2.947   1.713  13.866 -1.3274 -1.7381  1.6336
 4254TIP3   OH234252   5.448   1.119  16.167  1.0603  0.2228  0.3188
 4254TIP3    H134253   5.456   1.060  16.242  0.6326  1.2089  1.1634
 4254TIP3    H234254   5.488   1.201  16.196  1.0764  0.5510 -0.6050
 4255TIP3   OH234255   2.448   4.509  12.429 -0.7138  0.6385 -0.5505
 4255TIP3    H134256   2.416   4.545  12.346 -0.9306  0.6204 -0.4766
 4255TIP3    H234257   2.536   4.545  12.439 -0.8947  1.0764 -0.5251
 4256TIP3   OH234258   6.086   3.171  10.648  0.9469 -0.2560 -0.8003
 4256TIP3    H134259   6.034   3.091  10.636  1.3970 -0.2667 -3.2565
 4256TIP3    H234260   6.176   3.145  10.626  1.4570  0.4988  0.2869
 4257TIP3   OH234261   2.580   5.847   2.442  0.5003 -0.4096  0.9870
 4257TIP3    H134262   2.644   5.787   2.403  1.2970 -0.3319  2.1219
 4257TIP3    H234263   2.581   5.825   2.535 -1.4864 -0.7207  0.9709
 4258TIP3   OH234264   3.829   2.178  10.970 -0.5260 -0.7167 -0.6165
 4258TIP3    H134265   3.919   2.198  10.944 -0.9205  2.0437 -0.1715
 4258TIP3    H234266   3.836   2.144  11.059 -0.0358  2.3491  0.6111
 4259TIP3   OH234267   1.277   4.096  13.620  0.4256  0.0097  0.4268
 4259TIP3    H134268   1.200   4.107  13.676  0.0640  0.2472 -0.1085
 4259TIP3    H234269   1.330   4.175  13.637  1.1301 -0.6878  1.6550
 4260TIP3   OH234270   1.820   3.680  11.796  0.2818  0.2315 -0.0338
 4260TIP3    H134271   1.860   3.748  11.850  0.3270 -0.2153  0.5035
 4260TIP3    H234272   1.727   3.704  11.793  0.0362 -0.4888  1.3890
 4261TIP3   OH234273   2.221   2.703  13.841  0.7311 -0.0482  0.1508
 4261TIP3    H134274   2.146   2.755  13.869  0.5265  0.1747 -0.7803
 4261TIP3    H234275   2.198   2.613  13.863  1.0581  0.2177  1.7155
 4262TIP3   OH234276   4.327   0.870  16.010  0.3105  0.3516  0.3764
 4262TIP3    H134277   4.351   0.777  16.012 -2.0969 -0.4890 -2.4269
 4262TIP3    H234278   4.237   0.871  16.043 -0.1132  1.4937 -0.7796
 4263TIP3   OH234279   3.016   5.921   5.386 -0.5227 -0.0075  0.5809
 4263TIP3    H134280   3.082   5.902   5.452 -0.7970 -1.8320  0.3800
 4263TIP3    H234281   3.065   5.951   5.310 -0.1938  1.9585  1.5120
 4264TIP3   OH234282   5.135   3.155  11.092  0.1913 -0.1780 -0.0178
 4264TIP3    H134283   5.183   3.204  11.159 -1.5100  0.1321  1.0585
 4264TIP3    H234284   5.125   3.216  11.019 -1.7935  1.1361  1.2533
 4265TIP3   OH234285   6.271   4.801  12.470 -0.4403  0.3240 -0.1727
 4265TIP3    H134286   6.255   4.855  12.547 -0.2827  0.9052 -0.5416
 4265TIP3    H234287   6.291   4.714  12.505  1.0805  0.9153  0.5274
 4266TIP3   OH234288   1.993   6.712   3.328 -0.7714  0.4930  0.2205
 4266TIP3    H134289   1.977   6.805   3.342 -0.3719  0.2709  2.4743
 4266TIP3    H234290   1.910   6.670   3.348 -1.2411  0.4038 -1.7655
 4267TIP3   OH234291   6.309   3.309  13.563  0.3873 -0.1892 -0.3298
 4267TIP3    H134292   6.245   3.367  13.606  1.0316 -0.0247  0.4392
 4267TIP3    H234293   6.281   3.220  13.588  0.2765 -0.1313 -0.2448
 4268TIP3   OH234294   5.549   2.691   3.231  0.4385 -0.3811  0.3106
 4268TIP3    H134295   5.644   2.698   3.240  0.5300  0.6482 -1.1081
 4268TIP3    H234296   5.535   2.624   3.164  0.2498  0.6474 -0.7109
 4269TIP3   OH234297   0.594   5.937  14.178  0.0189  0.0512 -0.0079
 4269TIP3    H134298   0.603   5.883  14.099 -1.1518 -0.9916  0.5245
 4269TIP3    H234299   0.628   5.881  14.248 -0.6300  0.2438  0.4672
 4270TIP3   OH234300   3.504   5.951  10.814 -0.6841 -0.2364  0.7386
 4270TIP3    H134301   3.483   6.040  10.844  0.5945  1.1117 -1.9181
 4270TIP3    H234302   3.470   5.948  10.724  0.7095 -1.8523  0.2134
 4271TIP3   OH234303   0.196   6.794   5.363  0.1038  0.0772 -0.5463
 4271TIP3    H134304   0.117   6.821   5.316  0.3318  0.5568 -0.6558
 4271TIP3    H234305   0.182   6.821   5.453 -0.8746 -1.9407 -0.0226
 4272TIP3   OH234306   3.645   3.954   0.201  0.3268 -0.0341  0.2168
 4272TIP3    H134307   3.671   4.045   0.216 -2.2405  1.2164 -1.9585
 4272TIP3    H234308   3.695   3.927   0.124 -1.5649  0.9940 -1.5019
 4273TIP3   OH234309   5.913   2.941   1.293  0.0199  0.7003  0.6369
 4273TIP3    H134310   5.941   2.855   1.261  0.7735  1.2053 -0.1004
 4273TIP3    H234311   5.836   2.922   1.347 -1.1216 -0.2462 -1.1803
 4274TIP3   OH234312   5.492   1.168   2.817  0.1087  0.0771 -0.9945
 4274TIP3    H134313   5.584   1.172   2.844 -0.0264  0.0536 -0.5220
 4274TIP3    H234314   5.470   1.258   2.795 -0.5207  0.6333  1.5268
 4275TIP3   OH234315   3.600   5.413   5.261  0.7110 -0.1302 -0.2129
 4275TIP3    H134316   3.592   5.479   5.331  0.6530 -1.4939  1.1192
 4275TIP3    H234317   3.511   5.405   5.227  0.9188  1.2692 -1.1895
 4276TIP3   OH234318   2.716   4.113  11.524 -0.3736  0.0371 -0.3538
 4276TIP3    H134319   2.668   4.081  11.600  0.0852  0.7397  0.2532
 4276TIP3    H234320   2.797   4.062  11.524  0.6440  1.5332  0.9847
 4277TIP3   OH234321   0.130   5.659  13.573 -0.2154 -0.2748 -0.7278
 4277TIP3    H134322   0.047   5.628  13.535 -0.9459  1.2798 -0.4856
 4277TIP3    H234323   0.187   5.674  13.498 -0.2973 -0.9474 -0.9292
 4278TIP3   OH234324   4.465   5.070   2.152 -0.3760  0.0006 -0.7493
 4278TIP3    H134325   4.511   5.139   2.200 -3.1586  0.5527  1.3537
 4278TIP3    H234326   4.435   5.009   2.219 -1.3744 -1.1561 -2.1716
 4279TIP3   OH234327   0.459   5.042  15.489 -0.3210  0.0467  0.0528
 4279TIP3    H134328   0.485   5.072  15.402  1.0198 -0.5291  0.2281
 4279TIP3    H234329   0.390   4.978  15.473 -0.2881  0.1641 -0.5784
 4280TIP3   OH234330   2.435   4.653   4.195 -0.4048  0.3422  0.3574
 4280TIP3    H134331   2.501   4.692   4.137 -0.2664 -0.9602 -0.4163
 4280TIP3    H234332   2.463   4.561   4.204 -1.0043  0.2743  1.6717
 4281TIP3   OH234333   6.625   4.762   4.654 -0.2372 -0.1077 -0.4017
 4281TIP3    H134334   6.645   4.800   4.569  1.1125 -0.0709 -0.0846
 4281TIP3    H234335   6.540   4.720   4.643  0.3343 -0.8961 -2.0202
 4282TIP3   OH234336   2.651   0.028   4.892 -0.3515 -0.4835  0.2300
 4282TIP3    H134337   2.721   0.004   4.953 -0.0160 -0.2604 -0.0653
 4282TIP3    H234338   2.620   0.113   4.923  0.8026  0.3279 -0.7463
 4283TIP3   OH234339   6.026   6.273  17.124 -0.1578 -0.5295  0.2373
 4283TIP3    H134340   5.941   6.280  17.080 -1.0932  1.3184  2.1724
 4283TIP3    H234341   6.006   6.231  17.208  1.1595 -1.6186  0.0444
 4284TIP3   OH234342   4.812   3.951   1.547  0.1432  0.1254  0.0023
 4284TIP3    H134343   4.812   4.042   1.577 -3.4739 -0.1649  1.4175
 4284TIP3    H234344   4.847   3.901   1.621  1.7874  0.2963 -0.6372
 4285TIP3   OH234345   4.434   6.743  16.978  0.0531 -0.2718  0.2461
 4285TIP3    H134346   4.363   6.679  16.974 -0.3878  0.2540 -3.0417
 4285TIP3    H234347   4.390   6.828  16.975  0.7666  0.0667 -1.2626
 4286TIP3   OH234348   1.694   2.343  15.179 -0.1320 -0.4876 -0.4124
 4286TIP3    H134349   1.764   2.300  15.129  0.3755 -0.0624 -0.0796
 4286TIP3    H234350   1.619   2.285  15.168  1.0512 -2.5977  1.6744
 4287TIP3   OH234351   1.340   1.363  15.151 -0.2893 -0.0276  0.0255
 4287TIP3    H134352   1.397   1.377  15.227 -1.9149  1.5070  1.0548
 4287TIP3    H234353   1.399   1.363  15.076  1.0270  2.2170  0.9624
 4288TIP3   OH234354   5.561   3.659   5.459 -0.6729  0.6442 -0.1283
 4288TIP3    H134355   5.537   3.721   5.528  0.2574  0.0730  0.7371
 4288TIP3    H234356   5.478   3.634   5.419 -1.3387  0.2166  1.4683
 4289TIP3   OH234357   1.415   2.949  11.866  0.4112  0.2088 -0.2815
 4289TIP3    H134358   1.371   2.866  11.883 -1.7280  0.8859 -1.9827
 4289TIP3    H234359   1.430   2.949  11.771 -0.6758  2.1759 -0.5110
 4290TIP3   OH234360   1.053   2.067  10.952 -0.1787 -0.7288 -0.1902
 4290TIP3    H134361   1.069   2.098  10.863  1.2288  1.2850  0.6772
 4290TIP3    H234362   1.071   1.973  10.948  1.9528 -0.3468 -1.6314
 4291TIP3   OH234363   3.849   6.511   2.907 -0.2077  0.1549 -0.0524
 4291TIP3    H134364   3.842   6.524   3.002  0.1963  0.7437 -0.0954
 4291TIP3    H234365   3.759   6.509   2.876 -0.3692 -0.8642  0.4474
 4292TIP3   OH234366   3.292   1.475  16.764 -0.1156  0.8109  0.1017
 4292TIP3    H134367   3.208   1.429  16.767  0.1067  0.3882 -0.0857
 4292TIP3    H234368   3.309   1.501  16.854 -0.9467  1.8100 -0.0081
 4293TIP3   OH234369   4.581   6.110  16.384 -0.2337  0.0413 -0.2321
 4293TIP3    H134370   4.623   6.195  16.392  0.0791  0.1796 -2.5744
 4293TIP3    H234371   4.625   6.068  16.311 -2.4068 -0.8795 -1.1197
 4294TIP3   OH234372   6.253   4.027  13.387 -0.9090  0.1833  0.0032
 4294TIP3    H134373   6.332   3.974  13.382 -1.1049 -0.3730  2.0931
 4294TIP3    H234374   6.276   4.101  13.443 -1.5067  0.7034 -0.4227
 4295TIP3   OH234375   2.520   4.265   1.845  0.1865  0.4788  0.2341
 4295TIP3    H134376   2.439   4.217   1.826 -0.8135  2.2524 -0.1573
 4295TIP3    H234377   2.583   4.196   1.868 -0.8415 -1.1272 -1.4309
 4296TIP3   OH234378   0.256   3.529   3.451  0.1975 -0.3359  0.2054
 4296TIP3    H134379   0.311   3.451   3.455 -0.1358 -0.5383  1.7187
 4296TIP3    H234380   0.198   3.521   3.527  1.2288  2.1455  1.3904
 4297TIP3   OH234381   5.997   6.409  11.711 -0.6288  0.3596 -0.0199
 4297TIP3    H134382   6.013   6.492  11.664  1.8772  0.1780  0.3528
 4297TIP3    H234383   6.064   6.350  11.677 -1.1841 -0.9436  1.0801
 4298TIP3   OH234384   5.402   2.379   6.535  0.4057  0.3311 -0.6376
 4298TIP3    H134385   5.351   2.373   6.615  1.3956  0.3275  0.0146
 4298TIP3    H234386   5.420   2.288   6.510  0.2138  0.3345 -0.7914
 4299TIP3   OH234387   3.475   4.687  17.056  0.4508 -0.1633  0.7652
 4299TIP3    H134388   3.522   4.657  17.133  0.8265  1.9854  1.4607
 4299TIP3    H234389   3.405   4.742  17.091  0.9395  1.2780 -0.3955
 4300TIP3   OH234390   3.812   2.310  16.216  1.0383  0.1030 -0.1217
 4300TIP3    H134391   3.777   2.318  16.305  1.8057  1.9042  0.0569
 4300TIP3    H234392   3.892   2.362  16.217  0.8348  0.5003 -1.9914
 4301TIP3   OH234393   6.030   3.675  15.559 -0.3891 -0.0019 -0.6184
 4301TIP3    H134394   5.998   3.631  15.638 -0.3282  1.1488  0.0765
 4301TIP3    H234395   6.098   3.616  15.525  0.4608  0.0380  0.8975
 4302TIP3   OH234396   5.257   4.284   0.213  0.5087  0.2306  0.2189
 4302TIP3    H134397   5.231   4.375   0.201  0.8064  0.1220 -1.5110
 4302TIP3    H234398   5.340   4.276   0.166  1.3745 -0.5428  1.8092
 4303TIP3   OH234399   4.225   5.382  10.631 -0.1762  0.7706  0.0344
 4303TIP3    H134400   4.285   5.317  10.668 -2.1329 -0.4500  1.2261
 4303TIP3    H234401   4.280   5.458  10.613  1.6912 -0.2508  1.1855
 4304TIP3   OH234402   4.490   4.090   5.693 -0.0642 -0.7287  0.4264
 4304TIP3    H134403   4.442   4.034   5.754  0.3809  0.0534  1.5143
 4304TIP3    H234404   4.560   4.129   5.745  0.9264 -0.7860 -0.8098
 4305TIP3   OH234405   4.554   0.379  13.722  0.0055 -0.1026 -0.0264
 4305TIP3    H134406   4.585   0.456  13.673  0.9824 -0.6816 -0.3426
 4305TIP3    H234407   4.624   0.315  13.712  0.0174 -0.4110  1.7444
 4306TIP3   OH234408   6.613   0.689   4.648  0.9156  0.1979 -0.5562
 4306TIP3    H134409   6.584   0.648   4.729  0.4011  2.3636  0.4361
 4306TIP3    H234410   6.708   0.678   4.647  1.2133  2.0401  1.5193
 4307TIP3   OH234411   2.178   5.260   3.927  0.6229 -0.2334  0.0927
 4307TIP3    H134412   2.097   5.266   3.877 -0.5922 -3.5727  1.4043
 4307TIP3    H234413   2.184   5.169   3.953  3.6750  0.3532  2.0130
 4308TIP3   OH234414   5.610   5.246   0.270 -0.7772  0.2736  0.8512
 4308TIP3    H134415   5.530   5.295   0.289 -2.0157 -1.4492  0.3475
 4308TIP3    H234416   5.603   5.167   0.324 -0.1109 -0.5636 -0.2374
 4309TIP3   OH234417   0.558   6.422  12.036 -0.0929  0.0901  0.1695
 4309TIP3    H134418   0.463   6.419  12.029 -0.1314 -0.3763  0.8689
 4309TIP3    H234419   0.589   6.388  11.952 -0.5497 -1.0155  0.4343
 4310TIP3   OH234420   0.573   6.553  17.013  0.2123 -0.1140  0.2691
 4310TIP3    H134421   0.605   6.529  16.926 -2.6517 -0.6203 -0.7439
 4310TIP3    H234422   0.574   6.649  17.013  0.7681 -0.1148 -0.0877
 4311TIP3   OH234423   6.671   2.098   3.162  0.7637 -0.1563  0.4253
 4311TIP3    H134424   6.701   2.187   3.144  0.5644 -0.3697 -1.0708
 4311TIP3    H234425   6.578   2.108   3.184  0.7944  0.0368  0.4667
 4312TIP3   OH234426   4.570   4.060  12.016 -0.1021  0.1365  0.3807
 4312TIP3    H134427   4.637   4.125  12.001  0.3704 -0.7434 -1.6372
 4312TIP3    H234428   4.488   4.104  11.993  0.0563  0.4350  0.3843
 4313TIP3   OH234429   4.449   5.198  16.401  0.7607 -1.0464 -0.5400
 4313TIP3    H134430   4.405   5.212  16.317 -0.1347  0.6150  0.1550
 4313TIP3    H234431   4.389   5.233  16.466  2.0676 -0.9460  0.6734
 4314TIP3   OH234432   1.208   2.684   4.004 -0.0205 -0.1991  0.4953
 4314TIP3    H134433   1.303   2.676   4.004  0.0105  0.1072 -0.4431
 4314TIP3    H234434   1.179   2.626   3.934 -0.6465 -1.5085  1.7790
 4315TIP3   OH234435   0.186   0.593   3.488  0.4558  0.9904 -0.5184
 4315TIP3    H134436   0.154   0.633   3.569 -0.9837 -0.2529 -0.4196
 4315TIP3    H234437   0.256   0.652   3.457 -0.7957  2.9249  0.1797
 4316TIP3   OH234438   4.712   6.599  15.692 -0.1037  0.0784  0.2156
 4316TIP3    H134439   4.750   6.658  15.628  2.5971 -0.7144  0.9318
 4316TIP3    H234440   4.723   6.512  15.654  2.4742 -0.5096  2.0055
 4317TIP3   OH234441   1.579   2.480  16.202  0.1919 -0.1486 -0.6205
 4317TIP3    H134442   1.538   2.554  16.247 -2.9988 -2.3108  0.4632
 4317TIP3    H234443   1.524   2.466  16.125 -0.7993 -2.6955  0.4385
 4318TIP3   OH234444   1.102   6.462  13.678  0.1902  0.2931 -0.2545
 4318TIP3    H134445   1.038   6.392  13.694  0.9555 -1.0147 -2.4407
 4318TIP3    H234446   1.164   6.424  13.615  3.2557  1.4113  1.8193
 4319TIP3   OH234447   0.625   6.027   6.560  0.0679 -0.2843  0.2488
 4319TIP3    H134448   0.683   6.030   6.635 -1.2936  1.2806  1.3401
 4319TIP3    H234449   0.682   6.042   6.484  1.1183  1.0826  1.2579
 4320TIP3   OH234450   2.540   0.217  10.811  0.3713  0.3145 -0.0386
 4320TIP3    H134451   2.505   0.305  10.830  0.0843 -0.0209  1.0587
 4320TIP3    H234452   2.509   0.198  10.723  0.8097  1.4927 -0.4699
 4321TIP3   OH234453   2.457   1.467   6.710 -0.7258  0.3144 -0.1469
 4321TIP3    H134454   2.388   1.481   6.644 -1.1847  2.4130  0.6860
 4321TIP3    H234455   2.445   1.539   6.771  1.2736 -0.1778  0.8775
 4322TIP3   OH234456   2.352   0.332  11.409 -0.4965 -0.1566 -0.3906
 4322TIP3    H134457   2.379   0.269  11.475 -0.7787 -0.5553 -0.6557
 4322TIP3    H234458   2.424   0.395  11.405  0.2084 -0.9819 -0.8035
 4323TIP3   OH234459   5.414   5.051  12.764 -0.6344  0.2506  0.2375
 4323TIP3    H134460   5.381   5.141  12.759  0.0617  0.4954 -0.0771
 4323TIP3    H234461   5.335   4.997  12.758 -0.9949  0.8259 -0.5022
 4324TIP3   OH234462   1.085   0.641   1.879 -0.2871  0.1572 -0.2879
 4324TIP3    H134463   1.082   0.626   1.974 -1.2233 -1.6795 -0.5608
 4324TIP3    H234464   1.017   0.706   1.864 -0.4683  0.1019  0.2499
 4325TIP3   OH234465   2.515   5.000  13.150  0.3635  0.3889 -0.0578
 4325TIP3    H134466   2.434   5.049  13.160  0.1990 -0.3074  2.8424
 4325TIP3    H234467   2.582   5.055  13.190  1.1102  0.3465 -1.1902
 4326TIP3   OH234468   1.639   2.928  16.121 -0.1050  0.7536 -0.1880
 4326TIP3    H134469   1.619   2.911  16.029 -1.0633  2.2913 -0.2925
 4326TIP3    H234470   1.613   2.848  16.167 -0.1524  0.1871 -1.1768
 4327TIP3   OH234471   2.462   0.411   1.183  0.6287 -0.2372  0.3271
 4327TIP3    H134472   2.456   0.436   1.275  2.1036  0.8196  0.1811
 4327TIP3    H234473   2.437   0.489   1.134 -0.5784 -0.9247 -0.1940
 4328TIP3   OH234474   2.312   5.278   4.844 -0.0216  0.0264  0.6248
 4328TIP3    H134475   2.291   5.224   4.767 -0.2441  0.5872  0.2820
 4328TIP3    H234476   2.297   5.368   4.814 -0.9723  0.2096  1.5784
 4329TIP3   OH234477   1.213   1.439   0.502 -0.0926 -0.7354 -0.0458
 4329TIP3    H134478   1.122   1.470   0.496 -0.7419 -2.7000 -1.3846
 4329TIP3    H234479   1.208   1.360   0.554  1.0016 -0.4544  0.5034
 4330TIP3   OH234480   2.899   6.020   4.877  0.2028 -0.3705 -0.3564
 4330TIP3    H134481   2.960   6.086   4.909 -0.0358 -0.0856 -0.4868
 4330TIP3    H234482   2.921   6.010   4.784  1.7054 -2.0732  0.1276
 4331TIP3   OH234483   0.576   0.177   4.685  0.1303 -0.1730  0.6429
 4331TIP3    H134484   0.526   0.222   4.616  1.2994  0.5262  0.2195
 4331TIP3    H234485   0.620   0.105   4.639  1.8341  0.9827  0.3742
 4332TIP3   OH234486   2.613   4.010  12.705 -0.2655  0.4922  0.1652
 4332TIP3    H134487   2.676   4.083  12.702  1.0557 -0.6392 -0.6920
 4332TIP3    H234488   2.666   3.933  12.726 -1.9584  0.0525  3.4779
 4333TIP3   OH234489   6.626   1.668  16.959 -0.0622  0.2097 -0.3371
 4333TIP3    H134490   6.544   1.715  16.941 -0.1169  0.4201  0.3910
 4333TIP3    H234491   6.694   1.721  16.917 -0.2285  0.4183 -0.3455
 4334TIP3   OH234492   1.353   0.592  13.689 -0.0235 -0.1284  0.2685
 4334TIP3    H134493   1.319   0.503  13.676  0.4335 -0.5505  1.7118
 4334TIP3    H234494   1.275   0.644  13.710 -0.2387 -0.2646 -0.1690
 4335TIP3   OH234495   5.201   4.285   0.608 -0.5158 -0.2554 -0.3112
 4335TIP3    H134496   5.160   4.366   0.640 -1.0394 -0.8683  0.5995
 4335TIP3    H234497   5.275   4.271   0.667 -0.8459 -0.8180 -0.0259
 4336TIP3   OH234498   6.596   5.236  13.831  0.1219 -0.2986  0.2260
 4336TIP3    H134499   6.591   5.266  13.740 -0.1944  2.4457  1.0429
 4336TIP3    H234500   6.635   5.310  13.878 -1.8534 -0.6885  2.6867
 4337TIP3   OH234501   0.023   6.176  14.176 -0.3479  0.7233 -0.3765
 4337TIP3    H134502   0.093   6.235  14.204 -0.9378  2.5284 -2.4726
 4337TIP3    H234503   0.068   6.093  14.157  1.0332  1.4852 -0.5674
 4338TIP3   OH234504   1.474   2.620   1.211 -0.6977 -0.2346  0.6108
 4338TIP3    H134505   1.409   2.586   1.150 -1.2756  2.2840 -0.2940
 4338TIP3    H234506   1.557   2.611   1.165 -0.9355  0.2322  0.0860
 4339TIP3   OH234507   0.931   6.682   3.407 -0.1340 -0.2589  0.0856
 4339TIP3    H134508   0.916   6.623   3.480  0.9298 -2.1970 -1.1924
 4339TIP3    H234509   0.926   6.770   3.446 -0.5875 -1.1841  2.2560
 4340TIP3   OH234510   6.468   3.972   3.687  0.1376  0.6403  0.0747
 4340TIP3    H134511   6.377   3.970   3.655 -0.1210 -0.1930  0.8095
 4340TIP3    H234512   6.481   3.885   3.725  0.8776  1.1321  0.9747
 4341TIP3   OH234513   6.343   5.535  12.439 -0.1352 -0.2854  0.0497
 4341TIP3    H134514   6.324   5.447  12.406  0.7409 -0.0811 -1.0555
 4341TIP3    H234515   6.437   5.546  12.428 -0.3745  1.1922 -0.8985
 4342TIP3   OH234516   0.889   5.108  15.989  0.2241 -0.4195 -0.2832
 4342TIP3    H134517   0.823   5.067  16.045 -0.7216  0.3654 -0.7790
 4342TIP3    H234518   0.956   5.041  15.977  0.2446 -0.7431  1.4322
 4343TIP3   OH234519   1.640   0.422   3.977  0.0409 -0.3693  0.2441
 4343TIP3    H134520   1.584   0.348   3.998  0.4821 -0.2145  2.2372
 4343TIP3    H234521   1.706   0.386   3.918 -0.4728 -1.2601  0.1937
 4344TIP3   OH234522   4.441   6.548  13.512 -0.2287 -0.5238  0.2923
 4344TIP3    H134523   4.380   6.475  13.515  0.0662 -0.7490  1.6542
 4344TIP3    H234524   4.388   6.624  13.537 -0.0720 -0.6501  1.0497
 4345TIP3   OH234525   2.726   3.656  12.209 -0.1047 -0.2191  1.0542
 4345TIP3    H134526   2.706   3.562  12.211 -3.2214  0.3341  1.5200
 4345TIP3    H234527   2.708   3.682  12.119 -1.7808  0.3181  1.5038
 4346TIP3   OH234528   2.790   3.733   5.384 -0.5704  0.4664  0.0725
 4346TIP3    H134529   2.824   3.819   5.360  2.6236 -0.4663  0.7638
 4346TIP3    H234530   2.787   3.685   5.301 -1.0105  0.7896 -0.1055
 4347TIP3   OH234531   0.601   4.651   6.274  0.4633  0.6931 -0.1560
 4347TIP3    H134532   0.620   4.726   6.218  0.2047  1.2910  0.5362
 4347TIP3    H234533   0.684   4.633   6.318  0.3054  1.1399  0.3332
 4348TIP3   OH234534   3.601   3.964   0.476  0.3186  0.3278 -0.2793
 4348TIP3    H134535   3.533   4.031   0.482  2.2378  2.4493 -0.7857
 4348TIP3    H234536   3.617   3.954   0.382  0.0541 -0.8872 -0.2099
 4349TIP3   OH234537   1.886   4.694  11.911 -0.1226  0.0500  0.0865
 4349TIP3    H134538   1.917   4.628  11.973  2.0035 -0.0127 -0.9590
 4349TIP3    H234539   1.794   4.671  11.897 -0.0312 -1.3391  1.4330
 4350TIP3   OH234540   2.435   4.961   3.975 -0.0037 -0.1372 -0.4616
 4350TIP3    H134541   2.506   4.910   4.013 -0.1927  0.6650  1.0211
 4350TIP3    H234542   2.355   4.915   4.002 -0.1054 -0.4575 -1.2628
 4351TIP3   OH234543   2.039   5.702   5.296  0.5227  0.3345  0.0510
 4351TIP3    H134544   2.087   5.780   5.326 -0.0407  0.3351  0.9845
 4351TIP3    H234545   2.069   5.689   5.206 -0.4678  2.5175 -0.6750
 4352TIP3   OH234546   1.633   4.962  16.632  0.3328  0.2932  0.4031
 4352TIP3    H134547   1.661   5.038  16.682  1.8304  0.5491 -0.7506
 4352TIP3    H234548   1.698   4.895  16.653 -1.7805 -1.2469  2.5763
 4353TIP3   OH234549   5.869   1.951  15.969 -0.2669  0.1363 -0.2800
 4353TIP3    H134550   5.917   1.893  15.910  1.7058  0.0124  1.3375
 4353TIP3    H234551   5.937   1.995  16.020 -1.7946  2.1903  0.1291
 4354TIP3   OH234552   2.558   6.181  10.493 -0.3713  0.0298  0.0825
 4354TIP3    H134553   2.532   6.266  10.529 -0.5497 -1.3593  3.6068
 4354TIP3    H234554   2.653   6.186  10.485 -0.3258  0.4233  0.7715
 4355TIP3   OH234555   5.120   1.775   0.827  0.1503  0.2083  0.3060
 4355TIP3    H134556   5.171   1.718   0.770 -1.0227  2.9656 -4.0569
 4355TIP3    H234557   5.185   1.831   0.870  1.0438 -0.8483  0.3497
 4356TIP3   OH234558   3.043   0.655  14.702 -0.1187  0.2029  0.3500
 4356TIP3    H134559   3.075   0.623  14.787 -0.2032  0.8031  0.6148
 4356TIP3    H234560   3.086   0.740  14.690 -1.4966  0.9907  0.6730
 4357TIP3   OH234561   2.293   0.091   6.209  0.1075 -0.9576  0.3939
 4357TIP3    H134562   2.208   0.072   6.169  0.4274 -0.0308 -0.7919
 4357TIP3    H234563   2.347   0.015   6.188 -0.5241 -1.7381  1.5080
 4358TIP3   OH234564   4.151   0.343   5.520  0.5168 -0.0060  0.1000
 4358TIP3    H134565   4.200   0.276   5.473 -0.3663 -1.1250  0.7094
 4358TIP3    H234566   4.084   0.372   5.459  2.3272  2.1247 -1.0386
 4359TIP3   OH234567   5.289   2.313  13.473 -0.8609  0.0323  0.1290
 4359TIP3    H134568   5.283   2.399  13.432  0.5058  0.8803  1.5822
 4359TIP3    H234569   5.248   2.324  13.559  3.2189  0.6461  2.2499
 4360TIP3   OH234570   1.801   2.934  14.915 -1.0995 -0.3927  0.5596
 4360TIP3    H134571   1.845   2.854  14.885 -1.5774 -0.2545 -0.5908
 4360TIP3    H234572   1.865   2.977  14.971 -0.1003 -0.6300 -0.3600
 4361TIP3   OH234573   6.720   5.113  15.210  0.3579  0.9666  0.3664
 4361TIP3    H134574   6.816   5.117  15.205  0.3863  1.0669  0.9256
 4361TIP3    H234575   6.690   5.163  15.135  0.7472  1.1084  0.3013
 4362TIP3   OH234576   6.051   4.613   3.509 -0.5080 -0.2833  0.1304
 4362TIP3    H134577   6.058   4.633   3.416  0.0801 -0.8477  0.0455
 4362TIP3    H234578   6.009   4.528   3.513 -2.6013  0.6986  0.4780
 4363TIP3   OH234579   0.570   4.388   4.649 -0.0416  0.2260  0.0993
 4363TIP3    H134580   0.642   4.349   4.699 -1.6153 -1.3527  1.2190
 4363TIP3    H234581   0.496   4.330   4.663 -1.1405  0.8673 -2.4061
 4364TIP3   OH234582   0.695   5.113  14.469 -0.2532  0.1202  0.2771
 4364TIP3    H134583   0.633   5.046  14.497 -0.2871  0.0707  0.0842
 4364TIP3    H234584   0.655   5.153  14.393 -0.6606  0.9990  0.9438
 4365TIP3   OH234585   2.701   2.118  15.038 -0.4890  0.5958 -0.0542
 4365TIP3    H134586   2.675   2.206  15.010 -2.6339  0.8322  2.2785
 4365TIP3    H234587   2.619   2.078  15.068  0.6702 -1.6975  0.2333
 4366TIP3   OH234588   1.717   5.247   1.483 -0.1954 -0.0645  0.4395
 4366TIP3    H134589   1.795   5.273   1.435 -1.5782  0.0765 -1.8956
 4366TIP3    H234590   1.705   5.154   1.461 -0.9668  0.0544  0.3370
 4367TIP3   OH234591   4.052   6.377   1.632 -0.9477  0.2755  0.3233
 4367TIP3    H134592   4.104   6.297   1.624 -1.0871  0.2279 -0.1703
 4367TIP3    H234593   4.098   6.440   1.577 -0.6893  0.6159  0.9203
 4368TIP3   OH234594   1.186   4.495  12.804  0.5572 -0.5152  0.1992
 4368TIP3    H134595   1.190   4.448  12.720  1.9529  0.7063 -0.4557
 4368TIP3    H234596   1.146   4.579  12.782  1.8672  0.2189  0.5339
 4369TIP3   OH234597   1.297   5.949  13.598  0.6515  0.1410 -0.1662
 4369TIP3    H134598   1.393   5.953  13.593  0.8815 -0.6919  2.3085
 4369TIP3    H234599   1.279   5.865  13.640 -0.9863  1.6524  2.3999
 4370TIP3   OH234600   4.451   3.303   2.525 -0.0092 -0.5611  1.3235
 4370TIP3    H134601   4.450   3.368   2.595 -0.8182 -1.6221  2.3221
 4370TIP3    H234602   4.505   3.231   2.559  2.9516  0.5049 -0.7017
 4371TIP3   OH234603   2.374   6.064  14.275  0.1880 -0.1319  0.4317
 4371TIP3    H134604   2.418   6.146  14.256  0.1611  0.1195  1.3942
 4371TIP3    H234605   2.444   5.999  14.277 -0.0325 -0.6513 -2.7856
 4372TIP3   OH234606   6.079   5.966  14.963  0.0989 -0.5280 -0.1023
 4372TIP3    H134607   6.124   5.954  14.879 -0.3745 -1.3000 -0.2587
 4372TIP3    H234608   6.111   5.894  15.017  0.8848  0.3383  0.6027
 4373TIP3   OH234609   5.657   4.481  12.264 -0.5836 -0.3037  0.3233
 4373TIP3    H134610   5.638   4.430  12.186 -0.4983 -1.3186  0.9452
 4373TIP3    H234611   5.666   4.415  12.334  2.4539  0.2996  0.6120
 4374TIP3   OH234612   0.815   4.637   6.441  0.0837 -0.0562  0.0637
 4374TIP3    H134613   0.877   4.709   6.430 -1.8185  1.6434 -0.0806
 4374TIP3    H234614   0.764   4.661   6.518 -1.6416 -0.4090 -0.9204
 4375TIP3   OH234615   1.924   4.701   3.614  0.3989 -0.6255  0.0084
 4375TIP3    H134616   1.985   4.697   3.688  1.9494 -0.1406 -1.1807
 4375TIP3    H234617   1.959   4.639   3.551  0.0226  0.1097 -0.9579
 4376TIP3   OH234618   4.731   5.153   0.375  0.6340  0.2835 -0.4012
 4376TIP3    H134619   4.717   5.240   0.412 -0.7651 -0.1237  0.1011
 4376TIP3    H234620   4.787   5.109   0.439 -0.0745  0.2643  0.2276
 4377TIP3   OH234621   2.586   3.262   3.732  0.6464 -0.7790  0.3082
 4377TIP3    H134622   2.681   3.247   3.732  0.4542 -2.4284 -1.5714
 4377TIP3    H234623   2.549   3.179   3.701 -1.4750 -0.3715  1.5749
 4378TIP3   OH234624   3.591   3.757   1.895 -0.2388 -0.9920  0.1957
 4378TIP3    H134625   3.548   3.679   1.859  1.2068 -1.0813 -1.4628
 4378TIP3    H234626   3.606   3.814   1.819 -0.3333  0.4622  1.2223
 4379TIP3   OH234627   5.874   2.995   4.074 -0.1511 -0.1335 -0.4660
 4379TIP3    H134628   5.785   2.983   4.040 -0.0270  0.0993 -0.8801
 4379TIP3    H234629   5.922   3.034   4.001 -0.4307  2.4732  0.6318
 4380TIP3   OH234630   6.390   6.106  13.814  0.6005  0.3041  0.2619
 4380TIP3    H134631   6.320   6.040  13.815 -0.0844  0.9511 -1.3662
 4380TIP3    H234632   6.460   6.066  13.763  1.2925 -0.1966  1.5752
 4381TIP3   OH234633   6.656   4.525   2.495  0.1336 -0.0798  0.1001
 4381TIP3    H134634   6.711   4.591   2.538  1.5392 -0.0127 -1.6399
 4381TIP3    H234635   6.596   4.576   2.440 -0.6224 -0.1975  0.8064
 4382TIP3   OH234636   2.709   3.864   1.682 -0.3469  0.2094 -0.4715
 4382TIP3    H134637   2.738   3.931   1.621 -0.7005  1.5049  0.7160
 4382TIP3    H234638   2.787   3.840   1.731 -0.1888 -0.3744 -1.0013
 4383TIP3   OH234639   1.993   0.349  15.245 -0.8274  0.8242 -0.1347
 4383TIP3    H134640   2.011   0.358  15.152 -0.2183  0.6972 -0.0311
 4383TIP3    H234641   1.937   0.424  15.266  1.0914  2.2974 -0.0749
 4384TIP3   OH234642   0.223   2.913   0.224 -0.4555  0.0864  0.2089
 4384TIP3    H134643   0.272   2.985   0.185 -0.6881  0.6805  1.0015
 4384TIP3    H234644   0.151   2.898   0.163 -1.6986  2.0245  1.0846
 4385TIP3   OH234645   6.031   3.834   4.044 -0.0757 -0.4474 -0.1126
 4385TIP3    H134646   6.001   3.744   4.030 -0.5113 -0.1258 -1.3609
 4385TIP3    H234647   5.951   3.887   4.040  0.3762  0.1706 -1.1279
 4386TIP3   OH234648   6.726   2.323   0.186  0.1107  0.2228  0.1493
 4386TIP3    H134649   6.774   2.389   0.237 -0.4392  0.9995 -0.3080
 4386TIP3    H234650   6.784   2.302   0.113  0.0999  0.5527  0.0439
 4387TIP3   OH234651   2.952   6.447   6.186 -0.3675  0.3245  0.1154
 4387TIP3    H134652   2.967   6.541   6.188  1.2412  0.0922  1.8043
 4387TIP3    H234653   2.870   6.435   6.235 -0.5463  0.8316 -0.0542
 4388TIP3   OH234654   2.351   6.233  13.505 -0.6961 -0.2998  0.8492
 4388TIP3    H134655   2.442   6.225  13.533 -0.9362 -0.9607  1.4775
 4388TIP3    H234656   2.300   6.203  13.580 -1.5063  1.5542  1.1049
 4389TIP3   OH234657   5.998   2.038   3.310  0.1748  0.6391  0.1714
 4389TIP3    H134658   5.915   1.996   3.331  0.8614  0.0126  1.7626
 4389TIP3    H234659   6.065   1.982   3.351  1.3659  1.2864 -0.8099
 4390TIP3   OH234660   2.629   4.089  16.309 -0.1359 -0.2567  0.0171
 4390TIP3    H134661   2.644   4.183  16.312  0.4371 -0.3119 -0.9295
 4390TIP3    H234662   2.666   4.061  16.225 -0.3100 -1.3210  0.2837
 4391TIP3   OH234663   5.887   0.560  14.696 -0.1070  0.5268  0.5368
 4391TIP3    H134664   5.928   0.495  14.640 -1.3066 -0.3847  0.6653
 4391TIP3    H234665   5.816   0.513  14.740 -1.2049  1.9773  0.4218
 4392TIP3   OH234666   4.785   3.634  11.961 -0.0037  0.0675  0.5026
 4392TIP3    H134667   4.756   3.707  12.015  1.7900  0.8560  0.4634
 4392TIP3    H234668   4.793   3.561  12.023 -0.1718  0.3559  0.8701
 4393TIP3   OH234669   2.416   5.639  15.990  0.7189  0.5810 -0.2021
 4393TIP3    H134670   2.472   5.658  16.066  1.6579 -1.6852 -0.2372
 4393TIP3    H234671   2.472   5.658  15.915 -0.0975  2.4989 -0.3673
 4394TIP3   OH234672   0.016   3.300  12.189 -0.2282  0.1680  0.4512
 4394TIP3    H134673  -0.079   3.312  12.187 -0.5213 -1.8188 -1.2310
 4394TIP3    H234674   0.033   3.247  12.267 -0.9071 -1.7074 -0.5987
 4395TIP3   OH234675   0.545   0.146   2.425  0.5898 -0.1385  0.2249
 4395TIP3    H134676   0.626   0.112   2.461  0.4517 -3.7263 -2.3614
 4395TIP3    H234677   0.566   0.170   2.335 -0.9659  0.0475 -0.1183
 4396TIP3   OH234678   2.500   2.220   2.394  0.1973  0.5804 -0.3618
 4396TIP3    H134679   2.456   2.167   2.327 -0.4109  1.3877 -0.6166
 4396TIP3    H234680   2.529   2.298   2.348 -1.5615  1.8721  0.5663
 4397TIP3   OH234681   3.100   1.439   1.542  0.0880  0.6943 -0.1936
 4397TIP3    H134682   3.017   1.436   1.494  0.7475 -0.1311 -1.3459
 4397TIP3    H234683   3.153   1.502   1.493  0.6022  0.1987 -0.2882
 4398TIP3   OH234684   2.577   5.544  15.005 -0.0368 -0.3720 -0.0806
 4398TIP3    H134685   2.620   5.583  14.929  1.0449  0.7269  1.0439
 4398TIP3    H234686   2.637   5.475  15.033 -1.1311 -1.7740 -1.0449
 4399TIP3   OH234687   1.242   2.380   4.295  0.5655 -0.3064 -0.1807
 4399TIP3    H134688   1.253   2.378   4.200 -0.4870 -0.0048 -0.3241
 4399TIP3    H234689   1.302   2.449   4.324 -0.2311  0.7047 -0.8183
 4400TIP3   OH234690   5.580   5.662  11.023  0.2152 -0.2102 -0.5145
 4400TIP3    H134691   5.559   5.662  10.930 -1.4423  2.1070 -0.2308
 4400TIP3    H234692   5.562   5.572  11.052 -3.9032  0.1002 -1.5327
 4401TIP3   OH234693   2.566   4.588  11.260  0.1582  0.3192 -0.1517
 4401TIP3    H134694   2.502   4.629  11.319  0.9913  0.0160  0.9754
 4401TIP3    H234695   2.539   4.496  11.255 -0.2534  0.4610 -0.7321
 4402TIP3   OH234696   2.649   6.215   2.150  0.3443 -0.4688 -0.1901
 4402TIP3    H134697   2.582   6.165   2.196  1.5098 -0.2754  1.8322
 4402TIP3    H234698   2.640   6.188   2.059 -3.2216  0.4224 -0.2527
 4403TIP3   OH234699   4.561   0.507   2.508 -0.1534  0.3209  0.1069
 4403TIP3    H134700   4.649   0.479   2.482 -0.3891 -0.0118 -0.3661
 4403TIP3    H234701   4.516   0.426   2.531 -0.4252  0.4587  0.0653
 4404TIP3   OH234702   3.385   5.483   4.652  0.1913  0.0538 -0.3121
 4404TIP3    H134703   3.397   5.578   4.644 -0.9324  0.2791  0.4869
 4404TIP3    H234704   3.403   5.464   4.744 -0.6390 -0.3451 -0.2282
 4405TIP3   OH234705   2.671   0.028  10.971  0.6570 -0.6908 -0.1145
 4405TIP3    H134706   2.719  -0.006  10.896  1.1496  0.6399 -0.4236
 4405TIP3    H234707   2.621   0.102  10.936  2.9452  1.7040  1.3012
 4406TIP3   OH234708   6.135   6.541  16.269  0.1420 -0.1334 -0.0399
 4406TIP3    H134709   6.230   6.552  16.258  0.1017 -0.7435 -1.1872
 4406TIP3    H234710   6.097   6.614  16.219 -0.0077  0.9348  1.5509
 4407TIP3   OH234711   6.350   0.893  12.556  0.2397 -0.2027  0.7979
 4407TIP3    H134712   6.292   0.818  12.571  1.1818 -1.6114 -1.9794
 4407TIP3    H234713   6.438   0.858  12.571  0.6288  0.8238  1.0172
 4408TIP3   OH234714   0.077   0.293   1.493 -0.0035  0.1783 -0.1633
 4408TIP3    H134715  -0.006   0.247   1.509 -0.0618  1.0081  2.2020
 4408TIP3    H234716   0.053   0.366   1.436 -0.4322 -0.9209 -1.4651
 4409TIP3   OH234717   0.411   1.840   5.796 -0.1025 -0.5702  0.1320
 4409TIP3    H134718   0.469   1.768   5.772 -1.5565 -1.5767 -0.5557
 4409TIP3    H234719   0.458   1.887   5.865  1.5793 -1.2142 -0.5367
 4410TIP3   OH234720   2.894   4.717   3.378 -0.6052  0.4440 -0.0853
 4410TIP3    H134721   2.825   4.685   3.320 -0.0969  1.5508 -1.3502
 4410TIP3    H234722   2.938   4.637   3.408 -2.0909 -0.2481  0.3520
 4411TIP3   OH234723   1.604   4.083  12.235 -0.2187 -0.3001  0.4101
 4411TIP3    H134724   1.563   4.112  12.317 -0.2094  0.1120  0.2696
 4411TIP3    H234725   1.641   3.997  12.256 -0.6516 -0.4202  0.7007
 4412TIP3   OH234726   1.278   1.630   2.229  0.0389 -0.1673 -0.1648
 4412TIP3    H134727   1.259   1.597   2.317  3.5635 -0.0137  0.7824
 4412TIP3    H234728   1.302   1.552   2.179  0.8625  0.0584 -0.1323
 4413TIP3   OH234729   0.467   1.516  15.320  0.2111  0.1476  0.1099
 4413TIP3    H134730   0.476   1.423  15.300 -0.4969 -0.0227  0.5392
 4413TIP3    H234731   0.506   1.560  15.244 -0.5273 -0.4891 -0.6652
 4414TIP3   OH234732   2.947   2.646  12.322 -0.7225 -0.3044  0.3941
 4414TIP3    H134733   3.011   2.579  12.347  2.0029  2.1979  0.6896
 4414TIP3    H234734   2.902   2.666  12.404  1.2809  0.9431  1.2766
 4415TIP3   OH234735   0.471   0.777   0.038 -0.2803 -0.0729  0.3820
 4415TIP3    H134736   0.446   0.821   0.118 -0.9002 -1.0573  0.7445
 4415TIP3    H234737   0.553   0.820   0.011 -0.7484  1.1259  0.8231
 4416TIP3   OH234738   0.220   4.987  13.777 -0.2172  0.0624 -0.2677
 4416TIP3    H134739   0.297   5.044  13.780 -0.5570  0.4888  0.9408
 4416TIP3    H234740   0.241   4.916  13.838 -0.5032 -0.1737 -0.4479
 4417TIP3   OH234741   5.989   2.208  11.672 -0.0725  0.3012 -0.4255
 4417TIP3    H134742   6.074   2.250  11.668  0.2614 -0.4326 -1.2956
 4417TIP3    H234743   5.942   2.256  11.740  0.8491  1.0375 -0.2878
 4418TIP3   OH234744   1.578   3.118  12.714  0.1557  0.3117 -0.1277
 4418TIP3    H134745   1.671   3.107  12.735 -0.1540 -1.5674  0.4642
 4418TIP3    H234746   1.578   3.162  12.629  1.5899  0.1048 -0.2624
 4419TIP3   OH234747   3.384   5.233   4.277  0.2736 -0.5359 -0.1567
 4419TIP3    H134748   3.330   5.311   4.265  1.7332  0.1958 -2.8815
 4419TIP3    H234749   3.466   5.265   4.313  0.6796 -0.8456 -0.7757
 4420TIP3   OH234750   1.425   5.108   6.345 -0.9387  0.4493 -0.1818
 4420TIP3    H134751   1.336   5.112   6.379 -1.4022  0.6723 -1.3935
 4420TIP3    H234752   1.439   5.015   6.325 -0.1075  0.0325  1.9547
 4421TIP3   OH234753   2.443   5.627  12.579 -0.2821  0.0816 -0.6874
 4421TIP3    H134754   2.362   5.676  12.592 -0.7226 -0.8108  0.0405
 4421TIP3    H234755   2.418   5.554  12.522 -0.5364 -1.4999  1.3602
 4422TIP3   OH234756   1.784   1.568   5.203 -0.1188  0.6964 -0.3304
 4422TIP3    H134757   1.708   1.611   5.165  1.0546  1.3925 -2.0121
 4422TIP3    H234758   1.843   1.554   5.129  1.2643 -0.0940  0.8769
 4423TIP3   OH234759   2.656   4.658  17.091  0.0429 -0.3857  0.1366
 4423TIP3    H134760   2.649   4.668  16.996 -0.1274  1.5785  0.3205
 4423TIP3    H234761   2.699   4.738  17.120 -0.8199 -0.4996  1.8363
 4424TIP3   OH234762   0.016   5.793   5.754  0.5190 -0.6430  0.1070
 4424TIP3    H134763  -0.069   5.765   5.789  0.2276  1.9275  1.7220
 4424TIP3    H234764   0.080   5.738   5.799 -0.1848 -1.4027  0.2012
 4425TIP3   OH234765   0.212   0.202  15.815  0.0328  0.2535  0.0606
 4425TIP3    H134766   0.300   0.174  15.793 -0.2629 -0.5024 -0.1748
 4425TIP3    H234767   0.200   0.174  15.906  0.2055  0.8015  0.2611
 4426TIP3   OH234768   5.214   0.157   6.198 -0.4960  0.3003 -0.7242
 4426TIP3    H134769   5.162   0.210   6.137 -0.4459  0.1923 -0.8616
 4426TIP3    H234770   5.252   0.220   6.258  1.5355  0.6903 -2.3160
 4427TIP3   OH234771   1.026   2.357   3.926 -0.2559  0.1033  0.2301
 4427TIP3    H134772   1.045   2.434   3.872  1.2680  1.1958  2.2092
 4427TIP3    H234773   1.111   2.318   3.944 -0.9059 -1.3771  0.2891
 4428TIP3   OH234774   5.853   5.687  12.671 -0.4554 -0.1477  0.1628
 4428TIP3    H134775   5.931   5.738  12.691 -1.6553  1.2008  1.6779
 4428TIP3    H234776   5.817   5.728  12.592 -0.0651 -0.2972 -0.0995
 4429TIP3   OH234777   0.489   6.708   2.047 -0.3037 -0.1561  0.2365
 4429TIP3    H134778   0.446   6.719   2.133 -1.2719 -0.2326 -0.2208
 4429TIP3    H234779   0.527   6.620   2.051  1.2418  0.5310  1.2490
 4430TIP3   OH234780   4.107   2.737   0.961 -0.0823  0.1629  0.2850
 4430TIP3    H134781   4.194   2.700   0.947  0.6785  1.5926  1.0121
 4430TIP3    H234782   4.061   2.723   0.879  0.3974 -1.7228  0.2968
 4431TIP3   OH234783   5.482   3.981   2.568 -0.7619  0.4453 -0.2812
 4431TIP3    H134784   5.513   4.067   2.541  0.2984 -0.0160 -0.6159
 4431TIP3    H234785   5.524   3.965   2.653 -0.0849 -0.1584 -0.7087
 4432TIP3   OH234786   2.630   5.564   3.290 -0.5300 -0.4640 -0.6463
 4432TIP3    H134787   2.682   5.484   3.289 -0.2232 -0.3619  1.5860
 4432TIP3    H234788   2.540   5.535   3.302 -0.4085 -0.4882  0.2516
 4433TIP3   OH234789   3.637   2.347   5.549 -0.0181  0.3810 -0.8414
 4433TIP3    H134790   3.562   2.365   5.605 -0.6223 -1.0436 -1.1494
 4433TIP3    H234791   3.603   2.290   5.480  1.6415 -1.6231 -0.1000
 4434TIP3   OH234792   1.576   4.601   2.374  0.4698  0.0202 -0.0830
 4434TIP3    H134793   1.641   4.622   2.441  0.9667  1.2400 -0.8952
 4434TIP3    H234794   1.608   4.521   2.333  1.5404  0.6522 -0.5306
 4435TIP3   OH234795   6.496   0.454  12.552  0.1964  0.1388  0.5172
 4435TIP3    H134796   6.444   0.385  12.595 -0.2938 -0.0893 -0.4246
 4435TIP3    H234797   6.506   0.424  12.462  1.8162  0.2805  0.6232
 4436TIP3   OH234798   2.048   6.721   5.098 -0.0895 -0.6474  0.3695
 4436TIP3    H134799   2.090   6.638   5.122 -0.7520 -0.2619  3.3078
 4436TIP3    H234800   2.118   6.786   5.108 -0.3583 -0.4892  1.2958
 4437TIP3   OH234801   3.396   0.699   3.982  0.4702  0.4906 -0.1672
 4437TIP3    H134802   3.305   0.727   3.984  0.4252  0.3499  1.3821
 4437TIP3    H234803   3.393   0.606   4.002  0.9372  0.4079 -0.4609
 4438TIP3   OH234804   4.032   5.360   6.200  0.6801  0.7574 -0.3752
 4438TIP3    H134805   4.076   5.381   6.282  0.8481 -0.9695  0.0200
 4438TIP3    H234806   4.099   5.371   6.133  0.8646  1.0601 -0.1397
 4439TIP3   OH234807   6.515   3.326   5.676  0.3508 -0.4513  0.5699
 4439TIP3    H134808   6.562   3.355   5.755  0.9912  0.6606 -0.1924
 4439TIP3    H234809   6.440   3.385   5.670  1.5012  0.9379 -0.8348
 4440TIP3   OH234810   3.539   0.334   3.253 -0.3161 -0.7516 -0.4950
 4440TIP3    H134811   3.469   0.395   3.276 -0.3807 -1.2579  0.6732
 4440TIP3    H234812   3.615   0.390   3.237 -0.4475 -0.3464  0.2767
 4441TIP3   OH234813   5.423   3.273  13.394  0.0326 -0.0050  1.0523
 4441TIP3    H134814   5.497   3.247  13.448  0.0377 -1.4412  0.3906
 4441TIP3    H234815   5.392   3.192  13.354 -0.7939  0.8228 -0.0651
 4442TIP3   OH234816   4.722   2.133   3.438 -0.2400 -0.1439 -0.0682
 4442TIP3    H134817   4.759   2.047   3.459  0.9397  0.0843 -1.0645
 4442TIP3    H234818   4.639   2.136   3.485  1.0352 -0.6538  2.3601
 4443TIP3   OH234819   3.590   2.168  14.995  0.1083  0.0701 -0.1760
 4443TIP3    H134820   3.632   2.242  14.952 -0.2037 -0.2327 -1.0139
 4443TIP3    H234821   3.662   2.110  15.019  0.2942  0.3057 -0.1604
 4444TIP3   OH234822   5.567   6.239  14.876 -0.4168 -0.1225  0.0201
 4444TIP3    H134823   5.648   6.190  14.862 -0.3680 -0.5442  1.5603
 4444TIP3    H234824   5.577   6.278  14.963 -1.7359  0.0682  0.1151
 4445TIP3   OH234825   0.014   1.817   3.490  0.0935  0.6508  0.1557
 4445TIP3    H134826  -0.047   1.875   3.445 -0.4147 -1.3983 -1.9393
 4445TIP3    H234827  -0.029   1.732   3.491  0.7979  0.2096  3.1777
 4446TIP3   OH234828   4.816   0.886   4.903  0.1971  0.7874 -0.0955
 4446TIP3    H134829   4.733   0.861   4.944  0.9256 -0.3911  0.7176
 4446TIP3    H234830   4.873   0.811   4.917  2.1447  2.4398  1.4485
 4447TIP3   OH234831   3.405   1.759   2.023 -0.5420 -1.1978  0.3767
 4447TIP3    H134832   3.491   1.727   1.995  0.3791 -1.1453  2.8785
 4447TIP3    H234833   3.355   1.679   2.041 -0.4766 -1.2321  0.4066
 4448TIP3   OH234834   6.511   0.657   5.383 -0.3025 -0.8436  0.1122
 4448TIP3    H134835   6.577   0.663   5.453  2.6746 -3.1016 -2.2340
 4448TIP3    H234836   6.473   0.570   5.394 -1.9460 -0.1027  0.5616
 4449TIP3   OH234837   4.110   1.311  14.717 -0.0580 -0.0781  0.8511
 4449TIP3    H134838   4.076   1.387  14.672 -1.2436 -0.9657  0.2009
 4449TIP3    H234839   4.065   1.236  14.677  0.1491 -1.0289  2.2953
 4450TIP3   OH234840   4.800   1.322  12.087  0.2921  0.2781 -0.0718
 4450TIP3    H134841   4.879   1.376  12.090  0.3057  0.2220  0.9551
 4450TIP3    H234842   4.833   1.232  12.090  0.1924  0.2564  0.4385
 4451TIP3   OH234843   2.805   1.602  16.407  0.4192  0.5770 -0.0586
 4451TIP3    H134844   2.756   1.601  16.325  1.5350  1.5054 -0.7767
 4451TIP3    H234845   2.787   1.688  16.445 -1.6414 -0.5369  1.7079
 4452TIP3   OH234846   6.790   0.314   5.244 -0.0573 -0.4327  0.5652
 4452TIP3    H134847   6.702   0.302   5.207  0.0747 -0.5627  0.2941
 4452TIP3    H234848   6.827   0.226   5.246 -0.1158 -0.4464  1.1399
 4453TIP3   OH234849   3.267   3.891   3.557  0.0705 -0.2710  0.1461
 4453TIP3    H134850   3.329   3.881   3.629  0.3484 -1.0977 -0.1845
 4453TIP3    H234851   3.181   3.879   3.597  0.0932  1.0674  0.6407
 4454TIP3   OH234852   4.734   3.919  16.267 -0.6318 -0.4346 -0.4342
 4454TIP3    H134853   4.754   3.833  16.303  0.2500  0.1206  0.4414
 4454TIP3    H234854   4.755   3.980  16.337 -1.1149  0.5148 -1.0897
 4455TIP3   OH234855   4.581   6.095   5.579 -0.4273  0.2140  0.0115
 4455TIP3    H134856   4.606   6.029   5.514  1.9741 -1.0377  2.0259
 4455TIP3    H234857   4.507   6.141   5.539 -2.6142 -3.9373 -1.4064
 4456TIP3   OH234858   0.445   3.162  14.298  0.3702 -0.1327  0.0259
 4456TIP3    H134859   0.355   3.158  14.268  0.5858  1.6133 -1.0181
 4456TIP3    H234860   0.464   3.073  14.330 -1.2881 -0.8734 -0.9177
 4457TIP3   OH234861   1.882   4.870  15.192  0.6061  0.1638  0.5273
 4457TIP3    H134862   1.970   4.860  15.227  2.0102  1.4912 -2.2396
 4457TIP3    H234863   1.887   4.831  15.105 -1.6052  0.1271  0.3595
 4458TIP3   OH234864   4.941   6.719   4.845 -0.3853  0.6218 -0.1273
 4458TIP3    H134865   4.949   6.777   4.921 -0.2361  0.9798 -0.4107
 4458TIP3    H234866   4.850   6.728   4.818 -0.6937 -0.2264  0.5660
 4459TIP3   OH234867   0.530   4.753  15.281  0.0509  0.4482 -0.1526
 4459TIP3    H134868   0.601   4.817  15.271  0.0227  0.6042  0.6195
 4459TIP3    H234869   0.567   4.683  15.334  0.0284 -0.1179 -0.8551
 4460TIP3   OH234870   5.660   2.999   3.101  0.6166 -0.2742 -0.6158
 4460TIP3    H134871   5.745   3.024   3.137  0.4052  0.6106 -0.7259
 4460TIP3    H234872   5.607   2.977   3.178  0.4704  0.6652 -0.4420
 4461TIP3   OH234873   4.526   5.774   3.564 -0.6048  0.0679 -0.0572
 4461TIP3    H134874   4.621   5.788   3.558 -0.4801 -0.1270  1.0997
 4461TIP3    H234875   4.515   5.679   3.561 -0.7609  0.0915 -0.2061
 4462TIP3   OH234876   1.946   3.943   2.700  0.2900 -0.2488 -0.3617
 4462TIP3    H134877   1.892   3.961   2.623  1.0112  1.3687 -0.5286
 4462TIP3    H234878   1.961   3.848   2.697 -3.1020 -0.9142  0.1192
 4463TIP3   OH234879   2.384   4.730   4.840 -0.1436  0.3766 -0.2235
 4463TIP3    H134880   2.418   4.744   4.751 -2.0835  2.2947 -0.7576
 4463TIP3    H234881   2.462   4.728   4.895  1.0167  1.4797 -1.7224
 4464TIP3   OH234882   6.589   6.133   0.496  0.0202  0.5348  0.3138
 4464TIP3    H134883   6.624   6.219   0.475 -1.0126  0.8634 -0.1563
 4464TIP3    H234884   6.653   6.071   0.461  1.0948  1.1062  1.2398
 4465TIP3   OH234885   0.462   2.462   3.238 -0.4800  0.0761  0.4525
 4465TIP3    H134886   0.373   2.495   3.249 -0.5543 -0.1407  0.5084
 4465TIP3    H234887   0.475   2.404   3.314 -0.3111  0.0664  0.4163
 4466TIP3   OH234888   4.899   3.794   6.201  0.0405  0.2200 -0.0175
 4466TIP3    H134889   4.840   3.863   6.231 -0.0938  0.3742 -0.6161
 4466TIP3    H234890   4.842   3.717   6.192  0.0413  0.2249 -0.0633
 4467TIP3   OH234891   6.133   4.521   4.491  0.0786  0.3039 -0.0306
 4467TIP3    H134892   6.163   4.449   4.546  1.1339  1.2508  0.6881
 4467TIP3    H234893   6.061   4.560   4.541  1.4921  1.6027  1.1110
 4468TIP3   OH234894   6.429   3.982  15.157  0.4151  0.5248  0.3673
 4468TIP3    H134895   6.517   3.975  15.192  0.2634 -0.4520  0.5824
 4468TIP3    H234896   6.427   3.921  15.083 -1.0733 -2.2861  2.5109
 4469TIP3   OH234897   1.699   0.145   5.654  0.5153 -0.1267 -1.0755
 4469TIP3    H134898   1.663   0.232   5.670 -1.4746 -1.1412  0.4132
 4469TIP3    H234899   1.664   0.120   5.568 -1.3230 -0.5308 -0.2633
 4470TIP3   OH234900   2.074   1.829  15.309 -0.1727 -0.0380 -0.0584
 4470TIP3    H134901   2.012   1.864  15.246 -0.3033 -1.5926 -0.8392
 4470TIP3    H234902   2.065   1.734  15.302 -0.6487 -0.2830  2.7734
 4471TIP3   OH234903   1.593   6.771  11.952 -0.0336 -0.1991 -0.2285
 4471TIP3    H134904   1.571   6.713  11.879 -1.3071  1.3219 -1.1191
 4471TIP3    H234905   1.509   6.806  11.981  0.7593  3.0950 -1.3943
 4472TIP3   OH234906   1.608   3.073   3.455  0.3648  0.6848  0.2537
 4472TIP3    H134907   1.655   3.073   3.538  0.7160  1.9456  0.0817
 4472TIP3    H234908   1.594   3.166   3.436  0.2080  0.4120 -1.0371
 4473TIP3   OH234909   4.757   5.137  14.116 -0.2068 -0.5530  0.0405
 4473TIP3    H134910   4.774   5.158  14.208  1.2955 -3.2728  0.5044
 4473TIP3    H234911   4.708   5.055  14.119 -2.2066  0.5096 -1.6142
 4474TIP3   OH234912   4.123   3.795   2.041 -0.4851  0.7521 -0.1151
 4474TIP3    H134913   4.196   3.823   2.097 -1.2704  1.7050  0.4796
 4474TIP3    H234914   4.102   3.707   2.071  0.5004  0.4114 -0.3901
 4475TIP3   OH234915   4.005   4.728   3.438  0.2929 -0.2637 -0.1890
 4475TIP3    H134916   3.964   4.776   3.366 -0.3410  1.4953  1.2743
 4475TIP3    H234917   4.093   4.708   3.407  0.8286  2.4909 -0.6264
 4476TIP3   OH234918   3.818   2.332  15.261 -0.2528  0.8615  0.3139
 4476TIP3    H134919   3.867   2.252  15.239 -0.9768 -0.0673  1.8820
 4476TIP3    H234920   3.885   2.400  15.265  0.4760  0.2198 -0.4385
 4477TIP3   OH234921   1.946   3.482  16.406 -0.3410 -0.3311 -0.1268
 4477TIP3    H134922   1.978   3.460  16.493  0.9401  0.6000 -0.3349
 4477TIP3    H234923   2.024   3.487  16.352 -1.0607 -0.2891 -1.2049
 4478TIP3   OH234924   2.283   6.054  13.014  0.1297 -0.1133  0.5982
 4478TIP3    H134925   2.291   6.076  12.922  1.2228  0.3217  0.7823
 4478TIP3    H234926   2.244   6.132  13.054  0.0721 -0.1298  0.5740
 4479TIP3   OH234927   0.508   5.068  13.740  0.5751  0.1664 -0.1859
 4479TIP3    H134928   0.459   5.096  13.662  0.4934  2.8496  0.7014
 4479TIP3    H234929   0.524   4.975  13.726 -3.4025 -0.5761 -1.2629
 4480TIP3   OH234930   2.091   0.273  16.324 -0.2813  0.5887  0.0320
 4480TIP3    H134931   2.019   0.336  16.318 -0.7900  0.0746  0.6272
 4480TIP3    H234932   2.074   0.211  16.253  0.4215  1.3121 -0.7875
 4481TIP3   OH234933   3.637   5.684  15.944 -0.1818  0.5281 -0.4386
 4481TIP3    H134934   3.583   5.660  15.869 -1.5313  1.6209  0.1375
 4481TIP3    H234935   3.608   5.625  16.014 -1.1556  1.5547  0.0568
 4482TIP3   OH234936   5.768   5.356  16.321 -0.6909  0.3739 -0.5275
 4482TIP3    H134937   5.717   5.320  16.248 -1.3837  0.2680 -0.0020
 4482TIP3    H234938   5.719   5.435  16.347 -1.3624 -0.4589  0.8588
 4483TIP3   OH234939   3.570   3.543  12.086 -0.0623 -0.5222  0.2427
 4483TIP3    H134940   3.606   3.597  12.156  1.2496  1.9251 -2.1488
 4483TIP3    H234941   3.526   3.605  12.028 -1.1789 -2.4678 -1.1188
 4484TIP3   OH234942   0.273   6.575  12.978  0.3837  0.3246  0.2018
 4484TIP3    H134943   0.227   6.631  12.916  0.1118 -1.0449 -0.8719
 4484TIP3    H234944   0.233   6.596  13.063 -1.6957 -0.2304 -0.5739
 4485TIP3   OH234945   6.502   6.189  16.557  0.3716 -0.1395 -0.4550
 4485TIP3    H134946   6.474   6.134  16.484 -1.5723  0.6636 -0.3943
 4485TIP3    H234947   6.525   6.273  16.516  1.6273 -0.4198 -0.3666
 4486TIP3   OH234948   4.645   5.868  12.450 -0.8159 -1.0505  0.4750
 4486TIP3    H134949   4.598   5.946  12.479  0.6905 -0.8184  2.5431
 4486TIP3    H234950   4.634   5.806  12.521  1.4027 -1.1988  0.7582
 4487TIP3   OH234951   4.378   3.995   5.928 -0.1438  0.6726  0.5548
 4487TIP3    H134952   4.319   3.934   5.973  1.6211 -0.4036  1.5029
 4487TIP3    H234953   4.431   4.032   5.998 -0.2049  2.2301 -0.1954
 4488TIP3   OH234954   2.962   1.580  13.454  0.1993  0.2945  0.7732
 4488TIP3    H134955   2.896   1.648  13.446 -0.1047 -0.1056 -0.2520
 4488TIP3    H234956   2.912   1.499  13.464  0.5497  0.1538  1.4410
 4489TIP3   OH234957   4.689   6.598  13.334  0.2168 -0.4367 -0.8019
 4489TIP3    H134958   4.652   6.673  13.287  0.8826 -0.8068 -1.9715
 4489TIP3    H234959   4.621   6.571  13.394 -0.5638  0.2438 -1.3543
 4490TIP3   OH234960   2.637   1.322   2.935 -0.2443  0.5716 -0.1545
 4490TIP3    H134961   2.713   1.328   2.993  0.7141  0.3785 -1.3481
 4490TIP3    H234962   2.572   1.379   2.975 -0.3925 -1.1261  2.2182
 4491TIP3   OH234963   3.957   5.036  16.384 -0.0499  0.3344  0.1342
 4491TIP3    H134964   3.948   5.071  16.472 -0.0894 -1.1323  0.7286
 4491TIP3    H234965   3.906   5.095  16.329  0.2485  1.4531  1.0302
 4492TIP3   OH234966   6.675   5.775   2.647 -0.1805  0.1145 -0.6242
 4492TIP3    H134967   6.748   5.837   2.658  0.3403 -0.6898  0.8057
 4492TIP3    H234968   6.598   5.831   2.638  0.5488  0.9832 -1.8745
 4493TIP3   OH234969   1.534   1.946   2.396 -0.1555  0.1737  0.3329
 4493TIP3    H134970   1.454   1.989   2.426  0.1402  1.4992 -0.6790
 4493TIP3    H234971   1.592   2.019   2.372  0.7567 -0.7914 -0.4493
 4494TIP3   OH234972   4.321   2.610   0.866  0.3181  0.3867 -0.1622
 4494TIP3    H134973   4.270   2.545   0.913  0.0129  1.3736  0.9186
 4494TIP3    H234974   4.400   2.621   0.919  0.2334  1.0884 -0.1722
 4495TIP3   OH234975   2.980   1.387  14.772  0.8262 -0.2786 -0.3982
 4495TIP3    H134976   3.042   1.439  14.823  1.3535 -0.6041 -0.6900
 4495TIP3    H234977   2.964   1.439  14.693  0.8528 -0.2622 -0.3920
 4496TIP3   OH234978   5.283   0.914  12.363 -0.2408  0.2777 -0.2666
 4496TIP3    H134979   5.246   0.834  12.325 -0.7751 -0.4790  1.7368
 4496TIP3    H234980   5.370   0.889  12.394  0.1606  0.8638 -0.8806
 4497TIP3   OH234981   0.597   2.494  17.106 -0.2054  0.4371  0.3512
 4497TIP3    H134982   0.585   2.544  17.186 -1.3943  1.6869 -0.5553
 4497TIP3    H234983   0.533   2.423  17.113 -0.2698  0.5134  0.5470
 4498TIP3   OH234984   2.990   6.597  15.621 -0.0801  0.3613 -0.2304
 4498TIP3    H134985   3.045   6.663  15.580  0.6880  0.3744  0.7808
 4498TIP3    H234986   3.002   6.519  15.566  1.7980  0.0542  0.5310
 4499TIP3   OH234987   3.319   2.442  11.674  0.1056  0.0056  0.2592
 4499TIP3    H134988   3.395   2.499  11.688 -0.1123  0.2715  0.3654
 4499TIP3    H234989   3.246   2.488  11.716 -0.1559 -0.1508 -0.0199
 4500TIP3   OH234990   2.386   0.636  17.060 -0.2398  0.3633  0.1326
 4500TIP3    H134991   2.392   0.581  17.137 -2.4033  0.3555  0.3722
 4500TIP3    H234992   2.431   0.717  17.083 -0.2223  0.0713  1.1283
 4501TIP3   OH234993   4.541   2.696   3.467  0.2465 -0.0114 -0.1062
 4501TIP3    H134994   4.560   2.770   3.410 -1.6494  1.3252  0.8814
 4501TIP3    H234995   4.508   2.628   3.408 -0.7660  0.9897 -0.7303
 4502TIP3   OH234996   2.158   2.787  10.860 -0.4089 -0.2710 -0.5814
 4502TIP3    H134997   2.219   2.803  10.788  0.3920 -1.6077 -0.2345
 4502TIP3    H234998   2.072   2.808  10.823  0.0817  0.0359 -1.6086
 4503TIP3   OH234999   6.566   4.584   3.908  0.3909  0.5549  0.2534
 4503TIP3    H135000   6.535   4.592   3.998 -0.3734 -2.6084  0.3619
 4503TIP3    H235001   6.656   4.552   3.916  0.7666  1.4469 -0.1556
 4504TIP3   OH235002   3.169   2.664   5.770  0.1593  0.0102  0.6731
 4504TIP3    H135003   3.263   2.649   5.764 -0.0362 -0.6984 -1.2904
 4504TIP3    H235004   3.161   2.754   5.803  1.6291  1.4982 -2.5446
 4505TIP3   OH235005   6.457   3.722  11.263  0.3013 -0.1682  0.1696
 4505TIP3    H135006   6.410   3.656  11.212 -0.5954 -0.1546  0.9462
 4505TIP3    H235007   6.539   3.679  11.288  0.6201 -0.2750 -1.0011
 4506TIP3   OH235008   1.125   5.795   6.070 -0.2796  0.4531  0.3373
 4506TIP3    H135009   1.108   5.704   6.092 -1.2269  0.9852  1.9732
 4506TIP3    H235010   1.126   5.797   5.974 -1.3846 -1.0732  0.2696
 4507TIP3   OH235011   6.217   3.479  15.664 -0.8285 -0.3340 -0.5672
 4507TIP3    H135012   6.293   3.517  15.709 -1.4682 -0.4560  0.6883
 4507TIP3    H235013   6.253   3.436  15.587  0.4338 -0.7042  0.1913
 4508TIP3   OH235014   1.209   0.103   3.018 -0.0779  0.0051  0.3364
 4508TIP3    H135015   1.204   0.155   3.098 -0.4397  0.1379  0.2325
 4508TIP3    H235016   1.289   0.052   3.027  1.0678  1.6417 -0.2106
 4509TIP3   OH235017   6.548   6.196   3.172  0.0685  0.0389 -0.2260
 4509TIP3    H135018   6.570   6.268   3.231  0.2883 -0.9562  0.9571
 4509TIP3    H235019   6.625   6.140   3.172  0.7382  0.8033 -2.7925
 4510TIP3   OH235020   0.111   3.883  14.297  0.4407  0.4232  0.6038
 4510TIP3    H135021   0.106   3.812  14.361 -0.9380 -0.4616 -0.4182
 4510TIP3    H235022   0.203   3.909  14.297  0.8150 -0.7777  1.6342
 4511TIP3   OH235023   6.787   5.426   5.937 -0.3759  0.0013 -0.5686
 4511TIP3    H135024   6.779   5.363   6.009  1.4164  0.4285  0.0513
 4511TIP3    H235025   6.834   5.379   5.868  1.5675  0.7944  0.1502
 4512TIP3   OH235026   1.393   1.456   1.219  0.1083 -0.0685 -0.0700
 4512TIP3    H135027   1.485   1.431   1.225 -0.0424 -0.4512  0.7289
 4512TIP3    H235028   1.362   1.456   1.310 -0.5260  0.6468 -0.2708
 4513TIP3   OH235029   2.152   0.055  14.440 -0.3661 -0.1783 -0.4841
 4513TIP3    H135030   2.205   0.131  14.415  0.8019 -0.3411  1.3307
 4513TIP3    H235031   2.095   0.087  14.510 -0.8677 -0.6434 -0.6737
 4514TIP3   OH235032   3.096   5.185  12.044  0.1248  0.1688 -0.2699
 4514TIP3    H135033   3.106   5.247  12.116  1.1370  0.0026 -0.2533
 4514TIP3    H235034   3.034   5.227  11.985 -0.6371  0.3565  0.6324
 4515TIP3   OH235035   4.772   3.872   1.068 -0.1303  0.0822 -0.0037
 4515TIP3    H135036   4.841   3.893   1.004 -0.5125  0.5962 -0.2451
 4515TIP3    H235037   4.779   3.940   1.134  0.1683 -0.3676  0.4422
 4516TIP3   OH235038   1.129   0.739   5.452 -0.0118  0.2441  0.5592
 4516TIP3    H135039   1.154   0.677   5.521 -0.0379  0.1339  0.4695
 4516TIP3    H235040   1.097   0.684   5.380  1.6715  0.2272 -0.2362
 4517TIP3   OH235041   1.166   1.139  11.201 -0.1558  0.1030 -0.4530
 4517TIP3    H135042   1.098   1.134  11.134  0.2411  1.0623 -0.9619
 4517TIP3    H235043   1.141   1.075  11.267 -0.3334 -1.1905 -1.7276
 4518TIP3   OH235044   5.876   1.116  16.429 -0.0851  0.2015  0.2696
 4518TIP3    H135045   5.965   1.082  16.429 -0.3538 -0.5519 -0.8279
 4518TIP3    H235046   5.885   1.206  16.399  0.6083  1.1261  2.9975
 4519TIP3   OH235047   3.493   1.483   1.436 -0.8198 -0.0496  0.2702
 4519TIP3    H135048   3.564   1.545   1.416  0.6333 -0.9316  2.3599
 4519TIP3    H235049   3.413   1.533   1.422  0.1784  1.1320 -1.7289
 4520TIP3   OH235050   5.016   1.907  11.838 -0.9095  0.2556  0.3125
 4520TIP3    H135051   4.945   1.935  11.781 -1.1852  0.2733  0.6586
 4520TIP3    H235052   5.094   1.908  11.783 -1.5257 -1.9870 -0.7265
 4521TIP3   OH235053   1.556   4.238  11.476 -0.3504 -0.3230  0.2309
 4521TIP3    H135054   1.609   4.315  11.454  2.0900 -2.2528 -1.2749
 4521TIP3    H235055   1.508   4.219  11.395 -0.6396 -0.6177  0.4715
 4522TIP3   OH235056   5.251   4.475   2.771  0.1824  0.1500 -0.4384
 4522TIP3    H135057   5.338   4.476   2.730  0.5509  2.2507  0.2819
 4522TIP3    H235058   5.265   4.438   2.858  0.2082 -0.1447 -0.5645
 4523TIP3   OH235059   4.709   2.096  12.742  0.5885 -0.0970 -0.5858
 4523TIP3    H135060   4.625   2.061  12.772  0.3100  0.2761 -0.9241
 4523TIP3    H235061   4.739   2.150  12.815  0.1998  0.3236 -0.7296
 4524TIP3   OH235062   5.246   2.318   1.030  0.0375 -0.3216  0.3565
 4524TIP3    H135063   5.172   2.258   1.032 -0.2752 -0.0767 -1.6067
 4524TIP3    H235064   5.317   2.270   1.072 -0.2413 -2.0644 -1.0307
 4525TIP3   OH235065   0.507   1.469   4.426  0.0986 -0.4272  0.2276
 4525TIP3    H135066   0.592   1.505   4.452  0.8777 -2.0942  0.1097
 4525TIP3    H235067   0.528   1.398   4.366 -1.4730  0.1586 -1.0951
 4526TIP3   OH235068   1.029   5.985  12.677  0.5104  0.2640  0.0326
 4526TIP3    H135069   1.021   5.949  12.589 -0.6108  0.8388 -0.1186
 4526TIP3    H235070   0.977   5.927  12.732 -3.8641  3.0718 -0.6714
 4527TIP3   OH235071   5.794   0.699  15.578  0.2102  0.6279  0.1061
 4527TIP3    H135072   5.807   0.788  15.545 -0.2449  0.2793 -1.0868
 4527TIP3    H235073   5.834   0.643  15.511 -1.5107 -0.1513 -0.3434
 4528TIP3   OH235074   4.349   5.198  13.284  0.2374  0.8032 -0.1071
 4528TIP3    H135075   4.408   5.271  13.262  0.8560  0.7754  1.3715
 4528TIP3    H235076   4.282   5.238  13.339  0.3230  0.3543  0.3305
 4529TIP3   OH235077   6.722   0.457   2.697 -0.0974 -0.0078  0.1494
 4529TIP3    H135078   6.690   0.379   2.742  1.9656 -0.4923  0.8847
 4529TIP3    H235079   6.787   0.424   2.635 -0.8283  0.9481 -1.1858
 4530TIP3   OH235080   4.597   5.194   2.570 -0.0833 -0.3151  0.6906
 4530TIP3    H135081   4.596   5.255   2.497  0.8723  0.8980  1.6439
 4530TIP3    H235082   4.535   5.125   2.545  0.6521 -0.2612 -1.4944
 4531TIP3   OH235083   3.244   3.851  14.158 -0.4191  0.0985 -0.3670
 4531TIP3    H135084   3.212   3.783  14.098 -1.8317 -0.4557  0.9378
 4531TIP3    H235085   3.330   3.820  14.185 -0.0122  0.0627 -1.6193
 4532TIP3   OH235086   3.739   5.207   4.660 -0.0667 -0.3085  0.1110
 4532TIP3    H135087   3.656   5.160   4.668  0.3560 -1.1891 -0.4437
 4532TIP3    H235088   3.719   5.284   4.607 -0.3671 -0.9886 -0.7969
 4533TIP3   OH235089   4.134   0.427   4.846 -0.8303  0.1786 -0.0742
 4533TIP3    H135090   4.106   0.476   4.769 -1.5209  0.6116  0.4375
 4533TIP3    H235091   4.056   0.424   4.902 -1.0103 -2.0661 -0.3623
 4534TIP3   OH235092   1.550   2.843  16.526  0.3460  0.2016  0.0078
 4534TIP3    H135093   1.520   2.784  16.595 -0.8132  0.9482  0.1725
 4534TIP3    H235094   1.623   2.891  16.565  0.0919  0.1884  0.5073
 4535TIP3   OH235095   1.676   4.751   0.610  0.5922  0.1938 -0.1280
 4535TIP3    H135096   1.686   4.813   0.682 -2.3653 -0.3283  0.8815
 4535TIP3    H235097   1.697   4.666   0.650 -2.8256 -0.3552  0.8381
 4536TIP3   OH235098   0.067   5.175   2.573  0.1366 -0.2155 -0.0532
 4536TIP3    H135099   0.007   5.135   2.636 -1.1790  2.5511  0.5916
 4536TIP3    H235100   0.154   5.146   2.600 -0.7040 -3.2042 -0.1589
 4537TIP3   OH235101   1.115   3.540   1.747 -0.3034 -0.1405  0.3366
 4537TIP3    H135102   1.196   3.490   1.743 -0.9731 -1.3219  1.2841
 4537TIP3    H235103   1.089   3.550   1.655  1.5287  1.3729 -0.1058
 4538TIP3   OH235104   2.704   3.834   1.256  0.1343 -0.0102 -0.5733
 4538TIP3    H135105   2.647   3.846   1.180  0.8905  2.3066 -0.8488
 4538TIP3    H235106   2.773   3.899   1.244 -0.0658  0.8954  2.4026
 4539TIP3   OH235107   3.319   0.670  14.041  0.1118 -0.9358  0.1960
 4539TIP3    H135108   3.264   0.593  14.052 -0.4608 -0.6818 -0.7957
 4539TIP3    H235109   3.261   0.744  14.062  0.5548 -0.7532  0.7930
 4540TIP3   OH235110   1.152   3.131   4.921 -0.2709 -0.0505  0.3048
 4540TIP3    H135111   1.066   3.092   4.901 -0.0509  0.1851 -1.2279
 4540TIP3    H235112   1.204   3.115   4.842  1.4129 -1.0011  1.5561
 4541TIP3   OH235113   3.992   6.651   4.892 -0.0031 -0.2137 -0.2446
 4541TIP3    H135114   4.043   6.702   4.829  0.2071  0.1625  0.2283
 4541TIP3    H235115   4.029   6.673   4.977  0.2399 -1.3224 -0.0471
 4542TIP3   OH235116   5.318   1.540   4.450  0.2324  0.0095 -0.4460
 4542TIP3    H135117   5.261   1.537   4.527  1.8738 -1.1596  0.8083
 4542TIP3    H235118   5.267   1.585   4.383 -1.5814  0.2870  1.0597
 4543TIP3   OH235119   1.203   4.610   5.241  0.1394  0.1583 -0.0644
 4543TIP3    H135120   1.260   4.535   5.256  0.9001  0.8412  0.5569
 4543TIP3    H235121   1.250   4.684   5.280 -1.7223  0.5396  1.6427
 4544TIP3   OH235122   0.371   3.551  14.398  0.7463  0.3665  0.5107
 4544TIP3    H135123   0.461   3.557  14.365  0.4169 -1.7803 -0.9990
 4544TIP3    H235124   0.379   3.505  14.481  1.1765  1.7669  1.2683
 4545TIP3   OH235125   4.011   3.380   5.735  0.3306 -0.1338 -0.5378
 4545TIP3    H135126   3.973   3.373   5.648  0.7753  0.7225 -0.8169
 4545TIP3    H235127   3.937   3.402   5.792  0.1975  0.2701 -0.8638
 4546TIP3   OH235128   3.263   0.834   2.700 -0.4986  0.7308 -0.0069
 4546TIP3    H135129   3.249   0.741   2.714 -0.9185  1.0110  1.6198
 4546TIP3    H235130   3.175   0.872   2.700 -0.2624  1.3597  1.3841
 4547TIP3   OH235131   0.366   1.697  12.700  0.4565  0.3151  0.2201
 4547TIP3    H135132   0.429   1.689  12.772  0.5028 -1.1317  0.0541
 4547TIP3    H235133   0.398   1.769  12.647  0.5094  1.3046  1.5612
 4548TIP3   OH235134   3.751   4.455  12.444 -0.1489 -0.0584  0.9270
 4548TIP3    H135135   3.749   4.540  12.488  0.0698 -0.2500  1.3084
 4548TIP3    H235136   3.697   4.399  12.499 -1.8888  0.3042 -0.3273
 4549TIP3   OH235137   0.740   4.810   1.629  0.3226 -0.1406 -0.0380
 4549TIP3    H135138   0.818   4.767   1.664  1.3334  0.6083 -1.2847
 4549TIP3    H235139   0.759   4.822   1.536 -0.7622  1.1885 -0.1147
 4550TIP3   OH235140   5.865   3.820  14.694  0.4401 -0.1596 -1.1284
 4550TIP3    H135141   5.863   3.764  14.616  0.6604  0.4629 -1.5850
 4550TIP3    H235142   5.801   3.889  14.676 -0.2620 -0.5727 -0.3201
 4551TIP3   OH235143   3.832   0.693   1.132  0.5644 -0.2769  0.1071
 4551TIP3    H135144   3.780   0.683   1.052 -0.0148  1.1208  0.2919
 4551TIP3    H235145   3.900   0.756   1.110  1.2586 -0.9341  0.3226
 4552TIP3   OH235146   2.534   3.093   4.776  0.1805  0.0536 -0.3542
 4552TIP3    H135147   2.612   3.107   4.830  1.3562 -3.1799 -0.9717
 4552TIP3    H235148   2.556   3.133   4.692  0.3341  0.8951  0.0763
 4553TIP3   OH235149   5.586   4.088  15.233  0.2651  0.1568 -0.2307
 4553TIP3    H135150   5.557   4.178  15.244 -0.0644  0.0657 -0.3453
 4553TIP3    H235151   5.526   4.051  15.168  0.4025 -0.1428 -0.1895
 4554TIP3   OH235152   4.001   3.880   1.827 -0.4190  0.1078  0.1515
 4554TIP3    H135153   3.944   3.813   1.789 -0.1597 -0.7991  1.3077
 4554TIP3    H235154   4.019   3.849   1.916  0.1590  1.4446  0.5282
 4555TIP3   OH235155   2.627   2.140  11.463  0.3659 -0.2276 -0.2735
 4555TIP3    H135156   2.548   2.136  11.410 -0.4338  0.4326  0.8364
 4555TIP3    H235157   2.596   2.136  11.554  1.6466 -0.6268  0.1725
 4556TIP3   OH235158   0.900   0.740  11.303 -0.0481  0.3756  0.1054
 4556TIP3    H135159   0.872   0.783  11.222  0.8727 -0.5731 -0.7540
 4556TIP3    H235160   0.823   0.689  11.330 -0.4752  0.9677  0.0335
 4557TIP3   OH235161   0.223   4.360   6.063  0.2582  0.2368 -0.2962
 4557TIP3    H135162   0.310   4.339   6.098 -0.5682  0.9923  2.5179
 4557TIP3    H235163   0.174   4.278   6.071  0.0480  0.4283  0.4771
 4558TIP3   OH235164   3.456   1.019  15.452 -0.1930 -0.6368 -0.2064
 4558TIP3    H135165   3.458   0.923  15.452 -2.8441 -0.8354 -3.2837
 4558TIP3    H235166   3.449   1.043  15.360  1.4622  2.6628  0.3776
 4559TIP3   OH235167   5.923   0.482   0.810 -0.0188 -0.2347  0.2962
 4559TIP3    H135168   6.014   0.463   0.832 -0.1580  0.6655  1.8109
 4559TIP3    H235169   5.874   0.409   0.848  0.0879 -0.9714 -0.9401
 4560TIP3   OH235170   5.712   0.666  12.217 -0.7924 -0.3762  0.0306
 4560TIP3    H135171   5.645   0.703  12.275 -0.6346  0.1678 -0.1299
 4560TIP3    H235172   5.684   0.692  12.129 -0.7803 -0.8026 -0.1007
 4561TIP3   OH235173   0.444   1.279  12.710  0.0277  0.3543  0.1726
 4561TIP3    H135174   0.436   1.211  12.643 -0.2584  0.0183  0.5403
 4561TIP3    H235175   0.373   1.261  12.771  0.0454  0.8916  0.3627
 4562TIP3   OH235176   6.652   1.217   4.012  0.5748 -0.1175  0.0352
 4562TIP3    H135177   6.744   1.198   4.033  1.1838 -0.6826 -2.6989
 4562TIP3    H235178   6.607   1.133   4.024  0.5563 -0.0280  0.6309
 4563TIP3   OH235179   6.367   3.479   1.967 -0.1841  0.7630  0.1349
 4563TIP3    H135180   6.373   3.514   2.056 -1.9432  0.0150  0.5976
 4563TIP3    H235181   6.335   3.389   1.979 -2.3540  1.2715 -1.3160
 4564TIP3   OH235182   0.196   1.434   2.207 -0.3201  0.1176 -0.5562
 4564TIP3    H135183   0.281   1.421   2.165 -0.3478  3.1142 -1.7809
 4564TIP3    H235184   0.217   1.470   2.294 -0.3299 -0.4735 -0.3074
 4565TIP3   OH235185   2.908   2.566   1.313 -0.3153 -0.1762 -0.0358
 4565TIP3    H135186   2.913   2.638   1.251  0.1357 -0.1111  0.0656
 4565TIP3    H235187   2.997   2.560   1.349 -0.3368 -0.8210 -0.0876
 4566TIP3   OH235188   1.799   2.295  14.880  0.0557 -0.6162  0.5476
 4566TIP3    H135189   1.767   2.237  14.811  0.6888  2.5065 -2.6751
 4566TIP3    H235190   1.723   2.348  14.904  0.4257  0.0107  0.3568
 4567TIP3   OH235191   1.570   6.141  16.262 -0.2854 -0.0103 -0.6109
 4567TIP3    H135192   1.665   6.142  16.271 -0.2880  3.8823  0.7122
 4567TIP3    H235193   1.552   6.065  16.206  3.4564 -1.4181 -0.2059
 4568TIP3   OH235194   5.417   6.663   5.792  0.1474 -0.5835  0.3358
 4568TIP3    H135195   5.495   6.657   5.847  1.0765  0.7312 -0.7746
 4568TIP3    H235196   5.447   6.708   5.713 -1.6005 -0.6161 -0.3821
 4569TIP3   OH235197   0.715   4.453   5.830  0.0787  0.0239 -0.4348
 4569TIP3    H135198   0.724   4.529   5.773 -2.3241  1.0554  0.4273
 4569TIP3    H235199   0.646   4.400   5.789 -1.5900  0.7158  1.3198
 4570TIP3   OH235200   3.037   5.120   6.231  0.6596 -0.5453 -0.7807
 4570TIP3    H135201   2.968   5.186   6.232 -0.5797 -1.7940  0.0413
 4570TIP3    H235202   3.064   5.111   6.322  1.1865 -0.8029 -0.9563
 4571TIP3   OH235203   0.558   4.539  13.381 -0.2780 -0.4122 -0.5861
 4571TIP3    H135204   0.581   4.487  13.458  0.0710 -0.1384 -0.5013
 4571TIP3    H235205   0.481   4.496  13.345 -0.1894 -0.7915 -0.3270
 4572TIP3   OH235206   0.668   5.373   3.346 -0.0275 -0.4250  0.0999
 4572TIP3    H135207   0.679   5.425   3.425 -0.7264 -0.1172  0.0036
 4572TIP3    H235208   0.756   5.367   3.308 -0.2951  3.2455 -1.4780
 4573TIP3   OH235209   2.561   1.156   0.494 -0.3053 -0.6446  0.2070
 4573TIP3    H135210   2.625   1.204   0.443  0.0600 -0.9348  0.3888
 4573TIP3    H235211   2.477   1.198   0.474 -0.5285 -2.0670 -2.2946
 4574TIP3   OH235212   4.477   4.483  11.918  0.1130  0.2998 -0.8235
 4574TIP3    H135213   4.521   4.546  11.861 -3.1485  2.7313 -0.9761
 4574TIP3    H235214   4.468   4.404  11.864  1.4362  0.8047 -1.8377
 4575TIP3   OH235215   1.283   4.616  15.308 -0.1723  0.3661 -0.2285
 4575TIP3    H135216   1.344   4.547  15.334  0.4371  0.5434 -1.1403
 4575TIP3    H235217   1.310   4.692  15.359 -0.6683  0.0199  0.5730
 4576TIP3   OH235218   0.216   3.301   1.969  0.4431 -0.1274  0.3867
 4576TIP3    H135219   0.242   3.211   1.949  1.6461 -0.0628  1.5140
 4576TIP3    H235220   0.124   3.306   1.943  0.8041 -1.1665 -1.2678
 4577TIP3   OH235221   6.765   6.077   1.270  0.2294 -0.0292  0.3913
 4577TIP3    H135222   6.855   6.086   1.240 -0.0336  0.3162 -0.3283
 4577TIP3    H235223   6.770   6.081   1.365  1.1361 -1.5429  0.4407
 4578TIP3   OH235224   2.730   1.982  15.396 -0.2730  0.5410  0.0078
 4578TIP3    H135225   2.651   1.932  15.375  0.1394  0.5948 -1.8253
 4578TIP3    H235226   2.700   2.072  15.407 -0.5688  0.4425  0.0075
 4579TIP3   OH235227   1.024   0.805   0.529 -0.5295 -0.4246  0.2931
 4579TIP3    H135228   0.933   0.779   0.515 -1.2753  2.1512 -0.0711
 4579TIP3    H235229   1.032   0.890   0.486  1.8715 -0.2566  0.9203
 4580TIP3   OH235230   1.132   0.358  12.360 -0.1454 -0.2054  0.1239
 4580TIP3    H135231   1.192   0.407  12.417 -2.4305  1.0826  1.5481
 4580TIP3    H235232   1.111   0.419  12.289 -0.3102 -0.4102 -0.0023
 4581TIP3   OH235233   6.725   3.346  13.630  0.4130 -0.1883 -0.3037
 4581TIP3    H135234   6.726   3.420  13.571  0.9400 -0.2492 -0.3725
 4581TIP3    H235235   6.702   3.383  13.715 -0.0321 -0.0549 -0.4798
 4582TIP3   OH235236   3.959   4.475  13.989 -0.4253  0.2264  0.1118
 4582TIP3    H135237   3.936   4.382  13.988  3.3881 -0.9073 -1.5213
 4582TIP3    H235238   3.903   4.514  13.923 -0.7598 -1.3588 -0.5956
 4583TIP3   OH235239   4.131   2.900   6.473  0.4016 -0.2313  0.0285
 4583TIP3    H135240   4.086   2.873   6.392  0.8258  0.6238 -0.5136
 4583TIP3    H235241   4.147   2.994   6.461 -0.8291  0.2489  1.7481
 4584TIP3   OH235242   5.471   4.917   3.192  0.1804  0.1023 -0.4925
 4584TIP3    H135243   5.399   4.923   3.254  0.4856 -2.6860  0.2915
 4584TIP3    H235244   5.539   4.974   3.229 -1.0094  1.4895 -0.3779
 4585TIP3   OH235245   2.307   4.970  16.195  0.3753  0.2541 -0.3756
 4585TIP3    H135246   2.220   4.973  16.154  0.5954  0.0040 -0.8714
 4585TIP3    H235247   2.295   4.917  16.273 -0.4001  2.0273  0.7631
 4586TIP3   OH235248   4.133   0.956   1.368  0.1858 -0.1320 -0.0486
 4586TIP3    H135249   4.055   0.902   1.368  0.3974 -0.4706 -1.0010
 4586TIP3    H235250   4.206   0.894   1.363  0.6231  0.1030  2.2671
 4587TIP3   OH235251   4.549   3.813  10.703 -0.5958 -0.1081 -0.1801
 4587TIP3    H135252   4.464   3.791  10.664 -0.0731 -1.0531 -0.8170
 4587TIP3    H235253   4.601   3.847  10.630  0.7085 -2.7722 -0.6123
 4588TIP3   OH235254   4.481   6.666   3.045 -0.3611  0.4233  0.2036
 4588TIP3    H135255   4.390   6.697   3.039 -0.4351  0.4838  1.3955
 4588TIP3    H235256   4.501   6.670   3.138  0.9475  0.6178 -0.0693
 4589TIP3   OH235257   0.882   1.138   2.787  0.4178  0.3119  0.4192
 4589TIP3    H135258   0.973   1.163   2.807  0.1756  1.0776  0.6241
 4589TIP3    H235259   0.841   1.127   2.873  0.4870 -0.7044  0.3269
 4590TIP3   OH235260   0.289   5.107   2.716  0.4068 -0.2892  0.2713
 4590TIP3    H135261   0.320   5.136   2.802 -0.5187 -0.7111  0.7612
 4590TIP3    H235262   0.361   5.053   2.682  0.9680  0.2542  0.5726
 4591TIP3   OH235263   2.520   1.602   0.045  0.4183  0.2049 -0.0944
 4591TIP3    H135264   2.579   1.667   0.083  1.3208 -0.5164 -0.2138
 4591TIP3    H235265   2.453   1.588   0.112  0.2812  1.1544 -0.0230
 4592TIP3   OH235266   6.177   1.667   0.500 -0.1099 -0.4914 -0.7296
 4592TIP3    H135267   6.208   1.736   0.558 -0.3908 -0.8067 -0.1991
 4592TIP3    H235268   6.234   1.673   0.423 -0.8418  1.0545 -1.1866
 4593TIP3   OH235269   1.629   2.319  10.706 -0.4144 -0.0204  0.1281
 4593TIP3    H135270   1.629   2.232  10.666 -0.0924 -0.0266  0.1446
 4593TIP3    H235271   1.553   2.318  10.764  0.2625 -0.6991  1.0338
 4594TIP3   OH235272   1.598   2.482   5.585  0.0545 -1.2036  0.2524
 4594TIP3    H135273   1.601   2.497   5.680 -0.0546 -2.2132  0.4282
 4594TIP3    H235274   1.681   2.439   5.565 -0.5330 -2.3256  0.1532
 4595TIP3   OH235275   3.577   0.225   0.211 -0.0967  0.2855 -0.1760
 4595TIP3    H135276   3.562   0.146   0.159 -0.0259  1.3987 -1.9627
 4595TIP3    H235277   3.644   0.274   0.162  0.5112  1.0561  1.3571
 4596TIP3   OH235278   2.376   3.513  14.573  0.0408 -0.2779 -0.1405
 4596TIP3    H135279   2.435   3.567  14.626 -0.5970  1.0447 -0.7153
 4596TIP3    H235280   2.433   3.472  14.508  0.4342  0.4063 -0.2362
 4597TIP3   OH235281   0.466   4.008  17.004  0.3407  0.4618 -0.2346
 4597TIP3    H135282   0.413   4.087  17.000  0.8524  0.8031 -0.3024
 4597TIP3    H235283   0.423   3.954  17.070 -0.5963  0.3598 -0.8909
 4598TIP3   OH235284   4.944   5.266   4.720 -0.4357 -0.0815 -0.0377
 4598TIP3    H135285   4.862   5.280   4.674 -1.0350  1.3469  1.3625
 4598TIP3    H235286   4.930   5.188   4.773 -0.7951 -0.0145 -0.0322
 4599TIP3   OH235287   0.848   3.369  15.004  0.5333  0.0353  0.0899
 4599TIP3    H135288   0.859   3.282  14.967  1.2460  0.4878 -0.7788
 4599TIP3    H235289   0.792   3.415  14.941  0.3849  0.3001  0.4092
 4600TIP3   OH235290   1.540   4.530   0.144  0.2731 -0.7349 -0.2485
 4600TIP3    H135291   1.593   4.604   0.174  0.5502 -1.4657  1.1478
 4600TIP3    H235292   1.490   4.565   0.070 -0.9421  1.4102  1.4627
 4601TIP3   OH235293   2.147   3.872  11.288  0.5832  0.1390  0.1262
 4601TIP3    H135294   2.241   3.859  11.273  1.4326  0.5928  4.0793
 4601TIP3    H235295   2.125   3.948  11.234  2.6415  0.4101 -0.4098
 4602TIP3   OH235296   6.271   3.208   5.216 -0.5659 -0.0420  0.4765
 4602TIP3    H135297   6.307   3.170   5.296  1.1081  0.1836 -0.1242
 4602TIP3    H235298   6.252   3.299   5.238 -1.1448 -0.2661  0.9115
 4603TIP3   OH235299   2.219   5.154  12.272  0.1456  0.2299  0.3493
 4603TIP3    H135300   2.231   5.129  12.181 -0.8010 -1.2307  0.5967
 4603TIP3    H235301   2.189   5.245  12.268 -1.3479 -0.2858 -0.8887
 4604TIP3   OH235302   2.928   0.086  14.482  0.0190 -0.4324 -0.6309
 4604TIP3    H135303   2.857   0.023  14.493 -0.4916  0.1534 -0.5024
 4604TIP3    H235304   2.993   0.060  14.547 -0.9611  0.2186  0.6693
 4605TIP3   OH235305   1.648   4.047   4.578  0.4326 -0.4925  0.1464
 4605TIP3    H135306   1.705   3.972   4.562 -0.9755 -1.5551 -0.1326
 4605TIP3    H235307   1.653   4.062   4.672  1.1630 -0.5619  0.1225
 4606TIP3   OH235308   5.060   5.388  16.360 -0.3749  0.0740  0.2217
 4606TIP3    H135309   5.002   5.322  16.398  0.8064 -1.3155 -0.2784
 4606TIP3    H235310   5.079   5.448  16.433  1.6593 -2.3983  1.9213
 4607TIP3   OH235311   3.697   2.632  13.039  0.4661  0.3025  0.3269
 4607TIP3    H135312   3.712   2.693  12.968 -2.4926 -1.9353 -2.5562
 4607TIP3    H235313   3.624   2.669  13.088  1.2172  0.8959  1.0149
 4608TIP3   OH235314   0.822   4.305   1.434  0.2840 -0.0090 -0.5893
 4608TIP3    H135315   0.757   4.253   1.388 -0.8018  1.5467 -0.8881
 4608TIP3    H235316   0.772   4.376   1.475  1.5817  0.2630  0.6226
 4609TIP3   OH235317   4.613   0.043   6.597  0.5074  0.1679  0.8453
 4609TIP3    H135318   4.671   0.080   6.663  2.0751 -0.5287 -0.0681
 4609TIP3    H235319   4.633  -0.051   6.598  1.2561  0.2511 -1.1851
 4610TIP3   OH235320   2.858   6.660   6.340 -0.4179 -0.5991 -0.2300
 4610TIP3    H135321   2.763   6.653   6.348 -0.4072 -0.5905 -0.0965
 4610TIP3    H235322   2.890   6.668   6.430 -0.1976 -1.8092 -0.1772
 4611TIP3   OH235323   5.386   5.890  16.176  0.5525 -0.0909  0.2433
 4611TIP3    H135324   5.448   5.913  16.246 -1.3029 -0.2792  2.0510
 4611TIP3    H235325   5.407   5.799  16.154  1.4855  0.1349  0.1746
 4612TIP3   OH235326   6.806   4.806  10.697 -0.1855  0.3056 -0.3107
 4612TIP3    H135327   6.716   4.799  10.665  0.0116 -1.8936 -0.5737
 4612TIP3    H235328   6.837   4.890  10.664 -1.6595  0.4165 -1.5279
 4613TIP3   OH235329   1.738   6.567   3.972  0.2366 -0.8751 -0.4802
 4613TIP3    H135330   1.701   6.611   3.896  0.2240  0.7578  0.4341
 4613TIP3    H235331   1.684   6.596   4.045  2.5392  0.6604  0.7264
 4614TIP3   OH235332   5.835   6.645   1.785 -0.1004  0.1597  0.5096
 4614TIP3    H135333   5.744   6.618   1.792 -0.2573  0.9914  2.7113
 4614TIP3    H235334   5.832   6.733   1.747 -0.2311  0.1805  0.5684
 4615TIP3   OH235335   1.200   5.520  14.130 -0.6341  0.3535 -0.0946
 4615TIP3    H135336   1.145   5.462  14.184 -0.9519 -0.3940 -1.1748
 4615TIP3    H235337   1.173   5.500  14.040  3.3296 -2.1664 -0.9575
 4616TIP3   OH235338   0.840   1.329  14.870 -0.0639 -0.2000  0.0846
 4616TIP3    H135339   0.807   1.319  14.960 -0.3731  3.0884  0.4638
 4616TIP3    H235340   0.935   1.340  14.881 -0.2411  1.4544  0.2055
 4617TIP3   OH235341   0.353   2.517  15.710 -0.2130 -0.1549  0.0055
 4617TIP3    H135342   0.316   2.598  15.676  0.0353 -0.1213 -0.1899
 4617TIP3    H235343   0.446   2.522  15.688  0.0410  0.0620  1.0670
 4618TIP3   OH235344   2.220   1.925   2.675  0.2045  0.0628  0.1088
 4618TIP3    H135345   2.221   2.002   2.617 -0.2092  0.5471  0.7356
 4618TIP3    H235346   2.168   1.952   2.751 -1.7678 -1.4765 -0.5701
 4619TIP3   OH235347   1.404   2.803   4.568  0.1947  0.2771  0.1225
 4619TIP3    H135348   1.323   2.776   4.613  0.7706  1.4443  1.9940
 4619TIP3    H235349   1.376   2.822   4.479 -1.2915 -0.8427  0.2994
 4620TIP3   OH235350   1.437   0.892  11.841  0.3963  0.1953 -0.6120
 4620TIP3    H135351   1.367   0.894  11.907  1.1349  1.9515  0.1653
 4620TIP3    H235352   1.403   0.941  11.767 -0.0097 -0.8476 -1.1439
 4621TIP3   OH235353   3.492   0.913   5.789  0.4271 -0.0766  0.4191
 4621TIP3    H135354   3.569   0.941   5.741  0.4622 -0.2226  0.3911
 4621TIP3    H235355   3.526   0.887   5.875  0.2857  0.8107  0.7616
 4622TIP3   OH235356   5.670   2.314   2.149 -0.0843  0.0405 -0.0524
 4622TIP3    H135357   5.761   2.286   2.137 -0.3028 -0.0885 -1.5601
 4622TIP3    H235358   5.652   2.298   2.242  0.6870 -2.1807 -0.2273
 4623TIP3   OH235359   0.126   3.959   3.916 -0.1733  0.5341 -0.2758
 4623TIP3    H135360   0.132   3.937   4.009 -0.0041 -0.6457 -0.5506
 4623TIP3    H235361   0.199   4.019   3.901 -0.0434  0.5304  0.2933
 4624TIP3   OH235362   0.207   0.544   0.257  0.4782 -0.5423  0.0410
 4624TIP3    H135363   0.182   0.629   0.220 -1.9922 -0.4015  1.8009
 4624TIP3    H235364   0.247   0.497   0.184  2.1809  2.1729 -0.9525
 4625TIP3   OH235365   2.716   2.238  15.856 -0.2188 -0.2047  0.6592
 4625TIP3    H135366   2.771   2.241  15.934 -0.1907  1.8922  0.6218
 4625TIP3    H235367   2.673   2.324  15.853 -0.2302 -0.2173 -1.6080
 4626TIP3   OH235368   5.975   0.920   4.004 -0.4873 -0.1070  0.3121
 4626TIP3    H135369   5.954   0.833   3.971 -0.8439 -0.0979  0.5141
 4626TIP3    H235370   6.030   0.959   3.936  0.2670 -0.7532  0.5379
 4627TIP3   OH235371   3.284   2.027  14.554  0.2060 -0.1651  0.2190
 4627TIP3    H135372   3.365   2.029  14.503  0.9038  0.7686  1.3314
 4627TIP3    H235373   3.311   2.044  14.644 -1.4265  2.5891  0.3179
 4628TIP3   OH235374   2.169   4.378  17.017  0.2574  0.2489 -0.4372
 4628TIP3    H135375   2.257   4.367  16.981 -0.2911 -2.8942 -1.1188
 4628TIP3    H235376   2.113   4.389  16.940 -0.2137 -0.3728 -0.1964
 4629TIP3   OH235377   4.996   0.267  15.719 -0.4786  0.2058 -0.0937
 4629TIP3    H135378   4.918   0.257  15.666  0.0395 -0.6286 -0.7162
 4629TIP3    H235379   5.051   0.329  15.671 -0.1503 -0.2994 -0.3796
 4630TIP3   OH235380   0.760   1.600   4.794  0.4329 -0.1559 -0.5156
 4630TIP3    H135381   0.740   1.693   4.800  0.7936 -0.0976 -0.1160
 4630TIP3    H235382   0.683   1.556   4.830  1.5135  0.1175  2.4329
 4631TIP3   OH235383   3.585   0.396   1.258  0.3730 -0.2816  0.2289
 4631TIP3    H135384   3.617   0.430   1.342 -1.3171  2.0856  0.0360
 4631TIP3    H235385   3.490   0.406   1.263  0.2008 -0.5817 -1.7579
 4632TIP3   OH235386   1.240   5.210   4.003 -0.1794  0.7449 -0.4647
 4632TIP3    H135387   1.145   5.224   4.012 -0.1660  0.9358 -0.6063
 4632TIP3    H235388   1.261   5.244   3.916 -0.0509  0.3078 -0.6052
 4633TIP3   OH235389   5.216   1.222  10.601 -0.1374 -0.4674 -0.2882
 4633TIP3    H135390   5.132   1.179  10.589 -1.1889  0.7276  2.0624
 4633TIP3    H235391   5.279   1.151  10.610 -0.8191 -1.3763 -2.2597
 4634TIP3   OH235392   2.916   1.017   5.411  0.0386 -0.2395 -0.3888
 4634TIP3    H135393   2.903   1.002   5.505  1.2175 -1.4838 -0.3862
 4634TIP3    H235394   2.868   1.097   5.392 -0.9682 -0.4519  1.0979
 4635TIP3   OH235395   5.850   4.298  16.525  0.1268  0.0727 -0.2816
 4635TIP3    H135396   5.887   4.321  16.440  0.4372  0.0121 -0.1669
 4635TIP3    H235397   5.767   4.344  16.529  0.2996  0.4011 -0.4499
 4636TIP3   OH235398   6.154   3.188  14.661  0.9682  0.1499  0.1671
 4636TIP3    H135399   6.090   3.245  14.618  0.7148  0.5311  1.0379
 4636TIP3    H235400   6.124   3.099  14.640  1.3575  0.3139 -1.1834
 4637TIP3   OH235401   2.559   1.106  16.639 -0.1914 -0.2460  0.3579
 4637TIP3    H135402   2.507   1.161  16.697  0.5590  0.6426  0.2083
 4637TIP3    H235403   2.535   1.135  16.551  2.5292  2.1521  0.2862
 4638TIP3   OH235404   2.828   0.566   5.455  0.1770 -0.4647 -0.8193
 4638TIP3    H135405   2.855   0.598   5.541 -0.9408 -0.9316 -0.2685
 4638TIP3    H235406   2.771   0.635   5.421 -0.5250 -0.9099 -0.5583
 4639TIP3   OH235407   5.727   1.215   6.704  0.6070 -0.3071  0.0805
 4639TIP3    H135408   5.716   1.191   6.612 -0.1796  0.3774 -0.0139
 4639TIP3    H235409   5.674   1.152   6.752  1.6017 -1.1302  0.1423
 4640TIP3   OH235410   4.537   1.030   5.316  0.2426 -0.3773 -0.2014
 4640TIP3    H135411   4.495   1.016   5.231 -0.9920 -0.4761  0.4120
 4640TIP3    H235412   4.590   1.109   5.304 -0.4199 -0.0317 -0.8824
 4641TIP3   OH235413   0.926   5.605  16.542  0.2684  0.2265 -0.2849
 4641TIP3    H135414   0.929   5.688  16.588 -2.0182 -0.4577  1.2745
 4641TIP3    H235415   0.869   5.621  16.466 -0.1549  0.0979  0.0040
 4642TIP3   OH235416   5.718   5.951   2.484 -0.0522 -0.1443  0.0648
 4642TIP3    H135417   5.786   5.891   2.454  0.1657  0.4507 -0.6630
 4642TIP3    H235418   5.744   5.973   2.574  0.5761 -0.1384 -0.1107
 4643TIP3   OH235419   1.939   4.412  13.016  0.0926  0.5159  0.3861
 4643TIP3    H135420   2.014   4.454  13.059 -2.0508  3.8067  1.2381
 4643TIP3    H235421   1.885   4.381  13.089  0.2023 -1.1909 -0.2095
 4644TIP3   OH235422   0.747   4.954   5.646 -0.8959  0.5819  0.2157
 4644TIP3    H135423   0.763   5.047   5.631 -1.8302  1.0550  1.8000
 4644TIP3    H235424   0.654   4.949   5.669 -0.9704 -0.8133 -0.2704
 4645TIP3   OH235425   3.344   2.887   2.456 -0.2535  0.8391  0.4474
 4645TIP3    H135426   3.311   2.977   2.458  1.9101  1.7431  3.1015
 4645TIP3    H235427   3.266   2.832   2.452 -1.6252  2.7732 -1.8066
 4646TIP3   OH235428   0.898   1.747  11.719  0.1510  0.1330  0.5077
 4646TIP3    H135429   0.915   1.702  11.802  2.3402 -2.1035 -0.9940
 4646TIP3    H235430   0.984   1.777  11.690 -0.2483 -0.6548 -1.6996
 4647TIP3   OH235431   6.725   4.516  13.803 -0.3030  0.2435  0.1840
 4647TIP3    H135432   6.786   4.443  13.815 -1.7105 -1.3180 -1.3759
 4647TIP3    H235433   6.756   4.560  13.724 -1.1195 -0.5568 -0.6155
 4648TIP3   OH235434   0.853   0.283   6.011  0.0504  0.2637  0.4132
 4648TIP3    H135435   0.763   0.293   5.980  0.5334 -0.6002 -1.4283
 4648TIP3    H235436   0.858   0.192   6.039  0.5028  0.1456 -0.0478
 4649TIP3   OH235437   2.795   0.041  12.951 -0.5350  0.7524  0.3828
 4649TIP3    H135438   2.775   0.129  12.983 -1.6292  0.5521  0.2837
 4649TIP3    H235439   2.714  -0.008  12.963 -1.1765  0.7451 -2.9958
 4650TIP3   OH235440   6.267   3.192  14.156  0.3498  0.6217 -0.1362
 4650TIP3    H135441   6.282   3.285  14.171 -0.7274  0.8085 -0.1385
 4650TIP3    H235442   6.274   3.182  14.061  1.3109  0.5276 -0.0688
 4651TIP3   OH235443   5.293   5.324   3.265 -0.1428 -0.4588 -0.2770
 4651TIP3    H135444   5.271   5.399   3.321 -0.4132 -0.5338 -0.2819
 4651TIP3    H235445   5.388   5.330   3.254 -0.0133 -0.7477  0.6262
 4652TIP3   OH235446   3.680   3.755  10.720  0.1781  0.4271  0.4405
 4652TIP3    H135447   3.753   3.693  10.728 -1.6358 -1.8140  0.5108
 4652TIP3    H235448   3.602   3.701  10.721 -1.5667  2.7878  0.9086
 4653TIP3   OH235449   3.726   0.772   4.991 -0.1430  0.2502  0.4155
 4653TIP3    H135450   3.725   0.712   5.065 -1.6403 -1.3644 -0.8132
 4653TIP3    H235451   3.676   0.848   5.020  0.4292  0.2377  1.4750
 4654TIP3   OH235452   2.723   0.171  16.283  0.0063 -0.2522  0.0540
 4654TIP3    H135453   2.763   0.098  16.237  0.8441 -0.8344  1.6427
 4654TIP3    H235454   2.761   0.249  16.241  2.2722 -0.7785  1.0094
 4655TIP3   OH235455   3.814   4.251  11.277  0.3528  0.4905 -0.2703
 4655TIP3    H135456   3.840   4.184  11.214  0.5363 -0.3155  0.6363
 4655TIP3    H235457   3.897   4.293  11.302  0.3498  0.4511 -0.1901
 4656TIP3   OH235458   5.420   6.824   4.758  0.5325  0.7475 -0.1108
 4656TIP3    H135459   5.408   6.730   4.744 -3.9791  0.7749  1.8207
 4656TIP3    H235460   5.481   6.850   4.690 -2.9212 -2.5280 -5.2553
 4657TIP3   OH235461   3.812   1.775   0.972  0.1679  0.2544  0.1037
 4657TIP3    H135462   3.759   1.697   0.988 -0.6048  0.8246  0.4151
 4657TIP3    H235463   3.819   1.779   0.876 -0.0782 -0.0086  0.0725
 4658TIP3   OH235464   3.490   3.820   3.989  0.1207 -0.9769 -0.4464
 4658TIP3    H135465   3.490   3.819   3.894  0.1967 -2.0875 -0.4532
 4658TIP3    H235466   3.570   3.773   4.013  0.4916 -0.0661  0.1761
 4659TIP3   OH235467   1.574   1.370  12.581 -0.7448 -0.1823  0.1894
 4659TIP3    H135468   1.480   1.382  12.592 -0.9648 -0.9407 -0.7485
 4659TIP3    H235469   1.585   1.275  12.571  0.3641 -0.3510  2.3574
 4660TIP3   OH235470   1.650   3.178  16.490 -0.2886 -0.0428  0.2453
 4660TIP3    H135471   1.568   3.149  16.450  0.6211 -0.0351 -1.7298
 4660TIP3    H235472   1.664   3.265  16.455  0.7499 -0.1992  0.2545
 4661TIP3   OH235473   3.089   6.782  13.227 -0.3662  0.2766  0.4088
 4661TIP3    H135474   3.055   6.719  13.163  0.7656  0.6330 -0.5900
 4661TIP3    H235475   3.174   6.745  13.253 -1.6717 -0.9780  3.4003
 4662TIP3   OH235476   5.103   4.759   4.556  0.2179 -0.1566  0.1212
 4662TIP3    H135477   5.087   4.667   4.534 -0.6156 -0.0285  0.1425
 4662TIP3    H235478   5.026   4.805   4.523 -0.2088  0.2937  1.6570
 4663TIP3   OH235479   1.640   2.492  11.191  0.0937 -0.0122 -0.6865
 4663TIP3    H135480   1.573   2.556  11.217 -0.4269  0.0834 -2.1633
 4663TIP3    H235481   1.703   2.494  11.262 -1.7629 -0.5480  1.0688
 4664TIP3   OH235482   5.475   6.145   1.626 -0.2333 -0.0826  0.3513
 4664TIP3    H135483   5.433   6.226   1.656 -2.2240 -0.2667 -1.6567
 4664TIP3    H235484   5.520   6.112   1.703 -2.0279  1.2980  2.1151
 4665TIP3   OH235485   5.619   3.452   4.497  0.4688  0.8166  0.8414
 4665TIP3    H135486   5.685   3.455   4.566  1.4032  2.3267 -0.0499
 4665TIP3    H235487   5.627   3.537   4.453  1.8642 -0.9919 -2.8257
 4666TIP3   OH235488   6.376   6.499   1.241 -0.2965  0.0639  0.0141
 4666TIP3    H135489   6.302   6.549   1.208 -2.0154 -2.1776  0.2383
 4666TIP3    H235490   6.346   6.460   1.323  0.2226 -2.7603 -1.0149
 4667TIP3   OH235491   4.590   6.568   3.585  0.3862 -0.3919 -0.2904
 4667TIP3    H135492   4.512   6.518   3.609 -1.9706  2.9497 -0.2119
 4667TIP3    H235493   4.654   6.549   3.654 -0.6323 -2.6076  0.1080
 4668TIP3   OH235494   3.339   2.977  11.272  0.1677 -0.7816 -0.0637
 4668TIP3    H135495   3.416   2.944  11.318  1.7809  0.2628 -1.8755
 4668TIP3    H235496   3.359   2.965  11.179  0.4050  3.8973 -0.8813
 4669TIP3   OH235497   6.622   3.297   3.999 -0.5036  0.3652  0.1093
 4669TIP3    H135498   6.618   3.220   4.056 -0.7360  0.2744 -0.0263
 4669TIP3    H235499   6.666   3.266   3.919 -0.6137  0.3665  0.0472
 4670TIP3   OH235500   5.388   4.551  13.073 -0.6148 -0.2012  0.5262
 4670TIP3    H135501   5.332   4.612  13.025 -0.7725 -1.2110 -0.6117
 4670TIP3    H235502   5.355   4.464  13.050 -0.3848 -0.7419  2.0995
 4671TIP3   OH235503   5.923   1.472  10.944  0.5518 -0.0839  0.0011
 4671TIP3    H135504   5.848   1.527  10.925  0.1592 -0.4042  0.5918
 4671TIP3    H235505   5.900   1.385  10.910  0.5920 -0.2144  0.2961
 4672TIP3   OH235506   6.727   3.552   0.955 -0.6327  0.6778 -0.3687
 4672TIP3    H135507   6.749   3.640   0.926 -0.1358  0.4755 -0.6250
 4672TIP3    H235508   6.692   3.563   1.043  1.0722  0.9708  0.2997
 4673TIP3   OH235509   1.841   5.266   1.180 -0.2166 -0.1576 -0.5657
 4673TIP3    H135510   1.831   5.359   1.157 -0.5395  0.6823  2.5424
 4673TIP3    H235511   1.752   5.234   1.188 -0.1729  0.0710  1.1054
 4674TIP3   OH235512   0.775   5.394   4.098  0.4205 -0.1068  0.3890
 4674TIP3    H135513   0.768   5.361   4.188 -0.9449  1.0355  0.7412
 4674TIP3    H235514   0.738   5.482   4.103  1.5175  0.4535 -1.0468
 4675TIP3   OH235515   3.111   2.593   0.993  0.6223 -0.4253  0.1035
 4675TIP3    H135516   3.109   2.598   0.897  2.5577 -0.3222  0.0257
 4675TIP3    H235517   3.125   2.683   1.022  0.6701 -0.5435  0.4526
 4676TIP3   OH235518   0.030   2.561  11.374  0.4290  0.2853 -0.4593
 4676TIP3    H135519  -0.039   2.602  11.320 -0.5206  1.5184  1.5437
 4676TIP3    H235520   0.112   2.594  11.336 -0.2437  2.2532 -0.3598
 4677TIP3   OH235521   3.483   4.961   3.892 -0.2731  0.0599 -0.1428
 4677TIP3    H135522   3.560   5.011   3.864  0.4688 -0.1059  1.4755
 4677TIP3    H235523   3.506   4.870   3.873 -0.3898  0.0760 -0.3629
 4678TIP3   OH235524   3.595   1.936   1.861  0.1129 -0.1884 -0.3908
 4678TIP3    H135525   3.621   1.913   1.772  0.6254  1.6468 -0.7640
 4678TIP3    H235526   3.562   2.025   1.854  1.6156  0.5977  1.4921
 4679TIP3   OH235527   4.626   0.784  15.826  0.7806 -0.1742  0.2849
 4679TIP3    H135528   4.553   0.755  15.771  0.9088 -1.1514  0.6095
 4679TIP3    H235529   4.700   0.788  15.765  0.5073  0.6832 -0.0159
 4680TIP3   OH235530   3.151   3.627  11.734 -0.2351 -0.5003 -0.2356
 4680TIP3    H135531   3.222   3.571  11.702 -1.3772 -1.4717 -1.2007
 4680TIP3    H235532   3.109   3.660  11.654 -1.4497 -0.7212  0.2880
 4681TIP3   OH235533   1.018   5.351  11.667  0.5996  0.1762  0.0251
 4681TIP3    H135534   1.002   5.426  11.610  0.4413 -0.0007 -0.1617
 4681TIP3    H235535   0.940   5.296  11.658  0.1883  0.5525  1.0533
 4682TIP3   OH235536   0.475   3.279   3.813  0.1656 -0.0205  0.1535
 4682TIP3    H135537   0.474   3.361   3.861  0.9352 -0.9617  1.8671
 4682TIP3    H235538   0.535   3.223   3.862 -0.3433 -1.6150 -0.9564
 4683TIP3   OH235539   0.481   1.803  14.061  0.6051 -0.1176 -0.1076
 4683TIP3    H135540   0.514   1.871  14.120 -0.7525  0.2446  0.2604
 4683TIP3    H235541   0.498   1.837  13.973 -1.5561  1.5458  0.0235
 4684TIP3   OH235542   1.756   3.300  15.646  0.0289  0.0914  0.7200
 4684TIP3    H135543   1.707   3.246  15.583  0.6691 -0.1975  0.4531
 4684TIP3    H235544   1.706   3.381  15.652 -1.0193 -0.5595  1.2056
 4685TIP3   OH235545   4.623   5.952   2.875 -0.0406  0.0801 -0.0630
 4685TIP3    H135546   4.659   6.003   2.948  0.4520 -0.4028  0.0412
 4685TIP3    H235547   4.649   6.000   2.797  0.5322 -0.0705  0.0291
 4686TIP3   OH235548   0.686   1.664   0.450 -1.1051 -0.0459  0.2373
 4686TIP3    H135549   0.680   1.618   0.367  2.0504 -0.0327 -0.1436
 4686TIP3    H235550   0.638   1.746   0.437  0.0985  0.3826 -1.9601
 4687TIP3   OH235551   0.408   6.124   0.765  0.3116 -0.1380  0.7272
 4687TIP3    H135552   0.366   6.194   0.714 -0.3948  0.3053  1.8725
 4687TIP3    H235553   0.385   6.044   0.719  1.3815  0.3768 -0.7842
 4688TIP3   OH235554   6.046   5.572   4.595  0.0933 -0.6559 -0.5543
 4688TIP3    H135555   6.025   5.560   4.503 -1.1298 -2.7655 -0.0568
 4688TIP3    H235556   6.043   5.484   4.632  1.6587  0.0055  1.2985
 4689TIP3   OH235557   0.018   0.527   0.753  0.1882  0.1439  0.6261
 4689TIP3    H135558  -0.016   0.447   0.793  2.1047 -2.2723 -2.1672
 4689TIP3    H235559  -0.050   0.553   0.690  0.0839  0.0085  0.6824
 4690TIP3   OH235560   2.367   0.412   3.008 -0.0472 -0.2843 -0.5225
 4690TIP3    H135561   2.373   0.318   2.991  0.5431 -0.4870  0.6863
 4690TIP3    H235562   2.394   0.453   2.926 -1.2559 -1.1402 -1.3891
 4691TIP3   OH235563   1.073   0.008   0.179 -0.4936 -0.3321 -0.3482
 4691TIP3    H135564   1.129  -0.063   0.148  0.2569 -0.0224  0.2766
 4691TIP3    H235565   1.021  -0.031   0.249  1.7580  0.3090  1.8351
 4692TIP3   OH235566   2.396   2.243  12.585 -0.0356  0.5023  0.2046
 4692TIP3    H135567   2.341   2.174  12.548  0.9292  0.0086 -0.3265
 4692TIP3    H235568   2.356   2.262  12.670 -0.9515  0.0674 -0.1133
 4693TIP3   OH235569   6.684   2.302   5.228  0.2049 -0.3663 -0.4926
 4693TIP3    H135570   6.741   2.309   5.305  0.4489  0.0526 -0.7128
 4693TIP3    H235571   6.600   2.272   5.264 -0.2350  1.5837  0.2036
 4694TIP3   OH235572   4.137   1.526   2.407  0.5212 -0.1046  0.0011
 4694TIP3    H135573   4.120   1.598   2.346 -0.6015 -0.0236  0.3827
 4694TIP3    H235574   4.212   1.481   2.370  1.0052  1.0326 -0.4552
 4695TIP3   OH235575   4.289   3.691  15.788 -0.0916  0.0614 -0.3497
 4695TIP3    H135576   4.231   3.693  15.712 -1.0359 -1.1343  0.2915
 4695TIP3    H235577   4.338   3.609  15.779  1.9081  1.2927 -1.1375
 4696TIP3   OH235578   6.727   0.059  14.792  0.1107  0.3327 -0.1939
 4696TIP3    H135579   6.634   0.044  14.809  0.7134 -3.4944  0.8326
 4696TIP3    H235580   6.737   0.039  14.699 -0.0209  0.1635 -0.1731
 4697TIP3   OH235581   0.134   6.711   5.040  0.4164  0.3285 -0.1161
 4697TIP3    H135582   0.222   6.705   5.076  0.0633 -2.0944  0.4994
 4697TIP3    H235583   0.144   6.689   4.947  0.3062 -1.7846  0.3147
 4698TIP3   OH235584   2.437   5.842  12.357  0.2229  0.0909  0.5068
 4698TIP3    H135585   2.350   5.816  12.387 -0.6998  0.3308 -1.7394
 4698TIP3    H235586   2.432   5.937  12.345  0.2170 -0.0931 -1.2124
 4699TIP3   OH235587   5.907   6.334  13.605  0.1543 -0.2046 -0.2021
 4699TIP3    H135588   5.836   6.367  13.659  1.2210 -1.0918  1.8662
 4699TIP3    H235589   5.865   6.274  13.543 -0.8497 -1.5079  1.6467
 4700TIP3   OH235590   5.952   5.021   0.258 -0.7681 -0.6972  0.1452
 4700TIP3    H135591   5.874   4.971   0.282 -0.8565  0.1243  1.7063
 4700TIP3    H235592   6.012   5.009   0.332 -0.3188  0.4856 -0.0037
 4701TIP3   OH235593   2.735   2.759   5.345  0.1672 -0.1458 -0.0334
 4701TIP3    H135594   2.680   2.683   5.365 -0.4503  0.4708  0.6795
 4701TIP3    H235595   2.706   2.787   5.258  0.3645 -0.6966 -0.2783
 4702TIP3   OH235596   6.626   2.993   5.576  0.4631 -0.0445 -0.1379
 4702TIP3    H135597   6.706   2.998   5.629  1.2115  1.7466 -1.3458
 4702TIP3    H235598   6.581   3.076   5.592 -0.7633 -0.6980 -0.1030
 4703TIP3   OH235599   4.822   6.390   3.560  0.1731  0.3249  0.8266
 4703TIP3    H135600   4.758   6.343   3.612  0.3684 -0.1891  0.6084
 4703TIP3    H235601   4.790   6.384   3.470  0.8402 -0.4680  0.6316
 4704TIP3   OH235602   2.682   6.792   3.392  0.1105  0.5352  0.2868
 4704TIP3    H135603   2.724   6.869   3.431 -1.0447  1.3241  0.0077
 4704TIP3    H235604   2.600   6.782   3.441 -0.4489  0.3937 -0.6634
 4705TIP3   OH235605   5.901   3.324  16.464  0.5716  0.1008 -0.5587
 4705TIP3    H135606   5.918   3.260  16.395  1.2474 -0.0282 -0.2819
 4705TIP3    H235607   5.806   3.335  16.464  0.5790  0.2729 -1.6555
 4706TIP3   OH235608   4.324   4.794  14.839  0.0362  0.3389 -0.8491
 4706TIP3    H135609   4.286   4.883  14.842 -1.1045 -0.1458  1.5162
 4706TIP3    H235610   4.255   4.738  14.875  1.5690 -1.1926 -0.1963
 4707TIP3   OH235611   3.433   3.987  13.224  0.0577 -0.1438  0.8651
 4707TIP3    H135612   3.483   3.951  13.151 -1.0431 -0.2043  0.1296
 4707TIP3    H235613   3.409   4.075  13.196 -3.0498 -1.2088 -0.2569
 4708TIP3   OH235614   3.704   4.531   2.406  0.7297 -0.3697 -0.4483
 4708TIP3    H135615   3.750   4.493   2.480  0.2748  0.1800  0.1362
 4708TIP3    H235616   3.769   4.585   2.361  0.4429  1.2922  1.0055
 4709TIP3   OH235617   5.254   4.399  12.373 -1.1174 -0.1682 -0.3033
 4709TIP3    H135618   5.279   4.470  12.315 -1.3669 -0.7081 -1.0890
 4709TIP3    H235619   5.252   4.438  12.460  0.8409  0.2895 -0.4132
 4710TIP3   OH235620   3.481   1.661   1.153  0.0210  0.4380  0.0896
 4710TIP3    H135621   3.525   1.745   1.143 -0.5994  0.8426  0.7063
 4710TIP3    H235622   3.426   1.654   1.075  0.2974  0.4650 -0.1087
 4711TIP3   OH235623   3.035   6.698   4.303  0.4381 -0.4855 -0.7322
 4711TIP3    H135624   3.029   6.611   4.342 -0.1094 -0.0822  0.0995
 4711TIP3    H235625   3.069   6.682   4.215 -1.0412 -1.6775 -1.1215
 4712TIP3   OH235626   6.039   2.493   4.270  0.3571  0.0495  0.2848
 4712TIP3    H135627   6.123   2.452   4.289 -0.6665 -2.5915 -0.4847
 4712TIP3    H235628   6.001   2.439   4.201 -1.2636  2.1769 -0.6111
 4713TIP3   OH235629   2.567   4.015  13.260  0.1882 -0.1090 -0.7664
 4713TIP3    H135630   2.597   4.041  13.173  0.6048  1.3339 -0.2238
 4713TIP3    H235631   2.530   4.095  13.298  1.5174 -0.2550  0.9821
 4714TIP3   OH235632   5.451   0.839  14.328 -0.4248  0.3657 -0.4260
 4714TIP3    H135633   5.478   0.778  14.260  0.4479 -0.4286  0.5851
 4714TIP3    H235634   5.428   0.919  14.282  2.8785  0.8546 -1.4978
 4715TIP3   OH235635   5.484   4.552   4.817 -0.3949  0.0661 -0.6118
 4715TIP3    H135636   5.406   4.588   4.859  1.0259  1.4205  0.9648
 4715TIP3    H235637   5.543   4.626   4.807  0.6344 -0.8867 -2.0174
 4716TIP3   OH235638   3.469   3.764   2.768 -0.6012 -0.0559  0.2854
 4716TIP3    H135639   3.402   3.732   2.828 -1.0141 -0.1197 -0.1940
 4716TIP3    H235640   3.430   3.751   2.681 -0.2150  0.4745  0.0278
 4717TIP3   OH235641   2.887   1.253   5.914  0.4050  0.3202 -0.3781
 4717TIP3    H135642   2.932   1.310   5.852 -2.3178  1.3001 -1.5945
 4717TIP3    H235643   2.945   1.250   5.991  1.2365  3.7535 -0.7391
 4718TIP3   OH235644   1.779   4.682  13.248  0.1041  0.3713  0.1116
 4718TIP3    H135645   1.700   4.635  13.276  0.3105 -0.3024 -0.4230
 4718TIP3    H235646   1.753   4.725  13.166  0.5130 -0.5309 -0.5165
 4719TIP3   OH235647   4.699   5.042  16.222 -0.5312 -0.3891 -0.0680
 4719TIP3    H135648   4.682   5.059  16.314 -2.6155 -2.4238  0.0286
 4719TIP3    H235649   4.684   5.125  16.178  2.0127  1.0363  1.4846
 4720TIP3   OH235650   5.156   4.753  16.173 -0.4701 -0.1926  0.7538
 4720TIP3    H135651   5.209   4.799  16.108 -0.5791 -0.8283  0.2076
 4720TIP3    H235652   5.219   4.709  16.230 -0.3490  0.9450  1.5307
 4721TIP3   OH235653   5.106   0.852  15.608 -0.4318  0.4275 -0.4263
 4721TIP3    H135654   5.122   0.935  15.562  0.4791 -1.4239 -3.8069
 4721TIP3    H235655   5.021   0.822  15.576  0.7293 -1.4532 -2.0245
 4722TIP3   OH235656   0.637   4.259   1.697 -0.1729 -0.4413  0.6074
 4722TIP3    H135657   0.665   4.351   1.692 -2.3320  0.2335 -0.4174
 4722TIP3    H235658   0.688   4.215   1.629  0.5084  0.1090  0.7516
 4723TIP3   OH235659   5.840   5.260   0.483  0.6050 -0.0299  0.0982
 4723TIP3    H135660   5.831   5.205   0.560  1.8381 -1.3930 -0.6919
 4723TIP3    H235661   5.757   5.249   0.436 -1.2679  2.7939  2.3443
 4724TIP3   OH235662   3.562   5.574  12.254  0.1337  0.3586 -0.1505
 4724TIP3    H135663   3.521   5.658  12.233  0.9045  0.9452  0.6052
 4724TIP3    H235664   3.524   5.512  12.192 -0.8143  1.1652 -0.3974
 4725TIP3   OH235665   3.676   1.053  13.349 -0.0354  0.0949  0.6468
 4725TIP3    H135666   3.584   1.049  13.376 -0.0803  0.9791  0.6495
 4725TIP3    H235667   3.722   1.087  13.425 -0.1340  2.4353 -0.2522
 4726TIP3   OH235668   2.084   1.998   2.389  0.1092  0.8506  0.2568
 4726TIP3    H135669   2.060   2.033   2.303 -0.7875  0.2776  0.2513
 4726TIP3    H235670   2.159   2.050   2.417  1.2508  0.2016 -1.4394
 4727TIP3   OH235671   0.686   4.298  14.666  0.0204  0.5189  0.3465
 4727TIP3    H135672   0.705   4.250  14.746 -0.1513  0.3146  0.2656
 4727TIP3    H235673   0.760   4.357  14.655  0.2384  0.2629  0.4384
 4728TIP3   OH235674   0.462   4.641  11.518  0.5137 -0.2296  0.2257
 4728TIP3    H135675   0.442   4.547  11.524 -1.0208 -0.1298 -2.3042
 4728TIP3    H235676   0.405   4.681  11.584  2.9601 -1.1512  3.1656
 4729TIP3   OH235677   0.753   3.310  10.784 -0.1067  0.2680 -0.2115
 4729TIP3    H135678   0.691   3.245  10.818  0.0008  0.6221  0.6875
 4729TIP3    H235679   0.708   3.349  10.709 -1.6390  1.5615  1.2843
 4730TIP3   OH235680   1.672   1.779  13.500  0.2147  0.3335 -0.1150
 4730TIP3    H135681   1.754   1.809  13.539  0.4416 -1.6265  0.9962
 4730TIP3    H235682   1.699   1.723  13.428 -0.1936  0.9995 -0.8047
 4731TIP3   OH235683   0.609   4.124  15.121  0.2940 -0.1505 -0.2292
 4731TIP3    H135684   0.549   4.051  15.138 -1.2742  1.2150  0.3286
 4731TIP3    H235685   0.636   4.152  15.209 -0.8130  1.2599 -0.2992
 4732TIP3   OH235686   0.452   4.911  11.029  0.3872 -0.3436  0.0719
 4732TIP3    H135687   0.431   4.877  11.115 -0.0799  1.0910  0.5548
 4732TIP3    H235688   0.373   4.896  10.977  0.5539 -0.9136 -0.0248
 4733TIP3   OH235689   0.920   3.209  12.403  0.3058 -0.0484  0.4257
 4733TIP3    H135690   0.891   3.299  12.388  2.2952  1.3079  3.6197
 4733TIP3    H235691   0.995   3.198  12.344  0.4653  0.6459  0.4881
 4734TIP3   OH235692   1.718   6.255   0.360  0.1198 -0.1105 -0.5196
 4734TIP3    H135693   1.694   6.347   0.372 -2.3243 -0.9439  2.3428
 4734TIP3    H235694   1.733   6.223   0.449 -2.1560 -3.1462 -1.0839
 4735TIP3   OH235695   0.152   3.328  14.608 -0.3846  0.3553 -0.3421
 4735TIP3    H135696   0.240   3.290  14.603 -0.7695 -0.8001  0.9935
 4735TIP3    H235697   0.111   3.303  14.525  0.4038  0.5298 -0.7904
 4736TIP3   OH235698   5.100   6.802  16.497 -0.1119  0.2890  0.1863
 4736TIP3    H135699   5.116   6.708  16.507  1.3656  0.7081  2.1690
 4736TIP3    H235700   5.061   6.829  16.580  0.0881  1.5646 -0.1125
 4737TIP3   OH235701   1.199   6.726  11.374 -0.2527 -0.3236 -0.1252
 4737TIP3    H135702   1.255   6.675  11.315  0.1599  0.8285 -0.7613
 4737TIP3    H235703   1.250   6.805  11.393 -1.8805  1.0226 -1.1532
 4738TIP3   OH235704   2.084   1.797   5.325 -0.1742 -0.2828 -0.2123
 4738TIP3    H135705   2.061   1.704   5.335 -0.4384 -0.4726 -2.1180
 4738TIP3    H235706   2.001   1.843   5.332 -0.1336 -0.2607  0.1066
 4739TIP3   OH235707   4.271   2.024   4.308  0.1459 -0.2057 -0.5083
 4739TIP3    H135708   4.231   2.059   4.388 -0.5325 -0.6219 -0.6604
 4739TIP3    H235709   4.342   1.968   4.339 -0.6129 -0.9970 -0.1517
 4740TIP3   OH235710   2.050   5.225  14.361  0.3318  0.1180  0.3283
 4740TIP3    H135711   2.020   5.305  14.319 -0.9059 -1.5270 -2.1143
 4740TIP3    H235712   2.055   5.248  14.454 -0.1930  2.9188 -0.2352
 4741TIP3   OH235713   0.297   3.046  10.725  0.5045 -0.1483 -0.1904
 4741TIP3    H135714   0.264   3.088  10.645  1.5555 -0.5921 -0.8845
 4741TIP3    H235715   0.221   3.002  10.762  0.0890 -0.3033 -1.1899
 4742TIP3   OH235716   3.676   4.183   2.640 -0.0974 -0.4492 -0.4177
 4742TIP3    H135717   3.694   4.193   2.733 -1.4202 -0.4615 -0.1358
 4742TIP3    H235718   3.585   4.212   2.630  0.4738  0.9771 -1.9604
 4743TIP3   OH235719   5.321   5.646  11.430 -0.2341 -0.7065 -0.3484
 4743TIP3    H135720   5.330   5.610  11.518 -0.7045 -0.7567 -0.3155
 4743TIP3    H235721   5.364   5.582  11.373  1.2219 -0.0324 -0.0292
 4744TIP3   OH235722   6.349   3.327  15.991 -0.4317  0.3336 -0.7996
 4744TIP3    H135723   6.271   3.284  15.956  1.1372 -1.6306 -2.1694
 4744TIP3    H235724   6.416   3.312  15.924  1.8077 -0.4292  1.4641
 4745TIP3   OH235725   6.343   1.261   1.847 -0.4168  0.1869 -0.3663
 4745TIP3    H135726   6.331   1.278   1.941  0.6500  0.5769 -0.2880
 4745TIP3    H235727   6.377   1.343   1.812 -0.4677 -0.0733 -1.0284
 4746TIP3   OH235728   2.666   6.021  17.066  0.5602 -0.1060  0.3761
 4746TIP3    H135729   2.718   6.059  17.137 -0.3260  1.8154  0.0589
 4746TIP3    H235730   2.646   5.932  17.096 -0.4535  0.9024  2.9160
 4747TIP3   OH235731   2.430   0.340   4.843  0.6018 -0.2367  0.1137
 4747TIP3    H135732   2.358   0.352   4.905  2.2030 -1.2205  2.2855
 4747TIP3    H235733   2.393   0.285   4.774 -1.8379  2.6241 -1.0691
 4748TIP3   OH235734   1.642   3.509  14.526 -0.6912 -0.0434  0.0413
 4748TIP3    H135735   1.714   3.572  14.521 -2.3598  1.8818 -1.7281
 4748TIP3    H235736   1.630   3.494  14.620  1.1608  0.5527  0.4206
 4749TIP3   OH235737   1.240   4.890   4.740 -0.3245  0.3616  0.0944
 4749TIP3    H135738   1.245   4.873   4.834  0.4115  0.7626  0.1398
 4749TIP3    H235739   1.238   4.803   4.700 -1.0432  0.1891  0.4957
 4750TIP3   OH235740   3.862   1.558   1.592 -0.1471 -0.6483  0.2226
 4750TIP3    H135741   3.862   1.463   1.592  2.9467 -0.7926 -1.6338
 4750TIP3    H235742   3.953   1.583   1.610 -0.7694  1.9494  0.2647
 4751TIP3   OH235743   0.130   1.463  11.127  0.4156  0.0272  0.1305
 4751TIP3    H135744   0.181   1.543  11.134  0.3940  0.0178  0.4016
 4751TIP3    H235745   0.195   1.394  11.113  0.4267  0.1045 -0.2105
 4752TIP3   OH235746   4.743   3.734   3.360 -0.2145 -0.1950  0.4607
 4752TIP3    H135747   4.829   3.775   3.360 -0.3258  0.0600 -0.1807
 4752TIP3    H235748   4.753   3.655   3.413  0.1590  0.3406  1.2000
 4753TIP3   OH235749   5.430   3.567  12.185 -0.1331 -0.2744 -0.1881
 4753TIP3    H135750   5.342   3.605  12.194  0.7715  1.4178  2.4425
 4753TIP3    H235751   5.435   3.501  12.253  0.7934 -0.0371 -0.0177
 4754TIP3   OH235752   3.165   3.411  12.871  0.5898 -0.1249 -0.2207
 4754TIP3    H135753   3.225   3.467  12.920 -0.5507  0.1947  0.8530
 4754TIP3    H235754   3.099   3.472  12.836 -0.6626 -0.7631  0.9552
 4755TIP3   OH235755   2.448   2.324  10.524  0.4091 -0.2291 -0.0679
 4755TIP3    H135756   2.531   2.279  10.541  0.3098 -0.0772  0.8796
 4755TIP3    H235757   2.467   2.381  10.449  1.1976 -0.0915  0.2254
 4756TIP3   OH235758   5.627   2.680   5.232  0.0994 -0.1688  0.3472
 4756TIP3    H135759   5.551   2.676   5.289 -0.6663 -1.1803 -0.7009
 4756TIP3    H235760   5.621   2.764   5.188  0.0426  0.0987  0.8604
 4757TIP3   OH235761   0.305   0.483  15.029  0.0833 -0.0750  0.0288
 4757TIP3    H135762   0.264   0.407  15.071  0.9963  0.1450  1.3449
 4757TIP3    H235763   0.253   0.558  15.058  0.4678  0.0310  0.4577
 4758TIP3   OH235764   3.653   0.998   3.377  0.4753 -0.2955  0.1033
 4758TIP3    H135765   3.736   1.044   3.363 -0.8995  1.9286 -1.5023
 4758TIP3    H235766   3.620   0.982   3.288 -0.6568 -1.4841  0.7047
 4759TIP3   OH235767   2.105   0.096  15.237 -0.0596  0.0114 -0.3023
 4759TIP3    H135768   2.194   0.112  15.205  0.2190  0.3314  0.5991
 4759TIP3    H235769   2.077   0.180  15.272  0.0799 -0.5659  1.2988
 4760TIP3   OH235770   2.252   1.825   2.134  0.4353 -0.2803 -0.6075
 4760TIP3    H135771   2.225   1.826   2.043 -0.4174  0.3794 -0.3583
 4760TIP3    H235772   2.176   1.792   2.182  0.8198 -0.4785 -0.1197
 4761TIP3   OH235773   6.578   6.392  17.010  0.7089 -0.0310 -0.0976
 4761TIP3    H135774   6.530   6.473  17.025 -1.7060 -1.7143  2.3053
 4761TIP3    H235775   6.530   6.349  16.939  1.2247  0.1088 -0.5308
 4762TIP3   OH235776   3.887   0.835  11.059  0.6304  0.4028 -0.4006
 4762TIP3    H135777   3.904   0.808  11.150  0.9453 -0.1005 -0.6028
 4762TIP3    H235778   3.931   0.768  11.006 -1.6727 -0.7675 -0.9748
 4763TIP3   OH235779   3.982   0.889   5.142 -0.2879 -0.4586 -0.1011
 4763TIP3    H135780   4.008   0.833   5.069 -0.1583  1.1183 -1.3332
 4763TIP3    H235781   3.913   0.945   5.105  0.5204  1.0880  0.6428
 4764TIP3   OH235782   5.646   3.796   4.634  0.5126  0.2896 -0.5656
 4764TIP3    H135783   5.667   3.789   4.541  0.0563  2.1903 -0.8558
 4764TIP3    H235784   5.634   3.890   4.649 -0.7010 -0.0913  1.1415
 4765TIP3   OH235785   5.087   0.552  10.346  0.3441 -0.1439 -0.4268
 4765TIP3    H135786   5.107   0.617  10.414 -1.2476 -0.1640  0.0995
 4765TIP3    H235787   5.040   0.601  10.279  0.1826 -0.5172 -0.5882
 4766TIP3   OH235788   4.679   4.948  12.406  0.4553 -0.0214 -0.1158
 4766TIP3    H135789   4.765   4.911  12.426  0.9046  1.6278  1.2116
 4766TIP3    H235790   4.617   4.895  12.456  0.6430 -1.2153 -1.0734
 4767TIP3   OH235791   6.506   1.405   2.369  0.2893  0.2567  0.2654
 4767TIP3    H135792   6.599   1.383   2.371  0.9831  2.5909 -1.6163
 4767TIP3    H235793   6.500   1.491   2.410 -1.1911 -0.1318  0.9572
 4768TIP3   OH235794   3.577   0.535   1.732  0.0082 -0.5299  0.2323
 4768TIP3    H135795   3.588   0.590   1.810 -0.4335 -0.6159  0.3626
 4768TIP3    H235796   3.544   0.452   1.766 -0.6155 -0.4186 -0.0823
 4769TIP3   OH235797   6.154   3.435  10.755 -0.0839 -0.6377  0.1099
 4769TIP3    H135798   6.090   3.366  10.738 -2.0164 -0.0249  3.8780
 4769TIP3    H235799   6.236   3.389  10.770 -0.9015 -1.9534  0.6808
 4770TIP3   OH235800   6.140   5.924   1.027 -0.1268 -0.0857  0.5025
 4770TIP3    H135801   6.228   5.957   1.011 -0.8391  2.5332  1.5415
 4770TIP3    H235802   6.104   5.910   0.939  0.8788  0.0201  0.0493
 4771TIP3   OH235803   5.827   0.570   4.451 -0.4148  0.5260  0.1274
 4771TIP3    H135804   5.742   0.590   4.413  0.6118  0.1237 -2.5866
 4771TIP3    H235805   5.891   0.606   4.389  1.4320  0.6925  1.9953
 4772TIP3   OH235806   1.119   5.128  12.260  0.1105 -0.0905  0.8154
 4772TIP3    H135807   1.119   5.080  12.343  0.8375  1.1527  1.5686
 4772TIP3    H235808   1.205   5.109  12.222 -0.0724 -0.3492  0.5317
 4773TIP3   OH235809   2.243   3.169  11.404  0.0817  0.6143 -0.2144
 4773TIP3    H135810   2.309   3.125  11.351 -0.5469  0.3039 -0.7584
 4773TIP3    H235811   2.218   3.246  11.353 -1.0129 -0.0451 -0.7186
 4774TIP3   OH235812   5.531   2.823  14.681  0.4293 -0.0379  0.6538
 4774TIP3    H135813   5.584   2.879  14.738  0.0114  1.0480  0.0060
 4774TIP3    H235814   5.521   2.873  14.600 -0.0761 -1.0026  0.0956
 4775TIP3   OH235815   0.275   3.311   5.509  0.0110  0.0257 -0.4247
 4775TIP3    H135816   0.291   3.282   5.599  0.8717  0.7975 -0.3046
 4775TIP3    H235817   0.268   3.230   5.458 -2.9639 -0.5330  0.6730
 4776TIP3   OH235818   3.436   6.202  16.985 -0.0261  0.0361  0.3499
 4776TIP3    H135819   3.479   6.287  16.983 -0.4405  0.2319 -0.3777
 4776TIP3    H235820   3.448   6.167  16.897  1.6397 -1.4162  1.0856
 4777TIP3   OH235821   3.517   1.623   4.230 -0.1441 -0.6569  0.1031
 4777TIP3    H135822   3.558   1.639   4.145  0.6897 -1.1442  0.3948
 4777TIP3    H235823   3.459   1.698   4.244  1.7515  0.8514  0.3187
 4778TIP3   OH235824   0.374   3.612   3.192 -0.5881 -0.3618 -0.1114
 4778TIP3    H135825   0.335   3.598   3.278  2.6719 -0.4625  1.5179
 4778TIP3    H235826   0.435   3.685   3.205 -0.6456  0.2249 -2.6070
 4779TIP3   OH235827   3.760   1.170   1.308 -0.2669 -0.5513 -0.4093
 4779TIP3    H135828   3.750   1.142   1.399  0.1242  2.5799  0.7135
 4779TIP3    H235829   3.853   1.158   1.289  0.1144  0.8282  0.4280
 4780TIP3   OH235830   1.114   4.013  15.145  0.3562 -0.1435  0.2081
 4780TIP3    H135831   1.114   4.102  15.110 -0.9295 -0.2204 -0.0565
 4780TIP3    H235832   1.157   4.019  15.230  0.0698  0.7727  0.2898
 4781TIP3   OH235833   3.482   4.030   5.476  0.5434 -0.1616 -0.6490
 4781TIP3    H135834   3.505   3.971   5.548  0.5437 -0.0389 -0.5502
 4781TIP3    H235835   3.426   4.096   5.515  2.6929  1.4758 -0.1672
 4782TIP3   OH235836   4.353   4.171   1.765 -0.0526 -0.1303 -1.0345
 4782TIP3    H135837   4.287   4.118   1.809 -0.1395 -0.6245 -1.7281
 4782TIP3    H235838   4.394   4.222   1.834 -0.5431 -0.4934 -0.4687
 4783TIP3   OH235839   1.426   0.022  17.162 -0.8170 -0.1711  0.0281
 4783TIP3    H135840   1.382  -0.059  17.188 -1.8086  0.4370  0.3290
 4783TIP3    H235841   1.354   0.085  17.152  0.0447  1.0214  1.0983
 4784TIP3   OH235842   3.942   3.107  10.726  0.2131 -0.3370 -0.3591
 4784TIP3    H135843   3.889   3.186  10.738 -0.5903 -0.7834 -0.8278
 4784TIP3    H235844   3.922   3.052  10.801 -0.8645 -0.9701 -1.0816
 4785TIP3   OH235845   2.476   2.107   3.555 -0.5967  0.2847 -0.7149
 4785TIP3    H135846   2.557   2.133   3.597 -0.4225 -3.0774  1.3919
 4785TIP3    H235847   2.416   2.180   3.570  1.4230  2.0135 -0.6207
 4786TIP3   OH235848   0.885   3.272   0.724 -0.3458  0.2270 -0.0714
 4786TIP3    H135849   0.840   3.308   0.647  0.6109  1.5151 -0.0627
 4786TIP3    H235850   0.969   3.317   0.725  0.7571 -1.7671  0.1979
 4787TIP3   OH235851   0.753   5.997   4.148 -0.0011  0.1119  0.1291
 4787TIP3    H135852   0.774   6.050   4.225 -1.9417  0.8023  0.2364
 4787TIP3    H235853   0.698   5.926   4.181  1.7431 -1.4450 -0.1747
 4788TIP3   OH235854   5.920   1.442  12.293 -0.2055 -0.0656  0.0367
 4788TIP3    H135855   5.926   1.410  12.203  1.1279 -1.9534  0.7363
 4788TIP3    H235856   5.826   1.450  12.310 -0.5066 -1.1310 -1.0419
 4789TIP3   OH235857   0.432   0.606  12.074 -0.3212 -0.0198  0.0959
 4789TIP3    H135858   0.448   0.639  12.162 -0.4092 -0.6032  0.3347
 4789TIP3    H235859   0.518   0.580  12.042  0.2662  3.0293 -1.2018
 4790TIP3   OH235860   1.632   4.325  14.448 -0.1414 -0.2630  0.0233
 4790TIP3    H135861   1.574   4.263  14.492 -1.1319 -0.9572 -2.1132
 4790TIP3    H235862   1.703   4.270  14.413  0.0313  0.0836 -0.1770
 4791TIP3   OH235863   3.570   3.641   4.399  0.7952  0.0246 -0.0484
 4791TIP3    H135864   3.504   3.608   4.460  2.3356 -0.5268  1.4246
 4791TIP3    H235865   3.631   3.568   4.389 -1.2850 -1.4384 -5.4157
 4792TIP3   OH235866   2.911   3.624   5.979 -0.3754  0.0764 -0.2022
 4792TIP3    H135867   2.859   3.701   5.953  1.5822  1.4897 -0.1455
 4792TIP3    H235868   2.882   3.606   6.068  0.5229  2.0652  0.5562
 4793TIP3   OH235869   2.728   5.763  16.999 -0.3072  0.3041 -0.6090
 4793TIP3    H135870   2.817   5.764  17.033 -0.4943  1.4893 -0.1110
 4793TIP3    H235871   2.713   5.672  16.973  0.2672 -0.4127  1.3938
 4794TIP3   OH235872   1.909   2.233  17.068  0.0635  0.5836  0.7348
 4794TIP3    H135873   1.896   2.328  17.070  0.6444  0.6631  1.2384
 4794TIP3    H235874   1.996   2.220  17.106 -0.2041 -0.1853  1.1122
 4795TIP3   OH235875   5.002   0.178  13.809 -0.2511  0.1424  0.6389
 4795TIP3    H135876   5.079   0.219  13.769 -0.4574  0.3872  0.4863
 4795TIP3    H235877   5.037   0.103  13.857  0.2294  0.9251  1.5479
 4796TIP3   OH235878   1.373   6.565   3.622 -0.0376 -0.3034 -0.1333
 4796TIP3    H135879   1.412   6.485   3.657  0.5224 -0.2953 -0.7173
 4796TIP3    H235880   1.311   6.534   3.557 -1.6563 -0.3524  1.3715
 4797TIP3   OH235881   5.764   5.833  11.376  0.2250 -0.0743 -0.0880
 4797TIP3    H135882   5.714   5.823  11.457  0.5533  0.1053  0.1405
 4797TIP3    H235883   5.707   5.884  11.318 -0.7081 -1.6170 -0.5958
 4798TIP3   OH235884   4.098   5.791   1.232  0.2332 -0.3213  0.0305
 4798TIP3    H135885   4.102   5.703   1.193 -1.5651 -0.4820  0.1241
 4798TIP3    H235886   4.131   5.780   1.321  0.6448 -0.7611 -0.1730
 4799TIP3   OH235887   5.264   5.937  13.724  0.2078 -0.4503 -0.0437
 4799TIP3    H135888   5.188   5.978  13.683 -1.3237 -0.1429  2.9008
 4799TIP3    H235889   5.317   6.010  13.755  1.3617 -0.6814 -1.3578
 4800TIP3   OH235890   6.746   1.210   3.435 -0.2756 -0.3779 -0.1485
 4800TIP3    H135891   6.734   1.203   3.341 -0.4743 -1.4439 -0.0542
 4800TIP3    H235892   6.731   1.121   3.468 -0.2316 -0.0151  0.8858
 4801TIP3   OH235893   1.437   2.451  17.103  0.2757  0.0641  0.0250
 4801TIP3    H135894   1.485   2.491  17.175  0.0484  0.5208 -0.0734
 4801TIP3    H235895   1.497   2.385  17.068 -0.1362 -1.1362  1.5034
 4802TIP3   OH235896   1.973   0.917  11.990 -0.0998 -0.2395  0.8863
 4802TIP3    H135897   2.035   0.989  12.001  0.2805 -0.3949 -0.1498
 4802TIP3    H235898   1.933   0.932  11.904 -1.5017 -0.1520  1.5133
 4803TIP3   OH235899   3.498   6.053   3.205  0.0316 -0.3454  0.4254
 4803TIP3    H135900   3.436   6.016   3.268 -0.6575  1.1061  0.6337
 4803TIP3    H235901   3.502   5.988   3.134 -3.1480  0.2773 -0.4885
 4804TIP3   OH235902   4.795   4.504  12.588 -0.1809  0.0132  0.2566
 4804TIP3    H135903   4.711   4.461  12.597 -0.3026 -0.0428 -1.0123
 4804TIP3    H235904   4.840   4.456  12.518  0.6670  0.4018  0.5220
 4805TIP3   OH235905   0.211   2.839   1.417  0.3192 -0.6045 -0.3896
 4805TIP3    H135906   0.237   2.863   1.506 -0.9977 -1.7631  0.3524
 4805TIP3    H235907   0.292   2.808   1.376  1.2369  1.2927 -0.1128
 4806TIP3   OH235908   6.816   1.475  11.348 -0.3569 -0.2625 -0.5643
 4806TIP3    H135909   6.860   1.483  11.263  0.2178 -0.0235 -0.2547
 4806TIP3    H235910   6.858   1.400  11.389 -0.1016  0.0779 -0.1911
 4807TIP3   OH235911   2.927   1.281   0.008  0.6888  0.4641  0.1371
 4807TIP3    H135912   2.883   1.220   0.067  0.9151 -0.1920 -0.3608
 4807TIP3    H235913   2.859   1.345  -0.015  0.6862  0.9273  1.3535
 4808TIP3   OH235914   3.396   0.892   4.771 -0.1411 -0.1825 -0.4351
 4808TIP3    H135915   3.379   0.901   4.864  2.1152  0.2552  0.0056
 4808TIP3    H235916   3.430   0.803   4.762 -0.1523 -0.1509 -0.7948
 4809TIP3   OH235917   6.457   1.880   4.441 -0.8538  0.0237 -0.3418
 4809TIP3    H135918   6.385   1.943   4.442 -0.4907  0.4828 -1.4701
 4809TIP3    H235919   6.435   1.820   4.371 -0.1356  0.1832 -0.7127
 4810TIP3   OH235920   0.298   3.698  12.825  0.0088 -0.3404 -0.1248
 4810TIP3    H135921   0.360   3.625  12.829  0.6706  0.1220 -1.3601
 4810TIP3    H235922   0.297   3.723  12.733 -1.2039  0.3776  0.0610
 4811TIP3   OH235923   6.203   4.376   5.935 -0.1033 -0.1474 -0.0642
 4811TIP3    H135924   6.273   4.408   5.992  1.3460 -2.1117 -0.6472
 4811TIP3    H235925   6.208   4.433   5.857  0.7555 -0.1797 -0.0387
 4812TIP3   OH235926   1.730   3.763  10.577 -0.4550  0.0819 -0.1804
 4812TIP3    H135927   1.688   3.680  10.554  0.2204 -0.0627 -0.9059
 4812TIP3    H235928   1.701   3.825  10.510 -0.5894  0.3275  0.0970
 4813TIP3   OH235929   2.875   6.239  11.434 -0.5922  0.0293 -0.0146
 4813TIP3    H135930   2.787   6.226  11.470 -0.5082 -0.4215  0.0431
 4813TIP3    H235931   2.879   6.179  11.359 -0.6127  0.6441 -0.5152
 4814TIP3   OH235932   6.169   2.423   3.460  0.4792  0.3270 -0.2566
 4814TIP3    H135933   6.126   2.507   3.477  1.8832  1.3155 -1.2444
 4814TIP3    H235934   6.198   2.392   3.546 -2.3192 -0.5135  0.4714
 4815TIP3   OH235935   1.215   5.924  13.967 -0.0332  0.5848  0.4190
 4815TIP3    H135936   1.128   5.897  13.996 -0.5650  1.8827  0.1223
 4815TIP3    H235937   1.213   5.910  13.872  1.2163 -2.3400  0.7268
 4816TIP3   OH235938   0.395   6.666  13.282  0.2844  0.0128  0.1908
 4816TIP3    H135939   0.376   6.634  13.193 -1.4557 -1.6980  1.0972
 4816TIP3    H235940   0.402   6.761  13.273  2.4332 -0.2491 -2.1248
 4817TIP3   OH235941   6.296   2.443  13.747  0.0322  0.2307  0.0292
 4817TIP3    H135942   6.356   2.379  13.786 -0.3876  1.0717  2.2443
 4817TIP3    H235943   6.315   2.525  13.794 -0.1941  1.4909 -1.9548
 4818TIP3   OH235944   5.802   5.305   3.879 -0.0792 -0.3871  0.3448
 4818TIP3    H135945   5.812   5.303   3.784 -1.2793 -2.0459  0.2036
 4818TIP3    H235946   5.730   5.366   3.894  0.2872  0.0779  0.2059
 4819TIP3   OH235947   2.517   3.717  13.917  0.0225  0.8673  0.2205
 4819TIP3    H135948   2.590   3.778  13.932  0.7112  0.1996 -0.3435
 4819TIP3    H235949   2.552   3.654  13.853 -0.1794 -0.9586  1.8420
 4820TIP3   OH235950   4.163   6.229  15.719 -0.0916 -0.5956 -0.2011
 4820TIP3    H135951   4.122   6.185  15.793  0.8830  0.0021  0.7185
 4820TIP3    H235952   4.199   6.158  15.666 -0.8929 -1.0313 -0.1737
 4821TIP3   OH235953   6.550   4.844  10.609 -0.2513  0.3453 -0.1476
 4821TIP3    H135954   6.455   4.833  10.602 -0.4917  1.9637  0.2609
 4821TIP3    H235955   6.575   4.890  10.529  0.1486  0.2079 -0.1049
 4822TIP3   OH235956   1.483   6.638  13.793 -0.0925  0.7679 -0.6580
 4822TIP3    H135957   1.391   6.629  13.819 -0.6177  0.4312 -2.4501
 4822TIP3    H235958   1.503   6.730  13.810  0.6719 -0.0023  3.8049
 4823TIP3   OH235959   6.100   3.026  14.919 -0.5589 -0.5334  0.3331
 4823TIP3    H135960   6.166   2.995  14.857 -1.0755 -1.2587  0.1425
 4823TIP3    H235961   6.125   3.117  14.936  0.8147 -0.9416  0.6883
 4824TIP3   OH235962   4.498   4.163   2.491  0.0967 -0.3987 -0.2774
 4824TIP3    H135963   4.456   4.200   2.569  0.3295  1.9112 -1.1847
 4824TIP3    H235964   4.587   4.200   2.492 -0.1143  0.2331 -1.9647
 4825TIP3   OH235965   2.211   5.735   2.153 -0.0048  0.1157  0.6275
 4825TIP3    H135966   2.164   5.790   2.091  0.2797  0.9373  1.1284
 4825TIP3    H235967   2.299   5.727   2.115  0.5630  1.6822  1.5258
 4826TIP3   OH235968   1.948   3.409  15.308 -0.1889  0.0138 -0.0903
 4826TIP3    H135969   1.979   3.335  15.257  1.0540  0.5033 -0.0980
 4826TIP3    H235970   1.962   3.383  15.399  0.7596  0.4252 -0.1049
 4827TIP3   OH235971   6.396   4.568   5.716 -0.2968  0.1179 -0.2814
 4827TIP3    H135972   6.410   4.482   5.676  2.4708  0.7378 -0.8879
 4827TIP3    H235973   6.372   4.625   5.643 -2.2056 -0.1004  0.1319
 4828TIP3   OH235974   2.075   6.123   4.045  0.0483 -0.4883  0.0268
 4828TIP3    H135975   2.104   6.210   4.070  1.2174 -0.9117  0.2472
 4828TIP3    H235976   2.156   6.079   4.017 -0.5891 -1.3565 -0.4776
 4829TIP3   OH235977   6.062   1.353  11.441  0.0655 -0.0417 -0.2202
 4829TIP3    H135978   6.053   1.285  11.373  1.4564  0.1486 -0.6419
 4829TIP3    H235979   5.976   1.395  11.445 -0.1737 -0.3344 -1.5898
 4830TIP3   OH235980   5.910   0.175   2.308 -0.0930 -0.6280 -0.7596
 4830TIP3    H135981   5.866   0.180   2.224 -1.0912 -0.7504 -0.2595
 4830TIP3    H235982   5.898   0.084   2.337 -0.0317 -0.5092 -0.3462
 4831TIP3   OH235983   6.312   5.177   1.753 -0.8412 -0.5344 -0.0596
 4831TIP3    H135984   6.263   5.129   1.687 -2.3190  0.8488 -0.0335
 4831TIP3    H235985   6.256   5.175   1.831 -1.3369  1.8090 -0.2837
 4832TIP3   OH235986   4.538   5.000  10.601  0.1269  0.3527  0.5125
 4832TIP3    H135987   4.541   5.092  10.574  0.2812  0.6877  1.5999
 4832TIP3    H235988   4.558   4.951  10.522  2.0067  1.3270  0.3319
 4833TIP3   OH235989   6.650   4.460   1.012  0.7397  0.1816  0.0183
 4833TIP3    H135990   6.609   4.376   1.034 -1.5092  0.6397 -1.9781
 4833TIP3    H235991   6.618   4.520   1.080 -2.1899  0.5376 -1.5177
 4834TIP3   OH235992   3.889   0.402  10.519 -0.0369  0.1063  0.6196
 4834TIP3    H135993   3.826   0.370  10.454  0.7832  1.5194 -0.9747
 4834TIP3    H235994   3.924   0.323  10.559 -0.2844 -0.8653 -0.9631
 4835TIP3   OH235995   6.004   0.096   0.021  0.5338 -0.0861 -0.5175
 4835TIP3    H135996   5.978   0.134  -0.063 -0.6363 -1.3611 -0.7812
 4835TIP3    H235997   6.010   0.002   0.004  1.9586 -0.1908  0.4381
 4836TIP3   OH235998   0.011   2.585  11.025  0.2110  0.5399  0.5520
 4836TIP3    H135999   0.091   2.633  11.004 -0.0258  0.5736 -0.3364
 4836TIP3    H236000  -0.055   2.653  11.041  0.3245  0.5120  1.1508
 4837TIP3   OH236001   5.953   2.736  15.208 -0.2103 -0.0563 -0.5066
 4837TIP3    H136002   6.045   2.743  15.234 -0.3854  0.0904  0.1019
 4837TIP3    H236003   5.940   2.810  15.148 -0.0427  0.1856 -0.2494
 4838TIP3   OH236004   5.480   2.631   0.242  0.4202  0.2572  0.0450
 4838TIP3    H136005   5.530   2.672   0.171  0.4475 -1.2392 -0.8321
 4838TIP3    H236006   5.547   2.607   0.307  0.8839 -1.5407 -1.0295
 4839TIP3   OH236007   5.816   2.526   3.841 -0.0478 -0.1915  0.2561
 4839TIP3    H136008   5.782   2.487   3.922 -0.6096  1.4222  0.8422
 4839TIP3    H236009   5.911   2.520   3.850 -0.1068 -0.1689  0.9679
 4840TIP3   OH236010   2.019   1.849  15.911 -0.7313 -0.5717  0.9836
 4840TIP3    H136011   1.968   1.915  15.959 -0.7347  0.0010  0.2194
 4840TIP3    H236012   2.060   1.898  15.840 -3.8347 -1.9849 -2.0665
 4841TIP3   OH236013   3.389   5.918   1.267  0.5452 -0.3208 -0.2551
 4841TIP3    H136014   3.453   5.987   1.284  0.1478  0.1957 -0.8003
 4841TIP3    H236015   3.441   5.837   1.265  1.0976  0.0247 -0.1596
 4842TIP3   OH236016   0.335   0.865   2.872 -0.1397 -0.2477 -0.2694
 4842TIP3    H136017   0.344   0.779   2.830  2.8297  0.3372 -1.0370
 4842TIP3    H236018   0.373   0.854   2.959  0.4267  0.2898 -0.4366
 4843TIP3   OH236019   5.734   5.855  15.988 -0.6619  0.7782  0.1056
 4843TIP3    H136020   5.668   5.903  15.938 -0.2933  1.8401  0.5957
 4843TIP3    H236021   5.760   5.782  15.932 -1.1253  1.2514 -0.7315
 4844TIP3   OH236022   2.189   2.361  10.713 -0.0982 -0.3050 -0.1197
 4844TIP3    H136023   2.205   2.408  10.794  0.1202 -1.0338  0.2747
 4844TIP3    H236024   2.276   2.342  10.678 -0.1942  0.4361 -0.7903
 4845TIP3   OH236025   0.055   5.067   0.861  0.0346  0.0900  0.9445
 4845TIP3    H136026   0.145   5.035   0.871 -0.3522 -0.8925  1.4909
 4845TIP3    H236027   0.064   5.159   0.839  1.1972 -0.1757  0.2242
 4846TIP3   OH236028   5.445   3.358  12.667  0.0978 -0.3066  0.0782
 4846TIP3    H136029   5.351   3.358  12.685 -0.1622  1.3850 -1.0215
 4846TIP3    H236030   5.458   3.285  12.607 -0.4989 -0.6017  0.3005
 4847TIP3   OH236031   0.401   1.779  16.603  0.3675 -0.0083 -0.1616
 4847TIP3    H136032   0.489   1.791  16.640 -0.2129  0.6530  1.0424
 4847TIP3    H236033   0.342   1.804  16.673 -0.8090  2.9653 -2.0221
 4848TIP3   OH236034   0.124   4.663   5.203  0.5273  0.4525 -0.2720
 4848TIP3    H136035   0.122   4.724   5.129  0.9532  1.1843  0.3101
 4848TIP3    H236036   0.042   4.613   5.195  0.5372  0.5619 -1.1928
 4849TIP3   OH236037   3.323   0.633   0.603 -0.0324  0.4564 -0.2582
 4849TIP3    H136038   3.359   0.657   0.518  0.1421 -0.2133 -0.3815
 4849TIP3    H236039   3.383   0.566   0.636 -0.5343  0.1442  0.0343
 4850TIP3   OH236040   0.940   1.675  13.830  0.5534  0.7490 -0.1338
 4850TIP3    H136041   0.956   1.752  13.777  0.5996  0.2917 -0.8022
 4850TIP3    H236042   0.912   1.608  13.767  1.9197 -0.2063  0.2000
 4851TIP3   OH236043   2.635   6.794   5.453  0.2872  0.4372  0.0016
 4851TIP3    H136044   2.672   6.706   5.457  0.4441  0.5333  1.0632
 4851TIP3    H236045   2.543   6.783   5.479  0.0025  0.4403 -0.9600
 4852TIP3   OH236046   3.188   6.385  14.617 -0.1135  0.0409 -0.1661
 4852TIP3    H136047   3.221   6.337  14.693 -1.4506 -1.4711 -0.4845
 4852TIP3    H236048   3.099   6.410  14.641 -0.0695  0.7410 -0.7185
 4853TIP3   OH236049   4.227   1.019   2.708  0.1427 -0.4366 -0.6424
 4853TIP3    H136050   4.184   1.098   2.739  0.8404 -0.5588  0.6843
 4853TIP3    H236051   4.163   0.977   2.651 -0.5854  0.5880 -0.5972
 4854TIP3   OH236052   0.658   5.548  11.983  0.1967  0.2427  0.2785
 4854TIP3    H136053   0.705   5.595  12.052 -1.1555  2.4587 -0.2172
 4854TIP3    H236054   0.718   5.548  11.909  0.5733  0.3430  0.5774
 4855TIP3   OH236055   3.826   1.112   4.797  0.0311  0.0847 -0.0428
 4855TIP3    H136056   3.829   1.099   4.892 -0.8216  0.0853 -0.0068
 4855TIP3    H236057   3.812   1.205   4.786 -1.9853 -0.1876 -0.1022
 4856TIP3   OH236058   6.159   5.742   3.821 -0.2570  0.0010  0.0880
 4856TIP3    H136059   6.113   5.825   3.836  0.3789  0.5007 -0.6182
 4856TIP3    H236060   6.239   5.767   3.774  0.1998 -0.9612  0.3234
 4857TIP3   OH236061   5.864   3.635  14.043 -0.4182 -0.3129 -0.3096
 4857TIP3    H136062   5.866   3.731  14.042  1.0632 -0.3217 -0.3250
 4857TIP3    H236063   5.836   3.611  13.955  1.1822  0.1104 -0.9711
 4858TIP3   OH236064   0.273   4.247   4.147  0.3806 -0.1777 -0.2084
 4858TIP3    H136065   0.317   4.332   4.143 -2.3351  1.2903 -1.4165
 4858TIP3    H236066   0.261   4.222   4.055  0.3049 -1.4301  0.1249
 4859TIP3   OH236067   3.532   4.165  14.785 -0.0638 -0.3125  0.3002
 4859TIP3    H136068   3.621   4.181  14.818 -0.0873  1.0113 -0.2470
 4859TIP3    H236069   3.494   4.252  14.773 -2.1244 -0.8234  2.3032
 4860TIP3   OH236070   1.370   6.448  13.162 -0.3007 -0.4573 -0.1802
 4860TIP3    H136071   1.378   6.493  13.078  3.1807  1.1066  0.8157
 4860TIP3    H236072   1.289   6.484  13.200  0.5199  2.4659 -0.9194
 4861TIP3   OH236073   6.105   1.231  16.728 -0.6038 -0.1359 -0.5658
 4861TIP3    H136074   6.140   1.219  16.816 -0.6330 -0.9618 -0.6543
 4861TIP3    H236075   6.069   1.145  16.705 -0.1390 -0.0660 -1.5794
 4862TIP3   OH236076   1.929   5.547   0.948  0.4011  0.1698  0.2469
 4862TIP3    H136077   1.922   5.549   1.044  0.9852 -0.0251  0.3022
 4862TIP3    H236078   1.964   5.633   0.925  1.5858 -0.2651  0.3441
 4863TIP3   OH236079   0.139   3.439   3.938  0.4931  0.0959 -0.2177
 4863TIP3    H136080   0.218   3.439   3.992  1.5956  0.6937 -1.7567
 4863TIP3    H236081   0.071   3.472   3.996  1.3989 -0.2097  1.0880
 4864TIP3   OH236082   5.642   6.682   3.404 -0.2113  0.0890  0.4467
 4864TIP3    H136083   5.689   6.755   3.362 -0.2174 -0.0708  0.1610
 4864TIP3    H236084   5.681   6.604   3.365 -1.6501 -0.0383 -0.8170
 4865TIP3   OH236085   4.897   5.622  12.180  0.3374 -0.4314 -0.1300
 4865TIP3    H136086   4.836   5.611  12.253 -0.1300 -0.0482 -0.4544
 4865TIP3    H236087   4.983   5.623  12.221  0.0492  0.4058  0.5002
 4866TIP3   OH236088   5.550   1.297  11.645 -0.6132 -0.3011 -0.2201
 4866TIP3    H136089   5.576   1.286  11.553 -1.7608  2.7180 -1.0321
 4866TIP3    H236090   5.477   1.236  11.657 -0.7649 -0.3814 -1.4544
 4867TIP3   OH236091   4.305   0.553   3.088 -0.0040  0.7237  0.1782
 4867TIP3    H136092   4.303   0.549   3.184 -1.6928  1.7723  0.2373
 4867TIP3    H236093   4.337   0.467   3.061  1.0677  0.6047  1.6805
 4868TIP3   OH236094   3.349   2.383   3.562 -0.0293  0.1341  0.9000
 4868TIP3    H136095   3.297   2.303   3.560  0.8932 -0.4650 -0.0728
 4868TIP3    H236096   3.393   2.385   3.477  1.9216  0.3516  1.8580
 4869TIP3   OH236097   2.861   3.854   2.035  0.4225 -0.5360 -0.1423
 4869TIP3    H136098   2.785   3.816   1.990  2.2187 -3.8966 -0.6443
 4869TIP3    H236099   2.852   3.824   2.126  0.2746  0.6054  0.2415
 4870TIP3   OH236100   0.471   4.868  16.174  0.3607  0.3487 -0.6401
 4870TIP3    H136101   0.375   4.870  16.172  0.1022  2.0313  3.5016
 4870TIP3    H236102   0.498   4.886  16.084 -3.1299 -0.7865 -2.0892
 4871TIP3   OH236103   1.637   6.310   4.853 -0.6038 -0.5943 -0.1729
 4871TIP3    H136104   1.671   6.233   4.900  1.8021 -0.4513 -1.5338
 4871TIP3    H236105   1.547   6.319   4.885  0.5875 -0.9279  3.8683
 4872TIP3   OH236106   6.834   4.643   1.209  0.2517  0.4406  0.2512
 4872TIP3    H136107   6.826   4.550   1.228  1.3167  0.8534  3.1433
 4872TIP3    H236108   6.749   4.680   1.233  0.7293  0.5645  1.8685
 4873TIP3   OH236109   0.561   3.409   4.872 -0.4740  0.2426 -0.0078
 4873TIP3    H136110   0.630   3.343   4.864  0.9318  1.7337 -1.0049
 4873TIP3    H236111   0.595   3.469   4.939 -0.8680  0.9094 -0.4022
 4874TIP3   OH236112   2.640   4.534   4.666  0.1631 -0.1348  0.6659
 4874TIP3    H136113   2.584   4.513   4.591  0.1926 -2.6937  1.2709
 4874TIP3    H236114   2.729   4.530   4.631  0.1089  1.0477  0.3491
 4875TIP3   OH236115   2.649   0.879  15.253  0.0109 -1.0395  0.0210
 4875TIP3    H136116   2.596   0.844  15.324 -1.8408 -1.3230 -1.4012
 4875TIP3    H236117   2.624   0.971  15.247 -0.0438 -1.0785 -0.4068
 4876TIP3   OH236118   6.568   1.161  12.514  0.2523 -0.2518  0.1637
 4876TIP3    H136119   6.607   1.139  12.429 -2.1343 -1.0378 -0.8000
 4876TIP3    H236120   6.529   1.248  12.500  0.3718 -0.1156  0.6678
 4877TIP3   OH236121   2.475   1.569   4.654  0.2798  0.7598 -0.6054
 4877TIP3    H136122   2.482   1.650   4.704 -0.8090  0.3550  0.2575
 4877TIP3    H236123   2.486   1.499   4.719  0.7815  0.2132 -1.2634
 4878TIP3   OH236124   3.643   0.488  13.095  0.3433 -0.4820  0.3046
 4878TIP3    H136125   3.661   0.477  13.002 -1.3408 -0.9008 -0.0030
 4878TIP3    H236126   3.597   0.409  13.121 -0.9433  0.4521  1.0099
 4879TIP3   OH236127   4.596   1.631  14.845  0.1741 -0.1005  0.0396
 4879TIP3    H136128   4.506   1.618  14.816 -0.1210 -0.9350  1.2502
 4879TIP3    H236129   4.633   1.542  14.846  1.6647  0.4015 -2.3654
 4880TIP3   OH236130   2.708   5.087   4.671 -0.2264  0.5330  0.2870
 4880TIP3    H136131   2.769   5.014   4.672  1.6899  1.9394 -2.2177
 4880TIP3    H236132   2.657   5.077   4.751  1.6182 -2.1091  1.2606
 4881TIP3   OH236133   3.258   6.105  16.734 -0.3388  0.5961  0.0574
 4881TIP3    H136134   3.208   6.142  16.807 -1.6353 -0.0341 -0.4885
 4881TIP3    H236135   3.194   6.054  16.684  1.0139 -0.9222 -0.2125
 4882TIP3   OH236136   0.364   2.468   5.346 -0.4300  0.2528 -0.2410
 4882TIP3    H136137   0.399   2.550   5.379  2.5268 -0.9961  0.0663
 4882TIP3    H236138   0.440   2.410   5.338 -2.2061 -2.1476 -1.4368
 4883TIP3   OH236139   0.634   4.726   4.812  0.3204  0.1606  0.2675
 4883TIP3    H136140   0.619   4.642   4.855  0.6704 -0.3020 -0.4831
 4883TIP3    H236141   0.666   4.784   4.881 -1.0700  0.0374  1.0545
 4884TIP3   OH236142   1.966   0.233  14.127  0.1267  0.1868 -0.5624
 4884TIP3    H136143   1.960   0.328  14.124  0.9817  0.3796  1.7282
 4884TIP3    H236144   2.058   0.214  14.109 -0.2063 -0.2845 -1.8368
 4885TIP3   OH236145   6.252   0.755   2.127  0.1447  0.0702 -0.7421
 4885TIP3    H136146   6.314   0.711   2.185  0.6487 -0.9023 -1.9605
 4885TIP3    H236147   6.273   0.720   2.040 -0.5066  1.5489 -1.5239
 4886TIP3   OH236148   6.576   3.940   5.023 -0.7257  0.2802 -0.1600
 4886TIP3    H136149   6.585   3.847   5.047  2.1758  0.4622 -0.0878
 4886TIP3    H236150   6.483   3.953   5.009 -1.1865 -2.7599 -0.5678
 4887TIP3   OH236151   0.001   5.272   3.842 -0.2140  0.4682 -0.2457
 4887TIP3    H136152  -0.006   5.180   3.868  1.1129  1.0425  2.5392
 4887TIP3    H236153  -0.089   5.303   3.837 -0.6343 -0.3539  1.4704
 4888TIP3   OH236154   2.727   1.873   5.311  0.1555  0.0027 -0.1851
 4888TIP3    H136155   2.774   1.956   5.317 -0.1903  0.2099 -0.2701
 4888TIP3    H236156   2.680   1.878   5.227 -0.4219  0.0240  0.1305
 4889TIP3   OH236157   4.691   4.316   3.008 -0.2109 -0.4164 -0.2104
 4889TIP3    H136158   4.775   4.332   2.966 -0.8374 -2.4962 -2.4729
 4889TIP3    H236159   4.629   4.310   2.935 -2.3652  1.0292  1.3707
 4890TIP3   OH236160   6.561   5.059   1.688  0.0500  0.2328  0.0132
 4890TIP3    H136161   6.562   5.030   1.779  0.3781 -0.9108 -0.3258
 4890TIP3    H236162   6.487   5.118   1.682  0.3705  0.7819  1.1487
 4891TIP3   OH236163   0.707   5.041  16.190 -0.0488 -0.5403 -0.3509
 4891TIP3    H136164   0.712   4.945  16.191 -2.4806 -0.7342 -1.1387
 4891TIP3    H236165   0.619   5.061  16.221  0.1575  1.4136 -0.9030
 4892TIP3   OH236166   5.121   2.670   2.099 -0.3201  0.3697  0.3458
 4892TIP3    H136167   5.085   2.582   2.107 -0.6888  0.5412  0.5681
 4892TIP3    H236168   5.160   2.672   2.011  1.3164 -0.6141  1.0024
 4893TIP3   OH236169   5.715   4.007   0.075 -0.0061  0.3956 -0.1237
 4893TIP3    H136170   5.702   3.951  -0.001 -0.2994 -0.2449  0.3837
 4893TIP3    H236171   5.790   4.062   0.053  0.2174 -0.1224 -0.6714
 4894TIP3   OH236172   3.446   5.269  15.493  0.7200 -0.1571  0.4526
 4894TIP3    H136173   3.472   5.182  15.526 -0.4573 -0.3420  0.9477
 4894TIP3    H236174   3.471   5.329  15.563  0.3298 -0.2627  0.6831
 4895TIP3   OH236175   1.453   5.831  16.773  0.0110  0.3964 -0.2590
 4895TIP3    H136176   1.444   5.777  16.851  1.0684  1.3917  0.5925
 4895TIP3    H236177   1.546   5.854  16.770 -0.3426  1.9031 -0.7499
 4896TIP3   OH236178   3.771   3.624   5.324 -0.0132  0.0362 -0.4799
 4896TIP3    H136179   3.810   3.705   5.359  1.7899 -1.5965  1.5690
 4896TIP3    H236180   3.680   3.628   5.353  0.5361  0.4603  1.3651
 4897TIP3   OH236181   1.162   1.951   5.017 -0.6521  0.0271 -0.0449
 4897TIP3    H136182   1.162   1.866   5.061 -0.8788  0.0470 -0.0025
 4897TIP3    H236183   1.086   1.947   4.959 -0.3579  0.0047 -0.4261
 4898TIP3   OH236184   3.072   2.216  13.907  0.4746  0.3379  0.5323
 4898TIP3    H136185   3.113   2.163  13.839 -1.8036  1.2588 -1.7132
 4898TIP3    H236186   3.103   2.305  13.891  0.5162  0.4499  1.2033
 4899TIP3   OH236187   4.570   6.212   1.002 -0.0478  0.3243  0.2060
 4899TIP3    H136188   4.600   6.149   0.937  0.0444  1.5505 -0.9729
 4899TIP3    H236189   4.651   6.252   1.035 -0.1978  1.1434 -0.4109
 4900TIP3   OH236190   5.091   1.020  16.807 -0.6263  0.0410 -0.4159
 4900TIP3    H136191   5.176   0.978  16.819 -1.5857 -1.7146  0.7817
 4900TIP3    H236192   5.085   1.085  16.876 -0.6578 -0.5806  0.1791
 4901TIP3   OH236193   5.810   3.074  14.581 -0.4878  0.1636 -0.0931
 4901TIP3    H136194   5.789   3.078  14.675 -0.2746 -0.0073 -0.0371
 4901TIP3    H236195   5.897   3.033  14.578 -0.0768  1.0404 -0.3174
 4902TIP3   OH236196   2.180   1.875   4.300  0.6396  0.2853  0.2310
 4902TIP3    H136197   2.247   1.810   4.278 -0.7143 -1.1909  0.2468
 4902TIP3    H236198   2.098   1.824   4.303 -0.5067  2.0402  0.0653
 4903TIP3   OH236199   4.473   5.001  15.615  0.3767 -0.3601 -0.1024
 4903TIP3    H136200   4.469   4.905  15.612  1.3574 -0.4324  0.5532
 4903TIP3    H236201   4.534   5.021  15.686  2.3872  0.7016 -2.0097
 4904TIP3   OH236202   1.985   6.706  16.990  0.1207 -0.2565  0.6408
 4904TIP3    H136203   2.075   6.724  17.015 -0.1119  0.2470  1.1189
 4904TIP3    H236204   1.940   6.790  16.996 -0.0830 -0.2089 -0.9151
 4905TIP3   OH236205   3.292   4.086  15.815 -0.2250 -0.3941 -0.1421
 4905TIP3    H136206   3.254   4.002  15.790 -0.8365 -0.1335 -0.1194
 4905TIP3    H236207   3.362   4.064  15.876 -1.2792 -0.8099  0.9438
 4906TIP3   OH236208   3.805   6.438   5.567  0.6612 -0.2858 -0.2104
 4906TIP3    H136209   3.893   6.442   5.605  1.9436 -0.3745 -2.9478
 4906TIP3    H236210   3.782   6.530   5.551  0.3510 -0.2800  0.2439
 4907TIP3   OH236211   3.946   4.852  15.082  0.6271  0.3884  0.6450
 4907TIP3    H136212   3.852   4.864  15.092  0.3937 -1.3630  0.7504
 4907TIP3    H236213   3.971   4.790  15.150  1.6309 -0.1589 -0.1845
 4908TIP3   OH236214   2.751   6.819  11.658  0.4396 -0.0778  0.1601
 4908TIP3    H136215   2.772   6.737  11.703 -0.1485 -0.5047 -0.3227
 4908TIP3    H236216   2.812   6.822  11.584  2.5816  1.4518  1.8384
 4909TIP3   OH236217   4.554   4.766   4.224 -0.3606  0.2726  0.5425
 4909TIP3    H136218   4.580   4.852   4.258  0.5382 -0.0889  0.8026
 4909TIP3    H236219   4.605   4.756   4.144 -1.7810  0.7217 -0.4641
 4910TIP3   OH236220   1.137   0.300  17.082  0.2402  0.5223 -0.2346
 4910TIP3    H136221   1.148   0.276  16.990  1.2117  2.0242 -0.5407
 4910TIP3    H236222   1.049   0.339  17.086  0.7511  1.7887 -0.8574
 4911TIP3   OH236223   5.596   4.734  12.580 -0.5207  0.0344  0.0933
 4911TIP3    H136224   5.622   4.769  12.495  0.4907 -0.3538  0.2272
 4911TIP3    H236225   5.663   4.668  12.600  0.5879  1.7134  2.2553
 4912TIP3   OH236226   5.163   3.994  13.449 -0.4774 -0.1538  0.2514
 4912TIP3    H136227   5.077   3.959  13.426  0.4803 -2.2767 -0.3573
 4912TIP3    H236228   5.173   3.975  13.542 -1.1023  1.1500  0.6052
 4913TIP3   OH236229   2.063   1.940   6.340 -0.0584  0.1146 -0.1856
 4913TIP3    H136230   2.034   1.887   6.414  1.7726 -1.0042 -0.2034
 4913TIP3    H236231   2.137   1.991   6.375  0.3436  0.1288 -1.0304
 4914TIP3   OH236232   6.369   3.591  10.589  0.1674  0.3075 -0.0628
 4914TIP3    H136233   6.368   3.683  10.615 -1.0733  0.6642 -1.2867
 4914TIP3    H236234   6.282   3.559  10.611  1.3244 -1.3395  2.7339
 4915TIP3   OH236235   4.837   5.144   6.354  0.0912 -0.5426 -0.6249
 4915TIP3    H136236   4.882   5.060   6.345  0.8587 -0.3834  1.3464
 4915TIP3    H236237   4.780   5.148   6.277  1.1425 -2.1652 -1.5599
 4916TIP3   OH236238   5.270   4.854   5.242 -0.1146  0.3213  0.1916
 4916TIP3    H136239   5.316   4.784   5.287 -0.9153 -0.2634  0.1159
 4916TIP3    H236240   5.178   4.828   5.243 -0.5102  1.6519  0.6801
 4917TIP3   OH236241   0.608   0.601   3.568 -0.1810  0.0023 -0.6021
 4917TIP3    H136242   0.698   0.594   3.602 -0.7013 -0.0593  0.7977
 4917TIP3    H236243   0.595   0.695   3.554 -0.2022  0.0967  0.0404
 4918TIP3   OH236244   4.554   2.591   3.727 -0.8230 -0.2481 -0.3165
 4918TIP3    H136245   4.547   2.638   3.644  0.1156  0.8484  0.2019
 4918TIP3    H236246   4.614   2.519   3.709  1.2942  1.3580 -0.0539
 4919TIP3   OH236247   4.936   3.062  11.892  0.8835  0.3713 -0.0193
 4919TIP3    H136248   4.871   3.131  11.910  0.9033  0.6376 -0.9051
 4919TIP3    H236249   4.884   2.981  11.887  0.5874  0.5961 -0.8130
 4920TIP3   OH236250   0.274   2.693   5.776 -0.0256 -0.0894 -0.2714
 4920TIP3    H136251   0.272   2.696   5.872  1.1395 -1.7233 -0.1599
 4920TIP3    H236252   0.268   2.600   5.755 -2.5466  0.3378 -1.9084
 4921TIP3   OH236253   1.289   0.169   3.296  0.2460  0.2351 -0.3051
 4921TIP3    H136254   1.297   0.248   3.349 -1.5466 -0.1131  0.5491
 4921TIP3    H236255   1.306   0.097   3.356 -0.3736 -0.1084 -0.5252
 4922TIP3   OH236256   6.031   6.327   2.786  0.3151 -0.2435  0.0675
 4922TIP3    H136257   6.065   6.416   2.776  0.2559 -0.1861  0.3792
 4922TIP3    H236258   5.937   6.338   2.799  0.4562 -0.2833  1.2014
 4923TIP3   OH236259   4.732   5.732  16.853 -0.0625  0.3334 -0.4327
 4923TIP3    H136260   4.721   5.682  16.934  3.1122 -0.6767 -0.4767
 4923TIP3    H236261   4.664   5.799  16.857 -2.1336 -1.6804  1.4334
 4924TIP3   OH236262   1.824   6.051  16.174  0.2067 -0.4248 -0.2747
 4924TIP3    H136263   1.769   5.973  16.172  0.5060 -0.6553  0.3824
 4924TIP3    H236264   1.907   6.023  16.136  0.3943 -0.4901  0.1802
 4925TIP3   OH236265   4.869   2.224   0.293 -0.2147 -0.0024  0.9342
 4925TIP3    H136266   4.887   2.155   0.229 -0.2579  0.8263 -0.0146
 4925TIP3    H236267   4.814   2.183   0.359 -2.2339 -0.3218 -0.8386
 4926TIP3   OH236268   2.273   4.196   5.602  0.2087 -0.1199  0.2754
 4926TIP3    H136269   2.181   4.202   5.578  0.5926 -0.2669 -1.4048
 4926TIP3    H236270   2.275   4.208   5.697 -1.5594 -0.4432  0.3795
 4927TIP3   OH236271   1.415   3.354   4.200 -0.3804  0.0618 -0.7207
 4927TIP3    H136272   1.371   3.297   4.137 -0.2090 -0.5621 -0.2899
 4927TIP3    H236273   1.461   3.418   4.146 -0.1608 -0.5199 -1.2410
 4928TIP3   OH236274   3.369   0.879   3.567 -0.4030  0.2581  0.4394
 4928TIP3    H136275   3.431   0.866   3.495 -1.0396  0.6686 -0.1946
 4928TIP3    H236276   3.424   0.897   3.643  0.4095 -2.5063  0.6303
 4929TIP3   OH236277   2.709   1.521  16.679 -0.3486 -0.5333  0.0155
 4929TIP3    H136278   2.763   1.496  16.604 -0.2200  0.0246 -0.0813
 4929TIP3    H236279   2.649   1.447  16.691  0.0670 -0.9140 -0.2213
 4930TIP3   OH236280   4.799   5.315  16.763 -0.3915  0.1818  0.4102
 4930TIP3    H136281   4.838   5.327  16.850  0.1801 -1.0060  0.3295
 4930TIP3    H236282   4.705   5.320  16.778 -0.2847  0.5488  1.0013
 4931TIP3   OH236283   5.015   2.447   0.474 -0.0047  0.0518 -0.5065
 4931TIP3    H136284   4.983   2.364   0.438 -0.2273  0.1409 -0.5122
 4931TIP3    H236285   4.968   2.514   0.425  1.1016  0.2144 -1.4025
 4932TIP3   OH236286   4.173   3.709  11.308  0.1525  0.0106 -0.3971
 4932TIP3    H136287   4.257   3.734  11.270 -0.2358  0.8338 -0.7483
 4932TIP3    H236288   4.146   3.786  11.360 -0.4729 -0.1561 -0.4613
 4933TIP3   OH236289   0.871   1.474  12.894 -0.2208 -0.0213  0.3447
 4933TIP3    H136290   0.863   1.550  12.837  4.8841 -0.9437 -2.2348
 4933TIP3    H236291   0.819   1.406  12.850  0.1021  0.4528 -0.8139
 4934TIP3   OH236292   1.454   3.711  16.648 -0.3318  0.2144  0.5322
 4934TIP3    H136293   1.537   3.748  16.676 -0.5342  0.2881  1.0487
 4934TIP3    H236294   1.453   3.723  16.553 -0.2757  1.2958  0.6566
 4935TIP3   OH236295   2.993   1.091  12.636 -0.5592 -0.2364  0.0232
 4935TIP3    H136296   3.021   1.155  12.570  1.2716  0.8408  1.7405
 4935TIP3    H236297   2.902   1.073  12.614 -1.0852  2.7609 -0.7080
 4936TIP3   OH236298   6.210   4.654  11.407  0.1426 -0.1506  0.2170
 4936TIP3    H136299   6.197   4.583  11.344 -0.4087  1.5419 -1.6814
 4936TIP3    H236300   6.293   4.694  11.381 -0.2554  0.7794  0.3387
 4937TIP3   OH236301   6.728   3.581   1.820  0.6151 -0.4532  0.1766
 4937TIP3    H136302   6.663   3.650   1.814  1.2066  0.2646  1.5633
 4937TIP3    H236303   6.808   3.620   1.783  0.6197 -0.8724 -0.2767
 4938TIP3   OH236304   5.481   1.900  11.189 -0.0034  0.8584 -0.5233
 4938TIP3    H136305   5.474   1.994  11.204  1.7805  1.1980 -1.4959
 4938TIP3    H236306   5.517   1.892  11.100  0.9469 -0.6894 -0.0462
 4939TIP3   OH236307   3.109   3.912   6.271  0.2383 -0.4590 -0.7451
 4939TIP3    H136308   3.077   3.830   6.308 -0.0116 -0.4626 -0.9685
 4939TIP3    H236309   3.037   3.944   6.216 -0.6173  1.1123  1.1465
 4940TIP3   OH236310   5.601   3.139  11.787  0.7048 -0.2483 -0.2858
 4940TIP3    H136311   5.591   3.230  11.759  1.3785 -0.0780  0.0026
 4940TIP3    H236312   5.667   3.142  11.856  1.1270 -1.0170 -0.6373
 4941TIP3   OH236313   4.191   2.112  16.713 -0.1684  0.1401 -0.1325
 4941TIP3    H136314   4.136   2.175  16.668  1.5738  2.2416  0.5370
 4941TIP3    H236315   4.257   2.088  16.648 -0.6170 -0.7906 -0.2698
 4942TIP3   OH236316   5.020   3.762  13.348  0.4950  0.0357  0.0663
 4942TIP3    H136317   5.063   3.715  13.277  0.1548  0.3959 -0.3848
 4942TIP3    H236318   4.943   3.800  13.308  0.3123  0.2650  0.6283
 4943TIP3   OH236319   6.241   4.234  11.538 -0.0846 -0.0403  0.2443
 4943TIP3    H136320   6.226   4.308  11.478 -1.2071  0.6810  1.3671
 4943TIP3    H236321   6.202   4.159  11.493 -1.4655  0.6111  0.3221
 4944TIP3   OH236322   3.461   2.519  16.417 -0.1304 -0.5459 -0.1091
 4944TIP3    H136323   3.421   2.545  16.334  1.3361  0.2243 -0.6125
 4944TIP3    H236324   3.457   2.597  16.471 -3.6807 -1.7687  1.7249
 4945TIP3   OH236325   2.185   0.915   5.225 -0.0141  0.4820  0.8513
 4945TIP3    H136326   2.249   0.949   5.287  1.9219 -0.9032 -0.2766
 4945TIP3    H236327   2.194   0.820   5.230  0.1258  0.3175 -1.4177
 4946TIP3   OH236328   4.472   3.314  14.005  0.3480  0.2770 -0.5551
 4946TIP3    H136329   4.483   3.405  13.977  0.8424  0.4137  0.0456
 4946TIP3    H236330   4.549   3.297  14.060 -0.0510 -0.3103 -0.1721
 4947TIP3   OH236331   3.461   0.955   2.813  0.1245  0.1095  0.3027
 4947TIP3    H136332   3.536   0.918   2.767  0.9859  1.1048  0.8766
 4947TIP3    H236333   3.385   0.909   2.776  0.9938 -0.8318 -0.3617
 4948TIP3   OH236334   1.065   3.326   6.040 -0.4701  0.3330  0.2561
 4948TIP3    H136335   1.161   3.322   6.049 -0.6219 -0.3798  2.0211
 4948TIP3    H236336   1.035   3.366   6.122 -1.7458 -0.7034  0.3352
 4949TIP3   OH236337   0.249   2.328  14.684  0.0438  0.6047  0.1361
 4949TIP3    H136338   0.154   2.331  14.680 -0.1302 -2.3461  0.1655
 4949TIP3    H236339   0.277   2.338  14.593 -0.5720 -2.3311 -0.4617
 4950TIP3   OH236340   2.145   4.194  12.064  0.2324 -0.3131  0.3729
 4950TIP3    H136341   2.054   4.186  12.093 -0.0803  1.0485 -0.1455
 4950TIP3    H236342   2.149   4.281  12.023  1.9602 -0.0405  1.0674
 4951TIP3   OH236343   1.547   2.743  15.050 -0.3383 -0.7507 -0.5725
 4951TIP3    H136344   1.610   2.798  15.098 -0.7881 -1.4085  0.8177
 4951TIP3    H236345   1.520   2.797  14.976 -0.2806  0.6735  0.4042
 4952TIP3   OH236346   5.048   0.548   6.115 -0.0430 -0.5524  0.1612
 4952TIP3    H136347   5.125   0.535   6.170 -0.4935 -0.3944  0.8346
 4952TIP3    H236348   5.016   0.635   6.138 -0.4954 -0.6651 -0.0277
 4953TIP3   OH236349   6.466   1.962   2.688 -0.5895 -0.4881  0.3135
 4953TIP3    H136350   6.415   1.936   2.764  0.4165 -0.1267  1.1349
 4953TIP3    H236351   6.535   2.017   2.724 -1.3163  1.4492 -1.0879
 4954TIP3   OH236352   0.034   3.019  16.186 -0.2208 -0.6399  0.0183
 4954TIP3    H136353   0.068   2.987  16.270  0.0607  0.2048  0.2375
 4954TIP3    H236354   0.047   3.113  16.190 -0.8283 -0.5200 -0.7049
 4955TIP3   OH236355   1.876   6.661  13.561  0.5119  0.2957  0.1658
 4955TIP3    H136356   1.844   6.749  13.542 -0.6454  0.0670  0.9275
 4955TIP3    H236357   1.800   6.615  13.597  1.1097 -1.0044 -0.1674
 4956TIP3   OH236358   1.949   1.723   3.571 -0.2652  0.2566 -0.0448
 4956TIP3    H136359   2.043   1.735   3.585  0.0990 -2.6553  0.8351
 4956TIP3    H236360   1.908   1.771   3.642  0.7171 -0.1677  0.8449
 4957TIP3   OH236361   3.645   2.095  12.810 -0.5302 -0.2825 -0.1678
 4957TIP3    H136362   3.728   2.061  12.843 -0.1874 -0.4220 -1.1531
 4957TIP3    H236363   3.608   2.144  12.884  0.8929  0.6466 -0.0351
 4958TIP3   OH236364   6.582   4.258  14.379  0.5592  0.0938 -1.0838
 4958TIP3    H136365   6.637   4.269  14.301  3.2079 -1.3789  0.4480
 4958TIP3    H236366   6.533   4.340  14.386  2.0698  1.2268 -2.9142
 4959TIP3   OH236367   2.583   6.518   6.212 -0.5778  0.0624 -0.1061
 4959TIP3    H136368   2.574   6.522   6.117 -0.0163  1.7410 -0.1209
 4959TIP3    H236369   2.588   6.425   6.232  0.2888 -0.2889 -1.8187
 4960TIP3   OH236370   5.297   5.046   0.285  0.4219 -0.1456 -0.7259
 4960TIP3    H136371   5.366   4.984   0.310 -0.1472 -0.1333  1.0292
 4960TIP3    H236372   5.243   5.054   0.364 -1.5898 -0.1541 -2.0439
 4961TIP3   OH236373   2.911   4.506  11.712  0.4449  0.6992 -0.1333
 4961TIP3    H136374   2.865   4.549  11.785  1.2800 -0.7057  1.2870
 4961TIP3    H236375   2.842   4.484  11.650 -1.2686 -2.7130  2.5860
 4962TIP3   OH236376   1.828   5.483  11.963  0.4017  0.1044 -0.5658
 4962TIP3    H136377   1.889   5.556  11.976 -0.9079  1.2532 -0.6582
 4962TIP3    H236378   1.882   5.412  11.930  2.1569  0.2455  1.7423
 4963TIP3   OH236379   1.759   4.397  16.375 -0.0044  0.1885 -0.0374
 4963TIP3    H136380   1.784   4.464  16.437 -1.0198  0.0140  0.5874
 4963TIP3    H236381   1.774   4.437  16.289 -2.1810  1.8789  0.2899
 4964TIP3   OH236382   6.363   6.603   5.822  0.0607  0.6264 -0.8964
 4964TIP3    H136383   6.454   6.623   5.799 -0.2551  1.1884 -1.6794
 4964TIP3    H236384   6.365   6.511   5.850  1.1075  1.0218  0.4493
 4965TIP3   OH236385   3.280   3.143   3.772  0.2523 -0.6609 -0.5658
 4965TIP3    H136386   3.217   3.184   3.713  1.8118 -0.6462 -2.3133
 4965TIP3    H236387   3.336   3.216   3.801 -0.1483 -0.7641  0.4867
 4966TIP3   OH236388   0.294   1.669  13.039  0.6035 -0.1397 -0.1501
 4966TIP3    H136389   0.341   1.665  13.123  0.2408  0.9810  0.1182
 4966TIP3    H236390   0.315   1.586  12.996  1.4299 -0.3902  0.7097
 4967TIP3   OH236391   0.147   4.099   4.836 -0.2821 -0.0662  0.1010
 4967TIP3    H136392   0.201   4.020   4.824 -1.3339 -0.6920 -0.7836
 4967TIP3    H236393   0.172   4.156   4.764  0.6410  0.5308  0.8712
 4968TIP3   OH236394   0.865   3.554   5.548  0.2769 -0.5162  0.9606
 4968TIP3    H136395   0.911   3.476   5.517 -0.1024 -0.0069 -1.0170
 4968TIP3    H236396   0.933   3.609   5.586  1.1515 -0.2816 -0.8530
 4969TIP3   OH236397   3.069   3.885  13.869 -0.5652  0.4956 -0.2475
 4969TIP3    H136398   2.978   3.886  13.838 -0.3402 -1.3642 -1.0721
 4969TIP3    H236399   3.071   3.816  13.935 -0.3761  2.5135  1.9700
 4970TIP3   OH236400   3.049   3.007  11.184  0.5439 -0.0984  0.6543
 4970TIP3    H136401   3.098   3.087  11.164 -0.4121  0.6416  1.1835
 4970TIP3    H236402   3.116   2.939  11.188  1.3480  0.6122 -0.0963
 4971TIP3   OH236403   3.499   0.266  14.968 -0.8067 -0.3283  0.3451
 4971TIP3    H136404   3.406   0.286  14.970 -0.4831  1.4320 -0.1747
 4971TIP3    H236405   3.526   0.269  15.060 -1.1788 -0.4148  0.4590
 4972TIP3   OH236406   3.082   0.598  15.166  0.0250 -0.5324 -0.1533
 4972TIP3    H136407   3.121   0.638  15.089 -0.2048 -2.8605 -1.5612
 4972TIP3    H236408   3.132   0.518  15.180 -1.0846 -1.0555  1.0287
 4973TIP3   OH236409   2.501   4.552  12.083 -0.0597  0.1293  0.5438
 4973TIP3    H136410   2.457   4.468  12.099  2.1549 -0.9033  1.5032
 4973TIP3    H236411   2.541   4.542  11.996  0.3948  0.1086  0.7556
 4974TIP3   OH236412   6.309   1.646   6.199 -0.1341  0.0752  0.5907
 4974TIP3    H136413   6.281   1.640   6.108  2.7322  1.1073 -0.4578
 4974TIP3    H236414   6.386   1.589   6.204 -1.0259 -1.0726  2.7878
 4975TIP3   OH236415   4.522   3.569  12.149  0.7497  0.0673 -0.5129
 4975TIP3    H136416   4.472   3.638  12.104 -1.3024 -1.1811 -0.2531
 4975TIP3    H236417   4.503   3.582  12.242  0.7684 -0.5398 -0.4245
 4976TIP3   OH236418   4.479   5.351  11.743 -0.1939  0.5090 -0.1433
 4976TIP3    H136419   4.435   5.409  11.681  0.2257  0.7189 -0.2515
 4976TIP3    H236420   4.434   5.365  11.826 -0.7806  0.2003 -0.4114
 4977TIP3   OH236421   1.574   0.746  16.232  0.3104 -0.0908  0.2889
 4977TIP3    H136422   1.533   0.663  16.208  0.4590 -0.3391  0.8799
 4977TIP3    H236423   1.517   0.781  16.301  0.5702  0.0159  0.4499
 4978TIP3   OH236424   3.756   3.668  13.674 -0.0471 -0.0111  0.3589
 4978TIP3    H136425   3.797   3.607  13.736 -0.4291 -0.4634  0.1745
 4978TIP3    H236426   3.676   3.623  13.646 -0.4364  0.6618  0.3674
 4979TIP3   OH236427   1.194   4.296   3.321 -0.5247  0.3340  0.2882
 4979TIP3    H136428   1.266   4.274   3.261  0.8617  1.2974  1.5124
 4979TIP3    H236429   1.238   4.328   3.399 -2.3213  0.7971  1.1547
 4980TIP3   OH236430   0.211   0.926   4.926 -0.0663  0.1206  0.0638
 4980TIP3    H136431   0.172   1.009   4.956 -1.2705  0.0374 -1.1633
 4980TIP3    H236432   0.140   0.862   4.935  1.1230 -1.0226  1.8487
 4981TIP3   OH236433   5.438   0.771  13.675 -0.1053  0.4212 -0.7624
 4981TIP3    H136434   5.466   0.699  13.618  1.0123  1.4868 -1.6225
 4981TIP3    H236435   5.347   0.786  13.650 -0.1700 -0.2874 -0.9981
 4982TIP3   OH236436   5.215   2.504   3.717 -0.2633 -0.5794 -0.0368
 4982TIP3    H136437   5.277   2.572   3.740  0.4997 -0.9939 -0.8184
 4982TIP3    H236438   5.215   2.444   3.791 -2.0553  0.9892  1.3437
 4983TIP3   OH236439   3.607   2.085   2.343 -0.0968 -0.0882 -0.1117
 4983TIP3    H136440   3.602   2.117   2.254  0.4563 -0.7477 -0.3894
 4983TIP3    H236441   3.700   2.089   2.366  0.2762 -2.8875 -0.7242
 4984TIP3   OH236442   1.383   0.514   4.631  0.5395 -0.2762  0.6505
 4984TIP3    H136443   1.449   0.500   4.699 -0.2773  1.4054  1.8798
 4984TIP3    H236444   1.330   0.434   4.633  0.7014 -0.3774  1.8339
 4985TIP3   OH236445   0.864   6.542  12.215  0.2154 -0.3745 -0.3729
 4985TIP3    H136446   0.824   6.605  12.275 -1.5082 -1.4666 -0.3198
 4985TIP3    H236447   0.926   6.493  12.268 -1.2857 -1.3279  0.5780
 4986TIP3   OH236448   6.519   1.756  13.874  0.4441  0.1457  0.0181
 4986TIP3    H136449   6.568   1.674  13.869  0.7593  0.3200  0.1830
 4986TIP3    H236450   6.579   1.822  13.837  0.7429  0.5353  1.1422
 4987TIP3   OH236451   3.316   0.430   3.963 -0.2160 -0.1780  0.0935
 4987TIP3    H136452   3.234   0.474   3.983  0.6593  1.3018  0.5491
 4987TIP3    H236453   3.323   0.431   3.868 -0.2265  0.6453  0.0998
 4988TIP3   OH236454   3.057   4.762   4.770 -0.3040 -0.1175 -0.1460
 4988TIP3    H136455   2.984   4.789   4.715 -0.1427 -0.7373 -0.6704
 4988TIP3    H236456   3.048   4.667   4.778 -0.9054  0.0477  1.7345
 4989TIP3   OH236457   1.742   3.852  16.670 -0.6566  0.3085  0.0277
 4989TIP3    H136458   1.772   3.941  16.651 -0.8862  0.4030  0.0953
 4989TIP3    H236459   1.796   3.796  16.615 -1.0612  0.5498 -0.6234
 4990TIP3   OH236460   5.629   2.915   5.109  0.5261  0.4150 -0.0059
 4990TIP3    H136461   5.639   2.922   5.014 -0.3882 -1.0651 -0.2343
 4990TIP3    H236462   5.710   2.954   5.143 -0.2340  3.3940 -1.2505
 4991TIP3   OH236463   3.476   4.751   3.552  0.1418  0.1528  0.7433
 4991TIP3    H136464   3.530   4.747   3.631  0.0964  0.6839  0.8041
 4991TIP3    H236465   3.447   4.661   3.538  2.7310 -0.6126 -0.4542
 4992TIP3   OH236466   1.804   1.671   4.047 -0.0430 -0.0842  0.5162
 4992TIP3    H136467   1.896   1.672   4.021 -0.3873  0.6015 -0.7668
 4992TIP3    H236468   1.805   1.641   4.138  1.4239 -0.2924  0.4566
 4993TIP3   OH236469   6.049   3.002  16.456 -0.2582  0.0759 -0.5065
 4993TIP3    H136470   6.053   2.929  16.394 -1.7960 -1.3747  1.0097
 4993TIP3    H236471   6.000   2.968  16.531  0.5562  2.1133  1.0515
 4994TIP3   OH236472   2.111   2.761  14.450  0.3920  0.4667 -0.1516
 4994TIP3    H136473   2.161   2.753  14.531  0.3538  0.8648 -0.0910
 4994TIP3    H236474   2.132   2.848  14.416 -0.4965  0.7589  0.0295
 4995TIP3   OH236475   6.120   3.549   4.699 -0.6743 -0.1632  0.1982
 4995TIP3    H136476   6.106   3.536   4.605  0.6983  0.3295 -0.0899
 4995TIP3    H236477   6.065   3.625   4.721  1.6028  1.9643 -0.9836
 4996TIP3   OH236478   1.407   2.183   2.230 -0.0374 -1.0556  0.0487
 4996TIP3    H136479   1.378   2.173   2.320  0.7112 -0.3345  0.3806
 4996TIP3    H236480   1.501   2.167   2.233  0.3668  1.0709 -0.2282
 4997TIP3   OH236481   0.230   4.968   0.142  0.5186  0.1506  0.0231
 4997TIP3    H136482   0.209   4.890   0.090  1.1618 -0.1826  0.2505
 4997TIP3    H236483   0.323   4.984   0.125  0.0176  1.9318 -1.4182
 4998TIP3   OH236484   1.263   5.505  13.296  0.0830 -0.5563  0.3447
 4998TIP3    H136485   1.194   5.561  13.261 -1.4908 -1.3297  2.0076
 4998TIP3    H236486   1.265   5.429  13.238  1.1425  0.4584 -1.0080
 4999TIP3   OH236487   1.744   5.413  15.253 -0.4265 -0.4109  0.4789
 4999TIP3    H136488   1.814   5.381  15.196  0.2918  0.2491  0.9864
 4999TIP3    H236489   1.685   5.338  15.262  0.4426 -1.1159  0.4216
 5000TIP3   OH236490   2.061   5.934   3.566  0.0069 -0.0425  0.1702
 5000TIP3    H136491   2.044   5.998   3.634  1.3828 -1.5170  2.0083
 5000TIP3    H236492   2.001   5.861   3.585 -0.0780 -0.1961 -0.6253
 5001TIP3   OH236493   0.949   1.151   3.732  0.2038 -0.8171 -0.7687
 5001TIP3    H136494   1.016   1.086   3.714 -0.0487 -1.1490 -0.5071
 5001TIP3    H236495   0.994   1.220   3.780  0.5740 -0.5754 -1.4517
 5002TIP3   OH236496   3.850   0.132  12.055  0.4617 -0.2627 -0.0644
 5002TIP3    H136497   3.839   0.069  12.126  0.6358 -0.6308 -0.3598
 5002TIP3    H236498   3.796   0.207  12.081  0.2487 -0.5327  0.2861
 5003TIP3   OH236499   6.292   0.390   2.856  0.1387 -0.3525 -0.5683
 5003TIP3    H136500   6.298   0.426   2.768 -0.2672 -0.5396 -0.6780
 5003TIP3    H236501   6.285   0.295   2.842 -0.6818 -0.3313 -0.3802
 5004TIP3   OH236502   4.592   6.121  13.262 -0.1257  0.7100  0.0377
 5004TIP3    H136503   4.588   6.025  13.256 -1.4478  0.7351  0.0227
 5004TIP3    H236504   4.539   6.151  13.187 -1.1839  1.3949  1.0233
 5005TIP3   OH236505   0.788   0.477   4.169 -0.5271  0.0390  0.2095
 5005TIP3    H136506   0.830   0.496   4.253 -1.0124  1.5715  0.1536
 5005TIP3    H236507   0.694   0.475   4.189 -0.6654  0.6967 -0.3221
 5006TIP3   OH236508   1.026   0.393   6.436  0.2470 -0.0267  0.1710
 5006TIP3    H136509   1.116   0.362   6.430 -0.1724 -1.1087 -1.0724
 5006TIP3    H236510   0.980   0.323   6.484  0.5459  1.7245  3.2319
 5007TIP3   OH236511   2.173   0.289   0.063  0.1623 -0.0252 -0.0124
 5007TIP3    H136512   2.141   0.325  -0.020  2.3192  0.3745 -0.7313
 5007TIP3    H236513   2.179   0.364   0.121 -0.9773 -0.2457  0.4266
 5008TIP3   OH236514   3.650   5.251  15.303  0.3959 -0.2762  0.3110
 5008TIP3    H136515   3.708   5.312  15.257  1.4136 -1.7940 -0.4945
 5008TIP3    H236516   3.569   5.300  15.316  0.9163  0.9924 -0.9897
 5009TIP3   OH236517   0.809   5.183  11.608  0.4896  0.0603  0.0554
 5009TIP3    H136518   0.720   5.217  11.607  0.7379  0.8123  1.5451
 5009TIP3    H236519   0.804   5.102  11.557 -1.0756  0.0016  0.2566
 5010TIP3   OH236520   5.711   0.561  11.788  0.0856 -0.0383  0.4259
 5010TIP3    H136521   5.639   0.547  11.727 -0.4648  0.6262  0.9102
 5010TIP3    H236522   5.703   0.490  11.852 -0.1374  0.0335  0.4768
 5011TIP3   OH236523   4.371   2.719   3.905 -0.9741  0.1230  0.5605
 5011TIP3    H136524   4.435   2.655   3.873 -2.3405 -1.2519  0.4836
 5011TIP3    H236525   4.424   2.795   3.929  0.5834 -0.5804 -0.4600
 5012TIP3   OH236526   2.864   3.332   6.396  0.3241  0.1024  0.2929
 5012TIP3    H136527   2.782   3.299   6.430  0.2466  1.3907  1.4383
 5012TIP3    H236528   2.884   3.275   6.321 -1.0338 -0.8994  0.6622
 5013TIP3   OH236529   0.310   5.444   0.337 -0.0351 -0.8732 -0.4082
 5013TIP3    H136530   0.225   5.488   0.340  1.2384  1.9490 -2.2319
 5013TIP3    H236531   0.294   5.367   0.282 -1.4750 -0.5933 -0.4329
 5014TIP3   OH236532   5.429   0.485  11.261  0.3589  0.0620  0.4798
 5014TIP3    H136533   5.334   0.481  11.253  0.3981  1.0923 -0.9775
 5014TIP3    H236534   5.461   0.466  11.173  1.3901  1.9951  0.3940
 5015TIP3   OH236535   5.699   1.176  12.128 -0.0117 -0.0803  0.5605
 5015TIP3    H136536   5.741   1.177  12.214  0.0864 -1.2033  0.5511
 5015TIP3    H236537   5.768   1.202  12.067 -0.2072  1.1851  0.8477
 5016TIP3   OH236538   4.473   5.404  11.231  0.3505 -0.4341 -0.6081
 5016TIP3    H136539   4.563   5.373  11.221  0.9494  0.0755  2.2873
 5016TIP3    H236540   4.482   5.492  11.268 -1.2037 -1.3405  2.2520
 5017TIP3   OH236541   2.491   2.263  10.792 -0.4275 -0.1324  0.6595
 5017TIP3    H136542   2.536   2.347  10.805 -0.6581  0.2547 -0.9018
 5017TIP3    H236543   2.533   2.225  10.715 -1.1397 -0.8946  0.6341
 5018TIP3   OH236544   1.275   4.409   0.620 -0.1748 -0.8488 -0.0781
 5018TIP3    H136545   1.243   4.485   0.669 -1.8771 -1.2460 -0.5050
 5018TIP3    H236546   1.318   4.447   0.543 -0.3992 -0.3079  0.0554
 5019TIP3   OH236547   5.346   6.620  12.763 -0.2084 -0.3722  0.2143
 5019TIP3    H136548   5.255   6.627  12.790 -0.1011 -2.0438  1.1758
 5019TIP3    H236549   5.366   6.527  12.768  0.8780 -0.3771 -2.3503
 5020TIP3   OH236550   6.603   1.716   3.824 -0.4139 -1.0036 -0.2970
 5020TIP3    H136551   6.645   1.802   3.824 -3.2671  0.5204 -0.0996
 5020TIP3    H236552   6.577   1.701   3.733  0.2079 -1.7576 -0.3615
 5021TIP3   OH236553   1.019   2.133  11.900 -0.2482 -0.0239 -0.3103
 5021TIP3    H136554   1.010   2.067  11.970 -0.8931  0.7379  0.3467
 5021TIP3    H236555   0.942   2.189  11.910  0.1995  0.7288 -0.9765
 5022TIP3   OH236556   1.562   2.178  14.395 -0.3676  0.0401 -0.6522
 5022TIP3    H136557   1.615   2.119  14.342 -0.0743 -1.5633  1.2894
 5022TIP3    H236558   1.572   2.264  14.354  2.9836 -0.3628 -0.9103
 5023TIP3   OH236559   3.927   4.284   2.424 -0.3352 -0.8041 -0.0737
 5023TIP3    H136560   3.907   4.352   2.489  0.1413 -0.7346  0.0024
 5023TIP3    H236561   4.023   4.279   2.423 -0.3349 -0.7389 -0.8372
 5024TIP3   OH236562   4.098   4.079   0.902  0.4158 -0.1718  0.4625
 5024TIP3    H136563   4.087   4.072   0.807  2.8515  0.3738  0.0793
 5024TIP3    H236564   4.157   4.007   0.924  0.8959  0.4932  1.3711
 5025TIP3   OH236565   0.598   0.476   1.290  0.5185 -0.0405 -0.0821
 5025TIP3    H136566   0.680   0.516   1.259  0.8438 -0.2682  0.4801
 5025TIP3    H236567   0.575   0.413   1.221  2.0510 -1.6432  0.7949
 5026TIP3   OH236568   3.987   1.200  16.542  0.1185  0.0601 -0.2883
 5026TIP3    H136569   4.054   1.268  16.533  0.1960  0.1549  0.8377
 5026TIP3    H236570   3.907   1.241  16.511  0.3293  0.3889 -0.4020
 5027TIP3   OH236571   2.422   3.824   1.391 -0.2587  0.4199 -0.2851
 5027TIP3    H136572   2.513   3.814   1.363  0.0129  2.2212 -0.1204
 5027TIP3    H236573   2.374   3.759   1.339  1.0469 -0.2709 -0.6668
 5028TIP3   OH236574   2.837   4.517  12.966 -0.1864  0.0426 -0.5686
 5028TIP3    H136575   2.914   4.543  13.015 -0.8855  1.6498 -0.2418
 5028TIP3    H236576   2.763   4.556  13.013 -1.4404 -2.9182  0.1645
 5029TIP3   OH236577   3.070   0.844  12.718  0.5461 -0.5837  0.5735
 5029TIP3    H136578   3.006   0.780  12.687  0.7932 -0.4903 -0.1331
 5029TIP3    H236579   3.049   0.924  12.670  0.7280 -0.3458  0.8899
 5030TIP3   OH236580   4.887   3.443   2.655 -0.5819  0.5514 -0.0491
 5030TIP3    H136581   4.798   3.459   2.623 -0.3561  0.1978 -0.8698
 5030TIP3    H236582   4.914   3.361   2.614  1.0261  1.8694 -1.7993
 5031TIP3   OH236583   1.561   2.643   0.833 -0.0917 -0.1585 -0.4287
 5031TIP3    H136584   1.515   2.560   0.843  1.4231 -0.9361  0.4747
 5031TIP3    H236585   1.637   2.621   0.779 -0.1780  0.8629 -0.9846
 5032TIP3   OH236586   3.824   5.976   4.381 -0.6804  0.7756  0.0559
 5032TIP3    H136587   3.755   5.918   4.348  0.1876  0.4123 -1.2095
 5032TIP3    H236588   3.855   5.933   4.460 -0.5048 -0.1526 -0.4994
 5033TIP3   OH236589   4.327   6.661   6.125  0.0544 -0.4143 -0.1099
 5033TIP3    H136590   4.401   6.605   6.151  0.6072 -0.2293 -1.1970
 5033TIP3    H236591   4.285   6.685   6.207  1.6538  0.0840  0.6014
 5034TIP3   OH236592   3.516   3.283  12.045  0.5600  0.0719 -0.4090
 5034TIP3    H136593   3.545   3.227  12.117 -1.8735  1.3299  1.7726
 5034TIP3    H236594   3.567   3.364  12.056  2.8139 -0.9791 -2.4703
 5035TIP3   OH236595   1.978   5.683   2.337  0.2039 -0.2269 -0.2632
 5035TIP3    H136596   1.890   5.702   2.305  0.2223 -0.1577 -0.2735
 5035TIP3    H236597   2.024   5.650   2.260  0.1140 -0.5039 -0.1982
 5036TIP3   OH236598   2.968   3.910  16.807  0.7493 -0.3453 -0.8188
 5036TIP3    H136599   2.911   3.895  16.732 -0.4029  0.7997 -0.2097
 5036TIP3    H236600   2.915   3.959  16.869  3.1603  3.2507 -1.3138
 5037TIP3   OH236601   3.754   6.685   3.140  0.0211  0.0316  0.2120
 5037TIP3    H136602   3.668   6.679   3.100  0.0767 -0.2877  0.1340
 5037TIP3    H236603   3.809   6.726   3.074  0.4581 -1.7958 -0.6315
 5038TIP3   OH236604   1.991   0.865  14.207  0.4785  0.2462  0.5108
 5038TIP3    H136605   2.043   0.924  14.153  1.2151 -0.6492  0.2224
 5038TIP3    H236606   2.023   0.879  14.296  0.2661  0.6706  0.5238
 5039TIP3   OH236607   1.999   2.839   6.675 -0.2211 -0.6325  0.4751
 5039TIP3    H136608   1.942   2.898   6.724  0.7471  0.9939 -0.3110
 5039TIP3    H236609   2.087   2.871   6.692  0.2483 -1.1078 -0.9595
 5040TIP3   OH236610   0.222   0.560   5.332 -0.6097 -0.5222  0.0673
 5040TIP3    H136611   0.201   0.652   5.316  0.6058 -0.4840 -1.6031
 5040TIP3    H236612   0.296   0.563   5.392  0.2491 -0.3168 -0.9579
 5041TIP3   OH236613   1.201   3.869  14.740  0.4059 -0.1332  0.3876
 5041TIP3    H136614   1.212   3.883  14.646 -4.1802  0.3723 -0.3099
 5041TIP3    H236615   1.251   3.940  14.780 -0.2812  1.8287 -1.9067
 5042TIP3   OH236616   4.949   1.260   5.084  0.2954 -0.0764  0.9055
 5042TIP3    H136617   4.921   1.205   5.157  0.0424  0.1061  0.9491
 5042TIP3    H236618   5.042   1.241   5.073  0.4021  0.1120  1.4618
 5043TIP3   OH236619   6.213   4.874   5.145  0.3057 -0.3077 -0.0158
 5043TIP3    H136620   6.221   4.796   5.091  0.2684 -0.5875  0.3755
 5043TIP3    H236621   6.164   4.845   5.222  0.7505 -0.0285  0.3819
 5044TIP3   OH236622   0.438   6.834  12.988 -0.6518 -0.0200  0.5355
 5044TIP3    H136623   0.485   6.915  13.008  1.5213 -1.0096 -0.1555
 5044TIP3    H236624   0.355   6.841  13.035  0.4914  1.5455  2.4687
 5045TIP3   OH236625   4.538   1.521   0.824  0.1487 -0.0381  0.1838
 5045TIP3    H136626   4.596   1.459   0.868  0.3209 -0.4147 -0.5607
 5045TIP3    H236627   4.478   1.551   0.893  0.9819  0.0736  0.8813
 5046TIP3   OH236628   5.409   3.393   1.379  0.0419 -0.4676  0.2750
 5046TIP3    H136629   5.431   3.348   1.297 -1.3677 -0.9275  0.1192
 5046TIP3    H236630   5.488   3.442   1.401  0.7788 -1.0856 -0.8549
 5047TIP3   OH236631   4.448   6.031  12.026 -0.6860 -0.3175  0.6406
 5047TIP3    H136632   4.431   6.096  12.094 -0.2006  0.1266  0.3430
 5047TIP3    H236633   4.531   5.990  12.052  0.0406  0.5711 -0.2153
 5048TIP3   OH236634   6.657   4.883   4.417  0.2649 -0.1317  0.2898
 5048TIP3    H136635   6.651   4.893   4.322  0.9598 -0.5203  0.1961
 5048TIP3    H236636   6.641   4.970   4.451 -1.4651 -0.2525 -0.0946
 5049TIP3   OH236637   6.538   2.839   2.521  0.1537  0.0479  0.0937
 5049TIP3    H136638   6.609   2.792   2.565  0.0709 -0.5825 -0.4404
 5049TIP3    H236639   6.547   2.930   2.551  0.7064 -0.1825  0.6327
 5050TIP3   OH236640   3.975   0.925  16.943 -0.3233  0.0615  0.6078
 5050TIP3    H136641   3.880   0.912  16.952 -0.4357  0.3740 -0.0930
 5050TIP3    H236642   3.985   1.020  16.938 -0.0347  0.0023  0.0192
 5051TIP3   OH236643   3.439   1.560  11.031  0.0466 -0.6252 -0.1625
 5051TIP3    H136644   3.446   1.652  11.055  0.4838 -0.7448  0.1754
 5051TIP3    H236645   3.377   1.559  10.958 -1.4372 -0.2637  1.0291
 5052TIP3   OH236646   0.758   2.064   0.593 -0.2698  0.4569  0.0627
 5052TIP3    H136647   0.826   2.013   0.637 -1.2080 -1.4962 -0.6236
 5052TIP3    H236648   0.804   2.140   0.557  0.8350  1.1876  2.8151
 5053TIP3   OH236649   2.929   2.184  12.231 -0.1180  0.3772 -0.4526
 5053TIP3    H136650   2.877   2.154  12.306  2.5998 -0.4250  1.2329
 5053TIP3    H236651   2.938   2.279  12.245  1.3696  0.0631  0.9724
 5054TIP3   OH236652   5.645   1.341  10.471  0.4162 -0.1490  0.1746
 5054TIP3    H136653   5.716   1.281  10.496 -1.0517 -1.6694  0.8696
 5054TIP3    H236654   5.622   1.385  10.553 -0.3322 -0.6812  0.2647
 5055TIP3   OH236655   4.859   3.135  11.464  0.2135 -0.2960 -0.2312
 5055TIP3    H136656   4.824   3.122  11.552 -2.4313 -0.9339 -1.3017
 5055TIP3    H236657   4.946   3.173  11.478  0.2415 -1.2470  2.6482
 5056TIP3   OH236658   0.103   3.434  12.695  0.3093  0.2038 -0.3965
 5056TIP3    H136659   0.119   3.344  12.664  0.8307  0.7066 -1.6792
 5056TIP3    H236660   0.104   3.427  12.790  0.9683 -1.0489 -0.4680
 5057TIP3   OH236661   1.158   0.265  15.068  0.1107 -0.1373 -0.4108
 5057TIP3    H136662   1.125   0.342  15.023 -1.8728  1.2537  3.0276
 5057TIP3    H236663   1.090   0.199  15.056  0.6855 -0.5872 -1.3258
 5058TIP3   OH236664   4.595   5.249  14.696  0.1591  0.4034  0.2196
 5058TIP3    H136665   4.540   5.328  14.699  0.2732  0.4834  0.2256
 5058TIP3    H236666   4.671   5.276  14.644  0.5476  0.5159  0.8401
 5059TIP3   OH236667   4.251   0.468  16.701  0.1511 -0.2460 -0.0707
 5059TIP3    H136668   4.308   0.545  16.708  1.7689 -1.1072 -2.5472
 5059TIP3    H236669   4.197   0.471  16.781 -0.5331  3.9182 -0.4611
 5060TIP3   OH236670   4.711   1.685   5.629  0.5145 -0.5472  0.3329
 5060TIP3    H136671   4.749   1.730   5.705  2.2516 -0.8070 -0.3398
 5060TIP3    H236672   4.624   1.725   5.619  1.2784  1.3935  0.8435
 5061TIP3   OH236673   1.598   4.523  11.066  0.0700  0.8023 -0.8883
 5061TIP3    H136674   1.644   4.504  11.148  1.2614  0.1831 -1.6693
 5061TIP3    H236675   1.506   4.532  11.092  0.5133  1.4036  0.6249
 5062TIP3   OH236676   0.662   2.652   5.001 -0.3412 -0.0818 -0.3251
 5062TIP3    H136677   0.648   2.562   5.030  0.5321  0.4623  2.0695
 5062TIP3    H236678   0.715   2.692   5.071 -2.2248  2.7925 -0.3552
 5063TIP3   OH236679   6.655   2.426  15.505  0.1708 -0.5170 -0.5395
 5063TIP3    H136680   6.601   2.363  15.551 -0.5393  0.1716 -0.4085
 5063TIP3    H236681   6.699   2.476  15.574 -0.5119  0.1855 -0.5925
 5064TIP3   OH236682   0.049   1.754   5.552 -0.0211  0.0371 -0.2965
 5064TIP3    H136683   0.065   1.814   5.624  1.1851  1.6600 -1.8207
 5064TIP3    H236684  -0.039   1.719   5.568 -0.8421  2.3396  0.5780
 5065TIP3   OH236685   6.052   4.933   3.728 -0.2994 -1.0141 -0.1460
 5065TIP3    H136686   6.122   4.995   3.749 -1.8383  0.5178  0.7297
 5065TIP3    H236687   6.033   4.889   3.810 -0.8591 -0.8835 -0.2027
 5066TIP3   OH236688   2.255   6.305   2.181 -0.6785  0.5459  0.0689
 5066TIP3    H136689   2.224   6.339   2.097 -1.1430 -0.0271  0.0024
 5066TIP3    H236690   2.193   6.235   2.203  0.6684 -0.7575 -0.1532
 5067TIP3   OH236691   1.159   4.402  17.135  0.0088 -0.0010  0.0514
 5067TIP3    H136692   1.231   4.466  17.133 -0.6925  0.8176  0.4190
 5067TIP3    H236693   1.080   4.455  17.132 -0.6247 -0.9619 -2.5382
 5068TIP3   OH236694   5.307   5.342   5.180  0.0200 -0.7963 -0.1129
 5068TIP3    H136695   5.228   5.296   5.150 -2.5920  1.0890  3.2029
 5068TIP3    H236696   5.318   5.413   5.116 -2.0362 -0.1245  0.1814
 5069TIP3   OH236697   6.178   2.099   2.358 -0.2938  0.0601 -0.2768
 5069TIP3    H136698   6.121   2.085   2.434  0.1665 -2.4500 -0.2997
 5069TIP3    H236699   6.254   2.044   2.375  1.1750  1.6769 -1.2608
 5070TIP3   OH236700   1.259   1.148   0.306 -0.0657  0.6837 -0.3431
 5070TIP3    H136701   1.334   1.088   0.299 -0.0942  0.5327  0.5407
 5070TIP3    H236702   1.269   1.189   0.392 -1.0206  0.6360 -0.2006
 5071TIP3   OH236703   6.377   2.006   3.232  0.3747  0.0187 -0.1082
 5071TIP3    H136704   6.420   1.920   3.235 -0.9288 -0.7708 -2.1521
 5071TIP3    H236705   6.302   1.997   3.290  0.5555 -0.0285  0.1203
 5072TIP3   OH236706   6.530   5.290   0.761  0.0041 -0.0180  0.0948
 5072TIP3    H136707   6.625   5.294   0.771 -0.0374 -2.0974  2.2322
 5072TIP3    H236708   6.516   5.268   0.669  1.5780  0.5977 -0.3085
 5073TIP3   OH236709   5.465   4.125  12.688  0.0528 -0.4020  0.6587
 5073TIP3    H136710   5.527   4.072  12.637 -0.4046 -0.2227 -0.1019
 5073TIP3    H236711   5.499   4.122  12.777 -0.1427 -2.2927  0.7168
 5074TIP3   OH236712   4.895   0.075  14.897 -0.2631  0.0943 -0.2333
 5074TIP3    H136713   4.945   0.023  14.834 -0.8543 -2.0481  0.9475
 5074TIP3    H236714   4.939   0.160  14.899  1.7866 -0.8788 -1.0603
 5075TIP3   OH236715   4.103   6.666   0.217  0.0038 -0.1729  0.1690
 5075TIP3    H136716   4.198   6.651   0.209  0.1688  0.7815  0.2785
 5075TIP3    H236717   4.093   6.760   0.208 -0.9888 -0.3111 -0.2298
 5076TIP3   OH236718   4.354   3.524   1.363  0.0928 -1.4053  0.6466
 5076TIP3    H136719   4.419   3.456   1.347  1.0397 -0.5985  1.0017
 5076TIP3    H236720   4.393   3.604   1.328 -1.5812 -1.2520 -1.0257
 5077TIP3   OH236721   1.021   3.000  13.734  0.5448  0.0045  0.4689
 5077TIP3    H136722   1.053   2.943  13.665 -0.9022  0.6483 -0.7991
 5077TIP3    H236723   1.071   3.081  13.724  1.8909 -0.6364  1.6325
 5078TIP3   OH236724   5.058   5.272  13.943 -0.5976  0.2277 -0.1653
 5078TIP3    H136725   5.118   5.260  13.870 -0.1566  1.1196  0.0313
 5078TIP3    H236726   4.976   5.302  13.903 -0.7872 -0.5599 -0.3942
 5079TIP3   OH236727   1.062   4.723   2.446  0.1373 -0.0658 -0.5139
 5079TIP3    H136728   1.096   4.775   2.373  1.4259  0.8540  0.6818
 5079TIP3    H236729   1.140   4.684   2.486 -0.4549  0.1245  0.8727
 5080TIP3   OH236730   4.431   4.841   1.824  0.1826 -0.3140  0.2072
 5080TIP3    H136731   4.481   4.820   1.745 -0.3289 -0.4756 -0.0760
 5080TIP3    H236732   4.474   4.920   1.859 -0.0129  0.1716 -0.6155
 5081TIP3   OH236733   2.871   4.550  13.778 -0.6940 -0.3232  0.2550
 5081TIP3    H136734   2.966   4.565  13.783 -0.6991  0.1316 -0.7911
 5081TIP3    H236735   2.862   4.454  13.778 -0.2049 -0.3735  0.0629
 5082TIP3   OH236736   4.232   1.477  13.266  0.1006 -0.4618  0.6193
 5082TIP3    H136737   4.150   1.489  13.314 -0.7441 -1.4659 -0.5027
 5082TIP3    H236738   4.288   1.549  13.295 -0.0976 -1.3812  3.5852
 5083TIP3   OH236739   4.094   3.912  13.209 -0.0640 -0.9663  0.1115
 5083TIP3    H136740   4.101   3.976  13.138 -0.9296 -0.0679  0.8103
 5083TIP3    H236741   4.119   3.960  13.288 -0.6495 -1.4910  0.6322
 5084TIP3   OH236742   1.503   1.222  10.434 -0.0201  0.0315  0.6426
 5084TIP3    H136743   1.502   1.140  10.483  1.1510 -0.1157  0.4540
 5084TIP3    H236744   1.588   1.262  10.456 -0.6500  1.3018  0.9012
 5085TIP3   OH236745   6.014   2.008  13.958  0.2219  0.2861 -0.5350
 5085TIP3    H136746   6.016   1.961  13.875  2.7533  2.2435 -1.6981
 5085TIP3    H236747   5.961   2.086  13.940 -0.8198 -0.2048  0.2901
 5086TIP3   OH236748   0.083   6.110   4.994  0.0979 -0.3595 -0.6101
 5086TIP3    H136749   0.082   6.181   5.059  2.1937 -2.0712  1.4864
 5086TIP3    H236750   0.138   6.143   4.923 -1.2350  1.0964 -1.0222
 5087TIP3   OH236751   3.423   5.484   4.923  0.2072  0.2862  0.2256
 5087TIP3    H136752   3.343   5.443   4.956 -0.4816  0.5210 -1.0899
 5087TIP3    H236753   3.433   5.562   4.977  0.3689 -0.4970  1.3584
 5088TIP3   OH236754   0.761   1.335  12.094  0.1268  0.2013 -0.0800
 5088TIP3    H136755   0.673   1.344  12.057 -0.1356  2.0860  0.9146
 5088TIP3    H236756   0.748   1.342  12.189  1.3146  0.2068  0.0973
 5089TIP3   OH236757   3.301   1.362   4.213  0.3978 -0.1452  0.2753
 5089TIP3    H136758   3.320   1.364   4.307 -1.0186  1.9683  0.5909
 5089TIP3    H236759   3.282   1.270   4.195  1.6570 -0.7555  1.8315
 5090TIP3   OH236760   2.495   4.113  10.385 -0.0446  0.6465 -0.3861
 5090TIP3    H136761   2.407   4.085  10.359  1.4310 -3.6053 -1.7209
 5090TIP3    H236762   2.547   4.108  10.304  1.8169  1.1831  0.6962
 5091TIP3   OH236763   0.850   5.174  16.431 -1.1211  0.0219  0.1477
 5091TIP3    H136764   0.924   5.214  16.476 -0.3883  2.1823 -2.7322
 5091TIP3    H236765   0.773   5.220  16.465 -0.6486  1.1641 -0.2944
 5092TIP3   OH236766   1.109   5.579   4.637 -0.0082 -0.0462 -0.2668
 5092TIP3    H136767   1.140   5.488   4.628  2.5314  0.7495 -0.3995
 5092TIP3    H236768   1.082   5.586   4.729  0.2786 -0.7983 -0.1171
 5093TIP3   OH236769   4.677   5.055  13.498 -0.1587  0.5009 -0.2163
 5093TIP3    H136770   4.592   5.035  13.457 -0.0393  0.5628 -0.4984
 5093TIP3    H236771   4.740   5.044  13.427  0.2349 -0.9139  0.3184
 5094TIP3   OH236772   2.667   4.692   6.556 -0.0481  0.4070 -0.3588
 5094TIP3    H136773   2.702   4.622   6.500  0.0245 -1.5800  2.0030
 5094TIP3    H236774   2.743   4.723   6.605 -0.6202 -0.3173  1.0611
 5095TIP3   OH236775   2.605   0.063  15.244  0.9407  0.2439  0.4481
 5095TIP3    H136776   2.609  -0.010  15.306  1.8812  0.4733  0.6835
 5095TIP3    H236777   2.542   0.036  15.178 -2.2455  1.1023  2.8729
 5096TIP3   OH236778   0.065   5.521  11.895 -0.2638  0.2747  0.2176
 5096TIP3    H136779  -0.029   5.536  11.880 -0.3657 -0.5114  0.0007
 5096TIP3    H236780   0.084   5.442  11.844  0.1278 -0.5856  1.6596
 5097TIP3   OH236781   5.562   0.376   2.036 -0.6294 -0.1925  0.4740
 5097TIP3    H136782   5.652   0.382   2.070 -0.6731 -0.4993  0.6411
 5097TIP3    H236783   5.571   0.401   1.943 -0.1671 -1.3992  0.1772
 5098TIP3   OH236784   6.184   2.249  13.587  0.3331 -1.0343  0.2591
 5098TIP3    H136785   6.261   2.222  13.537  1.4829 -0.5727  1.7187
 5098TIP3    H236786   6.205   2.338  13.617 -1.7392  0.0682 -1.1973
 5099TIP3   OH236787   0.044   3.422  17.085 -0.9644  0.1046  0.3571
 5099TIP3    H136788   0.128   3.409  17.131 -0.7433 -2.0257 -0.5510
 5099TIP3    H236789   0.032   3.342  17.034 -2.0439  1.6595 -1.9886
 5100TIP3   OH236790   5.713   1.328   1.655  0.0422 -0.0757 -0.0425
 5100TIP3    H136791   5.682   1.417   1.639  0.5822  0.2305  0.6108
 5100TIP3    H236792   5.697   1.282   1.572 -0.7201  0.4840 -0.2119
 5101TIP3   OH236793   6.574   4.245  12.024  0.4139 -0.0858 -0.0104
 5101TIP3    H136794   6.629   4.263  11.947 -0.5148  1.8594 -0.2707
 5101TIP3    H236795   6.525   4.326  12.038 -0.5474 -0.9208  1.7402
 5102TIP3   OH236796   3.800   0.398  11.598 -0.8146  0.1825  0.3624
 5102TIP3    H136797   3.776   0.423  11.687 -2.7731 -0.2508  0.0196
 5102TIP3    H236798   3.769   0.470  11.543  0.4672  0.4928  0.0148
 5103TIP3   OH236799   4.629   5.362   1.766 -0.1246  0.0389 -0.1359
 5103TIP3    H136800   4.691   5.376   1.695  0.3473  1.7385  0.5367
 5103TIP3    H236801   4.637   5.441   1.820 -0.4981 -1.1500  1.7641
 5104TIP3   OH236802   0.316   5.086   0.900 -0.2901 -0.3754  0.1994
 5104TIP3    H136803   0.379   5.136   0.951  0.4479 -1.7481  0.7122
 5104TIP3    H236804   0.319   4.998   0.938 -1.4558 -0.8495 -0.7128
 5105TIP3   OH236805   5.369   3.562  16.634 -0.2782  0.0839 -0.1735
 5105TIP3    H136806   5.383   3.571  16.729 -0.8664  1.8630 -0.2187
 5105TIP3    H236807   5.437   3.617  16.595 -1.8987  1.8606 -0.6480
 5106TIP3   OH236808   4.347   1.399   2.791 -0.0335 -0.0061  0.1546
 5106TIP3    H136809   4.436   1.369   2.772  0.7777  1.6512  1.1406
 5106TIP3    H236810   4.337   1.387   2.886 -0.1108  1.6918  0.3793
 5107TIP3   OH236811   3.356   4.551   6.526 -0.1274 -1.1137  0.7450
 5107TIP3    H136812   3.338   4.508   6.443  0.9891  0.1911 -0.2181
 5107TIP3    H236813   3.448   4.531   6.544  0.4651  0.8520  0.2054
 5108TIP3   OH236814   0.178   4.655   2.746  0.1444 -0.3042 -0.0556
 5108TIP3    H136815   0.162   4.581   2.805  3.2052  1.1029  2.7974
 5108TIP3    H236816   0.245   4.622   2.685  0.9074 -0.1823  0.6984
 5109TIP3   OH236817   3.120   3.788   1.020  0.0567  0.3606 -0.2629
 5109TIP3    H136818   3.195   3.751   0.972  0.8815  1.0141  0.4741
 5109TIP3    H236819   3.113   3.734   1.099 -1.6031 -1.0164 -1.2825
 5110TIP3   OH236820   2.025   0.993  15.718 -0.2781  1.1645  0.2145
 5110TIP3    H136821   2.085   1.063  15.691  0.6251  0.0596 -0.7612
 5110TIP3    H236822   1.964   0.985  15.645  0.6955 -0.2119 -0.4825
 5111TIP3   OH236823   1.664   5.294   5.631 -0.8738 -0.5551 -0.7548
 5111TIP3    H136824   1.620   5.279   5.547  1.3976 -1.9607 -1.7729
 5111TIP3    H236825   1.693   5.207   5.659 -0.2363  0.1000  0.7328
 5112TIP3   OH236826   3.230   2.969  16.664  0.3331 -0.9433  0.1800
 5112TIP3    H136827   3.241   2.938  16.574 -1.7434 -1.0922 -0.0782
 5112TIP3    H236828   3.239   2.890  16.718 -0.3762 -1.2172 -0.0883
 5113TIP3   OH236829   1.347   3.227  16.772  0.8434  0.0701 -0.0062
 5113TIP3    H136830   1.314   3.139  16.753 -2.0908  1.3332 -1.4559
 5113TIP3    H236831   1.416   3.241  16.708  1.5157 -1.2373  0.4038
 5114TIP3   OH236832   0.237   2.382  14.413 -0.0057  0.3850 -0.3532
 5114TIP3    H136833   0.274   2.414  14.331  1.2821  0.0393  0.0823
 5114TIP3    H236834   0.156   2.338  14.387 -0.4345  1.6418 -1.2484
 5115TIP3   OH236835   2.257   5.351  16.484 -0.0040 -0.1627 -0.5026
 5115TIP3    H136836   2.291   5.371  16.571 -0.5990  0.1611 -0.3317
 5115TIP3    H236837   2.162   5.348  16.496 -0.0431 -0.9683 -0.9742
 5116TIP3   OH236838   4.141   5.712  15.494 -0.1520 -0.2704 -0.4104
 5116TIP3    H136839   4.186   5.628  15.490  1.7654  0.4988  2.1820
 5116TIP3    H236840   4.080   5.703  15.567  0.5866  0.7728  0.3566
 5117TIP3   OH236841   6.038   6.030   1.257 -0.1925 -0.0674  0.3458
 5117TIP3    H136842   6.116   6.081   1.282 -0.0256 -0.1839  0.0629
 5117TIP3    H236843   6.058   5.997   1.170 -0.5447 -0.1352  0.2918
 5118TIP3   OH236844   3.053   0.188  13.317 -0.1134 -0.4392  0.2325
 5118TIP3    H136845   3.072   0.098  13.290 -2.2383 -0.6922 -0.6606
 5118TIP3    H236846   3.133   0.218  13.360  1.1872 -2.2319 -0.7878
 5119TIP3   OH236847   3.204   4.713   2.939  0.2212  0.4896  0.6164
 5119TIP3    H136848   3.217   4.642   3.002  1.0864  2.7173  3.1849
 5119TIP3    H236849   3.122   4.693   2.895  1.3328 -2.9651 -0.1627
 5120TIP3   OH236850   2.154   6.547   6.321 -0.2569  0.9142 -0.3192
 5120TIP3    H136851   2.214   6.619   6.341  0.1302  0.9149 -1.4116
 5120TIP3    H236852   2.209   6.480   6.280 -0.4752 -0.3506  1.3511
 5121TIP3   OH236853   3.155   5.838  16.153 -0.3033  0.3189 -0.2397
 5121TIP3    H136854   3.102   5.766  16.118  0.4692 -0.0732 -0.6488
 5121TIP3    H236855   3.245   5.804  16.152  0.2087  1.5764 -1.2622
 5122TIP3   OH236856   6.120   4.632   2.484  0.1174  0.3676  0.5468
 5122TIP3    H136857   6.202   4.635   2.435 -0.4482 -0.7025 -0.5083
 5122TIP3    H236858   6.080   4.718   2.468  0.1698  0.2136 -0.4777
 5123TIP3   OH236859   0.143   1.198  14.132 -0.2461 -0.0272  0.0881
 5123TIP3    H136860   0.139   1.178  14.226  0.5875  0.1119  0.1547
 5123TIP3    H236861   0.200   1.131  14.095  1.0127  1.0559  0.0048
 5124TIP3   OH236862   1.003   1.610   3.222  0.2002  0.4196  0.2443
 5124TIP3    H136863   1.058   1.539   3.189  1.1007  1.0484  0.3751
 5124TIP3    H236864   0.925   1.566   3.256  0.1794 -0.4047 -0.8213
 5125TIP3   OH236865   4.214   2.566   0.481 -0.1660  0.2273  0.0529
 5125TIP3    H136866   4.141   2.532   0.429  1.8060 -0.2910 -2.5684
 5125TIP3    H236867   4.224   2.656   0.450  0.0601  0.4167  0.6770
 5126TIP3   OH236868   2.772   6.366   6.613  0.0949  0.3664  0.6530
 5126TIP3    H136869   2.751   6.313   6.537 -0.0872  1.7489 -0.3087
 5126TIP3    H236870   2.715   6.334   6.682 -0.4372 -0.2711 -0.0688
 5127TIP3   OH236871   6.627   2.504   1.174  0.7578 -0.5605  0.9972
 5127TIP3    H136872   6.572   2.582   1.163  1.2699 -0.0920  1.6397
 5127TIP3    H236873   6.586   2.438   1.119 -1.2631 -0.6447  2.4774
 5128TIP3   OH236874   5.008   3.429  11.547  0.3863  0.3294  0.2504
 5128TIP3    H136875   4.916   3.451  11.560  0.4728  1.6561 -1.0780
 5128TIP3    H236876   5.027   3.365  11.616 -1.5477 -0.0980  0.4572
 5129TIP3   OH236877   2.344   3.050  11.655 -0.3126 -0.0092  0.4216
 5129TIP3    H136878   2.333   2.958  11.681  0.1923 -0.0445  0.5238
 5129TIP3    H236879   2.438   3.059  11.640 -0.4422  0.3340 -0.1970
 5130TIP3   OH236880   6.257   1.394  15.416 -0.5725 -0.3026  0.1851
 5130TIP3    H136881   6.224   1.305  15.406  1.5334 -1.0716 -0.7380
 5130TIP3    H236882   6.202   1.434  15.483 -0.2630 -3.0065  2.2141
 5131TIP3   OH236883   3.486   1.543  11.479 -0.4288 -0.0813  0.3854
 5131TIP3    H136884   3.538   1.594  11.418 -1.1062  0.3302  0.1388
 5131TIP3    H236885   3.496   1.588  11.563 -0.4826  0.0731  0.3107
 5132TIP3   OH236886   1.087   3.450   0.651  0.6604  0.1306  0.2867
 5132TIP3    H136887   1.067   3.467   0.559  1.4136 -2.1099 -0.3576
 5132TIP3    H236888   1.133   3.529   0.681 -1.5026  1.8090 -0.5836
 5133TIP3   OH236889   4.438   4.637   2.024  0.3885 -0.0927 -0.3043
 5133TIP3    H136890   4.391   4.589   1.956 -2.4827  0.9652  0.8181
 5133TIP3    H236891   4.465   4.718   1.981 -0.7831  0.2603 -0.3971
 5134TIP3   OH236892   1.148   5.292   0.980  0.3377  0.4577 -0.2729
 5134TIP3    H136893   1.076   5.354   0.973  1.3903  1.8731  0.9583
 5134TIP3    H236894   1.206   5.315   0.907  0.5080  0.6116 -0.0877
 5135TIP3   OH236895   4.518   3.978  14.557  0.4462 -0.6168 -0.2192
 5135TIP3    H136896   4.541   3.948  14.645 -2.6046  1.9398  1.6833
 5135TIP3    H236897   4.545   4.070  14.556  1.1360 -0.7932 -2.3203
 5136TIP3   OH236898   3.594   5.720   1.315  0.2155  0.4932 -0.5446
 5136TIP3    H136899   3.592   5.652   1.249  1.3091  0.7684 -0.8842
 5136TIP3    H236900   3.678   5.764   1.302  0.2463  0.8611  0.7136
 5137TIP3   OH236901   1.700   0.555  11.736 -0.0568 -0.0831 -0.1446
 5137TIP3    H136902   1.631   0.498  11.702 -0.0134 -0.3563  0.2180
 5137TIP3    H236903   1.735   0.508  11.812 -0.0324  0.4297  0.1675
 5138TIP3   OH236904   1.825   0.354  15.616 -0.2297  0.3573 -0.5612
 5138TIP3    H136905   1.877   0.293  15.667  0.8233  2.7871  1.4772
 5138TIP3    H236906   1.880   0.432  15.608 -2.1623  1.7230 -1.5084
 5139TIP3   OH236907   0.728   5.494  14.988  1.3566 -1.0019 -0.1480
 5139TIP3    H136908   0.685   5.555  15.048 -0.0554 -2.7738  0.7842
 5139TIP3    H236909   0.780   5.549  14.930 -2.0888  1.3775 -1.3056
 5140TIP3   OH236910   3.535   1.972  10.785 -0.2966  0.1671  0.0371
 5140TIP3    H136911   3.601   2.039  10.766  0.0071 -0.5210 -1.4842
 5140TIP3    H236912   3.451   2.019  10.778 -0.0705  0.4883 -0.5901
 5141TIP3   OH236913   5.664   3.639   0.190  0.1366 -0.3974 -0.3270
 5141TIP3    H136914   5.659   3.575   0.261 -0.2554 -0.3202 -0.2834
 5141TIP3    H236915   5.670   3.724   0.233  0.6310 -0.3985 -0.3855
 5142TIP3   OH236916   3.282   3.635   2.900 -0.1659  0.1199 -0.0036
 5142TIP3    H136917   3.197   3.631   2.857 -0.3582  0.2893  0.3574
 5142TIP3    H236918   3.262   3.629   2.994  0.1633  0.8929  0.1192
 5143TIP3   OH236919   3.529   5.079  16.635 -0.4485 -0.1174 -0.5580
 5143TIP3    H136920   3.584   5.008  16.601 -2.7611 -1.5208 -1.5831
 5143TIP3    H236921   3.498   5.125  16.557 -0.4132  0.9533  0.0305
 5144TIP3   OH236922   3.491   6.341  13.609 -0.0211 -0.3315  0.0776
 5144TIP3    H136923   3.475   6.247  13.602  4.3418 -1.3009 -0.0227
 5144TIP3    H236924   3.548   6.350  13.686 -0.9961  2.3989  0.6037
 5145TIP3   OH236925   1.912   1.972  11.895 -0.1135  0.0516 -0.2046
 5145TIP3    H136926   1.892   1.970  11.989  2.6065  0.1339  0.4561
 5145TIP3    H236927   1.837   2.017  11.856 -3.1013 -3.1970  1.3386
 5146TIP3   OH236928   0.235   3.609   4.326  0.0430  0.2526  0.3845
 5146TIP3    H136929   0.218   3.564   4.409  0.0837 -0.1349  0.1840
 5146TIP3    H236930   0.160   3.586   4.271  0.2866  0.0688  0.1295
 5147TIP3   OH236931   2.184   3.655   3.162  0.4088 -0.5682 -0.5902
 5147TIP3    H136932   2.211   3.564   3.147  0.0928 -0.4726 -1.8495
 5147TIP3    H236933   2.179   3.693   3.075 -1.0358  0.2024 -0.2106
 5148TIP3   OH236934   2.671   1.048   1.803  0.1317 -0.1160  0.1300
 5148TIP3    H136935   2.617   0.975   1.770  0.9363 -1.4512  1.5972
 5148TIP3    H236936   2.609   1.103   1.850 -0.8320  1.2385 -2.5303
 5149TIP3   OH236937   6.311   3.399   4.812  0.1886  0.3704  0.3473
 5149TIP3    H136938   6.329   3.335   4.742 -1.8812  0.0041  0.0754
 5149TIP3    H236939   6.263   3.469   4.768  0.4502  1.0080  1.0707
 5150TIP3   OH236940   6.195   4.108   5.906  0.1830 -0.8990 -0.0500
 5150TIP3    H136941   6.205   4.058   5.987  0.4503 -0.2422  0.3242
 5150TIP3    H236942   6.199   4.199   5.933  1.2145 -0.6688 -0.9085
 5151TIP3   OH236943   0.602   4.722   4.145 -0.0539  0.0603  0.0533
 5151TIP3    H136944   0.614   4.694   4.236 -0.9514 -0.9225 -0.1106
 5151TIP3    H236945   0.528   4.783   4.148  0.0993  0.2473  0.0234
 5152TIP3   OH236946   4.704   2.634   1.361 -0.9257 -0.2096 -0.0221
 5152TIP3    H136947   4.707   2.669   1.450  0.6760 -1.5410  0.5103
 5152TIP3    H236948   4.792   2.599   1.347  0.2763  3.5011 -3.6723
 5153TIP3   OH236949   3.553   1.988   5.689 -0.1616 -0.1196  1.0185
 5153TIP3    H136950   3.465   2.024   5.678  0.2266  0.2568 -1.7146
 5153TIP3    H236951   3.608   2.064   5.706 -0.0276  0.0170  0.0553
 5154TIP3   OH236952   1.588   5.875   3.065 -0.0477  0.2773 -0.6954
 5154TIP3    H136953   1.564   5.934   3.136  1.1724 -1.4633  1.2731
 5154TIP3    H236954   1.591   5.932   2.988 -0.6782  2.4113  0.7444
 5155TIP3   OH236955   3.552   1.618  14.521 -0.2418 -0.5224 -0.0015
 5155TIP3    H136956   3.578   1.581  14.436  1.3766 -0.9249  0.6188
 5155TIP3    H236957   3.488   1.556  14.556 -0.7784 -0.4519 -0.8289
 5156TIP3   OH236958   4.763   2.174   1.447 -0.1531  0.1089  0.4486
 5156TIP3    H136959   4.751   2.184   1.353  0.3293  0.4410  0.4149
 5156TIP3    H236960   4.692   2.117   1.475  0.5735 -1.2484 -0.3611
 5157TIP3   OH236961   3.462   3.707   0.332  0.0939  0.0527 -0.0034
 5157TIP3    H136962   3.405   3.774   0.370 -0.4827 -0.4665  0.0591
 5157TIP3    H236963   3.534   3.756   0.293 -0.0237  0.6770  0.5469
 5158TIP3   OH236964   3.582   1.244  12.416  0.5958 -0.6588  0.2902
 5158TIP3    H136965   3.504   1.254  12.470  0.4772  0.3919 -0.0610
 5158TIP3    H236966   3.553   1.197  12.339  0.4154 -0.7108  0.3905
 5159TIP3   OH236967   6.179   0.698  17.093 -0.0502 -0.3929  0.2152
 5159TIP3    H136968   6.133   0.754  17.030 -0.6268  0.4530  1.3375
 5159TIP3    H236969   6.270   0.725  17.086  0.4747 -2.4025 -2.3612
 5160TIP3   OH236970   5.740   0.292  11.913  0.0401  0.3984 -0.4110
 5160TIP3    H136971   5.645   0.292  11.924  0.1132  2.6551  0.9777
 5160TIP3    H236972   5.765   0.200  11.911 -2.0225 -0.2309  0.6003
 5161TIP3   OH236973   4.652   4.538   5.388  0.2895  0.6279 -0.7675
 5161TIP3    H136974   4.589   4.604   5.359  0.7624  0.7710 -1.5020
 5161TIP3    H236975   4.646   4.468   5.323 -0.4635 -0.2403  0.1991
 5162TIP3   OH236976   0.526   2.202   0.597  0.5254 -0.0864  0.0637
 5162TIP3    H136977   0.545   2.189   0.504 -0.6811 -1.8710  0.0053
 5162TIP3    H236978   0.599   2.159   0.642  0.3524 -0.5599 -0.0954
 5163TIP3   OH236979   4.361   6.771   5.457  0.1103 -0.3761 -0.5159
 5163TIP3    H136980   4.370   6.676   5.464 -0.4151 -0.4696 -1.0755
 5163TIP3    H236981   4.434   6.805   5.508  0.5984 -1.0859 -0.7179
 5164TIP3   OH236982   1.072   4.984  14.717  0.0550 -0.1455  0.0668
 5164TIP3    H136983   1.003   4.935  14.760 -0.4706  0.7244  0.2506
 5164TIP3    H236984   1.138   4.919  14.694  0.2749 -0.6667  2.0119
 5165TIP3   OH236985   3.995   0.562  13.692  0.5504 -0.5309 -0.3075
 5165TIP3    H136986   3.941   0.631  13.731 -0.2251 -0.4361 -1.5193
 5165TIP3    H236987   4.083   0.578  13.728  0.6670  1.8207 -1.4001
 5166TIP3   OH236988   1.575   0.591   1.563  0.3533 -0.5296 -0.1746
 5166TIP3    H136989   1.588   0.551   1.477  0.7868 -1.0112  0.1110
 5166TIP3    H236990   1.511   0.660   1.548  1.2256  0.0943 -1.0938
 5167TIP3   OH236991   0.321   1.541  17.077  0.1146  0.1837 -0.2163
 5167TIP3    H136992   0.241   1.506  17.037 -0.1837  0.7956 -0.1625
 5167TIP3    H236993   0.302   1.633  17.092  0.9475  0.4148 -0.5055
 5168TIP3   OH236994   3.019   0.610  11.963 -0.0777 -0.3623 -0.2386
 5168TIP3    H136995   2.995   0.538  12.021  0.4410 -2.3100 -2.3249
 5168TIP3    H236996   2.974   0.591  11.881 -0.9106  2.3794 -0.5328
 5169TIP3   OH236997   6.657   5.976  10.487 -0.1706 -0.2039 -0.3075
 5169TIP3    H136998   6.572   5.933  10.497 -0.1599 -0.4856 -1.3268
 5169TIP3    H236999   6.720   5.907  10.504 -0.1055  0.2945  1.7107
 5170TIP3   OH237000   6.346   3.292   3.578  0.2538  1.0128  0.0027
 5170TIP3    H137001   6.270   3.350   3.567 -0.0407  0.2713 -2.1544
 5170TIP3    H237002   6.318   3.208   3.542  1.2703 -0.0145  1.5007
 5171TIP3   OH237003   6.499   2.655  13.416 -0.2742  0.2896  0.4118
 5171TIP3    H137004   6.410   2.623  13.427  0.0604 -1.0318 -0.5372
 5171TIP3    H237005   6.544   2.630  13.497 -0.0746 -1.5013 -0.2258
 5172TIP3   OH237006   3.450   4.811   3.078 -0.5277  0.2581  0.5952
 5172TIP3    H137007   3.494   4.813   3.163  0.5160  2.3193  0.0663
 5172TIP3    H237008   3.512   4.766   3.021  0.3682  1.9421  0.1718
 5173TIP3   OH237009   5.645   3.165   3.443  0.0225  0.2320 -0.9308
 5173TIP3    H137010   5.651   3.073   3.419  3.6144 -0.1750  0.9729
 5173TIP3    H237011   5.567   3.171   3.498  1.0166 -2.2490  0.8868
 5174TIP3   OH237012   2.411   0.100   1.309  0.1678  0.5177 -0.1319
 5174TIP3    H137013   2.431   0.164   1.241  0.1427  2.1363  1.3171
 5174TIP3    H237014   2.494   0.085   1.354  0.7415 -2.3650 -1.8987
 5175TIP3   OH237015   4.504   0.964   4.113  0.7183 -0.5668 -0.5841
 5175TIP3    H137016   4.534   0.974   4.204 -0.7284 -0.8061 -0.0458
 5175TIP3    H237017   4.578   0.994   4.060  1.2713  0.4358  0.6848
 5176TIP3   OH237018   3.898   1.976   2.196 -0.0919  0.8481  0.4179
 5176TIP3    H137019   3.978   1.993   2.247  0.8109  0.2932 -0.7701
 5176TIP3    H237020   3.869   2.062   2.166  0.1532  1.0310  0.6991
 5177TIP3   OH237021   2.884   2.730   4.475  0.0233 -0.4302  0.1007
 5177TIP3    H137022   2.893   2.637   4.454  1.7064 -1.0739  3.1256
 5177TIP3    H237023   2.973   2.763   4.473 -0.6840  1.6731 -2.6132
 5178TIP3   OH237024   6.009   4.602  14.478 -0.2239  0.1750  0.0036
 5178TIP3    H137025   5.956   4.626  14.555  0.1889  0.7089  0.1308
 5178TIP3    H237026   6.097   4.588  14.513  0.2855  1.7653 -0.5331
 5179TIP3   OH237027   0.120   4.452  15.287  0.8339 -0.4779 -0.4092
 5179TIP3    H137028   0.158   4.406  15.361  0.8882 -0.1855 -0.2547
 5179TIP3    H237029   0.193   4.500  15.247  0.5751  0.3627  0.0954
 5180TIP3   OH237030   0.678   1.724   1.204 -0.5150  0.4016 -0.3897
 5180TIP3    H137031   0.735   1.649   1.186 -0.4181  0.6556 -1.2104
 5180TIP3    H237032   0.728   1.800   1.172 -1.0978  0.6815 -0.6489
 5181TIP3   OH237033   1.085   6.617  13.071  0.0961 -0.4634 -0.1085
 5181TIP3    H137034   1.036   6.535  13.080 -0.4592  0.0126  1.5740
 5181TIP3    H237035   1.150   6.599  13.003 -0.3210 -2.1415 -0.1034
 5182TIP3   OH237036   5.480   1.427  10.672  0.1059  0.3558  0.0536
 5182TIP3    H137037   5.400   1.381  10.647  1.1870 -1.6954  0.1117
 5182TIP3    H237038   5.451   1.497  10.731 -1.5022 -1.8773  2.1091
 5183TIP3   OH237039   4.400   1.884   4.653  0.1070  0.3619  0.0199
 5183TIP3    H137040   4.394   1.923   4.740 -1.3776 -0.3284  0.2511
 5183TIP3    H237041   4.452   1.947   4.602  0.2254  1.2062  1.1499
 5184TIP3   OH237042   1.556   6.036   5.422 -0.1015  0.0219  0.0424
 5184TIP3    H137043   1.631   5.997   5.465 -0.6575 -1.7877 -0.5196
 5184TIP3    H237044   1.593   6.089   5.352  0.7002  1.0156  1.1691
 5185TIP3   OH237045   1.136   2.415   4.908 -0.1860 -0.0600  0.2491
 5185TIP3    H137046   1.106   2.494   4.863  0.8410  0.9147  1.2079
 5185TIP3    H237047   1.203   2.446   4.969 -0.8630 -1.4508  1.7868
 5186TIP3   OH237048   5.270   4.733  14.174 -0.0283 -0.6039  0.0427
 5186TIP3    H137049   5.356   4.721  14.214 -0.5162  0.7204  1.5569
 5186TIP3    H237050   5.215   4.666  14.215 -0.4061  0.4323  1.2816
 5187TIP3   OH237051   5.213   0.269  16.196  0.0311  0.1253 -0.3116
 5187TIP3    H137052   5.166   0.187  16.209  0.2218 -0.1036 -0.9906
 5187TIP3    H237053   5.195   0.292  16.105  1.8212 -0.3636 -0.8308
 5188TIP3   OH237054   4.302   1.204   3.993 -0.0500  0.0163  0.3200
 5188TIP3    H137055   4.207   1.198   3.997  0.0641 -1.7712  1.9128
 5188TIP3    H237056   4.333   1.122   4.032  2.1450  1.2905  1.4948
 5189TIP3   OH237057   2.698   4.789  11.628 -0.0981 -0.3084 -0.4382
 5189TIP3    H137058   2.647   4.821  11.702  0.9193  0.2601  0.0486
 5189TIP3    H237059   2.660   4.832  11.552 -1.6340 -1.4695 -0.3687
 5190TIP3   OH237060   6.448   0.031  14.751  0.7994 -0.1178 -0.4180
 5190TIP3    H137061   6.412  -0.041  14.804 -3.5785  0.2785 -2.4637
 5190TIP3    H237062   6.478  -0.011  14.671 -2.7459  0.1719 -2.0787
 5191TIP3   OH237063   2.227   1.075  12.035  0.1083  0.5773  0.0869
 5191TIP3    H137064   2.252   1.113  12.119 -0.2212  1.6223 -0.2815
 5191TIP3    H237065   2.311   1.051  11.994  0.2634 -0.0601  0.7591
 5192TIP3   OH237066   3.467   4.173  12.332 -0.4242  0.3422 -0.2504
 5192TIP3    H137067   3.491   4.204  12.420  0.9923 -0.3936 -0.3618
 5192TIP3    H237068   3.439   4.252  12.286  1.6128  1.2486 -0.0435
 5193TIP3   OH237069   2.781   0.097  14.192 -1.2804 -0.5479  0.3207
 5193TIP3    H137070   2.696   0.052  14.192 -1.7184  0.2457  1.4687
 5193TIP3    H237071   2.819   0.075  14.277 -0.7897 -0.0593  0.2293
 5194TIP3   OH237072   5.122   2.119  15.004 -0.0397  0.0154 -0.0884
 5194TIP3    H137073   5.200   2.170  14.982  0.0871  0.3557  1.0980
 5194TIP3    H237074   5.128   2.105  15.098 -2.1537  1.3217  0.3114
 5195TIP3   OH237075   4.956   4.259   4.904 -0.6041 -0.1945  0.1547
 5195TIP3    H137076   4.966   4.164   4.906  1.1164 -0.0585 -0.3283
 5195TIP3    H237077   4.862   4.273   4.891 -0.8928 -1.8175  0.2870
 5196TIP3   OH237078   1.036   0.464   0.668 -0.3221  0.2209  0.3438
 5196TIP3    H137079   1.069   0.375   0.680  1.6294  0.9196  0.5017
 5196TIP3    H237080   0.990   0.484   0.749 -0.2583 -0.4419  0.5449
 5197TIP3   OH237081   2.959   5.640   1.955  0.0918  0.5012  0.1242
 5197TIP3    H137082   3.028   5.573   1.960 -0.1201  0.3493  2.5077
 5197TIP3    H237083   3.007   5.723   1.952  0.3701  0.3379 -0.0338
 5198TIP3   OH237084   3.401   0.856   1.133 -0.0862  0.3761 -0.1061
 5198TIP3    H137085   3.330   0.886   1.190  0.5755  3.3070 -0.6959
 5198TIP3    H237086   3.470   0.829   1.193 -0.8579 -0.3998  0.4563
 5199TIP3   OH237087   2.307   5.489   5.176  0.0743 -0.2918  0.1207
 5199TIP3    H137088   2.268   5.540   5.105 -0.5538  0.2645  0.8505
 5199TIP3    H237089   2.374   5.436   5.133  0.2322  0.5985 -0.7747
 5200TIP3   OH237090   1.563   4.906  13.850 -0.6716 -0.6595 -0.7786
 5200TIP3    H137091   1.495   4.857  13.896  0.5631 -0.9889  0.8071
 5200TIP3    H237092   1.639   4.848  13.851 -0.2657 -0.2174 -2.3205
 5201TIP3   OH237093   0.141   5.144   2.133 -0.2001 -0.2298  0.3375
 5201TIP3    H137094   0.163   5.203   2.061 -0.4094 -0.5421  0.0105
 5201TIP3    H237095   0.218   5.089   2.144 -0.1442 -0.1398  0.3934
 5202TIP3   OH237096   1.662   3.381   3.405  0.6398  0.3666 -0.2155
 5202TIP3    H137097   1.568   3.395   3.412  0.7390  1.1342 -0.3010
 5202TIP3    H237098   1.686   3.418   3.321  1.1120  0.7183  0.0692
 5203TIP3   OH237099   3.987   0.750  13.070 -0.3678  0.1929 -0.1945
 5203TIP3    H137100   4.059   0.812  13.059  1.7435 -2.1915 -0.9791
 5203TIP3    H237101   4.007   0.704  13.152 -2.2367  0.8973  0.7220
 5204TIP3   OH237102   2.649   5.142   1.418  0.0546  0.0619  0.5075
 5204TIP3    H137103   2.693   5.223   1.393  0.0243  0.6515  2.2769
 5204TIP3    H237104   2.559   5.168   1.438 -0.3516 -0.6642 -0.2747
 5205TIP3   OH237105   4.759   4.650   1.745  0.4132  0.3983  0.2582
 5205TIP3    H137106   4.839   4.606   1.716 -0.2210  0.0263 -0.9852
 5205TIP3    H237107   4.693   4.580   1.749 -0.4561  1.1015 -1.1628
 5206TIP3   OH237108   0.213   0.741  15.181  0.2023  0.0913  0.0062
 5206TIP3    H137109   0.197   0.789  15.263  0.9896 -0.1747  0.3330
 5206TIP3    H237110   0.257   0.804  15.125 -0.2610  0.2481 -0.1836
 5207TIP3   OH237111   5.233   6.495   1.305 -0.3834 -0.0780 -0.1906
 5207TIP3    H137112   5.277   6.455   1.380 -1.6605 -2.8014 -0.7401
 5207TIP3    H237113   5.184   6.569   1.341  0.5832 -0.1359  1.2956
 5208TIP3   OH237114   4.921   0.027   5.519 -0.3991 -0.1580  0.4419
 5208TIP3    H137115   4.856   0.094   5.498 -0.2234  0.0184  0.4578
 5208TIP3    H237116   4.890  -0.011   5.601  0.3511  1.0203  1.3129
 5209TIP3   OH237117   5.601   4.711   4.617  0.2253  0.5451 -0.0006
 5209TIP3    H137118   5.604   4.788   4.561  0.2939  0.8841  0.4553
 5209TIP3    H237119   5.508   4.698   4.636  0.1239 -0.1289 -0.9389
 5210TIP3   OH237120   6.384   6.644   3.310 -0.3525  0.4466 -0.5063
 5210TIP3    H137121   6.419   6.729   3.284 -0.5362  0.0144 -2.2928
 5210TIP3    H237122   6.461   6.592   3.334 -0.0725  0.5809 -1.0908
 5211TIP3   OH237123   0.631   0.717  14.899 -0.0626 -0.0128 -0.6207
 5211TIP3    H137124   0.600   0.760  14.979 -0.1947  1.7789 -1.5669
 5211TIP3    H237125   0.620   0.624  14.915 -1.7979  0.3802  0.7611
 5212TIP3   OH237126   3.758   5.652  16.826  0.2524  0.7816 -0.1783
 5212TIP3    H137127   3.744   5.741  16.857 -0.5910  0.1829  1.2268
 5212TIP3    H237128   3.724   5.596  16.896  0.6189 -0.6467 -1.1011
 5213TIP3   OH237129   4.101   1.647   5.370  0.6487  0.0660 -0.1242
 5213TIP3    H137130   4.166   1.592   5.414  1.2268  2.8631  2.9011
 5213TIP3    H237131   4.042   1.675   5.440 -0.5424  2.0277 -1.7815
 5214TIP3   OH237132   0.017   6.506  14.140 -0.0086  0.2591  0.4550
 5214TIP3    H137133  -0.041   6.437  14.108  0.3849  0.8983 -1.8392
 5214TIP3    H237134   0.102   6.487  14.099  0.3968  1.4483  0.7023
 5215TIP3   OH237135   0.130   3.169   2.616  0.0090 -0.2704 -0.1958
 5215TIP3    H137136   0.057   3.181   2.555 -0.6937 -0.9368  0.4880
 5215TIP3    H237137   0.115   3.235   2.684  0.1367 -0.2925 -0.1466
 5216TIP3   OH237138   4.758   2.478   3.025 -0.4604  1.0271  0.5777
 5216TIP3    H137139   4.752   2.471   3.121 -0.9370 -0.8783  0.4346
 5216TIP3    H237140   4.842   2.521   3.009  0.1415  0.3504  1.8133
 5217TIP3   OH237141   6.637   2.300   0.588 -0.4881  0.1045  0.3545
 5217TIP3    H137142   6.668   2.224   0.540 -1.5771  0.1331 -0.4224
 5217TIP3    H237143   6.669   2.375   0.539 -0.1694  0.1507  0.6267
 5218TIP3   OH237144   4.951   3.542  14.117 -0.1217 -0.1406 -0.4889
 5218TIP3    H137145   4.868   3.512  14.154  0.4134 -0.5095  0.4444
 5218TIP3    H237146   4.957   3.634  14.143  0.8933 -0.7482  1.5971
 5219TIP3   OH237147   6.457   6.596  13.922 -0.5003 -0.4826 -0.4088
 5219TIP3    H137148   6.428   6.511  13.957 -1.8373  0.4604  0.8633
 5219TIP3    H237149   6.443   6.658  13.993 -0.4083  0.9867 -1.6139
 5220TIP3   OH237150   6.807   0.126   6.340 -0.6288  0.2042 -0.3228
 5220TIP3    H137151   6.718   0.102   6.367 -0.1067 -0.9983  0.4554
 5220TIP3    H237152   6.854   0.043   6.339  1.0626  1.0569  1.5511
 5221TIP3   OH237153   0.379   1.760   3.008  0.4131  0.1510  0.2970
 5221TIP3    H137154   0.351   1.696   3.073  0.6162 -1.2489 -0.9256
 5221TIP3    H237155   0.369   1.715   2.924  1.8845  1.2378 -0.5205
 5222TIP3   OH237156   5.337   5.349  12.977  0.6353 -0.3659  0.1799
 5222TIP3    H137157   5.351   5.313  12.889 -1.3275  1.2724 -0.9070
 5222TIP3    H237158   5.413   5.405  12.992  1.3039 -1.1561 -0.2036
 5223TIP3   OH237159   0.007   0.695   4.144  0.0104 -0.0021 -0.4072
 5223TIP3    H137160  -0.064   0.662   4.088  0.7168 -0.6286 -0.9516
 5223TIP3    H237161   0.078   0.715   4.084 -0.6577  3.4805 -0.2254
 5224TIP3   OH237162   3.622   0.337   6.358 -0.7237 -0.0162  0.0855
 5224TIP3    H137163   3.708   0.358   6.322 -0.3556 -1.1621  0.2862
 5224TIP3    H237164   3.635   0.256   6.406 -1.2918  1.2186  2.4804
 5225TIP3   OH237165   3.569   4.519  16.277 -0.6337 -0.8941  0.1052
 5225TIP3    H137166   3.533   4.582  16.340 -0.5644  0.0485 -0.7702
 5225TIP3    H237167   3.497   4.458  16.260 -1.0507 -0.4198  0.1558
 5226TIP3   OH237168   3.542   4.014  10.781  0.4745 -0.0285  0.1721
 5226TIP3    H137169   3.450   3.994  10.762  1.1572 -2.3931 -1.0420
 5226TIP3    H237170   3.588   3.932  10.764  2.8063  1.0439  0.9344
 5227TIP3   OH237171   1.239   1.776   4.365  0.7170 -0.4240  0.2166
 5227TIP3    H137172   1.238   1.689   4.406  0.1320 -0.8485 -0.6837
 5227TIP3    H237173   1.201   1.763   4.278  1.0065  0.6594 -0.0893
 5228TIP3   OH237174   5.478   3.815  13.581 -0.2094  0.5337 -0.6775
 5228TIP3    H137175   5.393   3.790  13.617  0.8779 -0.9976  1.0627
 5228TIP3    H237176   5.510   3.882  13.641  0.8612 -0.7456  0.2373
 5229TIP3   OH237177   2.194   4.227   3.119 -0.5540  0.1897  0.1220
 5229TIP3    H137178   2.252   4.168   3.167  0.1514 -0.6146 -1.6515
 5229TIP3    H237179   2.252   4.280   3.064 -1.4189 -0.3913 -1.4285
 5230TIP3   OH237180   6.625   1.902   0.012 -0.3745  0.0130  0.0403
 5230TIP3    H137181   6.533   1.879  -0.004 -0.6196  0.2067  1.0872
 5230TIP3    H237182   6.623   1.957   0.090  0.6505 -0.1296  0.1872
 5231TIP3   OH237183   0.314   5.384   4.224 -0.1590  0.2311 -0.3505
 5231TIP3    H137184   0.333   5.386   4.318 -0.9395 -1.4365 -0.1217
 5231TIP3    H237185   0.315   5.476   4.198  0.2122  0.7230  1.2544
 5232TIP3   OH237186   3.700   4.958   2.570 -0.3054 -0.0201 -0.4191
 5232TIP3    H137187   3.671   4.970   2.479 -1.3782  0.3519 -0.0451
 5232TIP3    H237188   3.667   4.872   2.594  1.3460 -0.8054 -0.8692
 5233TIP3   OH237189   6.626   1.605   3.033 -0.0451  0.4217  0.0778
 5233TIP3    H137190   6.712   1.575   3.062  0.2303  1.6891  0.6525
 5233TIP3    H237191   6.612   1.560   2.950  1.3289  0.4665 -0.2067
 5234TIP3   OH237192   6.126   3.191  12.792 -0.0114  0.5339  0.0926
 5234TIP3    H137193   6.183   3.139  12.737  1.0851 -1.4014  2.8464
 5234TIP3    H237194   6.185   3.253  12.836 -0.6726  1.2961 -0.0761
 5235TIP3   OH237195   4.073   0.641   2.907  0.4118 -0.1964  0.1158
 5235TIP3    H137196   4.135   0.647   2.980  0.4931  1.6170 -0.0619
 5235TIP3    H237197   4.107   0.570   2.853  1.3788 -0.3513  0.8955
 5236TIP3   OH237198   2.094   6.701   6.696 -0.1244 -0.2086 -0.6627
 5236TIP3    H137199   2.136   6.750   6.626  0.6380  0.1386  0.0225
 5236TIP3    H237200   2.102   6.757   6.773  0.0993 -1.0833 -0.0331
 5237TIP3   OH237201   5.740   2.207   1.755 -0.0520 -0.2829  0.0638
 5237TIP3    H137202   5.715   2.280   1.698  1.4619 -0.3764 -0.7679
 5237TIP3    H237203   5.794   2.247   1.823  0.1417 -0.5284  0.0532
 5238TIP3   OH237204   1.992   4.345   4.301  0.5175 -0.8776  0.6117
 5238TIP3    H137205   1.942   4.389   4.232  3.4625 -0.2651 -1.3723
 5238TIP3    H237206   1.928   4.293   4.348 -1.7281 -1.3763 -2.6533
 5239TIP3   OH237207   0.563   0.575  12.589  0.2681 -0.7216  0.7208
 5239TIP3    H137208   0.603   0.519  12.655 -0.4571  0.9955  2.7158
 5239TIP3    H237209   0.575   0.664  12.622 -1.3458  0.1125 -0.7660
 5240TIP3   OH237210   4.522   2.608   5.864 -0.6488  0.8434  0.3293
 5240TIP3    H137211   4.560   2.564   5.940 -1.7927  1.1191  1.0830
 5240TIP3    H237212   4.527   2.543   5.793  0.8106  0.7338  0.5004
 5241TIP3   OH237213   4.489   1.937  12.727 -0.0120  0.2760  0.0808
 5241TIP3    H137214   4.452   1.851  12.746  0.4350 -0.3480 -1.6669
 5241TIP3    H237215   4.414   1.996  12.724 -0.4605 -0.2844  0.0930
 5242TIP3   OH237216   0.170   0.894   4.658  0.2810  0.0645 -0.1041
 5242TIP3    H137217   0.184   0.938   4.742 -0.5712  0.0566  0.0571
 5242TIP3    H237218   0.196   0.959   4.593 -0.1992  0.5178  0.1484
 5243TIP3   OH237219   5.781   4.723  14.249  0.2173  0.0751  0.4150
 5243TIP3    H137220   5.852   4.698  14.308  0.8107  0.0335 -0.2994
 5243TIP3    H237221   5.821   4.727  14.163 -0.9289 -1.2098 -0.2159
 5244TIP3   OH237222   4.224   5.546  16.233 -0.0426 -0.3441 -0.2391
 5244TIP3    H137223   4.164   5.479  16.265  0.8836 -0.6538  0.8882
 5244TIP3    H237224   4.167   5.607  16.184 -1.0747 -1.2695 -0.2363
 5245TIP3   OH237225   5.773   5.320  14.404  0.1545 -0.0735  0.0642
 5245TIP3    H137226   5.710   5.391  14.415  0.8052  0.3076  1.7010
 5245TIP3    H237227   5.858   5.364  14.395  0.3052 -0.5988 -1.2734
 5246TIP3   OH237228   6.578   6.769  15.550 -0.7302 -0.2325  0.1379
 5246TIP3    H137229   6.645   6.793  15.614 -1.7378 -0.8223  1.4638
 5246TIP3    H237230   6.495   6.795  15.591 -1.5959 -2.6967  0.1168
 5247TIP3   OH237231   6.061   5.675  16.090  0.0289 -0.1985  0.4623
 5247TIP3    H137232   6.040   5.608  16.025  1.4441  0.1001 -0.3434
 5247TIP3    H237233   6.082   5.625  16.170  0.8630 -0.7370 -0.0700
 5248TIP3   OH237234   5.443   2.052  12.041  0.2916 -0.1761 -0.7747
 5248TIP3    H137235   5.485   2.019  11.961  2.3501 -0.3638  0.3254
 5248TIP3    H237236   5.452   2.147  12.034  1.3327 -0.2312 -0.3495
 5249TIP3   OH237237   5.392   0.806  15.692 -0.0889  0.4844 -0.3013
 5249TIP3    H137238   5.445   0.727  15.686  1.9212  1.7545 -0.2715
 5249TIP3    H237239   5.307   0.781  15.656  0.5491 -1.6035 -0.4893
 5250TIP3   OH237240   6.567   4.944   1.923 -0.2487 -0.3801  0.3157
 5250TIP3    H137241   6.634   4.964   1.989  1.9652  3.7128 -2.6648
 5250TIP3    H237242   6.486   4.977   1.960  0.6252  0.4536  1.5896
 5251TIP3   OH237243   4.678   3.539   2.527 -0.3199  0.2693 -0.7302
 5251TIP3    H137244   4.601   3.488   2.552  0.6517 -0.4540  0.9081
 5251TIP3    H237245   4.643   3.625   2.505 -1.6638 -0.2285 -0.6486
 5252TIP3   OH237246   5.840   1.853   3.469  0.1244  0.0353 -0.0343
 5252TIP3    H137247   5.880   1.879   3.552  0.4702  0.4083 -0.3104
 5252TIP3    H237248   5.872   1.764   3.454  0.0899 -0.0196  0.2139
 5253TIP3   OH237249   3.747   1.506   2.882 -0.0604  0.6656  0.0922
 5253TIP3    H137250   3.813   1.546   2.826 -0.6334  1.2939 -0.1498
 5253TIP3    H237251   3.686   1.578   2.901 -1.2872 -0.1549 -0.6144
 5254TIP3   OH237252   3.121   4.900  11.038  0.2093 -0.0441 -0.2949
 5254TIP3    H137253   3.126   4.996  11.040 -2.0153  0.1295  1.0003
 5254TIP3    H237254   3.105   4.878  10.946  2.4166  0.6433 -0.8966
 5255TIP3   OH237255   1.910   5.568  15.826  0.2504 -0.2151  0.2754
 5255TIP3    H137256   1.840   5.504  15.836  0.0309 -0.0338 -0.1062
 5255TIP3    H237257   1.935   5.562  15.734  0.2802  0.1942  0.2559
 5256TIP3   OH237258   1.308   1.687   3.131 -0.1438 -0.2823 -0.2599
 5256TIP3    H137259   1.342   1.607   3.172 -1.8088 -1.0465 -0.3060
 5256TIP3    H237260   1.224   1.703   3.174  0.0433  1.3224 -0.4262
 5257TIP3   OH237261   1.431   5.559   2.275 -0.1782 -0.2662  0.0586
 5257TIP3    H137262   1.357   5.508   2.308  0.7959 -2.2428 -0.6391
 5257TIP3    H237263   1.408   5.578   2.184  0.1489 -0.8710 -0.1550
 5258TIP3   OH237264   0.625   2.001  14.162  0.1571  0.4696 -0.4698
 5258TIP3    H137265   0.675   2.036  14.236 -2.8906  0.7093  1.6624
 5258TIP3    H237266   0.632   2.069  14.094  1.6105  1.0525  0.2233
 5259TIP3   OH237267   3.692   0.712   3.684 -0.2285 -0.4317 -0.4264
 5259TIP3    H137268   3.632   0.658   3.736  0.9661  0.1703  1.7163
 5259TIP3    H237269   3.716   0.656   3.610 -0.5124 -2.1134  0.6799
 5260TIP3   OH237270   2.607   0.127   2.549  0.5119 -0.2783 -1.3022
 5260TIP3    H137271   2.556   0.162   2.622  2.2159 -0.0173 -0.1725
 5260TIP3    H237272   2.580   0.035   2.542  0.3562 -0.3110 -0.3291
 5261TIP3   OH237273   2.161   4.471   2.791 -0.0546  0.9168 -0.3088
 5261TIP3    H137274   2.238   4.415   2.780  0.1682  1.0590  0.4534
 5261TIP3    H237275   2.165   4.498   2.883 -0.0196  2.3919 -0.7265
 5262TIP3   OH237276   3.651   3.199   4.650  1.0078 -0.0214  0.6136
 5262TIP3    H137277   3.597   3.126   4.679  0.2722 -0.1239 -0.8859
 5262TIP3    H237278   3.698   3.227   4.728 -1.6136  0.4283  2.1470
 5263TIP3   OH237279   5.809   5.394   5.267  0.2990 -1.0062 -0.0749
 5263TIP3    H137280   5.795   5.476   5.221 -1.2407 -0.4256  1.3347
 5263TIP3    H237281   5.723   5.353   5.271  0.6457 -1.6720  1.1006
 5264TIP3   OH237282   4.395   5.649  16.852  0.3709  0.3126  0.6702
 5264TIP3    H137283   4.377   5.696  16.934  1.1641  0.0555  1.0002
 5264TIP3    H237284   4.405   5.719  16.787  2.0629  0.6788  1.2561
 5265TIP3   OH237285   2.151   0.485   0.643  0.0562  0.2192 -0.0656
 5265TIP3    H137286   2.158   0.459   0.735  0.8064  1.9794  0.4287
 5265TIP3    H237287   2.089   0.558   0.643  0.0844  0.2517 -0.9438
 5266TIP3   OH237288   2.638   2.533   2.532  0.0629 -0.3513  0.2852
 5266TIP3    H137289   2.733   2.539   2.522  0.0910  1.3164  1.2405
 5266TIP3    H237290   2.624   2.459   2.590  0.6812 -1.4639 -0.9444
 5267TIP3   OH237291   6.745   4.668  14.605  0.3045 -0.0953 -0.0604
 5267TIP3    H137292   6.697   4.738  14.561 -0.1522  0.3132  1.0294
 5267TIP3    H237293   6.681   4.597  14.613  0.1262  0.1252  0.6094
 5268TIP3   OH237294   0.797   2.821   0.618 -0.1646 -0.2613  0.3623
 5268TIP3    H137295   0.887   2.840   0.591 -1.1446 -0.0297 -3.3494
 5268TIP3    H237296   0.786   2.728   0.598 -0.7236 -0.3067  0.8727
 5269TIP3   OH237297   2.406   1.826   1.401 -0.4356 -0.0672 -0.0558
 5269TIP3    H137298   2.313   1.849   1.402 -0.5747 -0.6432  1.0728
 5269TIP3    H237299   2.450   1.906   1.371 -1.2935  0.1693 -0.7368
 5270TIP3   OH237300   3.689   6.271  13.393  0.1365 -0.2152 -0.1305
 5270TIP3    H137301   3.612   6.324  13.415 -1.3891 -2.2087 -0.3800
 5270TIP3    H237302   3.706   6.291  13.301 -0.0140  0.3249 -0.0449
 5271TIP3   OH237303   5.788   1.254  14.355  0.3384  0.7941 -0.0613
 5271TIP3    H137304   5.801   1.329  14.414  1.8614  0.3240  0.2718
 5271TIP3    H237305   5.697   1.229  14.366 -0.1634  2.5111 -0.0833
 5272TIP3   OH237306   0.384   4.476   0.364 -0.0799  0.4150  0.3661
 5272TIP3    H137307   0.349   4.555   0.405 -0.4846  0.2579  0.3314
 5272TIP3    H237308   0.478   4.478   0.384  0.2750  1.8690 -1.2020
 5273TIP3   OH237309   6.424   3.828   1.536  0.4656 -0.3567 -0.2942
 5273TIP3    H137310   6.387   3.776   1.464 -1.9123  1.5709 -0.5784
 5273TIP3    H237311   6.407   3.775   1.614  2.2451 -2.0419 -0.9527
 5274TIP3   OH237312   5.861   4.287   3.183 -0.0775 -0.5922 -0.2940
 5274TIP3    H137313   5.910   4.368   3.168 -0.0884 -0.1180  1.8437
 5274TIP3    H237314   5.810   4.275   3.103  1.1069  0.6487 -1.2891
 5275TIP3   OH237315   1.112   0.701   6.707  0.3284 -0.5644 -0.2749
 5275TIP3    H137316   1.017   0.697   6.694 -0.5184  1.3922  3.7737
 5275TIP3    H237317   1.127   0.652   6.787  2.1240  2.1894  1.2080
 5276TIP3   OH237318   1.388   3.716   0.290 -0.1597  0.0675  0.0828
 5276TIP3    H137319   1.383   3.810   0.274  0.0061  0.2464  1.0146
 5276TIP3    H237320   1.431   3.681   0.212 -0.3749  0.7346 -0.3471
 5277TIP3   OH237321   2.198   3.883  10.641  0.5580 -0.1889  0.5175
 5277TIP3    H137322   2.291   3.861  10.644  0.3238 -1.4273 -0.4944
 5277TIP3    H237323   2.155   3.812  10.690  0.0478 -0.2559 -0.0217
 5278TIP3   OH237324   1.670   5.263  11.140 -0.0963 -0.1569  0.0881
 5278TIP3    H137325   1.624   5.297  11.063  0.5589  0.1154 -0.1860
 5278TIP3    H237326   1.730   5.333  11.164 -0.2884 -0.2456  0.8480
 5279TIP3   OH237327   1.092   3.236   3.785  0.6259 -0.0429  0.5084
 5279TIP3    H137328   1.099   3.330   3.767  1.9635 -0.5096 -1.7760
 5279TIP3    H237329   1.067   3.197   3.701  0.1624 -1.7455  1.3946
 5280TIP3   OH237330   2.974   2.643  13.229  0.1623 -0.1179  0.2751
 5280TIP3    H137331   3.038   2.714  13.218 -0.2628  0.2784  0.3380
 5280TIP3    H237332   2.913   2.675  13.295 -0.1292 -0.4742  0.1833
 5281TIP3   OH237333   2.191   2.493  17.104  0.7237 -0.0280 -0.4037
 5281TIP3    H137334   2.164   2.569  17.052  1.2047  0.5322  0.1532
 5281TIP3    H237335   2.168   2.515  17.194  0.6248 -0.6592 -0.2668
 5282TIP3   OH237336   1.088   2.090   5.984  0.3582  0.0567 -0.2897
 5282TIP3    H137337   1.029   2.097   5.909 -0.1454  0.6464  0.1524
 5282TIP3    H237338   1.175   2.109   5.948  0.1901 -0.1499 -0.8132
 5283TIP3   OH237339   6.170   6.535  14.077 -0.1525  0.1411  0.0614
 5283TIP3    H137340   6.238   6.592  14.113 -0.1556  0.0999  0.1352
 5283TIP3    H237341   6.208   6.447  14.080 -0.5099  0.0023  0.8800
 5284TIP3   OH237342   2.480   4.248  15.400  0.0919 -0.5663  0.7711
 5284TIP3    H137343   2.501   4.158  15.377 -0.2561 -1.0133  2.0731
 5284TIP3    H237344   2.444   4.287  15.320  2.2508 -0.9010 -0.4295
 5285TIP3   OH237345   1.073   4.327   3.054  0.2344  0.3940 -0.4010
 5285TIP3    H137346   1.100   4.308   3.144  0.9365  1.4202 -0.3778
 5285TIP3    H237347   1.123   4.266   3.000 -1.2268 -1.2023 -0.0380
 5286TIP3   OH237348   4.582   3.688  15.442 -0.0073 -0.2934 -0.5362
 5286TIP3    H137349   4.661   3.638  15.425  0.1561 -0.3249  0.3037
 5286TIP3    H237350   4.608   3.754  15.506 -0.9223 -1.0451  0.6653
 5287TIP3   OH237351   3.985   1.113  14.607  0.2608 -0.6167 -0.0581
 5287TIP3    H137352   4.035   1.087  14.529 -0.2180  0.2678 -0.6822
 5287TIP3    H237353   3.957   1.031  14.647 -1.4750 -1.1329 -2.1295
 5288TIP3   OH237354   1.790   0.461  10.451 -0.9334 -0.5057  0.2174
 5288TIP3    H137355   1.746   0.457  10.536 -1.5292  0.3537 -0.0276
 5288TIP3    H237356   1.797   0.555  10.433 -0.0050 -0.6646 -0.2793
 5289TIP3   OH237357   1.366   2.388   2.027 -0.0524  0.0548  0.3129
 5289TIP3    H137358   1.348   2.334   2.104 -2.2541 -0.5644 -0.5785
 5289TIP3    H237359   1.341   2.334   1.953 -0.6756  1.6529 -0.6952
 5290TIP3   OH237360   3.930   4.131   1.779  0.2101 -0.3841 -0.1953
 5290TIP3    H137361   3.868   4.130   1.706  0.1373  0.2481 -0.1546
 5290TIP3    H237362   3.943   4.039   1.801  0.7608 -0.6243 -1.4399
 5291TIP3   OH237363   1.740   3.364   4.269 -0.4142 -0.2598 -0.2645
 5291TIP3    H137364   1.644   3.360   4.264 -0.5991  1.1788  1.1838
 5291TIP3    H237365   1.757   3.434   4.332  1.5787 -2.6022  1.9993
 5292TIP3   OH237366   4.771   3.091  16.503 -0.2770  0.1845 -0.5608
 5292TIP3    H137367   4.728   3.044  16.432 -0.8733 -0.1984  0.0416
 5292TIP3    H237368   4.857   3.050  16.512 -0.6848 -0.6138 -0.2247
 5293TIP3   OH237369   6.580   2.508  16.136  0.2354  0.3367  0.4425
 5293TIP3    H137370   6.675   2.514  16.125 -0.0246  2.7262 -1.4260
 5293TIP3    H237371   6.551   2.454  16.062 -0.1019  2.9771 -1.5135
 5294TIP3   OH237372   0.440   2.892  14.306 -0.5555  0.0784  0.3917
 5294TIP3    H137373   0.382   2.879  14.231 -1.3999  0.4283  0.9753
 5294TIP3    H237374   0.512   2.831  14.292 -0.6241  0.2541 -0.7845
 5295TIP3   OH237375   1.227   6.675  12.570 -0.0940  0.1664  0.7040
 5295TIP3    H137376   1.314   6.713  12.555  0.3212 -0.0186  2.4748
 5295TIP3    H237377   1.203   6.638  12.485  2.1866 -1.0276  0.4866
 5296TIP3   OH237378   5.457   6.282  16.767  0.2391  0.1677 -0.2499
 5296TIP3    H137379   5.457   6.239  16.853  0.9593 -0.6174 -0.6268
 5296TIP3    H237380   5.537   6.336  16.767 -0.1978  0.8274 -0.1180
 5297TIP3   OH237381   5.994   4.667  14.913  0.7672 -0.3925  0.2784
 5297TIP3    H137382   5.950   4.712  14.841  3.8293  0.0154 -1.5228
 5297TIP3    H237383   6.024   4.584  14.875  0.3758 -1.2935  1.8332
 5298TIP3   OH237384   3.326   4.482  13.038  0.2823 -0.8404 -0.1745
 5298TIP3    H137385   3.283   4.495  12.954  0.2079 -0.4808 -0.0863
 5298TIP3    H237386   3.299   4.558  13.090  1.0943 -0.5632 -0.1477
 5299TIP3   OH237387   4.260   3.586   6.169 -0.4472 -0.2908 -0.1567
 5299TIP3    H137388   4.182   3.636   6.145 -2.4015 -2.0799  1.9548
 5299TIP3    H237389   4.258   3.509   6.112  0.8026  0.4358 -1.2493
 5300TIP3   OH237390   0.715   1.064   3.012  0.1236  0.2273  0.3331
 5300TIP3    H137391   0.775   1.034   3.079 -1.6343 -0.6752  1.5867
 5300TIP3    H237392   0.702   0.989   2.955  2.3638  1.2629 -1.7127
 5301TIP3   OH237393   6.481   3.370  16.374  0.3771  0.5120 -0.3980
 5301TIP3    H137394   6.397   3.332  16.402  1.1450  1.2379  3.3659
 5301TIP3    H237395   6.546   3.304  16.397  1.1692  1.6112  0.6463
 5302TIP3   OH237396   1.516   0.354   6.101 -0.1489  0.3816 -0.6476
 5302TIP3    H137397   1.520   0.443   6.136 -1.3820 -0.2033  1.1709
 5302TIP3    H237398   1.591   0.348   6.042  1.7033  1.7349  1.3876
 5303TIP3   OH237399   5.719   4.123   2.835  0.4949 -0.4449  0.7874
 5303TIP3    H137400   5.806   4.095   2.864  1.3073 -1.0900 -1.8988
 5303TIP3    H237401   5.675   4.042   2.809  0.1614  0.1101 -0.4456
 5304TIP3   OH237402   3.032   4.934   4.072  0.3175 -0.1180  0.1646
 5304TIP3    H137403   2.998   4.882   4.145 -0.3491 -0.2730 -0.2484
 5304TIP3    H237404   3.006   5.024   4.092 -0.1624 -0.2070 -0.0435
 5305TIP3   OH237405   1.118   2.193   5.170  0.3381 -0.6053 -0.2010
 5305TIP3    H137406   1.135   2.105   5.137 -0.2264 -0.4060 -1.0418
 5305TIP3    H237407   1.107   2.247   5.092  2.5790  0.6280  0.2132
 5306TIP3   OH237408   6.491   4.884   6.018  0.1926 -0.4829  0.1773
 5306TIP3    H137409   6.532   4.809   5.976  0.0199 -1.0588  1.0064
 5306TIP3    H237410   6.514   4.875   6.111  0.0849  0.4311  0.2996
 5307TIP3   OH237411   1.759   1.165   2.418  0.4215  0.1747  0.1214
 5307TIP3    H137412   1.695   1.125   2.477  0.5390 -0.3058 -0.0731
 5307TIP3    H237413   1.730   1.140   2.331  0.7199  0.1778  0.0194
 5308TIP3   OH237414   5.059   6.702   0.014  0.1542  0.1567  0.0370
 5308TIP3    H137415   5.025   6.684   0.102  1.1508  0.3284  0.4692
 5308TIP3    H237416   4.982   6.728  -0.036 -0.8163 -2.0680  0.2596
 5309TIP3   OH237417   0.912   1.232  16.611  0.1521 -0.3758 -0.4400
 5309TIP3    H137418   0.931   1.170  16.541 -4.3899 -2.8567  0.1003
 5309TIP3    H237419   0.836   1.281  16.579  0.1071  0.8799  1.4237
 5310TIP3   OH237420   4.241   0.279   1.058 -0.2617 -0.4120 -0.1425
 5310TIP3    H137421   4.168   0.339   1.070  0.0905 -0.1540  0.8137
 5310TIP3    H237422   4.279   0.270   1.145  0.1686 -1.4141 -0.4223
 5311TIP3   OH237423   4.269   3.009   3.195 -0.4790  0.1621  0.1671
 5311TIP3    H137424   4.269   2.994   3.101 -0.3350  2.0824 -0.1776
 5311TIP3    H237425   4.197   2.955   3.228 -1.4411  0.5497 -1.2277
 5312TIP3   OH237426   6.556   1.329  15.868  0.6573  0.2937 -0.2385
 5312TIP3    H137427   6.642   1.294  15.847  1.4655  1.6592  0.6083
 5312TIP3    H237428   6.511   1.337  15.784  1.0985 -1.0100 -0.6217
 5313TIP3   OH237429   0.156   3.055  15.820 -0.1416 -0.0861 -0.6089
 5313TIP3    H137430   0.191   2.968  15.839  1.0675  0.3956 -0.5443
 5313TIP3    H237431   0.157   3.100  15.905 -0.6961  0.0164 -0.6549
 5314TIP3   OH237432   6.210   5.603   3.510  0.7768  0.2722  0.1702
 5314TIP3    H137433   6.209   5.595   3.415 -1.9976 -0.0594  0.1663
 5314TIP3    H237434   6.230   5.515   3.542 -1.5615 -0.4134 -0.1248
 5315TIP3   OH237435   1.451   4.485  11.572  0.2618  0.3179  0.1154
 5315TIP3    H137436   1.392   4.486  11.647 -0.5458  0.5549 -0.5189
 5315TIP3    H237437   1.473   4.392  11.561 -0.2208  0.1945  0.1766
 5316TIP3   OH237438   5.116   2.905  12.337 -0.0448 -0.2484 -0.2512
 5316TIP3    H137439   5.121   2.987  12.286  0.9968 -1.3556 -2.0294
 5316TIP3    H237440   5.202   2.865  12.327 -0.1118 -0.9714  1.7102
 5317TIP3   OH237441   1.541   5.981   1.564 -0.1233  0.4661  1.1730
 5317TIP3    H137442   1.574   6.011   1.479 -0.6277  1.8750  1.4428
 5317TIP3    H237443   1.489   5.903   1.543 -2.1892  2.0682 -0.2143
 5318TIP3   OH237444   4.764   4.202  16.987  0.3291 -0.3068 -0.1035
 5318TIP3    H137445   4.828   4.227  17.054 -2.0499  0.7536  1.8987
 5318TIP3    H237446   4.754   4.280  16.934 -1.1033  0.4090  1.1540
 5319TIP3   OH237447   3.941   6.432   3.928  0.4836  0.6418 -0.5569
 5319TIP3    H137448   4.015   6.372   3.923 -0.7415 -1.1180  1.0157
 5319TIP3    H237449   3.901   6.429   3.841  0.3117 -1.0660 -0.4496
 5320TIP3   OH237450   5.223   3.421  14.148  0.1621  0.1234  0.2527
 5320TIP3    H137451   5.133   3.449  14.165  0.7825  1.6847  1.1974
 5320TIP3    H237452   5.251   3.474  14.073  0.5772  0.3241  0.5447
 5321TIP3   OH237453   1.054   2.156  14.447 -0.3963  0.0075 -0.1731
 5321TIP3    H137454   0.979   2.183  14.500  1.4604  1.0510  2.1168
 5321TIP3    H237455   1.111   2.233  14.444  0.7195 -0.8206 -1.5840
 5322TIP3   OH237456   0.670   6.585   3.927  1.1767  0.2912  0.1732
 5322TIP3    H137457   0.670   6.489   3.922 -0.8106  0.2617  0.2471
 5322TIP3    H237458   0.711   6.613   3.845 -1.8512 -0.6161 -1.8020
 5323TIP3   OH237459   4.746   3.259  11.844 -0.2889  0.0826 -0.4054
 5323TIP3    H137460   4.783   3.337  11.802  0.4824  0.5277  1.0115
 5323TIP3    H237461   4.659   3.249  11.805 -0.1218  1.2290 -1.1272
 5324TIP3   OH237462   2.416   0.530   2.219 -0.1770 -0.2484  0.0461
 5324TIP3    H137463   2.424   0.467   2.148 -0.7907  0.8287 -1.0290
 5324TIP3    H237464   2.348   0.591   2.189 -1.5196 -0.5729  2.1986
 5325TIP3   OH237465   0.902   5.461  14.455  0.4006 -0.2408  0.4976
 5325TIP3    H137466   0.812   5.472  14.423  0.3790 -1.3964  0.1121
 5325TIP3    H237467   0.923   5.370  14.436  0.7512 -0.7410  2.9309
 5326TIP3   OH237468   4.823   0.518   5.548 -0.1107  0.2781  0.9313
 5326TIP3    H137469   4.813   0.604   5.590  2.4442  0.6610  0.9011
 5326TIP3    H237470   4.797   0.534   5.457  0.0712  0.9628  0.9885
 5327TIP3   OH237471   4.003   0.842   3.121 -0.3136  0.2280 -0.4715
 5327TIP3    H137472   3.950   0.800   3.054 -0.3000  1.0891 -1.0324
 5327TIP3    H237473   4.086   0.862   3.079 -0.7200  1.8412 -0.5786
 5328TIP3   OH237474   3.616   4.261   5.318 -0.5213  0.1461  0.5034
 5328TIP3    H137475   3.602   4.185   5.375 -1.5218  0.2461  0.4033
 5328TIP3    H237476   3.561   4.330   5.355 -0.9948  0.2859 -0.4339
 5329TIP3   OH237477   3.625   6.151  11.940 -0.1459  0.3271  0.3777
 5329TIP3    H137478   3.667   6.188  12.017 -0.5420  0.4109  0.5584
 5329TIP3    H237479   3.548   6.106  11.974  0.9037 -1.6294  0.2910
 5330TIP3   OH237480   6.215   3.474  14.199  0.0504  0.0956 -0.0167
 5330TIP3    H137481   6.236   3.567  14.213  1.4209 -0.0760 -0.8217
 5330TIP3    H237482   6.124   3.467  14.227 -0.4134  1.9105 -0.8789
 5331TIP3   OH237483   5.783   6.432  11.125 -0.3899  0.1860 -0.3751
 5331TIP3    H137484   5.836   6.510  11.107 -0.8836  1.4371  2.9182
 5331TIP3    H237485   5.834   6.383  11.190 -2.1706  0.3039  1.2089
 5332TIP3   OH237486   5.084   2.088  13.085  0.4422 -0.6679  0.5510
 5332TIP3    H137487   5.156   2.085  13.022  1.5644 -0.5745  1.7741
 5332TIP3    H237488   5.114   2.034  13.158 -0.8403 -0.8082  0.9969
 5333TIP3   OH237489   5.744   3.653   0.995 -0.0532  0.0987  0.3761
 5333TIP3    H137490   5.756   3.675   1.088  2.8800 -0.6189  0.2822
 5333TIP3    H237491   5.698   3.728   0.959  0.5123  1.3276  2.0514
 5334TIP3   OH237492   2.658   2.741   0.774  0.7084  0.5426  0.5342
 5334TIP3    H137493   2.624   2.710   0.858  1.4461  0.9221  0.9771
 5334TIP3    H237494   2.581   2.776   0.728 -0.2044 -1.9992 -0.0374
 5335TIP3   OH237495   0.883   6.038  14.340  0.3887 -0.1151 -0.2383
 5335TIP3    H137496   0.899   6.121  14.385 -0.5030  0.1438 -0.3689
 5335TIP3    H237497   0.970   6.003  14.321  0.7989  1.2462 -1.0197
 5336TIP3   OH237498   2.140   1.550   4.307 -0.3678 -0.3133  0.3683
 5336TIP3    H137499   2.074   1.480   4.305 -0.0203 -0.6644  0.8229
 5336TIP3    H237500   2.131   1.594   4.223 -0.7518 -0.7599  0.1695
 5337TIP3   OH237501   5.373   5.101   1.171 -0.4539 -0.8817  0.1512
 5337TIP3    H137502   5.302   5.112   1.235 -0.6006  0.4636 -0.2064
 5337TIP3    H237503   5.336   5.043   1.104 -1.4135  0.1664 -0.2682
 5338TIP3   OH237504   0.647   2.955  15.837 -0.4243 -0.1424  0.2378
 5338TIP3    H137505   0.739   2.945  15.812 -0.3022 -0.4933  0.8150
 5338TIP3    H237506   0.629   3.048  15.826 -0.6139 -0.3738 -1.9627
 5339TIP3   OH237507   0.954   4.476   0.675 -0.0971  0.7924 -0.0360
 5339TIP3    H137508   0.957   4.381   0.688 -3.5511  0.5051 -0.3660
 5339TIP3    H237509   0.875   4.504   0.722  0.3378  3.3726 -0.6977
 5340TIP3   OH237510   0.201   2.176  12.596 -0.5076  0.4159 -0.2078
 5340TIP3    H137511   0.175   2.234  12.524 -0.3565  0.7141 -0.0280
 5340TIP3    H237512   0.140   2.102  12.591 -0.5156  0.4476 -0.6222
 5341TIP3   OH237513   2.825   6.029   0.112 -0.3022 -0.5780  0.1362
 5341TIP3    H137514   2.770   5.999   0.184  0.4329 -0.4360  0.7645
 5341TIP3    H237515   2.832   6.123   0.124 -0.2376 -0.5418 -0.1695
 5342TIP3   OH237516   1.891   0.723  15.778  0.1188  0.3809  0.0570
 5342TIP3    H137517   1.966   0.689  15.728  0.5165  1.6880 -0.2786
 5342TIP3    H237518   1.815   0.681  15.738  0.6305 -0.6463  0.1253
 5343TIP3   OH237519   2.850   4.537   0.389 -0.1035  0.2094  0.2112
 5343TIP3    H137520   2.882   4.520   0.300  1.8778  0.6709  0.7907
 5343TIP3    H237521   2.913   4.493   0.446 -1.7646 -0.7213  1.4062
 5344TIP3   OH237522   1.543   3.665  14.202 -0.0970 -0.1096  0.3490
 5344TIP3    H137523   1.480   3.702  14.140  0.3673 -1.1338 -0.7773
 5344TIP3    H237524   1.512   3.575  14.216  0.2229 -0.1193  1.0429
 5345TIP3   OH237525   4.972   2.558  14.014 -0.5695 -0.2010 -0.4175
 5345TIP3    H137526   4.939   2.493  13.952 -0.8578  1.3879 -2.0029
 5345TIP3    H237527   5.055   2.587  13.977 -1.1346  1.3724 -0.5467
 5346TIP3   OH237528   5.873   5.003  14.883 -0.0499  0.1393 -0.2900
 5346TIP3    H137529   5.811   5.004  14.810 -0.8501 -0.3410  0.3549
 5346TIP3    H237530   5.818   4.986  14.960  1.0534 -1.8515  0.1326
 5347TIP3   OH237531   2.863   0.396  17.064 -1.2518 -0.2004 -0.4749
 5347TIP3    H137532   2.803   0.369  17.133 -1.6667 -0.4600 -0.9245
 5347TIP3    H237533   2.806   0.419  16.991 -0.8391 -3.8862 -2.2156
 5348TIP3   OH237534   2.055   6.508   2.013 -0.4553 -0.7109  0.5096
 5348TIP3    H137535   1.971   6.460   2.012 -0.2226 -1.1285  0.6435
 5348TIP3    H237536   2.113   6.456   1.957 -0.1383 -0.7009  0.8259
 5349TIP3   OH237537   5.416   5.190   0.782 -0.0301  0.6137 -0.2345
 5349TIP3    H137538   5.415   5.231   0.868 -0.2834 -0.8268  0.4912
 5349TIP3    H237539   5.324   5.172   0.763  0.0907  0.1913 -0.4310
 5350TIP3   OH237540   5.147   0.914  10.922  0.3791 -0.1920  0.5909
 5350TIP3    H137541   5.234   0.875  10.934  0.7281  0.1184 -0.7838
 5350TIP3    H237542   5.162   1.008  10.924  0.3480 -0.1155 -1.2492
 5351TIP3   OH237543   5.963   5.312   4.649 -0.2968  0.1858  0.0597
 5351TIP3    H137544   5.982   5.315   4.743  0.2392 -0.5941 -0.0189
 5351TIP3    H237545   5.878   5.268   4.643  0.4739 -1.3816  0.0949
 5352TIP3   OH237546   4.720   2.501   0.156 -0.4612  0.4281 -0.3170
 5352TIP3    H137547   4.681   2.485   0.243 -0.8292  2.6972  0.0218
 5352TIP3    H237548   4.704   2.421   0.107 -3.8450  0.4655  0.4681
 5353TIP3   OH237549   2.302   1.542  15.683 -0.1744 -0.0869  0.3519
 5353TIP3    H137550   2.306   1.551  15.588  0.0801  0.4665  0.4084
 5353TIP3    H237551   2.391   1.564  15.712 -0.4099  0.3309  0.7597
 5354TIP3   OH237552   1.006   2.043  15.741  0.4597 -0.7488 -0.6424
 5354TIP3    H137553   0.956   1.987  15.800  0.7313 -1.4955 -1.1083
 5354TIP3    H237554   0.978   2.132  15.763  1.5729 -0.8683  1.5773
 5355TIP3   OH237555   1.491   0.289  11.113  0.1691 -0.3489 -0.2377
 5355TIP3    H137556   1.558   0.233  11.075 -0.3265 -1.0444 -0.1135
 5355TIP3    H237557   1.424   0.295  11.046 -0.6172 -1.4168  0.4118
 5356TIP3   OH237558   3.944   3.221  12.573  0.5200 -0.0475 -0.3157
 5356TIP3    H137559   3.898   3.292  12.618 -0.9926 -0.9456 -0.3639
 5356TIP3    H237560   3.931   3.240  12.480  1.0795  0.2087 -0.3427
 5357TIP3   OH237561   2.743   2.002  11.762 -0.5276 -0.2173 -0.0900
 5357TIP3    H137562   2.743   1.968  11.851 -0.3795 -0.2427 -0.1010
 5357TIP3    H237563   2.665   2.058  11.758  0.9535  2.0579  0.9212
 5358TIP3   OH237564   3.129   4.672   3.620  0.4771 -0.7856  0.3341
 5358TIP3    H137565   3.181   4.602   3.581  0.0399 -0.1985 -1.4173
 5358TIP3    H237566   3.039   4.653   3.593  0.3277  0.3127  0.0138
 5359TIP3   OH237567   4.365   0.215   1.518 -0.1788 -0.2506 -0.2091
 5359TIP3    H137568   4.390   0.128   1.487 -0.5270  0.0185 -1.2590
 5359TIP3    H237569   4.320   0.256   1.444 -0.6785  0.5537  0.5174
 5360TIP3   OH237570   6.261   2.013   3.770  0.4411 -0.1903  0.1044
 5360TIP3    H137571   6.182   2.008   3.823  1.0893 -3.4804  0.9603
 5360TIP3    H237572   6.324   1.958   3.816  2.3135  0.0152 -2.0567
 5361TIP3   OH237573   3.053   1.918   0.757 -0.0437  0.3635  0.1371
 5361TIP3    H137574   3.023   2.009   0.750 -0.9207  0.0143 -0.8332
 5361TIP3    H237575   3.138   1.917   0.713  0.7023  1.0274  1.5124
 5362TIP3   OH237576   2.931   2.005   4.066 -0.3125  0.6078  0.0016
 5362TIP3    H137577   2.971   2.030   3.983  0.0254  3.3943  0.8776
 5362TIP3    H237578   2.838   1.993   4.045 -0.5700  2.9780 -0.5859
 5363TIP3   OH237579   4.704   0.168  11.253 -0.4676  0.6312 -0.7486
 5363TIP3    H137580   4.783   0.203  11.210  0.0645 -0.8953 -1.0807
 5363TIP3    H237581   4.732   0.149  11.342 -0.3508 -0.1882 -0.9487
 5364TIP3   OH237582   0.582   1.489  17.126 -0.6461  0.1645  0.1685
 5364TIP3    H137583   0.581   1.397  17.101  1.1488  0.0120  0.4876
 5364TIP3    H237584   0.491   1.517  17.121 -1.0254 -1.2202 -1.4082
 5365TIP3   OH237585   6.258   0.973   0.862  0.1606 -0.3513 -1.0967
 5365TIP3    H137586   6.328   0.967   0.927  0.8275 -0.4577 -1.8093
 5365TIP3    H237587   6.278   1.051   0.812 -1.0014  0.3849 -0.4518
 5366TIP3   OH237588   5.258   1.551   5.667 -0.2618  0.5290  0.1529
 5366TIP3    H137589   5.274   1.645   5.670  1.0361  0.4004 -1.4013
 5366TIP3    H237590   5.204   1.537   5.590  0.1098 -0.0571 -0.0095
 5367TIP3   OH237591   1.892   6.803   4.034 -0.0634 -0.0555  0.7645
 5367TIP3    H137592   1.968   6.764   3.990 -0.7096 -1.5794  0.9486
 5367TIP3    H237593   1.825   6.735   4.031 -1.5715  1.3806  0.2687
 5368TIP3   OH237594   5.029   0.549  14.471 -0.0192 -0.3596 -0.2450
 5368TIP3    H137595   5.011   0.457  14.454  0.5629 -0.7854  1.2368
 5368TIP3    H237596   5.116   0.564  14.433 -1.1564  0.3201 -2.7913
 5369TIP3   OH237597   5.986   0.662  13.930 -0.2306  0.4059  0.0260
 5369TIP3    H137598   6.069   0.615  13.922  1.0998  2.2492  1.8803
 5369TIP3    H237599   5.925   0.599  13.967  0.5084 -0.7843 -0.7116
 5370TIP3   OH237600   1.333   4.524  11.166  0.1215  0.0359 -0.1436
 5370TIP3    H137601   1.298   4.470  11.236  0.3376 -0.6462 -0.5452
 5370TIP3    H237602   1.256   4.560  11.121 -0.0118  0.9798  0.8072
 5371TIP3   OH237603   2.337   4.662   0.471  0.2907 -0.1790 -0.3893
 5371TIP3    H137604   2.268   4.669   0.405 -0.6373  1.5533  0.6885
 5371TIP3    H237605   2.294   4.684   0.553  2.2460  1.6272  0.2334
 5372TIP3   OH237606   1.833   5.557  13.370 -0.0652  0.2215  0.3434
 5372TIP3    H137607   1.847   5.562  13.275  0.6326  0.7709  0.4630
 5372TIP3    H237608   1.738   5.552  13.380 -0.0934 -0.9736 -0.4221
 5373TIP3   OH237609   4.668   6.706   4.694  0.6369 -0.8605  0.0062
 5373TIP3    H137610   4.633   6.795   4.691 -0.6540 -1.3671 -1.2861
 5373TIP3    H237611   4.743   6.708   4.635  1.5047 -0.3063  1.0900
 5374TIP3   OH237612   6.777   5.066  12.338  0.0604  0.0441 -0.0074
 5374TIP3    H137613   6.782   5.159  12.315  1.0858 -0.1063 -0.4449
 5374TIP3    H237614   6.784   5.020  12.254 -0.5304 -0.4392  0.1979
 5375TIP3   OH237615   3.717   6.269  12.202 -0.8115 -0.9748 -0.6685
 5375TIP3    H137616   3.767   6.349  12.189  2.3578 -2.4010  1.3818
 5375TIP3    H237617   3.655   6.291  12.273 -0.5967 -0.1178 -0.7381
 5376TIP3   OH237618   3.947   4.998   0.797 -0.5699  0.7015 -0.1768
 5376TIP3    H137619   4.028   4.956   0.767 -0.5819 -0.8357  1.7472
 5376TIP3    H237620   3.962   5.016   0.890 -1.9082  1.7612 -0.1399
 5377TIP3   OH237621   6.102   5.719   1.886 -0.4836 -0.7154  0.5465
 5377TIP3    H137622   6.061   5.776   1.952 -0.2535  0.7081 -0.5029
 5377TIP3    H237623   6.163   5.665   1.936 -1.2973 -0.6338  1.6847
 5378TIP3   OH237624   5.273   4.067  13.186 -0.2400 -0.4546 -0.3136
 5378TIP3    H137625   5.181   4.065  13.211 -0.4762 -0.5441 -1.1639
 5378TIP3    H237626   5.318   4.024  13.258 -0.8161 -0.0314  0.3092
 5379TIP3   OH237627   5.071   5.523   1.389  0.1792  0.9377 -0.1149
 5379TIP3    H137628   5.052   5.599   1.444  1.5265  0.6500  0.8015
 5379TIP3    H237629   5.041   5.549   1.302 -0.9894  1.8334  0.5182
 5380TIP3   OH237630   3.853   0.965   5.408 -0.2616  0.0853  0.2148
 5380TIP3    H137631   3.912   0.891   5.400  0.5636  0.4207  2.5817
 5380TIP3    H237632   3.908   1.042   5.391 -0.8804  0.2450 -1.1975
 5381TIP3   OH237633   2.834   6.497   2.957  0.0755  0.2476 -0.3975
 5381TIP3    H137634   2.815   6.498   3.051  3.3318 -0.3522  0.3729
 5381TIP3    H237635   2.810   6.584   2.927  2.1357  1.6789  1.7848
 5382TIP3   OH237636   4.950   2.497   3.596  0.4318 -0.3677 -0.0110
 5382TIP3    H137637   5.024   2.499   3.656  0.5730 -0.2903 -0.1854
 5382TIP3    H237638   4.877   2.463   3.648  1.0740 -2.3970 -0.3395
 5383TIP3   OH237639   3.597   4.560  14.606  0.1006  0.6925 -0.1200
 5383TIP3    H137640   3.583   4.492  14.671  0.2502  1.3559  0.6325
 5383TIP3    H237641   3.649   4.626  14.653 -0.7484  1.7028 -0.5685
 5384TIP3   OH237642   2.975   0.936   3.574  0.1979  0.1849 -0.5828
 5384TIP3    H137643   3.068   0.940   3.551  0.5767 -0.3852  0.7502
 5384TIP3    H237644   2.966   0.992   3.651 -0.3292 -0.6062 -0.0381
 5385TIP3   OH237645   0.377   4.890   6.196 -0.2542  0.0125  0.1688
 5385TIP3    H137646   0.427   4.924   6.269 -1.7652  0.7180  0.9201
 5385TIP3    H237647   0.307   4.839   6.236 -0.5333 -0.4215 -0.8248
 5386TIP3   OH237648   0.799   5.431  12.683  0.2576  0.0999 -0.4265
 5386TIP3    H137649   0.772   5.518  12.655  1.1257  0.3794 -0.4367
 5386TIP3    H237650   0.767   5.372  12.614  1.4672  0.6565 -1.5088
 5387TIP3   OH237651   0.032   2.895  11.990 -0.0509  0.3428 -0.5544
 5387TIP3    H137652   0.056   2.803  11.998  1.9785  0.6129 -2.4345
 5387TIP3    H237653   0.095   2.942  12.044  0.7700  0.7794 -1.8485
 5388TIP3   OH237654   3.439   0.090  13.436  0.0972 -0.6021  0.3049
 5388TIP3    H137655   3.515   0.119  13.385  1.2857  1.2431  2.8895
 5388TIP3    H237656   3.372   0.156  13.420 -0.8336 -1.8857 -1.4636
 5389TIP3   OH237657   5.594   1.236   3.778 -0.5696  0.0066 -0.4495
 5389TIP3    H137658   5.549   1.176   3.719 -0.8104  0.9752 -1.2880
 5389TIP3    H237659   5.538   1.242   3.855 -0.2007 -1.3498 -0.0557
 5390TIP3   OH237660   1.194   5.352  11.285 -0.2341  0.5606  0.1464
 5390TIP3    H137661   1.258   5.296  11.329  0.0689 -1.4346 -2.5988
 5390TIP3    H237662   1.211   5.340  11.192 -3.1534  1.7208 -0.6571
 5391TIP3   OH237663   3.919   6.820   2.937  0.2656 -0.0787 -0.0475
 5391TIP3    H137664   3.967   6.737   2.928  0.1474 -0.1958  0.3583
 5391TIP3    H237665   3.982   6.887   2.910  0.7287 -0.2140  0.6452
 5392TIP3   OH237666   5.456   5.128   5.643 -0.6126  0.8545  0.1120
 5392TIP3    H137667   5.471   5.111   5.550 -1.6771  0.9690 -0.1031
 5392TIP3    H237668   5.435   5.043   5.681 -0.7052  0.8856  0.1323
 5393TIP3   OH237669   4.377   2.379   2.709  0.3082  0.6812 -0.2594
 5393TIP3    H137670   4.457   2.333   2.736  0.1850  0.3837 -0.3924
 5393TIP3    H237671   4.307   2.336   2.759  0.1073  0.2785 -0.8684
 5394TIP3   OH237672   1.209   4.622  13.051  0.0433  0.5219  0.2579
 5394TIP3    H137673   1.253   4.707  13.046 -1.1441  1.1439 -0.0694
 5394TIP3    H237674   1.160   4.616  12.969 -0.6417 -0.0456  0.6985
 5395TIP3   OH237675   5.570   1.413   3.152  0.3487 -0.2148  0.2538
 5395TIP3    H137676   5.507   1.484   3.155  1.1081  0.5709 -1.3891
 5395TIP3    H237677   5.654   1.456   3.139  0.5513 -1.4130 -3.4905
 5396TIP3   OH237678   4.846   3.116   6.288 -0.2984 -0.4407 -0.1612
 5396TIP3    H137679   4.799   3.033   6.290 -2.2277  0.5966  0.4861
 5396TIP3    H237680   4.866   3.135   6.380 -0.1023 -0.0644 -0.2797
 5397TIP3   OH237681   0.908   2.758   3.750 -0.1710 -0.1528  0.7144
 5397TIP3    H137682   0.979   2.810   3.787  0.1070 -1.1129  1.5918
 5397TIP3    H237683   0.875   2.810   3.677 -0.1206  1.4043  1.7392
 5398TIP3   OH237684   2.059   5.888   4.270 -0.4140 -0.2289 -0.3060
 5398TIP3    H137685   2.123   5.822   4.244  0.1684  0.4148 -0.5240
 5398TIP3    H237686   2.014   5.910   4.188 -1.5017 -1.2686 -0.0258
 5399TIP3   OH237687   6.268   0.860  13.618 -0.1125 -0.2112  0.4582
 5399TIP3    H137688   6.274   0.770  13.585 -2.0562  0.0083 -0.7072
 5399TIP3    H237689   6.208   0.903  13.557 -0.3567  1.4912  1.8245
 5400TIP3   OH237690   5.381   1.480  15.014 -0.0686  0.2042 -0.0342
 5400TIP3    H137691   5.301   1.431  15.032  0.6657 -1.0161  0.0562
 5400TIP3    H237692   5.373   1.560  15.066 -2.0392  1.0060 -1.4777
 5401TIP3   OH237693   2.166   4.455  16.542  0.3792 -0.3268 -0.0689
 5401TIP3    H137694   2.093   4.500  16.501  0.4329 -0.7417 -0.6266
 5401TIP3    H237695   2.125   4.393  16.603  0.2238 -1.2481 -1.0870
 5402TIP3   OH237696   3.403   0.985   4.049 -0.2243 -0.1329  1.1456
 5402TIP3    H137697   3.411   0.889   4.050 -0.3057 -0.1462  0.6738
 5402TIP3    H237698   3.435   1.011   3.963 -1.5784  0.1378  0.6930
 5403TIP3   OH237699   2.955   0.107  15.565 -0.2656  0.3770  0.1901
 5403TIP3    H137700   2.903   0.141  15.492  0.7046  0.7284 -0.3530
 5403TIP3    H237701   3.026   0.058  15.523  0.1584  0.3652  0.9072
 5404TIP3   OH237702   3.188   2.466   5.998  0.0742  0.0778  0.4723
 5404TIP3    H137703   3.129   2.498   6.066  1.1879  0.7339  1.1718
 5404TIP3    H237704   3.171   2.523   5.923 -1.8768 -1.2928 -0.1950
 5405TIP3   OH237705   4.571   1.708   5.926 -0.2262 -0.2089  0.4558
 5405TIP3    H137706   4.606   1.771   5.989  2.8025 -1.7391  0.4952
 5405TIP3    H237707   4.582   1.623   5.969 -0.3594 -1.1064 -1.1972
 5406TIP3   OH237708   4.510   5.783   5.692  0.5393 -0.4535  0.0939
 5406TIP3    H137709   4.515   5.741   5.778 -2.0883 -1.8701 -0.3353
 5406TIP3    H237710   4.554   5.722   5.633 -0.5803 -1.1901 -0.0296
 5407TIP3   OH237711   3.105   3.984  14.721  0.1649  0.5165  0.3238
 5407TIP3    H137712   3.068   3.960  14.636  0.6431 -0.8812  0.4896
 5407TIP3    H237713   3.195   4.011  14.701  0.2339  0.3203  0.3683
 5408TIP3   OH237714   4.133   3.872  14.117 -0.0298  0.1028 -0.2015
 5408TIP3    H137715   4.153   3.788  14.075 -1.1262  0.6297 -1.8841
 5408TIP3    H237716   4.214   3.897  14.161  1.7495  0.2016 -3.2507
 5409TIP3   OH237717   4.380   4.794   0.216 -0.1350 -0.1224 -0.3839
 5409TIP3    H137718   4.456   4.788   0.273 -0.3428  0.0414 -0.0852
 5409TIP3    H237719   4.412   4.768   0.130  0.5346  1.0185 -0.4964
 5410TIP3   OH237720   2.521   3.932  10.709  0.1267  0.4381 -0.2590
 5410TIP3    H137721   2.578   3.988  10.656  0.0897  0.6648 -0.0589
 5410TIP3    H237722   2.565   3.924  10.793  2.9851 -4.2417 -1.8138
 5411TIP3   OH237723   6.239   6.537   5.408  0.2179 -0.3052 -0.1723
 5411TIP3    H137724   6.190   6.456   5.399  0.3796 -0.2585 -1.6714
 5411TIP3    H237725   6.254   6.567   5.318 -2.4358  3.0013  0.3184
 5412TIP3   OH237726   4.029   3.836   3.699 -0.1209  0.4997  0.4447
 5412TIP3    H137727   4.099   3.866   3.640 -0.7907 -0.8684 -1.1337
 5412TIP3    H237728   3.948   3.862   3.655 -0.6309  0.0872  1.1263
 5413TIP3   OH237729   4.552   6.165   0.659 -0.0826 -0.6613 -0.0703
 5413TIP3    H137730   4.623   6.127   0.712 -1.1505 -0.7598  1.3491
 5413TIP3    H237731   4.472   6.128   0.697 -1.1905  2.6103  1.1430
 5414TIP3   OH237732   5.104   0.552   4.031 -0.5328  0.3309 -0.2930
 5414TIP3    H137733   5.084   0.599   3.951 -0.1589  1.1605  0.0898
 5414TIP3    H237734   5.075   0.611   4.101 -1.3079 -0.5828  0.1859
 5415TIP3   OH237735   3.538   1.549  11.824 -0.0241  0.4410 -0.2659
 5415TIP3    H137736   3.585   1.630  11.802  0.4723  0.5158  0.9650
 5415TIP3    H237737   3.596   1.479  11.794  0.1821  0.5462 -0.1217
 5416TIP3   OH237738   5.876   4.557  15.148 -0.3088 -0.0781  0.1687
 5416TIP3    H137739   5.794   4.514  15.124 -0.0478  0.0125 -0.9201
 5416TIP3    H237740   5.903   4.603  15.069  0.7759 -0.0753  0.5255
 5417TIP3   OH237741   5.383   2.447   0.809  0.8983 -0.3452 -0.2972
 5417TIP3    H137742   5.346   2.397   0.882 -0.6956 -1.0670 -1.5247
 5417TIP3    H237743   5.307   2.489   0.768  1.7247 -0.1053 -1.6352
 5418TIP3   OH237744   4.292   3.635   4.355 -0.2628  0.0502  0.1240
 5418TIP3    H137745   4.242   3.666   4.431  0.0327 -1.3155  0.9088
 5418TIP3    H237746   4.383   3.641   4.382 -0.0355  1.2439 -0.8079
 5419TIP3   OH237747   2.050   6.441   3.117 -0.5212 -0.3881  0.2551
 5419TIP3    H137748   2.058   6.352   3.082  0.6534 -0.8284  1.5811
 5419TIP3    H237749   2.081   6.498   3.046 -2.6090 -0.8671 -1.1502
 5420TIP3   OH237750   3.106   2.617  13.530 -0.0394  0.0751 -0.2225
 5420TIP3    H137751   3.071   2.645  13.615 -0.7815 -1.6469  0.0705
 5420TIP3    H237752   3.062   2.673  13.466 -1.8668 -0.6901  0.3025
 5421TIP3   OH237753   5.948   4.773   2.133  0.3971 -0.3457 -0.1531
 5421TIP3    H137754   5.924   4.725   2.212  1.0469 -3.1294 -1.5111
 5421TIP3    H237755   5.901   4.856   2.140 -0.3220 -0.8721  2.6439
 5422TIP3   OH237756   0.241   6.229   1.713  1.0167  0.2091 -0.2214
 5422TIP3    H137757   0.207   6.183   1.790 -0.3288 -0.0277 -0.9081
 5422TIP3    H237758   0.335   6.215   1.716  0.9568 -0.0761  1.1958
 5423TIP3   OH237759   1.241   3.097  17.162  0.0522  0.1441  0.0505
 5423TIP3    H137760   1.189   3.175  17.143  0.5252  1.1109  2.3393
 5423TIP3    H237761   1.326   3.132  17.190  0.4941 -1.2336  0.4634
 5424TIP3   OH237762   3.233   0.186  15.719 -0.8725 -0.0714  0.0983
 5424TIP3    H137763   3.256   0.232  15.800  1.5102  0.7325 -0.9704
 5424TIP3    H237764   3.167   0.242  15.678 -0.7520  0.4573  0.6058
 5425TIP3   OH237765   1.541   3.709  11.834 -0.2695  0.2805 -0.6628
 5425TIP3    H137766   1.488   3.787  11.849 -0.2273  0.1686  0.0804
 5425TIP3    H237767   1.479   3.636  11.840 -0.2090  0.2181 -0.7966
 5426TIP3   OH237768   6.765   2.489   4.033  0.3240  0.3043  0.2794
 5426TIP3    H137769   6.761   2.487   4.128 -1.6214 -3.6805  0.2761
 5426TIP3    H237770   6.698   2.552   4.007 -0.0102  0.4653  1.4976
 5427TIP3   OH237771   3.324   5.718  15.261 -0.5046  0.5127  0.3022
 5427TIP3    H137772   3.320   5.801  15.309 -0.9794  1.3530 -1.1224
 5427TIP3    H237773   3.280   5.736  15.178 -0.4956 -1.1416 -0.0985
 5428TIP3   OH237774   4.335   1.072  11.117  0.1417 -0.2018  0.0664
 5428TIP3    H137775   4.298   1.032  11.039 -0.3944 -1.1037  0.7710
 5428TIP3    H237776   4.359   1.161  11.089 -3.0535  0.6651 -0.2961
 5429TIP3   OH237777   1.318   4.561  16.193 -0.2834  0.2542  0.1381
 5429TIP3    H137778   1.324   4.521  16.280  0.1651  0.0027 -0.0045
 5429TIP3    H237779   1.267   4.641  16.207  1.2840  1.1578  0.9706
 5430TIP3   OH237780   5.717   2.499  13.563  0.1853  0.7252 -0.3075
 5430TIP3    H137781   5.660   2.457  13.498  1.4641 -0.4884 -0.6795
 5430TIP3    H237782   5.717   2.440  13.638 -0.6083  1.7112  0.5077
 5431TIP3   OH237783   0.877   0.450   4.444 -0.1456 -0.1942  0.1488
 5431TIP3    H137784   0.821   0.503   4.501  0.0623  0.3402 -0.1401
 5431TIP3    H237785   0.936   0.404   4.504 -1.1950 -1.1326  0.4912
 5432TIP3   OH237786   5.307   1.557   3.211 -0.1438 -0.2553  0.1455
 5432TIP3    H137787   5.327   1.553   3.305 -0.3851 -0.7086  0.1753
 5432TIP3    H237788   5.266   1.643   3.199  2.0176  0.8329  0.0480
 5433TIP3   OH237789   6.212   5.722   2.899 -0.3726 -0.6109  0.3308
 5433TIP3    H137790   6.303   5.741   2.921 -0.9508  0.6806  1.7358
 5433TIP3    H237791   6.161   5.773   2.961 -2.0723 -1.1768 -0.5475
 5434TIP3   OH237792   4.163   2.506  15.907  0.4676 -0.5025  0.2658
 5434TIP3    H137793   4.077   2.526  15.869  0.0630 -2.2644  0.1446
 5434TIP3    H237794   4.209   2.458  15.838  1.7421  0.8099  0.1713
 5435TIP3   OH237795   4.250   6.555   4.351  0.5458  0.1865 -0.3612
 5435TIP3    H137796   4.268   6.644   4.382 -1.3682 -0.1322  1.9624
 5435TIP3    H237797   4.236   6.565   4.257  2.7789  1.8874 -0.6060
 5436TIP3   OH237798   4.543   3.255   0.446 -0.5216 -0.3667  0.0756
 5436TIP3    H137799   4.454   3.221   0.438 -0.4167 -0.4883 -0.7096
 5436TIP3    H237800   4.531   3.349   0.459 -0.7834 -0.5310  1.1189
 5437TIP3   OH237801   6.421   1.016  11.637  0.2093 -0.0678  0.1224
 5437TIP3    H137802   6.449   1.077  11.705  1.1263  0.7432 -0.9352
 5437TIP3    H237803   6.498   0.962  11.621  0.1864  0.1170 -0.6449
 5438TIP3   OH237804   6.477   5.532   1.209 -0.1922  0.2754 -0.1943
 5438TIP3    H137805   6.388   5.539   1.244 -0.3547  0.8900 -0.7184
 5438TIP3    H237806   6.465   5.500   1.119  0.1637 -0.3128 -0.0403
 5439TIP3   OH237807   2.464   3.096   4.444 -0.4888  0.4981  0.2703
 5439TIP3    H137808   2.533   3.056   4.391  0.6036  0.7581  1.4788
 5439TIP3    H237809   2.504   3.173   4.483 -2.2240  2.2080 -1.0704
 5440TIP3   OH237810   1.249   3.806  16.807  0.3108  0.3709 -0.5581
 5440TIP3    H137811   1.301   3.758  16.741  0.1230 -0.0583 -0.3946
 5440TIP3    H237812   1.169   3.754  16.816  1.4247 -1.0780  1.9599
 5441TIP3   OH237813   0.200   3.250  11.839 -0.5682 -0.3292 -0.0967
 5441TIP3    H137814   0.124   3.238  11.782 -0.1486 -0.7065 -0.5886
 5441TIP3    H237815   0.185   3.192  11.913 -0.1049 -1.4648 -0.8712
 5442TIP3   OH237816   2.400   3.425  13.719 -0.1066  0.4180  0.3638
 5442TIP3    H137817   2.447   3.343  13.730  0.2816  0.5111 -0.5201
 5442TIP3    H237818   2.347   3.434  13.798  0.4782 -0.2662  0.8358
 5443TIP3   OH237819   1.566   1.910   1.696  0.2258  0.3794 -0.0067
 5443TIP3    H137820   1.636   1.856   1.733  1.4517  1.0443 -1.2908
 5443TIP3    H237821   1.515   1.938   1.773  0.2397 -1.6079  0.7860
 5444TIP3   OH237822   0.967   1.650   0.458  0.5983  0.0292  0.2310
 5444TIP3    H137823   0.873   1.633   0.450  0.6239  0.6933 -2.5905
 5444TIP3    H237824   0.973   1.744   0.475  0.7252  0.2330 -0.8441
 5445TIP3   OH237825   5.946   6.769  16.455  0.0890  0.1744 -0.4648
 5445TIP3    H137826   6.018   6.811  16.409  0.2417  1.5508  0.9469
 5445TIP3    H237827   5.895   6.841  16.492 -1.5098 -0.7918 -0.6656
 5446TIP3   OH237828   6.243   5.509  13.392  0.0390 -0.0204  0.1783
 5446TIP3    H137829   6.275   5.560  13.467 -0.5992  0.7896 -0.0826
 5446TIP3    H237830   6.226   5.422  13.428 -1.0124  0.5637  1.1847
 5447TIP3   OH237831   5.192   2.898   1.719  0.2624  0.1673  0.1087
 5447TIP3    H137832   5.257   2.828   1.727 -1.5170 -1.4413  1.3532
 5447TIP3    H237833   5.127   2.864   1.657 -1.3309  0.0450  1.7331
 5448TIP3   OH237834   4.946   1.111  14.760  0.0703  0.2442  0.1187
 5448TIP3    H137835   5.030   1.158  14.763  0.3512 -0.0862 -1.4580
 5448TIP3    H237836   4.918   1.106  14.851  0.6893  2.2764  0.4835
 5449TIP3   OH237837   4.794   4.079   3.044 -0.3676  0.5199  0.3965
 5449TIP3    H137838   4.815   4.050   2.956  1.5607  1.5809  0.4623
 5449TIP3    H237839   4.761   4.168   3.032 -0.2776  0.5987  0.7329
 5450TIP3   OH237840   3.200   2.215  16.885 -1.0797  0.4062 -1.0188
 5450TIP3    H137841   3.205   2.172  16.800  0.3019  1.1429 -1.3325
 5450TIP3    H237842   3.184   2.144  16.947  1.6452 -0.6718 -1.4430
 5451TIP3   OH237843   1.084   0.757   0.230  0.6064 -0.4712  0.3907
 5451TIP3    H137844   1.025   0.688   0.259  1.8760 -2.1456 -0.8158
 5451TIP3    H237845   1.158   0.753   0.291  1.3373 -1.1722 -0.5100
 5452TIP3   OH237846   4.274   5.230  11.365  0.8464  0.2766 -0.2644
 5452TIP3    H137847   4.348   5.178  11.396  1.9322  3.0633  2.1937
 5452TIP3    H237848   4.313   5.311  11.333 -0.9165  0.3657 -2.4689
 5453TIP3   OH237849   1.658   4.742   5.444 -0.2676 -0.2754 -0.2609
 5453TIP3    H137850   1.720   4.671   5.462  0.0797 -0.0692 -0.6407
 5453TIP3    H237851   1.573   4.705   5.467  0.1745  0.1003  2.2669
 5454TIP3   OH237852   0.608   4.698   6.676 -0.1103  0.3628 -0.2171
 5454TIP3    H137853   0.676   4.655   6.729  0.9819  0.2539 -1.6316
 5454TIP3    H237854   0.610   4.789   6.704  0.5098  0.3263 -0.1304
 5455TIP3   OH237855   5.196   4.455   2.455  0.2968  0.2879 -0.7140
 5455TIP3    H137856   5.267   4.484   2.512  0.6870 -1.3383 -0.3316
 5455TIP3    H237857   5.169   4.535   2.409  1.7726  1.1086 -0.2393
 5456TIP3   OH237858   6.801   3.642  11.922  0.0624 -0.4489  0.7869
 5456TIP3    H137859   6.849   3.594  11.853  1.1432  1.3325  0.2262
 5456TIP3    H237860   6.711   3.646  11.890  1.0362  2.8533 -2.1439
 5457TIP3   OH237861   0.438   5.295   6.291 -0.0322  0.3255 -0.0583
 5457TIP3    H137862   0.390   5.240   6.353  0.3157  0.8256  0.6627
 5457TIP3    H237863   0.527   5.260   6.291  0.0808  0.6088  0.0688
 5458TIP3   OH237864   0.023   4.172   0.647  0.1756 -0.5535  0.3001
 5458TIP3    H137865   0.055   4.176   0.556 -0.6069  0.5864  0.0467
 5458TIP3    H237866  -0.066   4.139   0.639  0.4554 -1.4582  0.7763
 5459TIP3   OH237867   4.580   2.061  10.372 -0.3171 -0.1332 -0.1303
 5459TIP3    H137868   4.605   1.969  10.385 -0.1517  0.2223  2.8926
 5459TIP3    H237869   4.485   2.061  10.382 -0.3739 -0.0146 -0.6352
 5460TIP3   OH237870   6.701   6.383  11.184 -0.2191  0.2149  0.1188
 5460TIP3    H137871   6.682   6.477  11.195  1.3737  0.6594 -0.6358
 5460TIP3    H237872   6.792   6.380  11.154  0.1021 -1.6487  1.1395
 5461TIP3   OH237873   2.067   0.582  16.193  0.3013  0.0488  0.6483
 5461TIP3    H137874   1.980   0.622  16.203 -0.3332 -0.7052 -1.2625
 5461TIP3    H237875   2.123   0.655  16.167 -0.8402 -0.1129 -2.8004
 5462TIP3   OH237876   4.160   4.761   1.904 -0.3614 -0.2479 -0.2108
 5462TIP3    H137877   4.253   4.773   1.923 -0.7663 -0.8942  2.5561
 5462TIP3    H237878   4.125   4.850   1.898  0.0443  0.0273  1.1778
 5463TIP3   OH237879   1.211   2.292  15.542  0.0800  0.0667 -0.1663
 5463TIP3    H137880   1.219   2.344  15.621  0.9060 -1.6297  0.9399
 5463TIP3    H237881   1.147   2.338  15.488  2.4581  3.4754 -0.3504
 5464TIP3   OH237882   0.546   2.896   3.570 -0.2252  0.0901  0.0797
 5464TIP3    H137883   0.473   2.934   3.521  0.4050  0.0602 -0.8955
 5464TIP3    H237884   0.624   2.928   3.526  0.4054  0.9451  1.7220
 5465TIP3   OH237885   0.734   3.433   3.496 -0.3048 -0.2385 -0.3082
 5465TIP3    H137886   0.760   3.384   3.418  1.2938  1.5260 -0.9537
 5465TIP3    H237887   0.756   3.524   3.476  0.0403  0.2828  2.1597
 5466TIP3   OH237888   0.241   3.109  12.695 -0.6006  0.6938 -0.5545
 5466TIP3    H137889   0.214   3.079  12.782 -4.6048 -0.1716 -1.9187
 5466TIP3    H237890   0.280   3.031  12.654 -0.1653  0.6778 -0.1277
 5467TIP3   OH237891   3.665   5.359   1.590  0.6352 -0.1357  0.0401
 5467TIP3    H137892   3.680   5.368   1.496  2.2972  0.4761  0.3296
 5467TIP3    H237893   3.648   5.449   1.620  0.6225 -0.2612  0.4079
 5468TIP3   OH237894   3.624   1.947  15.542  0.4000  0.1192  0.4632
 5468TIP3    H137895   3.672   2.012  15.593  0.6080  1.0517 -0.8728
 5468TIP3    H237896   3.589   1.995  15.467 -0.0920 -1.1550 -0.1704
 5469TIP3   OH237897   1.613   0.740   2.547  0.9093  0.1888 -0.1293
 5469TIP3    H137898   1.676   0.713   2.613  2.5447 -1.2932 -2.1697
 5469TIP3    H237899   1.656   0.721   2.464 -1.4753  0.9701 -1.6335
 5470TIP3   OH237900   0.106   6.176  16.244  0.4536 -0.0759 -0.1622
 5470TIP3    H137901   0.182   6.230  16.266 -0.8957  1.4833  0.9653
 5470TIP3    H237902   0.046   6.189  16.317 -1.9445  0.8354 -2.1496
 5471TIP3   OH237903   4.727   0.507   5.271  0.1523  0.4861  0.1844
 5471TIP3    H137904   4.680   0.591   5.268 -0.7493  0.0024  0.2888
 5471TIP3    H237905   4.664   0.443   5.238  1.2671  0.0204 -1.1180
 5472TIP3   OH237906   2.910   0.599   4.969 -0.1940 -0.1942  0.2922
 5472TIP3    H137907   2.972   0.528   4.956  0.4824 -0.0144  2.2125
 5472TIP3    H237908   2.834   0.574   4.917  1.1874 -0.7571 -1.5654
 5473TIP3   OH237909   6.808   2.321   1.355 -0.0405 -0.8200 -0.5412
 5473TIP3    H137910   6.741   2.379   1.318 -0.1976  1.0499  2.3486
 5473TIP3    H237911   6.872   2.311   1.284 -0.5049  2.1132 -1.5377
 5474TIP3   OH237912   2.968   0.456  12.219 -0.4046 -0.0125 -0.0932
 5474TIP3    H137913   3.050   0.458  12.269 -0.7672 -0.4620  0.5343
 5474TIP3    H237914   2.928   0.373  12.243 -1.0903  0.2527 -0.3143
 5475TIP3   OH237915   5.646   0.728   3.987  0.6755  0.1388  0.3540
 5475TIP3    H137916   5.593   0.667   4.038  0.4576 -0.3303 -0.4058
 5475TIP3    H237917   5.605   0.728   3.900 -0.3017  2.5915  0.7462
 5476TIP3   OH237918   4.308   5.953  14.153  0.5355  0.6097 -0.3436
 5476TIP3    H137919   4.388   5.968  14.102 -0.4201  2.9153 -1.2748
 5476TIP3    H237920   4.316   5.862  14.183  4.3616  1.2407  1.1705
 5477TIP3   OH237921   5.369   2.954  13.484  0.5593  0.1398  0.2542
 5477TIP3    H137922   5.327   2.952  13.398  3.0858  1.3026 -1.1286
 5477TIP3    H237923   5.378   2.861  13.508 -2.0903 -0.1680  0.3720
 5478TIP3   OH237924   6.179   2.424  12.565  0.3544  0.2712  0.0055
 5478TIP3    H137925   6.246   2.485  12.536 -0.0906  0.0447 -1.5876
 5478TIP3    H237926   6.153   2.377  12.486  1.2872 -2.6221  1.3128
 5479TIP3   OH237927   5.928   3.774   4.487 -0.0784  0.0490 -0.1326
 5479TIP3    H137928   5.986   3.844   4.456 -1.0149  1.3207  0.8535
 5479TIP3    H237929   5.936   3.777   4.583 -1.2999 -0.1338 -0.0073
 5480TIP3   OH237930   1.256   2.849  17.070  0.2725 -0.0045  0.2148
 5480TIP3    H137931   1.345   2.819  17.055  1.3587  1.1098  3.5232
 5480TIP3    H237932   1.266   2.932  17.117 -2.5055  0.1328  0.7537
 5481TIP3   OH237933   4.330   1.710  11.202 -0.0034 -0.1801  0.1223
 5481TIP3    H137934   4.237   1.718  11.181 -0.1645  0.5296  1.0437
 5481TIP3    H237935   4.375   1.723  11.118 -0.7092  0.0615 -0.2252
 5482TIP3   OH237936   6.054   0.914  13.944  0.2034  0.3228  0.1602
 5482TIP3    H137937   6.008   0.944  13.866  0.7663  0.7582 -0.0092
 5482TIP3    H237938   6.015   0.829  13.963  1.2069 -0.5836 -1.5851
 5483TIP3   OH237939   1.241   3.574  11.322 -0.6840  0.1658  0.1523
 5483TIP3    H137940   1.222   3.668  11.315  0.1042  0.2697 -0.8601
 5483TIP3    H237941   1.172   3.532  11.272 -0.5599  0.2653 -0.1033
 5484TIP3   OH237942   3.818   5.441  14.720 -0.6780  0.1963  0.8661
 5484TIP3    H137943   3.860   5.410  14.801  0.6136  0.6404  0.3968
 5484TIP3    H237944   3.817   5.536  14.728  0.2995  0.2938 -0.0224
 5485TIP3   OH237945   0.987   3.705   1.173 -0.2358  0.1105 -0.5654
 5485TIP3    H137946   1.005   3.797   1.156  0.7174  0.1286  0.4098
 5485TIP3    H237947   0.987   3.664   1.087  1.3725  0.6914 -0.8853
 5486TIP3   OH237948   5.066   3.044   1.129  0.5121  0.2404  0.1324
 5486TIP3    H137949   5.073   3.084   1.042 -1.5080  0.2930 -0.0629
 5486TIP3    H237950   5.009   3.103   1.178 -0.0121 -0.8116  0.8202
 5487TIP3   OH237951   5.759   5.960  13.613 -0.0385  0.4530 -0.3475
 5487TIP3    H137952   5.823   6.010  13.562  0.0660  0.1432 -0.5226
 5487TIP3    H237953   5.706   5.916  13.547 -0.4688  0.7501 -0.2046
 5488TIP3   OH237954   5.627   6.153  11.963 -0.0070 -0.4473  0.0914
 5488TIP3    H137955   5.584   6.154  11.877  1.5217 -1.1841 -0.7273
 5488TIP3    H237956   5.717   6.178  11.944  0.5159 -1.2806  1.3903
 5489TIP3   OH237957   6.277   2.313   2.175 -0.2845 -0.1449  0.4655
 5489TIP3    H137958   6.220   2.272   2.240 -0.7252 -2.2737 -1.1529
 5489TIP3    H237959   6.364   2.279   2.196 -0.0602  0.8043  1.1532
 5490TIP3   OH237960   5.225   6.081  14.354  0.0468 -0.4732  0.1391
 5490TIP3    H137961   5.247   6.007  14.297 -0.9972 -1.0046  0.3969
 5490TIP3    H237962   5.310   6.120  14.376  0.5825 -1.2868 -0.4097
 5491TIP3   OH237963   6.150   5.839   6.527  0.1598  0.0260 -0.2834
 5491TIP3    H137964   6.071   5.788   6.508 -0.6576  1.4299 -0.8812
 5491TIP3    H237965   6.117   5.927   6.545  1.5889  0.6428 -0.5435
 5492TIP3   OH237966   2.180   4.923   0.546 -0.0260 -0.7167  0.3590
 5492TIP3    H137967   2.122   4.991   0.512  0.4179 -1.2664 -1.7046
 5492TIP3    H237968   2.213   4.958   0.628  0.1349  1.5404 -0.5909
 5493TIP3   OH237969   1.716   1.235   0.651  0.1799 -0.3636 -0.2648
 5493TIP3    H137970   1.795   1.258   0.603 -0.4287  0.3460 -0.9422
 5493TIP3    H237971   1.690   1.316   0.694  0.8642 -1.0361  1.5314
 5494TIP3   OH237972   6.354   1.215  16.066  0.3173  0.1924 -0.2840
 5494TIP3    H137973   6.403   1.151  16.014  0.7853  0.3318 -0.0198
 5494TIP3    H237974   6.418   1.283  16.086 -0.0392  0.4748 -0.1012
 5495TIP3   OH237975   0.355   3.406  17.166  0.6627  0.0954 -0.4761
 5495TIP3    H137976   0.335   3.478  17.225  0.5759 -0.3910  0.1033
 5495TIP3    H237977   0.428   3.360  17.209  1.0098  0.0975 -1.0581
 5496TIP3   OH237978   5.562   4.138  11.567  0.0255 -0.2210 -0.1817
 5496TIP3    H137979   5.518   4.223  11.559 -0.9309 -0.6556  0.2947
 5496TIP3    H237980   5.557   4.101  11.479 -1.2913 -0.5981  0.0306
 5497TIP3   OH237981   5.660   0.424  14.782  0.1404 -0.4195  0.1079
 5497TIP3    H137982   5.665   0.358  14.713 -2.1829 -1.1381  0.5268
 5497TIP3    H237983   5.641   0.375  14.861  3.7164  0.2874  1.5955
 5498TIP3   OH237984   0.330   1.682  11.568 -0.0256 -0.1936  0.4557
 5498TIP3    H137985   0.341   1.602  11.517 -0.4539  0.9202 -1.5003
 5498TIP3    H237986   0.288   1.654  11.649 -0.4734 -1.8969 -0.3388
 5499TIP3   OH237987   3.836   2.448  15.941  0.3434  0.1340 -0.3866
 5499TIP3    H137988   3.910   2.388  15.931  0.2509  0.0821 -0.8034
 5499TIP3    H237989   3.858   2.501  16.017  1.0292  0.4375 -0.7879
 5500TIP3   OH237990   0.669   2.382   2.489  0.1640 -0.3666  0.3081
 5500TIP3    H137991   0.668   2.477   2.495  2.2301 -0.1399 -1.6495
 5500TIP3    H237992   0.758   2.357   2.512  0.8711 -1.3906 -3.0048
 5501TIP3   OH237993   6.427   0.825  14.191  0.0666  0.3844  0.0079
 5501TIP3    H137994   6.352   0.769  14.214  0.0378  0.5903  0.4251
 5501TIP3    H237995   6.420   0.836  14.096 -0.8871  1.0301  0.1352
 5502TIP3   OH237996   4.834   5.424   1.071 -0.7150  0.4432 -0.4981
 5502TIP3    H137997   4.904   5.489   1.071 -0.6451  0.3806  0.4519
 5502TIP3    H237998   4.803   5.422   0.981  0.3968  0.5934 -0.8997
 5503TIP3   OH237999   4.068   6.578  10.595 -0.5268 -0.2564 -0.1501
 5503TIP3    H138000   4.145   6.590  10.650  0.3659 -1.7824 -1.0135
 5503TIP3    H238001   4.018   6.659  10.606 -0.1035 -0.2614  2.4275
 5504TIP3   OH238002   1.927   1.315   4.721 -0.2128  0.3516  0.6804
 5504TIP3    H138003   1.962   1.401   4.740  1.1853 -0.3699  1.5155
 5504TIP3    H238004   1.905   1.278   4.807  0.0172 -0.4394  0.4100
 5505TIP3   OH238005   6.610   0.877   2.488 -0.1696 -0.3117  0.3420
 5505TIP3    H138006   6.603   0.783   2.474  1.3788 -1.0002  3.2254
 5505TIP3    H238007   6.680   0.905   2.429  1.6246 -1.6977  1.6792
 5506TIP3   OH238008   2.704   2.581  13.027 -0.1327  0.3787 -0.0781
 5506TIP3    H138009   2.698   2.668  13.066  2.2485  1.0597 -1.0690
 5506TIP3    H238010   2.765   2.533  13.083  0.1451  0.0235 -0.6769
 5507TIP3   OH238011   0.286   1.116   5.495  0.2910 -0.3966 -0.5633
 5507TIP3    H138012   0.364   1.168   5.511 -0.0864  0.1446 -0.4375
 5507TIP3    H238013   0.261   1.084   5.582 -0.8716  1.2602 -0.2268
 5508TIP3   OH238014   1.700   0.462   2.866  0.3572  0.6359 -0.7003
 5508TIP3    H138015   1.755   0.419   2.800 -0.2249 -0.0845 -0.7322
 5508TIP3    H238016   1.666   0.390   2.919  0.5384  1.1831  0.1716
 5509TIP3   OH238017   3.956   2.161  14.997  0.3041 -0.7862  0.0421
 5509TIP3    H138018   3.920   2.141  14.910 -1.1064 -0.6010  0.5646
 5509TIP3    H238019   4.002   2.244  14.985  1.0603 -1.2961 -0.7556
 5510TIP3   OH238020   5.016   4.006   4.913  0.3355 -0.0707  0.5311
 5510TIP3    H138021   4.964   3.936   4.952 -2.8316  2.9264  2.3234
 5510TIP3    H238022   5.106   3.987   4.939 -0.4849 -2.9928  1.5942
 5511TIP3   OH238023   0.068   6.037   6.192 -0.5331  0.5289 -0.3885
 5511TIP3    H138024   0.105   5.949   6.188 -2.2545 -0.3721  1.4704
 5511TIP3    H238025  -0.020   6.024   6.228 -0.2910  3.1547  1.4270
 5512TIP3   OH238026   0.276   6.777  15.229  0.6157 -0.1633  0.1716
 5512TIP3    H138027   0.206   6.733  15.182  1.4521 -0.9356 -0.3898
 5512TIP3    H238028   0.232   6.827  15.297 -0.6143  0.8275 -1.2997
 5513TIP3   OH238029   0.113   0.039  15.457 -0.4900 -0.3140  0.1734
 5513TIP3    H138030   0.045  -0.008  15.409 -1.2501  0.5092  0.4082
 5513TIP3    H238031   0.144  -0.023  15.523 -1.3576 -0.5476  0.3730
 5514TIP3   OH238032   3.621   6.402   3.066 -0.1362 -0.0852 -0.0205
 5514TIP3    H138033   3.532   6.423   3.037 -1.0285 -1.9667  1.1349
 5514TIP3    H238034   3.650   6.334   3.005  0.1299 -0.1651  0.1954
 5515TIP3   OH238035   4.450   4.172   3.137 -0.0378  0.0181 -0.2861
 5515TIP3    H138036   4.536   4.206   3.110 -0.3610  0.7538 -0.4197
 5515TIP3    H238037   4.461   4.077   3.138  1.2145  0.1371  1.1756
 5516TIP3   OH238038   2.872   2.608   2.439 -0.6013  0.3262  0.2021
 5516TIP3    H138039   2.880   2.666   2.364  0.8482 -2.2880 -1.8453
 5516TIP3    H238040   2.954   2.619   2.487 -0.8288  0.7802  0.4994
 5517TIP3   OH238041   1.058   2.966   6.403  0.5238 -0.8973  0.3185
 5517TIP3    H138042   1.112   2.989   6.328  1.0635 -0.3857  0.8598
 5517TIP3    H238043   1.026   2.878   6.383  0.2966 -0.5937 -0.7099
 5518TIP3   OH238044   6.513   3.489   2.856  0.3111 -0.9429 -0.3932
 5518TIP3    H138045   6.585   3.507   2.916  0.5049 -2.2252 -0.2002
 5518TIP3    H238046   6.483   3.401   2.881  0.1027 -1.3187 -1.8872
 5519TIP3   OH238047   5.980   5.031  13.093  0.4431 -0.0327  0.4979
 5519TIP3    H138048   5.935   4.970  13.035 -0.0742  0.8116 -0.0122
 5519TIP3    H238049   6.028   4.975  13.154 -2.1381 -0.9976  1.7770
 5520TIP3   OH238050   3.645   3.970   5.076 -0.5369  0.2319  0.1712
 5520TIP3    H138051   3.617   4.060   5.059 -0.4776  0.2035 -0.0722
 5520TIP3    H238052   3.686   3.942   4.995 -0.2592  0.0964  0.3599
 5521TIP3   OH238053   3.591   3.756  15.843  0.1692  0.0023  0.2039
 5521TIP3    H138054   3.634   3.724  15.763  0.8261  0.5953  0.3137
 5521TIP3    H238055   3.659   3.803  15.890 -0.7050  1.3508  0.1828
 5522TIP3   OH238056   3.293   4.197   2.939 -0.3950 -0.1725  0.3613
 5522TIP3    H138057   3.362   4.250   2.899  1.5140 -3.5346 -1.2363
 5522TIP3    H238058   3.226   4.190   2.871 -0.7689  0.3427  0.6681
 5523TIP3   OH238059   1.149   6.452   4.604  0.4216  0.2076  0.0146
 5523TIP3    H138060   1.210   6.382   4.582 -0.1901 -0.7993  1.4255
 5523TIP3    H238061   1.068   6.428   4.559  0.4343  0.4151 -0.1202
 5524TIP3   OH238062   6.437   5.819   3.569  0.1053 -0.2449  0.2178
 5524TIP3    H138063   6.374   5.752   3.541 -1.5042  2.0202 -2.0437
 5524TIP3    H238064   6.398   5.857   3.647  1.0341 -1.8163  1.5246
 5525TIP3   OH238065   3.692   4.451  11.420  0.6239  0.2743 -0.3211
 5525TIP3    H138066   3.649   4.404  11.492 -1.1377  1.1508 -0.7421
 5525TIP3    H238067   3.708   4.384  11.354 -0.4227 -0.0363 -0.2768
 5526TIP3   OH238068   2.597   6.490   1.563 -0.3774  0.5457 -0.1565
 5526TIP3    H138069   2.635   6.521   1.480  0.0401 -0.8314 -0.5117
 5526TIP3    H238070   2.666   6.505   1.628  0.2761 -0.6647 -0.5423
 5527TIP3   OH238071   0.749   0.023  15.610 -0.5854 -0.0045 -0.2969
 5527TIP3    H138072   0.781  -0.067  15.605  0.6261  0.2743  1.5994
 5527TIP3    H238073   0.668   0.022  15.559 -0.3598 -2.0462 -0.7079
 5528TIP3   OH238074   3.645   0.754   4.065  0.8454  0.0326  0.6827
 5528TIP3    H138075   3.647   0.787   4.154 -0.7856  1.6177  0.1958
 5528TIP3    H238076   3.562   0.707   4.058  0.4457  0.8242 -0.2528
 5529TIP3   OH238077   1.842   1.651   4.353  0.0414 -0.3393 -0.2077
 5529TIP3    H138078   1.885   1.676   4.435  0.0498 -1.6196  0.1885
 5529TIP3    H238079   1.870   1.561   4.337  1.0291  0.2627 -2.2655
 5530TIP3   OH238080   2.315   3.167  12.445 -0.2235  0.9487  0.0543
 5530TIP3    H138081   2.287   3.223  12.517  2.6496  1.5948  0.8148
 5530TIP3    H238082   2.318   3.225  12.368 -0.4783  0.9983  0.0828
 5531TIP3   OH238083   3.425   4.873   5.168  0.4227  0.1172  0.1328
 5531TIP3    H138084   3.355   4.868   5.104  0.0007  3.5713  0.1010
 5531TIP3    H238085   3.390   4.831   5.246 -0.9662  0.1221 -0.4593
 5532TIP3   OH238086   2.299   6.729   5.344  0.2393  0.3451 -0.7209
 5532TIP3    H138087   2.326   6.814   5.311  0.1029  0.6041 -0.1837
 5532TIP3    H238088   2.226   6.748   5.403  0.3152 -0.1269 -0.4678
 5533TIP3   OH238089   6.196   2.792  14.773  0.0404 -0.3883  0.1048
 5533TIP3    H138090   6.151   2.716  14.735  0.4360 -1.6794  2.0503
 5533TIP3    H238091   6.289   2.774  14.759  0.1462 -0.4125  0.7990
 5534TIP3   OH238092   5.301   3.282   1.775 -0.1510  0.3443  0.3055
 5534TIP3    H138093   5.366   3.351   1.782  0.8409 -0.4226 -0.9758
 5534TIP3    H238094   5.351   3.201   1.770 -1.1756 -0.2694 -0.7002
 5535TIP3   OH238095   3.147   0.486   2.924 -0.0690  0.2807  0.4620
 5535TIP3    H138096   3.092   0.439   2.987 -0.5604  1.2768  0.7932
 5535TIP3    H238097   3.120   0.577   2.931 -0.7696  0.3146 -1.8416
 5536TIP3   OH238098   1.092   3.777   2.189  0.3899 -0.2196 -0.3442
 5536TIP3    H138099   1.089   3.696   2.138  0.5972 -0.0538 -0.6224
 5536TIP3    H238100   1.173   3.820   2.161  0.5530 -0.1709  0.1957
 5537TIP3   OH238101   2.947   5.788   1.342  0.4745 -0.4086  0.0729
 5537TIP3    H138102   3.027   5.794   1.394  0.9766  0.4064 -0.7588
 5537TIP3    H238103   2.977   5.792   1.251 -0.3693 -1.9337 -0.3103
 5538TIP3   OH238104   2.722   6.417  15.306  0.2536 -0.2068 -0.3019
 5538TIP3    H138105   2.632   6.395  15.282  0.1180 -0.2210  0.2011
 5538TIP3    H238106   2.776   6.371  15.242 -0.0768 -0.7855 -0.1784
 5539TIP3   OH238107   0.258   3.852   6.740  0.9369 -0.1622  0.4410
 5539TIP3    H138108   0.200   3.777   6.722  0.9103 -0.4002  1.4835
 5539TIP3    H238109   0.340   3.828   6.698  1.2635 -1.2826  1.6544
 5540TIP3   OH238110   4.431   0.510  14.862  0.7961 -0.5638 -0.0355
 5540TIP3    H138111   4.347   0.472  14.835 -0.5882  0.1725  2.8688
 5540TIP3    H238112   4.496   0.465  14.807 -1.3554 -2.0296 -1.5534
 5541TIP3   OH238113   0.042   3.069  13.223  0.4581  0.1653  0.8314
 5541TIP3    H138114  -0.001   3.004  13.166  0.3612 -1.5800  2.7485
 5541TIP3    H238115   0.112   3.020  13.267 -0.2436  1.0401  3.0926
 5542TIP3   OH238116   1.574   1.651  12.641  0.2410  0.0380  0.1138
 5542TIP3    H138117   1.599   1.559  12.634  1.2565  0.2435  0.8937
 5542TIP3    H238118   1.491   1.657  12.593  0.0264 -1.3284  0.2860
 5543TIP3   OH238119   2.744   1.452  16.102 -0.3691 -0.4423  0.0097
 5543TIP3    H138120   2.675   1.478  16.039  2.5622  0.3721 -3.1671
 5543TIP3    H238121   2.753   1.358  16.090  0.2273 -0.2804 -0.9330
 5544TIP3   OH238122   4.388   0.084   2.539 -0.0571  0.1263 -0.1196
 5544TIP3    H138123   4.433   0.121   2.615  1.4512 -0.2258 -0.8126
 5544TIP3    H238124   4.412   0.141   2.466  2.0133 -1.8807 -1.1413
 5545TIP3   OH238125   2.676   5.600   2.291 -0.1161 -0.6165  0.1818
 5545TIP3    H138126   2.769   5.578   2.284 -0.2690 -0.8206 -1.6975
 5545TIP3    H238127   2.643   5.596   2.201 -1.5676  1.1811  0.5765
 5546TIP3   OH238128   0.919   3.291   5.815  0.1486  0.1031  0.5404
 5546TIP3    H138129   0.970   3.335   5.884  0.5508 -0.2070  0.4468
 5546TIP3    H238130   0.983   3.235   5.771 -0.8010 -2.4341  2.1799
 5547TIP3   OH238131   5.299   3.829   4.867  0.2721  0.1244  0.1872
 5547TIP3    H138132   5.241   3.754   4.881  1.3459 -0.6229  0.7727
 5547TIP3    H238133   5.383   3.802   4.904  0.9407  1.2709 -0.4246
 5548TIP3   OH238134   3.802   2.918   4.626 -0.3537  0.0227 -0.3538
 5548TIP3    H138135   3.721   2.942   4.670 -0.2771  1.5650 -0.9951
 5548TIP3    H238136   3.813   2.825   4.646 -0.3209  0.5836  2.9050
 5549TIP3   OH238137   3.526   5.492  13.413 -0.0140 -0.7891  0.1765
 5549TIP3    H138138   3.572   5.537  13.343  0.6265  0.3309  1.2723
 5549TIP3    H238139   3.595   5.449  13.464 -0.5184 -2.0760 -0.1838
 5550TIP3   OH238140   4.988   2.876   4.280 -0.2527  0.2752 -0.2660
 5550TIP3    H138141   5.049   2.863   4.353 -1.2488  0.5987  0.6423
 5550TIP3    H238142   4.942   2.957   4.301 -1.8868 -0.6010 -0.2654
 5551TIP3   OH238143   5.073   2.290  17.131  0.4538  0.1455  0.4245
 5551TIP3    H138144   5.149   2.348  17.134 -0.1677  1.1694 -1.8592
 5551TIP3    H238145   5.096   2.224  17.066 -0.0473 -0.4006  0.7951
 5552TIP3   OH238146   0.333   3.911   4.792  0.3193 -0.1865  0.2907
 5552TIP3    H138147   0.403   3.971   4.768  0.5272  0.4076  2.1918
 5552TIP3    H238148   0.366   3.825   4.767  0.6154  0.3245 -1.1639
 5553TIP3   OH238149   6.033   1.184   4.141  0.1719  0.1876 -0.0561
 5553TIP3    H138150   5.963   1.166   4.077  0.2255  0.7020 -0.2616
 5553TIP3    H238151   6.100   1.229   4.090 -0.1876  1.4574  0.5601
 5554TIP3   OH238152   6.391   2.857  15.366 -0.5203  0.1183  0.3165
 5554TIP3    H138153   6.472   2.807  15.353  0.6125  2.1001 -0.6084
 5554TIP3    H238154   6.398   2.890  15.456 -0.6360 -0.2761  0.4715
 5555TIP3   OH238155   6.782   3.092  13.627  0.6027  0.1990  0.2610
 5555TIP3    H138156   6.864   3.085  13.579  1.1596  1.2366  1.0359
 5555TIP3    H238157   6.747   3.177  13.603 -0.5124 -0.4220 -0.4283
 5556TIP3   OH238158   4.002   0.835  14.618 -0.1807 -0.2739 -0.2655
 5556TIP3    H138159   4.048   0.784  14.552  0.6648 -1.2604  1.0298
 5556TIP3    H238160   3.967   0.770  14.679 -0.3768  0.6093  0.5955
 5557TIP3   OH238161   2.904   1.326   1.780 -0.7789 -0.2139  0.3118
 5557TIP3    H138162   2.984   1.292   1.822 -0.1614  0.6807 -0.1247
 5557TIP3    H238163   2.893   1.271   1.702 -1.6263 -1.5270  1.3041
 5558TIP3   OH238164   4.821   5.100   1.967  0.1764  0.0796  0.0868
 5558TIP3    H138165   4.802   5.025   2.024  1.8644 -2.0164 -1.8775
 5558TIP3    H238166   4.750   5.100   1.903 -0.8532  1.4249  1.1821
 5559TIP3   OH238167   1.807   5.065  15.000 -0.3836 -0.0290  0.4660
 5559TIP3    H138168   1.728   5.022  14.967  0.5753 -0.8146 -0.8993
 5559TIP3    H238169   1.823   5.023  15.085 -1.3909  0.0975  0.7252
 5560TIP3   OH238170   2.119   2.994  14.328 -0.4927  0.2223 -0.0864
 5560TIP3    H138171   2.057   3.062  14.302  0.1784  1.7157  1.9503
 5560TIP3    H238172   2.197   3.042  14.357  0.6438 -1.4950 -0.1160
 5561TIP3   OH238173   0.345   5.758   2.081 -0.1357 -0.3221 -0.4685
 5561TIP3    H138174   0.425   5.795   2.117  0.0835 -0.3996 -0.8694
 5561TIP3    H238175   0.367   5.737   1.990 -0.3393 -1.1561 -0.3332
 5562TIP3   OH238176   3.998   1.352  13.053  0.3920 -0.2057 -0.2928
 5562TIP3    H138177   3.974   1.410  13.125 -0.0129  0.2807 -0.8136
 5562TIP3    H238178   4.050   1.283  13.094 -0.5472 -0.3999  0.6000
 5563TIP3   OH238179   2.681   2.197   3.715  0.4532  0.3869 -0.3885
 5563TIP3    H138180   2.673   2.283   3.674  0.1715  0.2761 -0.5711
 5563TIP3    H238181   2.744   2.210   3.786 -0.5766  1.0536  0.4320
 5564TIP3   OH238182   3.453   5.053   3.587  0.0169  0.1587  0.0284
 5564TIP3    H138183   3.412   4.966   3.583 -1.4302  0.8017  0.3333
 5564TIP3    H238184   3.501   5.053   3.669 -1.2210  0.1521  0.7779
 5565TIP3   OH238185   3.942   1.426   4.960 -0.3233 -0.3622 -0.0967
 5565TIP3    H138186   3.865   1.431   4.905  0.5894  1.2709 -1.3061
 5565TIP3    H238187   3.938   1.504   5.015  1.3444  0.7421 -1.4477
 5566TIP3   OH238188   6.464   6.540   5.108 -0.1203  0.1311 -0.4641
 5566TIP3    H138189   6.550   6.516   5.073  0.6454  1.8146  0.1363
 5566TIP3    H238190   6.483   6.610   5.171 -2.0379  1.4732 -1.2821
 5567TIP3   OH238191   5.973   2.194  12.820  0.5594 -0.4431  0.0357
 5567TIP3    H138192   6.042   2.128  12.813 -0.4547 -1.5699  0.3056
 5567TIP3    H238193   5.932   2.176  12.905 -0.3141 -0.0375 -0.2935
 5568TIP3   OH238194   4.866   0.838  16.860  0.3407  0.7014  0.3284
 5568TIP3    H138195   4.930   0.901  16.828 -0.6893  0.8116 -1.6504
 5568TIP3    H238196   4.876   0.762  16.802  1.2061 -0.8305  2.3375
 5569TIP3   OH238197   5.860   4.179   6.361 -0.1716  0.1040 -0.4488
 5569TIP3    H138198   5.799   4.239   6.403  1.8855  0.8230  1.7238
 5569TIP3    H238199   5.828   4.092   6.383 -0.3822  0.4702  0.7559
 5570TIP3   OH238200   3.864   3.656   1.738 -0.1223  0.9247  0.3238
 5570TIP3    H138201   3.907   3.570   1.737 -1.3621  0.2237  2.2600
 5570TIP3    H238202   3.800   3.652   1.667  2.3309  1.6989 -2.0773
 5571TIP3   OH238203   3.480   6.515  12.180  0.0307  0.7507  0.6957
 5571TIP3    H138204   3.417   6.464  12.129  0.9332  2.0496 -1.9349
 5571TIP3    H238205   3.512   6.455  12.247 -1.6395 -0.9232  0.0675
 5572TIP3   OH238206   0.422   5.768  17.092  0.0712  0.3182 -0.7590
 5572TIP3    H138207   0.349   5.780  17.031  0.8689 -0.0203 -1.8196
 5572TIP3    H238208   0.391   5.805  17.174 -0.6450  1.7824 -1.6494
 5573TIP3   OH238209   5.360   4.850  15.084  0.2599 -0.4902  0.2406
 5573TIP3    H138210   5.322   4.766  15.061  0.0483 -0.2745 -0.2184
 5573TIP3    H238211   5.452   4.831  15.102  0.9220 -0.4220 -2.6245
 5574TIP3   OH238212   5.150   2.790   5.677 -0.3965  0.4582  0.3016
 5574TIP3    H138213   5.094   2.844   5.621 -0.6587  0.1397  0.2580
 5574TIP3    H238214   5.090   2.736   5.727 -0.0995 -0.8206 -0.6704
 5575TIP3   OH238215   5.060   3.225  15.409 -0.1211 -0.0171  0.3358
 5575TIP3    H138216   4.995   3.158  15.385  0.7995 -0.4532 -1.1097
 5575TIP3    H238217   5.143   3.177  15.410  0.4849  0.9991 -0.2115
 5576TIP3   OH238218   1.086   1.324  14.267 -0.3059  0.4643  0.1334
 5576TIP3    H138219   1.086   1.229  14.252 -1.1268  0.5444 -0.4481
 5576TIP3    H238220   1.069   1.362  14.181  1.2681  1.2059  0.1258
 5577TIP3   OH238221   1.941   6.236  13.541  0.4096  0.3343  0.2876
 5577TIP3    H138222   1.889   6.245  13.461 -0.2745  0.4731  0.7382
 5577TIP3    H238223   2.020   6.286  13.524 -0.1992  1.2571  0.0908
 5578TIP3   OH238224   5.128   5.043   0.887  0.1140 -0.0796 -0.0292
 5578TIP3    H138225   5.065   4.973   0.904 -0.0567 -0.5520 -2.3290
 5578TIP3    H238226   5.199   5.000   0.838  1.4637  0.7901  1.0627
 5579TIP3   OH238227   4.886   5.770   0.952  0.0519 -0.0094  0.1052
 5579TIP3    H138228   4.796   5.741   0.942  0.4016 -1.0316 -0.1668
 5579TIP3    H238229   4.932   5.731   0.878  1.1092 -1.1392  1.3091
 5580TIP3   OH238230   1.861   3.706   3.710  0.1563  0.0531 -0.4887
 5580TIP3    H138231   1.892   3.736   3.624 -1.5921  0.2427 -1.1031
 5580TIP3    H238232   1.848   3.612   3.699  1.4553 -0.2170  0.0916
 5581TIP3   OH238233   1.208   5.365   2.433 -0.1491  0.3468  0.4604
 5581TIP3    H138234   1.167   5.408   2.508 -0.4942  1.1684 -0.1866
 5581TIP3    H238235   1.183   5.419   2.358  0.9250  0.0340 -0.1339
 5582TIP3   OH238236   2.325   2.623   4.618  0.4656  0.1235  0.3465
 5582TIP3    H138237   2.407   2.649   4.576 -0.1311  0.9926 -0.3311
 5582TIP3    H238238   2.294   2.702   4.661  0.2934 -0.3668  1.1397
 5583TIP3   OH238239   2.297   5.242  16.231  0.1481  0.3402 -0.4320
 5583TIP3    H138240   2.304   5.147  16.245  2.1155  0.5451  0.3096
 5583TIP3    H238241   2.287   5.279  16.318 -1.7703  0.7952 -0.7930
 5584TIP3   OH238242   1.952   0.781   4.184 -0.3642 -0.2939  0.3518
 5584TIP3    H138243   1.913   0.744   4.264  1.1795 -0.2532  1.1727
 5584TIP3    H238244   1.973   0.872   4.208 -1.8687  0.4105 -0.8458
 5585TIP3   OH238245   2.078   6.191   5.780  0.4439 -0.2050  0.7861
 5585TIP3    H138246   2.098   6.252   5.851  0.3359  0.4121  0.2958
 5585TIP3    H238247   2.120   6.229   5.703 -0.6388 -0.0957  0.2211
 5586TIP3   OH238248   0.328   5.497   1.569 -0.0219  0.6316 -0.2309
 5586TIP3    H138249   0.281   5.425   1.526  1.8758 -0.8064 -0.0226
 5586TIP3    H238250   0.399   5.519   1.510 -1.4919  3.5668 -1.0752
 5587TIP3   OH238251   2.551   5.539   4.314  0.4796 -0.1596 -0.3609
 5587TIP3    H138252   2.614   5.479   4.274 -0.0417 -1.3301  0.4782
 5587TIP3    H238253   2.488   5.558   4.245  0.3656 -1.0109 -0.5016
 5588TIP3   OH238254   4.599   2.080  14.449  0.6753 -0.1896 -0.1732
 5588TIP3    H138255   4.662   2.144  14.414 -0.0942 -0.1912 -1.6483
 5588TIP3    H238256   4.595   2.012  14.382 -1.0271 -0.0850 -0.2105
 5589TIP3   OH238257   0.185   5.898   1.694 -0.5642  0.6481  0.5334
 5589TIP3    H138258   0.173   5.809   1.728 -0.3454  0.3157 -0.2437
 5589TIP3    H238259   0.239   5.887   1.616  0.8800  1.6364  1.3379
 5590TIP3   OH238260   3.353   1.216  12.092 -0.1408 -0.1448  0.2226
 5590TIP3    H138261   3.440   1.195  12.057 -0.3615 -2.4942  0.9162
 5590TIP3    H238262   3.292   1.183  12.027 -0.5651  1.3537 -0.1792
 5591TIP3   OH238263   2.421   1.001   0.242  0.1124 -0.3028  0.5550
 5591TIP3    H138264   2.460   1.044   0.317 -0.8473 -0.7083  1.3095
 5591TIP3    H238265   2.495   0.975   0.187  0.8073  0.1470  1.2730
 5592TIP3   OH238266   2.162   1.712   0.160 -0.8012 -0.3864  0.4836
 5592TIP3    H138267   2.239   1.760   0.131 -0.5713 -0.4116  1.0364
 5592TIP3    H238268   2.134   1.757   0.240  0.1192 -1.8353  1.6845
 5593TIP3   OH238269   1.758   5.486  17.137 -0.5262  0.3864  0.4002
 5593TIP3    H138270   1.741   5.573  17.103  1.6908  1.9424  2.9227
 5593TIP3    H238271   1.699   5.477  17.212 -0.1046  0.0860  0.7030
 5594TIP3   OH238272   4.122   0.823   1.894 -0.2688 -0.1759 -0.3838
 5594TIP3    H138273   4.162   0.910   1.895 -1.6606  0.5414  2.0567
 5594TIP3    H238274   4.116   0.798   1.987  1.0168 -3.3622 -1.0275
 5595TIP3   OH238275   3.341   4.289   4.623 -0.0248 -0.3022  0.6801
 5595TIP3    H138276   3.265   4.335   4.588  0.5941 -0.3044 -0.7250
 5595TIP3    H238277   3.342   4.312   4.716 -0.0544  2.0874  0.1628
 5596TIP3   OH238278   6.343   1.607  14.069  0.2987 -0.0255  0.4061
 5596TIP3    H138279   6.327   1.551  13.993  0.5637  1.2319 -0.6251
 5596TIP3    H238280   6.382   1.550  14.134 -2.7604 -1.8703  0.8087
 5597TIP3   OH238281   3.754   5.363  13.574  0.0429  0.1212  0.3058
 5597TIP3    H138282   3.768   5.274  13.606 -0.7007 -0.3538 -0.6431
 5597TIP3    H238283   3.825   5.378  13.513 -0.2570 -0.1111 -0.1049
 5598TIP3   OH238284   2.085   4.792  16.921  0.0326 -0.5439  0.1708
 5598TIP3    H138285   2.047   4.852  16.856 -0.2804 -0.8424  0.0778
 5598TIP3    H238286   2.024   4.719  16.925 -0.3923 -0.1439  1.4348
 5599TIP3   OH238287   1.262   4.763  15.745 -0.2726 -0.4143  0.8239
 5599TIP3    H138288   1.167   4.773  15.755 -0.1732  0.6714  0.8044
 5599TIP3    H238289   1.286   4.694  15.807 -1.1535 -1.1323  0.3879
 5600TIP3   OH238290   2.900   1.865  11.148  0.0053 -1.2824 -0.2556
 5600TIP3    H138291   2.843   1.933  11.183 -0.8347 -2.2474  0.3336
 5600TIP3    H238292   2.858   1.837  11.067 -0.2117 -1.7812  0.0201
 5601TIP3   OH238293   2.566   4.505   5.525 -0.3885  0.1562  0.2321
 5601TIP3    H138294   2.538   4.587   5.485  1.0508  0.6024  0.0801
 5601TIP3    H238295   2.638   4.529   5.583 -0.2052 -0.9392  0.4939
 5602TIP3   OH238296   6.335   3.949  16.632  0.1475  0.1086  0.0469
 5602TIP3    H138297   6.245   3.920  16.620 -0.3730  1.6699 -0.0182
 5602TIP3    H238298   6.372   3.951  16.544  0.1957 -0.3167  0.0521
 5603TIP3   OH238299   0.808   2.200   5.222  0.0877 -0.0741  0.6112
 5603TIP3    H138300   0.715   2.199   5.200  0.2465  1.5155 -0.3068
 5603TIP3    H238301   0.826   2.113   5.257 -1.7207 -0.4301  0.7261
 5604TIP3   OH238302   2.413   0.914   4.455  0.5725 -0.1112 -0.9632
 5604TIP3    H138303   2.386   0.829   4.419 -0.2548 -0.2934  0.0488
 5604TIP3    H238304   2.347   0.975   4.425 -0.1680 -0.2783  0.2673
 5605TIP3   OH238305   6.696   0.820   1.777  0.2871 -0.0238  0.6784
 5605TIP3    H138306   6.752   0.751   1.811 -2.0297 -1.6002  1.4911
 5605TIP3    H238307   6.690   0.885   1.847  4.2453  2.3729 -0.8339
 5606TIP3   OH238308   3.151   4.625  16.369 -0.0408  0.5445 -0.2134
 5606TIP3    H138309   3.179   4.609  16.280  0.2070 -0.8352  0.0948
 5606TIP3    H238310   3.184   4.550  16.419  0.7330  1.7909  1.2391
 5607TIP3   OH238311   0.594   6.234  13.248  0.0579 -0.0733  0.7013
 5607TIP3    H138312   0.603   6.183  13.329 -1.6449  0.1025  1.0481
 5607TIP3    H238313   0.507   6.274  13.255  0.0676  0.3158 -1.0185
 5608TIP3   OH238314   2.085   3.725   5.548 -0.2117  0.5166 -0.2528
 5608TIP3    H138315   2.055   3.812   5.519 -0.2550  0.8442  0.7511
 5608TIP3    H238316   2.177   3.738   5.570  0.0167  0.0933 -0.9185
 5609TIP3   OH238317   3.993   1.766   4.278  0.1449 -0.0635  0.3493
 5609TIP3    H138318   3.912   1.732   4.315  0.8987 -2.7177 -0.2695
 5609TIP3    H238319   4.059   1.749   4.346  0.8179 -1.3778 -0.5955
 5610TIP3   OH238320   2.529   3.425   0.802  0.6024  0.0944 -0.4476
 5610TIP3    H138321   2.510   3.512   0.837 -0.5634 -0.2462 -0.1813
 5610TIP3    H238322   2.585   3.384   0.868  0.1543  0.2133  0.0121
 5611TIP3   OH238323   5.170   6.479  15.187  0.4024 -0.3966 -0.2609
 5611TIP3    H138324   5.169   6.566  15.226  0.3527 -0.5361  0.0513
 5611TIP3    H238325   5.122   6.424  15.249 -0.7942 -0.3626 -1.1146
 5612TIP3   OH238326   6.003   2.300   3.276  0.5973  0.1295  0.4978
 5612TIP3    H138327   5.986   2.207   3.289 -1.8982  0.2779 -1.0872
 5612TIP3    H238328   6.063   2.324   3.347 -2.5202 -1.6030  4.0537
 5613TIP3   OH238329   3.479   1.901  12.406  0.4299  0.0127  0.5897
 5613TIP3    H138330   3.476   1.834  12.475  0.2110 -0.8659 -0.2516
 5613TIP3    H238331   3.549   1.960  12.433  0.8006 -0.7020  1.2262
 5614TIP3   OH238332   2.910   6.694  14.737 -0.4430  0.6887 -0.1491
 5614TIP3    H138333   2.892   6.620  14.794 -1.5822  1.7272  0.8992
 5614TIP3    H238334   2.885   6.664  14.649  0.2314 -0.5275  0.0567
 5615TIP3   OH238335   2.017   2.771  14.907 -0.0188 -0.2501  0.0734
 5615TIP3    H138336   1.975   2.685  14.901 -0.4293 -0.1173  0.8856
 5615TIP3    H238337   2.062   2.782  14.824 -2.5513  0.1049 -1.3585
 5616TIP3   OH238338   4.691   0.353  15.240 -0.4746  0.3334 -0.6121
 5616TIP3    H138339   4.618   0.403  15.276 -1.2656 -2.1458  1.5233
 5616TIP3    H238340   4.672   0.346  15.147 -1.1692  2.5026 -0.6806
 5617TIP3   OH238341   0.981   1.746  14.812 -0.4634 -0.0636  0.0251
 5617TIP3    H138342   0.993   1.661  14.770 -0.5512 -0.5424  0.9419
 5617TIP3    H238343   1.044   1.803  14.769 -0.1823 -0.6699 -0.3809
 5618TIP3   OH238344   0.984   2.434   2.440  0.7581  0.1439 -0.0721
 5618TIP3    H138345   0.951   2.365   2.383 -1.3010  0.9512  0.0731
 5618TIP3    H238346   0.972   2.514   2.390  3.2619  0.4785 -0.3057
 5619TIP3   OH238347   2.684   6.541   4.849  0.1064  0.0071  0.3338
 5619TIP3    H138348   2.778   6.531   4.863  0.2008  1.0556  0.5580
 5619TIP3    H238349   2.656   6.600   4.918 -0.4526  0.8347 -0.5767
 5620TIP3   OH238350   3.688   1.352   6.268 -0.7184  0.1944 -0.1360
 5620TIP3    H138351   3.684   1.387   6.179  0.5370 -0.4473 -0.4625
 5620TIP3    H238352   3.774   1.311   6.274 -0.6263  0.5545  1.5008
 5621TIP3   OH238353   4.379   3.911  16.841 -0.5244  0.3999  0.2435
 5621TIP3    H138354   4.415   3.823  16.831 -1.6316 -0.0072 -0.3184
 5621TIP3    H238355   4.449   3.962  16.882  0.7476 -0.2979 -1.0068
 5622TIP3   OH238356   2.717   1.728   5.984 -0.0436 -0.7904  0.3828
 5622TIP3    H138357   2.746   1.815   6.011 -0.2077 -0.1095 -1.4824
 5622TIP3    H238358   2.671   1.693   6.060 -1.4505  1.4320  0.6298
 5623TIP3   OH238359   0.298   2.679  11.293 -0.3175  0.3168  0.5567
 5623TIP3    H138360   0.372   2.736  11.315  0.0326  0.4256 -0.7620
 5623TIP3    H238361   0.317   2.650  11.204 -1.0423 -1.0061  0.8172
 5624TIP3   OH238362   3.201   2.859  12.409 -0.6247  0.3906 -0.3577
 5624TIP3    H138363   3.171   2.770  12.391 -1.5506  0.8569 -1.1898
 5624TIP3    H238364   3.239   2.854  12.497  0.6074 -1.1259 -0.9313
 5625TIP3   OH238365   2.617   6.614   0.048  0.0461 -0.5249 -0.0824
 5625TIP3    H138366   2.661   6.652   0.124  0.6023 -0.8966 -0.2077
 5625TIP3    H238367   2.572   6.687   0.007  0.2575 -0.2008  0.2560
 5626TIP3   OH238368   5.622   6.570  12.216 -0.1937  0.0170 -0.4187
 5626TIP3    H138369   5.690   6.547  12.153  0.3243  0.3756 -0.0087
 5626TIP3    H238370   5.670   6.583  12.299 -0.5061  1.8944 -0.4749
 5627TIP3   OH238371   2.947   4.637  13.331 -0.5112 -0.0283  0.0254
 5627TIP3    H138372   2.905   4.703  13.387 -0.3035 -0.2904  0.4951
 5627TIP3    H238373   2.975   4.569  13.392 -2.8143 -1.7269 -0.6780
 5628TIP3   OH238374   6.515   0.021  14.335 -0.6238  0.0327 -0.5449
 5628TIP3    H138375   6.588   0.043  14.278 -0.5854  0.1946 -0.4339
 5628TIP3    H238376   6.474   0.105  14.354 -0.2726  0.0463  0.1618
 5629TIP3   OH238377   1.825   2.098  13.611 -0.0586 -0.0181  0.6283
 5629TIP3    H138378   1.868   2.184  13.602  0.4067 -0.2124  0.9507
 5629TIP3    H238379   1.866   2.044  13.543  1.3323 -0.6417  1.9042
 5630TIP3   OH238380   0.554   1.958   6.038 -0.6219 -0.4064 -0.0193
 5630TIP3    H138381   0.504   1.898   6.094 -0.0046  0.8866  2.0087
 5630TIP3    H238382   0.633   1.977   6.088 -0.1302  0.9716 -1.2661
 5631TIP3   OH238383   4.884   2.526   5.619  0.1260 -0.3338  0.0501
 5631TIP3    H138384   4.919   2.582   5.689  0.8527  2.1939 -2.1910
 5631TIP3    H238385   4.942   2.450   5.617  1.1563  0.4085  1.0152
 5632TIP3   OH238386   2.512   4.363   4.857 -0.4757 -0.1455  0.2115
 5632TIP3    H138387   2.572   4.421   4.811 -1.3454  0.4411 -0.2151
 5632TIP3    H238388   2.566   4.317   4.920  0.6292 -0.4420 -0.9064
 5633TIP3   OH238389   2.168   1.413   0.133  0.1401  0.0645 -0.6619
 5633TIP3    H138390   2.141   1.502   0.155  0.4810  0.0343 -0.0779
 5633TIP3    H238391   2.207   1.379   0.214  0.3903 -0.4696 -0.9962
 5634TIP3   OH238392   2.877   3.868   3.851 -0.6357 -0.5114  0.6252
 5634TIP3    H138393   2.824   3.895   3.776  0.8213  0.4713 -0.1106
 5634TIP3    H238394   2.817   3.869   3.925 -1.5832  0.7787 -0.1261
 5635TIP3   OH238395   1.608   6.697   0.097  0.4320  0.8868  0.1501
 5635TIP3    H138396   1.653   6.659   0.021  2.1368  1.9583  0.5761
 5635TIP3    H238397   1.555   6.768   0.061 -3.2684 -1.9587 -0.7506
 5636TIP3   OH238398   1.068   3.491   4.557  0.8074 -0.2260  0.0154
 5636TIP3    H138399   1.021   3.519   4.636 -0.6737 -0.8311 -0.6037
 5636TIP3    H238400   1.062   3.567   4.498 -2.1289 -1.2359 -1.1947
 5637TIP3   OH238401   4.563   0.289   2.663  0.5835 -0.5697 -0.3409
 5637TIP3    H138402   4.576   0.375   2.702  2.3724 -0.1161 -1.8077
 5637TIP3    H238403   4.605   0.228   2.724  0.9208 -0.1975 -0.2019
 5638TIP3   OH238404   5.178   6.689   2.254  0.2614 -0.1475  0.1762
 5638TIP3    H138405   5.225   6.743   2.317  1.1254  1.7119 -1.9145
 5638TIP3    H238406   5.247   6.650   2.199 -0.5081  0.4670 -1.2806
 5639TIP3   OH238407   5.012   0.421   0.172  0.3473  0.3705  0.0075
 5639TIP3    H138408   4.987   0.514   0.164  0.2929  0.4021  0.4804
 5639TIP3    H238409   4.946   0.384   0.231 -0.5449 -0.3386 -1.3971
 5640TIP3   OH238410   0.980   6.456   6.684 -0.0502 -0.1376 -0.2061
 5640TIP3    H138411   0.918   6.391   6.718  0.5261 -0.7245 -0.2612
 5640TIP3    H238412   1.058   6.445   6.738  0.2246  0.1706 -0.5420
 5641TIP3   OH238413   5.934   6.082   5.073 -0.6806 -0.4030  0.2780
 5641TIP3    H138414   5.925   6.108   5.165 -0.4922 -1.7511  0.6986
 5641TIP3    H238415   5.999   6.011   5.075  3.5615  2.9474 -1.5030
 5642TIP3   OH238416   1.382   1.797  12.224  0.2696  0.1914  0.2039
 5642TIP3    H138417   1.357   1.831  12.310 -0.0211 -1.9877  1.0323
 5642TIP3    H238418   1.348   1.708  12.223  3.2128 -1.0142 -0.8300
 5643TIP3   OH238419   4.820   3.635   3.777  0.2829 -0.2470 -0.2316
 5643TIP3    H138420   4.738   3.616   3.731 -0.0068  1.4070 -0.4557
 5643TIP3    H238421   4.794   3.695   3.847  1.2199 -0.1515  0.0471
 5644TIP3   OH238422   3.719   0.142  12.475  0.1347 -0.1619  0.3365
 5644TIP3    H138423   3.667   0.189  12.410 -0.3965  0.9224  1.4985
 5644TIP3    H238424   3.808   0.172  12.460  0.0724 -0.1979 -0.1233
 5645TIP3   OH238425   2.507   2.392  13.935 -0.1434  0.0097 -0.5610
 5645TIP3    H138426   2.506   2.488  13.936 -0.7233  0.0016  0.7019
 5645TIP3    H238427   2.598   2.370  13.912  0.3074  0.8615  0.3371
 5646TIP3   OH238428   5.081   2.077  11.329  0.7981 -0.2845 -0.5208
 5646TIP3    H138429   5.036   2.138  11.270  0.3719  0.1303  0.2094
 5646TIP3    H238430   5.086   1.995  11.280  2.5488  0.6643 -2.0459
 5647TIP3   OH238431   2.094   0.820  11.614 -0.1008 -0.2013  0.7002
 5647TIP3    H138432   2.065   0.729  11.614 -0.6742 -0.0385  1.8403
 5647TIP3    H238433   2.189   0.815  11.626  0.2561 -0.6986 -1.8839
 5648TIP3   OH238434   1.783   1.662   1.391  0.3755 -0.1710  0.0126
 5648TIP3    H138435   1.808   1.613   1.313  2.2152  2.5930 -1.2888
 5648TIP3    H238436   1.699   1.625   1.417  1.3537 -3.5489 -1.1193
 5649TIP3   OH238437   1.793   6.376   2.702  0.4433  0.0806  0.0235
 5649TIP3    H138438   1.726   6.317   2.668  0.9177 -0.0988 -0.6184
 5649TIP3    H238439   1.858   6.318   2.741  1.1815  0.1188 -1.0890
 5650TIP3   OH238440   5.140   0.480  16.855 -0.2509 -0.1143  0.1013
 5650TIP3    H138441   5.216   0.523  16.894  1.5309 -1.6595 -1.4538
 5650TIP3    H238442   5.105   0.424  16.924  0.5399 -0.0164  0.5945
 5651TIP3   OH238443   4.208   6.821   3.359 -0.2795 -0.5516  0.3554
 5651TIP3    H138444   4.113   6.814   3.361 -0.1995 -1.7654  0.8770
 5651TIP3    H238445   4.239   6.732   3.341  0.7243  0.3350 -3.0751
 5652TIP3   OH238446   1.586   6.367  12.953 -0.1725 -0.2585  0.3430
 5652TIP3    H138447   1.649   6.425  12.996 -0.6104 -0.2596  1.0023
 5652TIP3    H238448   1.579   6.292  13.012 -1.2149 -0.0004  0.5677
 5653TIP3   OH238449   6.695   2.011  11.536 -0.5466 -0.3751  0.4739
 5653TIP3    H138450   6.650   2.018  11.620  1.4367 -1.6026  1.7197
 5653TIP3    H238451   6.753   2.087  11.533  0.3134 -1.0037  0.8362
 5654TIP3   OH238452   1.063   1.777   1.175  0.0124 -0.3447  0.1234
 5654TIP3    H138453   1.069   1.688   1.140  4.2990 -0.3034  0.2001
 5654TIP3    H238454   0.994   1.819   1.124  0.5780 -2.5953 -2.7125
 5655TIP3   OH238455   6.467   5.238   2.860 -0.3390 -0.0371  0.3317
 5655TIP3    H138456   6.516   5.156   2.851 -1.2812 -0.4882 -0.9867
 5655TIP3    H238457   6.512   5.285   2.930  0.5818 -1.4212  0.7161
 5656TIP3   OH238458   2.402   1.463  13.845  0.2704  0.5365  0.6287
 5656TIP3    H138459   2.420   1.373  13.871 -1.0773  0.1026  0.1343
 5656TIP3    H238460   2.410   1.513  13.926  1.4221  0.0545  0.8375
 5657TIP3   OH238461   5.217   0.065   3.988 -0.2902 -0.0258 -0.3440
 5657TIP3    H138462   5.170   0.139   4.026  0.2768  0.3923 -0.4397
 5657TIP3    H238463   5.241   0.010   4.063  0.6642  0.7029 -0.0983
 5658TIP3   OH238464   4.754   2.466   2.246 -0.0320  0.1581  0.1354
 5658TIP3    H138465   4.814   2.456   2.320 -0.3758  1.2986  0.5876
 5658TIP3    H238466   4.749   2.561   2.231 -2.6883  0.2445  0.9477
 5659TIP3   OH238467   2.174   2.658   0.200  0.0734  0.0374 -0.5176
 5659TIP3    H138468   2.175   2.572   0.241  1.1397 -0.2491 -1.1153
 5659TIP3    H238469   2.255   2.700   0.229 -1.8378  2.1596  2.4075
 5660TIP3   OH238470   5.261   1.658  12.266  0.0029 -0.2919 -0.1351
 5660TIP3    H138471   5.278   1.575  12.310  0.5766  0.6806  1.5860
 5660TIP3    H238472   5.266   1.637  12.172  2.2580 -1.7871  0.2412
 5661TIP3   OH238473   2.581   6.722  13.036 -0.3968 -0.6239 -0.1466
 5661TIP3    H138474   2.534   6.791  12.989 -0.6328 -0.4489  0.3511
 5661TIP3    H238475   2.517   6.652  13.046 -0.9375  0.0813  1.5989
 5662TIP3   OH238476   5.698   4.618  10.676 -0.1278 -0.1208  0.3196
 5662TIP3    H138477   5.776   4.581  10.634  0.1847  0.5061  0.3395
 5662TIP3    H238478   5.700   4.711  10.652 -0.6411 -0.0151  0.6740
 5663TIP3   OH238479   0.115   2.106   4.788 -0.0893  0.3317  0.7065
 5663TIP3    H138480   0.140   2.014   4.784  1.9043  0.8119  0.6190
 5663TIP3    H238481   0.111   2.126   4.882  0.9856  0.4844  0.7365
 5664TIP3   OH238482   3.442   2.712  14.698 -0.3454  0.2051 -0.3329
 5664TIP3    H138483   3.362   2.663  14.717  0.4606 -0.3665  1.8819
 5664TIP3    H238484   3.433   2.793  14.749  0.8902 -0.3239  0.7920
 5665TIP3   OH238485   3.189   4.864   6.700 -0.1220 -0.1863  0.4246
 5665TIP3    H138486   3.176   4.929   6.631 -1.7944 -1.2661 -0.3365
 5665TIP3    H238487   3.283   4.844   6.697 -0.2010 -0.4874 -1.8293
 5666TIP3   OH238488   6.071   1.856  14.966 -0.3683  0.6809 -0.1162
 5666TIP3    H138489   5.986   1.901  14.971  0.6734  2.6711  2.9138
 5666TIP3    H238490   6.113   1.876  15.050  2.1739 -2.1862 -0.5459
 5667TIP3   OH238491   4.164   2.921  14.067  0.0200 -0.1848 -0.6337
 5667TIP3    H138492   4.219   2.983  14.019 -0.3315  0.1983 -0.5496
 5667TIP3    H238493   4.081   2.922  14.021 -0.3193  0.1811 -0.0256
 5668TIP3   OH238494   6.202   6.698   5.150  0.1209  0.3260  0.2127
 5668TIP3    H138495   6.183   6.663   5.063  1.2743  1.6287 -0.6115
 5668TIP3    H238496   6.136   6.765   5.164  0.4030  0.6494  0.0009
 5669TIP3   OH238497   2.973   0.913  16.605 -0.5177  0.5086  0.0755
 5669TIP3    H138498   2.985   1.006  16.624 -0.7976  0.2502  1.5868
 5669TIP3    H238499   2.879   0.903  16.591 -0.8269  0.0673  2.2416
 5670TIP3   OH238500   5.318   6.709   3.798  0.3231  0.0958 -0.1221
 5670TIP3    H138501   5.259   6.769   3.846 -0.9523 -1.0823 -0.1535
 5670TIP3    H238502   5.259   6.657   3.744  1.4881 -0.6804 -0.6637
 5671TIP3   OH238503   2.814   4.892  13.833  0.0081  0.2227  0.0048
 5671TIP3    H138504   2.827   4.841  13.913 -1.4404  0.1144  0.1882
 5671TIP3    H238505   2.754   4.840  13.780  1.4758 -0.0493 -1.5015
 5672TIP3   OH238506   6.062   0.662  14.876 -0.2047 -0.2206 -0.1197
 5672TIP3    H138507   6.046   0.757  14.869  0.6964 -0.0205  0.3677
 5672TIP3    H238508   6.010   0.624  14.806 -0.6145  0.6363 -0.2982
 5673TIP3   OH238509   1.775   3.288   4.851 -0.0891  0.0631  0.3389
 5673TIP3    H138510   1.689   3.330   4.864 -0.6290 -1.6107  2.7193
 5673TIP3    H238511   1.763   3.237   4.771 -1.2040  0.1280  0.4362
 5674TIP3   OH238512   4.551   0.274  16.780  0.0657 -0.0934  0.0156
 5674TIP3    H138513   4.484   0.243  16.719 -0.5939 -1.3038  1.2956
 5674TIP3    H238514   4.627   0.292  16.725 -1.1209  0.7889 -1.4016
 5675TIP3   OH238515   3.127   0.837  15.451 -0.2170 -0.6037 -0.1368
 5675TIP3    H138516   3.060   0.830  15.383 -0.0764 -2.9225 -0.1155
 5675TIP3    H238517   3.103   0.770  15.515  0.4213  0.6147  1.4327
 5676TIP3   OH238518   3.054   3.148   4.435  0.5998 -0.3610 -0.3927
 5676TIP3    H138519   3.138   3.104   4.424  1.1644  0.3417  0.8902
 5676TIP3    H238520   3.057   3.185   4.524 -0.4237  1.0105 -0.8825
 5677TIP3   OH238521   1.344   5.111   3.735  0.0832  0.5129  0.4562
 5677TIP3    H138522   1.311   5.197   3.710 -0.3194  0.0398 -0.6588
 5677TIP3    H238523   1.424   5.100   3.683 -0.5960 -0.3451 -0.4487
 5678TIP3   OH238524   0.118   0.462   3.870 -0.1876  0.0394 -0.0730
 5678TIP3    H138525   0.118   0.557   3.864 -1.3883  0.0571 -0.0899
 5678TIP3    H238526   0.159   0.432   3.789  1.1731  0.5352  0.3978
 5679TIP3   OH238527   2.455   5.167   3.480  0.0056  0.3411 -0.2286
 5679TIP3    H138528   2.518   5.104   3.445 -1.5914 -0.7113 -1.3172
 5679TIP3    H238529   2.416   5.122   3.555  0.0578  0.7191  0.0262
 5680TIP3   OH238530   0.416   3.681  11.207  0.2759 -0.3080 -0.2779
 5680TIP3    H138531   0.374   3.765  11.188  2.2491  1.5168  2.6457
 5680TIP3    H238532   0.389   3.661  11.297  0.0727 -2.6947 -0.8267
 5681TIP3   OH238533   5.516   6.632   0.445 -0.0902  0.0894 -0.3824
 5681TIP3    H138534   5.480   6.570   0.382  0.7245 -1.5237  0.6748
 5681TIP3    H238535   5.576   6.687   0.395  1.3921 -1.8761 -0.8601
 5682TIP3   OH238536   4.536   6.344   5.986  0.3474  0.4619  0.0332
 5682TIP3    H138537   4.465   6.393   5.944  1.4806  1.3620 -0.8958
 5682TIP3    H238538   4.551   6.269   5.929 -0.0297  0.1144  0.3823
 5683TIP3   OH238539   5.651   6.714   6.179  0.4261 -0.0247 -0.1432
 5683TIP3    H138540   5.676   6.736   6.269 -2.1929  0.2184  0.6253
 5683TIP3    H238541   5.591   6.639   6.189  1.7842 -1.4252 -1.9143
 5684TIP3   OH238542   3.126   6.229   5.667 -0.6660 -0.9324 -0.1301
 5684TIP3    H138543   3.157   6.298   5.726 -2.0836 -0.0887 -0.3143
 5684TIP3    H238544   3.178   6.153   5.690 -1.3049 -0.7063  2.4048
 5685TIP3   OH238545   2.248   4.781   5.645  0.3117 -0.1067 -0.2507
 5685TIP3    H138546   2.257   4.871   5.676 -1.7065  0.0506  0.0301
 5685TIP3    H238547   2.157   4.775   5.617  0.2535 -2.2251  0.2365
 5686TIP3   OH238548   2.720   1.190  14.060 -0.0246  0.1976  0.2490
 5686TIP3    H138549   2.770   1.268  14.036  1.6610 -0.7494  0.4712
 5686TIP3    H238550   2.718   1.191  14.156 -2.0509  1.1579  0.2380
 5687TIP3   OH238551   4.005   6.137  10.082 -0.6204 -0.2901 -0.1498
 5687TIP3    H138552   4.054   6.215  10.109 -0.5505 -0.6693  0.8623
 5687TIP3    H238553   3.914   6.165  10.081 -0.6807 -0.3936  1.0294
 5688TIP3   OH238554   3.953   2.631  13.171  0.5999  0.0435 -0.6431
 5688TIP3    H138555   3.967   2.723  13.194 -2.4091  0.2711  0.7093
 5688TIP3    H238556   3.858   2.622  13.163  0.7544 -3.0430 -0.3635
 5689TIP3   OH238557   5.639   5.600  12.963  0.2517 -0.4361 -0.4620
 5689TIP3    H138558   5.720   5.651  12.963  1.1359 -1.7523  0.9848
 5689TIP3    H238559   5.575   5.656  12.920  1.4646  1.3940  0.0256
 5690TIP3   OH238560   0.589   5.598  15.434  0.0698  0.2017  0.2082
 5690TIP3    H138561   0.567   5.612  15.526  0.6123  0.0627  0.3635
 5690TIP3    H238562   0.684   5.611  15.430 -0.1506  1.9123 -0.6463
 5691TIP3   OH238563   3.198   6.077   2.180  0.0397  0.5065  0.1969
 5691TIP3    H138564   3.116   6.111   2.217 -1.0135 -1.1102 -0.4965
 5691TIP3    H238565   3.169   6.019   2.109  1.7630 -0.6550  0.3952
 5692TIP3   OH238566   3.164   0.673   5.132 -0.1533  0.1701  0.0648
 5692TIP3    H138567   3.250   0.642   5.102  0.2892  0.8047  0.6498
 5692TIP3    H238568   3.107   0.596   5.124  0.5055 -0.3044 -0.1844
 5693TIP3   OH238569   2.844   0.506   0.742 -0.1639  0.1989  0.0114
 5693TIP3    H138570   2.803   0.460   0.815  0.3552 -0.0348  0.1590
 5693TIP3    H238571   2.814   0.459   0.664  0.7081 -0.6780  0.1861
 5694TIP3   OH238572   5.331   3.149   3.318  0.3334 -0.1016  0.0168
 5694TIP3    H138573   5.379   3.068   3.331  1.4900  0.4514 -0.6943
 5694TIP3    H238574   5.293   3.141   3.231 -0.2084 -0.1996  0.2571
 5695TIP3   OH238575   0.342   3.319  12.997  0.2195  0.4392  0.0172
 5695TIP3    H138576   0.337   3.414  12.989  1.5718  0.6628  1.2851
 5695TIP3    H238577   0.390   3.291  12.919 -0.8147  0.6829 -0.7338
 5696TIP3   OH238578   5.693   5.207   3.016  0.3242 -0.7291  0.3796
 5696TIP3    H138579   5.736   5.203   2.930  0.9259  0.5562  0.5956
 5696TIP3    H238580   5.755   5.165   3.075  0.3758 -0.6993  0.3475
 5697TIP3   OH238581   1.884   6.124  12.409 -0.3036 -0.1414  0.5074
 5697TIP3    H138582   1.851   6.189  12.470  1.7500  0.9949  0.4948
 5697TIP3    H238583   1.908   6.174  12.331  0.9384 -0.9483  0.3424
 5698TIP3   OH238584   0.904   0.797  13.258 -0.6471  0.0897 -0.1575
 5698TIP3    H138585   0.922   0.878  13.306 -0.7828  0.2489 -0.3715
 5698TIP3    H238586   0.938   0.813  13.171 -0.2523 -0.2614 -0.0696
 5699TIP3   OH238587   5.597   0.669   5.156 -0.7686  0.2693  0.2420
 5699TIP3    H138588   5.627   0.744   5.208 -3.3704  0.4731  1.6296
 5699TIP3    H238589   5.664   0.602   5.170  0.4074  1.5235  0.9288
 5700TIP3   OH238590   1.247   6.811  16.156  0.5613 -0.3177  0.2851
 5700TIP3    H138591   1.181   6.836  16.090  0.0908  1.7699  1.4592
 5700TIP3    H238592   1.324   6.789  16.104  0.2089  1.2629 -1.0132
 5701TIP3   OH238593   0.966   5.034   6.306  0.3365 -0.5747  0.1790
 5701TIP3    H138594   0.915   4.971   6.256 -1.0044  0.5958  0.0137
 5701TIP3    H238595   0.943   5.119   6.269  2.7125 -0.0164 -0.1337
 5702TIP3   OH238596   3.717   3.612  14.122  0.0210  0.3195  0.2139
 5702TIP3    H138597   3.766   3.559  14.184  0.6344 -0.6654 -1.0735
 5702TIP3    H238598   3.780   3.675  14.088  0.5154 -1.0697 -1.5827
 5703TIP3   OH238599   1.373   3.877   5.388 -0.2957  0.0650 -0.2177
 5703TIP3    H138600   1.396   3.786   5.405  0.1865  0.1196 -0.5841
 5703TIP3    H238601   1.295   3.872   5.333  0.1561 -0.1287 -0.8391
 5704TIP3   OH238602   6.210   6.590  11.025 -0.2393 -0.0636  0.5500
 5704TIP3    H138603   6.257   6.648  11.086 -1.6955  1.6101  0.1649
 5704TIP3    H238604   6.274   6.571  10.956 -0.0066  1.9713  0.1469
 5705TIP3   OH238605   5.216   0.281  10.401  0.0959  0.0599 -0.4079
 5705TIP3    H138606   5.177   0.352  10.349 -0.5220 -0.5339 -0.7805
 5705TIP3    H238607   5.310   0.298  10.399 -0.0010  0.5680 -0.9462
 5706TIP3   OH238608   6.580   3.107  16.397 -0.6450 -0.1599 -0.0141
 5706TIP3    H138609   6.523   3.071  16.466 -0.4178  3.1616  2.1271
 5706TIP3    H238610   6.528   3.099  16.317 -2.8481 -0.1133  1.3140
 5707TIP3   OH238611   6.562   3.953   4.550 -0.0696  0.5156  0.7541
 5707TIP3    H138612   6.655   3.931   4.560 -0.4842 -3.5328 -1.8760
 5707TIP3    H238613   6.518   3.895   4.612 -0.9156  1.8168  1.3933
 5708TIP3   OH238614   3.863   6.350   4.726 -0.2317 -0.6346  0.3634
 5708TIP3    H138615   3.939   6.315   4.772  1.7286  1.3967 -1.1224
 5708TIP3    H238616   3.858   6.299   4.645  0.1603 -0.1396  0.0229
 5709TIP3   OH238617   4.743   0.249   5.500  0.1649 -0.0124 -0.1382
 5709TIP3    H138618   4.788   0.334   5.507  0.2489 -0.1416  1.1351
 5709TIP3    H238619   4.661   0.262   5.547  0.5250 -0.8518  0.7508
 5710TIP3   OH238620   2.466   6.265  13.828  0.4919  0.0998  0.0749
 5710TIP3    H138621   2.515   6.254  13.746  1.5522 -1.0459  0.8237
 5710TIP3    H238622   2.457   6.176  13.863 -1.4123  0.3713  0.4063
 5711TIP3   OH238623   1.705   0.020  11.512  0.2358  0.1089  0.1056
 5711TIP3    H138624   1.620  -0.022  11.531 -0.5496  1.6443  0.1338
 5711TIP3    H238625   1.682   0.098  11.462  1.6304  0.6420  0.2706
 5712TIP3   OH238626   1.179   3.204  12.320  0.5485  0.4560  0.1437
 5712TIP3    H138627   1.242   3.135  12.298 -0.7807 -0.9808  0.6594
 5712TIP3    H238628   1.177   3.206  12.415  0.9092  1.5582  0.1412
 5713TIP3   OH238629   6.092   5.395   0.415  0.4882  0.4661  0.3378
 5713TIP3    H138630   6.155   5.390   0.487  1.4224 -1.6729 -0.5432
 5713TIP3    H238631   6.025   5.330   0.437  1.2968 -0.9233 -1.1468
 5714TIP3   OH238632   1.623   0.477  10.697  0.0455  0.1858 -0.3511
 5714TIP3    H138633   1.617   0.490  10.792 -0.5900 -0.2745 -0.3237
 5714TIP3    H238634   1.641   0.384  10.686 -1.9250 -0.1911 -0.7262
 5715TIP3   OH238635   0.949   3.160  11.812 -0.4284 -0.4330 -0.1135
 5715TIP3    H138636   0.962   3.086  11.871  0.0932 -1.5629 -1.6098
 5715TIP3    H238637   1.037   3.190  11.791 -0.6114  1.6447  1.6450
 5716TIP3   OH238638   3.220   5.501   2.647 -0.5028 -0.0877 -0.0542
 5716TIP3    H138639   3.257   5.550   2.574 -1.3503  0.8263  0.0985
 5716TIP3    H238640   3.125   5.504   2.632 -0.6373 -0.6419  0.6204
 5717TIP3   OH238641   5.889   3.549  16.150 -0.0024 -0.1572  0.6750
 5717TIP3    H138642   5.876   3.454  16.147 -1.0918  0.0073 -1.8138
 5717TIP3    H238643   5.936   3.569  16.070 -3.3171  1.8154 -0.9631
 5718TIP3   OH238644   3.379   2.101   3.121  0.4992 -0.6908 -0.2746
 5718TIP3    H138645   3.441   2.131   3.055  1.2730 -1.3505  0.1418
 5718TIP3    H238646   3.417   2.126   3.205 -0.6966  0.5445 -0.0614
 5719TIP3   OH238647   2.431   3.359   2.379 -0.0880 -0.0738  0.6779
 5719TIP3    H138648   2.468   3.346   2.291 -0.0596 -0.1325  0.6986
 5719TIP3    H238649   2.360   3.295   2.385 -1.3835  1.2286 -0.0353
 5720TIP3   OH238650   2.697   0.817   2.924  0.1061  0.7606  0.6211
 5720TIP3    H138651   2.631   0.757   2.888  0.8596 -1.0183  2.0787
 5720TIP3    H238652   2.673   0.826   3.016  1.5736  0.5190  1.0442
 5721TIP3   OH238653   5.260   0.513  14.705  0.1178 -0.1158 -0.0775
 5721TIP3    H138654   5.210   0.584  14.667  0.9717  1.6459  1.8960
 5721TIP3    H238655   5.300   0.551  14.783  2.0686 -2.2649  0.0767
 5722TIP3   OH238656   6.208   6.752   2.338 -0.0591 -0.1311 -0.6041
 5722TIP3    H138657   6.119   6.714   2.341  0.4560 -1.3644 -0.3169
 5722TIP3    H238658   6.265   6.679   2.361  1.1457  0.2825 -2.1300
 5723TIP3   OH238659   1.816   1.480  12.456  0.0533 -0.3200  0.6714
 5723TIP3    H138660   1.795   1.554  12.399 -1.9978 -0.6539  0.9088
 5723TIP3    H238661   1.735   1.463  12.504  0.6649 -2.2780  1.1086
 5724TIP3   OH238662   5.551   5.897  15.053 -0.0327 -0.6517  0.5513
 5724TIP3    H138663   5.628   5.904  14.996 -0.3833 -1.2203 -0.0145
 5724TIP3    H238664   5.500   5.975  15.034 -1.1763 -1.8055 -1.5237
 5725TIP3   OH238665   0.265   2.420   5.996  0.1452 -0.3039  0.3299
 5725TIP3    H138666   0.218   2.369   6.062  0.9711 -1.4570  0.0701
 5725TIP3    H238667   0.250   2.511   6.021 -2.4333 -0.5810  0.0967
 5726TIP3   OH238668   1.919   6.068   5.160 -0.5973  0.5448  0.1138
 5726TIP3    H138669   1.924   6.078   5.255  2.6103  1.0096  0.0023
 5726TIP3    H238670   1.915   6.158   5.126  1.3237  0.5546 -0.2041
 5727TIP3   OH238671   5.618   3.877   2.802  0.0324 -0.3673  0.4195
 5727TIP3    H138672   5.649   3.789   2.823 -0.2046 -0.9072 -1.2736
 5727TIP3    H238673   5.523   3.871   2.810 -0.0317 -0.4707 -0.2848
 5728TIP3   OH238674   5.823   0.764  12.631 -0.9784  0.3046  0.3388
 5728TIP3    H138675   5.873   0.719  12.699 -0.4987 -0.8041 -0.7169
 5728TIP3    H238676   5.885   0.774  12.559 -1.4507  1.5614  0.0902
 5729TIP3   OH238677   3.275   2.501   1.976 -0.1079 -0.1868  0.1581
 5729TIP3    H138678   3.184   2.477   1.959 -0.0788 -0.1525 -0.0431
 5729TIP3    H238679   3.320   2.487   1.893 -0.2233  1.2307 -0.1668
 5730TIP3   OH238680   6.531   2.825  17.013  0.0081 -1.1995 -0.2202
 5730TIP3    H138681   6.509   2.911  16.979  0.1635 -0.5994  1.1343
 5730TIP3    H238682   6.627   2.826  17.022 -0.1282 -0.7904  1.5601
 5731TIP3   OH238683   0.730   6.219  15.480  0.3816  0.5562  0.4974
 5731TIP3    H138684   0.667   6.150  15.498  0.8029  0.3175  1.1000
 5731TIP3    H238685   0.682   6.283  15.428 -0.4187  0.4805  1.1206
 5732TIP3   OH238686   3.107   2.373   0.029 -0.0964 -0.2227 -0.6943
 5732TIP3    H138687   3.019   2.339   0.010 -0.9451  0.5934  1.4616
 5732TIP3    H238688   3.134   2.327   0.108  0.2532  1.4154  0.1860
 5733TIP3   OH238689   5.093   2.095   5.077  0.2211  0.5915 -0.2706
 5733TIP3    H138690   5.099   2.007   5.038  0.8975 -1.4233  3.8585
 5733TIP3    H238691   5.060   2.080   5.165 -2.6947  4.9281 -0.3088
 5734TIP3   OH238692   3.732   5.382   6.168 -0.0634  0.3549  0.0260
 5734TIP3    H138693   3.822   5.369   6.139 -0.4341 -1.2942 -0.4815
 5734TIP3    H238694   3.739   5.401   6.262  0.9337  2.5835 -0.4394
 5735TIP3   OH238695   4.470   4.106  15.546 -0.2212 -0.4061  0.0629
 5735TIP3    H138696   4.436   4.080  15.631 -0.3141 -0.1337  0.1088
 5735TIP3    H238697   4.555   4.147  15.565  0.0260 -0.8667 -0.0302
 5736TIP3   OH238698   2.758   4.284   3.199  0.0006  0.5673  0.6585
 5736TIP3    H138699   2.759   4.188   3.192 -0.3685  0.4657  1.8293
 5736TIP3    H238700   2.705   4.302   3.277 -0.7973  1.7703 -0.1273
 5737TIP3   OH238701   5.071   2.892  12.642 -0.4205 -0.6734 -0.0466
 5737TIP3    H138702   5.157   2.855  12.661 -0.1569 -0.4001 -0.6871
 5737TIP3    H238703   5.071   2.907  12.548 -0.2333  1.6103  0.2497
 5738TIP3   OH238704   2.017   2.702  14.027 -0.2468 -0.2448 -0.2586
 5738TIP3    H138705   2.019   2.796  14.015 -0.1524 -0.0680  1.0454
 5738TIP3    H238706   2.088   2.683  14.088 -1.8340 -0.8062  1.5327
 5739TIP3   OH238707   2.422   0.757  13.455 -0.3563  0.0696 -0.4381
 5739TIP3    H138708   2.432   0.784  13.364 -2.3860 -0.2043 -0.7917
 5739TIP3    H238709   2.327   0.744  13.466  0.0487 -2.1607  1.0619
 5740TIP3   OH238710   1.595   1.006   2.585  0.2181 -0.0618 -0.1876
 5740TIP3    H138711   1.568   0.914   2.580  1.3617 -0.3737 -1.1271
 5740TIP3    H238712   1.666   1.007   2.650 -0.1593  0.2514  0.2210
 5741TIP3   OH238713   2.319   1.457   2.041 -0.6036 -0.0393  0.1699
 5741TIP3    H138714   2.385   1.525   2.028  0.8947 -1.1412  1.4903
 5741TIP3    H238715   2.273   1.451   1.958  0.2053  1.5634 -0.4292
 5742TIP3   OH238716   2.765   4.123   3.957 -0.2632  0.0226  0.2671
 5742TIP3    H138717   2.792   4.212   3.931  1.6213 -0.8935 -1.1634
 5742TIP3    H238718   2.698   4.099   3.892  0.0169  0.0031 -0.0185
 5743TIP3   OH238719   4.501   1.757  10.914 -0.0520 -0.0342  0.1181
 5743TIP3    H138720   4.455   1.782  10.834 -2.0135 -0.1713  1.1334
 5743TIP3    H238721   4.541   1.673  10.893  0.9672  0.7481 -1.2359
 5744TIP3   OH238722   2.645   6.696  15.414 -0.1346  0.2656  0.5278
 5744TIP3    H138723   2.569   6.638  15.426 -0.7038  0.5549 -1.3835
 5744TIP3    H238724   2.719   6.636  15.403 -0.4173 -0.0693  0.4392
 5745TIP3   OH238725   0.843   3.014   3.322  0.6868 -0.1849 -0.5066
 5745TIP3    H138726   0.892   3.058   3.253  0.6938 -0.9717 -1.0204
 5745TIP3    H238727   0.758   2.995   3.284  0.5594 -0.2969 -0.1765
 5746TIP3   OH238728   0.140   4.880  13.518  0.5697  0.0251  0.4816
 5746TIP3    H138729   0.209   4.814  13.509  0.0678 -0.8582  2.4523
 5746TIP3    H238730   0.159   4.923  13.601 -0.9580  0.1021  0.8213
 5747TIP3   OH238731   5.901   0.626  13.026  0.2154  0.2212 -0.0356
 5747TIP3    H138732   5.860   0.573  12.958  1.3992  0.6279 -1.0945
 5747TIP3    H238733   5.829   0.646  13.086 -0.7721 -0.5035 -0.9273
 5748TIP3   OH238734   2.797   5.134   3.129 -0.4406  0.2644 -0.0817
 5748TIP3    H138735   2.830   5.200   3.190 -2.3099  0.2372  1.0284
 5748TIP3    H238736   2.777   5.183   3.049  1.8571  0.3290 -0.6889
 5749TIP3   OH238737   2.691   0.925  16.399  0.2909  0.1950 -0.6291
 5749TIP3    H138738   2.664   0.855  16.458 -0.1463  0.8457 -0.0319
 5749TIP3    H238739   2.623   0.930  16.333 -0.3916  0.9415  0.1047
 5750TIP3   OH238740   5.360   5.576   0.797 -0.6895  0.0035  0.5670
 5750TIP3    H138741   5.345   5.503   0.857 -0.3034  0.8009  1.6738
 5750TIP3    H238742   5.413   5.539   0.727 -0.3530 -0.7499  1.1967
 5751TIP3   OH238743   3.294   2.816  14.090 -0.3999  0.4604  0.2501
 5751TIP3    H138744   3.237   2.817  14.013  2.6144 -0.9802 -2.2358
 5751TIP3    H238745   3.383   2.819  14.054  1.1904  1.6048  3.8159
 5752TIP3   OH238746   2.019   0.263  11.376  0.1579 -0.4471 -0.0644
 5752TIP3    H138747   1.955   0.277  11.306  0.3421 -1.2600 -0.4137
 5752TIP3    H238748   1.975   0.204  11.437 -0.3006  0.8756  0.9511
 5753TIP3   OH238749   0.572   5.296   5.438 -0.0869  0.2230 -0.1571
 5753TIP3    H138750   0.587   5.346   5.519  0.1823  2.0342 -1.2729
 5753TIP3    H238751   0.658   5.260   5.417 -0.6757 -2.7674  1.8279
 5754TIP3   OH238752   2.221   2.664  10.443  0.1749  0.2993 -0.1180
 5754TIP3    H138753   2.160   2.593  10.460  0.8917 -0.3109 -0.0681
 5754TIP3    H238754   2.181   2.713  10.371  0.2942 -0.8954 -1.0216
 5755TIP3   OH238755   4.833   4.381  13.268 -0.0480 -0.2087 -0.0402
 5755TIP3    H138756   4.767   4.338  13.322 -0.0745  0.2678  0.3150
 5755TIP3    H238757   4.785   4.421  13.196 -0.0823 -0.3092 -0.0732
 5756TIP3   OH238758   6.515   0.851   5.718  0.4451  0.4649 -0.2004
 5756TIP3    H138759   6.591   0.875   5.772 -0.0331  1.8419 -0.0874
 5756TIP3    H238760   6.441   0.850   5.779 -0.0116  1.4858 -0.7096
 5757TIP3   OH238761   4.355   0.757  13.609 -0.3354 -0.4516  0.5158
 5757TIP3    H138762   4.448   0.753  13.585 -0.2161 -0.5786  0.9739
 5757TIP3    H238763   4.333   0.668  13.635 -0.8400 -0.6199 -0.4721
 5758TIP3   OH238764   4.710   5.456  12.787  0.3490 -0.4849 -0.3897
 5758TIP3    H138765   4.793   5.447  12.741  0.8744 -0.1071  0.4688
 5758TIP3    H238766   4.729   5.428  12.876 -0.2960  0.1695 -0.0393
 5759TIP3   OH238767   4.815   5.410   3.344 -0.2531  1.0198 -0.5018
 5759TIP3    H138768   4.802   5.501   3.372  3.3453  1.2452  1.0292
 5759TIP3    H238769   4.748   5.360   3.391 -1.1692  2.6649  0.0071
 5760TIP3   OH238770   0.995   1.444  15.148  0.7961 -0.6707 -0.5727
 5760TIP3    H138771   1.007   1.487  15.233  0.4233 -0.6372 -0.5348
 5760TIP3    H238772   0.969   1.355  15.171  1.9461 -1.0463 -0.6477
 5761TIP3   OH238773   3.804   2.788  14.304  0.1767  0.0652  0.2708
 5761TIP3    H138774   3.726   2.737  14.282  2.0272 -2.2196 -1.5052
 5761TIP3    H238775   3.783   2.877  14.276 -2.5310  0.0759  1.8914
 5762TIP3   OH238776   3.848   1.627  10.948  0.1626  0.1383 -0.0320
 5762TIP3    H138777   3.903   1.597  10.876 -1.0587 -1.6424 -0.3042
 5762TIP3    H238778   3.809   1.709  10.917  0.5346 -0.0147 -0.9224
 5763TIP3   OH238779   0.376   2.097   4.251  0.0171  0.0201 -0.5820
 5763TIP3    H138780   0.354   2.150   4.175 -0.1584 -0.9053 -1.2021
 5763TIP3    H238781   0.457   2.052   4.227  0.4643  0.4063  0.1461
 5764TIP3   OH238782   0.414   3.653   0.213 -0.1449 -0.5222 -0.0688
 5764TIP3    H138783   0.464   3.727   0.249 -0.5838  0.2996 -1.0781
 5764TIP3    H238784   0.372   3.613   0.289  0.7918 -0.2703  0.6013
 5765TIP3   OH238785   2.019   1.684   2.841  0.0451  0.0673  0.2484
 5765TIP3    H138786   2.086   1.739   2.881  0.7808  0.8658 -1.9186
 5765TIP3    H238787   1.938   1.707   2.888  0.7870  1.1706  1.0428
 5766TIP3   OH238788   1.292   3.843  15.880 -0.2597 -0.1675  0.2183
 5766TIP3    H138789   1.219   3.848  15.942 -0.2160  0.3835  0.2257
 5766TIP3    H238790   1.262   3.783  15.812 -1.0214  0.6628 -0.1837
 5767TIP3   OH238791   4.063   4.448   0.323 -0.0522  0.1443  0.1146
 5767TIP3    H138792   4.133   4.426   0.261  0.4167  2.0202 -0.0892
 5767TIP3    H238793   4.107   4.452   0.408 -0.1113  0.3839  0.1335
 5768TIP3   OH238794   2.122   0.807   3.092 -0.6907 -0.4503 -0.2799
 5768TIP3    H138795   2.040   0.831   3.049  0.3622  1.5049 -1.3605
 5768TIP3    H238796   2.178   0.776   3.020 -0.7011 -2.5520  0.5544
 5769TIP3   OH238797   3.972   5.259   3.620 -0.2158 -0.4811  0.0037
 5769TIP3    H138798   3.997   5.215   3.538 -2.0149 -0.3170 -0.7011
 5769TIP3    H238799   3.929   5.340   3.591  2.2039  1.3628  1.2531
 5770TIP3   OH238800   6.735   5.926   5.526 -0.3856  0.6601 -0.2507
 5770TIP3    H138801   6.788   5.902   5.601 -0.1399  2.5187  0.2151
 5770TIP3    H238802   6.645   5.903   5.551 -0.6107  3.1704  1.5297
 5771TIP3   OH238803   3.214   2.333   4.154  0.0009 -0.4809 -0.2552
 5771TIP3    H138804   3.208   2.291   4.239 -2.3476  0.7350  0.2746
 5771TIP3    H238805   3.238   2.263   4.093  1.2998 -1.4510  1.3137
 5772TIP3   OH238806   5.565   6.304   5.236  0.3773 -0.1407 -0.7593
 5772TIP3    H138807   5.488   6.250   5.217  0.2654 -0.1143 -0.3929
 5772TIP3    H238808   5.627   6.283   5.167 -0.8190  1.5406 -2.4761
 5773TIP3   OH238809   4.955   5.602   3.682 -0.2374 -0.2121 -0.3317
 5773TIP3    H138810   5.029   5.560   3.638  0.1568 -1.0823  1.0805
 5773TIP3    H238811   4.994   5.667   3.739 -0.6037 -0.2224 -0.0638
 5774TIP3   OH238812   0.450   4.912   3.397 -0.0364 -0.8345 -0.2130
 5774TIP3    H138813   0.525   4.886   3.344  0.6078 -0.6235  0.5777
 5774TIP3    H238814   0.453   5.007   3.401  0.0975 -0.8566  0.4327
 5775TIP3   OH238815   6.825   4.332  16.171  0.0183  0.3152 -0.6792
 5775TIP3    H138816   6.920   4.326  16.185  0.0209  0.7186 -0.4945
 5775TIP3    H238817   6.806   4.425  16.182 -0.4866  0.1538 -0.1783
 5776TIP3   OH238818   2.169   6.073  14.087 -0.5160 -0.1949  0.3693
 5776TIP3    H138819   2.248   6.072  14.140 -0.5751  2.3279  0.6357
 5776TIP3    H238820   2.117   6.000  14.119  1.3356 -1.3936  0.7426
 5777TIP3   OH238821   3.120   1.688  16.969  0.0339 -0.4304 -0.4621
 5777TIP3    H138822   3.045   1.633  16.944 -2.5582  1.7209  1.8481
 5777TIP3    H238823   3.186   1.626  16.999 -1.3578 -2.3928 -1.2179
 5778TIP3   OH238824   6.019   1.866   5.061 -0.1037  0.5180  0.0746
 5778TIP3    H138825   6.020   1.795   4.996 -0.0910  1.5941 -1.1231
 5778TIP3    H238826   5.948   1.842   5.121  0.3050 -0.8228  0.0621
 5779TIP3   OH238827   0.816   3.427   4.331  0.3812 -0.6697  0.4281
 5779TIP3    H138828   0.880   3.497   4.344 -0.4157  0.3940 -0.9932
 5779TIP3    H238829   0.862   3.363   4.277  0.3756 -0.0618 -0.3206
 5780TIP3   OH238830   4.657   4.698  12.272 -0.5831  0.0181 -0.0521
 5780TIP3    H138831   4.731   4.638  12.264 -1.1620 -0.7420  0.1695
 5780TIP3    H238832   4.691   4.771  12.324  0.3024  0.1888 -0.8487
 5781TIP3   OH238833   6.222   1.999  15.911 -0.0680 -0.1841 -0.1318
 5781TIP3    H138834   6.213   2.046  15.828 -2.0894  0.3522  0.3372
 5781TIP3    H238835   6.203   2.064  15.978 -0.5078 -1.0919  0.6494
 5782TIP3   OH238836   6.110   1.322  16.179  0.1964 -0.2993  0.3178
 5782TIP3    H138837   6.171   1.319  16.253  1.4915  0.1489 -0.6959
 5782TIP3    H238838   6.142   1.255  16.119 -0.2063  0.0574 -0.3015
 5783TIP3   OH238839   0.218   6.264   0.285  0.1053  0.0595  0.4196
 5783TIP3    H138840   0.223   6.353   0.251 -0.5168  0.6072  1.7311
 5783TIP3    H238841   0.309   6.241   0.304  0.2833  0.3486 -0.0604
 5784TIP3   OH238842   5.385   0.573  14.962  0.2370  0.8811 -0.2428
 5784TIP3    H138843   5.351   0.506  15.021 -0.4642  2.0065  0.6591
 5784TIP3    H238844   5.461   0.608  15.007  0.8827  0.4076 -0.9260
 5785TIP3   OH238845   2.462   5.974   5.070 -0.6140  0.1803  0.0282
 5785TIP3    H138846   2.462   6.029   5.148  0.9745 -0.2414  0.3671
 5785TIP3    H238847   2.554   5.951   5.057 -0.7581  0.7834 -2.3743
 5786TIP3   OH238848   5.552   6.734  16.637 -0.0249 -0.7356  0.3213
 5786TIP3    H138849   5.497   6.793  16.584  0.3509 -1.4799 -0.9263
 5786TIP3    H238850   5.529   6.756  16.728  0.0387  1.2615 -0.1003
 5787TIP3   OH238851   4.884   5.436   3.924 -0.4669 -0.0538  0.1846
 5787TIP3    H138852   4.919   5.498   3.860  0.4673 -0.5708  0.1921
 5787TIP3    H238853   4.870   5.489   4.003  2.8001 -0.3092  1.0617
 5788TIP3   OH238854   3.397   3.329   1.378  0.2230  0.1682  0.3189
 5788TIP3    H138855   3.385   3.306   1.470  0.4639 -0.3067  0.2325
 5788TIP3    H238856   3.371   3.251   1.330  0.1057  0.4128 -0.0190
 5789TIP3   OH238857   4.655   3.466   5.618 -0.2636  0.0474 -0.2288
 5789TIP3    H138858   4.607   3.536   5.573  1.0602  0.2216 -1.4387
 5789TIP3    H238859   4.669   3.501   5.706  0.6112  1.4608 -0.8881
 5790TIP3   OH238860   5.179   3.151  16.130  0.1662 -0.1435 -0.3736
 5790TIP3    H138861   5.229   3.174  16.051  1.3178 -1.4391 -0.0514
 5790TIP3    H238862   5.145   3.235  16.161  0.7712  0.5589 -1.5284
 5791TIP3   OH238863   5.702   5.699   3.622  0.0860  0.6176 -0.5995
 5791TIP3    H138864   5.786   5.722   3.583  0.9804 -0.6240  0.4711
 5791TIP3    H238865   5.662   5.639   3.559 -0.3872  1.8167 -1.4771
 5792TIP3   OH238866   6.556   3.147  13.921 -0.8601 -0.0882  0.2492
 5792TIP3    H138867   6.581   3.158  14.013 -1.9237  2.9837  0.2597
 5792TIP3    H238868   6.627   3.186  13.871 -0.4082 -1.5209 -0.3030
 5793TIP3   OH238869   1.271   6.339  15.542 -0.3431 -0.6187 -0.1723
 5793TIP3    H138870   1.275   6.263  15.599 -1.1118 -0.7115 -0.2207
 5793TIP3    H238871   1.177   6.360  15.538 -0.0976  0.6632  0.2935
 5794TIP3   OH238872   6.071   4.649   4.226 -0.0755 -0.1523  0.1781
 5794TIP3    H138873   6.032   4.576   4.178  0.8609 -0.8627  0.4568
 5794TIP3    H238874   6.112   4.609   4.302  1.1323  0.5462 -0.0668
 5795TIP3   OH238875   4.407   2.440   0.598 -0.0256  0.4148  0.1082
 5795TIP3    H138876   4.346   2.476   0.534 -1.4648 -0.8982  0.6720
 5795TIP3    H238877   4.393   2.492   0.677  1.2023  1.5394 -0.3889
 5796TIP3   OH238878   0.287   6.662  13.878 -0.2881  0.2915 -0.1362
 5796TIP3    H138879   0.358   6.726  13.888  0.2457 -0.2783 -0.2154
 5796TIP3    H238880   0.208   6.712  13.896  0.2750  0.4185  2.3871
 5797TIP3   OH238881   1.863   0.443  11.141 -0.3262 -0.0358 -0.0485
 5797TIP3    H138882   1.863   0.353  11.109 -1.6674  0.6538 -2.1387
 5797TIP3    H238883   1.946   0.480  11.109 -0.7271  0.0603 -0.9842
 5798TIP3   OH238884   3.216   4.603  10.464  0.3970 -0.1003  0.4921
 5798TIP3    H138885   3.151   4.670  10.448  0.9484  0.2769 -0.2449
 5798TIP3    H238886   3.207   4.542  10.390  0.6953 -0.1912  0.5279
 5799TIP3   OH238887   4.989   5.388  12.531  0.1566 -0.7462 -0.5068
 5799TIP3    H138888   5.055   5.372  12.464  0.9953  1.2373 -0.2237
 5799TIP3    H238889   4.913   5.422  12.482 -0.3010 -2.0299 -0.7196
 5800TIP3   OH238890   1.840   5.777   4.389  0.3951 -0.2688 -0.5946
 5800TIP3    H138891   1.915   5.835   4.379  1.2612 -1.0317  1.0874
 5800TIP3    H238892   1.878   5.691   4.407 -0.8796 -1.0849 -1.5327
 5801TIP3   OH238893   4.774   6.543  10.837 -0.2719 -0.2230  0.0897
 5801TIP3    H138894   4.724   6.582  10.766  2.2199 -0.5286 -1.9896
 5801TIP3    H238895   4.734   6.458  10.852 -2.3355  0.8220  0.8248
 5802TIP3   OH238896   5.442   5.459   0.546  0.3474 -0.4630  0.0843
 5802TIP3    H138897   5.534   5.453   0.570  0.5051  0.9389 -0.1098
 5802TIP3    H238898   5.437   5.421   0.459  1.2311  1.7042 -0.9870
 5803TIP3   OH238899   4.882   1.095  16.669 -0.1435 -0.5748  0.4274
 5803TIP3    H138900   4.884   1.189  16.653 -0.0684 -0.5520  0.5672
 5803TIP3    H238901   4.964   1.077  16.714 -0.2696 -0.6681  0.6180
 5804TIP3   OH238902   1.048   0.412   6.141 -0.2202 -0.1105 -0.2529
 5804TIP3    H138903   1.021   0.380   6.227 -0.1151  1.8409  0.5514
 5804TIP3    H238904   0.968   0.412   6.088 -0.9745  1.5497  0.8056
 5805TIP3   OH238905   5.119   6.496  14.444 -0.8605  0.2936  0.0987
 5805TIP3    H138906   5.214   6.488  14.443 -0.9224 -1.3292  1.3872
 5805TIP3    H238907   5.097   6.537  14.360  0.8596 -0.9955 -1.0716
 5806TIP3   OH238908   6.196   1.922  12.581 -0.2728  0.0791  0.1275
 5806TIP3    H138909   6.233   2.001  12.541  0.2515  0.2688  0.9566
 5806TIP3    H238910   6.121   1.900  12.527  0.0091  0.7312 -0.5405
 5807TIP3   OH238911   5.823   6.506  14.252  0.0398  0.1208  0.1839
 5807TIP3    H138912   5.838   6.486  14.344 -0.9696 -0.4985  0.2324
 5807TIP3    H238913   5.843   6.424  14.206 -0.1613  0.2101 -0.0666
 5808TIP3   OH238914   6.473   1.126  14.881  0.1118 -0.4821  0.3273
 5808TIP3    H138915   6.550   1.182  14.889 -1.0046  1.3078 -0.9151
 5808TIP3    H238916   6.430   1.132  14.967  2.1167 -2.8357  1.6381
 5809TIP3   OH238917   0.871   0.031   1.392 -0.1421  0.3868  0.2345
 5809TIP3    H138918   0.963   0.023   1.368 -0.4283 -0.2759 -0.7571
 5809TIP3    H238919   0.858  -0.035   1.461 -0.2823 -0.9318 -1.0008
 5810TIP3   OH238920   5.501   2.071  10.900  0.0941 -0.2006 -0.8400
 5810TIP3    H138921   5.523   1.978  10.908  0.6396 -0.0073  0.0007
 5810TIP3    H238922   5.572   2.107  10.846 -0.0539 -0.2454 -1.0669
 5811TIP3   OH238923   6.637   4.765   5.114  0.6086 -0.1517  0.0710
 5811TIP3    H138924   6.719   4.808   5.138 -0.3903  2.0508 -0.2505
 5811TIP3    H238925   6.599   4.820   5.046 -1.9149 -0.1621  1.3380
 5812TIP3   OH238926   5.863   6.695   0.913  0.0434 -0.3187 -0.3034
 5812TIP3    H138927   5.777   6.715   0.948  0.8320  0.3297  1.3424
 5812TIP3    H238928   5.868   6.599   0.915 -1.0458 -0.4230 -1.5030
 5813TIP3   OH238929   6.336   2.167  14.107 -0.1536 -0.4273 -0.0566
 5813TIP3    H138930   6.430   2.175  14.122  0.1188  2.2447 -2.3292
 5813TIP3    H238931   6.326   2.087  14.055  1.1085  0.0964 -1.1519
 5814TIP3   OH238932   4.433   1.138   2.335  0.3147 -0.3146  0.0674
 5814TIP3    H138933   4.406   1.049   2.360 -0.1220 -0.3700 -0.5785
 5814TIP3    H238934   4.427   1.138   2.240 -0.3596  0.6206  0.0986
 5815TIP3   OH238935   2.815   2.368  11.942  0.2884 -0.3013  0.2130
 5815TIP3    H138936   2.878   2.296  11.940  0.4950 -0.1285  0.5791
 5815TIP3    H238937   2.864   2.443  11.974  0.2287  0.1622 -0.7375
 5816TIP3   OH238938   3.994   0.676   5.418  1.1539 -0.4757  0.0782
 5816TIP3    H138939   4.013   0.643   5.506 -1.2527 -1.2235  0.3738
 5816TIP3    H238940   4.065   0.738   5.401  1.3345  0.2155  2.8276
 5817TIP3   OH238941   0.901   3.638  15.272  0.0193  0.5440 -0.7009
 5817TIP3    H138942   0.943   3.615  15.189 -2.9605 -0.6208 -2.0171
 5817TIP3    H238943   0.870   3.728  15.260 -0.4633  0.3553 -0.9002
 5818TIP3   OH238944   1.562   1.683  11.030 -0.0465 -0.4796 -0.5355
 5818TIP3    H138945   1.558   1.701  10.936 -0.3857  0.7513 -0.2987
 5818TIP3    H238946   1.639   1.731  11.061 -1.3532  1.2402  0.2259
 5819TIP3   OH238947   3.440   1.561   2.853 -0.3749 -0.1832  0.4976
 5819TIP3    H138948   3.466   1.588   2.765 -0.9498  1.5494  0.8156
 5819TIP3    H238949   3.349   1.535   2.845 -0.7190  0.8928  0.7252
 5820TIP3   OH238950   3.090   3.439  11.922 -0.1187  0.8022  0.0824
 5820TIP3    H138951   3.165   3.386  11.947  0.8173  2.2644  0.5041
 5820TIP3    H238952   3.124   3.500  11.856 -0.6209  2.2254  1.0763
 5821TIP3   OH238953   3.115   0.349  15.516  0.2324  0.6653 -0.3881
 5821TIP3    H138954   3.100   0.283  15.448  1.7313  1.6508 -1.7448
 5821TIP3    H238955   3.051   0.417  15.499 -1.7802 -0.6385  1.4311
 5822TIP3   OH238956   2.027   5.635   6.507  0.2311 -0.3951 -0.7255
 5822TIP3    H138957   2.062   5.577   6.575 -1.0140  0.7196  0.9613
 5822TIP3    H238958   1.973   5.578   6.452  1.2799 -1.3248 -0.8319
 5823TIP3   OH238959   3.786   1.583   5.539  0.4555  0.5658 -0.1058
 5823TIP3    H138960   3.866   1.587   5.590  0.8100 -0.2655 -0.5749
 5823TIP3    H238961   3.757   1.492   5.546  1.2179  0.0890 -2.4046
 5824TIP3   OH238962   6.829   2.581   3.407 -0.4448  0.1541 -0.0373
 5824TIP3    H138963   6.838   2.667   3.448  0.9816  0.3419 -0.6599
 5824TIP3    H238964   6.791   2.526   3.474  1.3108  0.5779  1.3941
 5825TIP3   OH238965   2.138   0.936  15.432  0.4082  0.1803  0.2782
 5825TIP3    H138966   2.057   0.956  15.387  0.8225  0.3564 -0.4040
 5825TIP3    H238967   2.160   0.847  15.404  0.0490 -0.1704  1.0780
 5826TIP3   OH238968   6.188   5.842  13.991 -0.1096 -0.4334  0.2150
 5826TIP3    H138969   6.155   5.757  14.020  1.0606 -1.6241 -1.7066
 5826TIP3    H238970   6.155   5.851  13.902  2.7385 -0.6531 -0.9719
 5827TIP3   OH238971   3.158   4.035  12.090  0.5774 -0.3575 -0.2431
 5827TIP3    H138972   3.071   3.996  12.080 -0.3782  1.9380 -1.9145
 5827TIP3    H238973   3.141   4.125  12.119  2.5236 -0.4392  1.3544
 5828TIP3   OH238974   3.955   1.506   3.094 -0.0543 -0.0513 -0.0882
 5828TIP3    H138975   3.967   1.425   3.143 -0.1619  0.7580  1.3369
 5828TIP3    H238976   3.862   1.506   3.070  0.4468 -1.5232 -2.3454
 5829TIP3   OH238977   0.658   2.513  11.594  0.6072 -0.0983  0.4810
 5829TIP3    H138978   0.725   2.466  11.544  0.3131  0.0856 -0.1023
 5829TIP3    H238979   0.702   2.593  11.623  0.2585  0.6974 -1.0956
 5830TIP3   OH238980   4.724   4.862   4.019 -0.1301  0.3097  0.0923
 5830TIP3    H138981   4.652   4.884   3.960 -1.3163  0.5501  1.5761
 5830TIP3    H238982   4.764   4.946   4.041 -0.8696  0.4326  1.0496
 5831TIP3   OH238983   6.193   5.530   0.681 -0.4660 -0.0862  0.5312
 5831TIP3    H138984   6.213   5.621   0.705  1.6814 -0.1386 -0.7663
 5831TIP3    H238985   6.130   5.502   0.747 -1.1902  2.3254  0.9915
 5832TIP3   OH238986   3.182   4.437   4.399  0.0104 -0.2787 -0.8874
 5832TIP3    H138987   3.259   4.493   4.400 -0.1237 -0.0709  0.9652
 5832TIP3    H238988   3.205   4.365   4.341  1.3874  0.0606 -0.7916
 5833TIP3   OH238989   5.650   6.117   2.276  0.1041 -0.9093 -0.1007
 5833TIP3    H138990   5.729   6.120   2.221 -0.3712 -1.7470 -0.8626
 5833TIP3    H238991   5.671   6.053   2.344  0.5155 -0.2310  0.4243
 5834TIP3   OH238992   6.696   3.862  11.737  0.4263 -0.0700  0.3523
 5834TIP3    H138993   6.601   3.867  11.748  0.4934  2.0377  0.2727
 5834TIP3    H238994   6.731   3.928  11.796  1.7192  0.5436 -1.0278
 5835TIP3   OH238995   2.440   1.976   6.413 -0.1756  0.1915  0.0849
 5835TIP3    H138996   2.500   2.044   6.384  0.3001  0.4670  1.6490
 5835TIP3    H238997   2.363   2.022   6.444  0.4277  0.1076  1.8125
 5836TIP3   OH238998   4.089   1.840  12.936  0.3072  0.0804 -0.2014
 5836TIP3    H138999   4.077   1.840  12.841  2.8754 -2.2285 -0.6588
 5836TIP3    H239000   4.059   1.753  12.963 -1.1118  0.9909  1.2514
 5837TIP3   OH239001   2.782   5.426   1.512 -0.1080 -0.5330  0.4169
 5837TIP3    H139002   2.789   5.393   1.423  0.9010 -1.7414  0.9163
 5837TIP3    H239003   2.794   5.521   1.504 -1.5945 -0.4104 -0.8828
 5838TIP3   OH239004   5.360   2.820  13.067 -0.3569  0.1906  0.5980
 5838TIP3    H139005   5.365   2.755  12.997  1.7754  0.0902  0.7708
 5838TIP3    H239006   5.276   2.804  13.109 -0.5656 -1.4192 -0.3435
 5839TIP3   OH239007   2.796   4.005   3.127 -0.2911  0.3459  0.2119
 5839TIP3    H139008   2.736   3.931   3.118 -0.7065  0.8752 -2.2071
 5839TIP3    H239009   2.869   3.971   3.179 -2.0999 -0.6515  2.2773
 5840TIP3   OH239010   3.003   6.569   2.232 -0.4073 -0.2532  0.3564
 5840TIP3    H139011   2.943   6.594   2.163  0.0360 -2.5808 -0.9868
 5840TIP3    H239012   3.090   6.594   2.200 -0.1935 -1.3971 -0.0154
 5841TIP3   OH239013   2.000   2.526  15.133  1.0570  0.4183  0.6033
 5841TIP3    H139014   2.035   2.613  15.111  2.8850  0.0332  1.7771
 5841TIP3    H239015   2.024   2.513  15.225  1.3204 -1.5503  0.3002
 5842TIP3   OH239016   5.312   5.647   3.219 -0.2855  0.3723 -0.7717
 5842TIP3    H139017   5.327   5.622   3.128 -1.2839 -1.4550 -0.4942
 5842TIP3    H239018   5.216   5.651   3.227 -0.3524 -1.8713  0.7004
 5843TIP3   OH239019   6.052   2.466  10.730 -0.7922  0.0513  0.2613
 5843TIP3    H139020   5.966   2.441  10.695 -0.9270  1.2001 -0.2685
 5843TIP3    H239021   6.065   2.556  10.699  0.6264 -0.1263  0.2844
 5844TIP3   OH239022   6.264   5.527  14.046 -0.2430  0.1962 -0.2146
 5844TIP3    H139023   6.268   5.440  14.085 -2.1336  1.0331  2.0741
 5844TIP3    H239024   6.182   5.527  13.996  0.7645  0.0526 -1.9321
 5845TIP3   OH239025   6.132   1.656   3.158  0.0896 -0.1020  0.0698
 5845TIP3    H139026   6.048   1.690   3.126 -0.3384 -1.3594 -0.1991
 5845TIP3    H239027   6.108   1.589   3.222  0.8003 -1.8701 -1.4155
 5846TIP3   OH239028   1.872   3.626   4.096 -0.7364 -0.0470 -0.2382
 5846TIP3    H139029   1.912   3.684   4.031  0.6156  0.3064  0.8640
 5846TIP3    H239030   1.804   3.580   4.048  0.1130  0.3235 -1.8680
 5847TIP3   OH239031   6.593   1.931   0.431 -0.2502  0.1624  0.4047
 5847TIP3    H139032   6.587   1.994   0.359  0.4603  1.2060  1.2320
 5847TIP3    H239033   6.502   1.919   0.459 -0.3933  0.7915  0.2230
 5848TIP3   OH239034   6.126   5.240   4.451  0.0751  0.3583  0.5363
 5848TIP3    H139035   6.071   5.266   4.525  0.9506  0.4048  1.1957
 5848TIP3    H239036   6.117   5.145   4.446 -0.2510  0.3934  0.4941
 5849TIP3   OH239037   6.371   3.363   6.177  0.1611  0.1676 -0.1614
 5849TIP3    H139038   6.414   3.425   6.236 -2.0364 -0.3555  2.1782
 5849TIP3    H239039   6.296   3.412   6.141  0.9698  0.1995 -1.9245
 5850TIP3   OH239040   0.695   2.084   2.645 -0.5982 -0.1103 -0.3356
 5850TIP3    H139041   0.758   2.011   2.644 -1.8128 -1.2194  0.1895
 5850TIP3    H239042   0.647   2.072   2.727  0.6396  2.6268  0.8740
 5851TIP3   OH239043   4.699   4.340   0.318 -0.4608 -0.7023 -0.0252
 5851TIP3    H139044   4.775   4.294   0.354 -0.9839 -0.5168  1.3773
 5851TIP3    H239045   4.626   4.279   0.331 -0.6383 -0.7366 -1.0466
 5852TIP3   OH239046   1.866   2.455  10.787 -0.7105 -0.7145  1.1590
 5852TIP3    H139047   1.807   2.393  10.745  0.7324 -0.3134 -1.6813
 5852TIP3    H239048   1.840   2.541  10.753  1.9964 -0.6201 -0.9894
 5853TIP3   OH239049   1.390   6.187   6.630  0.2775 -0.1070 -0.2617
 5853TIP3    H139050   1.431   6.101   6.621  0.3438 -0.2560  1.1797
 5853TIP3    H239051   1.448   6.246   6.582  0.6627 -0.7539 -0.5979
 5854TIP3   OH239052   5.420   4.107  10.436 -0.2382  0.4423  0.0990
 5854TIP3    H139053   5.481   4.078  10.503  0.5526  1.1394 -0.2809
 5854TIP3    H239054   5.334   4.080  10.466 -0.0683  1.8622  2.0464
 5855TIP3   OH239055   0.788   4.485   1.802  0.2426 -0.0350 -0.5834
 5855TIP3    H139056   0.819   4.395   1.813 -0.0054 -0.1963 -1.1359
 5855TIP3    H239057   0.828   4.534   1.874 -0.5198 -0.8148  0.4070
 5856TIP3   OH239058   2.603   6.215  13.592 -0.1926 -0.3047 -0.0984
 5856TIP3    H139059   2.581   6.124  13.569 -2.5283  0.4224 -1.0365
 5856TIP3    H239060   2.698   6.214  13.602  0.0292 -2.5609 -1.4807
 5857TIP3   OH239061   1.983   1.584   1.935 -0.5969 -0.0975  0.3616
 5857TIP3    H139062   2.065   1.537   1.923 -1.0271 -0.4542 -1.3638
 5857TIP3    H239063   1.916   1.526   1.900 -1.0318  2.1382 -3.0004
 5858TIP3   OH239064   5.786   1.365  16.007  0.0274  0.3896  0.4137
 5858TIP3    H139065   5.838   1.349  15.928  0.7235  0.8227  0.7684
 5858TIP3    H239066   5.813   1.452  16.036  0.0492  0.0873  1.3275
 5859TIP3   OH239067   1.907   5.905   4.023  0.2839  0.9298  0.2425
 5859TIP3    H139068   1.824   5.952   4.033  0.1862  1.8148 -3.3995
 5859TIP3    H239069   1.972   5.974   4.012  1.7656  0.2623  3.5980
 5860TIP3   OH239070   0.725   3.237  12.950 -0.4327 -0.0313 -0.3321
 5860TIP3    H139071   0.744   3.327  12.922 -1.6646  0.2176 -0.3928
 5860TIP3    H239072   0.668   3.247  13.026 -1.1918 -0.7706 -0.7927
 5861TIP3   OH239073   4.647   5.141   4.646 -0.3074 -0.5198  0.3426
 5861TIP3    H139074   4.687   5.074   4.702 -1.6579 -1.0074  0.7453
 5861TIP3    H239075   4.569   5.169   4.693 -0.1630  0.8236 -0.1775
 5862TIP3   OH239076   2.568   2.801  16.226  0.2119 -0.4296 -0.1492
 5862TIP3    H139077   2.609   2.747  16.158  1.0306 -0.1911  0.1348
 5862TIP3    H239078   2.562   2.743  16.302  0.3855 -0.3557 -0.0760
 5863TIP3   OH239079   0.857   6.319   4.927 -0.2174 -0.4153  0.1423
 5863TIP3    H139080   0.858   6.320   5.023  0.2475  0.6936  0.1356
 5863TIP3    H239081   0.869   6.227   4.904 -2.3252 -0.9900  1.1575
 5864TIP3   OH239082   2.759   4.655   5.662 -0.4751  0.2103 -0.2826
 5864TIP3    H139083   2.706   4.728   5.694 -0.5403 -0.4218  1.0907
 5864TIP3    H239084   2.849   4.688   5.663 -0.6743  0.8334 -1.3397
 5865TIP3   OH239085   2.995   3.627   1.526 -0.3627  0.2928 -0.7790
 5865TIP3    H139086   2.977   3.535   1.505 -0.4805 -0.2578  1.3991
 5865TIP3    H239087   2.937   3.645   1.600  0.7997  1.6284 -0.1632
 5866TIP3   OH239088   0.546   3.210  15.931  0.2627 -0.1645 -0.1880
 5866TIP3    H139089   0.457   3.196  15.964  0.2632  1.5810  0.6710
 5866TIP3    H239090   0.540   3.291  15.880  1.5606  0.6266  0.8434
 5867TIP3   OH239091   5.234   3.731   3.041 -0.2047  0.4841 -0.2211
 5867TIP3    H139092   5.255   3.819   3.072 -0.9845  1.2264 -1.6992
 5867TIP3    H239093   5.304   3.710   2.979 -0.5526  0.4746 -0.6121
 5868TIP3   OH239094   3.584   4.618   6.234  0.0851 -0.0361  0.3396
 5868TIP3    H139095   3.584   4.612   6.138  2.2532 -1.1789  0.3493
 5868TIP3    H239096   3.497   4.650   6.256 -0.7421 -0.5060 -1.9712
 5869TIP3   OH239097   5.166   2.098   1.572 -0.2559 -0.0795  0.3089
 5869TIP3    H139098   5.136   2.012   1.542  3.2385 -0.9768 -1.0769
 5869TIP3    H239099   5.186   2.085   1.665 -0.6675 -0.4799  0.3445
 5870TIP3   OH239100   0.789   6.340  16.183  0.2085 -0.2376  0.0609
 5870TIP3    H139101   0.851   6.286  16.232  0.5765 -0.3765 -0.5479
 5870TIP3    H239102   0.844   6.400  16.132 -0.1220 -0.8846 -1.0868
 5871TIP3   OH239103   0.152   0.122   2.310 -0.4333 -0.0804  0.2316
 5871TIP3    H139104   0.234   0.134   2.262  0.4730  0.6535  1.8508
 5871TIP3    H239105   0.084   0.152   2.250  0.7032  1.3911 -0.3941
 5872TIP3   OH239106   5.139   4.950   3.098  0.0462 -0.1254 -0.6408
 5872TIP3    H139107   5.061   4.995   3.131  1.1620  1.7560 -0.4545
 5872TIP3    H239108   5.204   4.959   3.167  0.3712 -1.9417 -0.6703
 5873TIP3   OH239109   0.302   3.794   2.214 -0.4077 -0.4973  0.0163
 5873TIP3    H139110   0.391   3.773   2.242 -0.2717  0.7007  0.5311
 5873TIP3    H239111   0.266   3.710   2.186  0.6503 -1.1220  0.4508
 5874TIP3   OH239112   2.819   1.957   1.476  0.2185 -0.1778  0.3201
 5874TIP3    H139113   2.904   1.992   1.501 -0.2253  0.1131  1.4712
 5874TIP3    H239114   2.838   1.900   1.401  1.4042 -0.0382  0.4915
 5875TIP3   OH239115   4.825   4.941   5.982  0.5247 -0.2194  0.2342
 5875TIP3    H139116   4.849   4.849   5.981  1.7252  0.0762 -0.0077
 5875TIP3    H239117   4.778   4.954   5.899  2.6221 -0.0780 -0.9982
 5876TIP3   OH239118   5.962   6.715  14.058  0.2973 -0.0766 -0.4584
 5876TIP3    H139119   5.954   6.754  14.145  1.9905  2.0122 -1.1398
 5876TIP3    H239120   6.010   6.633  14.072 -0.2635 -0.2357  0.6430
 5877TIP3   OH239121   0.134   5.184  11.802 -0.0435 -0.2832  0.2094
 5877TIP3    H139122   0.110   5.097  11.771  0.4009 -0.8994  1.5326
 5877TIP3    H239123   0.060   5.239  11.779 -1.1112 -1.3845  0.9115
 5878TIP3   OH239124   2.419   3.262  15.704  0.2102 -0.4027 -0.0103
 5878TIP3    H139125   2.396   3.260  15.611 -0.1042 -0.2395  0.0627
 5878TIP3    H239126   2.505   3.303  15.707 -0.8137  1.8551 -0.0296
 5879TIP3   OH239127   2.000   5.743   0.406 -0.2190  0.4743 -0.1287
 5879TIP3    H139128   1.984   5.828   0.365 -0.6975  0.3172 -0.2783
 5879TIP3    H239129   1.982   5.758   0.499  0.5154  0.7399 -0.0181
 5880TIP3   OH239130   6.027   1.755  15.848 -0.6861  0.2610  0.0883
 5880TIP3    H139131   6.110   1.718  15.879  0.0850  1.9011  0.0892
 5880TIP3    H239132   6.034   1.753  15.753 -1.2007 -0.7584  0.0610
 5881TIP3   OH239133   5.445   5.990   4.910  0.0988 -0.4951  0.3591
 5881TIP3    H139134   5.411   6.077   4.889  1.1284 -0.3291 -0.7177
 5881TIP3    H239135   5.426   5.978   5.004 -0.2866  0.7701  0.4520
 5882TIP3   OH239136   5.298   3.996   5.438 -0.0299 -0.1501 -0.1748
 5882TIP3    H139137   5.357   4.060   5.477  1.7162 -0.6804 -1.7703
 5882TIP3    H239138   5.354   3.946   5.378 -1.1472 -3.6252  1.4589
 5883TIP3   OH239139   5.354   3.921   0.921 -0.3693  0.1500  0.2628
 5883TIP3    H139140   5.286   3.921   0.854 -0.0617 -2.3391 -0.1461
 5883TIP3    H239141   5.316   3.872   0.993  0.5774 -0.2662  0.4906
 5884TIP3   OH239142   1.310   0.167   1.566  0.2333 -0.0797 -0.3653
 5884TIP3    H139143   1.375   0.180   1.635  0.3586  0.5946 -0.6003
 5884TIP3    H239144   1.261   0.250   1.563 -0.0755 -0.2723 -0.7664
 5885TIP3   OH239145   3.488   0.672   3.033 -0.5481  0.2521 -0.4519
 5885TIP3    H139146   3.463   0.599   2.977  0.6228 -1.2571  0.9032
 5885TIP3    H239147   3.563   0.640   3.083 -1.3674  1.6001  1.8114
 5886TIP3   OH239148   4.361   0.570  12.668  0.1221 -0.9015  0.1231
 5886TIP3    H139149   4.411   0.619  12.603 -1.6349  0.8655  0.0206
 5886TIP3    H239150   4.270   0.575  12.638 -0.2764 -3.5245  0.6015
 5887TIP3   OH239151   4.125   6.672   5.946 -0.0383  0.4529 -0.2409
 5887TIP3    H139152   4.195   6.682   6.011  0.7960 -0.2764 -0.9942
 5887TIP3    H239153   4.098   6.581   5.953 -0.7249  0.6626 -0.1484
 5888TIP3   OH239154   4.787   0.627   4.088  0.3809 -0.9774 -0.3871
 5888TIP3    H139155   4.822   0.550   4.044  0.0383 -0.9229 -0.7586
 5888TIP3    H239156   4.695   0.606   4.104  0.8083 -1.5764  1.5769
 5889TIP3   OH239157   4.800   5.757  11.217  0.3577  0.0802  0.5908
 5889TIP3    H139158   4.891   5.756  11.247  0.3318 -1.5878  0.7308
 5889TIP3    H239159   4.749   5.751  11.298  0.1084  0.8494  0.5011
 5890TIP3   OH239160   0.643   5.185   6.952 -0.0805  0.7490  0.3143
 5890TIP3    H139161   0.594   5.254   6.996 -1.2215  0.3803 -0.3490
 5890TIP3    H239162   0.705   5.233   6.897  2.0980  1.2296  2.9660
 5891TIP3   OH239163   0.982   0.164  12.945  0.3542 -0.1840 -0.1050
 5891TIP3    H139164   0.953   0.084  12.990 -1.7776  0.5093 -0.1484
 5891TIP3    H239165   1.055   0.196  12.999  0.0504 -1.1742  0.9462
 5892TIP3   OH239166   4.663   3.075  16.234  0.5168  0.6123  0.0334
 5892TIP3    H139167   4.571   3.068  16.212  0.6602 -0.1657 -0.3423
 5892TIP3    H239168   4.695   2.984  16.234  1.7291  0.9910 -1.7636
 5893TIP3   OH239169   4.312   0.220  15.143  0.3254  0.2811  0.0488
 5893TIP3    H139170   4.279   0.232  15.054 -3.2064  1.7681  1.3781
 5893TIP3    H239171   4.333   0.309  15.173 -0.9616  0.1401  1.4742
 5894TIP3   OH239172   6.634   6.821   1.135  0.1896  0.2435 -0.1857
 5894TIP3    H139173   6.707   6.883   1.125 -0.2316  1.0325  1.3218
 5894TIP3    H239174   6.559   6.865   1.094 -0.5874  1.7061  2.5733
 5895TIP3   OH239175   6.295   2.121  14.930 -0.2549  0.1313 -0.1964
 5895TIP3    H139176   6.334   2.105  15.016  2.3074 -1.3616 -1.4948
 5895TIP3    H239177   6.261   2.210  14.935  0.5504  0.3685  2.0969
 5896TIP3   OH239178   5.296   2.370   4.604 -0.1103  0.4664  0.3547
 5896TIP3    H139179   5.300   2.350   4.510 -0.9532 -1.9186  0.7625
 5896TIP3    H239180   5.377   2.335   4.640 -0.3870  0.1976  0.7176
 5897TIP3   OH239181   4.381   5.808   2.825  0.1059  0.4345  0.3881
 5897TIP3    H139182   4.440   5.878   2.851 -0.6541  0.9289  0.8357
 5897TIP3    H239183   4.294   5.848   2.826 -0.2396 -0.2725 -0.2609
 5898TIP3   OH239184   0.975   2.148   5.746 -0.5753  0.1920  0.0879
 5898TIP3    H139185   1.014   2.064   5.723  0.0770 -0.0846  2.0318
 5898TIP3    H239186   1.047   2.210   5.741 -1.2580  0.9012 -2.3281
 5899TIP3   OH239187   3.012   5.380  15.668 -0.4284  0.0387  0.6248
 5899TIP3    H139188   3.058   5.463  15.655  2.1747 -1.0951  1.9071
 5899TIP3    H239189   3.032   5.329  15.590  0.8587 -0.5717  1.3232
 5900TIP3   OH239190   3.872   2.891   6.067 -0.0034 -0.1588  0.7687
 5900TIP3    H139191   3.965   2.880   6.084 -0.1534 -1.2603  0.9386
 5900TIP3    H239192   3.836   2.922   6.150 -0.0907 -1.6495  1.3098
 5901TIP3   OH239193   1.379   2.795   4.299  0.3084  0.8650  0.5458
 5901TIP3    H139194   1.406   2.703   4.293  0.0530  0.8381 -0.3764
 5901TIP3    H239195   1.439   2.841   4.240  0.3047  1.2597  0.8491
 5902TIP3   OH239196   3.357   3.622  15.468 -0.3100  0.3967  0.0765
 5902TIP3    H139197   3.267   3.619  15.500 -0.4962 -1.8571 -0.5414
 5902TIP3    H239198   3.361   3.553  15.401  1.2009  2.1251 -1.7441
 5903TIP3   OH239199   4.706   1.803  13.925 -0.7119  0.0734  0.4106
 5903TIP3    H139200   4.782   1.860  13.918 -0.7764 -0.0293 -1.4265
 5903TIP3    H239201   4.679   1.810  14.017  1.4105  0.2255  1.0636
 5904TIP3   OH239202   1.701   2.259   5.231 -0.6440  0.0399 -0.2178
 5904TIP3    H139203   1.609   2.264   5.256 -0.9118 -0.0768 -1.1673
 5904TIP3    H239204   1.726   2.168   5.248 -0.7811 -0.0008 -0.2394
 5905TIP3   OH239205   1.414   3.497   5.563  0.4508  1.0375  0.4872
 5905TIP3    H139206   1.411   3.531   5.474  2.5295  0.4431  0.1515
 5905TIP3    H239207   1.465   3.561   5.612  1.3805  0.1764  0.6705
 5906TIP3   OH239208   5.150   2.515   0.703  0.4230 -0.4275 -0.0017
 5906TIP3    H139209   5.092   2.495   0.630  0.7532  1.4016 -0.8039
 5906TIP3    H239210   5.112   2.593   0.744  0.8018 -0.8372  1.1771
 5907TIP3   OH239211   3.221   1.029   0.123 -0.3383 -0.7999  0.0838
 5907TIP3    H139212   3.238   1.097   0.188 -0.1423 -0.3689 -0.4088
 5907TIP3    H239213   3.287   0.961   0.141  0.4740 -0.1570 -0.3888
 5908TIP3   OH239214   2.504   1.370   2.533 -0.1314  0.3583 -0.0156
 5908TIP3    H139215   2.436   1.371   2.599 -0.2574 -1.8929 -0.0378
 5908TIP3    H239216   2.461   1.338   2.454  0.4906  0.9796 -0.6299
 5909TIP3   OH239217   6.546   6.197   3.874  0.0177  0.4226  0.2229
 5909TIP3    H139218   6.551   6.215   3.968  1.5398  0.9725  0.0632
 5909TIP3    H239219   6.602   6.121   3.861 -2.1162 -1.2213  0.0768
 5910TIP3   OH239220   4.769   2.706  13.352  0.4829  0.5077 -0.7168
 5910TIP3    H139221   4.764   2.703  13.256  2.2534 -0.6817 -0.8240
 5910TIP3    H239222   4.855   2.670  13.372 -0.3670 -0.5067  1.3943
 5911TIP3   OH239223   0.861   1.033  12.610  0.6906  0.4616  0.2082
 5911TIP3    H139224   0.880   1.049  12.518 -0.5139 -2.4060 -0.6424
 5911TIP3    H239225   0.798   1.101  12.633 -0.5376  0.0667 -1.7230
 5912TIP3   OH239226   4.019   3.361   4.863  0.5180  0.1217  0.2017
 5912TIP3    H139227   3.939   3.334   4.909  0.7974  0.8512  1.1683
 5912TIP3    H239228   4.024   3.303   4.787 -0.3055 -0.7143  0.7574
 5913TIP3   OH239229   2.622   2.521  15.805  0.2534 -0.5630  0.3973
 5913TIP3    H139230   2.563   2.594  15.824 -0.5320 -1.0986  0.0479
 5913TIP3    H239231   2.707   2.563  15.787 -0.1441  0.2461  0.3727
 5914TIP3   OH239232   6.345   2.094  16.473  0.3688  0.4409 -0.5346
 5914TIP3    H139233   6.336   2.104  16.378 -0.3796 -1.4538 -0.7076
 5914TIP3    H239234   6.301   2.011  16.493  1.1894  0.4065  1.3651
 5915TIP3   OH239235   5.916   6.239  16.444  0.0012  0.3610 -0.1656
 5915TIP3    H139236   5.931   6.328  16.478 -0.9665  0.0878  1.0181
 5915TIP3    H239237   5.880   6.253  16.356 -3.3520  1.3246  1.1860
 5916TIP3   OH239238   0.833   3.791   6.459 -0.0865  0.6788  0.3945
 5916TIP3    H139239   0.818   3.872   6.410  1.2672  0.3900 -0.5281
 5916TIP3    H239240   0.758   3.736   6.439  1.2508 -0.1478 -2.8884
 5917TIP3   OH239241   2.663   3.552  13.764  0.5997  0.0469  0.9203
 5917TIP3    H139242   2.655   3.548  13.669  1.5763  0.2373  0.8220
 5917TIP3    H239243   2.717   3.477  13.787  1.3098  0.6368  1.2048
 5918TIP3   OH239244   1.736   0.553  11.371  0.6774  0.0788  0.2267
 5918TIP3    H139245   1.782   0.559  11.287 -0.5174 -0.7453 -0.5112
 5918TIP3    H239246   1.649   0.522  11.349  0.8504 -1.8621  1.9517
 5919TIP3   OH239247   6.790   1.152   1.586 -0.1428  0.4542 -0.0062
 5919TIP3    H139248   6.851   1.211   1.631 -1.2802  1.2737  0.5110
 5919TIP3    H239249   6.716   1.143   1.646 -0.5913 -0.4283 -0.6660
 5920TIP3   OH239250   0.468   2.206  11.414  0.5885  0.2875 -0.4093
 5920TIP3    H139251   0.489   2.151  11.339 -0.8753  0.1358 -0.7422
 5920TIP3    H239252   0.491   2.295  11.387  3.7800 -0.1579  0.4370
 5921TIP3   OH239253   5.428   0.201  15.827  0.4215  0.2360 -0.6244
 5921TIP3    H139254   5.465   0.137  15.888 -0.1391 -0.6969 -1.2472
 5921TIP3    H239255   5.494   0.271  15.822  0.9132 -0.1522  0.2725
 5922TIP3   OH239256   4.180   2.944  14.890  0.1884 -0.3275  0.6005
 5922TIP3    H139257   4.171   2.985  14.804  2.0476 -1.8722 -0.4014
 5922TIP3    H239258   4.230   3.008  14.941 -1.0848  0.6786  0.6488
 5923TIP3   OH239259   3.400   6.131   5.081  0.2298  0.1695 -0.0698
 5923TIP3    H139260   3.429   6.126   5.173 -0.3315 -1.3063  0.0500
 5923TIP3    H239261   3.480   6.154   5.033  0.9265 -0.7196  0.6141
 5924TIP3   OH239262   4.801   0.986   4.096  0.2772 -0.2241 -0.1423
 5924TIP3    H139263   4.855   1.050   4.142 -2.3290  2.5595 -0.6919
 5924TIP3    H239264   4.840   0.982   4.008  1.1429 -0.3226  0.2323
 5925TIP3   OH239265   4.782   6.356   2.082 -0.3436 -0.1774 -0.0813
 5925TIP3    H139266   4.696   6.383   2.112  0.6790  0.4235  2.5257
 5925TIP3    H239267   4.844   6.407   2.134  1.6013 -2.0362 -0.3945
 5926TIP3   OH239268   1.830   4.358  10.336  0.3538  0.5928  0.0172
 5926TIP3    H139269   1.765   4.293  10.362 -0.0395  0.7340 -0.5853
 5926TIP3    H239270   1.802   4.387  10.249  0.8159  1.1904  0.0562
 5927TIP3   OH239271   2.493   6.264  13.176 -0.1144 -0.0557  0.2101
 5927TIP3    H139272   2.514   6.249  13.084 -0.3921  0.9793 -0.0267
 5927TIP3    H239273   2.578   6.278  13.218 -0.1197  1.6213 -0.2905
 5928TIP3   OH239274   4.168   4.623  15.804 -0.0525 -0.5710 -0.6797
 5928TIP3    H139275   4.090   4.603  15.856 -0.0123 -0.7102 -0.6727
 5928TIP3    H239276   4.231   4.556  15.829  1.4190  1.6384  2.1419
 5929TIP3   OH239277   1.521   2.946  11.183 -0.2785 -0.4115  0.5578
 5929TIP3    H139278   1.433   2.912  11.198 -0.4574  0.3031  1.1900
 5929TIP3    H239279   1.558   2.890  11.114 -1.1826 -0.7792  0.3689
 5930TIP3   OH239280   2.420   4.271  15.901 -0.1147  0.0150 -0.5138
 5930TIP3    H139281   2.362   4.229  15.965 -0.0197 -0.4766 -0.7429
 5930TIP3    H239282   2.429   4.206  15.831  3.3861 -1.4109  1.0105
 5931TIP3   OH239283   2.883   5.237   1.686 -0.7888 -0.0890 -0.3103
 5931TIP3    H139284   2.922   5.168   1.632  2.2086  0.7058  0.6490
 5931TIP3    H239285   2.847   5.300   1.622  3.8072  1.5057 -1.7541
 5932TIP3   OH239286   0.657   3.848  11.540  0.1685 -0.0019  0.1647
 5932TIP3    H139287   0.681   3.939  11.522  0.5814  0.3671  2.3043
 5932TIP3    H239288   0.573   3.855  11.587 -0.8773 -0.8836 -1.5022
 5933TIP3   OH239289   3.360   2.751   2.213  0.8328 -0.5200 -0.0717
 5933TIP3    H139290   3.287   2.690   2.202  2.3836 -2.4619 -0.0973
 5933TIP3    H239291   3.344   2.792   2.298 -0.1231 -1.1310  0.0631
 5934TIP3   OH239292   2.435   1.770   6.220 -0.3790 -0.2951 -0.3414
 5934TIP3    H139293   2.503   1.712   6.254 -0.3135  0.7086  1.3151
 5934TIP3    H239294   2.432   1.843   6.281 -2.1047  0.3038 -1.0665
 5935TIP3   OH239295   1.741   5.168   4.425 -0.3564  0.2780 -0.1256
 5935TIP3    H139296   1.792   5.118   4.361  1.4248 -1.4950  2.4474
 5935TIP3    H239297   1.694   5.101   4.475 -1.8480  1.6033  0.3415
 5936TIP3   OH239298   1.583   0.086   5.400 -0.0219 -0.4871  0.9832
 5936TIP3    H139299   1.488   0.077   5.397 -0.2177  1.4583 -0.4851
 5936TIP3    H239300   1.613   0.053   5.315  0.7932 -2.3012  1.9198
 5937TIP3   OH239301   3.745   2.628  14.056 -0.3372  0.0697 -0.3997
 5937TIP3    H139302   3.687   2.601  14.127  0.7999  0.9719  0.9122
 5937TIP3    H239303   3.812   2.559  14.053  0.6145  0.9196  0.6272
 5938TIP3   OH239304   4.120   4.398   1.753 -0.4005 -0.3070  0.1115
 5938TIP3    H139305   4.089   4.463   1.816 -0.3584 -0.9114  0.7687
 5938TIP3    H239306   4.068   4.320   1.772 -0.0197 -0.6548 -0.2622
 5939TIP3   OH239307   0.865   0.517  12.514  0.0302  0.2266  0.4951
 5939TIP3    H139308   0.843   0.465  12.437  1.2194  1.6503 -0.8809
 5939TIP3    H239309   0.798   0.495  12.578 -0.5264 -1.6179 -0.6503
 5940TIP3   OH239310   2.082   3.280  13.955  0.0796 -0.1141 -0.7385
 5940TIP3    H139311   2.121   3.279  13.868  1.0123  0.7263 -0.3525
 5940TIP3    H239312   1.993   3.313  13.941  0.6206  1.2139 -1.2495
 5941TIP3   OH239313   3.445   4.851  15.667 -0.1696 -0.0274  0.3324
 5941TIP3    H139314   3.469   4.767  15.629 -0.0823 -0.2505  0.8725
 5941TIP3    H239315   3.352   4.862  15.647 -0.0539 -0.0021 -0.1989
 5942TIP3   OH239316   1.959   6.554   0.132  0.0081 -0.1473  0.3001
 5942TIP3    H139317   1.978   6.628   0.190 -0.5311  0.2044  0.0328
 5942TIP3    H239318   2.045   6.517   0.112  0.2117 -0.1986  1.2214
 5943TIP3   OH239319   0.809   0.679  12.973  0.6301 -0.4995  0.2785
 5943TIP3    H139320   0.878   0.745  12.980 -1.0314  1.3388  0.2574
 5943TIP3    H239321   0.750   0.713  12.906 -0.9749 -1.3595  1.1846
 5944TIP3   OH239322   2.742   3.535   3.061  0.0223  0.0233  0.4956
 5944TIP3    H139323   2.679   3.520   2.990  0.4800 -1.3105  0.3396
 5944TIP3    H239324   2.781   3.620   3.042 -0.9217  0.3497 -0.0270
 5945TIP3   OH239325   1.573   4.889  14.918  0.0494 -0.4001 -0.1071
 5945TIP3    H139326   1.630   4.878  14.842  0.8062  0.0848  0.3773
 5945TIP3    H239327   1.514   4.814  14.915  0.8331 -1.0132 -0.5251
 5946TIP3   OH239328   6.726   1.508  15.745  0.8311 -0.7208  0.1756
 5946TIP3    H139329   6.786   1.508  15.670  1.6834  1.4312  0.7884
 5946TIP3    H239330   6.648   1.554  15.714  0.2679 -1.7789 -0.0230
 5947TIP3   OH239331   5.886   5.431  14.720  0.3315  0.3232 -0.2451
 5947TIP3    H139332   5.907   5.485  14.644 -0.2094  1.4487  0.3816
 5947TIP3    H239333   5.947   5.357  14.714  1.1377  1.0297 -1.0838
 5948TIP3   OH239334   5.137   1.404   1.812  0.1102 -0.0417  0.1441
 5948TIP3    H139335   5.172   1.457   1.883  1.7738 -0.6442 -0.1828
 5948TIP3    H239336   5.076   1.463   1.766  0.2929  0.8810  1.0543
 5949TIP3   OH239337   1.728   0.884   6.370 -0.5613 -0.3841  0.0603
 5949TIP3    H139338   1.813   0.908   6.409 -1.1874 -0.4399  1.5088
 5949TIP3    H239339   1.666   0.946   6.407 -1.5481 -1.7992  0.8627
 5950TIP3   OH239340   4.768   3.307   4.416  0.0803 -0.1579 -0.0805
 5950TIP3    H139341   4.796   3.347   4.334 -0.7466  1.0221  0.1993
 5950TIP3    H239342   4.830   3.340   4.481  0.1708 -0.3541 -0.0659
 5951TIP3   OH239343   4.713   1.136   1.642  0.8124 -0.4984 -0.2053
 5951TIP3    H139344   4.748   1.100   1.561  0.7632 -0.3648 -0.2863
 5951TIP3    H239345   4.668   1.216   1.615 -0.9264 -1.4782 -0.3397
 5952TIP3   OH239346   6.235   2.819  15.782  0.8332 -0.3964  0.6521
 5952TIP3    H139347   6.321   2.823  15.823  0.8112 -2.2697  0.9993
 5952TIP3    H239348   6.176   2.786  15.851 -0.5000  2.1383  0.8345
 5953TIP3   OH239349   2.493   4.804  14.186 -0.2590 -0.2438 -0.4209
 5953TIP3    H139350   2.496   4.755  14.105 -1.8623 -2.0387  0.5362
 5953TIP3    H239351   2.488   4.896  14.158  0.1136 -0.7495 -2.2894
 5954TIP3   OH239352   0.453   3.327  12.104 -0.1019  0.0677  0.2715
 5954TIP3    H139353   0.514   3.307  12.033 -1.7908 -0.4550 -1.1047
 5954TIP3    H239354   0.459   3.251  12.162  1.2827  0.4930  0.7216
 5955TIP3   OH239355   5.146   4.666  15.817  0.3103  0.1619  0.9389
 5955TIP3    H139356   5.160   4.742  15.874 -1.1052  1.3210 -0.1842
 5955TIP3    H239357   5.065   4.627  15.850  0.8481 -0.6688  1.2911
 5956TIP3   OH239358   2.476   0.289  13.777 -0.0983 -0.1395  0.0149
 5956TIP3    H139359   2.560   0.335  13.788 -0.0079 -0.6877  1.9384
 5956TIP3    H239360   2.490   0.204  13.819 -0.7731 -1.3591 -2.0823
 5957TIP3   OH239361   1.694   0.777  11.559  0.1838  0.2684  0.4068
 5957TIP3    H139362   1.698   0.715  11.632 -0.9079  0.0906  0.3331
 5957TIP3    H239363   1.696   0.722  11.481 -0.0325  0.3662  0.3317
 5958TIP3   OH239364   4.448   1.420   4.495  0.2829 -0.0502 -0.2771
 5958TIP3    H139365   4.409   1.386   4.576  0.9218 -0.0129  0.0458
 5958TIP3    H239366   4.479   1.507   4.519  0.8946 -0.2235 -0.4384
 5959TIP3   OH239367   5.306   5.579  11.996 -0.4958  0.3767 -0.1556
 5959TIP3    H139368   5.222   5.534  11.986  0.2244 -1.2371  0.5958
 5959TIP3    H239369   5.310   5.602  12.089  1.4305 -3.0084  0.7773
 5960TIP3   OH239370   6.783   0.970  12.055  0.0954  0.3345  0.0302
 5960TIP3    H139371   6.879   0.977  12.051  0.2258 -0.9895  0.2028
 5960TIP3    H239372   6.752   1.039  11.997  1.1511  0.8954  0.0957
 5961TIP3   OH239373   1.658   1.032  14.703 -0.4915 -0.0518 -1.0676
 5961TIP3    H139374   1.594   1.102  14.688  0.5151  0.7164 -1.9662
 5961TIP3    H239375   1.608   0.951  14.693 -1.8806  0.4965  0.8663
 5962TIP3   OH239376   3.982   4.319   3.654  0.2592 -0.0156  0.6173
 5962TIP3    H139377   3.944   4.294   3.738 -0.9713 -1.9973 -0.4463
 5962TIP3    H239378   3.917   4.377   3.614  0.2317 -0.1163  0.5127
 5963TIP3   OH239379   6.324   0.831  14.756  0.0019 -0.2698  0.2486
 5963TIP3    H139380   6.408   0.819  14.802  0.1089  0.7774  0.3520
 5963TIP3    H239381   6.267   0.869  14.822 -0.4945 -0.7450  0.1028
 5964TIP3   OH239382   4.328   2.372  11.939 -0.1211  0.2273 -0.7205
 5964TIP3    H139383   4.307   2.282  11.964 -0.7399  0.4678 -0.3654
 5964TIP3    H239384   4.249   2.405  11.898  0.2157  0.5059 -1.1624
 5965TIP3   OH239385   0.040   0.658   4.651  0.2930 -0.1901 -0.5099
 5965TIP3    H139386   0.086   0.741   4.662  0.2577 -0.2316 -0.0190
 5965TIP3    H239387   0.109   0.596   4.628  0.1586  0.2047 -2.0563
 5966TIP3   OH239388   3.922   5.936   3.732 -0.3543  0.0629 -0.6174
 5966TIP3    H139389   3.874   6.010   3.769 -1.3104 -0.1255 -1.4124
 5966TIP3    H239390   3.873   5.914   3.652  0.2117 -1.0913 -0.6677
 5967TIP3   OH239391   1.950   1.898   5.689  0.5313 -0.4464  0.0678
 5967TIP3    H139392   1.928   1.964   5.755 -0.3151 -1.3502  0.7210
 5967TIP3    H239393   1.920   1.935   5.607 -2.8096 -1.2329  0.7951
 5968TIP3   OH239394   1.309   4.058  11.527  0.2755  0.4412 -0.1564
 5968TIP3    H139395   1.390   4.019  11.494 -0.3561 -0.4632 -0.6928
 5968TIP3    H239396   1.337   4.111  11.601  1.3154 -0.1636 -0.0833
 5969TIP3   OH239397   6.510   1.749  15.420 -0.6116  0.0758 -0.3092
 5969TIP3    H139398   6.517   1.844  15.435 -1.1097  0.2051 -0.8176
 5969TIP3    H239399   6.494   1.742  15.326 -3.2856 -0.3258  0.0943
 5970TIP3   OH239400   6.491   4.882   4.898 -0.0365  0.5735  0.2037
 5970TIP3    H139401   6.545   4.853   4.824 -1.3955  1.4718 -1.1930
 5970TIP3    H239402   6.523   4.971   4.917  1.0804 -0.0619  1.5090
 5971TIP3   OH239403   0.558   1.852   4.314 -0.3878 -0.2508  0.2195
 5971TIP3    H139404   0.476   1.815   4.280 -0.3375 -0.2532  0.1004
 5971TIP3    H239405   0.553   1.837   4.409 -0.4696 -0.3596  0.1989
 5972TIP3   OH239406   4.359   1.309  13.784  0.4360  0.1464 -0.3494
 5972TIP3    H139407   4.335   1.361  13.707  0.7355  1.6219  0.5285
 5972TIP3    H239408   4.438   1.261  13.756 -0.1827 -0.3339 -1.3541
 5973TIP3   OH239409   1.341   4.955   1.992  0.1273 -0.5977 -0.9169
 5973TIP3    H139410   1.429   4.968   1.957 -0.0239 -0.4544 -1.2558
 5973TIP3    H239411   1.333   5.020   2.062 -0.1887  0.3327 -1.7930
 5974TIP3   OH239412   5.573   3.144   2.605 -0.0931 -0.3449 -0.2072
 5974TIP3    H139413   5.543   3.224   2.562  1.7128  0.0800 -0.7642
 5974TIP3    H239414   5.546   3.074   2.546 -1.0105 -0.0967 -0.0980
 5975TIP3   OH239415   6.419   0.638   4.437 -0.5384  0.3957 -0.4115
 5975TIP3    H139416   6.482   0.631   4.508  0.2766 -0.1376 -1.1673
 5975TIP3    H239417   6.449   0.713   4.385 -0.8814  0.5229 -0.4264
 5976TIP3   OH239418   6.053   2.104  15.496  0.3314  0.4765  0.1754
 5976TIP3    H139419   6.133   2.150  15.473  0.9869  0.0492  1.5115
 5976TIP3    H239420   6.017   2.154  15.569  0.3057 -0.3125  0.7185
 5977TIP3   OH239421   0.220   4.281   0.457 -0.0616  0.0557  0.3094
 5977TIP3    H139422   0.297   4.312   0.409 -0.3984 -0.0375 -0.2997
 5977TIP3    H239423   0.180   4.360   0.491  0.4286  0.0871  0.8260
 5978TIP3   OH239424   3.095   2.484  14.227  0.0388  0.1784 -0.1086
 5978TIP3    H139425   3.071   2.526  14.144 -0.0608  0.3422  0.0008
 5978TIP3    H239426   3.019   2.431  14.249 -0.0335  0.3257 -0.0001
 5979TIP3   OH239427   0.470   5.602  13.477  0.4508  0.1771  0.3560
 5979TIP3    H139428   0.459   5.558  13.561  0.6764 -0.1217  0.2290
 5979TIP3    H239429   0.447   5.536  13.412  0.3604  0.3824  0.1799
 5980TIP3   OH239430   6.425   6.530  16.798 -0.0028 -0.1320 -0.2340
 5980TIP3    H139431   6.385   6.552  16.714 -0.1101 -2.4744 -0.8551
 5980TIP3    H239432   6.355   6.490  16.849 -0.1784  2.0327  1.3915
 5981TIP3   OH239433   1.224   4.544  10.895  0.0685  0.3947 -0.2496
 5981TIP3    H139434   1.159   4.598  10.940 -0.8437 -0.1885 -0.8385
 5981TIP3    H239435   1.296   4.604  10.877 -0.0914  0.9428  0.8363
 5982TIP3   OH239436   1.331   3.613  12.788  0.4509 -0.3531  0.1693
 5982TIP3    H139437   1.270   3.662  12.734 -0.0150  0.9428  1.8158
 5982TIP3    H239438   1.348   3.533  12.738 -0.5967  0.4073 -1.4791
 5983TIP3   OH239439   0.227   5.089  11.102 -0.3649 -0.0874  0.4039
 5983TIP3    H139440   0.254   5.086  11.010  0.7284 -2.4173  0.7182
 5983TIP3    H239441   0.301   5.130  11.147 -0.6039  0.4143  0.3475
 5984TIP3   OH239442   3.139   5.495   0.962  0.3302 -0.6092  0.0183
 5984TIP3    H139443   3.145   5.572   0.906  0.0305 -1.3324 -1.0317
 5984TIP3    H239444   3.190   5.428   0.916  0.9018 -0.9467  1.0985
 5985TIP3   OH239445   1.305   5.613  13.541 -0.0470  0.2006  0.1468
 5985TIP3    H139446   1.325   5.604  13.448  1.8127  1.0275  0.4303
 5985TIP3    H239447   1.386   5.645  13.580 -0.2704 -1.6561  2.3185
 5986TIP3   OH239448   4.060   2.160  16.329  0.1531  0.3019  0.8559
 5986TIP3    H139449   4.011   2.105  16.268  0.1597  0.6175  0.5605
 5986TIP3    H239450   4.144   2.175  16.285  0.4204 -0.0265  1.2476
 5987TIP3   OH239451   1.050   4.996   0.399  0.6002  0.0803  0.1039
 5987TIP3    H139452   1.120   4.931   0.402 -0.3145 -0.9842 -0.7666
 5987TIP3    H239453   1.033   5.017   0.491  1.1595 -0.6357  0.3749
 5988TIP3   OH239454   6.767   3.239   2.454  0.9231  0.0122  1.1263
 5988TIP3    H139455   6.720   3.322   2.451 -0.9063 -0.9954 -0.7161
 5988TIP3    H239456   6.723   3.184   2.388  2.2639 -2.3066  2.0478
 5989TIP3   OH239457   6.226   5.469  11.873  0.1497  0.4586  0.3240
 5989TIP3    H139458   6.241   5.387  11.826 -0.7683 -0.4218  1.4826
 5989TIP3    H239459   6.159   5.447  11.938 -2.4703  2.8650 -1.3216
 5990TIP3   OH239460   0.301   4.607   6.286  0.0560  0.1151  0.1013
 5990TIP3    H139461   0.305   4.536   6.350 -0.5406  0.5755  0.6621
 5990TIP3    H239462   0.385   4.653   6.296 -0.7059  1.2413  1.8212
 5991TIP3   OH239463   5.437   6.253  15.339 -0.2507  0.0320  0.4554
 5991TIP3    H139464   5.472   6.273  15.426 -1.2540 -0.8533  1.0843
 5991TIP3    H239465   5.410   6.162  15.344  1.2765 -0.5690 -1.3549
 5992TIP3   OH239466   4.033   0.931   2.491 -0.1105  0.1220  0.1736
 5992TIP3    H139467   3.989   0.863   2.542  0.7293 -0.4463  0.1584
 5992TIP3    H239468   3.990   0.927   2.405  0.6241 -1.1044 -0.1517
 5993TIP3   OH239469   5.143   5.489   3.514  0.0899  0.0540 -0.4375
 5993TIP3    H139470   5.223   5.454   3.552  0.1463 -1.5905 -1.9597
 5993TIP3    H239471   5.095   5.412   3.484 -0.6884  1.1555 -2.1779
 5994TIP3   OH239472   4.018   6.527   4.594  0.3932 -0.6873 -0.2103
 5994TIP3    H139473   3.967   6.459   4.639  1.3098 -0.6540  0.9040
 5994TIP3    H239474   4.084   6.554   4.657 -1.1906  2.7848  0.1931
 5995TIP3   OH239475   1.399   0.200  12.343 -0.0885 -0.4797  0.0694
 5995TIP3    H139476   1.468   0.237  12.287  0.4979 -2.2604 -0.4645
 5995TIP3    H239477   1.319   0.212  12.292 -0.4864  2.7357  1.2247
 5996TIP3   OH239478   2.231   2.442   5.677 -0.1726 -0.0019  0.2779
 5996TIP3    H139479   2.144   2.421   5.712 -0.2090  0.8807  0.7533
 5996TIP3    H239480   2.239   2.537   5.690  0.3139  0.1461 -1.0227
 5997TIP3   OH239481   2.260   5.994  14.797 -0.0467 -0.1907  0.0605
 5997TIP3    H139482   2.244   5.978  14.704  0.4292 -0.5080  0.0296
 5997TIP3    H239483   2.173   6.010  14.834 -0.4203 -1.6769 -0.1335
 5998TIP3   OH239484   2.680   3.170  15.500  0.1216  1.2853 -0.2386
 5998TIP3    H139485   2.693   3.208  15.587  3.7151  1.3383 -0.6429
 5998TIP3    H239486   2.710   3.238  15.439  0.5907  0.1389 -1.3442
 5999TIP3   OH239487   4.620   2.711   6.187  0.3113  0.1948 -0.0866
 5999TIP3    H139488   4.622   2.625   6.145 -2.1162 -0.3921  0.7948
 5999TIP3    H239489   4.561   2.763   6.132  1.8899  1.4163 -0.7094
 6000TIP3   OH239490   0.563   4.279  11.048 -0.0235  0.6148 -0.1688
 6000TIP3    H139491   0.657   4.266  11.040  0.0205  0.5744  0.4336
 6000TIP3    H239492   0.529   4.194  11.076 -0.0400  1.0543  1.2096
 6001TIP3   OH239493   1.531   4.392   5.648  0.0603 -0.3907 -0.6587
 6001TIP3    H139494   1.486   4.342   5.716 -0.8154  0.7963 -0.3414
 6001TIP3    H239495   1.599   4.440   5.695  0.1761 -0.4234 -0.7919
 6002TIP3   OH239496   2.184   1.059   5.955  0.0009 -0.5304 -0.4312
 6002TIP3    H139497   2.215   0.970   5.937  1.0656 -0.2859  0.0761
 6002TIP3    H239498   2.108   1.047   6.012  0.2835 -1.1237 -0.1628
 6003TIP3   OH239499   1.977   5.324   0.444  0.1801  0.4518 -0.4423
 6003TIP3    H139500   1.945   5.334   0.355 -1.8473  1.2233  0.3191
 6003TIP3    H239501   1.915   5.263   0.485 -0.2158  1.7936  1.0342
 6004TIP3   OH239502   2.599   1.918  12.703  0.5051  0.6362 -0.1525
 6004TIP3    H139503   2.643   1.866  12.770  0.9142  1.5892  0.3304
 6004TIP3    H239504   2.512   1.934  12.738  0.0330 -0.5276 -0.7342
 6005TIP3   OH239505   1.711   4.361  11.249  0.0995 -0.7013  0.1342
 6005TIP3    H139506   1.795   4.397  11.279 -0.2516  0.2100  0.0434
 6005TIP3    H239507   1.734   4.313  11.169  0.2860  1.1581 -0.9994
 6006TIP3   OH239508   0.454   5.313  10.938 -0.1192 -0.2024  0.1773
 6006TIP3    H139509   0.411   5.396  10.956 -0.3304  0.2151 -2.0145
 6006TIP3    H239510   0.385   5.257  10.902  0.1342 -1.1706  1.1509
 6007TIP3   OH239511   1.128   6.143  13.625  0.5751  0.4973 -0.1771
 6007TIP3    H139512   1.194   6.074  13.620 -0.5892 -0.6263 -0.7781
 6007TIP3    H239513   1.168   6.218  13.582  2.5932  0.8561  2.1448
 6008TIP3   OH239514   5.521   1.297  17.076  0.3510 -0.3666  0.5123
 6008TIP3    H139515   5.593   1.360  17.079 -0.0711  0.0909  1.4295
 6008TIP3    H239516   5.443   1.348  17.099 -0.4669 -0.6269 -1.4301
 6009TIP3   OH239517   5.547   2.129  16.659 -0.5225 -0.0228  0.0114
 6009TIP3    H139518   5.509   2.154  16.743  0.1733 -0.6340  0.5185
 6009TIP3    H239519   5.636   2.163  16.662 -0.3277 -0.5075 -0.2642
 6010TIP3   OH239520   1.317   3.903  12.150 -0.2040  0.0121 -0.2281
 6010TIP3    H139521   1.356   3.866  12.229  0.3945  0.8558 -0.1137
 6010TIP3    H239522   1.233   3.939  12.179  0.1820  0.6546  0.1075
 6011TIP3   OH239523   0.078   1.759  10.605 -0.1234  0.1499  0.0867
 6011TIP3    H139524   0.172   1.771  10.622 -0.5029  2.1390  1.0416
 6011TIP3    H239525   0.066   1.665  10.604  1.6700 -0.1400  1.2146
 6012TIP3   OH239526   4.018   2.498   2.952  0.8081  0.6321 -0.1355
 6012TIP3    H139527   4.077   2.532   3.019  0.1761 -1.2696  1.5131
 6012TIP3    H239528   3.934   2.538   2.971 -0.3318 -2.6891  2.8133
 6013TIP3   OH239529   0.610   4.855   3.194 -0.4080 -0.2951 -0.0700
 6013TIP3    H139530   0.632   4.769   3.156  0.5947 -0.0140 -0.1693
 6013TIP3    H239531   0.544   4.891   3.135 -2.2922 -1.7900  1.0273
 6014TIP3   OH239532   1.921   3.697  15.122 -0.1791  0.6520 -0.1422
 6014TIP3    H139533   1.919   3.634  15.194  0.5994 -0.0842 -0.7326
 6014TIP3    H239534   1.949   3.645  15.046 -2.4598  1.0583 -1.3550
 6015TIP3   OH239535   5.285   2.499   5.870 -0.6159  0.3471 -0.3574
 6015TIP3    H139536   5.225   2.546   5.927  0.1751  1.9573 -0.7887
 6015TIP3    H239537   5.372   2.536   5.890  0.1671 -1.5174 -0.1484
 6016TIP3   OH239538   6.384   4.226   3.815 -0.5591 -0.1929  0.4921
 6016TIP3    H139539   6.363   4.153   3.875  1.1624 -0.6945  0.5325
 6016TIP3    H239540   6.388   4.185   3.729 -1.9852  0.3396  0.1412
 6017TIP3   OH239541   3.834   6.593  11.145  0.7777 -0.6374  0.3350
 6017TIP3    H139542   3.849   6.675  11.098 -1.3378 -0.2482  0.2422
 6017TIP3    H239543   3.867   6.526  11.086  1.6501  0.0749 -0.0119
 6018TIP3   OH239544   2.518   2.312  14.946  0.0389 -0.0991 -0.2130
 6018TIP3    H139545   2.501   2.402  14.971  0.1446 -0.4350  1.1026
 6018TIP3    H239546   2.465   2.259  15.006  1.0632 -0.9519 -0.0271
 6019TIP3   OH239547   6.730   0.026   5.514 -0.4631  0.4731  0.0200
 6019TIP3    H139548   6.726   0.013   5.419  0.7729 -0.1998  0.0273
 6019TIP3    H239549   6.705  -0.060   5.550 -0.3322  0.5481  0.2875
 6020TIP3   OH239550   5.685   2.377   4.070  0.3665  0.2418 -0.3312
 6020TIP3    H139551   5.623   2.318   4.113 -0.8283 -0.1157 -2.3804
 6020TIP3    H239552   5.755   2.320   4.038 -0.4484 -0.0177 -1.7246
 6021TIP3   OH239553   4.362   4.453  16.713  0.3986 -0.1495  0.8815
 6021TIP3    H139554   4.369   4.426  16.805  0.5105 -0.5585  0.7529
 6021TIP3    H239555   4.372   4.372  16.663 -0.9016 -0.1189  0.5389
 6022TIP3   OH239556   6.428   1.926  14.784 -0.1280 -0.1199 -0.2160
 6022TIP3    H139557   6.386   2.002  14.824 -2.8406 -1.0851 -1.0214
 6022TIP3    H239558   6.397   1.851  14.836  1.2176 -0.8588 -0.4190
 6023TIP3   OH239559   1.633   1.037  11.065  0.0947 -0.2207 -0.2297
 6023TIP3    H139560   1.720   1.005  11.089  0.1609  1.1129  1.4395
 6023TIP3    H239561   1.605   0.979  10.994  1.4565 -2.0161  0.6337
 6024TIP3   OH239562   0.865   2.846  11.753 -0.4306  0.0110  0.5376
 6024TIP3    H139563   0.820   2.923  11.787 -2.0513 -0.3081 -0.7269
 6024TIP3    H239564   0.918   2.814  11.826  3.2024  4.2840  0.1624
 6025TIP3   OH239565   5.994   1.267   5.572 -0.1397  0.5264 -0.0473
 6025TIP3    H139566   6.030   1.233   5.489 -1.4995  2.0136 -1.3089
 6025TIP3    H239567   6.062   1.248   5.636  1.1998 -0.2218 -1.5947
 6026TIP3   OH239568   1.021   5.524  14.881 -0.6257  0.2009  0.4954
 6026TIP3    H139569   0.991   5.612  14.899 -0.0535  0.0583  2.2896
 6026TIP3    H239570   1.069   5.498  14.959  1.8845 -0.5656 -1.1843
 6027TIP3   OH239571   4.353   6.711  16.679 -0.4078  0.5096 -0.6605
 6027TIP3    H139572   4.375   6.721  16.586 -1.1537 -0.4326 -0.9541
 6027TIP3    H239573   4.293   6.783  16.697  1.6393  2.2122 -0.2302
 6028TIP3   OH239574   6.321   2.631   5.014 -0.1455  0.5472  0.0195
 6028TIP3    H139575   6.406   2.588   5.006  0.5359  1.6060  1.1359
 6028TIP3    H239576   6.300   2.659   4.925  0.5864  0.1163 -0.2989
 6029TIP3   OH239577   4.055   2.836  11.986  0.2756  0.4491 -0.6120
 6029TIP3    H139578   4.086   2.751  12.019  2.1550  1.3753  0.1789
 6029TIP3    H239579   4.095   2.844  11.899  0.3223  0.6322 -0.5741
 6030TIP3   OH239580   6.282   2.399   5.198  0.2752 -0.2168 -0.1473
 6030TIP3    H139581   6.193   2.412   5.166  0.0115  0.1048  0.6829
 6030TIP3    H239582   6.332   2.471   5.160 -0.0378  0.1809  0.1912
 6031TIP3   OH239583   3.723   5.658   1.761 -0.3621 -0.1355 -0.0463
 6031TIP3    H139584   3.752   5.633   1.849 -0.6954 -0.4345 -0.0177
 6031TIP3    H239585   3.792   5.715   1.729 -0.1392 -0.1821  0.3348
 6032TIP3   OH239586   0.687   4.638  10.620  0.1327  0.3681  0.4327
 6032TIP3    H139587   0.709   4.643  10.527  0.4737 -0.9445  0.4214
 6032TIP3    H239588   0.710   4.549  10.645  0.0076  0.6937  1.7746
 6033TIP3   OH239589   3.837   5.655   4.363  0.2421 -0.9442 -0.1852
 6033TIP3    H139590   3.891   5.703   4.426 -0.9068  1.2647 -0.7798
 6033TIP3    H239591   3.900   5.608   4.308  1.4731  0.1590  0.2341
 6034TIP3   OH239592   3.185   4.834  17.133  0.5291 -0.1140 -0.2402
 6034TIP3    H139593   3.119   4.833  17.203  0.2950 -1.1527 -0.4615
 6034TIP3    H239594   3.134   4.838  17.052  0.7594 -0.4285 -0.3979
 6035TIP3   OH239595   5.608   3.282  10.627 -0.2370  0.7150 -0.5128
 6035TIP3    H139596   5.693   3.242  10.607 -0.5349 -1.0245  1.4307
 6035TIP3    H239597   5.567   3.295  10.541  1.2223 -0.1612 -1.3785
 6036TIP3   OH239598   0.355   3.105  13.242  0.0893 -0.1155 -0.0615
 6036TIP3    H139599   0.331   3.119  13.151  0.8810  0.1867 -0.2220
 6036TIP3    H239600   0.444   3.137  13.250  0.1311 -0.3965  0.7563
 6037TIP3   OH239601   5.038   2.330   5.262  0.0922 -0.0330  0.8232
 6037TIP3    H139602   4.999   2.362   5.181  0.6317 -1.4675 -0.0226
 6037TIP3    H239603   4.980   2.259   5.290  1.6143 -1.6666 -0.0370
 6038TIP3   OH239604   0.969   3.284  16.311  0.4693  0.3157 -0.8702
 6038TIP3    H139605   0.949   3.199  16.272 -1.6452 -0.4810  1.6631
 6038TIP3    H239606   1.061   3.276  16.338  0.2598 -1.2764 -0.4908
 6039TIP3   OH239607   6.094   5.139  17.142  0.0243  0.4780 -0.2262
 6039TIP3    H139608   6.093   5.235  17.145 -1.4598  0.5090 -0.8132
 6039TIP3    H239609   6.055   5.111  17.224  0.4990  0.3674 -0.0356
 6040TIP3   OH239610   2.336   4.001   4.611 -0.1230  0.2402  0.6280
 6040TIP3    H139611   2.241   3.996   4.626 -0.3729  1.8252 -0.1722
 6040TIP3    H239612   2.344   4.029   4.520  1.1562 -0.9837  0.3507
 6041TIP3   OH239613   1.344   2.993  16.220 -0.3095  0.8467  0.3448
 6041TIP3    H139614   1.305   3.073  16.186 -1.1151  1.0302  1.6661
 6041TIP3    H239615   1.412   2.971  16.156 -0.0818  2.5609 -0.0445
 6042TIP3   OH239616   1.738   1.003   6.092 -0.1222  0.7020  0.5501
 6042TIP3    H139617   1.757   0.958   6.174 -0.4419 -1.5207 -0.5345
 6042TIP3    H239618   1.679   1.074   6.116 -0.2193  0.0895  2.2197
 6043TIP3   OH239619   4.874   1.810   2.344 -0.0339 -0.0723 -0.3191
 6043TIP3    H139620   4.789   1.769   2.363  0.4197 -1.0211 -0.2737
 6043TIP3    H239621   4.871   1.829   2.251 -0.6087  0.6542 -0.1619
 6044TIP3   OH239622   1.067   0.577   2.683  0.0244 -0.9764 -0.3392
 6044TIP3    H139623   1.142   0.601   2.629 -1.0175  1.8207 -0.7094
 6044TIP3    H239624   1.055   0.483   2.668  1.8981 -0.9795 -2.2063
 6045TIP3   OH239625   2.523   4.448  11.760 -0.2864  0.7482 -0.2632
 6045TIP3    H139626   2.613   4.426  11.783 -0.4556  0.8974  0.5684
 6045TIP3    H239627   2.528   4.482  11.671  0.2304 -0.9361 -0.8996
 6046TIP3   OH239628   6.437   1.361  15.633  0.4339  0.3967  0.0009
 6046TIP3    H139629   6.518   1.374  15.584 -0.2386 -1.9153 -1.9086
 6046TIP3    H239630   6.376   1.425  15.596  1.4721  2.6708  1.9596
 6047TIP3   OH239631   0.646   5.469   4.675 -0.1722  0.0053 -0.4100
 6047TIP3    H139632   0.692   5.547   4.706 -0.9702  0.2456  0.1961
 6047TIP3    H239633   0.558   5.476   4.713 -0.3864 -0.9697 -0.7021
 6048TIP3   OH239634   6.557   4.601  15.729  0.0915  0.3852 -0.2096
 6048TIP3    H139635   6.469   4.598  15.692 -0.7632 -2.0491  1.7345
 6048TIP3    H239636   6.614   4.570  15.659 -0.6891  1.1432 -1.2006
 6049TIP3   OH239637   6.648   6.644  15.047 -0.5410 -0.0581 -0.5186
 6049TIP3    H139638   6.668   6.611  14.960  1.1430 -0.3720 -0.0427
 6049TIP3    H239639   6.726   6.692  15.073 -0.7609 -0.5023  1.0729
 6050TIP3   OH239640   0.906   6.686   2.547 -0.6561  0.4117  0.3728
 6050TIP3    H139641   0.995   6.678   2.583 -1.4677 -0.1507  2.4015
 6050TIP3    H239642   0.881   6.596   2.525 -1.2261  0.3686  1.1602
 6051TIP3   OH239643   2.514   0.040  17.071 -0.5697 -0.0146  0.5250
 6051TIP3    H139644   2.506   0.104  17.001  0.6960 -0.9338 -0.5173
 6051TIP3    H239645   2.592   0.066  17.120  0.3891 -1.1204 -0.3547
 6052TIP3   OH239646   4.097   0.691   3.351  0.0866  0.6879  0.2000
 6052TIP3    H139647   4.088   0.765   3.410 -0.3115  0.3217  0.6077
 6052TIP3    H239648   4.019   0.696   3.295 -1.1653 -0.6821  1.6857
 6053TIP3   OH239649   1.464   5.024   5.268 -0.2875  0.0898 -0.7069
 6053TIP3    H139650   1.519   5.024   5.190 -0.6535 -1.0763 -0.9881
 6053TIP3    H239651   1.513   5.074   5.333  1.0468 -0.8036 -0.9874
 6054TIP3   OH239652   0.470   4.942  13.234 -0.5193  0.0721 -0.1018
 6054TIP3    H139653   0.424   4.895  13.165 -0.7722 -0.6251  0.5248
 6054TIP3    H239654   0.562   4.931  13.214 -0.5939  0.1383 -0.4922
 6055TIP3   OH239655   1.096   6.007  16.583  0.1971 -0.1324 -0.2255
 6055TIP3    H139656   1.004   5.995  16.606  0.1658  0.7323  0.1455
 6055TIP3    H239657   1.144   5.947  16.640 -0.0687  0.1313  0.2798
 6056TIP3   OH239658   0.427   1.566   1.501  0.6332  0.3850  0.1269
 6056TIP3    H139659   0.410   1.624   1.575 -0.3643 -0.5465  0.6325
 6056TIP3    H239660   0.447   1.626   1.429  1.1647  1.3111  1.0196
 6057TIP3   OH239661   1.374   1.599  11.210 -0.1205  0.0536 -0.7888
 6057TIP3    H139662   1.447   1.596  11.149  1.4289  0.6372  0.9261
 6057TIP3    H239663   1.372   1.690  11.240 -1.1261 -0.1148 -0.3225
 6058TIP3   OH239664   4.154   4.838  13.131  0.6974  0.0618 -0.0132
 6058TIP3    H139665   4.062   4.834  13.156  0.4291  3.2323 -0.0666
 6058TIP3    H239666   4.202   4.819  13.212 -0.0319  0.4856  0.5262
 6059TIP3   OH239667   0.996   0.569   5.213 -0.4105  0.4319 -0.2156
 6059TIP3    H139668   0.970   0.589   5.123  0.3538 -1.3925 -0.8838
 6059TIP3    H239669   1.091   0.562   5.210 -0.4422 -0.5854  0.5026
 6060TIP3   OH239670   0.268   0.208  14.684  0.2575  0.1653  0.1484
 6060TIP3    H139671   0.355   0.240  14.704  0.3719  0.8863 -1.3574
 6060TIP3    H239672   0.217   0.286  14.662 -0.3115 -0.3762 -0.5517
 6061TIP3   OH239673   6.099   1.301   5.229 -0.2244  0.1661 -0.2845
 6061TIP3    H139674   6.172   1.294   5.291 -2.1223 -0.3873  2.0391
 6061TIP3    H239675   6.084   1.212   5.199  0.4638  0.3842 -1.3508
 6062TIP3   OH239676   1.422   4.176  12.987  0.1930 -0.2943  0.2561
 6062TIP3    H139677   1.437   4.169  12.893 -1.9166 -0.6231 -0.1149
 6062TIP3    H239678   1.408   4.086  13.016 -1.6140 -0.0228  0.3676
 6063TIP3   OH239679   1.051   0.004  13.357  0.2402 -0.5592  0.2776
 6063TIP3    H139680   0.964   0.036  13.334  0.7002 -0.1411 -0.9860
 6063TIP3    H239681   1.106   0.083  13.355  0.7306 -0.8863  0.6487
 6064TIP3   OH239682   0.211   4.997   1.422  0.2313 -0.6970 -0.5740
 6064TIP3    H139683   0.194   4.905   1.442 -0.1021 -0.2647  1.2612
 6064TIP3    H239684   0.287   4.995   1.363  0.4051 -2.1292 -0.3415
 6065TIP3   OH239685   2.640   3.320  16.666 -0.3060  0.1976 -0.0131
 6065TIP3    H139686   2.578   3.267  16.616 -0.3002 -0.8126  1.0038
 6065TIP3    H239687   2.607   3.410  16.659  0.1699  0.2756 -2.5163
 6066TIP3   OH239688   4.480   0.926   1.286  0.1005 -0.5946  0.2057
 6066TIP3    H139689   4.434   0.943   1.368  0.4701 -1.9064  0.7146
 6066TIP3    H239690   4.533   1.004   1.271 -0.4705 -0.0716  0.8710
 6067TIP3   OH239691   1.202   2.218   4.694 -0.5637  0.2011 -0.8325
 6067TIP3    H139692   1.176   2.243   4.783 -2.0312 -0.3508 -1.0829
 6067TIP3    H239693   1.286   2.262   4.681 -0.6604  0.8642  0.5651
 6068TIP3   OH239694   2.149   6.353   4.295  0.0784  0.1292  0.7932
 6068TIP3    H139695   2.062   6.391   4.303 -1.0567 -1.9794 -0.6273
 6068TIP3    H239696   2.173   6.365   4.203 -0.1394 -2.0927  0.4046
 6069TIP3   OH239697   4.055   3.760   0.639  0.1564 -0.5572  0.6301
 6069TIP3    H139698   4.005   3.808   0.705  0.0699 -1.9145  1.5951
 6069TIP3    H239699   3.992   3.741   0.570  0.4989  1.8355 -0.4422
 6070TIP3   OH239700   2.755   4.994   1.214 -0.1453  0.0260 -0.1890
 6070TIP3    H139701   2.711   5.053   1.274  1.5152 -0.9616  2.1593
 6070TIP3    H239702   2.849   5.006   1.231  0.4016 -0.5518 -2.3753
 6071TIP3   OH239703   5.953   1.445   1.977 -0.7450  0.1785  0.1628
 6071TIP3    H139704   5.962   1.533   2.013 -0.0134 -0.2846  1.1407
 6071TIP3    H239705   5.984   1.387   2.046 -1.3643 -0.8693 -0.4069
 6072TIP3   OH239706   4.095   4.404   3.977 -0.0822 -0.1812 -0.5748
 6072TIP3    H139707   4.091   4.358   4.061 -0.8894  0.9576  0.0414
 6072TIP3    H239708   4.013   4.381   3.933  0.8788 -1.7636 -1.6212
 6073TIP3   OH239709   3.973   6.553   2.174  0.3159  0.4336  0.1183
 6073TIP3    H139710   4.003   6.541   2.084 -1.6294  1.7757 -0.7949
 6073TIP3    H239711   3.992   6.645   2.195 -1.6333  0.9047  0.0335
 6074TIP3   OH239712   3.469   4.573  14.376 -0.4614 -0.5740  0.2517
 6074TIP3    H139713   3.525   4.530  14.311 -0.8429  1.6267 -1.6761
 6074TIP3    H239714   3.512   4.555  14.460  2.0096 -0.6898 -0.9348
 6075TIP3   OH239715   4.304   4.838   4.830 -0.1392 -0.2243  0.2179
 6075TIP3    H139716   4.307   4.913   4.771 -0.4510  0.5299  1.1225
 6075TIP3    H239717   4.214   4.838   4.864  1.0350  2.0376  3.9574
 6076TIP3   OH239718   4.273   2.449  12.295  0.2561  0.2691 -0.2535
 6076TIP3    H139719   4.354   2.444  12.245  1.9494  0.5590  2.2785
 6076TIP3    H239720   4.294   2.505  12.370 -2.2416  0.1856  0.6146
 6077TIP3   OH239721   3.250   0.357  12.809  0.4515 -0.3655  0.0097
 6077TIP3    H139722   3.338   0.388  12.787  0.1735 -0.8233 -1.9239
 6077TIP3    H239723   3.196   0.383  12.735 -1.1709  0.3023  1.3753
 6078TIP3   OH239724   4.383   2.840  12.115 -0.4381 -0.1259  0.0258
 6078TIP3    H139725   4.467   2.861  12.075 -0.4244  2.9846  1.3457
 6078TIP3    H239726   4.330   2.805  12.043  0.9629  1.0179 -1.6470
 6079TIP3   OH239727   2.390   3.122  12.093 -0.1859 -0.2100  0.0807
 6079TIP3    H139728   2.437   3.051  12.137 -2.4068 -1.1192  1.1321
 6079TIP3    H239729   2.379   3.189  12.161  2.2814  1.4247 -1.0205
 6080TIP3   OH239730   2.265   1.742  13.278 -0.0497  0.4684 -0.0913
 6080TIP3    H139731   2.294   1.661  13.236  0.1824  1.6329 -2.2947
 6080TIP3    H239732   2.345   1.791  13.294 -0.1905  0.3071  1.2652
 6081TIP3   OH239733   2.350   6.556   4.722  0.2477  0.6247  0.0616
 6081TIP3    H139734   2.386   6.627   4.776  0.1495  0.1293  0.7927
 6081TIP3    H239735   2.356   6.589   4.632  0.2836  1.5230  0.3801
 6082TIP3   OH239736   4.174   0.548   5.943 -0.1885  0.5664  0.1532
 6082TIP3    H139737   4.235   0.515   6.009 -0.0201  2.1825  0.8693
 6082TIP3    H239738   4.092   0.562   5.990 -0.9513 -0.9361 -0.6505
 6083TIP3   OH239739   4.684   1.888   4.521 -0.4941  0.0617 -0.4061
 6083TIP3    H139740   4.679   1.976   4.484  0.9777  0.1027 -0.5621
 6083TIP3    H239741   4.740   1.897   4.598  0.4479 -0.8869 -0.9563
 6084TIP3   OH239742   6.329   2.627  16.028  0.5254  0.0741  0.5149
 6084TIP3    H139743   6.406   2.602  16.079 -0.2594 -2.7613  0.4339
 6084TIP3    H239744   6.274   2.677  16.090  1.1981 -0.2198  1.3623
 6085TIP3   OH239745   1.273   0.137   4.264 -0.2771  0.6340  0.2466
 6085TIP3    H139746   1.192   0.101   4.299 -0.9604  1.1276 -0.7825
 6085TIP3    H239747   1.247   0.222   4.228  0.3892  0.1692 -1.4099
 6086TIP3   OH239748   5.380   6.346  15.081 -0.3213 -0.1908 -0.5171
 6086TIP3    H139749   5.396   6.321  15.172  1.0502  1.1909 -0.3247
 6086TIP3    H239750   5.306   6.407  15.086  0.8015  1.2078 -0.0497
 6087TIP3   OH239751   3.015   5.306  16.321  0.4617  0.5204 -0.2790
 6087TIP3    H139752   3.004   5.357  16.401 -1.9792  0.3676 -0.4239
 6087TIP3    H239753   3.072   5.359  16.266  1.4974  1.0253  1.2168
 6088TIP3   OH239754   0.112   2.326   2.669 -0.2612 -0.3454  0.4235
 6088TIP3    H139755   0.089   2.418   2.669 -0.9407 -0.4816 -1.4855
 6088TIP3    H239756   0.107   2.299   2.577 -0.5429 -2.3976  0.9779
 6089TIP3   OH239757   4.770   4.160   0.135 -1.2461 -0.4881  0.6789
 6089TIP3    H139758   4.864   4.146   0.147 -0.4375  1.5522 -2.2423
 6089TIP3    H239759   4.744   4.217   0.207  0.2881  0.6727  0.3466
 6090TIP3   OH239760   1.247   3.300   2.627  0.2354  0.3482  0.1944
 6090TIP3    H139761   1.302   3.283   2.704 -0.1651  0.7841  0.5817
 6090TIP3    H239762   1.161   3.319   2.663  0.1503  1.0093 -0.3339
 6091TIP3   OH239763   3.641   0.169  15.638 -0.3418  0.2756  0.3909
 6091TIP3    H139764   3.680   0.256  15.648 -0.9107  0.4343  1.3240
 6091TIP3    H239765   3.643   0.132  15.726 -0.8958 -0.3183  0.1574
 6092TIP3   OH239766   5.482   2.225  11.204  0.0127 -0.8870 -0.2371
 6092TIP3    H139767   5.572   2.227  11.237  0.0272 -1.9789 -0.1596
 6092TIP3    H239768   5.465   2.314  11.174  0.2946 -0.0428  1.9231
 6093TIP3   OH239769   3.596   0.212  11.170 -0.7979 -0.3794 -0.6211
 6093TIP3    H139770   3.555   0.138  11.214  0.2507 -2.0363 -2.2710
 6093TIP3    H239771   3.525   0.274  11.157 -1.6110 -0.8581  1.2164
 6094TIP3   OH239772   6.748   4.350  15.735 -0.2885 -0.3418 -0.6289
 6094TIP3    H139773   6.808   4.305  15.794  0.9440 -0.0181 -1.6020
 6094TIP3    H239774   6.671   4.293  15.731 -0.1138 -0.7135  0.7133
 6095TIP3   OH239775   1.841   3.776  14.282 -0.2761  0.2617  0.2605
 6095TIP3    H139776   1.771   3.728  14.238 -0.4904  0.8656 -0.0606
 6095TIP3    H239777   1.895   3.708  14.322 -2.2108 -0.2061  2.3336
 6096TIP3   OH239778   1.291   1.978   6.210  0.3776  0.1770 -0.2652
 6096TIP3    H139779   1.300   2.025   6.127  2.7247  1.7373  0.7802
 6096TIP3    H239780   1.313   2.042   6.277 -0.2006 -1.3839  1.5026
 6097TIP3   OH239781   1.980   4.732   0.648 -0.1513 -0.3136  0.7893
 6097TIP3    H139782   2.053   4.792   0.633  0.7727 -1.5594  0.1629
 6097TIP3    H239783   1.908   4.789   0.677  0.7872  1.0445  0.5476
 6098TIP3   OH239784   3.805   0.416  13.363  0.3427  0.0966 -0.4388
 6098TIP3    H139785   3.773   0.444  13.277  0.5581 -0.0740 -0.5739
 6098TIP3    H239786   3.775   0.484  13.423  1.8677  1.2621 -0.9277
 6099TIP3   OH239787   5.051   1.328   2.966  0.1926  0.0217  0.0003
 6099TIP3    H139788   5.122   1.390   2.985 -2.0211  2.6766  0.2214
 6099TIP3    H239789   5.024   1.295   3.051  1.2196 -1.1906 -0.1016
 6100TIP3   OH239790   4.351   4.939  12.522  0.1970  0.0816 -0.1257
 6100TIP3    H139791   4.377   4.952  12.613  2.6563  1.5026 -0.9390
 6100TIP3    H239792   4.255   4.940  12.524  0.1644 -0.6604  2.5029
 6101TIP3   OH239793   5.248   4.961  15.303  0.1904 -0.1880 -0.0924
 6101TIP3    H139794   5.290   4.938  15.221  0.5638 -2.1209  0.6029
 6101TIP3    H239795   5.207   5.046  15.286 -0.0491 -0.7075 -2.3692
 6102TIP3   OH239796   4.360   1.733   5.296 -0.2231  0.4445 -0.0736
 6102TIP3    H139797   4.281   1.681   5.311 -0.8400  1.3355 -0.1246
 6102TIP3    H239798   4.423   1.672   5.258 -1.6055  0.1752 -2.0675
 6103TIP3   OH239799   2.464   6.050   2.260 -0.0592 -0.0214  0.4925
 6103TIP3    H139800   2.376   6.080   2.286 -0.6754 -2.2144  1.1808
 6103TIP3    H239801   2.478   5.971   2.311  1.8546 -0.3875 -0.5077
 6104TIP3   OH239802   1.564   2.726  13.614 -0.4133  0.0767  0.5463
 6104TIP3    H139803   1.614   2.769  13.545 -1.1884 -3.2920 -2.4278
 6104TIP3    H239804   1.625   2.661  13.651 -1.2928 -1.2213 -0.2114
 6105TIP3   OH239805   4.081   0.944  12.160 -0.5892  0.3521  0.3451
 6105TIP3    H139806   3.988   0.967  12.167 -1.2186 -1.4776 -1.2151
 6105TIP3    H239807   4.103   0.960  12.069  0.1523 -0.9013  0.2919
 6106TIP3   OH239808   0.280   2.953   2.581 -0.5559  1.0374 -0.3205
 6106TIP3    H139809   0.243   2.895   2.514 -1.2210 -1.9145  2.3075
 6106TIP3    H239810   0.217   3.025   2.588 -2.6866 -0.7236 -0.1431
 6107TIP3   OH239811   2.538   4.896   0.710 -0.1951  0.2921  0.0069
 6107TIP3    H139812   2.587   4.872   0.789 -0.5205  0.6146  0.3050
 6107TIP3    H239813   2.494   4.815   0.684  0.9277 -0.1553 -0.5840
 6108TIP3   OH239814   3.061   3.389   1.209  0.1257 -0.2403  0.4992
 6108TIP3    H139815   3.035   3.332   1.137  3.0718  0.4162 -1.2397
 6108TIP3    H239816   3.027   3.475   1.184  0.5490 -0.1464  0.2466
 6109TIP3   OH239817   4.570   1.020   6.371  0.8813  0.5930 -0.0919
 6109TIP3    H139818   4.632   1.093   6.372  1.6092 -0.0132  0.6816
 6109TIP3    H239819   4.622   0.945   6.345  0.0396  0.4101 -1.3101
 6110TIP3   OH239820   3.957   5.132   5.326 -0.6065  0.0087  0.3648
 6110TIP3    H139821   3.908   5.213   5.314 -0.4877 -0.0178 -0.3295
 6110TIP3    H239822   3.899   5.077   5.379 -1.4103 -0.0728 -0.5482
 6111TIP3   OH239823   1.878   0.635  14.302 -0.0938  0.2771  0.5580
 6111TIP3    H139824   1.932   0.711  14.278  0.2887 -0.0040  0.5207
 6111TIP3    H239825   1.938   0.578  14.350 -0.1972 -0.3108 -0.0069
 6112TIP3   OH239826   5.887   6.779  13.275 -0.1184 -0.2885  0.1679
 6112TIP3    H139827   5.972   6.819  13.293 -0.8356  1.3594  0.0347
 6112TIP3    H239828   5.855   6.824  13.197 -0.8113 -1.4126 -0.2309
 6113TIP3   OH239829   6.086   1.899   4.644  0.2847  0.4480 -0.1884
 6113TIP3    H139830   6.150   1.968   4.632  1.4345 -0.4027  0.7935
 6113TIP3    H239831   6.134   1.818   4.624 -0.4718 -0.2016  0.5448
 6114TIP3   OH239832   3.913   6.617   0.427 -0.4416 -0.3063 -0.1958
 6114TIP3    H139833   3.944   6.529   0.444  0.2806 -0.1340 -0.6020
 6114TIP3    H239834   3.967   6.649   0.354 -2.3699 -0.4578 -1.7952
 6115TIP3   OH239835   6.094   5.993  13.760  0.6356 -0.3286  0.2433
 6115TIP3    H139836   6.059   6.070  13.805  0.2372 -1.4499  1.9429
 6115TIP3    H239837   6.046   5.990  13.677 -1.9692 -0.7185  1.6754
 6116TIP3   OH239838   6.144   0.148   3.864 -0.6307  0.1576 -0.0439
 6116TIP3    H139839   6.100   0.224   3.827 -2.1677 -0.5627  0.2280
 6116TIP3    H239840   6.096   0.130   3.945 -0.5769 -1.3579 -0.3221
 6117TIP3   OH239841   5.409   1.522  11.742 -0.3367 -0.5423 -0.0290
 6117TIP3    H139842   5.355   1.556  11.671  1.8647  1.5541 -0.8550
 6117TIP3    H239843   5.477   1.470  11.698  1.7477  1.7233  0.2550
 6118TIP3   OH239844   0.724   1.387  14.178  0.6560 -0.1227  0.0598
 6118TIP3    H139845   0.648   1.434  14.143  0.4245 -0.9526 -0.5713
 6118TIP3    H239846   0.739   1.428  14.263 -0.8418 -0.2845  0.4441
 6119TIP3   OH239847   1.141   3.599  12.342  0.3704 -0.3874 -0.1056
 6119TIP3    H139848   1.079   3.526  12.341  0.0845 -0.1965  1.3797
 6119TIP3    H239849   1.103   3.663  12.281  0.2303 -1.1397 -0.8347
 6120TIP3   OH239850   6.172   1.384  16.453  0.1006 -0.0930 -0.7357
 6120TIP3    H139851   6.252   1.346  16.491 -0.2540 -2.0345 -1.7805
 6120TIP3    H239852   6.102   1.354  16.511 -0.1649 -0.9096 -1.4623
 6121TIP3   OH239853   5.032   4.742  11.725  0.1237 -0.2748  0.2452
 6121TIP3    H139854   5.102   4.776  11.670  0.6731 -0.6635  0.6880
 6121TIP3    H239855   5.015   4.812  11.788  0.9832 -0.6437  0.9110
 6122TIP3   OH239856   1.365   5.405   6.172  0.2716  0.1147  0.2477
 6122TIP3    H139857   1.359   5.440   6.261  0.3859  0.4643  0.1198
 6122TIP3    H239858   1.278   5.421   6.135  0.4357  0.6121  0.0648
 6123TIP3   OH239859   2.045   2.352   2.586 -0.6303 -0.0705  0.4577
 6123TIP3    H139860   2.013   2.442   2.594  1.4588  0.8356 -0.4477
 6123TIP3    H239861   1.971   2.303   2.550 -1.5694  1.4731  0.1832
 6124TIP3   OH239862   2.244   3.414   1.176  0.2826 -0.3097  0.4161
 6124TIP3    H139863   2.183   3.488   1.169 -1.2389 -1.4409  1.2703
 6124TIP3    H239864   2.321   3.451   1.220  0.6518  1.3658 -1.5049
 6125TIP3   OH239865   2.470   0.348   0.776 -0.0900  0.0842  0.0992
 6125TIP3    H139866   2.451   0.267   0.825 -0.6997 -0.1124 -0.4417
 6125TIP3    H239867   2.399   0.408   0.801 -1.3362 -0.5534 -1.7123
 6126TIP3   OH239868   3.134   4.571  15.718 -0.4445 -0.1023  0.1520
 6126TIP3    H139869   3.053   4.528  15.688  0.3147 -1.1070 -0.5362
 6126TIP3    H239870   3.198   4.500  15.721 -0.0528  0.2508  2.6536
 6127TIP3   OH239871   4.172   6.683   3.698  0.0242  0.4800 -0.2066
 6127TIP3    H139872   4.203   6.626   3.769  0.5106 -3.3672 -3.2011
 6127TIP3    H239873   4.088   6.644   3.671  1.5444 -0.6053 -3.9800
 6128TIP3   OH239874   1.783   3.492   0.687  0.2648 -0.0965  0.3707
 6128TIP3    H139875   1.875   3.512   0.706  0.4533 -1.6949  1.3391
 6128TIP3    H239876   1.734   3.562   0.729  1.0464  1.2523 -0.8733
 6129TIP3   OH239877   5.063   3.898   0.817 -0.2798 -0.9871  0.2145
 6129TIP3    H139878   5.044   3.946   0.736 -0.0033 -1.3343 -0.0600
 6129TIP3    H239879   5.033   3.956   0.887 -0.0871 -0.4780 -0.1188
 6130TIP3   OH239880   1.767   4.838   2.961  0.3447 -0.4007  0.3164
 6130TIP3    H139881   1.676   4.845   2.930  0.9098 -1.4638 -1.7831
 6130TIP3    H239882   1.775   4.748   2.992  0.8848 -0.5871 -0.3274
 6131TIP3   OH239883   6.617   1.055  16.805  0.2326  0.2550  0.6275
 6131TIP3    H139884   6.703   1.016  16.820  0.8065  0.8003 -1.0453
 6131TIP3    H239885   6.599   1.103  16.885  2.2563  1.4905  0.4178
 6132TIP3   OH239886   4.119   1.747   3.835 -0.1260 -0.3391  0.8378
 6132TIP3    H139887   4.046   1.698   3.798 -2.4466  3.1002  0.4644
 6132TIP3    H239888   4.134   1.707   3.921 -1.0540 -2.3575  0.1232
 6133TIP3   OH239889   0.335   6.565   2.688  0.4319  0.3247  0.0866
 6133TIP3    H139890   0.384   6.541   2.609 -0.5183 -2.0180  0.1330
 6133TIP3    H239891   0.308   6.656   2.672 -0.4740 -0.3209 -2.7254
 6134TIP3   OH239892   5.659   6.486   0.657  0.1470 -0.3655  0.7604
 6134TIP3    H139893   5.576   6.456   0.694  0.3307 -0.3445  1.1951
 6134TIP3    H239894   5.637   6.569   0.613 -1.0825 -2.6243 -3.4159
 6135TIP3   OH239895   5.668   0.818  13.825  0.4711  0.4477  0.4393
 6135TIP3    H139896   5.578   0.818  13.793 -0.1411 -0.5928  2.0143
 6135TIP3    H239897   5.716   0.764  13.762 -0.1367  0.5118 -0.0863
 6136TIP3   OH239898   0.773   5.864  10.812 -0.5332  0.2275 -0.3838
 6136TIP3    H139899   0.754   5.834  10.900 -0.8100 -0.9707 -0.8283
 6136TIP3    H239900   0.792   5.784  10.763  1.0721  0.9971 -1.0709
 6137TIP3   OH239901   1.649   1.595  15.237 -0.2723 -0.1506  0.4055
 6137TIP3    H139902   1.578   1.629  15.184 -0.3430  0.3005  0.7875
 6137TIP3    H239903   1.724   1.592  15.178 -0.1608  1.0426  0.4639
 6138TIP3   OH239904   4.277   4.543   0.987  0.0386 -0.5292  0.0389
 6138TIP3    H139905   4.219   4.467   0.979 -0.6405  0.1029 -1.3303
 6138TIP3    H239906   4.338   4.535   0.914 -1.5159  1.4368 -1.5855
 6139TIP3   OH239907   5.887   1.112   2.356 -0.6350 -0.2763 -0.0020
 6139TIP3    H139908   5.808   1.073   2.393 -0.2123 -1.8110 -0.6662
 6139TIP3    H239909   5.949   1.114   2.429 -0.8453 -0.3041  0.1777
 6140TIP3   OH239910   4.822   0.081  15.876  0.1415  0.1835 -0.2961
 6140TIP3    H139911   4.850  -0.001  15.917  0.6132  0.1282 -0.7237
 6140TIP3    H239912   4.854   0.149  15.934 -1.7048  0.0588  0.9876
 6141TIP3   OH239913   0.870   4.869  12.384  0.5195 -0.3144  0.5220
 6141TIP3    H139914   0.801   4.878  12.449  1.6140 -2.4655  2.1063
 6141TIP3    H239915   0.833   4.812  12.317 -0.0059  0.4826  0.1091
 6142TIP3   OH239916   3.620   6.467   4.455 -0.3107  0.0988  0.4918
 6142TIP3    H139917   3.598   6.549   4.411  0.0506  0.4015  0.8631
 6142TIP3    H239918   3.575   6.399   4.404 -3.0302  0.7670  1.8133
 6143TIP3   OH239919   4.820   6.327   5.627 -0.0957 -0.3038 -0.0347
 6143TIP3    H139920   4.897   6.317   5.683 -1.1783 -1.4756  1.3566
 6143TIP3    H239921   4.769   6.397   5.667 -1.8814 -2.4917  1.8322
 6144TIP3   OH239922   1.028   3.922   2.689  0.2909  0.5035  0.1172
 6144TIP3    H139923   1.026   3.830   2.717  0.5289  0.3971 -0.2013
 6144TIP3    H239924   0.943   3.936   2.647  0.6361  0.1292 -0.7364
 6145TIP3   OH239925   5.013   5.036   3.401  0.3578  0.4490  0.1988
 6145TIP3    H139926   4.937   5.069   3.354  0.8754  2.6190  0.7688
 6145TIP3    H239927   4.978   5.006   3.485 -0.1127 -0.5101 -0.3133
 6146TIP3   OH239928   2.238   3.266  10.908 -0.2858 -0.0456  0.1993
 6146TIP3    H139929   2.283   3.200  10.856 -1.1792 -0.7771  0.3178
 6146TIP3    H239930   2.244   3.346  10.855  1.6823  0.0655  0.5191
 6147TIP3   OH239931   1.602   4.643   1.026 -0.3722  0.0844  0.3312
 6147TIP3    H139932   1.521   4.655   1.075 -1.7655  0.5138 -1.9528
 6147TIP3    H239933   1.577   4.595   0.947  1.7027 -0.2869 -0.1756
 6148TIP3   OH239934   3.281   1.195   4.779  0.2577 -0.5529 -0.5582
 6148TIP3    H139935   3.318   1.107   4.774  0.4753 -0.4742 -0.3873
 6148TIP3    H239936   3.297   1.223   4.870  0.9869 -0.0003 -0.8463
 6149TIP3   OH239937   5.803   2.282  12.343  0.6696 -0.3794 -0.0300
 6149TIP3    H139938   5.779   2.189  12.343  2.9918 -1.0499  0.6134
 6149TIP3    H239939   5.832   2.299  12.432  1.5691  0.5692 -0.4838
 6150TIP3   OH239940   3.280   0.126   5.650  0.8619 -0.0618 -0.1915
 6150TIP3    H139941   3.238   0.107   5.566  1.4023  0.4366 -0.5818
 6150TIP3    H239942   3.217   0.095   5.716 -0.1744  0.7398 -0.7623
 6151TIP3   OH239943   1.377   1.569   4.484 -0.4148 -0.1112 -0.3281
 6151TIP3    H139944   1.412   1.567   4.395  0.7173  0.1617  0.0958
 6151TIP3    H239945   1.452   1.593   4.538 -1.7931  3.1148  0.3384
 6152TIP3   OH239946   1.624   1.545   4.634 -0.5603 -0.2505 -0.5150
 6152TIP3    H139947   1.588   1.510   4.716  2.7992 -0.5237  1.0407
 6152TIP3    H239948   1.664   1.470   4.592  0.1893  0.3844 -0.9629
 6153TIP3   OH239949   4.726   4.600   4.108 -0.1960  0.2370 -0.0646
 6153TIP3    H139950   4.745   4.690   4.081 -1.0723  0.3607 -0.2740
 6153TIP3    H239951   4.722   4.604   4.204  1.6803  0.0346  0.0622
 6154TIP3   OH239952   5.643   2.284   5.815  0.1615  0.0120 -0.3774
 6154TIP3    H139953   5.637   2.373   5.850  0.9332 -0.0404 -0.0884
 6154TIP3    H239954   5.734   2.259   5.830 -0.1708 -1.0205 -0.0073
 6155TIP3   OH239955   1.227   2.944  16.716  0.2144  0.5196  0.9571
 6155TIP3    H139956   1.153   2.918  16.771  1.1087  0.1132  2.0095
 6155TIP3    H239957   1.251   2.864  16.669 -0.4445  0.8273  0.0501
 6156TIP3   OH239958   1.956   0.987   0.632 -0.3477 -0.1683 -0.0715
 6156TIP3    H139959   1.938   1.026   0.718  3.6576  2.1605 -0.0296
 6156TIP3    H239960   1.945   1.059   0.570  0.8641 -0.6881 -0.9316
 6157TIP3   OH239961   0.062   5.708   1.161  0.7591 -0.4090  0.3447
 6157TIP3    H139962   0.152   5.724   1.189  0.4857  1.6273  0.2547
 6157TIP3    H239963   0.013   5.700   1.243  0.5745  1.6411  0.4886
 6158TIP3   OH239964   3.557   3.881   4.693  0.2205  0.0537 -0.2488
 6158TIP3    H139965   3.609   3.838   4.625 -0.9962 -0.5207 -0.8363
 6158TIP3    H239966   3.571   3.974   4.678  2.8991 -0.0400  1.0499
 6159TIP3   OH239967   6.734   4.826   2.145 -0.1300 -0.2672  0.1151
 6159TIP3    H139968   6.733   4.739   2.103  0.3755 -1.0885  1.7239
 6159TIP3    H239969   6.791   4.815   2.221 -0.4884  1.3570  0.6509
 6160TIP3   OH239970   0.893   5.304   4.692 -0.0376 -0.3254  0.5108
 6160TIP3    H139971   0.831   5.376   4.678  0.1716  0.1598  1.8709
 6160TIP3    H239972   0.970   5.327   4.640  0.1213  0.5734  1.1223
 6161TIP3   OH239973   3.194   0.688   0.338 -0.2174  0.9118  0.1447
 6161TIP3    H139974   3.245   0.607   0.339  0.6599  1.4463 -0.0164
 6161TIP3    H239975   3.123   0.671   0.277  1.9137  1.3595 -2.7040
 6162TIP3   OH239976   5.344   5.632  13.583 -0.1378  0.1611  0.2460
 6162TIP3    H139977   5.307   5.627  13.672  0.3290 -0.4413  0.4137
 6162TIP3    H239978   5.331   5.723  13.557 -1.9505 -0.0814  0.2024
 6163TIP3   OH239979   4.248   6.115   0.752 -0.3409  0.3051 -0.2457
 6163TIP3    H139980   4.261   6.123   0.847 -2.7707  0.5613  0.1306
 6163TIP3    H239981   4.227   6.022   0.739  0.5947  0.1384 -0.6483
 6164TIP3   OH239982   1.136   0.238  14.472  0.0553 -0.2469 -0.3641
 6164TIP3    H139983   1.195   0.169  14.441 -1.3112 -1.1191 -1.1175
 6164TIP3    H239984   1.133   0.227  14.567  2.2065  0.7485 -0.1171
 6165TIP3   OH239985   4.902   0.058   3.295 -0.1497 -0.5724  0.2132
 6165TIP3    H139986   4.908   0.016   3.209 -0.3891  0.4768 -0.3328
 6165TIP3    H239987   4.967   0.129   3.292  0.3728 -0.9794  1.1840
 6166TIP3   OH239988   0.878   2.317  14.563  0.1122 -0.4149  1.1458
 6166TIP3    H139989   0.892   2.360  14.647  0.7390  0.4256  0.6323
 6166TIP3    H239990   0.783   2.306  14.558 -0.0897  1.0595  1.2446
 6167TIP3   OH239991   5.582   3.965  11.337  0.2684  0.6966 -0.0260
 6167TIP3    H139992   5.666   3.919  11.332  0.3165  0.6605  0.9890
 6167TIP3    H239993   5.540   3.948  11.252  0.8693 -0.0948 -0.1700
 6168TIP3   OH239994   5.753   6.141  16.226 -0.1794  0.4506 -0.1125
 6168TIP3    H139995   5.816   6.069  16.233  0.6995  1.2883  1.0869
 6168TIP3    H239996   5.670   6.103  16.254 -0.6190 -1.0620 -3.0771
 6169TIP3   OH239997   0.372   4.908   1.226  0.0612  0.2203 -0.1364
 6169TIP3    H139998   0.327   4.884   1.146  1.2466 -0.3637 -0.6585
 6169TIP3    H239999   0.458   4.939   1.197  0.0406  1.2502  0.8262
 6170TIP3   OH240000   1.161   5.540   2.217  0.3619  0.1302  0.7736
 6170TIP3    H140001   1.102   5.498   2.155 -0.2308 -1.6183  2.4318
 6170TIP3    H240002   1.145   5.634   2.206  0.2115 -0.1090 -1.5960
 6171TIP3   OH240003   5.395   6.432   5.621 -0.1782  0.0989 -0.0282
 6171TIP3    H140004   5.413   6.502   5.684 -0.7451  0.4694 -0.2742
 6171TIP3    H240005   5.482   6.408   5.587  0.1105  0.0365  0.7375
 6172TIP3   OH240006   6.704   5.698   0.169 -0.3817  0.3832 -0.2418
 6172TIP3    H140007   6.695   5.661   0.257  0.7033 -0.7266 -0.5544
 6172TIP3    H240008   6.715   5.621   0.113  0.4680  1.1266 -1.1323
 6173TIP3   OH240009   0.944   3.865   4.066  0.3730 -0.1133  0.6638
 6173TIP3    H140010   1.033   3.839   4.091  0.7027 -0.4369 -0.7786
 6173TIP3    H240011   0.892   3.786   4.079  0.2509  0.1039  1.6067
 6174TIP3   OH240012   0.964   6.092  11.498 -0.3661  0.0158  0.0345
 6174TIP3    H140013   0.975   6.187  11.509  0.0256 -0.0370  0.1208
 6174TIP3    H240014   0.870   6.078  11.500 -0.3907  0.2956  0.8822
 6175TIP3   OH240015   5.422   6.080   5.240  0.2288  0.1956 -0.1448
 6175TIP3    H140016   5.360   6.009   5.222 -1.4350  1.1334  1.4628
 6175TIP3    H240017   5.485   6.041   5.300 -1.0715  0.1647  1.2883
 6176TIP3   OH240018   2.351   5.000   2.593  0.0490 -0.3799  0.4139
 6176TIP3    H140019   2.351   5.088   2.556  1.2263 -1.2421 -1.8612
 6176TIP3    H240020   2.442   4.981   2.612  0.0802 -1.7553 -0.9310
 6177TIP3   OH240021   3.981   2.045   0.395  0.2486 -0.3239  0.1935
 6177TIP3    H140022   4.005   2.119   0.451 -1.8387 -0.1858  1.0024
 6177TIP3    H240023   3.925   2.083   0.328 -0.1408 -1.0525  0.1015
 6178TIP3   OH240024   6.369   0.052  13.955 -0.4274 -0.2747 -0.0230
 6178TIP3    H140025   6.434   0.115  13.983 -0.5096  0.2565 -0.9661
 6178TIP3    H240026   6.285   0.089  13.984 -0.4344 -0.1877 -0.1527
 6179TIP3   OH240027   6.622   6.794   2.027 -0.0574  0.7452 -0.2812
 6179TIP3    H140028   6.702   6.771   1.980 -0.2549  0.5230 -0.5118
 6179TIP3    H240029   6.653   6.841   2.105  0.2852  0.8553 -0.4795
 6180TIP3   OH240030   0.175   0.193  12.939  0.4485  0.0076  0.0035
 6180TIP3    H140031   0.144   0.141  12.865  1.8841 -1.5558  0.4334
 6180TIP3    H240032   0.193   0.279  12.901 -1.2376  0.0076 -0.8955
 6181TIP3   OH240033   3.124   6.405   0.153  0.0331 -0.2551  0.3103
 6181TIP3    H140034   3.188   6.413   0.224 -0.2010 -0.1047  0.5062
 6181TIP3    H240035   3.061   6.475   0.169 -0.4970 -0.7481  0.4501
 6182TIP3   OH240036   4.356   4.140   4.232 -0.0525 -0.0005  0.7369
 6182TIP3    H140037   4.420   4.180   4.173  0.3224  0.6647  1.5644
 6182TIP3    H240038   4.371   4.046   4.223  2.6794  0.1268  2.5876
 6183TIP3   OH240039   6.507   4.191  15.726  0.2587  0.0239 -0.0338
 6183TIP3    H140040   6.438   4.252  15.701  1.7888  1.7851 -0.1764
 6183TIP3    H240041   6.502   4.120  15.662 -0.0923  1.1653 -1.2951
 6184TIP3   OH240042   4.392   3.150  15.739  0.2687  0.1319 -0.7374
 6184TIP3    H140043   4.328   3.163  15.809 -1.0545 -1.5820 -1.5639
 6184TIP3    H240044   4.378   3.060  15.710  1.3323  0.5446 -2.6866
 6185TIP3   OH240045   6.401   2.432   3.877 -0.5601  0.5905  0.0348
 6185TIP3    H140046   6.477   2.488   3.860 -0.3015 -0.0938 -1.2144
 6185TIP3    H240047   6.330   2.494   3.895 -0.1598  1.3220 -0.7964
 6186TIP3   OH240048   2.134   6.813   4.637  0.0286 -0.1395 -0.3804
 6186TIP3    H140049   2.198   6.766   4.584  1.8523  0.9542  0.7311
 6186TIP3    H240050   2.104   6.749   4.701  2.2726  0.0124  0.9423
 6187TIP3   OH240051   2.721   1.038  12.154 -0.0698  0.2016 -0.2356
 6187TIP3    H140052   2.805   1.077  12.130 -0.0215  1.6131  1.9326
 6187TIP3    H240053   2.665   1.053  12.077  0.8329  1.9255 -0.6163
 6188TIP3   OH240054   2.983   1.223  14.244 -0.1190 -0.7055  0.1891
 6188TIP3    H140055   2.906   1.231  14.301 -0.3363  0.7711 -0.2783
 6188TIP3    H240056   2.995   1.310  14.207  1.5762 -1.0105 -0.0451
 6189TIP3   OH240057   6.018   1.546   5.387 -0.3210  0.0287  0.5778
 6189TIP3    H140058   6.097   1.538   5.441 -0.4969  1.6624  1.1185
 6189TIP3    H240059   5.966   1.468   5.410  0.6209 -0.4830  1.0486
 6190TIP3   OH240060   5.272   1.458  17.077  0.0710 -0.4564  0.2561
 6190TIP3    H140061   5.315   1.527  17.127  0.7619 -1.0243  0.4739
 6190TIP3    H240062   5.227   1.503  17.006 -1.1845  0.4049  1.5393
 6191TIP3   OH240063   1.383   4.496  14.741 -0.1283  0.0440  0.5466
 6191TIP3    H140064   1.453   4.432  14.734 -0.3512 -0.1985  0.5206
 6191TIP3    H240065   1.363   4.502  14.834 -1.0013 -0.9067  0.4441
 6192TIP3   OH240066   2.973   5.686  11.716  0.6641  0.2001  0.0730
 6192TIP3    H140067   2.885   5.648  11.724  1.1625 -0.6205  2.1620
 6192TIP3    H240068   2.961   5.778  11.738  0.7876 -0.5707  3.9327
 6193TIP3   OH240069   0.728   5.617   5.440 -0.1171  0.2121 -0.0508
 6193TIP3    H140070   0.690   5.613   5.528  0.2129  0.2318  0.0957
 6193TIP3    H240071   0.822   5.603   5.454 -0.2764 -1.5427 -0.5834
 6194TIP3   OH240072   5.428   1.463  12.907 -0.3123  0.3254 -0.3355
 6194TIP3    H140073   5.415   1.444  12.814 -1.5450  0.3290 -0.1734
 6194TIP3    H240074   5.512   1.509  12.910 -0.0707 -0.0088 -1.3969
 6195TIP3   OH240075   0.176   3.103  13.495 -0.8353  0.5604  0.2724
 6195TIP3    H140076   0.229   3.079  13.419 -1.5375 -0.9982  0.2305
 6195TIP3    H240077   0.236   3.097  13.569  0.0334  2.7610 -0.1787
 6196TIP3   OH240078   1.312   4.541   3.171 -0.8330  0.2473 -0.6651
 6196TIP3    H140079   1.356   4.464   3.207  0.5636  0.5070 -1.7149
 6196TIP3    H240080   1.312   4.605   3.243 -1.1520 -0.4020 -0.0838
 6197TIP3   OH240081   0.059   4.929  11.241  0.6776  0.3311 -0.0691
 6197TIP3    H140082   0.088   4.983  11.168  2.2037 -2.8345 -2.0362
 6197TIP3    H240083  -0.035   4.914  11.224  0.7688  0.5420 -0.7782
 6198TIP3   OH240084   1.327   0.993  12.435 -0.5023 -0.2433  0.5215
 6198TIP3    H140085   1.260   0.983  12.503 -1.1247 -0.7131 -0.1361
 6198TIP3    H240086   1.360   0.904  12.421  0.6895  0.0754  1.2513
 6199TIP3   OH240087   4.746   3.463  11.261  0.0212  0.2108 -0.6981
 6199TIP3    H140088   4.760   3.402  11.188  0.3688  1.9097 -2.1179
 6199TIP3    H240089   4.652   3.458  11.279 -0.1242  0.0249 -1.4779
 6200TIP3   OH240090   4.310   6.303   1.420 -0.1342 -0.1700  0.7501
 6200TIP3    H140091   4.260   6.223   1.403 -1.4010  0.1250  2.7296
 6200TIP3    H240092   4.401   6.274   1.425 -0.4210 -1.2492  0.1277
 6201TIP3   OH240093   2.210   6.297   6.165  0.3996  0.1629  0.1028
 6201TIP3    H140094   2.170   6.217   6.197  0.2666 -0.6783 -2.0183
 6201TIP3    H240095   2.156   6.324   6.091  0.5665  2.1158  0.6277
 6202TIP3   OH240096   5.700   5.869   4.911 -0.0372  0.4814 -0.1477
 6202TIP3    H140097   5.699   5.906   5.000 -1.3872  1.6281 -0.6077
 6202TIP3    H240098   5.616   5.894   4.874  0.0083 -1.0106 -1.3653
 6203TIP3   OH240099   0.673   0.352   1.867  0.2523 -0.2455 -0.0015
 6203TIP3    H140100   0.725   0.414   1.917  0.6022 -1.0581  0.6835
 6203TIP3    H240101   0.736   0.309   1.809 -0.4968  2.3187 -2.9660
 6204TIP3   OH240102   4.826   1.246   4.395  0.3925 -0.2869 -0.5827
 6204TIP3    H140103   4.849   1.335   4.369  0.9501 -0.0931  0.5164
 6204TIP3    H240104   4.765   1.257   4.468  0.0332 -0.8137 -0.7946
 6205TIP3   OH240105   5.273   4.317  13.934  0.8051 -0.3171 -0.1797
 6205TIP3    H140106   5.199   4.341  13.878  1.2356 -0.6485 -0.9002
 6205TIP3    H240107   5.232   4.293  14.018  0.1871  0.5943 -0.1965
 6206TIP3   OH240108   1.661   5.197  13.246 -0.3495 -0.3984  0.4804
 6206TIP3    H140109   1.652   5.280  13.293  1.0617  0.0579 -0.0114
 6206TIP3    H240110   1.710   5.141  13.305 -0.6326 -0.6280  0.4998
 6207TIP3   OH240111   0.509   1.571  13.199  0.3863 -0.2542 -0.8319
 6207TIP3    H140112   0.580   1.623  13.235  0.1895  0.5401 -1.5641
 6207TIP3    H240113   0.551   1.513  13.136  0.5591 -0.7649 -0.2602
 6208TIP3   OH240114   6.001   3.810  16.918 -0.2794  0.0615  0.0350
 6208TIP3    H140115   5.964   3.776  16.837 -0.6043  1.1466 -0.2858
 6208TIP3    H240116   6.093   3.785  16.915 -0.5747 -1.0379 -0.0449
 6209TIP3   OH240117   3.767   1.369   3.504 -0.4172  0.1280 -0.0742
 6209TIP3    H140118   3.717   1.414   3.572  1.3322 -0.6865  1.8609
 6209TIP3    H240119   3.751   1.420   3.424 -2.6466  1.0399  0.8776
 6210TIP3   OH240120   3.942   1.779  17.051 -0.0519  0.2419 -0.0572
 6210TIP3    H140121   3.984   1.831  16.982 -2.3887 -0.4814 -2.1822
 6210TIP3    H240122   3.855   1.818  17.060 -1.3447 -2.3290 -0.6779
 6211TIP3   OH240123   5.044   3.716   0.211  0.1006  0.6655  0.0897
 6211TIP3    H140124   4.963   3.690   0.255  0.1002  2.4205  1.2444
 6211TIP3    H240125   5.096   3.757   0.280  2.3805 -1.1538 -0.4130
 6212TIP3   OH240126   3.601   2.882  11.458  0.1102  0.5689 -0.1927
 6212TIP3    H140127   3.614   2.974  11.482  0.7390  0.8725 -1.5514
 6212TIP3    H240128   3.670   2.865  11.393 -0.1837 -0.7790 -0.1707
 6213TIP3   OH240129   4.038   1.189  15.273  0.3054  0.1362  0.4853
 6213TIP3    H140130   3.965   1.129  15.289  0.8383 -1.1692 -1.5827
 6213TIP3    H240131   4.002   1.254  15.212  0.9124 -0.7563 -0.8793
 6214TIP3   OH240132   3.572   2.285  11.823 -0.1295  0.5349 -0.2956
 6214TIP3    H140133   3.527   2.296  11.739 -0.6717 -1.3439 -0.2872
 6214TIP3    H240134   3.501   2.282  11.888  0.0624 -0.9309 -0.1175
 6215TIP3   OH240135   6.494   0.477   0.732 -0.1581  0.2401  0.2382
 6215TIP3    H140136   6.407   0.465   0.693  0.6453 -1.3804 -1.1954
 6215TIP3    H240137   6.519   0.567   0.709 -1.5321  0.8211  0.9051
 6216TIP3   OH240138   1.090   4.093   4.363 -0.6253  0.2258 -0.2159
 6216TIP3    H140139   1.175   4.108   4.322 -0.4831 -1.4465 -0.5983
 6216TIP3    H240140   1.028   4.138   4.307 -0.1513  0.1987 -0.7728
 6217TIP3   OH240141   0.820   0.533  16.314 -0.1064  0.9592  0.0918
 6217TIP3    H140142   0.894   0.584  16.281 -0.6781  2.3300  0.8269
 6217TIP3    H240143   0.836   0.444  16.283  0.0352  1.8846 -2.7755
 6218TIP3   OH240144   5.605   2.041   0.903  0.3380 -0.6535 -0.3356
 6218TIP3    H140145   5.655   2.003   0.831  3.1427 -0.3356  1.2939
 6218TIP3    H240146   5.645   2.006   0.982  0.1176  2.1246  1.1567
 6219TIP3   OH240147   1.244   0.360   1.198 -0.2459  0.6531 -0.1557
 6219TIP3    H140148   1.224   0.271   1.229 -2.2702  0.6083 -1.4034
 6219TIP3    H240149   1.322   0.349   1.143  0.3538 -0.1018  0.8240
 6220TIP3   OH240150   4.070   1.245   0.698 -0.0108 -0.1143 -0.8137
 6220TIP3    H140151   4.130   1.320   0.703 -1.2432  0.9578 -1.5713
 6220TIP3    H240152   4.127   1.169   0.713  0.8988  1.0372  2.4751
 6221TIP3   OH240153   0.465   3.561  15.115  0.1185 -0.6686  0.9609
 6221TIP3    H140154   0.471   3.582  15.022  1.0694 -0.3775  1.0847
 6221TIP3    H240155   0.371   3.564  15.133  0.0660  2.9474  0.8412
 6222TIP3   OH240156   4.684   1.095  15.829  0.1177  0.4408  0.4441
 6222TIP3    H140157   4.612   1.136  15.876 -1.1648  0.7972 -1.7112
 6222TIP3    H240158   4.672   1.001  15.844 -3.2232  0.0866 -2.8008
 6223TIP3   OH240159   0.445   3.198   2.800 -0.0470  0.0890  0.0534
 6223TIP3    H140160   0.429   3.288   2.775  1.4013  0.1719 -0.6400
 6223TIP3    H240161   0.363   3.170   2.842 -0.8160  1.4302 -0.4983
 6224TIP3   OH240162   3.263   3.397  12.126  0.2976  0.0266 -0.1973
 6224TIP3    H140163   3.310   3.478  12.147  0.2402  0.3756 -1.3652
 6224TIP3    H240164   3.332   3.335  12.101  0.3170 -0.2141  0.4226
 6225TIP3   OH240165   6.816   2.577  14.242  0.1869 -0.2745 -0.2348
 6225TIP3    H140166   6.799   2.569  14.148  0.6001 -0.1083 -0.3244
 6225TIP3    H240167   6.843   2.490  14.270  0.0237 -0.3341 -0.2602
 6226TIP3   OH240168   4.943   1.860   5.540 -0.2020 -0.2423  0.3696
 6226TIP3    H140169   4.881   1.918   5.497  0.1689 -0.8940 -1.1006
 6226TIP3    H240170   4.896   1.830   5.619 -0.9956  0.7740  0.3100
 6227TIP3   OH240171   1.677   6.257  15.416 -0.1017  0.0354  0.1484
 6227TIP3    H140172   1.635   6.280  15.499  0.5045 -0.7310  0.6794
 6227TIP3    H240173   1.607   6.216  15.365 -0.0440 -1.1132  0.9742
 6228TIP3   OH240174   0.005   6.363   2.903  0.4012 -0.1841 -0.4283
 6228TIP3    H140175  -0.025   6.402   2.821 -1.0419  1.8507  0.9941
 6228TIP3    H240176  -0.056   6.291   2.918  0.3591 -0.2469 -0.8627
 6229TIP3   OH240177   6.640   1.182  16.185  0.6113  0.0463 -0.4133
 6229TIP3    H140178   6.659   1.088  16.178 -0.2007 -0.1326 -0.3515
 6229TIP3    H240179   6.663   1.218  16.099 -0.0229 -0.3931 -0.7770
 6230TIP3   OH240180   1.660   4.708  15.262 -0.1753  0.3709  0.1516
 6230TIP3    H140181   1.727   4.775  15.254 -0.5458  0.7001 -0.2479
 6230TIP3    H240182   1.658   4.665  15.176  0.3474 -0.4283  0.5318
 6231TIP3   OH240183   5.376   3.363  12.344 -0.1415  0.4023 -0.5572
 6231TIP3    H140184   5.342   3.386  12.430 -0.2644  0.0936 -0.5193
 6231TIP3    H240185   5.407   3.273  12.354 -2.5712 -0.6368 -1.4946
 6232TIP3   OH240186   2.050   3.216   4.055  0.0315  0.0977 -0.5307
 6232TIP3    H140187   2.076   3.165   4.132 -1.5810  0.5253  0.3345
 6232TIP3    H240188   2.063   3.307   4.080  1.5274  0.2164 -1.5679
 6233TIP3   OH240189   4.528   1.899   3.522  0.4847  0.2012  0.2533
 6233TIP3    H140190   4.459   1.841   3.555  1.1448 -0.7106  0.0432
 6233TIP3    H240191   4.599   1.841   3.495  0.6823  1.0184 -1.1132
 6234TIP3   OH240192   4.662   1.657   3.327 -0.4654  0.9100  1.0328
 6234TIP3    H140193   4.713   1.724   3.372  1.9050 -0.4043  0.5167
 6234TIP3    H240194   4.677   1.577   3.378 -1.3228  0.2923  0.3573
 6235TIP3   OH240195   2.333   2.768  11.669 -0.5727 -0.2193 -0.0803
 6235TIP3    H140196   2.290   2.717  11.737 -0.3082  1.4724  1.4195
 6235TIP3    H240197   2.390   2.705  11.624 -2.2343 -1.8113 -0.0960
 6236TIP3   OH240198   6.785   4.097   1.445  0.0662 -0.0021  0.0085
 6236TIP3    H140199   6.879   4.116   1.450 -0.2682  2.6234 -1.6717
 6236TIP3    H240200   6.743   4.178   1.473 -1.6484 -0.2680 -1.6070
 6237TIP3   OH240201   1.857   4.124  13.918  0.1263  0.1510 -0.3701
 6237TIP3    H140202   1.876   4.038  13.955  0.6747  0.8878  1.1520
 6237TIP3    H240203   1.938   4.173  13.929 -0.1521  0.8512 -1.3062
 6238TIP3   OH240204   2.971   4.591  16.935  0.6264  0.0175 -0.3850
 6238TIP3    H140205   2.922   4.510  16.952 -1.7135  1.1206 -1.3290
 6238TIP3    H240206   3.014   4.576  16.851 -0.3384 -0.0433 -0.8812
 6239TIP3   OH240207   3.067   4.791   6.369  0.4921 -0.7208  0.5978
 6239TIP3    H140208   2.989   4.746   6.401 -1.1957  1.7318  0.2724
 6239TIP3    H240209   3.068   4.874   6.417  0.7722  0.8778 -1.9562
 6240TIP3   OH240210   0.814   0.068  14.065  0.2010 -0.1066  0.0135
 6240TIP3    H140211   0.886   0.016  14.029  1.4709  2.5231 -1.4667
 6240TIP3    H240212   0.747   0.067  13.997 -1.4760 -2.7769  1.4916
 6241TIP3   OH240213   4.656   3.348   1.793 -0.6046  0.3717  0.0332
 6241TIP3    H140214   4.584   3.346   1.731  0.5637  1.6773 -1.4395
 6241TIP3    H240215   4.630   3.410   1.860 -1.6108 -0.5764  0.5469
 6242TIP3   OH240216   4.467   3.902   4.121 -0.1984  0.2022 -0.6453
 6242TIP3    H140217   4.435   3.912   4.031  0.4297  0.9302 -0.7988
 6242TIP3    H240218   4.427   3.821   4.151 -0.7776  0.1797 -1.4287
 6243TIP3   OH240219   0.421   2.586   0.495  0.2039 -0.0406  0.0186
 6243TIP3    H140220   0.355   2.557   0.432 -0.0080 -1.0966  0.6938
 6243TIP3    H240221   0.424   2.681   0.485 -1.1470 -0.0111 -0.2964
 6244TIP3   OH240222   2.133   1.781  14.110 -0.0782 -0.4477  0.4907
 6244TIP3    H140223   2.142   1.866  14.153 -1.7059  0.0891 -0.1472
 6244TIP3    H240224   2.055   1.742  14.149 -0.0581 -1.0962 -0.0988
 6245TIP3   OH240225   6.257   2.359  16.545 -0.0374 -0.2869 -0.0564
 6245TIP3    H140226   6.324   2.392  16.486  1.5009 -0.1133  1.7053
 6245TIP3    H240227   6.230   2.276  16.506  0.5659  0.0602 -1.2546
 6246TIP3   OH240228   1.916   5.474  10.717  0.0743  0.3732 -0.4363
 6246TIP3    H140229   1.950   5.561  10.737 -0.9541  1.0205 -1.3882
 6246TIP3    H240230   1.912   5.471  10.621  0.5257 -0.9012 -0.4326
 6247TIP3   OH240231   6.496   2.090  12.772  0.0325 -0.0295 -0.0279
 6247TIP3    H140232   6.469   2.011  12.819 -0.5888 -0.9392 -1.8106
 6247TIP3    H240233   6.439   2.159  12.807  0.1163 -0.4889  1.0692
 6248TIP3   OH240234   3.268   4.148   3.201  0.1217 -0.0040  0.3490
 6248TIP3    H140235   3.355   4.132   3.238  0.4614  0.9124 -0.0116
 6248TIP3    H240236   3.286   4.165   3.108 -0.4302  0.2906  0.2954
 6249TIP3   OH240237   1.048   6.039   5.962 -0.2284  0.5640  0.2421
 6249TIP3    H140238   1.067   5.960   6.013 -1.0046 -1.7837 -2.8162
 6249TIP3    H240239   0.953   6.045   5.962 -0.2101  0.9530 -0.3146
 6250TIP3   OH240240   1.141   0.631  16.806 -0.1305 -0.0973  0.5444
 6250TIP3    H140241   1.094   0.597  16.729  0.5217 -1.2608  0.6307
 6250TIP3    H240242   1.120   0.724  16.808 -1.3851 -0.3396 -0.1651
 6251TIP3   OH240243   2.457   4.970  11.605  0.0129 -0.1700 -0.0118
 6251TIP3    H140244   2.475   4.952  11.697  1.5786  0.2626 -0.1994
 6251TIP3    H240245   2.471   5.065  11.596  0.7300 -0.3433 -0.8553
 6252TIP3   OH240246   4.251   5.542   5.078  0.6613 -0.3147 -0.1244
 6252TIP3    H140247   4.287   5.461   5.112  0.3119  0.0711  1.2139
 6252TIP3    H240248   4.166   5.517   5.041  0.1724 -0.4460  1.0407
 6253TIP3   OH240249   5.322   1.222   6.660  0.1921  0.2260  0.6999
 6253TIP3    H140250   5.306   1.229   6.566  0.8476 -0.0115  0.5670
 6253TIP3    H240251   5.279   1.299   6.697 -0.4635  0.0814  0.2641
 6254TIP3   OH240252   3.215   2.032  11.865  0.1235  0.0970  0.0726
 6254TIP3    H140253   3.256   2.115  11.890 -1.8844  1.6089 -1.3558
 6254TIP3    H240254   3.177   1.999  11.946  0.9134  0.5788  0.6528
 6255TIP3   OH240255   2.077   4.116  12.673 -1.0829  0.1230  0.7461
 6255TIP3    H140256   2.156   4.142  12.721 -0.4688  0.5673 -0.4737
 6255TIP3    H240257   2.095   4.027  12.644 -0.5918  0.5633 -0.3693
 6256TIP3   OH240258   5.792   2.822  12.694 -0.1843  0.4594  0.1063
 6256TIP3    H140259   5.749   2.887  12.750 -1.5896 -2.6109  2.9063
 6256TIP3    H240260   5.735   2.815  12.617 -1.2689  0.8705  0.8512
 6257TIP3   OH240261   1.291   0.666   3.199 -0.8457 -0.0797  0.3099
 6257TIP3    H140262   1.271   0.609   3.274 -0.2353  0.5028  0.9287
 6257TIP3    H240263   1.209   0.671   3.150 -1.1945 -0.6416  0.8259
 6258TIP3   OH240264   2.591   2.035   2.551 -0.1951  0.2038  0.3153
 6258TIP3    H140265   2.556   1.957   2.508  2.2329 -0.7353 -0.1009
 6258TIP3    H240266   2.533   2.106   2.522 -1.9600 -1.2718  0.0341
 6259TIP3   OH240267   5.140   0.761  14.945 -0.5304  0.2980  0.3801
 6259TIP3    H140268   5.149   0.804  14.860 -1.0116 -0.4856 -0.0847
 6259TIP3    H240269   5.214   0.701  14.949  0.7302  1.8507  1.4724
 6260TIP3   OH240270   4.783   3.325  16.299 -0.4551 -0.0371 -0.1715
 6260TIP3    H140271   4.721   3.293  16.365  0.1937 -0.0483  0.4588
 6260TIP3    H240272   4.842   3.382  16.348 -0.6881  0.9343 -0.9987
 6261TIP3   OH240273   0.835   2.758  15.190 -0.1963 -0.1132 -0.1298
 6261TIP3    H140274   0.875   2.749  15.103  0.9329  0.1808  0.3407
 6261TIP3    H240275   0.741   2.768  15.173  0.1416  1.2106 -1.3869
 6262TIP3   OH240276   2.862   2.015  13.184  0.4584 -0.2313  0.1319
 6262TIP3    H140277   2.852   2.070  13.106 -1.2658 -0.5016  0.1349
 6262TIP3    H240278   2.949   1.976  13.174  0.8183  0.7665 -0.9735
 6263TIP3   OH240279   5.428   6.000  15.338 -0.2590 -0.1378 -0.1019
 6263TIP3    H140280   5.421   5.927  15.276  0.5624  0.4784 -0.9429
 6263TIP3    H240281   5.456   5.958  15.420 -1.7467 -1.0094 -0.0092
 6264TIP3   OH240282   4.949   4.363   2.863  0.4609 -0.1461 -0.9642
 6264TIP3    H140283   5.012   4.435   2.865 -1.4409  1.5991  0.5002
 6264TIP3    H240284   4.961   4.323   2.777  1.8990  1.6377 -1.6506
 6265TIP3   OH240285   6.784   4.661   4.189 -0.5258  0.3132  0.5432
 6265TIP3    H140286   6.812   4.584   4.238 -1.4730 -0.2588  0.2143
 6265TIP3    H240287   6.689   4.664   4.199 -0.4604  1.8028  1.0614
 6266TIP3   OH240288   5.294   3.105   1.521 -0.2033 -0.6987 -0.1543
 6266TIP3    H140289   5.284   3.185   1.572  1.9377 -0.0588 -0.6380
 6266TIP3    H240290   5.277   3.034   1.583  2.5011  0.0503  1.5766
 6267TIP3   OH240291   3.997   0.376   1.479  0.0829  0.2472 -0.3578
 6267TIP3    H140292   3.933   0.336   1.422  0.5215  0.5503 -1.0847
 6267TIP3    H240293   4.082   0.346   1.446  0.3324  0.0583  0.4200
 6268TIP3   OH240294   1.479   1.449  16.549  0.3057  0.3806 -0.1322
 6268TIP3    H140295   1.514   1.536  16.529  1.0979 -0.1890 -1.3565
 6268TIP3    H240296   1.392   1.448  16.507  0.7255  0.2409 -1.0258
 6269TIP3   OH240297   1.605   0.108   1.260 -0.5847  0.1092  1.0017
 6269TIP3    H140298   1.556   0.153   1.329 -1.0444  1.9093 -0.4014
 6269TIP3    H240299   1.580   0.153   1.180  0.5677 -1.3631 -0.2533
 6270TIP3   OH240300   1.288   3.553  15.046  0.3392 -0.2902  0.1495
 6270TIP3    H140301   1.220   3.507  15.094 -0.3900 -1.0278 -1.5435
 6270TIP3    H240302   1.246   3.633  15.014  0.5657 -0.2366 -0.0192
 6271TIP3   OH240303   3.454   0.314   4.615 -0.4861  0.2461 -0.3827
 6271TIP3    H140304   3.407   0.302   4.532  0.2108 -0.5938 -0.6672
 6271TIP3    H240305   3.535   0.264   4.604 -0.3705  0.1600  0.7956
 6272TIP3   OH240306   5.760   5.862   5.588  0.0525 -0.5071 -0.2412
 6272TIP3    H140307   5.749   5.878   5.681 -0.6009 -1.3585 -0.1682
 6272TIP3    H240308   5.825   5.792   5.582 -0.7730 -1.2663 -0.3809
 6273TIP3   OH240309   6.117   3.712  13.897 -0.3109  0.2425 -0.4585
 6273TIP3    H140310   6.067   3.695  13.817  1.0661  0.5769 -1.4289
 6273TIP3    H240311   6.068   3.781  13.941 -0.6227  0.6874 -1.4709
 6274TIP3   OH240312   2.430   1.358  13.238  0.4115 -0.4831 -0.2399
 6274TIP3    H140313   2.506   1.404  13.202 -2.0383  3.0308 -1.3971
 6274TIP3    H240314   2.425   1.388  13.329 -1.2803  1.9655 -1.0385
 6275TIP3   OH240315   4.146   6.440   3.111 -0.5261 -0.4475  0.1086
 6275TIP3    H140316   4.066   6.394   3.136 -1.6082  1.2913 -0.0029
 6275TIP3    H240317   4.179   6.477   3.193  0.0763 -0.9976  0.1226
 6276TIP3   OH240318   3.775   4.212  13.190  0.3018 -0.0824 -0.1285
 6276TIP3    H140319   3.802   4.136  13.242 -0.1002 -0.2209 -0.1174
 6276TIP3    H240320   3.768   4.283  13.254  0.3744 -0.1120 -0.0878
 6277TIP3   OH240321   5.535   6.211  15.629  0.1540  0.1321  0.1030
 6277TIP3    H140322   5.567   6.123  15.607  1.5136  0.5713  0.1934
 6277TIP3    H240323   5.612   6.256  15.665  0.0159  1.9590 -1.6914
 6278TIP3   OH240324   3.033   0.558   0.128 -0.2273  0.3737 -0.3646
 6278TIP3    H140325   3.048   0.539   0.036 -1.1176  1.4035 -0.7480
 6278TIP3    H240326   2.954   0.613   0.129 -0.4981  0.0116  1.0417
 6279TIP3   OH240327   2.226   1.013  11.451  0.6055  0.5767 -0.0850
 6279TIP3    H140328   2.240   1.100  11.489  0.6161  0.9460 -0.9119
 6279TIP3    H240329   2.172   0.967  11.515  0.3830  1.2785  0.2392
 6280TIP3   OH240330   6.031   0.743   5.825  0.6804 -0.0761 -0.3335
 6280TIP3    H140331   6.016   0.821   5.772  0.2639 -0.4316 -0.7605
 6280TIP3    H240332   5.950   0.731   5.874 -0.7604 -2.2534 -2.9716
 6281TIP3   OH240333   3.394   2.699  13.143  0.1803 -0.2882  0.0699
 6281TIP3    H140334   3.445   2.731  13.218  0.8057  1.5386 -1.0697
 6281TIP3    H240335   3.310   2.744  13.150 -0.3348 -1.2832  0.4865
 6282TIP3   OH240336   3.195   5.238  11.657  0.0970 -0.2808  0.1310
 6282TIP3    H140337   3.134   5.311  11.644  0.6550  0.6063  2.1199
 6282TIP3    H240338   3.139   5.166  11.685 -0.3127 -0.2699 -0.6158
 6283TIP3   OH240339   5.872   3.293   3.489  0.1096 -0.4953 -0.0574
 6283TIP3    H140340   5.858   3.342   3.408 -0.5474  0.4900  0.6378
 6283TIP3    H240341   5.792   3.242   3.500 -0.0272 -0.2232  0.2374
 6284TIP3   OH240342   1.140   1.446  16.105 -0.4329  0.4110 -0.1713
 6284TIP3    H140343   1.230   1.467  16.128 -0.3834 -0.8472  0.9653
 6284TIP3    H240344   1.090   1.467  16.184 -1.1356  1.0100 -0.7618
 6285TIP3   OH240345   2.060   1.415  16.611 -0.2909  0.0214  0.1219
 6285TIP3    H140346   2.075   1.457  16.526 -3.2285  0.3061 -0.3546
 6285TIP3    H240347   2.000   1.343  16.592 -0.4402 -0.3452  1.8566
 6286TIP3   OH240348   5.919   5.195  16.024 -0.0515  0.5364 -0.0375
 6286TIP3    H140349   6.005   5.234  16.011  1.1451 -1.8644  0.0027
 6286TIP3    H240350   5.926   5.152  16.110 -0.4266 -1.6221 -1.0188
 6287TIP3   OH240351   4.254   5.293  16.848 -0.2806 -0.7032 -0.0475
 6287TIP3    H140352   4.246   5.378  16.805  0.8882 -0.1386  0.7985
 6287TIP3    H240353   4.259   5.230  16.776 -2.9292 -0.3054 -0.6943
 6288TIP3   OH240354   3.256   1.891   3.956 -0.4305  0.1619 -0.3712
 6288TIP3    H140355   3.232   1.882   3.863 -1.9729  1.5376 -0.1570
 6288TIP3    H240356   3.195   1.832   4.001  1.0117 -1.3166 -0.2652
 6289TIP3   OH240357   1.345   4.036   5.603 -0.5158  0.2904  0.5054
 6289TIP3    H140358   1.286   3.985   5.660  0.6112 -1.7705 -0.0603
 6289TIP3    H240359   1.369   3.975   5.534  3.5973  0.4011  1.6005
 6290TIP3   OH240360   5.265   2.749  14.201  0.1015  0.4747  0.7638
 6290TIP3    H140361   5.357   2.745  14.175 -0.0640 -0.7387  0.3139
 6290TIP3    H240362   5.241   2.658  14.219 -1.1228  0.7277  0.4982
 6291TIP3   OH240363   2.958   2.706  12.859  0.1455 -0.3643  0.5688
 6291TIP3    H140364   2.961   2.797  12.887  0.5375 -0.7725  1.9222
 6291TIP3    H240365   2.874   2.698  12.814  0.5784  0.9144 -0.5397
 6292TIP3   OH240366   0.149   6.455  16.710  0.5539  0.6418  0.0627
 6292TIP3    H140367   0.122   6.404  16.786  0.2140  0.5883 -0.0916
 6292TIP3    H240368   0.136   6.546  16.737  0.7911  0.6351  0.2002
 6293TIP3   OH240369   3.684   3.860  16.773 -0.8372 -0.2313 -0.1315
 6293TIP3    H140370   3.710   3.951  16.784  0.5362 -0.6570  0.3833
 6293TIP3    H240371   3.637   3.858  16.690 -0.4696  0.8564 -0.3809
 6294TIP3   OH240372   2.637   1.615  14.102 -0.0699 -0.3233 -0.0365
 6294TIP3    H140373   2.665   1.647  14.017 -0.8033  1.0081  0.2021
 6294TIP3    H240374   2.574   1.680  14.133  0.4234 -0.6026  1.6664
 6295TIP3   OH240375   5.850   6.771   5.735 -0.2495  0.2130 -0.1176
 6295TIP3    H140376   5.855   6.787   5.830 -0.3686  1.8331 -0.3633
 6295TIP3    H240377   5.889   6.685   5.724 -0.0778  0.0645  1.3949
 6296TIP3   OH240378   4.938   1.268  15.363 -0.2899 -0.2460  0.2583
 6296TIP3    H140379   4.981   1.346  15.397 -0.6445  0.6458 -1.2411
 6296TIP3    H240380   5.009   1.205  15.351  0.0966  0.0621  0.8474
 6297TIP3   OH240381   0.980   3.216   4.576  0.2941  0.2880  0.3639
 6297TIP3    H140382   0.925   3.232   4.653  0.9205 -0.7647  1.0578
 6297TIP3    H240383   1.012   3.303   4.551 -0.0944  0.6707  1.1521
 6298TIP3   OH240384   5.795   6.837   1.597 -0.2401 -0.3794  0.0871
 6298TIP3    H140385   5.719   6.795   1.557 -1.2090  1.6409 -0.3221
 6298TIP3    H240386   5.842   6.877   1.524  1.0722 -1.3088  0.3760
 6299TIP3   OH240387   1.717   0.434   4.556 -0.0066  0.1887 -0.1531
 6299TIP3    H140388   1.721   0.351   4.510  1.4654 -0.0791  0.4005
 6299TIP3    H240389   1.689   0.498   4.490  1.2064 -0.3274 -1.1927
 6300TIP3   OH240390   6.116   5.452  12.698 -0.1494 -0.4718  0.1245
 6300TIP3    H140391   6.055   5.489  12.762  1.5036  1.0053  0.9375
 6300TIP3    H240392   6.178   5.523  12.680 -0.4990 -0.8184 -3.1235
 6301TIP3   OH240393   6.355   3.248   1.275  0.9599  0.2506 -0.6054
 6301TIP3    H140394   6.340   3.219   1.185 -0.2766  0.8516 -0.6180
 6301TIP3    H240395   6.405   3.328   1.266  2.8547 -0.8885 -0.6402
 6302TIP3   OH240396   5.604   3.278   2.370 -1.2772 -0.1005  0.4806
 6302TIP3    H140397   5.545   3.254   2.299 -0.0043 -0.9193 -0.3261
 6302TIP3    H240398   5.607   3.374   2.367 -0.9186 -0.1372 -0.8541
 6303TIP3   OH240399   2.713   0.075   1.718 -0.1288  0.8085 -0.3271
 6303TIP3    H140400   2.673   0.109   1.797  1.5302 -1.3577  1.5914
 6303TIP3    H240401   2.791   0.129   1.704 -0.2375  0.9733 -0.2980
 6304TIP3   OH240402   4.139   0.177   2.018  0.2295  0.7737 -0.0233
 6304TIP3    H140403   4.092   0.193   1.935 -1.0363  0.6074  0.6365
 6304TIP3    H240404   4.226   0.148   1.991 -1.0345 -2.1781 -1.3945
 6305TIP3   OH240405   5.475   4.130   1.761 -0.4980 -0.1233 -0.2635
 6305TIP3    H140406   5.556   4.167   1.796 -0.0500 -1.3930  0.1033
 6305TIP3    H240407   5.472   4.162   1.671 -0.5770  1.4630  0.2777
 6306TIP3   OH240408   6.609   3.689  13.123 -0.1073  0.1945  0.0956
 6306TIP3    H140409   6.691   3.654  13.157 -0.1548  1.2420  1.3754
 6306TIP3    H240410   6.629   3.719  13.035  0.5389 -0.7645 -0.0939
 6307TIP3   OH240411   0.882   0.018   3.623  0.4508 -0.0775  0.0538
 6307TIP3    H140412   0.796  -0.001   3.659  0.2289  0.4440 -0.1983
 6307TIP3    H240413   0.939   0.026   3.699  0.3294 -0.6560  0.2119
 6308TIP3   OH240414   1.405   4.956  15.952  0.4062  0.5285 -0.2181
 6308TIP3    H140415   1.353   4.876  15.940  0.9650 -0.1383  1.4684
 6308TIP3    H240416   1.493   4.932  15.923  0.3705  0.8327 -0.5866
 6309TIP3   OH240417   4.686   1.373   0.984 -0.1292 -0.0299 -0.6217
 6309TIP3    H140418   4.683   1.448   1.044 -0.0022 -0.9396  0.5771
 6309TIP3    H240419   4.750   1.313   1.024 -0.8341 -1.1355 -1.0946
 6310TIP3   OH240420   4.171   5.962   3.981 -0.0992 -0.3763  0.1550
 6310TIP3    H140421   4.243   6.022   4.000 -0.9275  0.7841 -0.2106
 6310TIP3    H240422   4.172   5.899   4.053  1.1739 -0.2870  0.2304
 6311TIP3   OH240423   4.591   5.264  16.060 -0.1209  0.3699  0.0145
 6311TIP3    H140424   4.499   5.251  16.084 -0.0212  2.0100  1.4643
 6311TIP3    H240425   4.593   5.349  16.017  0.8922  0.9229  1.1144
 6312TIP3   OH240426   4.882   6.803  11.919 -0.2784  0.0618 -0.3696
 6312TIP3    H140427   4.873   6.777  12.011 -0.7860 -1.2941 -0.7816
 6312TIP3    H240428   4.960   6.757  11.888 -0.6699 -0.2737 -0.8756
 6313TIP3   OH240429   3.637   5.655   3.456  0.2348 -0.2820  0.0335
 6313TIP3    H140430   3.723   5.663   3.416  0.5819  1.2229  1.0043
 6313TIP3    H240431   3.630   5.562   3.478  1.2181 -0.5938 -0.8912
 6314TIP3   OH240432   0.935   0.386   3.278 -0.1615 -0.0119 -0.9829
 6314TIP3    H140433   0.904   0.373   3.189 -0.4358  0.8981 -1.0288
 6314TIP3    H240434   0.887   0.322   3.330 -2.0781  1.2646 -1.0737
 6315TIP3   OH240435   1.248   2.090  13.562  0.0401 -0.5387 -0.4620
 6315TIP3    H140436   1.342   2.103  13.558  0.0097  0.3026  0.8644
 6315TIP3    H240437   1.211   2.151  13.499  0.2704  1.1697  0.9682
 6316TIP3   OH240438   6.135   3.306  14.945 -0.2740  0.0289  0.0687
 6316TIP3    H140439   6.184   3.305  14.863  0.2586 -1.0287  0.3800
 6316TIP3    H240440   6.132   3.398  14.970  0.8983  0.1978 -0.3570
 6317TIP3   OH240441   0.673   2.819  11.998 -0.1880  0.0232 -0.2189
 6317TIP3    H140442   0.747   2.763  12.020 -1.3521 -0.4813  2.9241
 6317TIP3    H240443   0.601   2.759  11.980 -0.6773  0.5074  0.0809
 6318TIP3   OH240444   2.235   0.208  14.038 -0.3762  0.1174 -0.3981
 6318TIP3    H140445   2.197   0.120  14.041  2.6606 -1.3256  2.3012
 6318TIP3    H240446   2.266   0.219  13.949  0.4844 -2.2380 -0.4434
 6319TIP3   OH240447   3.614   6.118   0.005 -0.6546  0.4262  0.4752
 6319TIP3    H140448   3.598   6.124   0.099 -2.5834  0.3877  0.1969
 6319TIP3    H240449   3.527   6.125  -0.035  0.0790  0.1321 -1.2948
 6320TIP3   OH240450   4.703   6.168  13.688 -0.7221 -0.0627  0.2558
 6320TIP3    H140451   4.657   6.149  13.606 -0.7418  0.5516  0.1190
 6320TIP3    H240452   4.684   6.093  13.744 -0.1061 -0.8525 -0.5523
 6321TIP3   OH240453   3.582   3.952   0.867 -0.0486  0.4963 -0.1222
 6321TIP3    H140454   3.497   3.995   0.862  0.5086  1.6781  0.3353
 6321TIP3    H240455   3.561   3.859   0.875 -1.3199  0.8378  0.7851
 6322TIP3   OH240456   4.503   6.043   6.138  0.3083 -0.5431 -0.1961
 6322TIP3    H140457   4.519   6.123   6.086 -0.8637  0.5879  1.1100
 6322TIP3    H240458   4.413   6.019   6.116 -0.1938 -0.0650  1.2452
 6323TIP3   OH240459   3.839   3.597  15.117  0.0595 -0.3443  0.3759
 6323TIP3    H140460   3.876   3.558  15.037 -2.0926 -0.0483 -0.8570
 6323TIP3    H240461   3.764   3.648  15.086 -1.3757 -0.9023  2.6799
 6324TIP3   OH240462   0.652   6.703   6.724 -0.5835 -0.1062 -0.2503
 6324TIP3    H140463   0.608   6.788   6.724  0.5716  0.5554  1.0218
 6324TIP3    H240464   0.619   6.659   6.802 -0.6936 -0.5525 -0.5484
 6325TIP3   OH240465   0.362   4.597   2.585  0.2165  0.4905  0.3684
 6325TIP3    H140466   0.384   4.682   2.548  0.5909  0.2876  0.1195
 6325TIP3    H240467   0.445   4.548   2.586 -0.1494 -0.1596 -0.2549
 6326TIP3   OH240468   0.030   0.537   3.268 -0.5442  0.1104 -0.6748
 6326TIP3    H140469   0.006   0.447   3.291 -0.8793  0.6950  1.4678
 6326TIP3    H240470   0.099   0.560   3.330 -1.2559  1.6926 -0.4210
 6327TIP3   OH240471   3.724   6.202  10.118  0.5430 -0.5841  0.4399
 6327TIP3    H140472   3.661   6.219  10.048  2.4068 -1.2055 -1.5000
 6327TIP3    H240473   3.726   6.282  10.169  0.1821  0.4660 -1.1275
 6328TIP3   OH240474   0.537   0.088  16.141  0.4669 -0.2529  0.2157
 6328TIP3    H140475   0.573   0.132  16.064  2.8807 -1.2785  0.6397
 6328TIP3    H240476   0.547   0.151  16.211  1.6924 -0.5574  0.3498
 6329TIP3   OH240477   4.146   3.526  11.680  0.4246 -0.9800  0.0715
 6329TIP3    H140478   4.141   3.483  11.595  2.3097  0.1264 -0.6700
 6329TIP3    H240479   4.064   3.575  11.688 -0.8069 -2.9643  0.0009
 6330TIP3   OH240480   0.141   6.175  17.066 -0.5288 -0.0266  0.2114
 6330TIP3    H140481   0.191   6.201  17.143 -1.0546  1.1752  0.1732
 6330TIP3    H240482   0.207   6.145  17.004 -0.0198 -0.1986  0.8196
 6331TIP3   OH240483   0.766   1.258   0.701 -0.1724  0.4387  0.0791
 6331TIP3    H140484   0.705   1.308   0.647 -0.5385 -0.4865 -0.3809
 6331TIP3    H240485   0.749   1.287   0.791 -0.2698  1.2388 -0.1893
 6332TIP3   OH240486   1.831   5.164  16.519  0.0005  0.1283  0.2406
 6332TIP3    H140487   1.892   5.237  16.509  1.4221 -1.0437  0.1078
 6332TIP3    H240488   1.787   5.182  16.602 -2.3427  2.9941 -1.4151
 6333TIP3   OH240489   6.567   5.170  16.216  0.0479 -0.4132 -0.0672
 6333TIP3    H140490   6.584   5.123  16.134 -0.3348 -1.6609  0.5343
 6333TIP3    H240491   6.476   5.147  16.237  0.5176 -1.1003  1.3136
 6334TIP3   OH240492   0.721   5.688  12.633 -0.5773 -0.0363  0.0905
 6334TIP3    H140493   0.670   5.753  12.585 -1.0183 -0.2722  0.2405
 6334TIP3    H240494   0.794   5.738  12.671 -1.2949  0.4934  0.7886
 6335TIP3   OH240495   5.702   1.578   1.972  0.3004  0.3229 -0.3865
 6335TIP3    H140496   5.640   1.540   2.034  0.7883  0.9978  0.5189
 6335TIP3    H240497   5.782   1.529   1.985  0.2083  0.0071 -0.9762
 6336TIP3   OH240498   2.571   3.734   5.704 -0.3152 -0.1470 -0.1406
 6336TIP3    H140499   2.649   3.727   5.759 -1.4774 -3.7746  1.3481
 6336TIP3    H240500   2.501   3.758   5.765 -1.2232 -1.9994 -0.3973
 6337TIP3   OH240501   1.192   2.748  16.187 -0.0954  0.2443 -0.6413
 6337TIP3    H140502   1.218   2.838  16.207  0.1510 -0.4833  2.8465
 6337TIP3    H240503   1.099   2.744  16.210 -0.2236 -0.2832 -1.2177
 6338TIP3   OH240504   4.161   4.810   5.694  0.2910  0.1024 -0.0464
 6338TIP3    H140505   4.121   4.791   5.778 -2.7797  0.4310 -1.3131
 6338TIP3    H240506   4.145   4.731   5.642  1.0830  0.3544 -0.6855
 6339TIP3   OH240507   3.059   6.560  15.044 -0.5554 -0.2367 -0.7643
 6339TIP3    H140508   2.984   6.501  15.043 -1.0429  0.3538  0.2388
 6339TIP3    H240509   3.126   6.514  15.095 -0.3691 -0.5842 -1.3108
 6340TIP3   OH240510   2.771   5.758  12.287  0.3876 -0.2454 -0.2313
 6340TIP3    H140511   2.770   5.664  12.271  1.2455 -0.1540 -0.8573
 6340TIP3    H240512   2.783   5.798  12.201 -0.8154  0.4839 -0.0878
 6341TIP3   OH240513   3.508   6.404   1.521  0.4376 -0.5292 -0.0015
 6341TIP3    H140514   3.538   6.443   1.439  1.0544 -1.7243 -0.3714
 6341TIP3    H240515   3.588   6.378   1.567  0.0838 -0.2921  0.7763
 6342TIP3   OH240516   6.622   5.327   3.113  0.1983 -0.2630  0.4588
 6342TIP3    H140517   6.622   5.423   3.110 -0.7345 -0.2128  1.3039
 6342TIP3    H240518   6.687   5.306   3.180 -0.3723 -0.1583  1.0622
 6343TIP3   OH240519   1.084   1.454  16.738 -0.2351  0.0734  0.1252
 6343TIP3    H140520   1.107   1.384  16.677 -2.1178  0.1069 -0.6891
 6343TIP3    H240521   0.998   1.430  16.772 -1.9417  2.9210 -1.7653
 6344TIP3   OH240522   6.438   2.685   1.546  0.1140  0.2978  0.4150
 6344TIP3    H140523   6.421   2.737   1.467  2.0469 -0.3829 -0.5045
 6344TIP3    H240524   6.413   2.743   1.618 -0.7260  1.3182 -0.6566
 6345TIP3   OH240525   0.276   4.818   3.888  0.5374  0.1201  0.5909
 6345TIP3    H140526   0.367   4.792   3.873  0.4434  0.0323  0.1768
 6345TIP3    H240527   0.247   4.759   3.958  0.8090  0.1753  0.7537
 6346TIP3   OH240528   5.414   5.445   0.258  0.2258  0.1401  0.0402
 6346TIP3    H140529   5.456   5.456   0.173  1.2454  0.4154  0.5684
 6346TIP3    H240530   5.366   5.526   0.273  0.5520  0.3410 -0.0015
 6347TIP3   OH240531   6.731   0.984  14.052 -0.0060 -0.3943  0.1141
 6347TIP3    H140532   6.773   1.054  14.003  0.6761  0.4660  1.8436
 6347TIP3    H240533   6.743   1.008  14.144 -2.1246 -1.3857  0.7325
 6348TIP3   OH240534   0.673   3.315  16.325 -0.0940  0.0784  0.5072
 6348TIP3    H140535   0.620   3.236  16.332  0.2855 -0.4641 -1.6941
 6348TIP3    H240536   0.763   3.284  16.338 -0.0098  0.2762  0.3945
 6349TIP3   OH240537   0.651   6.163   2.420 -0.2762 -0.4860  0.5300
 6349TIP3    H140538   0.616   6.077   2.443 -1.4508 -0.3541 -0.6061
 6349TIP3    H240539   0.732   6.171   2.471  1.8890 -3.7823 -1.9949
 6350TIP3   OH240540   6.374   6.433  11.480 -0.1877 -0.5213  0.0329
 6350TIP3    H140541   6.454   6.409  11.527  0.1566 -0.1932 -0.3782
 6350TIP3    H240542   6.403   6.496  11.413 -0.7295 -0.6832 -0.3615
 6351TIP3   OH240543   0.369   1.822  11.256  0.0413 -0.0684 -0.4984
 6351TIP3    H140544   0.378   1.774  11.339  2.0098 -0.5121 -0.9394
 6351TIP3    H240545   0.274   1.823  11.240 -0.2701 -1.2789  0.9902
 6352TIP3   OH240546   5.374   0.979   4.541 -0.5248 -0.4852  0.2332
 6352TIP3    H140547   5.343   0.987   4.631 -0.1861 -0.1729  0.3246
 6352TIP3    H240548   5.296   0.953   4.491 -0.7275 -0.5970  0.6032
 6353TIP3   OH240549   1.623   3.091   1.395 -0.0509 -0.6435 -0.1836
 6353TIP3    H140550   1.572   3.012   1.410  0.8186 -1.3463 -0.7821
 6353TIP3    H240551   1.690   3.090   1.464 -0.0338 -0.4404 -0.1977
 6354TIP3   OH240552   2.013   3.592   1.173  0.0250 -0.1388 -0.4712
 6354TIP3    H140553   2.064   3.672   1.163 -0.5158  0.3949  0.8094
 6354TIP3    H240554   1.987   3.568   1.084  0.4040  0.9600 -0.8884
 6355TIP3   OH240555   1.887   4.732   4.718 -0.4110  0.6026  0.2599
 6355TIP3    H140556   1.840   4.772   4.791 -0.7311  0.4773  0.1277
 6355TIP3    H240557   1.977   4.726   4.748 -0.9350 -1.7131  1.6678
 6356TIP3   OH240558   5.141   2.414  13.661  0.1344 -0.7548 -0.4578
 6356TIP3    H140559   5.147   2.464  13.743  0.6027 -0.6548 -0.5499
 6356TIP3    H240560   5.061   2.445  13.620 -0.5048 -1.3463  0.3210
 6357TIP3   OH240561   2.469   2.011   4.265  0.6388  0.1674 -0.3179
 6357TIP3    H140562   2.395   2.000   4.324 -1.0279  3.1410 -1.6208
 6357TIP3    H240563   2.541   2.037   4.322 -0.2119  0.4292  0.6815
 6358TIP3   OH240564   4.798   1.419  17.076  0.0725 -0.7025  0.7176
 6358TIP3    H140565   4.756   1.337  17.102 -2.6857  0.3384 -0.0622
 6358TIP3    H240566   4.819   1.462  17.159 -0.2131 -1.3669  1.1496
 6359TIP3   OH240567   0.249   5.486   2.173  0.2384 -0.4949 -0.3380
 6359TIP3    H140568   0.281   5.571   2.143  1.1199 -1.0823 -1.1099
 6359TIP3    H240569   0.166   5.475   2.126 -0.1892  0.1846  0.2220
 6360TIP3   OH240570   3.895   0.044   2.581 -0.0833 -0.3015  0.0732
 6360TIP3    H140571   3.849  -0.037   2.558 -1.7462  0.5883  0.1538
 6360TIP3    H240572   3.888   0.099   2.503  1.9784 -0.5904 -0.3758
 6361TIP3   OH240573   3.998   2.272   4.278 -0.0373  0.0433 -0.3717
 6361TIP3    H140574   4.030   2.220   4.204  0.3747  0.7265 -0.6775
 6361TIP3    H240575   3.929   2.327   4.241 -1.5976 -1.3862  0.2699
 6362TIP3   OH240576   6.736   2.136  16.128 -0.1114  0.2127  0.3503
 6362TIP3    H140577   6.648   2.108  16.102  0.6570 -3.2527  1.0210
 6362TIP3    H240578   6.778   2.162  16.046 -0.2735 -2.8990 -0.8726
 6363TIP3   OH240579   6.254   3.657  13.089 -0.3063 -0.4487 -0.3597
 6363TIP3    H140580   6.202   3.706  13.153  1.0487  1.4558 -0.6189
 6363TIP3    H240581   6.324   3.617  13.140  0.7811  1.0795 -0.5785
 6364TIP3   OH240582   3.637   1.010  12.900 -0.5358 -0.1201 -0.5880
 6364TIP3    H140583   3.619   1.079  12.963  0.7072  1.3516 -1.7675
 6364TIP3    H240584   3.723   0.976  12.926 -0.4790 -0.2091 -0.8872
 6365TIP3   OH240585   6.052   4.306   0.993 -0.1791 -0.8483 -0.3296
 6365TIP3    H140586   6.050   4.242   1.064 -1.8365  1.9815  2.3688
 6365TIP3    H240587   6.135   4.353   1.005 -1.5797  1.3568  1.5609
 6366TIP3   OH240588   2.668   0.982   6.195 -0.5119 -0.1672  0.1273
 6366TIP3    H140589   2.721   0.902   6.193  0.8033  0.6851 -1.2908
 6366TIP3    H240590   2.658   1.002   6.288  1.9219 -0.2363  0.4684
 6367TIP3   OH240591   1.733   2.441   6.705 -0.7242 -0.1415 -0.0028
 6367TIP3    H140592   1.695   2.525   6.681 -0.5578 -0.4199 -1.3623
 6367TIP3    H240593   1.698   2.379   6.640 -2.8345 -1.6787  2.4128
 6368TIP3   OH240594   3.891   6.095   2.716 -0.0908 -0.3858  0.7087
 6368TIP3    H140595   3.856   6.040   2.786 -1.6653 -0.8421 -0.3720
 6368TIP3    H240596   3.822   6.160   2.701  0.2353 -0.2832 -0.4027
 6369TIP3   OH240597   5.911   3.800  16.629 -0.2041  0.0132  0.5120
 6369TIP3    H140598   5.937   3.793  16.538 -2.5359 -0.8187 -0.1583
 6369TIP3    H240599   5.903   3.894  16.645  1.3320  0.2175  0.2495
 6370TIP3   OH240600   0.154   5.066   3.036  0.2877 -0.2536  0.0943
 6370TIP3    H140601   0.108   5.134   2.986  1.2566  0.4677  0.1632
 6370TIP3    H240602   0.084   5.007   3.065 -0.2834 -0.9348 -2.4117
 6371TIP3   OH240603   0.760   1.506   0.198  0.0815 -0.1055 -0.2447
 6371TIP3    H140604   0.690   1.535   0.140  1.0023 -0.3971 -1.5306
 6371TIP3    H240605   0.753   1.410   0.198  1.4527 -0.2448 -1.6881
 6372TIP3   OH240606   0.594   6.467  13.744 -0.6067  0.0563  0.0885
 6372TIP3    H140607   0.649   6.414  13.688  0.8265  1.5745 -0.0057
 6372TIP3    H240608   0.524   6.498  13.687 -0.2931 -0.0357 -0.3464
 6373TIP3   OH240609   2.392   0.201   2.692  0.4085  0.8061  0.4163
 6373TIP3    H140610   2.330   0.132   2.667  0.8970  0.7384 -0.6387
 6373TIP3    H240611   2.412   0.183   2.784  2.1084 -1.6970 -0.3740
 6374TIP3   OH240612   5.958   6.595   3.976 -1.2217  0.1886 -0.1384
 6374TIP3    H140613   6.054   6.587   3.980 -1.0452  1.8075 -0.3869
 6374TIP3    H240614   5.935   6.649   4.052 -1.7747  0.9067 -0.7988
 6375TIP3   OH240615   3.239   4.344   3.395  0.3170  0.1207 -0.1730
 6375TIP3    H140616   3.205   4.268   3.348  0.8743  0.3258 -0.9229
 6375TIP3    H240617   3.301   4.385   3.334 -0.1228  1.2948  0.1400
 6376TIP3   OH240618   0.252   0.985   4.412 -0.9794  0.6037  0.2104
 6376TIP3    H140619   0.176   0.929   4.396 -1.0494  0.8380 -0.2730
 6376TIP3    H240620   0.241   1.060   4.354 -1.1543  1.3968  1.2332
 6377TIP3   OH240621   3.481   0.937  16.288  0.5765  0.3765  0.1479
 6377TIP3    H140622   3.504   1.010  16.345 -0.8596  0.0012  1.2738
 6377TIP3    H240623   3.451   0.869  16.347  2.0271 -1.2107 -0.8741
 6378TIP3   OH240624   2.077   3.674  10.786 -0.0735  0.3811 -0.5307
 6378TIP3    H140625   2.030   3.652  10.866 -1.7923  0.1174 -1.5725
 6378TIP3    H240626   2.072   3.594  10.733 -1.0188  1.2745 -1.8415
 6379TIP3   OH240627   1.475   5.243   3.464  0.3462  0.2317  0.8878
 6379TIP3    H140628   1.395   5.238   3.413  1.3633 -0.9281 -0.6689
 6379TIP3    H240629   1.497   5.336   3.465 -1.1530  0.6062  1.6049
 6380TIP3   OH240630   2.886   2.986  16.483 -0.3888  0.0082  0.3167
 6380TIP3    H140631   2.922   3.024  16.403 -0.0160  0.1966  0.5702
 6380TIP3    H240632   2.946   3.015  16.552  0.1643 -1.4209  0.4566
 6381TIP3   OH240633   6.772   0.075  15.703  0.4398  0.5183 -0.5008
 6381TIP3    H140634   6.753   0.165  15.729 -0.3947  0.2392 -0.1016
 6381TIP3    H240635   6.835   0.084  15.631 -0.5057  1.4715 -1.2534
 6382TIP3   OH240636   6.780   1.682   0.486  0.6523  0.5416 -0.2381
 6382TIP3    H140637   6.693   1.723   0.482  0.6827  1.0215  2.3454
 6382TIP3    H240638   6.772   1.604   0.432 -1.0132  1.2045 -1.0267
 6383TIP3   OH240639   3.276   6.557   3.808  0.0299 -0.4471 -0.0553
 6383TIP3    H140640   3.240   6.637   3.848  2.2059 -0.8569  3.0710
 6383TIP3    H240641   3.220   6.487   3.843 -1.3647 -0.4701 -2.1487
 6384TIP3   OH240642   6.431   4.972  16.470  0.2770  0.1234  0.2597
 6384TIP3    H140643   6.465   5.045  16.419 -0.8213  0.5741  0.1498
 6384TIP3    H240644   6.337   4.974  16.456  0.3735 -3.0294 -2.0862
 6385TIP3   OH240645   2.210   2.671   5.414  0.4207  0.5251  0.3623
 6385TIP3    H140646   2.122   2.666   5.451 -0.7405  0.5640 -2.2040
 6385TIP3    H240647   2.224   2.764   5.397  0.2544  0.3414 -0.8075
 6386TIP3   OH240648   6.802   4.049  10.969 -0.2610 -0.0714 -0.7375
 6386TIP3    H140649   6.728   3.991  10.953  0.4340 -1.2880  0.3452
 6386TIP3    H240650   6.879   3.993  10.957  0.3972  0.2394  1.6801
 6387TIP3   OH240651   4.115   0.178   3.949 -0.0896 -0.3983 -0.0263
 6387TIP3    H140652   4.054   0.127   3.895  1.9000 -1.0380 -1.8165
 6387TIP3    H240653   4.157   0.237   3.886  0.8856  0.2641  1.2191
 6388TIP3   OH240654   3.648   0.491   2.672  0.5031 -0.1592  0.3358
 6388TIP3    H140655   3.573   0.550   2.684 -0.1742 -0.9072 -0.0891
 6388TIP3    H240656   3.637   0.424   2.739 -0.7251 -1.7534 -1.3356
 6389TIP3   OH240657   0.574   5.329   5.082  0.1277  0.5353 -0.3700
 6389TIP3    H140658   0.535   5.323   4.995  4.6863 -0.4945 -2.6448
 6389TIP3    H240659   0.556   5.244   5.123  0.9804 -0.3796 -1.8417
 6390TIP3   OH240660   4.897   2.967   4.626  0.0113  0.1178  0.1291
 6390TIP3    H140661   4.957   3.001   4.559  0.2385 -3.3815 -1.6547
 6390TIP3    H240662   4.911   3.024   4.701  3.0409  1.5594 -1.3481
 6391TIP3   OH240663   0.961   4.031  17.045  0.2440 -0.0925  0.4518
 6391TIP3    H140664   0.890   4.083  17.083  0.3759 -0.1710  0.8156
 6391TIP3    H240665   1.041   4.076  17.072  0.3076  0.6522 -0.9434
 6392TIP3   OH240666   6.405   4.962   5.556 -0.1809  0.0239 -0.1395
 6392TIP3    H140667   6.432   5.022   5.487  1.3954  0.8650  1.1314
 6392TIP3    H240668   6.444   4.998   5.636 -0.2677 -1.9780  0.8768
 6393TIP3   OH240669   5.288   1.138   2.188 -0.1188  0.5418  0.4433
 6393TIP3    H140670   5.253   1.065   2.239  0.1871  1.0930  1.4570
 6393TIP3    H240671   5.214   1.167   2.134 -0.4883  0.0449  0.6755
 6394TIP3   OH240672   0.672   0.987   1.284 -0.0688 -0.0145  0.1487
 6394TIP3    H140673   0.747   0.956   1.233 -0.1876 -1.8180  1.0047
 6394TIP3    H240674   0.601   0.926   1.263 -0.9348  0.8866  0.3523
 6395TIP3   OH240675   1.820   4.979  14.294 -0.7058 -0.2799 -0.1285
 6395TIP3    H140676   1.735   5.023  14.291 -0.7520 -0.3875 -2.8726
 6395TIP3    H240677   1.856   4.990  14.206  2.6988  0.7792  1.2349
 6396TIP3   OH240678   0.830   1.775  16.499  0.3240  0.0901 -0.0731
 6396TIP3    H140679   0.918   1.811  16.488  0.5392  0.1058  1.5363
 6396TIP3    H240680   0.783   1.806  16.421  0.5943  3.5677  0.9679
 6397TIP3   OH240681   4.241   2.741   3.355  0.1099  0.0376 -0.5582
 6397TIP3    H140682   4.224   2.671   3.419 -1.6814 -0.0343 -1.0344
 6397TIP3    H240683   4.186   2.814   3.385  0.5015  0.5657 -1.1180
 6398TIP3   OH240684   3.437   6.258  13.112 -0.0732 -0.2370 -0.4348
 6398TIP3    H140685   3.510   6.319  13.112  0.3246 -0.6180 -2.7044
 6398TIP3    H240686   3.368   6.303  13.063 -0.9797 -0.3306  0.7154
 6399TIP3   OH240687   6.218   6.038   1.452 -0.0804 -0.0369 -0.0706
 6399TIP3    H140688   6.303   6.081   1.462 -0.3772  0.4536  0.4393
 6399TIP3    H240689   6.236   5.959   1.401  0.5947  0.3331 -0.4188
 6400TIP3   OH240690   5.221   6.038   0.001 -0.1449 -0.4831  0.1742
 6400TIP3    H140691   5.185   6.125  -0.019  2.5814  0.3968 -1.5739
 6400TIP3    H240692   5.180   5.980  -0.063 -1.6972 -0.4452  1.0992
 6401TIP3   OH240693   0.120   0.703  12.534  0.1712 -0.7615 -0.2569
 6401TIP3    H140694   0.052   0.650  12.493  0.5636 -0.4733 -1.3067
 6401TIP3    H240695   0.145   0.766  12.467 -0.8857  1.3581  1.2126
 6402TIP3   OH240696   4.100   4.663   0.703 -0.3049 -0.1963 -0.3605
 6402TIP3    H140697   4.127   4.720   0.632 -0.2782  0.4885  0.1962
 6402TIP3    H240698   4.107   4.716   0.782 -0.8224 -0.7890  0.1017
 6403TIP3   OH240699   1.371   5.741   6.945  0.2047 -0.3162  0.2614
 6403TIP3    H140700   1.356   5.648   6.928  1.0937 -0.1873 -1.5408
 6403TIP3    H240701   1.426   5.770   6.872 -1.8358  2.1222 -0.4713
 6404TIP3   OH240702   4.624   4.854   5.489 -0.1782  0.1671  0.4520
 6404TIP3    H140703   4.658   4.868   5.578 -1.6197 -1.5419  1.3244
 6404TIP3    H240704   4.693   4.806   5.444 -0.1900 -0.6130  1.2466
 6405TIP3   OH240705   5.671   0.954  12.463 -0.3140  0.0419  0.7627
 6405TIP3    H140706   5.685   0.873  12.513  0.7624  0.3144  0.9352
 6405TIP3    H240707   5.635   0.925  12.379 -2.8506 -0.3752  1.9041
 6406TIP3   OH240708   0.784   1.851  13.427  0.7581  0.4341 -0.5509
 6406TIP3    H140709   0.800   1.757  13.413  1.2413  0.3382  0.5254
 6406TIP3    H240710   0.733   1.878  13.352  1.5446 -0.4618 -1.4363
 6407TIP3   OH240711   0.425   1.811   4.836 -0.3212 -0.2117 -0.2093
 6407TIP3    H140712   0.338   1.789   4.869 -0.5557 -1.9034 -1.8347
 6407TIP3    H240713   0.423   1.906   4.824 -1.6183 -0.1158  0.6148
 6408TIP3   OH240714   3.273   1.067   3.798 -0.2746  0.3129  0.6069
 6408TIP3    H140715   3.356   1.024   3.774 -1.4657 -1.6585 -0.2593
 6408TIP3    H240716   3.243   1.107   3.717 -1.0534 -0.5941  0.4327
 6409TIP3   OH240717   1.746   2.887   2.252 -0.3386  0.0666  0.1904
 6409TIP3    H140718   1.829   2.847   2.224 -0.1753 -0.0151  0.7742
 6409TIP3    H240719   1.698   2.815   2.293 -0.0184  0.4823  1.3055
 6410TIP3   OH240720   3.827   4.362   3.919  0.1748  0.2459 -0.0240
 6410TIP3    H140721   3.801   4.369   4.011  0.7507  1.6416  0.0398
 6410TIP3    H240722   3.745   4.342   3.873  0.1508 -2.3651  0.9513
 6411TIP3   OH240723   5.671   3.113  11.161  0.0083  0.1127  0.6067
 6411TIP3    H140724   5.641   3.202  11.176  0.4452  0.0225  2.1401
 6411TIP3    H240725   5.622   3.060  11.225  0.5575 -0.5879  0.4632
 6412TIP3   OH240726   0.356   0.462   6.183  0.3339 -0.4440 -0.3672
 6412TIP3    H140727   0.334   0.551   6.155  2.3070  1.2739  2.9488
 6412TIP3    H240728   0.271   0.417   6.188 -1.2010  2.3256  1.0150
 6413TIP3   OH240729   5.446   3.817   5.658 -0.2717  0.1739 -0.2085
 6413TIP3    H140730   5.394   3.750   5.701 -1.6931  1.0267 -0.4898
 6413TIP3    H240731   5.401   3.899   5.680  1.7228  1.1050  0.5865
 6414TIP3   OH240732   3.664   2.519   0.539 -0.3537 -0.3627  0.5546
 6414TIP3    H140733   3.715   2.577   0.595 -1.6218  0.5281  0.8272
 6414TIP3    H240734   3.710   2.435   0.544  1.7561  0.6722 -0.1642
 6415TIP3   OH240735   4.448   5.795  16.632 -0.0241  0.6172  0.3697
 6415TIP3    H140736   4.519   5.733  16.618 -1.2685 -1.5689  2.7700
 6415TIP3    H240737   4.384   5.776  16.563  1.2929  2.0712 -1.3279
 6416TIP3   OH240738   4.781   2.266  17.140  0.0298 -0.1536  0.0478
 6416TIP3    H140739   4.775   2.172  17.153  0.8208 -0.3747 -0.9640
 6416TIP3    H240740   4.873   2.287  17.156 -0.0824  0.3919  0.0113
 6417TIP3   OH240741   2.059   3.539  14.643 -0.2455 -0.0959 -0.3809
 6417TIP3    H140742   2.037   3.525  14.551 -0.3638 -1.7112 -0.1380
 6417TIP3    H240743   2.153   3.523  14.648 -0.4774 -1.5113  0.0036
 6418TIP3   OH240744   5.967   2.820  16.035 -0.3499 -0.1174 -0.0607
 6418TIP3    H140745   5.969   2.741  15.980  0.0942 -0.2629  0.1599
 6418TIP3    H240746   5.994   2.789  16.121  1.3809  0.5460 -0.3157
 6419TIP3   OH240747   6.610   2.713   5.619 -0.2204 -0.1605 -0.0097
 6419TIP3    H140748   6.568   2.678   5.540  0.5456  1.1308 -1.0271
 6419TIP3    H240749   6.585   2.805   5.619 -0.1374 -0.1310  1.2359
 6420TIP3   OH240750   4.168   5.507   0.378  0.1156  0.1824  0.2074
 6420TIP3    H140751   4.087   5.521   0.427 -0.0400  0.2423 -0.0637
 6420TIP3    H240752   4.209   5.594   0.375 -0.2149  0.3260 -0.3604
 6421TIP3   OH240753   4.425   2.605  11.379 -0.5801  0.3262 -0.1010
 6421TIP3    H140754   4.483   2.589  11.304 -2.8932 -1.3390 -1.6898
 6421TIP3    H240755   4.372   2.680  11.352 -0.2301  0.8408  0.6398
 6422TIP3   OH240756   1.206   3.045   6.156  0.7220 -0.7504 -0.2225
 6422TIP3    H140757   1.231   3.137   6.163 -1.0524 -0.1960 -0.5556
 6422TIP3    H240758   1.282   3.001   6.117  2.1071  0.2957  1.2120
 6423TIP3   OH240759   4.454   5.944   3.777 -0.1722  0.4462 -0.2609
 6423TIP3    H140760   4.529   5.951   3.836  0.0996  0.9782 -0.6620
 6423TIP3    H240761   4.478   5.875   3.716 -0.5968 -0.3467  0.4413
 6424TIP3   OH240762   0.624   3.048  15.267 -0.0240  0.2537  0.2090
 6424TIP3    H140763   0.645   3.003  15.185 -0.3251 -0.3032  0.4297
 6424TIP3    H240764   0.594   3.134  15.240 -2.1801 -0.6326 -0.4429
 6425TIP3   OH240765   4.748   4.859   2.061  0.5996 -0.1335  0.6088
 6425TIP3    H140766   4.796   4.824   1.985  1.1166  0.4216  0.6716
 6425TIP3    H240767   4.696   4.785   2.093  0.5803 -0.4468 -0.1257
 6426TIP3   OH240768   4.432   1.487   1.940 -0.4221  0.2558  0.0067
 6426TIP3    H140769   4.494   1.528   1.879 -0.2998  1.6454  1.0189
 6426TIP3    H240770   4.472   1.501   2.026 -1.6597  0.2705  0.5880
 6427TIP3   OH240771   6.482   4.858  11.567 -0.0343 -0.8054  0.0076
 6427TIP3    H140772   6.468   4.837  11.475  1.5873 -0.4035 -0.3631
 6427TIP3    H240773   6.414   4.808  11.614 -0.4526 -1.5418 -1.3378
 6428TIP3   OH240774   4.961   1.535  11.597 -0.0213 -0.1765 -0.0415
 6428TIP3    H140775   4.880   1.534  11.648 -1.3291 -1.5034 -2.0419
 6428TIP3    H240776   5.024   1.486  11.651 -0.7137  0.2657  1.2173
 6429TIP3   OH240777   4.232   6.521  12.341 -0.0188 -0.1007 -0.2580
 6429TIP3    H140778   4.256   6.490  12.429 -0.5043 -1.2386 -0.5060
 6429TIP3    H240779   4.143   6.487  12.328  0.0644  0.0403 -1.2131
 6430TIP3   OH240780   6.611   5.506  14.234 -0.4579  0.0154 -0.1834
 6430TIP3    H140781   6.623   5.551  14.318 -0.6332  0.0773 -0.1890
 6430TIP3    H240782   6.639   5.416  14.251 -2.8241 -0.6465  0.6609
 6431TIP3   OH240783   3.901   6.243   3.514 -0.1124  0.2818  0.0365
 6431TIP3    H140784   3.861   6.189   3.447 -2.3675  2.8437 -0.8937
 6431TIP3    H240785   3.829   6.264   3.574  1.2286  0.3015  1.7229
 6432TIP3   OH240786   0.325   6.517  13.645  0.3103  0.1758  0.4029
 6432TIP3    H140787   0.237   6.485  13.627  0.0912  0.1028  1.5564
 6432TIP3    H240788   0.318   6.564  13.728  1.6845 -1.3464  1.4435
 6433TIP3   OH240789   5.665   6.228   1.915 -0.4908 -0.0353 -0.2354
 6433TIP3    H140790   5.650   6.309   1.866 -1.3239 -0.3604 -0.5371
 6433TIP3    H240791   5.692   6.164   1.848  0.5060  0.0717  0.0488
 6434TIP3   OH240792   4.539   4.576   2.859  0.4366 -0.4514  0.1368
 6434TIP3    H140793   4.540   4.584   2.955  1.2261  0.1167  0.0856
 6434TIP3    H240794   4.508   4.487   2.843  2.4809 -1.3801  0.9814
 6435TIP3   OH240795   6.316   1.596  16.459 -0.5583  0.4006  0.2221
 6435TIP3    H140796   6.283   1.507  16.467  1.0446 -0.0692  2.9420
 6435TIP3    H240797   6.335   1.607  16.366  2.0043 -3.2257  0.1280
 6436TIP3   OH240798   1.593   0.659   5.415  0.1825  0.2641 -0.0834
 6436TIP3    H140799   1.524   0.718   5.387 -0.3668 -1.3357 -2.4072
 6436TIP3    H240800   1.552   0.604   5.481 -0.1920  0.5501 -0.0726
 6437TIP3   OH240801   5.619   6.635   2.511 -0.2402  0.3323  0.1030
 6437TIP3    H140802   5.657   6.571   2.451 -0.6030 -1.2322  1.4826
 6437TIP3    H240803   5.646   6.606   2.598 -3.3219 -0.0427  1.0669
 6438TIP3   OH240804   6.783   5.445  15.052 -0.3869  0.1177 -0.3360
 6438TIP3    H140805   6.845   5.473  14.984 -0.1305  1.1112  0.2968
 6438TIP3    H240806   6.725   5.383  15.007 -0.1200  0.6380 -1.4232
 6439TIP3   OH240807   2.582   4.124  14.971  0.2527 -0.1442 -0.0306
 6439TIP3    H140808   2.654   4.096  15.028  0.2310  0.6053  0.3875
 6439TIP3    H240809   2.559   4.211  15.004 -1.7555 -0.9115  0.7232
 6440TIP3   OH240810   3.519   6.280   1.014 -0.1453 -0.1235  0.2560
 6440TIP3    H140811   3.607   6.319   1.019 -0.4128  0.3297  1.7982
 6440TIP3    H240812   3.460   6.355   1.025 -0.6742 -0.8569  3.2693
 6441TIP3   OH240813   2.843   2.304   5.487 -0.6838  0.1649  0.5057
 6441TIP3    H140814   2.816   2.224   5.532 -0.9330 -0.0266  0.0224
 6441TIP3    H240815   2.916   2.337   5.540 -1.6183  0.5000  1.6221
 6442TIP3   OH240816   1.664   2.601   2.479  0.5408 -0.2902  0.2375
 6442TIP3    H140817   1.583   2.552   2.463 -1.4247  2.8476 -0.3248
 6442TIP3    H240818   1.645   2.656   2.554  2.0025  0.8374 -0.1645
 6443TIP3   OH240819   4.373   6.395   3.618  0.4952  0.2545  0.5516
 6443TIP3    H140820   4.342   6.426   3.703  0.1043  0.4599  0.3354
 6443TIP3    H240821   4.309   6.328   3.592  1.2021 -0.5713  0.9093
 6444TIP3   OH240822   3.010   5.303   0.019 -0.3644 -0.1384  0.6969
 6444TIP3    H140823   3.049   5.384   0.051 -0.9686  1.6546 -2.6838
 6444TIP3    H240824   3.085   5.248  -0.003  0.1190  0.5847  0.5082
 6445TIP3   OH240825   3.270   0.839  14.492  0.2129  0.1268 -0.7892
 6445TIP3    H140826   3.222   0.780  14.435  0.7475 -0.9800 -0.1341
 6445TIP3    H240827   3.202   0.890  14.537 -0.2564 -0.0421 -1.3049
 6446TIP3   OH240828   2.906   3.796  13.075 -0.1296 -0.0938 -0.5180
 6446TIP3    H140829   2.858   3.733  13.022  1.2350  0.5861 -2.7225
 6446TIP3    H240830   2.987   3.811  13.025  1.0988  0.8494  1.6431
 6447TIP3   OH240831   6.585   2.323  12.048 -0.5518  0.2267  0.5612
 6447TIP3    H140832   6.649   2.253  12.033  3.0839  3.3233  0.0791
 6447TIP3    H240833   6.531   2.322  11.969  2.3002  0.5868 -1.5953
 6448TIP3   OH240834   0.222   3.463   0.713  0.2697 -0.3308 -0.2619
 6448TIP3    H140835   0.212   3.369   0.726 -0.1477 -0.3915 -0.9361
 6448TIP3    H240836   0.307   3.472   0.670 -0.2718 -0.5467 -1.4380
 6449TIP3   OH240837   0.760   0.695   0.538 -0.5096  0.4945  0.2050
 6449TIP3    H140838   0.707   0.639   0.595 -0.5093  0.2755 -0.0101
 6449TIP3    H240839   0.742   0.784   0.569 -1.6574  0.4926 -0.4101
 6450TIP3   OH240840   1.649   1.019   0.493 -0.4333  0.5984 -0.4104
 6450TIP3    H140841   1.731   1.031   0.447 -0.4551 -0.2764 -0.6948
 6450TIP3    H240842   1.656   1.075   0.570 -0.5110  2.3097 -1.5832
 6451TIP3   OH240843   6.772   3.919   3.707  0.1849 -0.4854 -0.0438
 6451TIP3    H140844   6.696   3.976   3.720  1.2348  0.8857  0.3535
 6451TIP3    H240845   6.821   3.926   3.789  0.4213 -1.8621 -0.0461
 6452TIP3   OH240846   3.667   4.580  16.672 -0.5237  0.3024  0.2643
 6452TIP3    H140847   3.616   4.507  16.637  1.6515 -1.3523  0.2991
 6452TIP3    H240848   3.612   4.657  16.658 -2.7942 -1.2733 -0.0681
 6453TIP3   OH240849   0.808   6.734   5.534 -0.0401 -0.1519 -0.0032
 6453TIP3    H140850   0.763   6.702   5.613  0.0522  1.3788  0.7169
 6453TIP3    H240851   0.901   6.730   5.556  0.0485 -0.7053 -0.4503
 6454TIP3   OH240852   4.496   5.578   2.920  0.1628  0.2969 -0.0171
 6454TIP3    H140853   4.453   5.653   2.878  1.3667  0.0398 -1.8189
 6454TIP3    H240854   4.588   5.601   2.923  0.3079 -0.3531  1.1615
 6455TIP3   OH240855   3.994   5.306  12.464 -0.2496 -0.5651 -0.0109
 6455TIP3    H140856   3.903   5.312  12.436 -0.3939 -1.2959  0.2809
 6455TIP3    H240857   3.990   5.300  12.559  0.2264  1.7859  0.2199
 6456TIP3   OH240858   3.100   2.934  13.412 -0.9245  0.0213  0.6928
 6456TIP3    H140859   3.182   2.982  13.421 -1.2266  0.0979  4.0887
 6456TIP3    H240860   3.037   2.983  13.465 -2.7734 -0.9701 -0.4634
 6457TIP3   OH240861   2.725   1.027  15.814  0.5387  0.3866 -0.9649
 6457TIP3    H140862   2.735   1.122  15.821  4.2767  0.0662 -0.2685
 6457TIP3    H240863   2.685   1.001  15.897 -0.8743  1.3232 -1.3152
 6458TIP3   OH240864   2.158   0.876  13.210 -0.2016  0.1323  0.0186
 6458TIP3    H140865   2.102   0.861  13.287 -0.2781  0.1800 -0.0274
 6458TIP3    H240866   2.210   0.953  13.233  1.4440 -1.1866  0.9725
 6459TIP3   OH240867   3.790   3.391  16.644  0.1181  0.1205  0.2302
 6459TIP3    H140868   3.867   3.446  16.634  0.0492  0.5496  1.7982
 6459TIP3    H240869   3.772   3.392  16.738 -1.8300  0.0892 -0.0962
 6460TIP3   OH240870   3.109   6.355  10.352  0.6838 -0.4103  0.5972
 6460TIP3    H140871   3.177   6.403  10.304  0.2460 -0.3420  0.0286
 6460TIP3    H240872   3.093   6.277  10.299  1.3847 -1.1880  1.5193
 6461TIP3   OH240873   2.727   4.911  17.154 -0.1151 -0.5645  0.6815
 6461TIP3    H140874   2.645   4.943  17.191  0.4480  0.0548  1.4164
 6461TIP3    H240875   2.728   4.946  17.065 -0.0328  0.5597  1.1037
 6462TIP3   OH240876   1.955   3.781   3.002 -0.4019  0.3500  0.5336
 6462TIP3    H140877   1.968   3.864   3.048 -1.3924  0.2298  1.0766
 6462TIP3    H240878   1.964   3.715   3.070  1.0958 -0.0553 -0.0331
 6463TIP3   OH240879   0.719   5.361   2.260 -0.5339  0.7132  0.1305
 6463TIP3    H140880   0.789   5.296   2.259  0.9479  2.2338  0.3102
 6463TIP3    H240881   0.638   5.310   2.266  0.5134 -1.1129 -0.6507
 6464TIP3   OH240882   6.331   1.754   6.526 -0.3919  0.3361 -0.5552
 6464TIP3    H140883   6.356   1.668   6.559 -1.1725  0.4427  0.3646
 6464TIP3    H240884   6.370   1.815   6.589 -0.0884  0.6500 -1.0396
 6465TIP3   OH240885   5.505   3.356  17.107 -0.1514 -0.7498  0.5605
 6465TIP3    H140886   5.458   3.360  17.191 -1.3948 -2.1475 -0.0317
 6465TIP3    H240887   5.591   3.393  17.127 -0.9353  0.3783  2.0797
 6466TIP3   OH240888   3.822   1.844  14.324 -0.0064 -0.3752 -0.1561
 6466TIP3    H140889   3.880   1.843  14.248  1.9087  0.9421  1.2063
 6466TIP3    H240890   3.779   1.930  14.321 -1.3009 -1.0080 -0.6804
 6467TIP3   OH240891   3.382   1.936   2.244 -0.1961 -0.2033  0.0668
 6467TIP3    H140892   3.465   1.977   2.271 -0.2096 -0.8699  1.1662
 6467TIP3    H240893   3.407   1.877   2.173  0.5925 -1.5948  1.4194
 6468TIP3   OH240894   6.275   5.695  11.368 -0.0886  0.1908 -0.0047
 6468TIP3    H140895   6.296   5.610  11.404 -1.5625 -0.6306 -0.9614
 6468TIP3    H240896   6.328   5.702  11.289  0.6486  0.5357  0.5134
 6469TIP3   OH240897   4.693   0.550   3.736 -0.0714 -0.4125  0.4557
 6469TIP3    H140898   4.760   0.539   3.803 -0.0444  0.7131  0.6399
 6469TIP3    H240899   4.637   0.620   3.769  1.4189  2.0487 -1.7611
 6470TIP3   OH240900   5.607   0.044  16.276 -0.0678  0.0217 -0.1193
 6470TIP3    H140901   5.560  -0.038  16.260 -2.0076  1.3512 -1.6523
 6470TIP3    H240902   5.579   0.071  16.364  2.1375 -1.8490  1.2877
 6471TIP3   OH240903   5.042   0.551  12.793 -0.0320 -0.4936 -0.0701
 6471TIP3    H140904   4.952   0.559  12.760 -0.2830 -0.0305  0.6827
 6471TIP3    H240905   5.031   0.538  12.887  0.6996  1.6585  0.3806
 6472TIP3   OH240906   2.488   5.455  12.253  0.0903 -0.2639  0.8178
 6472TIP3    H140907   2.488   5.465  12.348 -1.4130 -1.6030  0.9907
 6472TIP3    H240908   2.421   5.389  12.236  0.4792 -0.1910 -1.1639
 6473TIP3   OH240909   5.183   5.083   5.339 -0.1822  0.2080  0.0500
 6473TIP3    H140910   5.259   5.122   5.383 -1.2801  1.3478  1.0176
 6473TIP3    H240911   5.220   5.011   5.287  1.3648 -0.2267  1.6451
 6474TIP3   OH240912   1.564   0.595   3.146  0.4756 -0.2618  0.7378
 6474TIP3    H140913   1.589   0.640   3.066 -0.5928  0.1673  0.6245
 6474TIP3    H240914   1.470   0.614   3.156  0.4844 -0.7038  1.8267
 6475TIP3   OH240915   4.879   2.213   5.969 -0.0039 -0.5151 -0.3522
 6475TIP3    H140916   4.892   2.292   6.022 -0.0504  1.3444 -2.8985
 6475TIP3    H240917   4.843   2.149   6.030 -2.4786  2.2241  1.3419
 6476TIP3   OH240918   0.259   4.980   4.988 -0.1318  0.2999 -0.7543
 6476TIP3    H140919   0.275   4.885   4.985 -0.0503  0.3139 -0.7708
 6476TIP3    H240920   0.180   4.989   5.041  1.1556  0.3589  1.3067
 6477TIP3   OH240921   5.734   0.203   6.609  0.1643 -0.1811  0.2577
 6477TIP3    H140922   5.641   0.180   6.614  0.0955 -0.0196 -0.2182
 6477TIP3    H240923   5.764   0.165   6.526  0.9532 -1.7322  1.1896
 6478TIP3   OH240924   3.120   3.845  17.046  0.2176 -0.2291  0.1514
 6478TIP3    H140925   3.185   3.913  17.026  0.7897 -0.8403 -0.1242
 6478TIP3    H240926   3.060   3.848  16.971  1.8273 -1.8800 -1.3083
 6479TIP3   OH240927   5.991   0.980   1.887 -0.6259  0.2134 -0.5090
 6479TIP3    H140928   5.964   1.072   1.882 -0.8946  0.2112  0.6028
 6479TIP3    H240929   6.003   0.964   1.981  1.1568 -0.4074 -0.8246
 6480TIP3   OH240930   3.922   0.993  15.590 -0.4258 -0.1234 -0.5749
 6480TIP3    H140931   3.871   1.070  15.613  0.2349  0.7323 -1.8693
 6480TIP3    H240932   3.924   0.941  15.670 -1.6949  0.7319  0.0432
 6481TIP3   OH240933   1.796   3.824   4.937  0.1867  0.1205  0.2233
 6481TIP3    H140934   1.710   3.804   4.901  0.8910  1.6870 -2.6124
 6481TIP3    H240935   1.856   3.763   4.894  0.8949  1.1989 -0.3709
 6482TIP3   OH240936   5.786   6.025   2.746 -0.3418  0.2917  0.2360
 6482TIP3    H140937   5.868   6.048   2.790 -1.3631  0.2468  2.2985
 6482TIP3    H240938   5.764   5.939   2.782 -1.4565  0.4580 -0.0245
 6483TIP3   OH240939   1.488   4.424   4.073 -0.3504 -0.6197 -0.2476
 6483TIP3    H140940   1.534   4.343   4.050  1.7711  0.8620 -1.5198
 6483TIP3    H240941   1.406   4.420   4.023 -0.7520 -2.3619  0.4566
 6484TIP3   OH240942   2.040   2.373   2.232 -0.1523 -0.6224  0.3687
 6484TIP3    H140943   2.026   2.417   2.148 -1.0664  0.6308  1.1598
 6484TIP3    H240944   2.007   2.284   2.218 -1.4225 -0.0742 -0.2559
 6485TIP3   OH240945   0.426   4.862  15.691  0.2151 -0.1725 -0.0463
 6485TIP3    H140946   0.395   4.811  15.616 -1.3969  0.7806 -0.0831
 6485TIP3    H240947   0.443   4.949  15.655 -0.6828  0.3238  0.7029
 6486TIP3   OH240948   5.535   4.770  15.483  0.3255  0.7875 -0.1461
 6486TIP3    H140949   5.616   4.777  15.534 -0.1266  0.4657  0.6458
 6486TIP3    H240950   5.466   4.785  15.547 -0.3521 -1.8502 -0.1391
 6487TIP3   OH240951   4.406   2.698  11.841 -0.1803 -0.0038  0.2231
 6487TIP3    H140952   4.492   2.687  11.882 -0.2282 -0.0713  0.3033
 6487TIP3    H240953   4.350   2.633  11.882  0.3523 -1.6861 -1.5766
 6488TIP3   OH240954   6.408   0.164   0.215 -0.0469 -0.3725  0.0406
 6488TIP3    H140955   6.388   0.140   0.124  0.5505  1.0256 -0.4980
 6488TIP3    H240956   6.492   0.122   0.234  0.5519  0.5000 -0.5812
 6489TIP3   OH240957   5.617   5.567   5.729 -0.4256 -0.0788 -0.5402
 6489TIP3    H140958   5.634   5.496   5.667  1.4803  0.5067 -0.7617
 6489TIP3    H240959   5.603   5.523   5.813 -1.8596 -0.8179 -1.1466
 6490TIP3   OH240960   4.674   6.545  14.830  0.0869 -0.6299  0.7223
 6490TIP3    H140961   4.655   6.630  14.870  1.2592 -0.6057  1.2724
 6490TIP3    H240962   4.659   6.558  14.736 -0.4907 -0.0449  0.8909
 6491TIP3   OH240963   5.409   3.824   5.256 -0.5166 -0.7710 -0.0661
 6491TIP3    H140964   5.369   3.746   5.293  1.1708 -1.5264  0.2642
 6491TIP3    H240965   5.455   3.794   5.178  1.3287 -0.4575  0.8229
 6492TIP3   OH240966   6.772   6.065  14.538 -0.1293 -0.1252  0.6185
 6492TIP3    H140967   6.688   6.108  14.556 -0.7166 -1.1266  0.3124
 6492TIP3    H240968   6.813   6.119  14.471 -2.2531 -1.6864 -2.1191
 6493TIP3   OH240969   1.289   2.522   2.537  0.2050  0.3140 -0.0409
 6493TIP3    H140970   1.334   2.450   2.493 -0.0422  0.5161 -0.6240
 6493TIP3    H240971   1.291   2.594   2.475 -2.0069 -0.0426 -0.6141
 6494TIP3   OH240972   2.265   1.112  13.315  0.0113 -0.3854  0.2670
 6494TIP3    H140973   2.321   1.177  13.273  0.9862 -0.2890  1.6255
 6494TIP3    H240974   2.266   1.137  13.408 -0.4335 -1.7292  0.6513
 6495TIP3   OH240975   1.006   2.819   3.437 -0.5443  0.0587  0.0052
 6495TIP3    H140976   0.954   2.894   3.408 -1.3972 -0.1426  0.9340
 6495TIP3    H240977   1.005   2.758   3.363  0.4154  1.0781 -0.8687
 6496TIP3   OH240978   2.391   2.374  11.946 -0.7684  0.4672  0.3551
 6496TIP3    H140979   2.302   2.402  11.966 -0.7882  1.0501 -0.5086
 6496TIP3    H240980   2.443   2.403  12.021 -1.5152 -1.1143  1.5451
 6497TIP3   OH240981   6.594   4.657  15.149  0.1785 -0.5484  0.3173
 6497TIP3    H140982   6.510   4.612  15.158 -0.7872  0.7103 -1.6685
 6497TIP3    H240983   6.655   4.603  15.198 -1.6400 -1.8992  1.2390
 6498TIP3   OH240984   0.036   4.204  15.925  0.5619  0.3014 -0.3850
 6498TIP3    H140985   0.088   4.132  15.962  1.4693  0.9537 -0.3601
 6498TIP3    H240986   0.045   4.275  15.988  0.9848  0.9658 -1.1779
 6499TIP3   OH240987   0.666   3.674  16.582 -0.2548 -0.1513 -0.1571
 6499TIP3    H140988   0.643   3.735  16.652 -1.1520 -1.7213  0.9816
 6499TIP3    H240989   0.687   3.592  16.628  2.5924 -0.2990 -1.4915
 6500TIP3   OH240990   3.455   1.274   1.237  0.3712 -0.2567 -0.4593
 6500TIP3    H140991   3.464   1.350   1.294 -0.0724  0.3260 -1.1524
 6500TIP3    H240992   3.512   1.208   1.276 -0.2931 -0.0346  0.9188
 6501TIP3   OH240993   0.550   1.309  11.930 -0.3114 -0.5433  0.6259
 6501TIP3    H140994   0.540   1.362  11.852 -0.4930 -0.5267  0.6586
 6501TIP3    H240995   0.620   1.247  11.909 -0.2194 -0.4060  0.5259
 6502TIP3   OH240996   4.295   5.143  15.776  0.5211  0.5324 -0.3357
 6502TIP3    H140997   4.266   5.084  15.846 -2.1059  2.3013  0.2242
 6502TIP3    H240998   4.354   5.089  15.722  0.8315 -1.5719  1.9153
 6503TIP3   OH240999   0.462   4.094   0.536 -0.2998 -0.3826  0.3739
 6503TIP3    H141000   0.422   4.177   0.513  0.4390  0.1449  0.9381
 6503TIP3    H241001   0.412   4.063   0.612  1.5047  1.2423  2.3525
 6504TIP3   OH241002   6.768   1.884   2.211 -0.4988  0.2115 -0.8013
 6504TIP3    H141003   6.794   1.796   2.185  1.6473  1.2493 -2.4514
 6504TIP3    H241004   6.715   1.916   2.138 -0.8026  0.5158 -0.4554
 6505TIP3   OH241005   4.180   4.654  16.772  0.6496  0.4827 -0.0820
 6505TIP3    H141006   4.103   4.598  16.784 -0.8214  2.5308  0.6846
 6505TIP3    H241007   4.251   4.594  16.751 -1.2483 -1.4744 -1.3322
 6506TIP3   OH241008   0.258   3.316   1.553 -0.3694  0.1097  0.0269
 6506TIP3    H141009   0.308   3.272   1.621 -1.7370  0.0295  1.0120
 6506TIP3    H241010   0.240   3.248   1.488 -1.7644 -0.6164  1.1371
 6507TIP3   OH241011   6.260   5.611  15.685 -0.3343 -0.2821  0.6039
 6507TIP3    H141012   6.266   5.644  15.775 -3.1903  2.3326  0.0249
 6507TIP3    H241013   6.205   5.676  15.640  2.2419 -0.5797 -3.4813
 6508TIP3   OH241014   1.543   1.326   2.979  0.1378  0.2844  0.0661
 6508TIP3    H141015   1.608   1.391   2.953  3.0765 -1.9792  1.1513
 6508TIP3    H241016   1.517   1.284   2.897  0.6440  0.7414 -0.3359
 6509TIP3   OH241017   3.007   3.782  11.896 -0.1998 -0.5104 -0.0290
 6509TIP3    H141018   3.024   3.738  11.979  1.2636 -0.4762 -0.2797
 6509TIP3    H241019   3.054   3.729  11.831 -0.6234 -0.0613 -0.7197
 6510TIP3   OH241020   4.505   2.415  14.641  0.0882  0.0865 -0.1031
 6510TIP3    H141021   4.410   2.407  14.650  0.0678 -0.5879 -0.7784
 6510TIP3    H241022   4.518   2.486  14.579  0.0547  0.6940  0.5739
 6511TIP3   OH241023   1.340   4.432  12.048 -0.6397  0.5040 -0.2217
 6511TIP3    H141024   1.382   4.351  12.078 -1.7245 -0.2823 -0.7214
 6511TIP3    H241025   1.320   4.480  12.128 -0.0054  0.2595  0.0862
 6512TIP3   OH241026   2.525   1.906  10.809  0.2651  0.0667  0.3172
 6512TIP3    H141027   2.604   1.875  10.763  0.5111  0.9146  0.1414
 6512TIP3    H241028   2.503   1.836  10.870  1.7481  0.2241  1.0867
 6513TIP3   OH241029   6.588   0.086   6.493  0.1084 -0.1310 -0.2135
 6513TIP3    H141030   6.571   0.031   6.570  0.1955 -1.1722 -0.9255
 6513TIP3    H241031   6.503   0.126   6.474 -0.3799 -1.3685 -0.7172
 6514TIP3   OH241032   6.002   6.434  12.530  0.5872  0.3897 -0.3754
 6514TIP3    H141033   6.079   6.487  12.550  0.8735  0.1848 -0.9349
 6514TIP3    H241034   6.008   6.359  12.590  1.9786 -0.7351 -1.8396
 6515TIP3   OH241035   6.109   3.757  15.981  0.1584 -0.3590  0.0086
 6515TIP3    H141036   6.171   3.723  16.046  0.4860  0.4081  0.1076
 6515TIP3    H241037   6.093   3.683  15.922 -0.6677 -1.2882  1.3321
 6516TIP3   OH241038   4.756   1.280   3.061 -0.6667 -0.1856  0.7467
 6516TIP3    H141039   4.708   1.233   3.129 -0.3492 -1.7518 -0.0511
 6516TIP3    H241040   4.696   1.281   2.986 -0.0284 -0.9107  0.1990
 6517TIP3   OH241041   0.259   6.560  12.478 -0.2344 -0.2485 -0.6003
 6517TIP3    H141042   0.251   6.517  12.562 -1.1227  0.7381 -0.1574
 6517TIP3    H241043   0.187   6.525  12.426  0.4782 -1.0672 -1.0738
 6518TIP3   OH241044   1.575   4.033   5.797  0.1291 -0.0328  0.4241
 6518TIP3    H141045   1.647   4.044   5.735  0.0755 -0.0004  0.3676
 6518TIP3    H241046   1.501   4.004   5.744  0.0641  0.0596  0.4620
 6519TIP3   OH241047   0.289   4.615   3.038  0.3096  0.6133  0.0185
 6519TIP3    H141048   0.284   4.617   2.942  1.1189  0.1586 -0.0415
 6519TIP3    H241049   0.206   4.575   3.064  0.7564 -0.8200 -0.5991
 6520TIP3   OH241050   5.096   1.231  17.016 -0.0455 -0.0340  0.1327
 6520TIP3    H141051   5.159   1.298  17.045  0.6254 -0.7023  0.2699
 6520TIP3    H241052   5.053   1.203  17.096 -1.1923  1.0550 -0.0656
 6521TIP3   OH241053   2.682   6.656  16.876  0.1112  0.5121  0.5954
 6521TIP3    H141054   2.753   6.638  16.938  0.3534 -1.2567 -0.1473
 6521TIP3    H241055   2.603   6.629  16.922  0.0697  1.0567  0.8533
 6522TIP3   OH241056   0.517   0.378  16.532 -0.0661 -0.0995 -0.1984
 6522TIP3    H141057   0.612   0.383  16.539  0.0318 -2.0557  0.2907
 6522TIP3    H241058   0.501   0.304  16.473 -1.2783  2.5079 -3.4896
 6523TIP3   OH241059   6.289   6.136   0.657 -0.1366 -0.1433  0.7236
 6523TIP3    H141060   6.355   6.168   0.595 -0.6709  0.5195  0.4778
 6523TIP3    H241061   6.308   6.183   0.738  0.7407 -1.2229  1.1658
 6524TIP3   OH241062   6.024   0.324  16.968  0.0281  0.1677  0.1074
 6524TIP3    H141063   6.003   0.360  17.054  0.6997  2.1265 -0.5086
 6524TIP3    H241064   6.049   0.400  16.915  0.8700 -1.1377 -1.4565
 6525TIP3   OH241065   1.466   4.243  12.420  0.4798  0.0826 -0.1497
 6525TIP3    H141066   1.388   4.231  12.367  0.4810  1.5024 -0.4983
 6525TIP3    H241067   1.504   4.325  12.390  2.0652 -0.5266  0.0806
 6526TIP3   OH241068   5.503   0.970   5.932  0.2148 -0.0391  0.2380
 6526TIP3    H141069   5.465   1.012   6.009  1.3571  0.5422  0.5180
 6526TIP3    H241070   5.564   1.035   5.898  0.0819 -0.4838 -0.8810
 6527TIP3   OH241071   3.645   6.298   4.974 -0.6823  0.1046  0.2909
 6527TIP3    H141072   3.669   6.243   4.899 -0.0331 -0.3547  0.8235
 6527TIP3    H241073   3.662   6.387   4.945  0.6812 -0.1423  0.2760
 6528TIP3   OH241074   1.866   4.465  13.709  0.2201  0.2974 -0.2206
 6528TIP3    H141075   1.938   4.430  13.762 -1.1031 -1.0535  0.7598
 6528TIP3    H241076   1.818   4.523  13.768  0.2039  0.8021 -0.7223
 6529TIP3   OH241077   4.165   3.290  16.382  0.3615 -0.3068  0.3027
 6529TIP3    H141078   4.078   3.256  16.403  1.4407 -1.5340  3.4112
 6529TIP3    H241079   4.218   3.268  16.458  3.6893 -0.5230 -1.8541
 6530TIP3   OH241080   2.023   4.144  15.717  0.0869 -0.1708 -0.4412
 6530TIP3    H141081   1.987   4.213  15.772  0.5899  1.1478 -1.7113
 6530TIP3    H241082   2.091   4.187  15.666  0.0425 -1.4844 -1.6675
 6531TIP3   OH241083   3.283   2.601  14.396 -0.0192 -0.3124 -0.7826
 6531TIP3    H141084   3.229   2.579  14.472  0.3484  0.4532 -0.2871
 6531TIP3    H241085   3.253   2.542  14.327  0.2283 -1.6286  0.1916
 6532TIP3   OH241086   4.507   1.383  15.150 -0.4438 -0.3450 -0.0350
 6532TIP3    H141087   4.566   1.406  15.079 -0.4712 -0.6764 -0.1679
 6532TIP3    H241088   4.534   1.295  15.177 -1.4748 -0.9201 -0.7539
 6533TIP3   OH241089   3.759   0.997   5.746 -0.0837  0.2877  0.1685
 6533TIP3    H141090   3.793   0.915   5.781  0.5685  0.9380  1.1067
 6533TIP3    H241091   3.791   0.999   5.655  0.6287 -0.0932  0.4042
 6534TIP3   OH241092   6.517   1.092   0.763 -0.1994  0.2269 -0.7853
 6534TIP3    H141093   6.528   1.033   0.688  0.2514 -1.0782  0.2673
 6534TIP3    H241094   6.592   1.073   0.819 -1.2977  0.1245  0.6916
 6535TIP3   OH241095   4.536   0.666  14.488 -0.3564  0.3167  0.0471
 6535TIP3    H141096   4.519   0.576  14.518 -1.2715  0.2061 -0.7558
 6535TIP3    H241097   4.620   0.661  14.443  0.1090  0.0926  0.9189
 6536TIP3   OH241098   5.643   0.499   1.117  0.4857  0.4708  0.1545
 6536TIP3    H141099   5.568   0.502   1.176 -0.4968  0.1814 -1.0348
 6536TIP3    H241100   5.705   0.440   1.159  0.5343  1.5810  1.6962
 6537TIP3   OH241101   5.641   2.043   1.545  0.1681  0.6124 -0.3873
 6537TIP3    H141102   5.571   2.107   1.540 -0.3649  0.1133  0.4748
 6537TIP3    H241103   5.712   2.081   1.493 -0.5161  1.3961 -0.7740
 6538TIP3   OH241104   4.799   0.052  17.138  0.5902  0.1210 -0.2637
 6538TIP3    H141105   4.771   0.039  17.047 -2.6127  2.2935  0.2299
 6538TIP3    H241106   4.857   0.128  17.134  0.6240  0.0866 -0.4757
 6539TIP3   OH241107   1.765   4.079  15.851  0.0034 -0.0979 -0.0722
 6539TIP3    H141108   1.840   4.112  15.800 -0.7913  2.4295  0.2502
 6539TIP3    H241109   1.768   4.129  15.932 -0.9746 -1.3231  0.7410
 6540TIP3   OH241110   2.000   0.478  16.650  0.5802 -0.0583  0.0312
 6540TIP3    H141111   2.055   0.403  16.627  0.4500 -0.5841  1.3426
 6540TIP3    H241112   2.059   0.553  16.647  0.8449 -0.2892 -0.7294
 6541TIP3   OH241113   6.813   0.474   4.857 -0.1499  0.1367  0.0454
 6541TIP3    H141114   6.854   0.465   4.943 -0.0722  0.9381  0.1001
 6541TIP3    H241115   6.829   0.565   4.832  0.8933 -0.4066 -1.3686
 6542TIP3   OH241116   0.756   6.073   3.094 -0.3937 -0.0493  0.0357
 6542TIP3    H141117   0.755   6.067   2.998  1.3228  0.1186 -0.0309
 6542TIP3    H241118   0.704   5.999   3.123 -1.8903  0.5292 -1.0232
 6543TIP3   OH241119   0.989   1.678  11.305  1.0321 -0.8103  0.3496
 6543TIP3    H141120   1.001   1.773  11.305  1.4274 -0.8601  0.0081
 6543TIP3    H241121   1.011   1.651  11.393 -2.1719 -0.2068  1.4896
 6544TIP3   OH241122   0.505   6.236  13.901  0.1328 -0.0571 -0.2339
 6544TIP3    H141123   0.545   6.293  13.835  2.6307  0.4627  1.6029
 6544TIP3    H241124   0.496   6.290  13.979 -1.7486 -0.9583  0.2529
 6545TIP3   OH241125   3.270   6.476  16.078  0.1192  0.0069  0.6676
 6545TIP3    H141126   3.305   6.387  16.077  1.5182  0.5302 -0.0347
 6545TIP3    H241127   3.218   6.482  15.998  0.0201 -0.1744  0.7185
 6546TIP3   OH241128   4.081   1.568  15.795 -0.1210 -0.2347  0.0264
 6546TIP3    H141129   4.020   1.495  15.808  1.8191 -1.6657  1.6982
 6546TIP3    H241130   4.110   1.592  15.883  1.5376  0.5386 -0.6813
 6547TIP3   OH241131   2.774   0.214   3.502  0.1529 -0.5626 -0.2966
 6547TIP3    H141132   2.819   0.208   3.586 -1.0102 -1.1340  0.3091
 6547TIP3    H241133   2.838   0.254   3.443  1.1714 -0.6522  0.7192
 6548TIP3   OH241134   0.671   1.419   5.838 -0.3042 -0.1032  0.0583
 6548TIP3    H141135   0.727   1.353   5.877 -1.4037 -0.6166  0.8442
 6548TIP3    H241136   0.602   1.369   5.794 -1.3056  0.4877  0.8920
 6549TIP3   OH241137   6.196   6.257  12.372  0.5128  0.1244  0.5249
 6549TIP3    H141138   6.113   6.302  12.387  0.5921  0.3347  0.3559
 6549TIP3    H241139   6.215   6.213  12.454 -0.3699 -0.9330  0.1818
 6550TIP3   OH241140   1.021   2.203  13.865  0.8228  0.0153 -0.7432
 6550TIP3    H141141   1.098   2.241  13.907 -0.7465  0.6166  1.7824
 6550TIP3    H241142   1.048   2.114  13.843  1.9521 -0.1458  1.0426
 6551TIP3   OH241143   3.702   0.061   6.107 -0.1918  0.7776  0.1846
 6551TIP3    H141144   3.674  -0.015   6.157 -2.2141  0.7801 -0.8473
 6551TIP3    H241145   3.623   0.092   6.063  0.5454  3.5149  0.5825
 6552TIP3   OH241146   2.593   4.834   1.426  0.0870  0.4746 -0.1881
 6552TIP3    H141147   2.517   4.808   1.374 -0.8345  2.0570  0.3251
 6552TIP3    H241148   2.608   4.926   1.404  0.4266  0.8330  1.4169
 6553TIP3   OH241149   1.522   0.725   2.093 -0.7877 -0.0369 -0.1311
 6553TIP3    H141150   1.569   0.795   2.047 -0.5817 -0.4255 -0.5270
 6553TIP3    H241151   1.435   0.726   2.054 -0.5075 -0.5934 -0.7849
 6554TIP3   OH241152   5.624   3.921   1.928  0.2552 -0.0475  0.0902
 6554TIP3    H141153   5.596   3.920   2.020  2.8513  0.0513  0.9615
 6554TIP3    H241154   5.562   3.979   1.885 -0.4010  0.7632  2.0047
 6555TIP3   OH241155   1.274   0.152  16.599  0.4458  0.3417 -0.2506
 6555TIP3    H141156   1.307   0.103  16.674  0.5848 -0.2993 -0.7253
 6555TIP3    H241157   1.299   0.100  16.523  1.2994  1.5373 -0.8284
 6556TIP3   OH241158   0.804   1.295   4.548 -0.0093  0.0219  0.1833
 6556TIP3    H141159   0.801   1.390   4.554 -1.3497  0.1281 -1.4466
 6556TIP3    H241160   0.738   1.273   4.481 -0.0047 -2.0685  0.7978
 6557TIP3   OH241161   4.062   6.507  13.699 -0.2100 -0.0939 -0.1056
 6557TIP3    H141162   3.993   6.570  13.679  0.3898  0.6795  0.2059
 6557TIP3    H241163   4.136   6.560  13.728 -0.8390 -1.0661  3.8483
 6558TIP3   OH241164   4.661   2.901   6.377  0.6526  0.0133  0.3380
 6558TIP3    H141165   4.644   2.817   6.334  0.6630  0.0497  0.2628
 6558TIP3    H241166   4.598   2.904   6.449 -0.1419  0.4496 -0.3548
 6559TIP3   OH241167   5.016   4.354  14.901 -0.0849  0.4612 -0.0212
 6559TIP3    H141168   5.054   4.416  14.963  0.0745 -0.2441  0.6094
 6559TIP3    H241169   4.973   4.408  14.835  1.7672  1.2812 -0.6183
 6560TIP3   OH241170   5.369   1.716  15.158 -0.6579  0.1884  0.4203
 6560TIP3    H141171   5.372   1.811  15.171  0.7752 -0.1271  2.9628
 6560TIP3    H241172   5.306   1.685  15.223 -1.7562 -0.5820 -0.9533
 6561TIP3   OH241173   4.967   0.143   3.634  0.3973 -0.3781  0.0090
 6561TIP3    H141174   4.907   0.081   3.593  0.2483 -1.3797  1.6612
 6561TIP3    H241175   5.054   0.115   3.608  0.2655 -0.5241 -0.2660
 6562TIP3   OH241176   0.129   2.051  13.821  0.2514 -0.1589  0.8882
 6562TIP3    H141177   0.057   1.989  13.825  2.2995 -2.6581  1.9735
 6562TIP3    H241178   0.105   2.111  13.750 -2.5310 -1.2441  0.7898
 6563TIP3   OH241179   6.036   4.214  16.722 -0.0243  0.8763  0.2735
 6563TIP3    H141180   5.978   4.241  16.650 -0.8038  0.1038  0.5898
 6563TIP3    H241181   6.123   4.245  16.696  0.0245 -0.7933 -1.7784
 6564TIP3   OH241182   5.139   5.975  12.364  0.0946  0.3264  0.3043
 6564TIP3    H141183   5.120   5.983  12.457  0.0342 -0.3473  0.3559
 6564TIP3    H241184   5.180   5.889  12.355 -2.8480 -1.0858 -0.7532
 6565TIP3   OH241185   6.535   0.535   4.861  0.3244 -0.2676 -0.1459
 6565TIP3    H141186   6.617   0.489   4.878  1.0540  1.3372  0.8326
 6565TIP3    H241187   6.473   0.495   4.923  0.5246 -1.0156 -0.4123
 6566TIP3   OH241188   3.818   1.005  13.106  0.6548  0.1819  0.1602
 6566TIP3    H141189   3.814   1.049  13.191 -0.2076  0.5332 -0.0509
 6566TIP3    H241190   3.805   0.913  13.126  2.6367 -0.0504  0.6283
 6567TIP3   OH241191   3.477   1.390  13.440  0.3010 -0.2737 -0.2586
 6567TIP3    H141192   3.449   1.359  13.527  1.7090  2.4438  1.2992
 6567TIP3    H241193   3.396   1.421  13.399 -0.1300  0.4005  1.0229
 6568TIP3   OH241194   6.588   1.849   1.983 -0.0413 -0.0956  0.0469
 6568TIP3    H141195   6.643   1.817   1.912  0.4075  1.0194 -0.1384
 6568TIP3    H241196   6.516   1.895   1.939 -0.0771  0.0966  0.3018
 6569TIP3   OH241197   2.568   3.810  16.379  0.4748  0.1295  0.3759
 6569TIP3    H141198   2.475   3.830  16.387 -0.1099 -2.1740 -0.0482
 6569TIP3    H241199   2.608   3.893  16.352 -1.4640  1.1141  0.3686
 6570TIP3   OH241200   5.008   0.077   6.685  0.0750 -0.3944  0.1513
 6570TIP3    H141201   5.074   0.128   6.640  0.2154 -0.2508  0.5172
 6570TIP3    H241202   5.056   0.003   6.723  0.0938 -0.0870  0.7368
 6571TIP3   OH241203   4.429   0.872  12.791 -0.5245 -0.1690  0.1605
 6571TIP3    H141204   4.487   0.944  12.765 -0.0343 -0.4136  0.5661
 6571TIP3    H241205   4.412   0.825  12.710  0.8988 -0.8545  0.2335
 6572TIP3   OH241206   5.609   6.197   2.882 -0.4509  0.3573 -0.7120
 6572TIP3    H141207   5.531   6.161   2.925 -0.5822  0.9341 -0.4614
 6572TIP3    H241208   5.651   6.121   2.841 -0.6644 -0.1004 -0.0961
 6573TIP3   OH241209   1.140   5.071  15.788 -0.0881 -0.5440 -0.3381
 6573TIP3    H141210   1.166   5.018  15.863 -1.3088 -0.8760 -0.1245
 6573TIP3    H241211   1.212   5.061  15.725  0.3673 -1.2727  0.2850
 6574TIP3   OH241212   0.197   4.674  13.989  0.5980 -0.1667 -0.0944
 6574TIP3    H141213   0.258   4.712  14.053  0.5406 -1.2311  0.6135
 6574TIP3    H241214   0.244   4.676  13.906  0.0636  2.8179 -0.4360
 6575TIP3   OH241215   4.158   6.756  11.208 -0.0090  0.4495 -0.0873
 6575TIP3    H141216   4.178   6.842  11.245  0.7740  1.2071 -2.1650
 6575TIP3    H241217   4.111   6.775  11.127  0.0319 -1.0963 -0.5043
 6576TIP3   OH241218   5.062   0.908   5.651  0.3656 -0.0179  0.2805
 6576TIP3    H141219   5.136   0.943   5.701 -0.4119  0.0178  1.4349
 6576TIP3    H241220   5.026   0.839   5.706 -0.5446  0.0547 -0.2061
 6577TIP3   OH241221   1.788   1.966  12.184 -0.2324  0.3558  0.0268
 6577TIP3    H141222   1.728   1.951  12.257 -1.4883 -0.3029 -1.0854
 6577TIP3    H241223   1.775   1.890  12.126  2.0264 -0.0398 -0.0624
 6578TIP3   OH241224   6.324   6.423  13.333 -0.4054  0.3779  0.2019
 6578TIP3    H141225   6.268   6.414  13.256  0.2491  1.4790 -0.4360
 6578TIP3    H241226   6.274   6.479  13.393 -0.2953  0.7917 -0.0820
 6579TIP3   OH241227   4.170   1.498   1.939  0.5430  0.0361  0.0046
 6579TIP3    H141228   4.264   1.510   1.951  0.5387  1.0964 -0.9096
 6579TIP3    H241229   4.163   1.430   1.872  0.5925 -2.2079  2.1199
 6580TIP3   OH241230   0.107   1.897   4.086  0.1471 -0.4953 -0.3279
 6580TIP3    H141231   0.114   1.992   4.096 -0.0735 -0.5304  0.1691
 6580TIP3    H241232   0.172   1.862   4.147  0.6300 -0.6558 -0.9210
 6581TIP3   OH241233   3.262   4.948  16.525 -0.1122  0.3273  0.1812
 6581TIP3    H141234   3.247   4.950  16.620 -3.0418  0.0971 -0.1824
 6581TIP3    H241235   3.292   5.036  16.504  3.6443 -0.4451  1.6403
 6582TIP3   OH241236   3.023   0.643  15.640 -0.1571 -0.4990 -0.0070
 6582TIP3    H141237   3.071   0.622  15.719 -0.9511 -0.0818  0.6037
 6582TIP3    H241238   2.933   0.656  15.670 -0.4557 -0.2807 -0.9708
 6583TIP3   OH241239   0.328   6.439   0.054 -0.4067  0.0625 -0.5343
 6583TIP3    H141240   0.384   6.515   0.044 -2.1585  1.5416  0.4130
 6583TIP3    H241241   0.239   6.473   0.047 -1.2476 -2.0088 -0.7602
 6584TIP3   OH241242   0.558   0.705  13.964  0.1157  0.1522 -0.2476
 6584TIP3    H141243   0.463   0.716  13.966  0.2532  1.3244  0.5038
 6584TIP3    H241244   0.592   0.794  13.972  1.2901 -0.3341  0.2382
 6585TIP3   OH241245   0.429   3.524   2.474 -0.2339 -0.3010 -0.3196
 6585TIP3    H141246   0.429   3.478   2.559  0.3080 -0.1566 -0.2367
 6585TIP3    H241247   0.338   3.548   2.460 -0.1278  0.9243  0.9052
 6586TIP3   OH241248   0.316   4.745  14.606  0.0401 -0.2223  0.4000
 6586TIP3    H141249   0.301   4.752  14.700  0.4686  0.6515  0.4205
 6586TIP3    H241250   0.375   4.671  14.596 -1.4192 -1.4602  0.6361
 6587TIP3   OH241251   0.609   4.658   0.202 -0.1758 -0.2563 -0.2350
 6587TIP3    H141252   0.704   4.673   0.198 -0.2495  0.4716  0.6379
 6587TIP3    H241253   0.589   4.654   0.295 -0.8820 -1.2954 -0.4075
 6588TIP3   OH241254   2.804   4.804  16.834  0.4761 -0.3844  0.1590
 6588TIP3    H141255   2.868   4.749  16.879 -0.7652 -1.9248  0.1471
 6588TIP3    H241256   2.780   4.753  16.757  0.9325  1.2221 -1.1159
 6589TIP3   OH241257   2.179   3.945  15.461 -0.3703  0.1687  0.4413
 6589TIP3    H141258   2.102   3.932  15.517 -0.1727 -1.1131  0.4311
 6589TIP3    H241259   2.186   3.864  15.411  1.2328  0.1069  0.7246
 6590TIP3   OH241260   2.423   2.764   0.198 -0.0704 -0.2977 -0.4113
 6590TIP3    H141261   2.446   2.700   0.131 -1.3943 -1.8310  0.5194
 6590TIP3    H241262   2.496   2.762   0.260  0.3980 -0.0733 -0.9493
 6591TIP3   OH241263   3.177   0.449  14.136  0.0242 -0.1156 -0.2113
 6591TIP3    H141264   3.157   0.441  14.230 -1.2984  0.3053 -0.4366
 6591TIP3    H241265   3.118   0.386  14.094  0.7889 -0.4842 -0.7501
 6592TIP3   OH241266   5.154   5.050  11.926 -0.1819  0.6457  0.1289
 6592TIP3    H141267   5.185   5.078  12.012 -0.5329  0.1118  0.4380
 6592TIP3    H241268   5.225   5.072  11.866  0.5929 -0.0953  0.7437
 6593TIP3   OH241269   4.728   0.827  10.474  0.2689  0.0701  0.2643
 6593TIP3    H141270   4.645   0.842  10.430  0.2472 -2.3786 -0.7534
 6593TIP3    H241271   4.706   0.772  10.549  0.9133 -0.3041  0.1889
 6594TIP3   OH241272   3.490   0.183  14.377  0.1612 -0.0740 -0.1709
 6594TIP3    H141273   3.403   0.225  14.377  0.2231  0.0524  0.0071
 6594TIP3    H241274   3.550   0.253  14.351  0.3983  0.2227  1.1341
 6595TIP3   OH241275   4.438   1.685  17.060  0.6213  0.4570 -0.4579
 6595TIP3    H141276   4.393   1.622  17.003  2.2199  0.6189 -1.9692
 6595TIP3    H241277   4.367   1.733  17.103 -0.6825  0.4419 -2.4634
 6596TIP3   OH241278   3.931   1.970  11.112  0.0409 -0.4796  0.1205
 6596TIP3    H141279   4.016   1.932  11.089  0.5413  0.6087  0.1103
 6596TIP3    H241280   3.867   1.909  11.075  0.6887 -3.1790  3.0108
 6597TIP3   OH241281   1.685   1.431   2.075  0.2354 -0.3707 -0.0089
 6597TIP3    H141282   1.724   1.417   1.988 -0.0216 -0.6224 -0.0847
 6597TIP3    H241283   1.647   1.519   2.070 -0.6585 -0.7721 -0.4895
 6598TIP3   OH241284   5.522   1.770  16.301  0.2760 -0.4553 -0.2288
 6598TIP3    H141285   5.563   1.834  16.361 -2.1363 -0.5558  1.6962
 6598TIP3    H241286   5.468   1.716  16.358 -0.7372 -1.7708 -2.3323
 6599TIP3   OH241287   1.510   3.605   3.143  0.5261 -0.6440  0.3987
 6599TIP3    H141288   1.468   3.528   3.104  0.8368  0.2660 -1.8877
 6599TIP3    H241289   1.471   3.612   3.230 -1.7049 -1.6777 -0.4287
 6600TIP3   OH241290   3.567   0.931   3.113 -0.2692  0.1589 -0.0876
 6600TIP3    H141291   3.532   0.860   3.059 -1.1677  1.3963 -1.2026
 6600TIP3    H241292   3.572   1.006   3.053  0.4809  1.0842  1.1004
 6601TIP3   OH241293   0.719   2.291   5.772 -0.2242  0.0399  0.0082
 6601TIP3    H141294   0.805   2.253   5.755  0.8129  1.5696  1.5482
 6601TIP3    H241295   0.720   2.375   5.726 -2.1825 -1.2063 -2.6534
 6602TIP3   OH241296   3.553   4.447  12.010  0.1575 -0.0557 -0.0068
 6602TIP3    H141297   3.476   4.416  11.963  0.2642 -0.4814  0.0931
 6602TIP3    H241298   3.600   4.367  12.035  1.0938  0.2230 -0.8300
 6603TIP3   OH241299   6.050   2.777   2.764  0.1288  0.1164  0.5911
 6603TIP3    H141300   6.074   2.760   2.673 -1.3557  0.9873  0.0017
 6603TIP3    H241301   6.081   2.866   2.781 -1.3305  0.7157  0.2680
 6604TIP3   OH241302   3.848   5.976  15.301 -0.1904 -0.4946  0.0379
 6604TIP3    H141303   3.850   6.009  15.390  0.7769  0.2313 -0.2393
 6604TIP3    H241304   3.938   5.946  15.284 -0.6944 -1.9371 -0.2169
 6605TIP3   OH241305   1.530   1.991  14.042 -0.1421 -0.1790 -0.0790
 6605TIP3    H141306   1.523   2.086  14.027 -0.0622 -0.2715 -0.7314
 6605TIP3    H241307   1.454   1.954  13.998 -0.3793 -0.3914  0.5029
 6606TIP3   OH241308   4.422   0.038  12.447  0.1206 -0.2501 -0.0582
 6606TIP3    H141309   4.508   0.055  12.486 -0.3429  0.4779  0.6920
 6606TIP3    H241310   4.437   0.040  12.352  0.9483 -0.2647  0.0702
 6607TIP3   OH241311   6.560   0.794   4.259 -0.4807 -0.5043 -0.3476
 6607TIP3    H141312   6.572   0.777   4.166 -0.9256  1.5816 -0.8415
 6607TIP3    H241313   6.640   0.839   4.286 -0.7767 -0.1842  0.0175
 6608TIP3   OH241314   0.838   0.530   2.040 -0.6707 -0.3401 -0.7341
 6608TIP3    H141315   0.815   0.621   2.056 -0.9045  0.3816 -4.4004
 6608TIP3    H241316   0.932   0.526   2.058 -0.6523  0.6260 -0.5583
 6609TIP3   OH241317   2.204   0.194  13.466 -0.0030 -0.3343 -0.3474
 6609TIP3    H141318   2.151   0.240  13.402  1.1860 -0.5676 -1.5419
 6609TIP3    H241319   2.147   0.125  13.499 -1.5077  1.3560  0.8110
 6610TIP3   OH241320   4.317   2.192  16.232  0.5654  0.5868  0.9313
 6610TIP3    H141321   4.319   2.153  16.145  0.8718  2.2506  0.1569
 6610TIP3    H241322   4.409   2.191  16.261  0.5114  0.3396  1.0972
 6611TIP3   OH241323   3.020   4.022   3.321 -0.4778 -0.2328  0.0150
 6611TIP3    H141324   3.039   3.930   3.305 -0.3806 -0.2776  0.3703
 6611TIP3    H241325   3.105   4.066   3.315  0.0863 -0.6484  3.1018
 6612TIP3   OH241326   5.792   0.886   2.661 -0.5523 -0.3606  0.6560
 6612TIP3    H141327   5.867   0.941   2.686  0.7821 -1.2593 -1.1569
 6612TIP3    H241328   5.726   0.948   2.629  0.9905  0.2955 -1.5058
 6613TIP3   OH241329   6.092   2.309  14.124  0.3392  0.5451 -0.0031
 6613TIP3    H141330   6.057   2.311  14.035 -1.5382 -0.6179  0.6697
 6613TIP3    H241331   6.178   2.268  14.115 -0.1798 -0.3324 -1.1730
 6614TIP3   OH241332   2.280   5.649  10.606  0.1856 -0.3186  0.2219
 6614TIP3    H141333   2.278   5.563  10.647  0.1352 -1.3886 -1.9246
 6614TIP3    H241334   2.190   5.665  10.577  0.4900 -0.2284 -0.7096
 6615TIP3   OH241335   5.644   2.108   0.596 -0.2840 -0.0121  0.0182
 6615TIP3    H141336   5.684   2.021   0.593 -0.1195  0.0851 -1.4035
 6615TIP3    H241337   5.718   2.167   0.611  0.1212  0.1209 -2.1104
 6616TIP3   OH241338   0.170   2.672  11.915 -0.6376  0.0044 -0.4219
 6616TIP3    H141339   0.185   2.590  11.962  0.5836 -0.2993 -1.2933
 6616TIP3    H241340   0.131   2.646  11.831 -1.9171  0.4726 -0.0032
 6617TIP3   OH241341   0.089   1.800  13.498  0.2370  0.0144 -0.0852
 6617TIP3    H141342   0.165   1.758  13.458 -0.5776 -1.5980 -0.0247
 6617TIP3    H241343   0.114   1.892  13.506  2.0540 -0.4142 -0.3424
 6618TIP3   OH241344   0.741   4.887  14.085 -0.3097 -0.2970  0.2888
 6618TIP3    H141345   0.699   4.860  14.167 -0.6352  2.2683  1.0700
 6618TIP3    H241346   0.802   4.956  14.112 -0.0724  0.2633 -1.5827
 6619TIP3   OH241347   4.967   3.246   2.463  0.3437 -0.4180 -0.2544
 6619TIP3    H141348   5.023   3.296   2.404 -0.7288 -0.8796 -1.7221
 6619TIP3    H241349   4.930   3.177   2.408 -2.8880  0.7849  0.2247
 6620TIP3   OH241350   6.387   3.830  11.699 -0.2987 -0.3726 -0.3077
 6620TIP3    H141351   6.414   3.909  11.652  0.7116 -1.4919 -1.7171
 6620TIP3    H241352   6.292   3.828  11.689 -0.4827  1.2040  0.6994
 6621TIP3   OH241353   1.517   3.957   3.202  0.9382 -0.1521  0.3188
 6621TIP3    H141354   1.558   4.002   3.128 -0.0334  0.9663  0.4229
 6621TIP3    H241355   1.518   4.022   3.273  0.5219 -0.6846  0.8212
 6622TIP3   OH241356   1.728   4.069  13.074 -0.2651 -0.1351  0.1204
 6622TIP3    H141357   1.792   4.068  13.004 -1.2351  0.2204 -0.8044
 6622TIP3    H241358   1.742   4.152  13.119 -1.0920  0.6951 -1.0859
 6623TIP3   OH241359   6.447   3.860  15.666 -0.8379  0.3094  0.4853
 6623TIP3    H141360   6.413   3.864  15.576  1.2927  0.9665 -0.3525
 6623TIP3    H241361   6.383   3.910  15.717 -2.2960 -0.3969 -0.5746
 6624TIP3   OH241362   6.379   3.673   2.224  0.2144 -0.4219 -0.9186
 6624TIP3    H141363   6.434   3.606   2.265  1.5665  1.1156 -0.0923
 6624TIP3    H241364   6.430   3.754   2.231 -2.3945  1.2492  0.4836
 6625TIP3   OH241365   3.053   2.309  13.577  0.2119 -0.4435 -0.0977
 6625TIP3    H141366   3.064   2.358  13.496  1.7256 -0.1305  0.2489
 6625TIP3    H241367   3.084   2.369  13.645  1.1917 -1.5041  0.4358
 6626TIP3   OH241368   5.873   2.824   3.355 -0.7089  0.4840 -0.5154
 6626TIP3    H141369   5.866   2.738   3.315 -1.4594 -0.7326  2.0396
 6626TIP3    H241370   5.851   2.810   3.447  1.7657  2.9111  0.5998
 6627TIP3   OH241371   1.606   0.189  17.019  0.2677 -0.3078 -0.3052
 6627TIP3    H141372   1.551   0.261  16.988  1.9990  2.5402  2.5968
 6627TIP3    H241373   1.546   0.130  17.064 -1.1825 -0.7453 -2.6176
 6628TIP3   OH241374   1.414   3.856  13.639 -0.3945 -0.5149 -0.3516
 6628TIP3    H141375   1.359   3.934  13.649  1.8641  0.9552  1.5675
 6628TIP3    H241376   1.364   3.786  13.681 -1.1778  0.5812  0.6133
 6629TIP3   OH241377   6.691   6.160  15.705 -0.4177  0.1834  0.0097
 6629TIP3    H141378   6.698   6.132  15.797 -0.7795  0.8300  0.2447
 6629TIP3    H241379   6.660   6.250  15.711 -0.9430  0.0612 -0.7655
 6630TIP3   OH241380   3.446   5.137  13.994 -0.2058  0.0254 -0.7874
 6630TIP3    H141381   3.480   5.226  13.990  0.3194 -0.2090 -1.7877
 6630TIP3    H241382   3.353   5.148  14.017  0.0235  0.7767 -0.1696
 6631TIP3   OH241383   3.368   6.760   0.032 -0.7484  0.0522 -0.1394
 6631TIP3    H141384   3.348   6.852   0.015 -0.8961 -0.2889 -2.1481
 6631TIP3    H241385   3.460   6.750   0.006 -1.8183 -1.1593 -4.2574
 6632TIP3   OH241386   0.122   4.615  13.344  0.1919 -0.1542 -0.1002
 6632TIP3    H141387   0.175   4.653  13.274  0.2057 -0.2211 -0.1262
 6632TIP3    H241388   0.038   4.597  13.303  0.2222 -0.2560 -0.1166
 6633TIP3   OH241389   1.211   3.480  14.478 -0.1906  0.5890 -0.0147
 6633TIP3    H141390   1.240   3.523  14.558 -0.5237  1.5685 -0.3998
 6633TIP3    H241391   1.274   3.509  14.412 -0.6250  0.7743 -0.3516
 6634TIP3   OH241392   1.223   5.622   5.125 -0.9051 -0.0598  0.2434
 6634TIP3    H141393   1.302   5.579   5.091 -0.7662  0.2282  0.1994
 6634TIP3    H241394   1.255   5.704   5.163 -1.3626  0.7494 -1.0815
 6635TIP3   OH241395   0.046   0.088   0.704 -0.0538 -0.1744 -0.5027
 6635TIP3    H141396   0.081   0.133   0.627 -1.4802 -2.8334 -2.8917
 6635TIP3    H241397  -0.046   0.115   0.708 -0.3069 -1.0111 -0.5281
 6636TIP3   OH241398   0.493   2.890   0.845  0.8084  0.2425  0.0566
 6636TIP3    H141399   0.566   2.928   0.894  0.8084  0.6757 -0.2783
 6636TIP3    H241400   0.464   2.960   0.787 -0.2036  0.2525  0.5434
 6637TIP3   OH241401   6.325   5.425   4.526 -0.9864 -0.4690 -0.1213
 6637TIP3    H141402   6.270   5.347   4.520  0.9892 -1.9038 -0.4202
 6637TIP3    H241403   6.370   5.417   4.610 -0.5578  0.2084 -0.2765
 6638TIP3   OH241404   0.149   1.557  11.717  0.3524  0.6182 -0.1389
 6638TIP3    H141405   0.073   1.521  11.670  0.3268  0.3877  0.0797
 6638TIP3    H241406   0.179   1.485  11.772  1.0775  0.5178 -0.6449
 6639TIP3   OH241407   1.359   2.684  11.928  0.2135 -0.2155  0.0195
 6639TIP3    H141408   1.339   2.670  12.020 -0.8090  0.5213 -0.0715
 6639TIP3    H241409   1.292   2.633  11.881 -0.6906  1.1917 -0.2935
 6640TIP3   OH241410   5.651   4.972  12.130 -0.2310  0.2617  0.4726
 6640TIP3    H141411   5.673   4.886  12.166  2.0135 -0.1488 -1.6324
 6640TIP3    H241412   5.691   5.034  12.190 -0.9054 -0.1882  1.4057
 6641TIP3   OH241413   1.981   0.017  11.181 -0.1233 -0.0252  0.1380
 6641TIP3    H141414   2.007  -0.030  11.102 -0.2078  2.6814 -1.6143
 6641TIP3    H241415   2.064   0.046  11.220 -0.1369  2.0288 -1.2237
 6642TIP3   OH241416   2.707   3.066  12.759  0.0202 -0.1381  0.3110
 6642TIP3    H141417   2.642   3.057  12.690  0.3210  1.2387 -0.1865
 6642TIP3    H241418   2.771   3.127  12.724  1.2375 -0.9529  1.0534
 6643TIP3   OH241419   0.317   3.644  15.699  0.2967  0.2542  0.3391
 6643TIP3    H141420   0.263   3.572  15.667  0.1265  0.3486  0.4105
 6643TIP3    H241421   0.264   3.685  15.768  0.3716  0.4796  0.2638
 6644TIP3   OH241422   2.141   0.318  10.795 -0.0849  0.1319  0.5315
 6644TIP3    H141423   2.087   0.243  10.821  0.3296  0.6845  3.2614
 6644TIP3    H241424   2.187   0.287  10.717 -1.4077 -1.7471  0.4194
 6645TIP3   OH241425   5.091   5.556   5.658 -0.3626  0.2139 -0.3429
 6645TIP3    H141426   5.081   5.502   5.736 -1.2119  0.4113 -0.3031
 6645TIP3    H241427   5.180   5.592   5.665  0.3335 -1.3738 -0.5143
 6646TIP3   OH241428   5.946   6.636  11.044  0.3393  0.1583 -0.0672
 6646TIP3    H141429   5.960   6.710  11.104  0.2213  1.6116 -1.7388
 6646TIP3    H241430   6.034   6.604  11.023  0.5573  1.3433 -1.0875
 6647TIP3   OH241431   3.938   0.850  11.552  0.2360  0.2164 -0.0184
 6647TIP3    H141432   3.953   0.757  11.570  1.6203  0.5169  0.4657
 6647TIP3    H241433   3.962   0.860  11.460 -0.2867  0.0236 -0.1788
 6648TIP3   OH241434   2.033   0.861   3.655 -0.0860  0.2014  0.2693
 6648TIP3    H141435   1.941   0.844   3.637  0.3300 -2.8834  0.5663
 6648TIP3    H241436   2.078   0.837   3.573  0.6427 -1.1160  1.0130
 6649TIP3   OH241437   4.534   1.724   4.907 -0.2893  0.4446  0.7578
 6649TIP3    H141438   4.623   1.690   4.901 -0.7734 -0.5424 -1.9454
 6649TIP3    H241439   4.545   1.819   4.911  0.9027  0.3705 -0.2871
 6650TIP3   OH241440   4.293   4.539   3.054 -0.3126 -0.2068 -0.2140
 6650TIP3    H141441   4.316   4.446   3.049 -0.1485 -0.3252  1.8243
 6650TIP3    H241442   4.210   4.545   3.006 -0.1431 -1.3414 -0.6872
 6651TIP3   OH241443   2.273   1.273   4.487 -0.0310  0.7241  0.0675
 6651TIP3    H141444   2.354   1.297   4.532 -0.0866 -0.5838  0.9142
 6651TIP3    H241445   2.299   1.258   4.396  0.5459  0.9758  0.1911
 6652TIP3   OH241446   2.305   3.898   5.737  0.1057 -0.3242  0.0657
 6652TIP3    H141447   2.244   3.961   5.778  0.4024 -0.9642  1.5423
 6652TIP3    H241448   2.360   3.952   5.681 -2.3201  0.1934 -2.0176
 6653TIP3   OH241449   4.630   4.244   1.375  0.9577  0.2214 -0.1977
 6653TIP3    H141450   4.552   4.199   1.343  0.9277  0.8655 -1.0504
 6653TIP3    H241451   4.703   4.191   1.342  0.9050  0.4132 -0.6352
 6654TIP3   OH241452   0.477   6.503   3.285 -0.4851 -0.3173 -0.1894
 6654TIP3    H141453   0.508   6.573   3.229  1.4493 -0.1559  0.9853
 6654TIP3    H241454   0.556   6.460   3.317 -1.4634 -0.4333  2.3354
 6655TIP3   OH241455   0.088   6.788   2.922  0.0811 -0.4350 -0.3695
 6655TIP3    H141456   0.177   6.781   2.889  1.0319  1.1728  1.6349
 6655TIP3    H241457   0.082   6.722   2.991  0.2540  0.4631  0.5239
 6656TIP3   OH241458   6.127   0.049  15.187 -0.0189 -0.2027 -0.1499
 6656TIP3    H141459   6.186   0.067  15.115  0.5018 -0.5374  0.1879
 6656TIP3    H241460   6.182   0.054  15.265 -0.6395  0.4903  0.2621
 6657TIP3   OH241461   3.197   5.157   3.475  0.1998 -0.1638  0.7337
 6657TIP3    H141462   3.273   5.122   3.522  0.6257  1.3976  1.2701
 6657TIP3    H241463   3.132   5.086   3.478  1.6497 -1.5850  0.1554
 6658TIP3   OH241464   6.421   5.474  10.706  0.4553  0.2021  0.0600
 6658TIP3    H141465   6.371   5.524  10.771 -1.1625  0.6408 -1.4187
 6658TIP3    H241466   6.376   5.390  10.700  1.8950 -0.6604  1.0175
 6659TIP3   OH241467   6.442   5.388   1.574 -0.6429  0.8254 -0.1386
 6659TIP3    H141468   6.373   5.413   1.513 -1.0217 -2.1377 -1.0641
 6659TIP3    H241469   6.396   5.344   1.646  0.2225 -2.2425 -1.3230
 6660TIP3   OH241470   1.907   1.185  10.721 -0.1326 -0.2429 -0.0603
 6660TIP3    H141471   1.998   1.195  10.694  0.0861 -0.6429  0.5012
 6660TIP3    H241472   1.872   1.274  10.723  0.4951 -0.0041  0.5586
 6661TIP3   OH241473   2.707   3.613  10.727  0.2276  0.1365  0.3067
 6661TIP3    H141474   2.705   3.580  10.637 -0.2051  0.9052  0.0159
 6661TIP3    H241475   2.771   3.684  10.725  0.0717  0.2859  0.5516
 6662TIP3   OH241476   3.548   4.438  15.879 -0.1084 -0.4648  0.0411
 6662TIP3    H141477   3.603   4.374  15.925 -1.0593  0.4633  2.6126
 6662TIP3    H241478   3.574   4.522  15.915 -0.6978  0.3766 -1.4020
 6663TIP3   OH241479   1.562   5.702  13.231  0.3693 -0.0640 -0.7461
 6663TIP3    H141480   1.472   5.718  13.203  0.2758  0.3100 -0.2495
 6663TIP3    H241481   1.597   5.642  13.166 -0.3170 -0.3990 -0.8163
 6664TIP3   OH241482   3.228   0.473  13.124  0.0941 -0.4067  0.3298
 6664TIP3    H141483   3.216   0.560  13.088  0.4630 -0.6627 -0.4228
 6664TIP3    H241484   3.277   0.425  13.057 -0.2561 -1.2424  0.6556
 6665TIP3   OH241485   3.301   1.197  14.374  0.1254  0.2763 -0.3286
 6665TIP3    H141486   3.251   1.180  14.294  0.8424 -1.3904 -0.4613
 6665TIP3    H241487   3.366   1.127  14.377  1.9147  1.8971  0.2848
 6666TIP3   OH241488   4.049   4.363  10.541  0.1458  0.1871  0.0550
 6666TIP3    H141489   4.030   4.310  10.463 -0.3730  1.4983 -0.7368
 6666TIP3    H241490   4.010   4.314  10.613 -0.5592 -0.3792 -0.6941
 6667TIP3   OH241491   5.776   3.604   2.624 -0.0671 -0.1704  0.1440
 6667TIP3    H141492   5.842   3.535   2.618  1.4217  1.3001 -1.2149
 6667TIP3    H241493   5.815   3.670   2.681 -0.8334  0.2352  0.2118
 6668TIP3   OH241494   2.518   2.727  13.407  0.0010 -0.0718 -0.1114
 6668TIP3    H141495   2.530   2.755  13.498  1.1988  0.2515 -0.3451
 6668TIP3    H241496   2.603   2.690  13.382 -0.7878 -1.6289 -0.6142
 6669TIP3   OH241497   0.498   4.499   6.052  0.1460  0.7841  0.7521
 6669TIP3    H141498   0.574   4.441   6.059 -0.4432 -0.2467 -0.7302
 6669TIP3    H241499   0.447   4.483   6.131  0.3825 -0.1699  0.7236
 6670TIP3   OH241500   2.079   2.566   1.291 -0.2615 -0.5103  0.4911
 6670TIP3    H141501   2.101   2.473   1.279 -2.7040 -1.2192  0.9112
 6670TIP3    H241502   2.160   2.612   1.270  0.8893 -2.6935 -0.2764
 6671TIP3   OH241503   1.899   4.322   2.802 -0.2601 -0.0741  0.0041
 6671TIP3    H141504   1.931   4.246   2.850 -1.5483 -0.8896 -0.3571
 6671TIP3    H241505   1.977   4.373   2.781  0.7336 -1.6959 -0.3986
 6672TIP3   OH241506   0.873   1.307  13.154  0.0386  0.3010 -0.0544
 6672TIP3    H141507   0.886   1.394  13.191 -2.6204  1.0887 -0.7771
 6672TIP3    H241508   0.866   1.322  13.060  0.0609 -0.7679 -0.2336
 6673TIP3   OH241509   1.804   3.122   1.596 -0.3720 -0.0939 -0.0270
 6673TIP3    H141510   1.899   3.116   1.599 -0.1801  0.6378 -2.3296
 6673TIP3    H241511   1.786   3.216   1.596 -0.9756 -0.1919 -0.8944
 6674TIP3   OH241512   6.471   5.489   3.362  0.6035 -0.2397 -0.8891
 6674TIP3    H141513   6.538   5.434   3.403 -0.6731 -1.5002 -0.4219
 6674TIP3    H241514   6.441   5.439   3.287 -0.1276  0.0966 -0.8293
 6675TIP3   OH241515   0.644   0.911  11.204  0.1677  0.1873 -0.9256
 6675TIP3    H141516   0.718   0.900  11.144  0.8696  1.4347 -0.3343
 6675TIP3    H241517   0.679   0.967  11.274 -0.7133 -0.9506  0.4841
 6676TIP3   OH241518   1.726   3.346   5.952  0.2339 -0.4644  0.1246
 6676TIP3    H141519   1.734   3.440   5.967 -0.4816 -0.4806  0.6867
 6676TIP3    H241520   1.694   3.338   5.862  0.3983 -0.1797  0.0404
 6677TIP3   OH241521   2.679   5.051  14.448 -0.4156 -0.4705  0.5461
 6677TIP3    H141522   2.741   5.123  14.434 -0.9046 -0.3808 -1.4393
 6677TIP3    H241523   2.690   5.028  14.540  0.5183  1.4357  0.9710
 6678TIP3   OH241524   2.736   4.564  14.029  0.6987 -0.3857 -0.4009
 6678TIP3    H141525   2.651   4.542  13.991  0.7013  1.7992 -1.8265
 6678TIP3    H241526   2.799   4.549  13.959  1.4614 -1.4625  0.4786
 6679TIP3   OH241527   2.471   2.717  10.908 -0.3939 -0.3140  0.3627
 6679TIP3    H141528   2.492   2.804  10.942  0.8759 -0.5497  0.2330
 6679TIP3    H241529   2.411   2.734  10.835  1.5370  0.6691 -1.0945
 6680TIP3   OH241530   4.373   3.911   2.461  0.4239 -0.1609 -0.7958
 6680TIP3    H141531   4.418   3.849   2.405 -0.6393 -1.6910 -0.0184
 6680TIP3    H241532   4.440   3.975   2.485  1.2103 -0.2367 -2.6811
 6681TIP3   OH241533   3.069   4.986  14.994  0.4775 -0.1676  1.2456
 6681TIP3    H141534   3.057   5.060  15.053 -1.7257  0.3685  0.2255
 6681TIP3    H241535   3.106   5.025  14.914 -1.1369 -0.0356  0.5301
 6682TIP3   OH241536   4.877   4.372  14.004  0.5086 -0.0287 -0.2805
 6682TIP3    H141537   4.791   4.414  13.997  0.0460 -0.5383  1.7142
 6682TIP3    H241538   4.878   4.307  13.934 -2.1504 -2.3102  1.5629
 6683TIP3   OH241539   1.549   2.697   4.778 -0.0011  0.6469  0.2205
 6683TIP3    H141540   1.501   2.726   4.700  0.6254 -0.1308 -0.4747
 6683TIP3    H241541   1.547   2.772   4.836 -1.8850  0.7061  0.1369
 6684TIP3   OH241542   2.540   0.191  12.865  0.0257  0.6445 -0.0175
 6684TIP3    H141543   2.566   0.190  12.957 -0.1184 -2.3713  0.1075
 6684TIP3    H241544   2.475   0.261  12.859 -0.3816  0.5451  2.3257
 6685TIP3   OH241545   4.318   6.451  16.757 -0.5797 -0.9916 -0.4973
 6685TIP3    H141546   4.341   6.544  16.756 -1.9364 -0.6383 -1.0401
 6685TIP3    H241547   4.396   6.407  16.792 -0.3864  0.4710  1.0177
 6686TIP3   OH241548   2.730   3.979   3.647 -0.3651 -0.5041  0.3834
 6686TIP3    H141549   2.648   4.003   3.688 -0.8732  1.3475 -1.5048
 6686TIP3    H241550   2.705   3.923   3.574 -0.0471  0.4861 -0.5120
 6687TIP3   OH241551   1.094   4.997  12.500 -0.0216 -0.2782  0.1758
 6687TIP3    H141552   1.035   4.932  12.461 -1.2980  1.5366 -1.0907
 6687TIP3    H241553   1.051   5.025  12.580  1.0605 -1.7003  1.3152
 6688TIP3   OH241554   6.229   0.403   6.028 -0.6571  0.7425 -0.2407
 6688TIP3    H141555   6.188   0.334   5.976 -0.6530 -0.2580  1.0037
 6688TIP3    H241556   6.292   0.356   6.083  0.0575  1.8818 -0.0624
 6689TIP3   OH241557   2.814   4.327   1.963 -0.4632 -0.4224 -0.1875
 6689TIP3    H141558   2.778   4.285   2.041 -2.0215  0.4947 -0.3725
 6689TIP3    H241559   2.835   4.254   1.904  1.0996 -1.1588  1.1747
 6690TIP3   OH241560   6.454   3.138   3.190 -0.1098  0.4663  0.8965
 6690TIP3    H141561   6.376   3.092   3.221 -0.0634 -0.2612 -0.0414
 6690TIP3    H241562   6.526   3.077   3.207 -0.3094 -0.8899 -2.4532
 6691TIP3   OH241563   5.614   3.209   2.888  0.6715 -0.0143  0.5675
 6691TIP3    H141564   5.630   3.146   2.958  0.6751 -0.2015  0.4004
 6691TIP3    H241565   5.558   3.162   2.826  0.3486  0.2816  0.6339
 6692TIP3   OH241566   0.695   4.538  11.962 -0.2969 -0.1266 -0.0067
 6692TIP3    H141567   0.653   4.484  12.029 -0.2821 -0.6685 -0.4279
 6692TIP3    H241568   0.673   4.495  11.880 -3.0805  2.3018 -0.6927
 6693TIP3   OH241569   6.524   5.776   4.932  0.0451 -0.4513 -0.7601
 6693TIP3    H141570   6.533   5.691   4.975 -1.0781  0.1722  0.8058
 6693TIP3    H241571   6.567   5.838   4.991 -1.0276  0.3502 -0.7823
 6694TIP3   OH241572   3.518   6.161   0.257  0.8522  0.1431  0.6065
 6694TIP3    H141573   3.564   6.245   0.266  0.4078  0.4498 -0.0002
 6694TIP3    H241574   3.432   6.176   0.296  0.1560  0.4756 -1.0018
 6695TIP3   OH241575   2.046   2.808   2.315  0.0268  0.5188  0.0444
 6695TIP3    H141576   2.115   2.829   2.378  2.0012 -1.5849 -1.2586
 6695TIP3    H241577   1.992   2.742   2.359 -1.1866  2.1041  1.0332
 6696TIP3   OH241578   2.557   5.941  13.574 -0.5651 -0.3744  0.3810
 6696TIP3    H141579   2.598   5.867  13.618  0.9479  0.2143  0.0344
 6696TIP3    H241580   2.466   5.915  13.562 -0.6652 -1.1736  2.4657
 6697TIP3   OH241581   5.432   4.987  17.016 -0.2927 -0.2114 -0.0334
 6697TIP3    H141582   5.522   5.008  17.038 -0.4832  0.3092  0.2549
 6697TIP3    H241583   5.399   5.064  16.970 -0.6490 -0.3224  0.0291
 6698TIP3   OH241584   5.813   3.500  12.403 -0.1391 -0.1643 -1.1080
 6698TIP3    H141585   5.890   3.558  12.402 -1.4046  1.6242  0.2864
 6698TIP3    H241586   5.759   3.532  12.330 -1.1534  0.9235  0.0813
 6699TIP3   OH241587   3.643   4.456  11.727  0.5096 -0.1799 -0.6572
 6699TIP3    H141588   3.589   4.425  11.800 -0.6131  2.0653 -0.4640
 6699TIP3    H241589   3.731   4.422  11.746  0.7255  1.8982  2.8736
 6700TIP3   OH241590   3.234   0.215  14.802 -0.4444 -0.1706  0.1916
 6700TIP3    H141591   3.319   0.191  14.766  0.0254  1.6884 -0.0306
 6700TIP3    H241592   3.174   0.150  14.767  0.4446  0.0314 -1.8425
 6701TIP3   OH241593   1.401   6.388   2.699 -0.7925 -0.2597  0.0731
 6701TIP3    H141594   1.417   6.371   2.607 -1.1905 -0.9052  0.1207
 6701TIP3    H241595   1.308   6.371   2.711 -0.5366 -1.2568  0.8165
 6702TIP3   OH241596   5.677   1.701   3.170 -0.3340 -0.1224 -0.3844
 6702TIP3    H141597   5.744   1.768   3.182  0.8489 -1.1896 -0.8245
 6702TIP3    H241598   5.659   1.701   3.076 -1.0534  0.2384 -0.2540
 6703TIP3   OH241599   3.072   3.420  11.022 -0.4274 -0.1880  0.5043
 6703TIP3    H141600   3.103   3.492  10.967 -0.1073 -0.3360  0.4917
 6703TIP3    H241601   3.149   3.364  11.035 -0.5639 -0.2913  0.8855
 6704TIP3   OH241602   4.929   1.427   1.345  0.4484 -0.5451  0.5208
 6704TIP3    H141603   5.020   1.399   1.332  0.5421  0.1156 -0.2805
 6704TIP3    H241604   4.901   1.459   1.260 -0.5449 -0.7421  0.7622
 6705TIP3   OH241605   4.890   1.726  12.577  0.0705  0.1749 -0.6392
 6705TIP3    H141606   4.868   1.807  12.624 -1.2288  0.3346 -1.4722
 6705TIP3    H241607   4.957   1.752  12.514  2.0525 -0.0996  1.2347
 6706TIP3   OH241608   0.228   6.434  14.003  0.1262  0.4983 -0.0348
 6706TIP3    H141609   0.309   6.412  14.050  0.0378 -1.4849 -0.7231
 6706TIP3    H241610   0.256   6.487  13.929  1.1271 -1.6918 -1.3400
 6707TIP3   OH241611   1.615   0.260  14.078 -0.5372  0.2235 -0.1564
 6707TIP3    H141612   1.541   0.316  14.057 -1.5464 -1.4181 -1.1897
 6707TIP3    H241613   1.681   0.281  14.012 -1.2264 -0.3327 -1.0485
 6708TIP3   OH241614   1.339   0.674  14.044 -0.0910 -0.4888  0.3573
 6708TIP3    H141615   1.251   0.693  14.075  0.2730  0.3210  0.9590
 6708TIP3    H241616   1.356   0.740  13.977  0.3351 -0.1183  0.8115
 6709TIP3   OH241617   5.594   3.085   0.353  0.4897 -0.6308  0.4720
 6709TIP3    H141618   5.629   3.174   0.353  0.3164 -0.5547  1.0038
 6709TIP3    H241619   5.568   3.069   0.262 -0.6764  0.3428  0.5937
 6710TIP3   OH241620   3.846   5.899  10.624  0.1266 -0.3952  0.7199
 6710TIP3    H141621   3.915   5.844  10.586  0.6241 -0.4472  1.6670
 6710TIP3    H241622   3.768   5.878  10.573  0.9526  0.2041 -0.8759
 6711TIP3   OH241623   1.490   4.792   2.942 -0.1910  0.3972  0.3112
 6711TIP3    H141624   1.491   4.883   2.914  2.0284 -0.0929 -1.5052
 6711TIP3    H241625   1.412   4.755   2.902 -0.6852  1.2994  0.4148
 6712TIP3   OH241626   6.249   3.204   0.324  0.3714  0.0193 -0.2488
 6712TIP3    H141627   6.290   3.118   0.329  0.1255 -0.2089 -1.6561
 6712TIP3    H241628   6.240   3.221   0.230 -0.0270  1.3708  0.0068
 6713TIP3   OH241629   0.449   4.859  11.306  0.0678 -0.4836 -0.6110
 6713TIP3    H141630   0.534   4.904  11.304 -0.2796  0.3476  1.3780
 6713TIP3    H241631   0.423   4.861  11.398 -2.3741 -0.2504 -1.2455
 6714TIP3   OH241632   4.277   1.844  16.357 -0.0522  0.2419  0.1483
 6714TIP3    H141633   4.293   1.813  16.268 -0.5889  1.4985 -0.4035
 6714TIP3    H241634   4.212   1.783  16.392 -0.0032 -0.1280 -0.3962
 6715TIP3   OH241635   4.993   1.430  10.954  0.3445 -0.5096  0.4109
 6715TIP3    H141636   4.933   1.361  10.926 -0.2737 -0.1463  0.8335
 6715TIP3    H241637   4.942   1.510  10.947  1.6122  0.1842 -1.9047
 6716TIP3   OH241638   0.168   2.664  13.677  0.1793  0.2960 -0.3274
 6716TIP3    H141639   0.197   2.722  13.606  0.2084  0.1635 -0.4264
 6716TIP3    H241640   0.104   2.715  13.726 -0.1239  0.2531 -0.6784
 6717TIP3   OH241641   2.578   6.277   3.795 -0.4190 -0.0330  0.4413
 6717TIP3    H141642   2.570   6.372   3.806  0.2458  0.0843 -0.0746
 6717TIP3    H241643   2.537   6.241   3.873  0.5124  0.7091  1.3007
 6718TIP3   OH241644   1.421   4.616   5.516  0.0968 -0.3502 -0.3171
 6718TIP3    H141645   1.416   4.556   5.442 -0.8662 -1.0990  0.3195
 6718TIP3    H241646   1.458   4.563   5.587  3.9561  1.1535 -0.9703
 6719TIP3   OH241647   1.287   3.012   0.909 -0.2025  0.3452 -0.4995
 6719TIP3    H141648   1.354   2.965   0.959 -0.4746  0.5985  0.1158
 6719TIP3    H241649   1.326   3.024   0.822  0.6226  0.6480 -0.1045
 6720TIP3   OH241650   3.203   4.983  15.319  0.0182  0.0911  0.2141
 6720TIP3    H141651   3.240   4.920  15.381 -0.6514  0.1018  0.6405
 6720TIP3    H241652   3.238   4.956  15.234  0.9184  0.0513  0.5878
 6721TIP3   OH241653   0.996   0.942  14.868  0.1270  0.2090 -0.2509
 6721TIP3    H141654   0.922   0.987  14.827 -0.1209 -0.1094 -0.1567
 6721TIP3    H241655   1.034   0.890  14.797  0.1370  0.2146 -0.2494
 6722TIP3   OH241656   3.319   3.188  12.359  0.4947  0.1165  0.0344
 6722TIP3    H141657   3.259   3.172  12.432  0.1544 -1.1037 -0.4818
 6722TIP3    H241658   3.338   3.281  12.363 -0.6415  0.3314  0.8201
 6723TIP3   OH241659   4.178   3.954   4.836  0.3925 -0.4370  0.2497
 6723TIP3    H141660   4.203   3.888   4.770  0.1709  0.1741 -0.4581
 6723TIP3    H241661   4.227   4.032   4.812 -0.9217  0.2870 -0.1789
 6724TIP3   OH241662   0.999   6.551  10.987  0.2004  0.2741 -0.6339
 6724TIP3    H141663   1.033   6.499  10.914  1.8064  0.3300  0.0268
 6724TIP3    H241664   0.996   6.641  10.954  0.9127  0.2975 -0.6478
 6725TIP3   OH241665   4.661   1.450   6.030  0.3044 -0.5827  0.3141
 6725TIP3    H141666   4.710   1.445   6.112  0.3279  1.0637  0.4409
 6725TIP3    H241667   4.572   1.424   6.053 -0.0336  1.2048  1.2227
 6726TIP3   OH241668   3.384   6.683   0.570  0.0762 -0.2579  0.5087
 6726TIP3    H141669   3.472   6.668   0.536 -0.0933  0.1232 -0.1084
 6726TIP3    H241670   3.356   6.765   0.528 -1.5534 -1.6581 -1.2972
 6727TIP3   OH241671   6.238   5.195   6.213 -0.3024 -0.2740  0.2295
 6727TIP3    H141672   6.282   5.278   6.195 -1.5895  0.8513  1.9906
 6727TIP3    H241673   6.148   5.207   6.183 -0.9190 -0.4208  1.9003
 6728TIP3   OH241674   3.143   5.735  13.735 -0.9187  0.4102  0.1129
 6728TIP3    H141675   3.069   5.786  13.702  0.2978  1.2879 -1.3857
 6728TIP3    H241676   3.103   5.661  13.780 -2.7613  2.5167  2.1739
 6729TIP3   OH241677   1.303   4.427   3.845 -0.1795 -0.0715 -0.1567
 6729TIP3    H141678   1.387   4.408   3.803  0.4380 -1.9001  1.7509
 6729TIP3    H241679   1.252   4.347   3.835 -0.6522  0.0525  1.0774
 6730TIP3   OH241680   0.024   1.412   6.587 -0.0135  0.1540 -0.0105
 6730TIP3    H141681   0.029   1.374   6.499 -0.3204 -1.7762  0.7447
 6730TIP3    H241682   0.074   1.493   6.581  0.4587 -0.2186 -1.8147
 6731TIP3   OH241683   3.829   1.085   0.781 -0.2615 -0.1746  0.0535
 6731TIP3    H141684   3.814   1.148   0.851 -0.5931  0.2123 -0.3575
 6731TIP3    H241685   3.921   1.096   0.757 -0.7332  1.4007 -1.1909
 6732TIP3   OH241686   0.410   1.227  12.152  0.2065  0.2548 -0.2105
 6732TIP3    H141687   0.374   1.293  12.212  0.5115  0.5657 -0.3719
 6732TIP3    H241688   0.449   1.277  12.081 -2.8646 -0.0726 -2.3482
 6733TIP3   OH241689   6.023   6.562  15.832  0.1355 -0.5883  0.3807
 6733TIP3    H141690   6.106   6.608  15.850  0.2661 -0.3070 -0.8866
 6733TIP3    H241691   6.049   6.486  15.779 -0.3355 -0.9658  0.6809
 6734TIP3   OH241692   4.297   1.444   5.196 -0.0543 -0.3271  0.1150
 6734TIP3    H141693   4.242   1.386   5.144 -1.3218  1.3646 -0.5175
 6734TIP3    H241694   4.303   1.524   5.145  3.7540 -0.6708 -0.2342
 6735TIP3   OH241695   4.134   1.647  16.598  0.2045 -0.4033  0.6754
 6735TIP3    H141696   4.098   1.588  16.532  0.5037 -0.3563  0.4654
 6735TIP3    H241697   4.058   1.677  16.648 -0.2068  0.6572 -0.5406
 6736TIP3   OH241698   1.701   5.541  14.123  0.3846  0.3650 -0.2310
 6736TIP3    H141699   1.739   5.484  14.056 -1.7493 -0.7790 -0.5418
 6736TIP3    H241700   1.696   5.628  14.082 -1.1227 -0.3711 -1.7096
 6737TIP3   OH241701   2.018   2.514   3.817  0.1915 -0.3775  0.5445
 6737TIP3    H141702   2.059   2.530   3.902  1.0857 -1.2079  0.2842
 6737TIP3    H241703   1.985   2.599   3.790 -0.7081 -0.2190  2.0214
 6738TIP3   OH241704   3.105   2.162   5.596 -0.2353  0.2831 -0.0198
 6738TIP3    H141705   3.061   2.231   5.646  1.4850  0.6785  1.0777
 6738TIP3    H241706   3.197   2.190   5.593  0.2539 -1.2708 -0.7834
 6739TIP3   OH241707   5.517   1.056  15.768 -0.0471 -0.7784  0.1101
 6739TIP3    H141708   5.430   1.095  15.758 -0.3391 -0.8512  2.0022
 6739TIP3    H241709   5.500   0.962  15.782  0.3425 -0.8355  0.2215
 6740TIP3   OH241710   4.863   3.190   1.265  0.3394  0.1834 -0.1782
 6740TIP3    H141711   4.848   3.279   1.232  1.9662  0.9211  0.9568
 6740TIP3    H241712   4.885   3.202   1.357 -0.0222 -1.4758  0.1539
 6741TIP3   OH241713   0.554   2.758  12.311  0.6293  0.2383 -0.0201
 6741TIP3    H141714   0.580   2.785  12.399 -0.6661 -1.2454  0.8596
 6741TIP3    H241715   0.627   2.786  12.255  1.0477  2.0520  1.3478
 6742TIP3   OH241716   6.832   2.206  11.993  0.1599 -0.1687 -0.0564
 6742TIP3    H141717   6.920   2.243  12.006  0.7134 -0.9565 -1.2629
 6742TIP3    H241718   6.837   2.118  12.032  0.9761 -1.4593 -2.7613
 6743TIP3   OH241719   2.157   4.279   1.407  0.1395 -0.2103 -0.8276
 6743TIP3    H141720   2.123   4.360   1.444 -1.9991 -1.1527 -0.5656
 6743TIP3    H241721   2.251   4.280   1.427  0.1045  2.0105 -0.5568
 6744TIP3   OH241722   1.244   5.436  12.165 -0.1437 -0.5758  0.6314
 6744TIP3    H141723   1.199   5.400  12.088  1.9270 -2.8799  0.3544
 6744TIP3    H241724   1.266   5.359  12.218  2.7064  0.4491  1.1095
 6745TIP3   OH241725   2.423   0.516  10.758 -0.1448  0.4258 -0.5689
 6745TIP3    H141726   2.413   0.520  10.663  1.1427  1.5694 -0.6872
 6745TIP3    H241727   2.350   0.566  10.793 -1.9327 -1.8359 -0.8079
 6746TIP3   OH241728   3.753   3.122   4.178  0.0893 -0.3191  0.1669
 6746TIP3    H141729   3.729   3.110   4.086  1.5882 -1.6622 -0.0816
 6746TIP3    H241730   3.837   3.167   4.175 -0.0333 -0.0258  0.9115
 6747TIP3   OH241731   6.014   5.347   4.905 -0.7277 -0.6128  0.6638
 6747TIP3    H141732   6.006   5.436   4.942 -3.1424 -0.6094  0.2900
 6747TIP3    H241733   6.017   5.290   4.982 -3.8316 -0.4645  1.0259
 6748TIP3   OH241734   3.132   0.500   1.611  0.2599  0.6108 -0.1890
 6748TIP3    H141735   3.145   0.464   1.699 -2.1731 -1.4746 -0.5764
 6748TIP3    H241736   3.079   0.579   1.625 -1.1011 -0.3384  0.1875
 6749TIP3   OH241737   2.996   6.197  16.397 -0.0194 -0.1087 -0.3872
 6749TIP3    H141738   2.926   6.223  16.456 -0.5834 -0.6076 -0.8316
 6749TIP3    H241739   3.032   6.117  16.436 -0.4893 -0.5216 -0.7852
 6750TIP3   OH241740   2.312   3.958   2.782  0.0620  0.3145 -0.2808
 6750TIP3    H141741   2.289   4.002   2.700  0.2249 -0.8800 -0.9866
 6750TIP3    H241742   2.363   4.023   2.830  1.2363  0.5526 -1.7683
 6751TIP3   OH241743   4.912   6.564  13.491 -0.0030  0.2117  0.2528
 6751TIP3    H141744   4.839   6.547  13.431 -1.1286  2.6524  0.7816
 6751TIP3    H241745   4.912   6.491  13.552 -1.9950  0.1087  0.1826
 6752TIP3   OH241746   2.641   2.982   4.293 -0.1686  0.4683 -0.3311
 6752TIP3    H141747   2.717   3.040   4.303 -0.5724  0.8446  0.7024
 6752TIP3    H241748   2.639   2.962   4.200  1.9623 -0.5870 -0.2184
 6753TIP3   OH241749   3.659   6.392   6.563  0.4200  0.8280 -0.1052
 6753TIP3    H141750   3.720   6.366   6.494  0.7004  0.9928  0.0805
 6753TIP3    H241751   3.710   6.448   6.620  0.2253  0.5841  0.3120
 6754TIP3   OH241752   0.343   3.124   3.104  0.6803 -0.0189  0.1544
 6754TIP3    H141753   0.278   3.107   3.036 -1.9934  2.4223  1.8694
 6754TIP3    H241754   0.383   3.207   3.078  0.0732  0.6165  1.1873
 6755TIP3   OH241755   5.201   0.009   5.046  0.1057  0.1972 -0.5807
 6755TIP3    H141756   5.157   0.011   5.131 -0.6869 -1.4800 -0.9074
 6755TIP3    H241757   5.281  -0.041   5.061  0.7046  1.1541 -0.5209
 6756TIP3   OH241758   3.407   6.023   2.345  0.1943  0.5560 -0.0509
 6756TIP3    H141759   3.368   6.068   2.421 -0.3220  2.9866 -1.6405
 6756TIP3    H241760   3.338   6.023   2.279  1.3264  0.4776 -1.2702
 6757TIP3   OH241761   6.829   2.480  12.818 -0.5743 -0.0176 -0.3582
 6757TIP3    H141762   6.865   2.391  12.818  0.2640  0.3169 -0.6929
 6757TIP3    H241763   6.830   2.506  12.911 -1.8762 -0.7579 -0.1049
 6758TIP3   OH241764   2.046   5.933   1.446 -0.2194  0.1169 -0.7859
 6758TIP3    H141765   1.977   5.944   1.511  1.4099  2.8321  0.6729
 6758TIP3    H241766   2.059   6.021   1.411  4.4754  0.5279  1.2627
 6759TIP3   OH241767   0.092   4.390  14.850 -0.2086 -0.6904 -0.0754
 6759TIP3    H141768   0.062   4.388  14.941  0.9035 -3.0923  0.3069
 6759TIP3    H241769   0.186   4.373  14.855 -0.0034 -0.2272 -1.6458
 6760TIP3   OH241770   5.632   4.928   2.430  0.7569  0.3188  0.0993
 6760TIP3    H141771   5.675   4.874   2.497  0.6244 -0.1009 -0.1452
 6760TIP3    H241772   5.580   4.865   2.380  1.3912  0.5139 -0.8276
 6761TIP3   OH241773   2.540   3.715  10.148  0.1371  0.2680 -0.1494
 6761TIP3    H141774   2.525   3.724  10.242  0.4494  0.7492 -0.1445
 6761TIP3    H241775   2.452   3.712  10.110 -0.1334 -3.1939  0.4186
 6762TIP3   OH241776   0.931   4.158   2.353 -0.0244  0.1240 -0.5288
 6762TIP3    H141777   1.017   4.143   2.393 -0.7715 -1.2037  0.7158
 6762TIP3    H241778   0.922   4.086   2.290 -1.4416 -1.7031  1.6059
 6763TIP3   OH241779   1.455   0.974  12.731  0.7844  0.3938 -0.4855
 6763TIP3    H141780   1.420   0.940  12.649  2.5053  0.4104 -1.2611
 6763TIP3    H241781   1.538   0.928  12.742  1.2654  1.4621  0.4972
 6764TIP3   OH241782   5.434   0.998  12.916  0.5447  0.0596 -0.0460
 6764TIP3    H141783   5.519   1.009  12.959  0.4890 -1.6060  0.5707
 6764TIP3    H241784   5.439   0.912  12.875 -0.7480  0.0708 -0.2664
 6765TIP3   OH241785   6.316   6.733  12.024 -0.1301  0.0411  0.3628
 6765TIP3    H141786   6.307   6.665  11.957  0.6853  0.1581  0.1260
 6765TIP3    H241787   6.402   6.718  12.063 -0.4871  0.1344  1.2113
 6766TIP3   OH241788   4.505   3.494   0.942  0.0240 -0.0645  0.3586
 6766TIP3    H141789   4.455   3.575   0.956  0.5438  0.4072 -0.4507
 6766TIP3    H241790   4.596   3.523   0.939  0.0873 -0.3138 -2.2610
 6767TIP3   OH241791   1.996   1.094  13.949  0.2277  0.1035 -0.0501
 6767TIP3    H141792   1.944   1.041  13.888  1.3309  0.8358 -1.6884
 6767TIP3    H241793   1.959   1.182  13.943 -1.0479 -0.2242  2.0288
 6768TIP3   OH241794   3.831   4.607  14.196 -0.7370 -0.6866 -0.2255
 6768TIP3    H141795   3.791   4.538  14.249 -1.2873  0.7191  1.2674
 6768TIP3    H241796   3.867   4.561  14.121 -0.5607 -2.6942  1.0010
 6769TIP3   OH241797   2.619   6.398   5.262 -0.1743  0.2230 -0.1211
 6769TIP3    H141798   2.700   6.437   5.294 -0.5031  3.3064 -2.5300
 6769TIP3    H241799   2.562   6.395   5.339  1.6192 -0.4375  1.2530
 6770TIP3   OH241800   1.180   5.423  12.699 -0.2094 -0.0927  0.0383
 6770TIP3    H141801   1.237   5.348  12.684 -1.3161 -1.0093  0.3209
 6770TIP3    H241802   1.123   5.426  12.621 -1.8041 -1.0759  1.1024
 6771TIP3   OH241803   5.647   2.475   1.863  0.7129  0.5298  0.1947
 6771TIP3    H141804   5.715   2.514   1.918  1.1197  2.6061 -1.6502
 6771TIP3    H241805   5.683   2.478   1.775 -0.4138 -1.5683 -0.3910
 6772TIP3   OH241806   4.069   3.806   1.379  0.3930  0.1386 -0.1883
 6772TIP3    H141807   4.053   3.712   1.369  1.7767 -0.4138  2.0518
 6772TIP3    H241808   4.160   3.812   1.410 -0.4395  1.9824  2.2554
 6773TIP3   OH241809   2.518   6.147   4.021 -0.0154 -0.2666  0.0930
 6773TIP3    H141810   2.561   6.189   4.096  0.1903  1.1186 -0.7538
 6773TIP3    H241811   2.463   6.079   4.060  0.6428 -0.0644  1.4381
 6774TIP3   OH241812   4.970   4.823   0.891 -0.1348  0.6715  0.3811
 6774TIP3    H141813   4.925   4.861   0.967  0.6594  0.1836  1.1160
 6774TIP3    H241814   4.907   4.761   0.854  0.1891 -0.6674  1.9281
 6775TIP3   OH241815   2.823   0.958   2.723  0.1955 -0.1511  0.5737
 6775TIP3    H141816   2.768   1.035   2.717  0.2160 -0.2127 -0.7914
 6775TIP3    H241817   2.777   0.900   2.784 -0.8274  0.1308  0.0915
 6776TIP3   OH241818   3.152   2.842  13.161 -0.2290  0.2040  0.0980
 6776TIP3    H141819   3.138   2.861  13.254  0.3468  1.6943 -0.1017
 6776TIP3    H241820   3.103   2.910  13.115  1.4078  0.9113 -0.6634
 6777TIP3   OH241821   5.449   4.691   5.660  0.4482 -1.3166  0.1165
 6777TIP3    H141822   5.515   4.690   5.730  1.7899  0.0663 -1.0636
 6777TIP3    H241823   5.366   4.708   5.706  1.3529 -0.0454  1.3423
 6778TIP3   OH241824   0.073   0.706   6.396 -0.2744 -0.1268  0.0527
 6778TIP3    H141825   0.146   0.655   6.432 -0.3928 -1.2448 -1.1800
 6778TIP3    H241826   0.040   0.757   6.469  0.5816 -0.9898  1.0737
 6779TIP3   OH241827   1.815   0.704  16.316  0.0295 -0.4095 -0.1409
 6779TIP3    H141828   1.734   0.743  16.283  0.9359 -0.3765 -2.5714
 6779TIP3    H241829   1.858   0.774  16.364 -0.4692  0.1976 -0.5667
 6780TIP3   OH241830   6.538   1.420  12.602 -0.0214 -0.2685  0.5385
 6780TIP3    H141831   6.493   1.411  12.686 -0.1801 -2.4160  0.2695
 6780TIP3    H241832   6.472   1.456  12.544 -0.1048  0.6114  1.1580
 6781TIP3   OH241833   4.241   5.157   5.392  0.0502  0.1891  0.2641
 6781TIP3    H141834   4.266   5.249   5.401  0.9413  0.1532 -1.3786
 6781TIP3    H241835   4.146   5.158   5.389  0.0664  1.1948 -0.6475
 6782TIP3   OH241836   4.236   1.989   5.293 -0.4386  0.1391 -0.3269
 6782TIP3    H141837   4.277   1.902   5.298  0.4884  0.5170 -1.0969
 6782TIP3    H241838   4.210   1.998   5.202  0.0908  0.9460 -0.4089
 6783TIP3   OH241839   4.584   6.280   0.200 -0.4833 -0.4828 -0.2151
 6783TIP3    H141840   4.535   6.207   0.237 -0.9005 -0.3352 -0.4666
 6783TIP3    H241841   4.676   6.253   0.206 -0.6156 -0.8965 -0.0299
 6784TIP3   OH241842   0.266   2.461  10.835 -0.3680 -0.0165 -0.5328
 6784TIP3    H141843   0.344   2.466  10.780  0.8937  1.0071  1.2160
 6784TIP3    H241844   0.237   2.370  10.828  1.1233 -0.4726 -1.0703
 6785TIP3   OH241845   0.208   2.511  13.012  0.1670 -0.0487 -0.4377
 6785TIP3    H141846   0.265   2.519  13.089  0.1359 -1.7527 -0.1882
 6785TIP3    H241847   0.232   2.427  12.973 -0.7843  0.1406 -1.4911
 6786TIP3   OH241848   5.566   1.165  14.474  0.3263  0.1474  0.4370
 6786TIP3    H141849   5.525   1.084  14.505  0.0857  0.0529 -0.1162
 6786TIP3    H241850   5.497   1.208  14.423  0.5598  0.5384  0.4522
 6787TIP3   OH241851   5.386   5.512  13.282 -0.8264  0.6184  0.5132
 6787TIP3    H141852   5.408   5.570  13.354 -2.3733 -0.1650  1.6925
 6787TIP3    H241853   5.319   5.453  13.318 -0.1401 -1.1679 -0.9378
 6788TIP3   OH241854   5.942   6.523   5.753  0.1138  0.3589 -0.3203
 6788TIP3    H141855   5.918   6.438   5.788  0.1961  1.0745  1.5689
 6788TIP3    H241856   6.037   6.529   5.766 -0.0512  1.1795  0.6452
 6789TIP3   OH241857   3.480   1.104  11.202 -0.1434  0.0083  0.2258
 6789TIP3    H141858   3.484   1.026  11.147 -2.2603 -2.1211  2.8096
 6789TIP3    H241859   3.559   1.099  11.257  1.2871  1.4402 -1.5433
 6790TIP3   OH241860   4.860   3.042  11.195  0.2324  0.4360  0.3570
 6790TIP3    H141861   4.850   3.046  11.290 -0.3787  0.4691  0.2958
 6790TIP3    H241862   4.954   3.032  11.181  0.4822  1.7920  0.9202
 6791TIP3   OH241863   0.446   0.905  11.581 -0.4524 -0.7088 -0.0245
 6791TIP3    H141864   0.472   0.997  11.577  1.6067 -1.1829  1.0765
 6791TIP3    H241865   0.351   0.908  11.587 -0.3751  1.4210  1.3694
 6792TIP3   OH241866   3.384   4.170   5.719  0.6388  0.2686  0.1503
 6792TIP3    H141867   3.479   4.174   5.726  0.7616 -0.0830 -1.1083
 6792TIP3    H241868   3.362   4.237   5.654  0.2724 -1.2026 -1.3085
 6793TIP3   OH241869   6.114   2.377   4.820  0.3183 -0.2691  0.4022
 6793TIP3    H141870   6.172   2.365   4.745  1.1127 -3.1455  1.3441
 6793TIP3    H241871   6.133   2.465   4.852 -0.3631  1.2339 -2.9308
 6794TIP3   OH241872   2.170   4.492  16.050 -0.0897  0.3941  0.1017
 6794TIP3    H141873   2.109   4.561  16.074  0.4577  0.0854  2.6318
 6794TIP3    H241874   2.232   4.535  15.991  0.2149  2.0858  1.5680
 6795TIP3   OH241875   0.436   2.155   2.801  0.1561 -0.4535 -0.1402
 6795TIP3    H141876   0.379   2.089   2.763 -0.6729 -1.0058  1.9082
 6795TIP3    H241877   0.445   2.129   2.893 -0.3203  2.3140  0.8032
 6796TIP3   OH241878   5.814   6.395   2.429  0.4464 -0.0485  0.1107
 6796TIP3    H141879   5.778   6.408   2.341  0.8717  0.6178  0.0293
 6796TIP3    H241880   5.787   6.306   2.453  0.2111 -0.1867 -0.6384
 6797TIP3   OH241881   2.591   2.681  12.451  0.4343 -0.3867  0.1204
 6797TIP3    H141882   2.669   2.631  12.427  1.2650 -0.4371  2.6681
 6797TIP3    H241883   2.521   2.615  12.455  0.2509 -0.3947 -1.7941
 6798TIP3   OH241884   6.533   3.405  15.099 -0.1922  0.1049 -0.7678
 6798TIP3    H141885   6.536   3.499  15.116 -0.5844  0.3548 -1.9885
 6798TIP3    H241886   6.440   3.382  15.110 -0.2414  0.0333 -1.3188
 6799TIP3   OH241887   2.568   4.460  10.671 -0.8176  0.1345 -0.3057
 6799TIP3    H141888   2.521   4.537  10.701  0.1717  1.5175 -2.1225
 6799TIP3    H241889   2.510   4.419  10.606 -0.3744  0.7100 -1.0774
 6800TIP3   OH241890   3.971   6.213   2.103 -0.2584  0.1723  0.3669
 6800TIP3    H141891   3.884   6.233   2.137  0.5594  0.8763  2.1276
 6800TIP3    H241892   3.990   6.285   2.043  0.0134  1.2537  1.7159
 6801TIP3   OH241893   2.117   2.111  16.549  0.1754 -0.6152 -0.6652
 6801TIP3    H141894   2.163   2.190  16.578  0.7002 -1.1128 -0.1077
 6801TIP3    H241895   2.166   2.083  16.471  0.1304 -0.5252 -0.7264
 6802TIP3   OH241896   6.496   0.054   3.300  0.0777  0.3297  0.0133
 6802TIP3    H141897   6.504   0.040   3.394 -1.3189  0.8600  0.2395
 6802TIP3    H241898   6.530   0.142   3.285  0.2164  0.2802  0.0436
 6803TIP3   OH241899   3.213   5.823   2.621 -0.0659  0.0122  0.1401
 6803TIP3    H141900   3.212   5.919   2.620 -0.3558  0.0146 -1.2960
 6803TIP3    H241901   3.128   5.798   2.658  0.3736  0.2853  1.3948
 6804TIP3   OH241902   3.732   1.530  14.307 -0.5936 -0.0284 -0.0885
 6804TIP3    H141903   3.812   1.571  14.339  0.0680 -0.9384 -0.5495
 6804TIP3    H241904   3.753   1.437  14.299 -1.1031 -0.0280 -1.9706
 6805TIP3   OH241905   3.668   2.852   5.621 -0.6642 -0.0854 -0.4787
 6805TIP3    H141906   3.744   2.901   5.654 -0.8166  0.5219 -0.9972
 6805TIP3    H241907   3.706   2.784   5.565 -0.5096  0.9464 -1.6999
 6806TIP3   OH241908   4.326   1.229  12.030 -0.3597  0.6242 -0.4483
 6806TIP3    H141909   4.334   1.134  12.022 -2.0819  0.1765  2.0026
 6806TIP3    H241910   4.238   1.248  11.996 -0.0338  1.3603 -0.9036
 6807TIP3   OH241911   4.355   6.401   2.960  0.2303 -0.5936  0.4752
 6807TIP3    H141912   4.408   6.479   2.976 -0.2719 -0.1493  0.0226
 6807TIP3    H241913   4.271   6.420   3.001 -0.3749 -0.2931 -0.8342
 6808TIP3   OH241914   3.352   5.104  13.735  0.5417  0.5672  0.0715
 6808TIP3    H141915   3.377   5.191  13.704 -0.0274  0.3116 -1.1838
 6808TIP3    H241916   3.385   5.100  13.825  0.5436  2.0886  0.1674
 6809TIP3   OH241917   3.302   0.223   2.753  0.3532  1.0366  0.2497
 6809TIP3    H141918   3.290   0.201   2.661  1.7281  3.0833 -0.4987
 6809TIP3    H241919   3.349   0.306   2.752 -0.6252  1.7320  2.8091
 6810TIP3   OH241920   2.995   6.593   1.015 -0.0544 -0.3086 -0.0210
 6810TIP3    H141921   2.999   6.650   1.091 -0.3079  0.6162 -0.6873
 6810TIP3    H241922   2.971   6.507   1.050 -0.9443  0.2806  0.8524
 6811TIP3   OH241923   1.722   3.099   3.701 -0.2825 -0.1817 -0.0000
 6811TIP3    H141924   1.677   3.137   3.776  0.5644 -0.2174  0.5330
 6811TIP3    H241925   1.814   3.101   3.724 -0.0711 -0.8945 -0.7276
 6812TIP3   OH241926   4.164   5.193  17.088  0.5013 -0.0183  0.2199
 6812TIP3    H141927   4.240   5.206  17.145 -0.0182  1.0077  0.6942
 6812TIP3    H241928   4.195   5.218  17.001  1.6317 -2.6476 -0.2300
 6813TIP3   OH241929   0.728   0.633   5.338  0.2666  0.2034 -0.7237
 6813TIP3    H141930   0.729   0.601   5.428  0.4547 -0.0218 -0.8063
 6813TIP3    H241931   0.816   0.614   5.304  0.0018 -0.2849 -1.1570
 6814TIP3   OH241932   6.703   5.101   6.408 -0.2112  0.4227  0.8561
 6814TIP3    H141933   6.691   5.006   6.405 -0.0511  0.4173  0.0656
 6814TIP3    H241934   6.649   5.131   6.481 -1.4695 -0.0992  0.1629
 6815TIP3   OH241935   2.491   2.372   0.767 -0.3261  0.1644  0.2449
 6815TIP3    H141936   2.430   2.300   0.755  0.6767 -0.5435 -0.7955
 6815TIP3    H241937   2.525   2.390   0.679  1.2643  0.2540  0.8443
 6816TIP3   OH241938   4.956   1.796  14.197 -0.2784 -0.0546 -0.2159
 6816TIP3    H141939   5.046   1.813  14.223  0.2378 -0.3970 -1.7143
 6816TIP3    H241940   4.904   1.852  14.254  0.9130  0.7018  0.1648
 6817TIP3   OH241941   5.940   3.169  11.581  0.1572  0.1803  0.0502
 6817TIP3    H141942   5.896   3.085  11.568 -0.3599  0.6059 -1.0730
 6817TIP3    H241943   5.928   3.188  11.675 -4.0172  1.2673 -0.4929
 6818TIP3   OH241944   3.369   4.963   4.141  0.0369  0.3110  1.0183
 6818TIP3    H141945   3.346   5.054   4.162 -2.2647  0.0239  0.0600
 6818TIP3    H241946   3.407   4.968   4.053  0.4121  0.3959  1.1836
 6819TIP3   OH241947   6.712   6.478  15.960  0.4376  0.1882 -0.5213
 6819TIP3    H141948   6.722   6.385  15.980 -1.5181 -0.0143 -0.2494
 6819TIP3    H241949   6.752   6.524  16.034 -0.4645 -0.4965  0.4298
 6820TIP3   OH241950   3.000   2.135   1.606  0.0121 -0.6180  0.4025
 6820TIP3    H141951   2.955   2.152   1.689  1.2315 -0.8526  1.1439
 6820TIP3    H241952   3.030   2.044   1.614 -0.5231 -0.9102 -0.6402
 6821TIP3   OH241953   6.130   0.938  15.813 -0.1794 -0.4589  0.5939
 6821TIP3    H141954   6.206   0.978  15.770 -0.5011  0.0170  0.4553
 6821TIP3    H241955   6.129   0.978  15.900 -0.7527  0.1707  0.3068
 6822TIP3   OH241956   5.680   0.120  13.343 -0.2002 -0.4548  0.1079
 6822TIP3    H141957   5.645   0.097  13.257 -0.2876 -0.5562  0.1705
 6822TIP3    H241958   5.751   0.056  13.358 -0.8803 -1.1203  0.5739
 6823TIP3   OH241959   1.417   5.653  11.188 -0.5320 -0.1197  0.2824
 6823TIP3    H141960   1.415   5.621  11.279 -0.9764  0.2070  0.3864
 6823TIP3    H241961   1.457   5.581  11.139  1.4736  0.4209  1.0261
 6824TIP3   OH241962   2.917   5.297  10.839 -0.5274  0.9034 -0.2576
 6824TIP3    H141963   2.868   5.357  10.783 -0.8118  0.2769 -0.6855
 6824TIP3    H241964   2.901   5.210  10.801 -0.5660  0.4956  0.6792
 6825TIP3   OH241965   3.327   1.368  14.815  0.5142 -0.0660 -0.9679
 6825TIP3    H141966   3.380   1.347  14.739  0.0469 -0.2928 -1.2379
 6825TIP3    H241967   3.382   1.425  14.869  1.9324 -2.2018 -0.0476
 6826TIP3   OH241968   5.017   1.858  13.594  0.0494 -0.2577 -0.4886
 6826TIP3    H141969   5.047   1.940  13.635  2.2233 -0.1470 -2.1248
 6826TIP3    H241970   5.043   1.790  13.655  0.3342  0.1135 -0.1897
 6827TIP3   OH241971   1.619   3.873   6.007 -0.3871 -0.2254 -0.2675
 6827TIP3    H141972   1.581   3.923   5.935 -1.7588  1.6325  1.6202
 6827TIP3    H241973   1.650   3.940   6.068 -1.1760 -1.6782  1.8132
 6828TIP3   OH241974   1.700   3.029   0.345 -0.0076 -0.5397  0.4811
 6828TIP3    H141975   1.625   2.969   0.341 -0.3533 -0.1217  0.6543
 6828TIP3    H241976   1.702   3.058   0.436 -0.4914  0.5317  0.1656
 6829TIP3   OH241977   1.293   3.801  11.612  0.2931  0.1449  0.1150
 6829TIP3    H141978   1.227   3.760  11.555 -0.3342 -0.8786  1.5123
 6829TIP3    H241979   1.264   3.892  11.621 -0.6334 -0.1518  0.2659
 6830TIP3   OH241980   5.206   1.250  11.414 -0.1008  0.1808  0.7337
 6830TIP3    H141981   5.253   1.331  11.394 -0.2433  0.1381  0.2227
 6830TIP3    H241982   5.261   1.206  11.479  0.4522  0.2383  0.3060
 6831TIP3   OH241983   4.462   1.465   1.389  0.5937  0.1698 -0.0294
 6831TIP3    H141984   4.375   1.504   1.401  0.7515  0.4279  0.3070
 6831TIP3    H241985   4.516   1.506   1.457  0.4172 -1.7045  1.3049
 6832TIP3   OH241986   0.941   0.204   0.374  0.4572  0.0850  0.6704
 6832TIP3    H141987   0.853   0.173   0.355  0.3334  1.0404 -0.4191
 6832TIP3    H241988   0.994   0.174   0.300  0.4608  1.8594 -0.0996
 6833TIP3   OH241989   3.534   5.414  15.812 -0.6954  0.4944  0.0164
 6833TIP3    H141990   3.439   5.423  15.819 -0.9194 -1.2505 -0.2657
 6833TIP3    H241991   3.552   5.327  15.848  0.1735 -1.4400 -4.4204
 6834TIP3   OH241992   2.852   1.273  15.142 -0.3101  0.0485 -0.4999
 6834TIP3    H141993   2.872   1.201  15.201  0.2192 -0.5107 -1.3462
 6834TIP3    H241994   2.887   1.246  15.057 -1.0812  0.8206 -1.0859
 6835TIP3   OH241995   6.795   3.733  11.045 -0.2768 -0.0058  0.1283
 6835TIP3    H141996   6.874   3.753  10.994 -0.1876  0.7696  0.5561
 6835TIP3    H241997   6.724   3.736  10.980  0.0921 -1.1976 -0.3499
 6836TIP3   OH241998   2.533   1.121  15.109  0.1429  0.6270  0.1061
 6836TIP3    H141999   2.577   1.109  15.025 -2.3235 -1.3269 -1.0309
 6836TIP3    H242000   2.442   1.141  15.086  0.0522  3.4788  2.3520
 6837TIP3   OH242001   2.355   5.161   1.428  0.5319 -0.1249  0.0147
 6837TIP3    H142002   2.297   5.208   1.488 -0.2997 -1.4520  0.2928
 6837TIP3    H242003   2.310   5.163   1.344 -0.8662 -2.6303  0.5959
 6838TIP3   OH242004   5.281   5.916   4.242 -0.3243  0.1478  0.2105
 6838TIP3    H142005   5.314   5.931   4.331  0.1272 -0.8916  0.2326
 6838TIP3    H242006   5.185   5.921   4.251 -0.2518  1.7610  0.4124
 6839TIP3   OH242007   1.820   4.818  10.884 -1.1923  0.2226  0.0415
 6839TIP3    H142008   1.873   4.890  10.850 -0.7308 -0.1005  0.0738
 6839TIP3    H242009   1.742   4.861  10.920 -0.6957  0.7460  0.4987
 6840TIP3   OH242010   3.930   3.777  11.502 -0.1093  0.1088 -0.1059
 6840TIP3    H142011   3.880   3.855  11.524 -0.2148 -0.4147  1.6281
 6840TIP3    H242012   3.907   3.713  11.569  1.9962 -0.5324  0.0771
 6841TIP3   OH242013   3.911   3.286  15.833 -0.0188 -0.1925  0.2218
 6841TIP3    H142014   3.869   3.318  15.753  0.2924  0.5395  0.3421
 6841TIP3    H242015   3.913   3.191  15.822  0.4021 -0.0829 -0.8352
 6842TIP3   OH242016   3.278   6.644  14.886  0.3757 -0.0966  0.2622
 6842TIP3    H142017   3.202   6.587  14.888  0.1339  0.1151 -1.4505
 6842TIP3    H242018   3.302   6.656  14.978 -2.6533  1.1624  0.9910
 6843TIP3   OH242019   3.228   1.701  16.569  0.0793  0.3974  0.4603
 6843TIP3    H142020   3.140   1.736  16.580 -0.0417  0.0291  0.6879
 6843TIP3    H242021   3.231   1.626  16.628  1.3089  1.7575  2.2261
 6844TIP3   OH242022   0.731   1.615  15.479  0.7879 -0.0454 -0.4981
 6844TIP3    H142023   0.665   1.607  15.410 -1.1248 -0.4629  1.2785
 6844TIP3    H242024   0.773   1.529  15.482  2.0042  0.4507 -2.1448
 6845TIP3   OH242025   3.903   4.719   2.325 -0.4981  0.9968  0.6306
 6845TIP3    H142026   3.852   4.708   2.244  0.6054 -1.6280  0.1827
 6845TIP3    H242027   3.962   4.791   2.306  0.2913 -0.0791 -1.2845
 6846TIP3   OH242028   1.181   0.309  16.166  0.0855 -0.1866  0.7501
 6846TIP3    H142029   1.148   0.239  16.223 -0.0818 -1.2420 -0.5793
 6846TIP3    H242030   1.139   0.292  16.082  0.9730  0.8356  0.0873
 6847TIP3   OH242031   0.034   5.820  11.664 -0.8327  0.3260 -0.3414
 6847TIP3    H142032  -0.014   5.897  11.693 -0.4468  0.9222 -1.2332
 6847TIP3    H242033  -0.005   5.747  11.712 -1.0467  1.1045  0.6898
 6848TIP3   OH242034   0.388   0.837   5.407  0.2959  0.1615  0.3596
 6848TIP3    H142035   0.399   0.917   5.457  1.0055  0.7620 -0.6975
 6848TIP3    H242036   0.458   0.779   5.438  0.7480  0.5397  0.0647
 6849TIP3   OH242037   5.720   4.428  14.145 -0.4975  0.1812 -0.0410
 6849TIP3    H142038   5.698   4.453  14.235 -0.5055 -1.2985  0.3995
 6849TIP3    H242039   5.646   4.460  14.093 -0.6967  0.6796  0.5247
 6850TIP3   OH242040   3.526   2.550   3.735 -0.3158 -0.1627  0.2589
 6850TIP3    H142041   3.476   2.626   3.763  0.0787 -0.3128  1.4276
 6850TIP3    H242042   3.462   2.492   3.694 -0.9962 -0.0986  1.2110
 6851TIP3   OH242043   5.067   3.262  11.754  0.7677 -0.4847 -0.2027
 6851TIP3    H142044   5.038   3.209  11.828 -1.1015  0.2678 -0.3582
 6851TIP3    H242045   5.120   3.331  11.793 -0.1854 -0.1038  0.4361
 6852TIP3   OH242046   4.248   2.118  13.046  0.5330 -0.3518 -0.4191
 6852TIP3    H142047   4.226   2.125  12.954  0.1574  0.2777 -0.2859
 6852TIP3    H242048   4.224   2.028  13.070  1.0262 -0.6535 -1.0268
 6853TIP3   OH242049   6.828   3.619  14.939 -0.2392  0.3388  0.2766
 6853TIP3    H142050   6.810   3.630  14.846 -1.1003  1.6399  0.5752
 6853TIP3    H242051   6.911   3.665  14.953  0.2288 -0.4194  0.0423
 6854TIP3   OH242052   4.363   1.381   3.101 -0.3759  0.4416  0.0336
 6854TIP3    H142053   4.401   1.306   3.148 -0.5745  0.5302  0.3389
 6854TIP3    H242054   4.431   1.448   3.106 -0.1008  0.2043 -0.4500
 6855TIP3   OH242055   5.123   3.367   5.052  0.1511  0.3646 -0.1677
 6855TIP3    H142056   5.147   3.286   5.007  0.6602  0.3860  0.0591
 6855TIP3    H242057   5.085   3.338   5.135 -0.9152  0.3207 -0.6622
 6856TIP3   OH242058   3.357   4.678   2.324  0.4835 -0.4785  0.0120
 6856TIP3    H142059   3.327   4.590   2.346 -0.9782  0.1270  0.5279
 6856TIP3    H242060   3.302   4.736   2.375 -0.2166  0.8256 -2.0947
 6857TIP3   OH242061   3.321   1.102  10.820  0.3174  0.1190 -0.5850
 6857TIP3    H142062   3.395   1.065  10.771 -0.0887 -0.9840 -0.3945
 6857TIP3    H242063   3.361   1.163  10.881  1.2815 -1.6705  0.6580
 6858TIP3   OH242064   4.870   2.525  13.677 -0.0097  0.0401 -0.3910
 6858TIP3    H142065   4.787   2.562  13.709 -0.5256 -0.5029 -1.0706
 6858TIP3    H242066   4.864   2.432  13.700  0.9666  0.2199  0.6779
 6859TIP3   OH242067   6.740   0.949  13.138  0.0620  0.2980  0.7629
 6859TIP3    H142068   6.735   1.038  13.174  1.0173  0.3096  0.8883
 6859TIP3    H242069   6.716   0.892  13.211 -1.8713  0.4906  0.3271
 6860TIP3   OH242070   5.748   0.771   4.728  0.1142  0.1387 -0.3410
 6860TIP3    H142071   5.775   0.850   4.681 -0.4139  1.1768  1.0187
 6860TIP3    H242072   5.817   0.707   4.711  0.9549  1.1587 -0.8368
 6861TIP3   OH242073   1.078   6.238   1.013 -0.7085 -0.1619  0.3448
 6861TIP3    H142074   1.002   6.261   0.959 -0.7811 -1.6572 -0.2280
 6861TIP3    H242075   1.047   6.250   1.103 -1.4470 -0.1810  0.1041
 6862TIP3   OH242076   5.539   6.706   4.411  0.3861  0.0311  0.6880
 6862TIP3    H142077   5.546   6.688   4.505  2.0050 -2.9549  0.1285
 6862TIP3    H242078   5.627   6.732   4.385 -0.0230  0.7397 -0.0443
 6863TIP3   OH242079   3.753   1.419  13.459 -0.2873  0.4311 -0.7895
 6863TIP3    H142080   3.773   1.328  13.483  1.2309  0.8809 -0.2473
 6863TIP3    H242081   3.659   1.418  13.439 -0.4257 -1.1278 -0.2335
 6864TIP3   OH242082   6.528   2.571  12.200 -0.3957 -0.1084 -0.3478
 6864TIP3    H142083   6.470   2.631  12.153  2.7151  1.9410 -1.8616
 6864TIP3    H242084   6.549   2.503  12.136 -1.9686 -1.5644  0.5931
 6865TIP3   OH242085   4.209   5.799  16.488  0.1595 -0.1187 -0.1345
 6865TIP3    H142086   4.232   5.892  16.493  1.7202 -0.5229  0.7942
 6865TIP3    H242087   4.153   5.793  16.411 -0.3592  1.6650  0.0566
 6866TIP3   OH242088   1.389   4.449   6.271  0.0620  0.0011 -0.2068
 6866TIP3    H142089   1.439   4.449   6.189  2.0854  1.9368  0.9158
 6866TIP3    H242090   1.310   4.399   6.251  1.8892 -2.2459 -2.4382
 6867TIP3   OH242091   5.787   1.103   5.166  0.0463 -0.2447 -0.7304
 6867TIP3    H142092   5.807   1.121   5.074 -1.3124 -0.4540 -1.0907
 6867TIP3    H242093   5.704   1.056   5.164 -0.2225  0.1083  0.6305
 6868TIP3   OH242094   0.060   3.910  11.368  0.1412  0.2358  0.2727
 6868TIP3    H142095  -0.036   3.900  11.368  0.2189 -2.9966 -3.5187
 6868TIP3    H242096   0.086   3.884  11.456 -2.4017 -0.8415  0.8042
 6869TIP3   OH242097   6.797   5.625   5.346  0.8684  0.7890  0.2517
 6869TIP3    H142098   6.738   5.620   5.421  0.9538  0.5044  0.3013
 6869TIP3    H242099   6.852   5.546   5.353 -0.5409 -0.3946 -1.3324
 6870TIP3   OH242100   6.268   0.069   3.146 -0.3530  0.9505 -0.3856
 6870TIP3    H142101   6.199   0.099   3.206  0.1053 -1.3001  1.4342
 6870TIP3    H242102   6.348   0.070   3.200  0.3015 -0.0399 -1.3041
 6871TIP3   OH242103   2.113   4.118  16.578 -0.4307  0.1566  0.2558
 6871TIP3    H142104   2.076   4.191  16.628  0.3141  2.3038 -2.1443
 6871TIP3    H242105   2.207   4.130  16.583 -0.2648 -1.1072  0.4405
 6872TIP3   OH242106   5.857   3.406   5.002  0.0712 -0.0030  0.0829
 6872TIP3    H142107   5.904   3.346   5.061  0.1818  1.2655  1.3500
 6872TIP3    H242108   5.768   3.372   4.999  0.4169 -0.9194 -0.2138
 6873TIP3   OH242109   0.237   1.666  13.965  0.1861  0.5897 -0.5538
 6873TIP3    H142110   0.314   1.720  13.980  0.0174  0.6230  0.2635
 6873TIP3    H242111   0.166   1.714  14.008 -0.1241  0.1518 -0.5742
 6874TIP3   OH242112   3.746   0.291   4.787  0.2412  0.4525  0.1197
 6874TIP3    H142113   3.761   0.350   4.713 -0.8249 -0.2436 -0.6903
 6874TIP3    H242114   3.802   0.215   4.769 -1.7989 -0.8212 -1.3406
 6875TIP3   OH242115   2.234   5.664  13.912 -0.1785 -1.1177  0.3075
 6875TIP3    H142116   2.184   5.611  13.974 -1.9715 -0.0531 -0.1562
 6875TIP3    H242117   2.294   5.715  13.966 -2.5956  0.7625  1.3920
 6876TIP3   OH242118   1.328   6.602  12.907  0.0446 -0.1781 -0.5271
 6876TIP3    H142119   1.361   6.578  12.820 -0.0206  1.3356 -0.9889
 6876TIP3    H242120   1.402   6.642  12.952 -0.8584  2.6699 -1.3499
 6877TIP3   OH242121   5.405   0.709   0.378 -0.3930 -0.4794  0.7080
 6877TIP3    H142122   5.354   0.784   0.409 -0.4633  0.0566 -0.6487
 6877TIP3    H242123   5.479   0.747   0.332  0.5408 -1.2616  1.5030
 6878TIP3   OH242124   5.794   0.895   0.667 -0.0043 -0.0548 -0.3283
 6878TIP3    H142125   5.839   0.925   0.746  0.9361  1.8567 -1.5201
 6878TIP3    H242126   5.861   0.849   0.617 -0.6200 -1.3316 -0.0276
 6879TIP3   OH242127   4.184   3.561   5.860 -0.1324 -0.2911  0.3548
 6879TIP3    H142128   4.124   3.503   5.813  0.9852 -0.7625 -0.5444
 6879TIP3    H242129   4.232   3.503   5.920 -0.8728  0.1523  1.3952
 6880TIP3   OH242130   0.106   2.109   2.883 -0.7082  0.2368  0.5083
 6880TIP3    H142131   0.122   2.170   2.811  1.5257  0.3651  1.0509
 6880TIP3    H242132   0.138   2.155   2.961  0.3347 -1.3168  1.0316
 6881TIP3   OH242133   6.159   0.686   2.577 -0.2941  0.5487  0.0998
 6881TIP3    H142134   6.239   0.637   2.557  0.2218  1.4506 -0.1266
 6881TIP3    H242135   6.114   0.695   2.493 -1.5695 -1.4996  0.5044
 6882TIP3   OH242136   6.070   3.247   1.637  0.8701 -0.0313 -0.4685
 6882TIP3    H142137   6.068   3.158   1.602  0.2424 -0.2542  0.1082
 6882TIP3    H242138   6.037   3.238   1.727  0.1999  0.8730 -0.6109
 6883TIP3   OH242139   5.349   2.768  17.121  0.2387 -0.8745 -0.0775
 6883TIP3    H142140   5.440   2.740  17.108  0.4501  0.2576 -1.2561
 6883TIP3    H242141   5.299   2.717  17.057  0.2308 -0.6297 -0.2701
 6884TIP3   OH242142   5.711   1.975  14.275  0.3065  0.0484  0.1929
 6884TIP3    H142143   5.757   1.928  14.206 -0.5070 -0.8654  0.2496
 6884TIP3    H242144   5.705   2.065  14.243 -0.2982 -0.4128 -1.0717
 6885TIP3   OH242145   3.940   1.296   5.472  0.6502 -0.3040  0.3276
 6885TIP3    H142146   3.944   1.264   5.562  1.3632  0.6877  0.6662
 6885TIP3    H242147   4.031   1.291   5.441  0.5620  0.1986 -0.0292
 6886TIP3   OH242148   3.993   0.623   1.603 -0.0044  0.1490 -0.3528
 6886TIP3    H142149   4.085   0.646   1.617 -0.0030  0.1980 -0.4378
 6886TIP3    H242150   3.995   0.533   1.571 -0.1744 -0.9992  2.6320
 6887TIP3   OH242151   5.546   5.968   5.455  0.6128  0.5337  0.3126
 6887TIP3    H142152   5.513   6.042   5.506 -1.5700 -0.2488  0.1492
 6887TIP3    H242153   5.619   5.934   5.507 -0.8430  0.4330  2.4308
 6888TIP3   OH242154   0.878   2.576   4.430 -0.3596  0.4981 -0.6941
 6888TIP3    H142155   0.941   2.648   4.423  0.8022 -0.4057  0.0294
 6888TIP3    H242156   0.866   2.546   4.340 -0.2274  1.0725 -0.9087
 6889TIP3   OH242157   5.501   3.141  16.843 -0.4772  0.3408  0.0957
 6889TIP3    H142158   5.532   3.078  16.778 -0.5025 -0.4510  0.8487
 6889TIP3    H242159   5.571   3.206  16.847  0.0372 -0.2059  0.0956
 6890TIP3   OH242160   0.846   4.865   2.878 -0.0188  0.5514 -0.4257
 6890TIP3    H142161   0.854   4.835   2.787 -1.0170  0.2563 -0.4372
 6890TIP3    H242162   0.934   4.891   2.903  0.9793 -2.4756 -0.4167
 6891TIP3   OH242163   3.436   2.736   0.047  0.7011  0.0692 -0.0164
 6891TIP3    H142164   3.357   2.692   0.017  0.0553  1.4111 -0.3366
 6891TIP3    H242165   3.429   2.734   0.143  0.7192 -0.5907 -0.0273
 6892TIP3   OH242166   1.118   2.807  14.303  0.1602  0.0992  0.0614
 6892TIP3    H142167   1.213   2.795  14.294  0.2929  0.6111  0.7353
 6892TIP3    H242168   1.091   2.741  14.367  0.1157  0.1867  0.1318
 6893TIP3   OH242169   5.190   2.514   1.732  0.0528  0.1342 -0.1589
 6893TIP3    H142170   5.149   2.565   1.662 -2.5022  0.3758  1.3645
 6893TIP3    H242171   5.123   2.451   1.758  1.5238 -1.0124  1.0003
 6894TIP3   OH242172   0.046   0.698   5.951 -0.4198  0.0594  0.3306
 6894TIP3    H142173  -0.010   0.628   5.984 -0.1911  0.3275  1.3107
 6894TIP3    H242174   0.072   0.747   6.029 -0.9349  1.5110 -0.3830
 6895TIP3   OH242175   5.710   0.276   0.891 -0.1105  0.2039 -0.3733
 6895TIP3    H142176   5.657   0.348   0.924  1.1773  1.4449 -0.9280
 6895TIP3    H242177   5.666   0.197   0.923 -0.9674  1.2468  1.1301
 6896TIP3   OH242178   0.342   0.512   4.510  0.2517  0.3732 -0.0177
 6896TIP3    H142179   0.327   0.448   4.580 -0.6488  1.4130  0.7724
 6896TIP3    H242180   0.264   0.507   4.455  0.7017 -0.0288 -0.6295
 6897TIP3   OH242181   0.718   4.376  10.643 -0.4610 -0.2480  0.0104
 6897TIP3    H142182   0.655   4.341  10.706  1.5974  0.3401  2.5181
 6897TIP3    H242183   0.755   4.298  10.601 -1.8018 -0.6414 -0.5230
 6898TIP3   OH242184   2.445   2.947  13.239  0.0518  0.1299 -0.2797
 6898TIP3    H142185   2.358   2.967  13.273  0.1089  0.3763 -0.2773
 6898TIP3    H242186   2.476   2.874  13.293  0.9455  1.7511  1.5231
 6899TIP3   OH242187   1.343   5.108  15.023  0.6691  0.2811  0.7412
 6899TIP3    H142188   1.363   5.028  15.072 -0.1829  1.1548  2.5964
 6899TIP3    H242189   1.249   5.104  15.007  0.9879 -0.1958 -1.2904
 6900TIP3   OH242190   3.766   4.513   1.182 -0.1442 -0.7659  0.2807
 6900TIP3    H142191   3.719   4.579   1.232 -0.7820 -1.1755  0.2264
 6900TIP3    H242192   3.698   4.466   1.133  0.4364 -0.5231 -0.8055
 6901TIP3   OH242193   0.539   6.263   1.813 -0.2111 -0.5886  0.7195
 6901TIP3    H142194   0.631   6.281   1.833 -0.8409  1.9731  1.5808
 6901TIP3    H242195   0.538   6.169   1.791  2.2927 -1.1167  2.4022
 6902TIP3   OH242196   5.146   5.193  16.674 -0.3062 -0.0999  0.2857
 6902TIP3    H142197   5.059   5.160  16.696 -0.4980 -0.4312 -0.9201
 6902TIP3    H242198   5.130   5.262  16.610  0.2683  0.5594  0.8237
 6903TIP3   OH242199   3.496   1.048  13.893  0.0942 -0.0485 -0.1427
 6903TIP3    H142200   3.473   0.966  13.938  1.0535  0.0445  0.5615
 6903TIP3    H242201   3.578   1.028  13.848  0.5631  0.6342  0.3870
 6904TIP3   OH242202   5.938   5.180   5.353 -0.3127  0.3896  0.4178
 6904TIP3    H142203   5.997   5.153   5.283  0.1747  0.6878  0.7023
 6904TIP3    H242204   5.891   5.255   5.318 -2.1531 -1.1802 -0.6192
 6905TIP3   OH242205   6.370   6.191   0.287  0.1881 -0.3430 -0.6116
 6905TIP3    H142206   6.419   6.242   0.221 -0.3910 -2.7780 -3.0885
 6905TIP3    H242207   6.432   6.182   0.360  1.2914  1.4830 -1.2321
 6906TIP3   OH242208   6.060   0.481   1.966 -0.5558  0.7510 -0.3856
 6906TIP3    H142209   6.012   0.546   2.016  0.5247 -0.1177  1.9109
 6906TIP3    H242210   6.113   0.532   1.905 -0.1157  2.0235  1.0069
 6907TIP3   OH242211   4.176   5.100  13.072  0.0192  0.3652  0.0081
 6907TIP3    H142212   4.187   5.007  13.094 -0.0129  0.3124 -0.1935
 6907TIP3    H242213   4.199   5.147  13.152 -1.7689  0.1165  0.7272
 6908TIP3   OH242214   2.290   0.126   3.813  0.1791 -0.1281  0.2554
 6908TIP3    H142215   2.296   0.207   3.761  4.3015 -0.4299 -0.1313
 6908TIP3    H242216   2.283   0.156   3.903  2.4812  0.8552  0.1956
 6909TIP3   OH242217   1.111   4.170  15.818  0.9990 -0.0453  0.3809
 6909TIP3    H142218   1.026   4.152  15.778  0.9819  2.0986 -0.6717
 6909TIP3    H242219   1.174   4.153  15.749  1.0437  2.7164 -0.3408
 6910TIP3   OH242220   1.383   5.168   2.140  0.9488 -0.0048 -0.0623
 6910TIP3    H142221   1.419   5.235   2.082 -0.3227  0.3122 -0.5263
 6910TIP3    H242222   1.407   5.196   2.228  0.6265  0.9595 -0.2707
 6911TIP3   OH242223   6.106   4.365  11.258 -0.4463  0.5802 -0.2960
 6911TIP3    H142224   6.118   4.279  11.218 -1.4594  0.5262 -0.5250
 6911TIP3    H242225   6.172   4.420  11.217 -0.9362  0.3320 -1.4886
 6912TIP3   OH242226   6.601   6.217   4.970  0.3235 -0.1758 -0.4014
 6912TIP3    H142227   6.544   6.220   5.047 -0.0092  1.4208 -0.6731
 6912TIP3    H242228   6.685   6.250   5.000  0.3565 -0.0881 -0.5855
 6913TIP3   OH242229   5.556   2.924   3.354  0.2215  0.2903  0.3283
 6913TIP3    H142230   5.539   2.895   3.443  0.8694  0.7709  0.6079
 6913TIP3    H242231   5.535   2.847   3.300  0.8864 -0.3632  0.9766
 6914TIP3   OH242232   1.567   1.112  12.467  0.0068 -0.1629 -0.2337
 6914TIP3    H142233   1.589   1.039  12.524  2.3351  0.6619  0.0549
 6914TIP3    H242234   1.480   1.092  12.434 -0.4628 -1.8009  1.7917
 6915TIP3   OH242235   0.205   5.857   6.374  0.1196  0.2372 -0.2748
 6915TIP3    H142236   0.172   5.858   6.464  0.6795 -0.6834 -0.0565
 6915TIP3    H242237   0.290   5.900   6.380 -0.4897  1.5499 -0.6414
 6916TIP3   OH242238   4.079   2.961   4.679  0.9614  0.2269 -0.0826
 6916TIP3    H142239   3.984   2.950   4.675  0.8790  0.7846  0.1845
 6916TIP3    H242240   4.114   2.892   4.624  0.4085 -0.1491  0.0328
 6917TIP3   OH242241   1.398   0.214  14.909  0.2455 -0.4262 -0.6316
 6917TIP3    H142242   1.427   0.160  14.982  0.1244  1.9025  1.2650
 6917TIP3    H242243   1.329   0.270  14.946  2.1961  2.9132 -1.6083
 6918TIP3   OH242244   3.290   6.136   6.134  0.1707 -0.0297  0.0590
 6918TIP3    H142245   3.355   6.171   6.075  0.2545 -0.4679 -0.1142
 6918TIP3    H242246   3.206   6.159   6.094  0.1845  1.4773  0.8298
 6919TIP3   OH242247   1.958   6.157  11.441  0.3446 -0.1171  0.5130
 6919TIP3    H142248   2.039   6.153  11.492  0.3310 -1.5160  0.4522
 6919TIP3    H242249   1.897   6.205  11.498  0.6601 -0.6784  1.3437
 6920TIP3   OH242250   0.626   5.961  13.137  0.6012  0.4474 -0.4463
 6920TIP3    H142251   0.546   5.919  13.168  1.2516 -0.1994  0.3810
 6920TIP3    H242252   0.610   6.054  13.150  0.3535  0.2685  0.6289
 6921TIP3   OH242253   4.631   5.657   5.077 -0.0915 -1.0585  0.1195
 6921TIP3    H142254   4.643   5.611   4.993  0.2678  0.0532 -0.4519
 6921TIP3    H242255   4.581   5.735   5.055 -0.3280 -0.9527  1.0089
 6922TIP3   OH242256   3.517   3.720  15.259  0.1332 -0.4630 -0.0802
 6922TIP3    H142257   3.475   3.683  15.337  0.4579 -1.0386 -0.1662
 6922TIP3    H242258   3.536   3.643  15.204  1.1450 -0.2016 -0.1144
 6923TIP3   OH242259   5.305   1.264   0.235  0.3396  0.0093  0.5255
 6923TIP3    H142260   5.386   1.213   0.223  0.2679  0.1192 -0.4534
 6923TIP3    H242261   5.247   1.235   0.165 -0.8291 -0.7159  1.7311
 6924TIP3   OH242262   2.555   1.241  10.999  0.6711 -0.6489  0.0813
 6924TIP3    H142263   2.505   1.322  10.991  0.1185 -1.1066 -1.5624
 6924TIP3    H242264   2.640   1.261  10.960  0.9655 -0.5357  0.7647
 6925TIP3   OH242265   4.411   1.901  14.533 -0.2831  0.2542 -0.0585
 6925TIP3    H142266   4.447   1.856  14.610 -0.3836 -1.4296 -0.9381
 6925TIP3    H242267   4.472   1.972  14.516 -1.3355  1.9641  2.7441
 6926TIP3   OH242268   2.080   4.476   5.621  0.0530 -0.4753  0.3658
 6926TIP3    H142269   2.170   4.471   5.655  0.3530 -0.4618 -0.4086
 6926TIP3    H242270   2.084   4.432   5.537 -0.7143 -0.6185  0.3978
 6927TIP3   OH242271   3.380   3.121  14.815  0.1630 -0.0119  0.7566
 6927TIP3    H142272   3.473   3.139  14.826 -0.2346  2.5249  0.4854
 6927TIP3    H242273   3.351   3.180  14.746 -1.4789 -1.5007  0.0670
 6928TIP3   OH242274   4.128   3.685  12.636  0.2110  0.4383 -0.0062
 6928TIP3    H142275   4.168   3.757  12.683 -1.2229  2.2795 -1.4592
 6928TIP3    H242276   4.080   3.726  12.564 -0.3669 -1.9894 -1.1322
 6929TIP3   OH242277   6.600   4.635   3.524 -0.4953  0.0174  0.5331
 6929TIP3    H142278   6.642   4.643   3.610  1.3864 -0.3711 -0.3059
 6929TIP3    H242279   6.535   4.566   3.535  0.9444 -1.2611  1.2148
 6930TIP3   OH242280   3.999   4.294  16.631 -0.2466 -0.5513  0.1193
 6930TIP3    H142281   4.065   4.275  16.564 -1.2462  0.1130 -1.0827
 6930TIP3    H242282   3.955   4.373  16.601  0.0727  0.5029  2.1926
 6931TIP3   OH242283   1.260   2.115  11.385  0.7140 -0.0102 -0.4388
 6931TIP3    H142284   1.245   2.200  11.342  1.2980 -0.2266 -1.1047
 6931TIP3    H242285   1.317   2.136  11.459 -1.6644  0.6162  1.3105
 6932TIP3   OH242286   5.958   5.742   3.499 -0.7171 -0.0154 -0.2765
 6932TIP3    H142287   6.003   5.812   3.546  0.2983 -0.5012 -0.4903
 6932TIP3    H242288   6.025   5.674   3.489 -1.1341 -0.2270 -1.7519
 6933TIP3   OH242289   0.296   4.640   3.452  0.3779 -0.4152  0.4726
 6933TIP3    H142290   0.376   4.589   3.464 -0.2773 -1.5153  0.2325
 6933TIP3    H242291   0.327   4.730   3.444  1.5488 -0.7517  0.9693
 6934TIP3   OH242292   5.657   5.863   0.558 -0.2833  0.1454 -0.0731
 6934TIP3    H142293   5.566   5.845   0.583 -0.3489 -0.1101 -0.4836
 6934TIP3    H242294   5.705   5.786   0.586 -0.2569  0.1214 -0.1823
 6935TIP3   OH242295   2.662   4.126   0.204  0.1370  0.2419  0.7828
 6935TIP3    H142296   2.589   4.175   0.168  0.1442 -0.4216 -0.1627
 6935TIP3    H242297   2.660   4.145   0.298 -1.0432  0.4822  0.7194
 6936TIP3   OH242298   5.098   5.411   2.806  0.0578  0.3389  0.1222
 6936TIP3    H142299   5.161   5.372   2.866  1.4972  0.5729 -1.1679
 6936TIP3    H242300   5.095   5.503   2.831  1.9460  0.8145 -1.1177
 6937TIP3   OH242301   3.404   6.323  10.483  0.1972 -0.1376  0.1536
 6937TIP3    H142302   3.366   6.390  10.538  0.4727  0.5145 -0.4348
 6937TIP3    H242303   3.390   6.354  10.393 -1.6477 -1.9116 -0.2470
 6938TIP3   OH242304   5.635   0.742  16.176 -0.3086 -0.0534  0.4065
 6938TIP3    H142305   5.586   0.771  16.098 -2.2286  4.6566  2.9652
 6938TIP3    H242306   5.721   0.782  16.165  0.9928 -2.9869 -1.0861
 6939TIP3   OH242307   4.215   4.927  17.047  0.0531 -0.0541  0.0409
 6939TIP3    H142308   4.183   5.016  17.029  0.8255  0.2231  0.0248
 6939TIP3    H242309   4.303   4.925  17.011 -0.4313 -1.2622 -1.1919
 6940TIP3   OH242310   2.438   0.095   6.664 -0.1072 -0.6218  0.0932
 6940TIP3    H142311   2.528   0.069   6.645 -0.0632 -0.2768 -0.1939
 6940TIP3    H242312   2.446   0.183   6.702 -0.3378 -0.4383 -0.2687
 6941TIP3   OH242313   3.514   4.463  14.860 -0.3634  0.5196  0.1884
 6941TIP3    H142314   3.433   4.461  14.911 -0.5112  0.6846 -0.0302
 6941TIP3    H242315   3.581   4.492  14.921 -0.0492 -1.5884  0.8972
 6942TIP3   OH242316   5.765   1.595   3.760  0.0976  0.3674  0.0754
 6942TIP3    H142317   5.841   1.577   3.815  1.3968  0.2965 -1.6592
 6942TIP3    H242318   5.695   1.616   3.822  1.5507  0.5800  1.7224
 6943TIP3   OH242319   0.406   1.989  11.573 -0.0420 -0.1448  0.0572
 6943TIP3    H142320   0.449   1.907  11.552 -0.6618 -0.5759  0.4208
 6943TIP3    H242321   0.435   2.050  11.505  0.2457 -0.7237 -0.3459
 6944TIP3   OH242322   0.093   3.885   2.743 -0.1450 -0.1352  0.5566
 6944TIP3    H142323   0.035   3.916   2.673  1.7839 -1.6359 -1.8971
 6944TIP3    H242324   0.139   3.963   2.773 -1.2496  0.5959  0.3980
 6945TIP3   OH242325   6.015   5.513   0.909 -0.1277 -0.4603 -0.0855
 6945TIP3    H142326   5.965   5.443   0.952 -0.4356  0.7562  1.6541
 6945TIP3    H242327   6.041   5.571   0.980  0.0030  1.2830 -1.4843
 6946TIP3   OH242328   2.417   6.512  13.094  0.5023  0.0098  0.2230
 6946TIP3    H142329   2.384   6.531  13.182 -0.3537 -1.9668  0.3690
 6946TIP3    H242330   2.451   6.423  13.099 -0.6883 -0.6281 -1.7157
 6947TIP3   OH242331   3.043   6.766   3.604  0.4866 -0.1097  1.1245
 6947TIP3    H142332   3.032   6.798   3.514 -0.8181 -0.1037  1.2720
 6947TIP3    H242333   3.127   6.802   3.631  1.0912 -0.4400 -0.2248
 6948TIP3   OH242334   0.738   3.151  11.593  0.2750 -0.5976  0.0263
 6948TIP3    H142335   0.750   3.127  11.685 -0.4048  0.4533  0.4056
 6948TIP3    H242336   0.762   3.243  11.588 -0.6972 -0.3588 -0.6168
 6949TIP3   OH242337   1.764   4.347   1.594 -0.0012 -0.9336  0.0126
 6949TIP3    H142338   1.678   4.358   1.633  0.1124  0.7455 -0.1080
 6949TIP3    H242339   1.819   4.410   1.640  1.2007 -2.0625  0.1721
 6950TIP3   OH242340   2.742   2.756   5.009 -0.5115  0.3011  0.2843
 6950TIP3    H142341   2.783   2.711   4.935 -1.7031 -0.2869 -0.0553
 6950TIP3    H242342   2.763   2.848   4.996 -0.1064  0.1206 -0.3974
 6951TIP3   OH242343   4.928   3.869   3.944  0.0219  0.1210  1.0399
 6951TIP3    H142344   4.956   3.933   3.879  1.8777 -1.4308  0.2384
 6951TIP3    H242345   4.894   3.922   4.016  1.4897  2.0041  0.4283
 6952TIP3   OH242346   5.165   4.723  14.439 -0.1102  0.1582 -0.1857
 6952TIP3    H142347   5.199   4.812  14.430  0.1279  0.0393 -0.4974
 6952TIP3    H242348   5.082   4.725  14.391 -0.3322  0.3352  0.2056
 6953TIP3   OH242349   6.222   6.574   3.988  0.3696 -0.0609  0.5922
 6953TIP3    H142350   6.294   6.515   4.012 -0.3102 -0.9040  0.6041
 6953TIP3    H242351   6.242   6.655   4.035  1.6099 -0.0832  0.1488
 6954TIP3   OH242352   4.554   2.078   0.085  0.2656 -0.8417  0.5068
 6954TIP3    H142353   4.583   2.064   0.175  0.1168 -0.1724  0.6670
 6954TIP3    H242354   4.494   2.152   0.091  0.3172 -0.7415 -0.1544
 6955TIP3   OH242355   3.389   3.422  11.846  0.6343  0.3091 -0.2805
 6955TIP3    H142356   3.445   3.376  11.909  2.9695  1.1802 -1.5687
 6955TIP3    H242357   3.391   3.513  11.876 -1.5485  0.1303  0.5871
 6956TIP3   OH242358   2.322   4.153   5.315  0.2848 -0.0954 -0.0015
 6956TIP3    H142359   2.393   4.115   5.263  1.2614  1.5304  0.0743
 6956TIP3    H242360   2.249   4.160   5.253  0.9025  0.2699 -0.7068
 6957TIP3   OH242361   0.585   4.475   3.543  0.1455 -0.6062 -0.2963
 6957TIP3    H142362   0.627   4.440   3.622 -0.5011  0.3094  0.4901
 6957TIP3    H242363   0.605   4.569   3.546  0.5248 -0.6390 -1.4951
 6958TIP3   OH242364   2.489   2.553  15.111  0.0457 -0.1270  0.1174
 6958TIP3    H142365   2.466   2.579  15.201 -0.8179 -1.6652  0.3799
 6958TIP3    H242366   2.583   2.568  15.105 -0.3503  3.2470  0.1220
 6959TIP3   OH242367   4.945   3.816  14.220 -0.2346 -0.1992 -0.0661
 6959TIP3    H142368   4.861   3.839  14.260  0.3750  1.2807  0.4644
 6959TIP3    H242369   5.010   3.856  14.278  0.7965 -0.5056 -0.9768
 6960TIP3   OH242370   1.748   2.458   0.742  0.0740 -0.0269 -0.2360
 6960TIP3    H142371   1.824   2.477   0.796 -0.3565  0.5188  0.2004
 6960TIP3    H242372   1.784   2.425   0.660  0.8512  1.3500 -0.4934
 6961TIP3   OH242373   0.343   1.776  10.646 -0.2178  0.2226 -0.2093
 6961TIP3    H142374   0.419   1.723  10.623 -0.5269 -0.7382  0.8616
 6961TIP3    H242375   0.372   1.866  10.636  1.0043 -0.1286  0.0048
 6962TIP3   OH242376   6.744   2.334  16.703  0.1626 -0.1627  0.5565
 6962TIP3    H142377   6.694   2.279  16.643  0.1429 -2.5521  2.5965
 6962TIP3    H242378   6.832   2.338  16.664  0.2085 -1.8290  0.4033
 6963TIP3   OH242379   4.228   3.330   2.380 -0.3224 -0.0377 -0.0174
 6963TIP3    H142380   4.173   3.253   2.393  0.0394 -0.0726  1.5436
 6963TIP3    H242381   4.317   3.295   2.381 -0.2120  0.1889 -1.1397
 6964TIP3   OH242382   2.377   0.491   0.134 -0.2811  0.6481  0.0092
 6964TIP3    H142383   2.347   0.452   0.216 -1.3049 -0.5778 -0.8840
 6964TIP3    H242384   2.463   0.452   0.119 -0.2026  0.6794  0.3783
 6965TIP3   OH242385   2.302   6.190   1.314  0.4579  0.5458  0.1578
 6965TIP3    H142386   2.253   6.258   1.268  0.6649  0.5145 -0.1131
 6965TIP3    H242387   2.383   6.234   1.342  1.2993  0.0361 -1.3553
 6966TIP3   OH242388   4.524   1.179  13.402 -0.0718  0.4066 -0.5667
 6966TIP3    H142389   4.579   1.108  13.436 -0.8040 -0.1052 -0.4281
 6966TIP3    H242390   4.578   1.257  13.412  1.1543 -0.2531 -1.6962
 6967TIP3   OH242391   4.921   5.648  14.943  0.0197  0.3449  0.5230
 6967TIP3    H142392   4.838   5.695  14.929 -0.5802 -1.1685 -1.7124
 6967TIP3    H242393   4.894   5.556  14.952  1.4548 -0.3813 -1.7087
 6968TIP3   OH242394   5.975   5.254   6.003 -0.1401 -0.0369 -0.7439
 6968TIP3    H142395   5.982   5.190   5.933  0.8653 -0.1516 -0.5649
 6968TIP3    H242396   6.004   5.336   5.964 -0.7239  0.1575 -0.7774
 6969TIP3   OH242397   0.931   4.484  16.256 -0.6967 -0.0608 -0.1045
 6969TIP3    H142398   0.865   4.419  16.235 -0.3346  0.2693 -2.5684
 6969TIP3    H242399   0.990   4.485  16.181  0.2337  1.9811  0.5467
 6970TIP3   OH242400   4.039   4.749   4.479  0.1118  0.1174 -0.4580
 6970TIP3    H142401   4.125   4.790   4.480 -0.1552  0.6872  0.5922
 6970TIP3    H242402   4.053   4.663   4.518  0.1712  0.2938 -0.0836
 6971TIP3   OH242403   0.400   1.888   3.944 -0.5467 -0.0128 -0.0502
 6971TIP3    H142404   0.332   1.944   3.980 -0.8881  1.4260 -2.6862
 6971TIP3    H242405   0.359   1.844   3.870  1.0405 -0.1093 -0.9187
 6972TIP3   OH242406   0.655   1.600   5.112  0.2976  0.0463  0.3218
 6972TIP3    H142407   0.568   1.603   5.151 -0.3480  0.2871 -1.0529
 6972TIP3    H242408   0.685   1.691   5.112  0.6604 -0.0630  0.9859
 6973TIP3   OH242409   5.321   1.414   2.988 -0.4699  0.3204 -0.0467
 6973TIP3    H142410   5.387   1.448   2.928 -1.0452  1.8761  0.1635
 6973TIP3    H242411   5.332   1.465   3.068  0.1888 -1.6220  1.1786
 6974TIP3   OH242412   0.283   6.350   4.033 -0.2806 -0.0213  0.6667
 6974TIP3    H142413   0.303   6.334   4.125 -0.8416 -1.5981  0.5464
 6974TIP3    H242414   0.267   6.263   3.996  0.1343  0.5632 -0.9796
 6975TIP3   OH242415   4.073   6.356   5.458  0.2610  0.0279 -0.5159
 6975TIP3    H142416   4.155   6.353   5.409  1.1098  1.1978  0.7637
 6975TIP3    H242417   4.074   6.275   5.510  1.3487  0.7166  0.5869
 6976TIP3   OH242418   6.426   5.065  12.078 -0.5613 -0.2483 -0.0769
 6976TIP3    H142419   6.331   5.064  12.067 -0.7801  1.1886  1.2869
 6976TIP3    H242420   6.443   4.999  12.146 -0.9151  1.1423  1.4420
 6977TIP3   OH242421   4.240   1.491  12.423 -0.3523  0.4331 -0.4529
 6977TIP3    H142422   4.300   1.417  12.433 -1.3201 -0.0804  2.6078
 6977TIP3    H242423   4.244   1.513  12.330  1.4077 -2.2236 -1.1092
 6978TIP3   OH242424   5.701   3.921  14.434 -0.4756  0.7593  0.1741
 6978TIP3    H142425   5.691   3.843  14.381 -0.9339  2.5760 -2.6322
 6978TIP3    H242426   5.617   3.930  14.479 -1.0257  0.4735 -0.7573
 6979TIP3   OH242427   2.474   3.404  17.119  0.0201 -0.4152  0.0632
 6979TIP3    H142428   2.474   3.347  17.196 -0.0264  0.9910  1.1515
 6979TIP3    H242429   2.525   3.356  17.053  2.3294 -0.5842  1.8345
 6980TIP3   OH242430   0.826   0.093   1.692 -0.4982 -0.0775  0.3620
 6980TIP3    H142431   0.801   0.127   1.606 -1.0521 -1.5419 -0.1004
 6980TIP3    H242432   0.865   0.167   1.738  1.2701  0.3660 -1.7163
 6981TIP3   OH242433   3.404   0.999   1.399 -0.5248 -0.2217  0.0526
 6981TIP3    H142434   3.424   1.060   1.470  0.2879  0.8759 -1.0782
 6981TIP3    H242435   3.482   0.944   1.392 -0.0905  0.4878 -0.7910
 6982TIP3   OH242436   4.391   4.301  15.369 -0.1684  0.5034  0.0557
 6982TIP3    H142437   4.403   4.231  15.434 -1.1693 -0.4183 -0.7119
 6982TIP3    H242438   4.345   4.370  15.417  0.7502  0.6098  0.8009
 6983TIP3   OH242439   1.068   4.832  15.113  0.0431  0.0143 -0.1374
 6983TIP3    H142440   1.133   4.873  15.169 -1.7854  2.2353  0.5356
 6983TIP3    H242441   1.109   4.829  15.027  1.3786  0.4725  0.4580
 6984TIP3   OH242442   6.633   0.634  13.634 -0.3967 -0.4364 -0.1621
 6984TIP3    H142443   6.591   0.646  13.719 -0.9565  0.4472 -0.5421
 6984TIP3    H242444   6.658   0.542  13.632  2.2497  0.1074  2.1369
 6985TIP3   OH242445   3.438   4.054  11.222 -0.5850 -0.0688 -0.3903
 6985TIP3    H142446   3.496   4.075  11.148 -1.9222  1.6780 -1.0011
 6985TIP3    H242447   3.357   4.100  11.202 -0.9857  0.4733  2.1937
 6986TIP3   OH242448   0.454   6.225  17.131 -0.3617 -0.1214  0.2255
 6986TIP3    H142449   0.543   6.259  17.131 -0.4560  0.1414  0.9772
 6986TIP3    H242450   0.406   6.285  17.188 -0.7848 -0.8696  0.6689
 6987TIP3   OH242451   6.316   6.621  15.882 -0.2443 -0.1967 -0.0945
 6987TIP3    H142452   6.343   6.529  15.889 -0.8640 -0.6070 -2.1925
 6987TIP3    H242453   6.375   6.668  15.940  1.5300 -1.6882 -0.5840
 6988TIP3   OH242454   0.552   2.321  14.273 -0.2208  0.6439 -0.2068
 6988TIP3    H142455   0.543   2.386  14.204 -1.9075 -1.9550 -2.6610
 6988TIP3    H242456   0.636   2.278  14.255 -0.7329 -0.1373 -0.7841
 6989TIP3   OH242457   3.242   0.598  11.076  0.2584 -0.8035 -0.1584
 6989TIP3    H142458   3.261   0.685  11.043  0.2197 -0.8881 -0.4089
 6989TIP3    H242459   3.184   0.612  11.151 -0.4799 -0.6497 -0.7443
 6990TIP3   OH242460   6.071   2.008   0.273 -0.7366  0.6368  0.2530
 6990TIP3    H142461   5.979   2.023   0.294 -0.9248  0.2774 -0.2877
 6990TIP3    H242462   6.119   2.047   0.346 -1.2302  2.8022 -0.5017
 6991TIP3   OH242463   4.349   5.145  10.761 -0.4443 -0.3304 -0.1186
 6991TIP3    H142464   4.443   5.143  10.742  0.2582  0.6665  2.7039
 6991TIP3    H242465   4.328   5.056  10.788  0.4835  0.0645  2.1481
 6992TIP3   OH242466   4.177   0.441  15.421  0.3131 -0.2925 -0.2847
 6992TIP3    H142467   4.194   0.531  15.394  1.6817 -0.6416 -0.6669
 6992TIP3    H242468   4.100   0.415  15.369 -1.1769  1.1547  1.0699
 6993TIP3   OH242469   1.741   4.736  15.545  0.5980  0.9922  0.1981
 6993TIP3    H142470   1.687   4.676  15.595 -0.4706  1.6490 -0.1221
 6993TIP3    H242471   1.732   4.706  15.454  1.3881  0.6543  0.2256
 6994TIP3   OH242472   0.562   6.605   1.249  0.0406 -0.2088  0.0156
 6994TIP3    H142473   0.523   6.537   1.194 -0.1297 -1.8787  2.0793
 6994TIP3    H242474   0.632   6.642   1.195 -1.3026 -0.4346 -1.9908
 6995TIP3   OH242475   6.082   2.469   1.670  0.3624  0.4109  0.2703
 6995TIP3    H142476   5.986   2.459   1.668  0.4588 -0.6377 -1.1871
 6995TIP3    H242477   6.108   2.436   1.756 -0.5323 -0.1060  0.3578
 6996TIP3   OH242478   5.969   1.298  11.696  0.1264  0.1002 -0.3218
 6996TIP3    H142479   6.032   1.318  11.627  0.3016 -1.0770 -0.5250
 6996TIP3    H242480   6.005   1.222  11.740 -0.1351  0.6535  0.8932
 6997TIP3   OH242481   5.031   5.570   0.110 -0.3356 -0.2187 -0.1434
 6997TIP3    H142482   5.121   5.551   0.136 -0.1550  0.3444 -0.3363
 6997TIP3    H242483   5.011   5.654   0.151 -0.8322 -0.4177  0.0311
 6998TIP3   OH242484   4.336   4.963  12.818 -0.2475 -0.6524  0.0001
 6998TIP3    H142485   4.257   4.934  12.863 -2.3414  2.0747 -1.5198
 6998TIP3    H242486   4.367   5.038  12.869  0.4377 -0.7629 -0.2457
 6999TIP3   OH242487   0.425   6.684   1.479 -0.1350 -0.0838  0.5678
 6999TIP3    H142488   0.454   6.646   1.397 -1.9262  0.8303 -0.5529
 6999TIP3    H242489   0.419   6.609   1.539  1.5356 -0.7037  0.0122
 7000TIP3   OH242490   2.018   1.777  11.760  0.0576  0.3059 -0.8797
 7000TIP3    H142491   2.104   1.766  11.801 -1.2928 -3.5104  1.4673
 7000TIP3    H242492   1.965   1.822  11.826 -0.6385 -0.6348 -0.7711
 7001TIP3   OH242493   4.401   2.122   0.644  0.7187  0.0387 -0.3123
 7001TIP3    H142494   4.447   2.202   0.617  0.4443  0.3828  0.2214
 7001TIP3    H242495   4.461   2.051   0.621  1.6975  0.5017  0.6917
 7002TIP3   OH242496   4.619   2.468   0.432 -0.1539 -0.1310 -0.2923
 7002TIP3    H142497   4.557   2.436   0.497  0.6465  0.3597  0.7371
 7002TIP3    H242498   4.692   2.503   0.483  0.4985  0.2643 -1.4539
 7003TIP3   OH242499   4.370   1.557  15.664  0.0402  0.2673  1.0750
 7003TIP3    H142500   4.361   1.623  15.594 -0.3308 -2.6271 -1.8569
 7003TIP3    H242501   4.338   1.601  15.742 -0.8885  3.3099 -0.8241
 7004TIP3   OH242502   5.072   1.075  13.519 -0.2188 -0.2396 -0.3296
 7004TIP3    H142503   5.068   1.083  13.614 -0.9274 -2.3436 -0.1249
 7004TIP3    H242504   5.027   1.153  13.486 -2.3016 -0.7283  1.1468
 7005TIP3   OH242505   3.905   4.613  11.731 -0.9945 -0.1439 -0.0609
 7005TIP3    H142506   3.841   4.645  11.668 -1.7566  0.3768  0.9610
 7005TIP3    H242507   3.939   4.692  11.773 -1.2095 -0.5310  0.8604
 7006TIP3   OH242508   1.159   5.602  16.009  0.4798 -0.0251 -0.1189
 7006TIP3    H142509   1.195   5.619  16.096  1.2659  3.2405 -0.9460
 7006TIP3    H242510   1.192   5.516  15.985 -1.4114 -1.9910  3.5116
 7007TIP3   OH242511   6.313   5.434  11.470 -0.1373  0.5182  0.4433
 7007TIP3    H142512   6.266   5.397  11.395  2.6587 -0.8117 -0.7994
 7007TIP3    H242513   6.316   5.364  11.534  0.0955  0.6166  0.5423
 7008TIP3   OH242514   4.932   3.904  13.001 -0.5366  0.2062  0.6698
 7008TIP3    H142515   4.887   3.823  13.025 -2.0831  1.2286  1.4598
 7008TIP3    H242516   4.917   3.962  13.076 -0.6510  1.6532 -0.4279
 7009TIP3   OH242517   4.530   0.514   4.291  0.0007  0.1412 -0.3004
 7009TIP3    H142518   4.435   0.515   4.276  0.0977  1.6800 -0.9756
 7009TIP3    H242519   4.561   0.440   4.239 -0.9205 -0.9929  0.7004
 7010TIP3   OH242520   2.857   0.391   6.332  0.3694 -0.0279  0.3073
 7010TIP3    H142521   2.931   0.450   6.345 -0.3253  1.5770 -2.2726
 7010TIP3    H242522   2.782   0.449   6.322 -0.7867 -1.4850  0.1043
 7011TIP3   OH242523   1.521   4.427   1.999 -0.3072 -0.5755  0.4238
 7011TIP3    H142524   1.538   4.520   1.981 -0.1174 -0.6917 -0.0194
 7011TIP3    H242525   1.507   4.388   1.912  1.6603 -1.3670  0.4031
 7012TIP3   OH242526   0.980   6.216  15.287 -0.4269 -0.5656 -0.3471
 7012TIP3    H142527   0.990   6.246  15.377  0.3726 -0.9314 -0.3059
 7012TIP3    H242528   0.886   6.219  15.271 -0.5650 -0.3882  0.4618
 7013TIP3   OH242529   1.434   6.458  16.834 -0.0710 -0.0356  0.0350
 7013TIP3    H142530   1.492   6.400  16.884 -0.2221  0.2262  0.5289
 7013TIP3    H242531   1.488   6.535  16.816 -0.4858  0.5586  1.1992
 7014TIP3   OH242532   0.989   4.681   3.595  0.3987 -0.4472 -0.2860
 7014TIP3    H142533   1.012   4.594   3.627 -1.1941 -0.0967  2.0987
 7014TIP3    H242534   0.897   4.674   3.569  0.4222  0.3651 -0.6287
 7015TIP3   OH242535   1.398   3.461  12.370 -0.3465  0.5250  0.2959
 7015TIP3    H142536   1.446   3.408  12.307  0.1752 -1.8387  2.5215
 7015TIP3    H242537   1.327   3.500  12.319  1.1587  0.3303 -2.1045
 7016TIP3   OH242538   4.870   6.573  11.071 -0.0098  0.2419  0.3428
 7016TIP3    H142539   4.780   6.547  11.092 -0.9544  1.2193 -2.0152
 7016TIP3    H242540   4.874   6.567  10.975  3.1151 -1.6937  0.4517
 7017TIP3   OH242541   4.963   3.102   2.703 -0.0713 -0.2385  0.1205
 7017TIP3    H142542   4.962   3.162   2.628  0.8612 -3.1009 -2.3989
 7017TIP3    H242543   5.051   3.113   2.740 -0.1289  0.4046  0.0781
 7018TIP3   OH242544   3.373   3.266   2.133 -0.1429  0.2540  0.6462
 7018TIP3    H142545   3.363   3.174   2.111  1.4592 -0.0430  1.0481
 7018TIP3    H242546   3.407   3.265   2.223  0.3743  1.2222  0.4673
 7019TIP3   OH242547   5.339   3.430  15.659  0.7829 -0.2087 -0.0323
 7019TIP3    H142548   5.426   3.413  15.623  0.7213  1.9961 -1.3981
 7019TIP3    H242549   5.319   3.519  15.632 -1.9080 -0.6419  0.2491
 7020TIP3   OH242550   5.239   3.707  16.431  0.0268  0.1444 -0.1231
 7020TIP3    H142551   5.282   3.745  16.354 -1.0988  1.8864  0.0665
 7020TIP3    H242552   5.307   3.709  16.499  0.8009 -0.7338 -0.8367
 7021TIP3   OH242553   6.185   2.251  12.079 -0.2135 -0.0870  0.5636
 7021TIP3    H142554   6.189   2.346  12.065  1.0229  0.0284  1.5108
 7021TIP3    H242555   6.127   2.241  12.154  0.4235  0.0180  1.0841
 7022TIP3   OH242556   0.997   1.535   0.718  0.2218 -0.6581 -0.5248
 7022TIP3    H142557   1.005   1.560   0.626 -0.9646  1.5046 -0.1013
 7022TIP3    H242558   0.903   1.536   0.736  0.4528  3.8151  1.8219
 7023TIP3   OH242559   6.270   1.307   2.634 -0.1215  0.8996 -0.0792
 7023TIP3    H142560   6.327   1.275   2.564 -0.3253  0.1884  0.0716
 7023TIP3    H242561   6.328   1.312   2.711  0.6646  3.7479 -0.7249
 7024TIP3   OH242562   3.252   5.909   4.541  0.1261 -0.4973  0.0419
 7024TIP3    H142563   3.179   5.912   4.603 -0.1567  1.8782 -0.3108
 7024TIP3    H242564   3.213   5.933   4.457  1.1902  0.3011 -0.2480
 7025TIP3   OH242565   2.152   2.045  11.983  0.1308  0.8658 -0.0533
 7025TIP3    H142566   2.191   2.098  11.913  1.7613 -0.2943 -0.0776
 7025TIP3    H242567   2.064   2.025  11.951  0.2689  1.7174 -1.0365
 7026TIP3   OH242568   5.125   4.584  12.776 -0.0078  0.0619  0.1606
 7026TIP3    H142569   5.090   4.497  12.755 -1.4210  0.9526 -1.3174
 7026TIP3    H242570   5.173   4.611  12.698  1.6755  0.0468  1.1431
 7027TIP3   OH242571   0.022   5.462  15.902 -0.4240 -0.1546 -0.4961
 7027TIP3    H142572  -0.040   5.390  15.912 -0.5134 -0.0984 -0.6421
 7027TIP3    H242573   0.042   5.464  15.809  0.8816 -1.0766 -0.2663
 7028TIP3   OH242574   4.864   3.264  16.855 -0.2000 -0.0733 -0.0480
 7028TIP3    H142575   4.943   3.209  16.853  0.5287  0.9670 -1.1411
 7028TIP3    H242576   4.875   3.318  16.933  1.0491  1.2483 -1.0775
 7029TIP3   OH242577   6.131   1.949   5.647 -0.1485 -0.5688  0.1528
 7029TIP3    H142578   6.076   2.000   5.586  0.4374 -0.1940 -0.0728
 7029TIP3    H242579   6.069   1.911   5.709 -0.6570 -0.0595 -0.0296
 7030TIP3   OH242580   4.477   5.558   4.523  0.0664 -0.0048 -0.7890
 7030TIP3    H142581   4.416   5.511   4.579  1.2952 -0.2346  0.4100
 7030TIP3    H242582   4.444   5.544   4.434 -0.4631 -1.8519 -0.3471
 7031TIP3   OH242583   3.234   3.072   1.015  0.4289 -0.4046 -0.2469
 7031TIP3    H142584   3.301   3.050   0.950  2.6450  3.5582  0.4022
 7031TIP3    H242585   3.205   3.161   0.991 -2.7005 -0.9082  1.1128
 7032TIP3   OH242586   2.970   5.819  17.132 -0.0410 -0.0273 -0.3421
 7032TIP3    H142587   3.057   5.856  17.123 -0.3521  1.3826  1.6575
 7032TIP3    H242588   2.920   5.886  17.178 -2.3262 -0.6270 -1.7832
 7033TIP3   OH242589   6.312   0.238  13.726 -0.2191 -0.2747  0.2207
 7033TIP3    H142590   6.322   0.154  13.772 -2.6904 -1.1617 -0.7381
 7033TIP3    H242591   6.252   0.220  13.655  0.1169  2.0869 -0.7567
 7034TIP3   OH242592   1.555   6.337   1.156 -0.0377  0.2751  0.2474
 7034TIP3    H142593   1.498   6.337   1.078 -2.1408 -0.5058  1.6782
 7034TIP3    H242594   1.504   6.383   1.222  0.8879 -0.7064  1.6929
 7035TIP3   OH242595   0.790   0.976   3.578  0.4275  0.3344 -0.0762
 7035TIP3    H142596   0.813   0.995   3.668 -0.4793  0.9740  0.0333
 7035TIP3    H242597   0.790   1.061   3.534  0.4323  0.0834 -0.5705
 7036TIP3   OH242598   2.159   6.483  15.357 -0.2159 -0.7721  0.9503
 7036TIP3    H142599   2.076   6.442  15.381  0.3925 -1.4857  1.9397
 7036TIP3    H242600   2.224   6.414  15.371  0.3598 -0.9260 -1.8181
 7037TIP3   OH242601   6.132   0.647   5.584 -0.0271  0.3301  0.0099
 7037TIP3    H142602   6.178   0.722   5.547 -0.5145  0.5837 -0.0952
 7037TIP3    H242603   6.104   0.676   5.671 -0.8284  0.5305 -0.3003
 7038TIP3   OH242604   6.475   0.423  11.196  0.2147 -0.0834 -0.2551
 7038TIP3    H142605   6.441   0.438  11.285  0.4742  0.0931 -0.1852
 7038TIP3    H242606   6.506   0.333  11.197 -3.2310 -1.4673 -1.2665
 7039TIP3   OH242607   4.880   1.737   1.217  0.0168 -0.3621 -0.5015
 7039TIP3    H142608   4.928   1.669   1.170 -1.0894 -3.0830  2.0231
 7039TIP3    H242609   4.908   1.729   1.308 -2.3551  0.5327  0.3997
 7040TIP3   OH242610   2.275   2.424  14.700 -0.4347 -0.7225  0.7357
 7040TIP3    H142611   2.317   2.345  14.666 -2.1163 -1.3313  0.0087
 7040TIP3    H242612   2.249   2.401  14.790 -1.6494 -1.3056  0.2532
 7041TIP3   OH242613   6.670   4.202  14.111  0.4258 -0.7391  0.2363
 7041TIP3    H142614   6.730   4.132  14.085  0.8583 -1.3157  2.5194
 7041TIP3    H242615   6.703   4.280  14.066  0.4797 -1.7899 -1.6281
 7042TIP3   OH242616   5.897   0.307   4.949 -0.4597  0.2143  0.3401
 7042TIP3    H142617   5.809   0.320   4.913 -0.5926  1.2624  0.9918
 7042TIP3    H242618   5.886   0.237   5.013 -0.6597 -0.1997 -0.1434
 7043TIP3   OH242619   2.317   2.338  14.136 -0.0208 -0.0071  0.8541
 7043TIP3    H142620   2.234   2.371  14.101 -0.0503 -0.9558 -0.0273
 7043TIP3    H242621   2.382   2.360  14.070  0.9300  2.8323  2.5745
 7044TIP3   OH242622   0.481   0.405  11.200 -0.0369 -0.1794  0.0014
 7044TIP3    H142623   0.553   0.408  11.136 -2.9382  0.4088 -3.5731
 7044TIP3    H242624   0.457   0.497  11.213  0.1547 -0.3302  1.6333
 7045TIP3   OH242625   0.718   1.861   3.729 -0.5731 -0.1944  0.1026
 7045TIP3    H142626   0.780   1.932   3.714 -0.4836 -0.2665  0.1276
 7045TIP3    H242627   0.656   1.867   3.657 -0.2871 -0.3883 -0.1610
 7046TIP3   OH242628   3.681   3.640  17.129 -0.3200 -0.3831  0.2083
 7046TIP3    H142629   3.589   3.625  17.153 -0.0589 -1.8472  0.3653
 7046TIP3    H242630   3.703   3.722  17.173 -1.3789 -0.3190  0.6663
 7047TIP3   OH242631   1.052   2.170  12.769 -0.0897  0.2958  0.3415
 7047TIP3    H142632   1.039   2.179  12.675 -0.5032  0.2876  0.3946
 7047TIP3    H242633   1.121   2.104  12.778 -0.6978 -0.3954  0.0555
 7048TIP3   OH242634   5.575   2.156   3.297  0.0390  0.5717  0.0414
 7048TIP3    H142635   5.542   2.181   3.383  0.4103 -0.7387  0.5802
 7048TIP3    H242636   5.662   2.197   3.291  0.5725 -0.4021  0.8488
 7049TIP3   OH242637   1.263   2.369  13.889  0.1919  0.1863  0.1513
 7049TIP3    H142638   1.260   2.449  13.941 -0.0587 -0.9747  2.0279
 7049TIP3    H242639   1.330   2.386  13.822  0.2277  1.8873  0.5719
 7050TIP3   OH242640   3.720   4.597   1.709 -0.1186  0.4024 -1.0316
 7050TIP3    H142641   3.763   4.651   1.775 -0.3198 -1.0892  0.3928
 7050TIP3    H242642   3.788   4.535   1.681  0.0688  1.2475 -2.5219
 7051TIP3   OH242643   0.728   5.814   2.369  0.1848  0.2136  0.4601
 7051TIP3    H142644   0.689   5.772   2.445  1.6669  0.3436  1.3243
 7051TIP3    H242645   0.823   5.809   2.384  0.5697 -0.7250 -1.9010
 7052TIP3   OH242646   2.241   5.302   2.600 -0.1715  0.5244  0.4643
 7052TIP3    H142647   2.212   5.251   2.676  0.4357 -1.6393 -0.6790
 7052TIP3    H242648   2.170   5.291   2.536  0.3271  0.4458 -0.0822
 7053TIP3   OH242649   4.392   4.134   4.697 -0.0730  0.2230 -0.2112
 7053TIP3    H142650   4.456   4.166   4.634  1.8406 -0.2739  1.3669
 7053TIP3    H242651   4.360   4.212   4.741 -1.8025  0.6222 -2.0600
 7054TIP3   OH242652   3.883   0.042  14.243 -0.2243 -0.4042  0.0025
 7054TIP3    H142653   3.857   0.013  14.330 -0.7222  1.3333  0.4719
 7054TIP3    H242654   3.958   0.099  14.258 -1.2937  1.2126 -0.4917
 7055TIP3   OH242655   4.548   3.179  12.188  0.1491  0.4464 -0.0578
 7055TIP3    H142656   4.510   3.258  12.150  0.1419  0.4069 -0.1320
 7055TIP3    H242657   4.502   3.167  12.271  1.2176  1.4055  0.7053
 7056TIP3   OH242658   2.048   1.641  11.513  0.2997  0.0159 -0.3068
 7056TIP3    H142659   2.024   1.682  11.596  0.5958  0.1378 -0.2809
 7056TIP3    H242660   2.046   1.547  11.530 -0.6613 -0.0057 -0.4360
 7057TIP3   OH242661   6.488   1.359  14.142  0.6032  0.1600 -0.0667
 7057TIP3    H142662   6.488   1.265  14.162  2.5567  0.0757 -0.2511
 7057TIP3    H242663   6.555   1.369  14.074 -0.5619  1.5096 -1.0598
 7058TIP3   OH242664   6.781   2.636   1.377 -0.2141 -0.6458  0.3254
 7058TIP3    H142665   6.749   2.602   1.294 -0.5159 -1.6202  0.8142
 7058TIP3    H242666   6.865   2.677   1.356 -1.2326  0.9234 -0.7719
 7059TIP3   OH242667   0.343   3.909   1.931 -0.0039  0.1414 -0.3129
 7059TIP3    H142668   0.424   3.955   1.911 -1.4712  2.8013 -0.5326
 7059TIP3    H242669   0.293   3.970   1.985 -0.7752 -2.5066  2.2126
 7060TIP3   OH242670   6.081   3.754   4.993 -0.1562  0.2739 -0.1259
 7060TIP3    H142671   6.038   3.685   5.043 -1.3425  0.5543 -0.7401
 7060TIP3    H242672   6.073   3.833   5.047  4.5756 -0.6322  2.4880
 7061TIP3   OH242673   4.442   4.970   3.536 -0.2000  0.0028 -0.2981
 7061TIP3    H142674   4.371   5.018   3.578  1.1123  1.4090  0.4250
 7061TIP3    H242675   4.415   4.878   3.541 -1.1995  0.3513  1.4856
 7062TIP3   OH242676   0.516   5.891   5.514 -0.0101 -0.2117 -0.0515
 7062TIP3    H142677   0.486   5.877   5.424 -0.1673  0.8567 -0.1833
 7062TIP3    H242678   0.441   5.931   5.557  0.1909 -0.3873  0.4605
 7063TIP3   OH242679   5.964   2.464  15.504  0.3114 -0.2091 -0.3919
 7063TIP3    H142680   5.970   2.408  15.581 -0.6954 -0.6927 -0.6556
 7063TIP3    H242681   6.000   2.548  15.533  0.6117 -0.5992  0.3852
 7064TIP3   OH242682   0.485   3.617  13.652  0.0588 -0.2333  0.4995
 7064TIP3    H142683   0.432   3.670  13.592  0.1700 -1.5425 -0.7860
 7064TIP3    H242684   0.501   3.536  13.605  1.2015 -0.8114  1.8331
 7065TIP3   OH242685   2.074   4.733   6.457  0.6205  0.3931 -0.1999
 7065TIP3    H142686   2.046   4.643   6.440  0.3548  0.2223  1.0799
 7065TIP3    H242687   2.001   4.773   6.503  0.7080  1.3040 -0.8241
 7066TIP3   OH242688   0.480   6.480  12.744 -0.0554  0.5574  0.3756
 7066TIP3    H142689   0.399   6.522  12.775  0.6135  0.6290  2.1058
 7066TIP3    H242690   0.469   6.388  12.767  0.3744  0.5782  0.6660
 7067TIP3   OH242691   5.992   1.826   2.812 -0.0408 -0.4551 -0.8595
 7067TIP3    H142692   6.007   1.900   2.752 -1.6139  0.1940 -0.5204
 7067TIP3    H242693   5.970   1.753   2.754 -0.1877 -0.1944 -1.1396
 7068TIP3   OH242694   0.913   4.342  12.658  0.1029  0.6041 -0.2859
 7068TIP3    H142695   0.999   4.348  12.617 -0.2339  1.3838 -0.8932
 7068TIP3    H242696   0.878   4.258  12.628  0.7196  0.2037  0.1050
 7069TIP3   OH242697   2.843   5.548   6.082  0.5847 -0.4555 -0.3833
 7069TIP3    H142698   2.877   5.574   5.997 -0.2517  0.2933 -0.4941
 7069TIP3    H242699   2.754   5.519   6.065  0.5344 -0.6474  0.1838
 7070TIP3   OH242700   1.033   4.532  15.237 -0.0345  1.0049  0.6588
 7070TIP3    H142701   0.993   4.618  15.228  1.9078  1.9471  0.3700
 7070TIP3    H242702   1.124   4.551  15.260 -0.0035 -1.0038  2.5490
 7071TIP3   OH242703   0.772   4.083  12.171  0.2561  0.0696  0.6549
 7071TIP3    H142704   0.776   4.083  12.076  1.2300 -3.1307  0.5921
 7071TIP3    H242705   0.829   4.155  12.198  0.5472  0.5416 -1.1427
 7072TIP3   OH242706   5.259   4.644   1.228 -0.5289  0.4689 -0.2363
 7072TIP3    H142707   5.248   4.721   1.172  1.0630  1.5196  0.7861
 7072TIP3    H242708   5.246   4.678   1.317 -2.4622 -1.0437  0.1217
 7073TIP3   OH242709   5.789   2.388   4.906  0.3260 -0.0047  0.7090
 7073TIP3    H142710   5.695   2.390   4.923 -0.7087 -1.4924 -3.4523
 7073TIP3    H242711   5.811   2.295   4.904  1.3502  0.2334 -0.4427
 7074TIP3   OH242712   1.260   6.396  16.627 -0.2619 -0.5978 -0.2332
 7074TIP3    H142713   1.296   6.311  16.600  0.4174  0.0152 -1.3242
 7074TIP3    H242714   1.327   6.432  16.685 -0.0033 -0.2919 -0.7223
 7075TIP3   OH242715   3.497   6.718  16.083  0.1620  0.7346  0.1563
 7075TIP3    H142716   3.416   6.666  16.085  1.4436 -1.4707  3.5683
 7075TIP3    H242717   3.487   6.779  16.156  1.2005  1.0226  0.0628
 7076TIP3   OH242718   1.267   2.440  11.741  0.9036 -0.3416 -0.4640
 7076TIP3    H142719   1.250   2.362  11.793  1.1507 -0.5280 -0.6641
 7076TIP3    H242720   1.333   2.413  11.677 -0.0201 -0.3369 -1.4233
 7077TIP3   OH242721   1.031   4.552  13.400 -0.1883  0.2658 -0.1033
 7077TIP3    H142722   0.984   4.583  13.322 -3.6505 -1.0633  1.2283
 7077TIP3    H242723   1.051   4.460  13.380 -1.9267 -0.3591  0.7977
 7078TIP3   OH242724   4.070   4.467   0.006 -0.0098 -0.1581 -0.2986
 7078TIP3    H142725   4.132   4.398   0.030  0.9957  0.8946  0.2648
 7078TIP3    H242726   4.072   4.468  -0.090  0.4847 -0.4685 -0.2996
 7079TIP3   OH242727   0.326   5.709  11.520  0.0800  0.2875 -0.5908
 7079TIP3    H142728   0.314   5.720  11.615  0.6966 -1.3453 -0.2763
 7079TIP3    H242729   0.237   5.707  11.485 -0.1331  2.1414 -0.2406
 7080TIP3   OH242730   0.896   6.454  12.632 -0.2818  0.1946 -0.6011
 7080TIP3    H142731   0.853   6.509  12.568 -0.7923 -0.0922 -0.5099
 7080TIP3    H242732   0.934   6.515  12.696 -1.6347  0.4214  0.0091
 7081TIP3   OH242733   3.723   2.731   0.257  0.1792  0.3733  0.2216
 7081TIP3    H142734   3.647   2.746   0.312 -0.3537  1.2550 -0.7220
 7081TIP3    H242735   3.773   2.813   0.261  1.3134 -0.3306  1.1606
 7082TIP3   OH242736   4.986   2.843   3.132 -0.2073  0.5499 -0.3355
 7082TIP3    H142737   4.954   2.808   3.049  0.6197  1.0668 -0.8885
 7082TIP3    H242738   4.973   2.772   3.194  2.1078 -1.0894 -1.5762
 7083TIP3   OH242739   3.601   4.660  16.057 -0.8148  0.0891  0.2315
 7083TIP3    H142740   3.688   4.699  16.065 -0.0446 -1.6750  0.9237
 7083TIP3    H242741   3.587   4.614  16.140 -1.5153 -1.3920 -0.6691
 7084TIP3   OH242742   6.000   2.796  14.310 -0.4760 -0.2905  0.4348
 7084TIP3    H142743   6.070   2.856  14.283 -0.0418 -1.4854 -1.2722
 7084TIP3    H242744   5.957   2.771  14.228 -0.5582 -2.3919  1.0703
 7085TIP3   OH242745   5.547   3.294  16.460 -0.0351  0.0450  0.1644
 7085TIP3    H142746   5.462   3.340  16.458  0.4207  0.9033 -1.4321
 7085TIP3    H242747   5.532   3.216  16.407 -0.0612 -0.2403  0.5937
 7086TIP3   OH242748   6.457   0.271   5.880  0.0626  0.0170 -0.3203
 7086TIP3    H142749   6.410   0.354   5.875 -0.2981 -0.2251 -1.0064
 7086TIP3    H242750   6.468   0.244   5.789 -1.2393 -1.4668 -0.0786
 7087TIP3   OH242751   5.954   6.745  15.371 -0.1625 -0.3508 -0.1073
 7087TIP3    H142752   5.860   6.762  15.376 -0.5814 -2.0458 -1.3032
 7087TIP3    H242753   5.984   6.798  15.297 -0.2864 -0.2413 -0.0785
 7088TIP3   OH242754   2.828   5.329  15.335  0.6645 -0.3210  0.1606
 7088TIP3    H142755   2.810   5.244  15.295  0.1280  0.3123 -0.9874
 7088TIP3    H242756   2.915   5.353  15.302  0.0657  0.3710 -0.9659
 7089TIP3   OH242757   1.551   0.544  12.203 -0.2003  0.0696 -0.2007
 7089TIP3    H142758   1.551   0.593  12.121 -0.0550 -1.5020 -1.1990
 7089TIP3    H242759   1.643   0.523  12.219 -0.3274 -0.5434 -0.2327
 7090TIP3   OH242760   4.769   0.748  12.362 -0.2367  0.1645 -0.3033
 7090TIP3    H142761   4.749   0.719  12.451 -0.3342 -0.6170 -0.5720
 7090TIP3    H242762   4.704   0.704  12.308  0.5343 -0.2774 -0.8881
 7091TIP3   OH242763   4.087   4.282  12.296 -0.1420  0.0942 -0.7245
 7091TIP3    H142764   4.016   4.337  12.263  0.3389  0.2628 -1.4808
 7091TIP3    H242765   4.138   4.258  12.219  0.7074  0.0778 -0.1755
 7092TIP3   OH242766   1.301   3.269   6.465  0.1944 -0.6590 -0.0985
 7092TIP3    H142767   1.213   3.233   6.463 -0.5931  1.2222 -1.4144
 7092TIP3    H242768   1.296   3.341   6.528  0.7797 -0.4754 -0.2580
 7093TIP3   OH242769   5.399   2.257  11.643  0.2205 -0.1810 -0.1804
 7093TIP3    H142770   5.360   2.258  11.556  0.4089 -0.1069 -0.2627
 7093TIP3    H242771   5.468   2.191  11.638 -1.0516 -1.5996  0.4693
 7094TIP3   OH242772   3.994   5.550  11.136 -0.0650  0.0107 -1.1131
 7094TIP3    H142773   3.940   5.472  11.124  0.2925 -0.5602  0.6856
 7094TIP3    H242774   4.083   5.520  11.119  0.2109 -0.3044  0.7592
 7095TIP3   OH242775   4.703   0.058  13.176 -0.3106 -0.1815  0.5810
 7095TIP3    H142776   4.704   0.080  13.269  0.0940 -1.4225  0.8897
 7095TIP3    H242777   4.611   0.066  13.151 -0.0969  2.7626  0.3887
 7096TIP3   OH242778   2.538   3.588   0.121  0.7885 -0.0486 -0.4392
 7096TIP3    H142779   2.490   3.532   0.060 -0.3665 -0.4999  0.8541
 7096TIP3    H242780   2.625   3.548   0.127  0.3939 -0.9249 -0.5450
 7097TIP3   OH242781   2.224   0.175   1.497 -0.6354  0.0558 -0.1545
 7097TIP3    H142782   2.291   0.190   1.430  1.1103  1.9608  1.8511
 7097TIP3    H242783   2.268   0.194   1.580 -2.4822 -2.8205  1.6800
 7098TIP3   OH242784   3.247   6.253   4.215 -0.3136  0.0700  0.6422
 7098TIP3    H142785   3.276   6.176   4.166 -0.1167  0.9996 -0.7484
 7098TIP3    H242786   3.159   6.271   4.183  0.9190  2.5426 -1.8549
 7099TIP3   OH242787   1.398   3.922  11.871  0.5241 -0.4669  0.2423
 7099TIP3    H142788   1.345   3.916  11.951  0.1044 -1.0267 -0.0695
 7099TIP3    H242789   1.422   4.014  11.865 -0.1304 -0.2701  0.5814
 7100TIP3   OH242790   6.359   6.241  16.784 -0.3431  0.7751 -0.0291
 7100TIP3    H142791   6.417   6.228  16.709 -0.2554 -1.1103  0.3110
 7100TIP3    H242792   6.271   6.245  16.746 -0.5013 -2.0126 -0.2149
 7101TIP3   OH242793   3.587   3.425  15.195 -0.5673 -0.3290 -0.5359
 7101TIP3    H142794   3.670   3.470  15.213 -1.3255  0.9137 -0.0528
 7101TIP3    H242795   3.587   3.411  15.100 -0.3458  0.7753 -0.7087
 7102TIP3   OH242796   4.088   6.746  16.383  0.4052 -0.2215 -0.1325
 7102TIP3    H142797   4.157   6.794  16.338 -0.2333  1.0212  0.1676
 7102TIP3    H242798   4.007   6.792  16.359 -0.2049 -1.0269  0.3369
 7103TIP3   OH242799   0.249   1.481   0.489  0.3139 -0.3657 -0.1410
 7103TIP3    H142800   0.342   1.488   0.466  0.2956  0.1130 -0.0777
 7103TIP3    H242801   0.245   1.407   0.551  0.7214 -0.0937  0.2170
 7104TIP3   OH242802   0.707   6.053   6.827 -0.1043  0.3891  0.2373
 7104TIP3    H142803   0.759   6.127   6.859 -0.0945 -0.2745  1.9020
 7104TIP3    H242804   0.620   6.066   6.866 -1.0939  1.1977 -2.0837
 7105TIP3   OH242805   3.971   3.774  13.534  0.1625  0.6422  0.3352
 7105TIP3    H142806   3.900   3.729  13.581  0.8144 -0.9058 -0.0857
 7105TIP3    H242807   3.938   3.782  13.444  0.8826 -1.0551 -0.1246
 7106TIP3   OH242808   4.902   5.944   1.422  0.2120 -0.1200 -0.2052
 7106TIP3    H142809   4.939   6.007   1.360  2.3432 -0.5082  0.5990
 7106TIP3    H242810   4.879   5.997   1.499 -0.6977  0.0760 -0.5954
 7107TIP3   OH242811   6.004   6.780   0.610 -0.5798 -0.6215  0.4153
 7107TIP3    H142812   5.954   6.700   0.592 -1.7498  0.3892 -1.1074
 7107TIP3    H242813   6.070   6.783   0.541 -0.5199 -0.2872  0.4833
 7108TIP3   OH242814   1.162   0.026   5.037 -0.4982 -0.5198 -0.1746
 7108TIP3    H142815   1.140   0.046   4.946  1.0333 -0.7086 -0.6187
 7108TIP3    H242816   1.196   0.109   5.072  0.9749 -0.9619 -0.4653
 7109TIP3   OH242817   6.653   6.431   2.545  0.1229  0.4515  0.2971
 7109TIP3    H142818   6.699   6.470   2.619  0.1866  1.2259 -0.1386
 7109TIP3    H242819   6.577   6.487   2.532 -0.0697  0.1192 -0.0049
 7110TIP3   OH242820   1.079   4.678  11.087 -0.4980 -0.0310  0.2265
 7110TIP3    H142821   1.004   4.634  11.127 -0.7672  1.0102  0.9055
 7110TIP3    H242822   1.066   4.771  11.107 -0.1324  0.4209 -1.4658
 7111TIP3   OH242823   3.118   1.839  15.918 -0.0956 -0.0620 -0.4631
 7111TIP3    H142824   3.153   1.756  15.886 -0.8387 -0.8462  0.6537
 7111TIP3    H242825   3.088   1.885  15.840 -0.6093 -1.3070 -1.0240
 7112TIP3   OH242826   2.359   1.202  17.162 -0.2205 -0.5667  0.1632
 7112TIP3    H142827   2.281   1.257  17.172 -0.2535 -0.8234  1.5186
 7112TIP3    H242828   2.415   1.250  17.101 -0.4481  0.7378  0.9590
 7113TIP3   OH242829   6.389   5.284   2.604 -0.0362  0.0088 -0.6243
 7113TIP3    H142830   6.408   5.254   2.693  1.3617 -0.2517 -0.9785
 7113TIP3    H242831   6.442   5.363   2.593 -0.2823  0.1004 -1.1885
 7114TIP3   OH242832   6.556   3.540   4.570 -0.4101 -0.2639 -0.4376
 7114TIP3    H142833   6.512   3.620   4.596  0.2137  0.3158 -1.1242
 7114TIP3    H242834   6.621   3.525   4.639 -0.2242  0.0753 -0.5359
 7115TIP3   OH242835   2.072   1.659   5.640  0.3573  0.5361  0.5999
 7115TIP3    H142836   2.012   1.621   5.576  0.3992  0.7723  0.4217
 7115TIP3    H242837   2.032   1.742   5.665 -0.9144 -0.6010  2.6910
 7116TIP3   OH242838   2.588   0.297  15.052  0.2215 -0.1928  0.2885
 7116TIP3    H142839   2.656   0.230  15.055  0.7101  0.2128 -1.1206
 7116TIP3    H242840   2.593   0.333  14.964 -1.6164  0.0688  0.2483
 7117TIP3   OH242841   5.681   2.872  15.992 -0.7459  0.0741 -0.2008
 7117TIP3    H142842   5.646   2.814  15.924  0.2804 -1.3911  0.4542
 7117TIP3    H242843   5.775   2.854  15.992 -0.6659  0.3654  1.2874
 7118TIP3   OH242844   4.816   3.415  12.871 -0.4253 -0.3612 -0.1523
 7118TIP3    H142845   4.889   3.476  12.878  0.1511 -0.8040 -1.9239
 7118TIP3    H242846   4.819   3.383  12.781 -0.1268 -3.7234  0.9130
 7119TIP3   OH242847   5.838   6.066   4.003 -0.0854  0.4657 -0.2291
 7119TIP3    H142848   5.765   6.117   4.038  0.0835 -1.1067  2.7800
 7119TIP3    H242849   5.798   5.982   3.978  0.4635  0.1200  0.0443
 7120TIP3   OH242850   4.117   0.395   0.147 -0.3163  0.4366  0.0602
 7120TIP3    H142851   4.036   0.445   0.157  0.8077  2.3033  0.0869
 7120TIP3    H242852   4.186   0.460   0.140  1.4838 -1.0854  2.1494
 7121TIP3   OH242853   4.820   3.387  12.100  0.2962 -0.2194  0.2137
 7121TIP3    H142854   4.843   3.299  12.131 -1.6489 -1.2811 -1.1458
 7121TIP3    H242855   4.737   3.375  12.054  0.4996  2.1540 -0.9094
 7122TIP3   OH242856   1.818   4.860   3.362  0.1834 -0.0026  0.0274
 7122TIP3    H142857   1.799   4.954   3.367 -0.7245 -0.1377 -0.6045
 7122TIP3    H242858   1.732   4.818   3.365  0.5811 -0.8153  0.3131
 7123TIP3   OH242859   3.538   0.642  17.023 -0.6996 -0.4268 -0.1065
 7123TIP3    H142860   3.483   0.657  16.946  1.0216 -1.2453 -1.5494
 7123TIP3    H242861   3.477   0.609  17.090 -1.9607 -1.3557 -1.6530
 7124TIP3   OH242862   1.480   0.491   0.428 -0.2872 -0.1312  0.4213
 7124TIP3    H142863   1.542   0.470   0.359 -0.5010 -1.2285  0.5431
 7124TIP3    H242864   1.507   0.436   0.502 -1.0085 -0.1525  0.6791
 7125TIP3   OH242865   2.521   3.992   5.154  0.0824  0.2577  0.2079
 7125TIP3    H142866   2.616   3.986   5.161  0.1140 -0.5634 -0.8267
 7125TIP3    H242867   2.498   3.932   5.083 -1.2151  0.3994  0.4920
 7126TIP3   OH242868   2.118   4.296  13.410  0.2556 -0.4727 -0.5140
 7126TIP3    H142869   2.080   4.233  13.472 -0.8415  1.3475  0.7787
 7126TIP3    H242870   2.072   4.280  13.328 -1.4264 -0.1212  0.3145
 7127TIP3   OH242871   0.707   2.081   4.839 -0.0971 -0.0811 -0.3508
 7127TIP3    H142872   0.621   2.067   4.799 -0.0460 -0.7375 -0.2267
 7127TIP3    H242873   0.724   2.174   4.825 -1.9655  0.6989  1.8342
 7128TIP3   OH242874   0.136   3.558   4.956  0.0295  0.0661 -0.3091
 7128TIP3    H142875   0.174   3.473   4.979 -1.1476 -0.3000  0.3529
 7128TIP3    H242876   0.187   3.587   4.881  1.1092 -0.7539  0.0756
 7129TIP3   OH242877   0.928   0.569  15.596 -0.0492 -0.1980 -0.0712
 7129TIP3    H142878   0.964   0.495  15.547  0.5733 -0.3055  0.5364
 7129TIP3    H242879   0.956   0.646  15.547  1.7223 -0.2348  0.8007
 7130TIP3   OH242880   4.793   2.213  16.595 -0.3301  0.4865 -0.3152
 7130TIP3    H142881   4.758   2.158  16.665  1.8514  0.4490  0.8086
 7130TIP3    H242882   4.885   2.225  16.616 -0.3917  3.5669 -1.1704
 7131TIP3   OH242883   2.727   6.135  15.702 -0.1197 -0.2188 -0.5172
 7131TIP3    H142884   2.678   6.188  15.638  1.0469  2.2445  0.5190
 7131TIP3    H242885   2.660   6.102  15.762 -0.9083 -0.0833 -1.2979
 7132TIP3   OH242886   4.158   0.306   1.706 -0.2656 -0.0393 -0.5859
 7132TIP3    H142887   4.236   0.251   1.713 -1.2972 -1.4684  0.4030
 7132TIP3    H242888   4.096   0.254   1.655 -1.0430  0.4666 -0.1906
 7133TIP3   OH242889   5.038   0.757  14.672 -0.7556  0.1113  0.4842
 7133TIP3    H142890   5.029   0.710  14.590 -0.5035  0.5787  0.1868
 7133TIP3    H242891   5.044   0.849  14.647 -0.7981  0.2682  1.0305
 7134TIP3   OH242892   6.442   4.333   0.458 -0.2923  0.0195  0.0263
 7134TIP3    H142893   6.441   4.330   0.554 -1.5599 -0.3703  0.0145
 7134TIP3    H242894   6.352   4.313   0.432 -0.1563  0.9306 -1.2311
 7135TIP3   OH242895   1.264   2.008   3.662 -0.3965  0.6586  0.2226
 7135TIP3    H142896   1.345   1.964   3.636 -0.7132 -0.6833  1.3836
 7135TIP3    H242897   1.281   2.036   3.752 -1.7300 -1.0039  1.0331
 7136TIP3   OH242898   1.369   2.417  15.747 -0.1677 -0.2388  0.0405
 7136TIP3    H142899   1.404   2.336  15.710  0.3158  0.2620 -0.6336
 7136TIP3    H242900   1.446   2.471  15.764 -0.5440  0.5291 -0.6137
 7137TIP3   OH242901   3.817   2.100  16.593 -0.1668  0.1921  0.6840
 7137TIP3    H142902   3.888   2.151  16.554 -0.4230 -0.3510 -0.5264
 7137TIP3    H242903   3.758   2.082  16.520  1.0517 -3.8528  0.4454
 7138TIP3   OH242904   1.456   2.624  11.319 -0.1663 -0.4088  0.0993
 7138TIP3    H142905   1.368   2.663  11.317  0.1691  0.4429  1.3121
 7138TIP3    H242906   1.468   2.597  11.410 -0.2793 -3.1932 -0.6215
 7139TIP3   OH242907   5.162   6.720  11.502  0.4414  0.5274 -0.0575
 7139TIP3    H142908   5.117   6.650  11.548 -0.9790  1.0988 -0.5118
 7139TIP3    H242909   5.143   6.705  11.409 -0.4072  1.8170 -0.1266
 7140TIP3   OH242910   1.771   1.044  13.133 -0.3443  0.1731 -0.7370
 7140TIP3    H142911   1.730   1.104  13.070 -1.7655 -1.1419 -1.1295
 7140TIP3    H242912   1.701   1.024  13.195  0.5588  0.1231  0.2705
 7141TIP3   OH242913   5.942   5.530  12.065  0.2527  1.0110 -0.0852
 7141TIP3    H142914   6.008   5.466  12.092  0.5687  1.8697  1.2659
 7141TIP3    H242915   5.917   5.503  11.977  1.1080 -0.3772  0.0684
 7142TIP3   OH242916   3.369   0.913  17.022  0.5230  0.2863  0.2827
 7142TIP3    H142917   3.397   0.907  17.113 -0.5640 -0.1376  0.6061
 7142TIP3    H242918   3.399   0.999  16.993  0.3297  0.6826  1.2309
 7143TIP3   OH242919   0.768   0.643   1.674 -0.1444  0.1773  0.7290
 7143TIP3    H142920   0.774   0.548   1.679 -1.0750  0.0661 -0.1171
 7143TIP3    H242921   0.728   0.669   1.757  0.0644 -0.1600  0.9383
 7144TIP3   OH242922   4.866   6.670  14.451  0.5915 -0.0265 -0.7316
 7144TIP3    H142923   4.795   6.657  14.514  0.5744  0.4324 -0.6506
 7144TIP3    H242924   4.890   6.582  14.423  0.2488 -0.2048 -0.4700
 7145TIP3   OH242925   5.522   2.098   3.012  0.5885  0.0688 -0.3429
 7145TIP3    H142926   5.590   2.125   3.073 -0.3201  1.2786  0.1736
 7145TIP3    H242927   5.449   2.069   3.067 -0.5059  1.8342 -0.7792
 7146TIP3   OH242928   1.157   3.755  14.976  0.2021  0.0995  0.0352
 7146TIP3    H142929   1.104   3.719  14.905 -1.7086  0.0114  1.4222
 7146TIP3    H242930   1.138   3.848  14.975 -0.5029 -0.0196  0.9192
 7147TIP3   OH242931   1.267   0.871   1.639  0.1242  0.2674  0.4237
 7147TIP3    H142932   1.279   0.827   1.555  0.7628 -1.5268  1.3975
 7147TIP3    H242933   1.187   0.923   1.628 -1.1375 -1.7559 -0.5695
 7148TIP3   OH242934   2.712   0.766  14.963  0.7117 -0.3844  0.4311
 7148TIP3    H142935   2.675   0.788  15.048 -0.8157 -0.4453 -0.1914
 7148TIP3    H242936   2.683   0.836  14.905  3.0117  0.4794  0.2464
 7149TIP3   OH242937   0.978   6.456   0.061  0.0966 -0.1386 -0.1201
 7149TIP3    H142938   1.015   6.446  -0.027 -0.3561  1.2686 -0.4885
 7149TIP3    H242939   0.885   6.435   0.051 -0.1748  1.0218 -0.2213
 7150TIP3   OH242940   4.997   2.287   1.507 -0.5634 -0.1442  0.5576
 7150TIP3    H142941   4.923   2.226   1.503  0.5536 -1.4972 -0.9802
 7150TIP3    H242942   5.074   2.230   1.518  0.3343  1.1600  1.2734
 7151TIP3   OH242943   1.316   1.301  11.686  0.1777 -0.4362  0.4656
 7151TIP3    H142944   1.288   1.236  11.621  2.0117  0.0853 -0.9391
 7151TIP3    H242945   1.412   1.300  11.680  0.4359 -0.3216  3.1711
 7152TIP3   OH242946   0.728   2.309   2.832 -0.5706 -0.7343 -0.2072
 7152TIP3    H142947   0.705   2.361   2.909  0.1360  0.4223 -0.7511
 7152TIP3    H242948   0.817   2.336   2.810 -1.4583  0.5456 -2.6633
 7153TIP3   OH242949   3.380   6.509   5.188  0.0925 -0.2584  0.0974
 7153TIP3    H142950   3.440   6.561   5.136 -1.0914  2.4983  1.2909
 7153TIP3    H242951   3.436   6.452   5.240  1.4128 -0.7466 -1.7702
 7154TIP3   OH242952   0.230   4.485   1.979 -0.6172  0.3132  0.0477
 7154TIP3    H142953   0.275   4.564   2.009 -0.2388  0.0447  0.2021
 7154TIP3    H242954   0.247   4.481   1.885 -3.2080  2.0657 -0.5797
 7155TIP3   OH242955   2.080   4.039   1.629 -0.1567 -0.2337  0.0766
 7155TIP3    H142956   1.998   4.010   1.668  0.9394  1.0787  3.7306
 7155TIP3    H242957   2.056   4.115   1.576 -1.5568 -1.3604 -0.9918
 7156TIP3   OH242958   5.826   6.074   5.818  0.2665 -0.4807 -0.4704
 7156TIP3    H142959   5.776   5.992   5.814  2.8854 -2.1995 -0.0659
 7156TIP3    H242960   5.893   6.059   5.885  1.8449  1.4014 -1.5133
 7157TIP3   OH242961   2.876   6.748  15.108  0.5821 -0.1561  0.8206
 7157TIP3    H142962   2.949   6.687  15.093 -0.2897 -1.3909  1.4871
 7157TIP3    H242963   2.840   6.722  15.192  0.6092  1.7496  1.4599
 7158TIP3   OH242964   0.284   4.924  14.206 -0.1951  0.2352 -0.3624
 7158TIP3    H142965   0.287   4.828  14.213  0.8108  0.3856  2.1020
 7158TIP3    H242966   0.375   4.951  14.211 -0.4765  1.3513 -1.0171
 7159TIP3   OH242967   3.627   3.177  14.968  0.3131 -0.6050 -0.6157
 7159TIP3    H142968   3.603   3.265  14.938  0.1537 -0.5459 -0.3280
 7159TIP3    H242969   3.716   3.187  15.001 -0.2841 -0.1444  0.9840
 7160TIP3   OH242970   4.147   2.447   0.982  0.3316 -0.8183  0.6362
 7160TIP3    H142971   4.183   2.364   1.016  1.5846 -0.6791 -0.3040
 7160TIP3    H242972   4.065   2.422   0.940  1.2823 -1.8170 -0.7169
 7161TIP3   OH242973   0.757   3.600   2.159 -0.3698  0.3344  0.4353
 7161TIP3    H142974   0.827   3.572   2.100 -0.0367  2.2438 -0.1803
 7161TIP3    H242975   0.729   3.521   2.205  0.3141 -0.9583 -1.2923
 7162TIP3   OH242976   6.018   3.209   5.118  0.1339  0.3861 -0.6536
 7162TIP3    H142977   6.009   3.170   5.031 -0.0695  0.2460 -0.5718
 7162TIP3    H242978   6.102   3.177   5.150 -0.2560 -0.3920 -0.3870
 7163TIP3   OH242979   6.708   4.522  13.315 -0.1888  0.2350 -0.1867
 7163TIP3    H142980   6.652   4.501  13.389 -0.9764  0.9436 -0.5721
 7163TIP3    H242981   6.649   4.560  13.250  0.1979 -1.7155 -1.7925
 7164TIP3   OH242982   6.475   3.527   6.369  0.0578 -0.2515  0.0425
 7164TIP3    H142983   6.518   3.462   6.424 -1.0338 -2.2558 -1.3356
 7164TIP3    H242984   6.448   3.595   6.430  0.3029 -1.5961  1.7426
 7165TIP3   OH242985   3.983   2.238   0.118 -0.3386  0.0919 -0.4114
 7165TIP3    H142986   4.036   2.318   0.123 -2.0000  1.1760  2.2082
 7165TIP3    H242987   3.956   2.234   0.027 -0.0820  2.4633 -0.6804
 7166TIP3   OH242988   4.567   6.513  16.927 -0.5758 -0.0968  0.6486
 7166TIP3    H142989   4.543   6.596  16.969 -0.0379  1.0657 -1.2372
 7166TIP3    H242990   4.654   6.529  16.890 -0.7543 -1.2730 -0.3448
 7167TIP3   OH242991   0.918   5.146  12.674 -0.1843  0.2406  0.5292
 7167TIP3    H142992   0.917   5.209  12.746 -2.1132  0.9121 -0.0435
 7167TIP3    H242993   0.835   5.158  12.629  0.8844 -0.2698 -1.7493
 7168TIP3   OH242994   5.240   6.325   0.590  0.3204  0.1546 -0.1213
 7168TIP3    H142995   5.179   6.376   0.536 -1.2291  0.5586  1.8762
 7168TIP3    H242996   5.298   6.390   0.629  0.1276  0.0955  0.2674
 7169TIP3   OH242997   6.645   2.879  16.092  0.1691  0.0449 -0.2182
 7169TIP3    H142998   6.712   2.936  16.130  0.1866 -0.4950  0.5853
 7169TIP3    H242999   6.652   2.798  16.142  0.7296 -1.0041 -1.8856
 7170TIP3   OH243000   3.707   6.353   0.368 -0.2882  0.0079 -0.4374
 7170TIP3    H143001   3.800   6.332   0.355 -0.1972  1.0477 -1.5948
 7170TIP3    H243002   3.695   6.348   0.463  1.2792  1.1324 -0.1371
 7171TIP3   OH243003   1.986   2.059  16.127 -0.5287 -0.2561 -0.5054
 7171TIP3    H143004   1.987   2.134  16.187  1.4289 -0.7367  0.1264
 7171TIP3    H243005   2.042   2.085  16.055 -1.0374 -0.5700 -1.0206
 7172TIP3   OH243006   2.674   4.350  15.978 -0.1337  0.4013  0.7004
 7172TIP3    H143007   2.721   4.278  15.934 -0.0831  0.5614  0.4918
 7172TIP3    H243008   2.584   4.341  15.947 -0.0032  0.8007  0.1903
 7173TIP3   OH243009   1.767   2.808   0.605 -0.0951  0.0655  0.0203
 7173TIP3    H143010   1.690   2.808   0.661 -0.4640  0.3978 -0.4792
 7173TIP3    H243011   1.769   2.896   0.566 -0.2572 -0.3809 -1.0408
 7174TIP3   OH243012   1.997   0.419   3.668  0.3678 -0.5134 -0.2879
 7174TIP3    H143013   1.958   0.347   3.618  2.2924 -1.9263  0.1442
 7174TIP3    H243014   1.936   0.492   3.655 -2.1233 -2.4098 -0.0437
 7175TIP3   OH243015   3.411   2.967  15.650  0.0999 -0.1782 -0.2745
 7175TIP3    H143016   3.477   3.013  15.599 -0.1083  0.3461 -0.0868
 7175TIP3    H243017   3.458   2.933  15.726  0.4141 -0.9824 -0.8217
 7176TIP3   OH243018   5.890   1.366  16.335  0.0427 -0.2485 -0.2295
 7176TIP3    H143019   5.968   1.350  16.282  0.3690 -0.1254  0.2118
 7176TIP3    H243020   5.881   1.461  16.338 -0.3692 -0.2673 -0.6254
 7177TIP3   OH243021   4.545   0.019   0.089  0.1231 -0.0901  0.0310
 7177TIP3    H143022   4.498   0.072   0.025  1.4328  4.0279  2.1151
 7177TIP3    H243023   4.636   0.023   0.061  0.2132 -1.8933 -0.0659
 7178TIP3   OH243024   3.860   1.646  16.727  0.6386  0.2095  0.1216
 7178TIP3    H143025   3.925   1.604  16.783 -0.7076 -1.2318  0.6851
 7178TIP3    H243026   3.777   1.603  16.749 -0.3347  1.2057 -1.3467
 7179TIP3   OH243027   4.730   2.046   5.570 -0.0738 -0.0445 -0.1611
 7179TIP3    H143028   4.790   2.099   5.624 -0.0360 -1.4586  1.2524
 7179TIP3    H243029   4.646   2.055   5.614 -0.0290 -1.2814  0.1945
 7180TIP3   OH243030   1.177   2.277  14.161 -0.0992 -0.2470  0.1998
 7180TIP3    H143031   1.101   2.334  14.175 -1.7937 -1.6807 -2.4566
 7180TIP3    H243032   1.215   2.308  14.079 -0.2571 -2.0113 -0.5845
 7181TIP3   OH243033   1.528   1.222   4.235  0.1788  0.1519  0.2341
 7181TIP3    H143034   1.597   1.256   4.179 -0.4643  0.8540 -0.1447
 7181TIP3    H243035   1.574   1.166   4.298  1.0695  0.5070 -0.0829
 7182TIP3   OH243036   3.283   6.412  12.944  0.4269 -0.0945 -0.1725
 7182TIP3    H143037   3.269   6.476  12.874 -1.4971 -0.2423  0.0290
 7182TIP3    H243038   3.196   6.393  12.977  1.0395 -2.0661  0.4600
 7183TIP3   OH243039   5.645   6.569   5.249 -0.2873  0.2208 -0.1359
 7183TIP3    H143040   5.684   6.594   5.333 -1.0412 -1.4054  0.7375
 7183TIP3    H243041   5.617   6.479   5.261  1.2644 -0.7043 -2.7748
 7184TIP3   OH243042   3.936   4.736  13.465  0.2609 -0.9000 -0.9664
 7184TIP3    H143043   3.925   4.736  13.561 -3.7177 -0.9861 -1.2485
 7184TIP3    H243044   3.916   4.826  13.439 -2.4272 -1.6404 -1.8466
 7185TIP3   OH243045   0.652   3.350  10.537 -0.2974 -0.1122 -0.0433
 7185TIP3    H143046   0.696   3.289  10.478  0.4460  1.2692 -0.9743
 7185TIP3    H243047   0.608   3.412  10.479 -0.2269  0.8005  0.8505
 7186TIP3   OH243048   6.071   2.846  12.250  0.1460  0.2255 -0.1219
 7186TIP3    H143049   6.110   2.912  12.307  0.5165  0.6288 -0.8343
 7186TIP3    H243050   6.022   2.895  12.184  1.9621 -0.0822 -1.8034
 7187TIP3   OH243051   5.114   0.313   4.757 -0.2459  0.2991 -0.7188
 7187TIP3    H143052   5.127   0.219   4.773 -0.4279  0.4165  0.1870
 7187TIP3    H243053   5.029   0.319   4.715  0.2588 -0.0294 -1.8255
 7188TIP3   OH243054   0.339   5.506   0.995  0.2947 -0.2134  0.2948
 7188TIP3    H143055   0.276   5.449   0.950 -1.3652  0.3162  1.8377
 7188TIP3    H243056   0.415   5.509   0.936 -0.0671 -2.9467 -0.4498
 7189TIP3   OH243057   4.923   6.407   2.499 -0.2136  0.8322 -0.5037
 7189TIP3    H143058   4.954   6.316   2.502  0.8101  1.0995 -1.7226
 7189TIP3    H243059   4.933   6.439   2.588 -1.2947 -0.4554  0.1191
 7190TIP3   OH243060   4.028   5.918   2.245 -0.6325  0.2172  0.7184
 7190TIP3    H143061   4.059   6.004   2.214 -0.8592  0.1371  0.2593
 7190TIP3    H243062   4.060   5.912   2.334  2.8020 -0.8734 -0.4310
 7191TIP3   OH243063   6.286   3.250   0.038  0.3385  0.3659 -0.3027
 7191TIP3    H143064   6.192   3.263   0.043  0.3161  0.2361 -0.3984
 7191TIP3    H243065   6.310   3.278  -0.050  0.2843 -0.2764 -0.5271
 7192TIP3   OH243066   5.181   4.166  12.271 -0.2206 -0.6890 -0.2731
 7192TIP3    H143067   5.242   4.095  12.289  0.5290  0.1743  0.7307
 7192TIP3    H243068   5.235   4.245  12.274 -0.9608 -0.0892 -1.7291
 7193TIP3   OH243069   6.045   6.175   4.705  0.1269 -0.2598 -0.2655
 7193TIP3    H143070   6.027   6.235   4.777 -0.6334 -0.1209 -0.5590
 7193TIP3    H243071   5.978   6.107   4.713 -0.1921 -0.0459 -1.0489
 7194TIP3   OH243072   2.749   0.008   4.631  0.0237  0.3447 -0.4615
 7194TIP3    H143073   2.694   0.053   4.566  1.1263  0.1634 -1.5600
 7194TIP3    H243074   2.711   0.033   4.715 -1.3479  0.7296 -1.1546
 7195TIP3   OH243075   0.020   5.632   5.094  0.2529  0.4708  0.4710
 7195TIP3    H143076  -0.017   5.637   5.182 -0.4833 -2.0932  0.3804
 7195TIP3    H243077   0.098   5.577   5.104  0.4996  0.6537 -0.3759
 7196TIP3   OH243078   1.319   6.229  14.292 -0.1241 -0.0051  0.3519
 7196TIP3    H143079   1.299   6.198  14.204  2.5471 -1.4671  0.1533
 7196TIP3    H243080   1.338   6.322  14.281  0.9998 -0.3480 -0.8018
 7197TIP3   OH243081   5.785   2.536  11.157  0.5154  0.4397 -0.8201
 7197TIP3    H143082   5.723   2.576  11.097 -1.0766 -0.4367  0.1867
 7197TIP3    H243083   5.795   2.599  11.228  0.6348  0.4921 -0.8823
 7198TIP3   OH243084   4.513   5.222   1.080 -0.2041  0.2632 -0.2471
 7198TIP3    H143085   4.548   5.147   1.128 -1.3387 -0.2642 -0.2013
 7198TIP3    H243086   4.590   5.272   1.054  0.5792 -0.9601 -0.3519
 7199TIP3   OH243087   4.005   3.273  12.883 -0.4346 -0.0848 -0.0829
 7199TIP3    H143088   3.986   3.346  12.825 -0.6696  0.2487  0.4015
 7199TIP3    H243089   4.091   3.242  12.857  0.2058  1.1431  0.4889
 7200TIP3   OH243090   5.901   1.061   6.337 -0.4818  0.5312 -0.3277
 7200TIP3    H143091   5.921   1.006   6.262 -1.2901 -1.2318  0.6715
 7200TIP3    H243092   5.985   1.098   6.363  0.5169 -1.9014  0.1739
 7201TIP3   OH243093   4.869   0.269  14.651 -0.0715 -0.1912  0.0196
 7201TIP3    H143094   4.907   0.272  14.739  2.6671  1.0436 -1.0916
 7201TIP3    H243095   4.913   0.196  14.608  0.1044  0.4664 -0.9406
 7202TIP3   OH243096   3.178   1.900  11.174 -0.2052  0.2705  0.1989
 7202TIP3    H143097   3.195   1.897  11.080  1.4559  1.1035  0.4270
 7202TIP3    H243098   3.083   1.892  11.182 -0.1716 -4.3517 -1.2709
 7203TIP3   OH243099   4.916   3.425  16.588 -0.0223 -0.5255  0.3400
 7203TIP3    H143100   4.900   3.366  16.661 -1.4437 -1.6090 -0.7900
 7203TIP3    H243101   5.005   3.405  16.559  0.4331 -0.3008  1.5531
 7204TIP3   OH243102   4.721   2.983   3.466  0.2364  0.0661 -0.3615
 7204TIP3    H143103   4.808   2.950   3.487 -0.0142 -0.6293 -0.3842
 7204TIP3    H243104   4.733   3.032   3.385  0.4367 -0.8844 -0.9280
 7205TIP3   OH243105   5.362   2.131  12.307  0.5700  0.2268  0.3191
 7205TIP3    H143106   5.419   2.103  12.235  1.4453  0.7061  0.8042
 7205TIP3    H243107   5.399   2.215  12.335 -0.7259  0.8197  0.2848
 7206TIP3   OH243108   4.507   3.004   5.000 -0.3923  0.0774 -0.6689
 7206TIP3    H143109   4.497   2.928   4.942  1.6399  1.8199 -3.5364
 7206TIP3    H243110   4.541   2.966   5.082 -0.7199 -2.2371 -1.5254
 7207TIP3   OH243111   3.111   1.973  17.023 -0.3757  0.0291  0.3491
 7207TIP3    H143112   3.050   1.991  16.950  0.7959 -0.4813 -0.8010
 7207TIP3    H243113   3.133   1.880  17.012 -0.0242  0.0022  1.2442
 7208TIP3   OH243114   6.060   5.652  14.570 -0.0294  0.3014  0.4906
 7208TIP3    H143115   6.103   5.619  14.491  0.9236  0.9297  0.7340
 7208TIP3    H243116   6.131   5.685  14.624 -0.7887  1.0856  1.0407
 7209TIP3   OH243117   6.118   5.851  15.615  0.0245 -0.4541 -0.0567
 7209TIP3    H143118   6.093   5.930  15.662 -0.8480 -1.3819  1.0621
 7209TIP3    H243119   6.157   5.884  15.533  0.2213  1.1320  0.6363
 7210TIP3   OH243120   0.339   6.286   3.497  0.1288 -0.3684  0.2686
 7210TIP3    H143121   0.372   6.199   3.476 -1.1780 -0.4289 -1.8039
 7210TIP3    H243122   0.307   6.320   3.414 -3.6965  0.1879  1.7630
 7211TIP3   OH243123   3.845   1.351  12.786 -0.3861  0.1040 -0.3273
 7211TIP3    H143124   3.898   1.342  12.866  0.5525  1.7620 -0.7179
 7211TIP3    H243125   3.909   1.366  12.717 -1.2447 -0.5736 -1.2978
 7212TIP3   OH243126   4.932   0.965  10.167  0.1742  0.1224 -0.0836
 7212TIP3    H143127   4.948   1.040  10.225 -2.0218 -0.7481  1.7751
 7212TIP3    H243128   5.018   0.925  10.156  0.8636  1.0035  1.6398
 7213TIP3   OH243129   5.155   0.553   4.596 -0.3658  0.0933  0.3363
 7213TIP3    H143130   5.196   0.609   4.662 -1.4590  0.3962  0.7913
 7213TIP3    H243131   5.176   0.464   4.623  0.0601  0.2463  0.5109
 7214TIP3   OH243132   0.167   1.145  14.454 -0.7157 -0.0925 -0.6668
 7214TIP3    H143133   0.249   1.096  14.457 -1.3840 -1.2330 -0.7636
 7214TIP3    H243134   0.112   1.105  14.522 -0.7381  1.5444  0.3547
 7215TIP3   OH243135   0.417   5.383  13.297 -0.2156  0.2405  0.3913
 7215TIP3    H143136   0.495   5.327  13.301 -1.0879 -0.9886  0.9182
 7215TIP3    H243137   0.364   5.345  13.227 -0.8160  0.4290  0.7405
 7216TIP3   OH243138   2.329   5.713  11.053 -0.4976 -0.1988  0.3810
 7216TIP3    H143139   2.290   5.788  11.009 -0.1288 -1.7679 -2.9947
 7216TIP3    H243140   2.415   5.743  11.082 -0.9202  1.0336  0.3894
 7217TIP3   OH243141   3.963   3.106  16.702  0.1171  0.4848  0.0687
 7217TIP3    H143142   3.918   3.022  16.704  0.2183  0.4290  0.0313
 7217TIP3    H243143   4.002   3.110  16.614 -2.6807  2.0533 -1.2442
 7218TIP3   OH243144   3.520   6.344  11.461 -0.2701  0.3371 -0.2406
 7218TIP3    H143145   3.484   6.344  11.549  0.5666  1.9991  0.1297
 7218TIP3    H243146   3.524   6.251  11.437 -1.2621 -0.0913  1.1255
 7219TIP3   OH243147   0.690   6.253  12.983 -0.4978 -0.0567 -0.1460
 7219TIP3    H143148   0.708   6.347  12.986  0.2656 -0.2192  0.6578
 7219TIP3    H243149   0.627   6.238  13.053  0.4258 -0.3507  0.6373
 7220TIP3   OH243150   5.564   3.435  14.144  0.0835 -0.4220 -0.4038
 7220TIP3    H143151   5.549   3.472  14.057  1.8266  2.0372  0.2084
 7220TIP3    H243152   5.602   3.349  14.128  0.1852 -0.0992 -2.0626
 7221TIP3   OH243153   3.126   5.007   2.833 -0.6846  0.4256  0.0764
 7221TIP3    H143154   3.116   5.102   2.840 -1.0212  0.2865  1.9875
 7221TIP3    H243155   3.042   4.976   2.799 -0.9800  0.7061  0.5483
 7222TIP3   OH243156   3.058   0.891  11.752 -0.3590  0.1032  0.5329
 7222TIP3    H143157   3.120   0.894  11.824 -0.7617 -0.0197  0.8895
 7222TIP3    H243158   3.097   0.946  11.684 -0.2440  0.6787  1.0611
 7223TIP3   OH243159   5.237   5.795  15.651  0.2593  0.2568 -0.0247
 7223TIP3    H143160   5.213   5.751  15.732 -0.1057  0.2046 -0.1571
 7223TIP3    H243161   5.332   5.794  15.649  0.3614  2.1423  1.4601
 7224TIP3   OH243162   4.453   5.789  15.430 -0.3900 -0.6115  0.4345
 7224TIP3    H143163   4.416   5.775  15.517 -1.9206 -1.8819 -0.3613
 7224TIP3    H243164   4.542   5.756  15.436  0.6372  2.1380  2.2993
 7225TIP3   OH243165   2.117   3.861  13.746 -0.0906 -0.3603  0.3047
 7225TIP3    H143166   2.160   3.854  13.831 -1.7208 -1.4061  1.1119
 7225TIP3    H243167   2.157   3.792  13.693 -1.2418 -1.8629  1.3033
 7226TIP3   OH243168   0.563   6.501   5.242 -0.2597  0.3695  0.0333
 7226TIP3    H143169   0.490   6.530   5.296 -0.9599 -0.6127 -0.3471
 7226TIP3    H243170   0.521   6.463   5.164  0.7046  1.3206 -0.9955
 7227TIP3   OH243171   1.980   2.419   1.949 -0.3010 -0.1884  0.2024
 7227TIP3    H143172   2.010   2.390   1.863  1.1796  0.8626  0.3160
 7227TIP3    H243173   1.947   2.507   1.934  0.1681  0.0841  0.7226
 7228TIP3   OH243174   4.205   2.189   2.834  0.4240  0.5720  0.1209
 7228TIP3    H143175   4.141   2.154   2.773 -1.4731  1.3087  1.5925
 7228TIP3    H243176   4.264   2.116   2.852 -0.3825 -0.3271 -0.7539
 7229TIP3   OH243177   5.830   2.883  11.137  0.0749  0.0077 -0.6612
 7229TIP3    H143178   5.813   2.976  11.153 -0.9138 -0.5977  2.4770
 7229TIP3    H243179   5.743   2.843  11.137  0.6202 -1.3650  1.9145
 7230TIP3   OH243180   5.781   3.075  17.055 -0.0957 -0.5573  0.1309
 7230TIP3    H143181   5.839   3.136  17.008 -0.6212  0.1167  0.3474
 7230TIP3    H243182   5.841   3.022  17.107  0.4257 -0.6964 -0.5845
 7231TIP3   OH243183   2.777   3.014   2.175 -0.3685 -0.0985  0.3146
 7231TIP3    H143184   2.777   3.094   2.228 -1.8281  0.3322 -0.3018
 7231TIP3    H243185   2.864   3.014   2.134 -0.5670  1.5364 -0.1927
 7232TIP3   OH243186   4.026   3.733   6.145 -0.7901 -0.3493  0.1474
 7232TIP3    H143187   3.933   3.751   6.161 -0.8545  0.5520 -1.0650
 7232TIP3    H243188   4.071   3.813   6.172 -0.6249  0.0979 -1.3674
 7233TIP3   OH243189   1.063   3.971   1.139 -0.1422 -0.1274 -0.2482
 7233TIP3    H143190   1.149   4.012   1.150  1.7186 -3.4804 -0.9880
 7233TIP3    H243191   1.023   4.017   1.066  1.8057  0.3661 -1.0509
 7234TIP3   OH243192   6.335   3.123  12.055  0.3431  0.1742  0.0024
 7234TIP3    H143193   6.331   3.057  11.986 -0.8172  1.9511 -1.7511
 7234TIP3    H243194   6.427   3.147  12.060  0.8428 -1.6923  0.8837
 7235TIP3   OH243195   3.363   5.419   0.683 -0.5645  0.3453  0.5625
 7235TIP3    H143196   3.398   5.503   0.712 -0.4674  0.4911  0.0445
 7235TIP3    H243197   3.352   5.429   0.588  1.8261 -1.0475  0.0347
 7236TIP3   OH243198   2.274   4.767  11.669 -0.1798  0.2975  0.5050
 7236TIP3    H143199   2.311   4.851  11.643 -1.6395  0.4493 -1.3268
 7236TIP3    H243200   2.315   4.704  11.610 -1.1568  0.1589 -0.0447
 7237TIP3   OH243201   5.956   5.665   0.147  0.1541  0.1884  0.0349
 7237TIP3    H143202   5.996   5.593   0.100  1.6894  0.4811  0.8397
 7237TIP3    H243203   6.003   5.669   0.231 -1.1678  0.9231  0.7810
 7238TIP3   OH243204   6.065   1.431  14.081  0.3691 -0.4546  0.6796
 7238TIP3    H143205   6.114   1.355  14.113  2.2738  0.8877  1.1010
 7238TIP3    H243206   6.081   1.500  14.145 -0.1353  0.7503 -0.4196
 7239TIP3   OH243207   6.161   3.143   2.478  0.4278 -0.4615  0.3742
 7239TIP3    H143208   6.078   3.188   2.496 -0.2081 -1.8326  1.0596
 7239TIP3    H243209   6.187   3.174   2.391 -0.4601  0.4846  0.4245
 7240TIP3   OH243210   0.530   1.150  14.331  0.3935  0.0760 -0.3991
 7240TIP3    H143211   0.492   1.062  14.334 -0.1202  0.2963 -0.3773
 7240TIP3    H243212   0.543   1.167  14.237  1.1348 -0.2917 -0.3679
 7241TIP3   OH243213   3.922   5.724   0.543 -0.2751 -0.6183  0.5490
 7241TIP3    H143214   4.007   5.754   0.574 -0.8244  0.4225  1.1295
 7241TIP3    H243215   3.922   5.630   0.558  0.6189 -0.5693  0.8953
 7242TIP3   OH243216   6.474   4.073  11.594  0.4789  0.0214 -0.9812
 7242TIP3    H143217   6.401   4.113  11.546 -0.1805 -0.9656 -0.8194
 7242TIP3    H243218   6.531   4.147  11.616  0.0197  0.6821 -1.9491
 7243TIP3   OH243219   0.060   1.019  16.832 -0.0612  0.6648  0.0046
 7243TIP3    H143220   0.106   1.049  16.911 -2.1766 -0.4867  1.7695
 7243TIP3    H243221   0.069   0.924  16.834 -2.9876  0.3056  0.8463
 7244TIP3   OH243222   5.189   3.434   4.191 -0.1561  0.4269  0.1153
 7244TIP3    H143223   5.187   3.444   4.096 -0.6841  0.0378  0.0777
 7244TIP3    H243224   5.220   3.344   4.205  0.0527  0.5282  0.3171
 7245TIP3   OH243225   0.371   1.912  16.370  0.3427 -0.3925 -0.0217
 7245TIP3    H143226   0.420   1.988  16.402  1.4397 -0.6640 -0.9818
 7245TIP3    H243227   0.367   1.853  16.444 -0.5003  0.5770  0.7315
 7246TIP3   OH243228   0.395   6.540  15.892  0.0601  0.3407 -0.4801
 7246TIP3    H143229   0.365   6.565  15.979  1.4687  0.9985 -0.1535
 7246TIP3    H243230   0.445   6.459  15.906  1.3556  1.1126 -0.4429
 7247TIP3   OH243231   6.800   5.263   2.916  0.5926  0.3328 -0.6803
 7247TIP3    H143232   6.738   5.303   2.976  0.4199  0.5176 -0.9831
 7247TIP3    H243233   6.764   5.176   2.898  1.1665 -0.1305  0.2860
 7248TIP3   OH243234   4.547   2.205   5.384  0.4832 -0.1391  0.4296
 7248TIP3    H143235   4.459   2.190   5.418  0.4913  0.4031  0.7015
 7248TIP3    H243236   4.590   2.120   5.390  0.4074 -0.1057  1.5627
 7249TIP3   OH243237   0.066   3.367  12.971 -0.8254 -0.3983 -0.3428
 7249TIP3    H143238   0.011   3.382  13.048  0.0359  1.2980 -0.0208
 7249TIP3    H243239   0.149   3.336  13.006 -0.7577 -0.5941 -0.6730
 7250TIP3   OH243240   4.859   4.649   4.377 -0.2050 -1.0065  0.3013
 7250TIP3    H143241   4.893   4.577   4.429 -0.4933 -0.4887  1.2253
 7250TIP3    H243242   4.802   4.698   4.437  1.2479  0.9346  0.1964
 7251TIP3   OH243243   6.557   6.036  14.190  1.2428  0.0676 -0.0371
 7251TIP3    H143244   6.550   6.122  14.231  0.6598 -0.8640  1.9476
 7251TIP3    H243245   6.647   6.009  14.207  1.1551 -0.0952  0.1771
 7252TIP3   OH243246   1.904   5.581  10.445  0.3538  0.0477  0.0162
 7252TIP3    H143247   1.853   5.547  10.372 -0.1500  0.8350 -0.0149
 7252TIP3    H243248   1.957   5.651  10.407  2.2855 -1.4334 -0.1745
 7253TIP3   OH243249   5.166   0.982  11.799  0.3623 -0.2549  0.1101
 7253TIP3    H143250   5.161   0.912  11.864 -0.5993 -0.1970  0.1138
 7253TIP3    H243251   5.115   1.054  11.838 -2.0296 -0.9149 -1.5573
 7254TIP3   OH243252   4.911   2.867  12.142  0.3627  0.6125  0.3012
 7254TIP3    H143253   4.878   2.954  12.167 -0.5633  0.6862 -1.0614
 7254TIP3    H243254   4.969   2.842  12.213  0.8664  2.4821  0.5968
 7255TIP3   OH243255   1.242   6.773   6.014 -0.4344  0.2191  0.5131
 7255TIP3    H143256   1.194   6.748   6.093  0.1736  2.9967  1.8684
 7255TIP3    H243257   1.333   6.747   6.033 -0.4402  0.0521  0.3175
 7256TIP3   OH243258   4.478   0.236   0.634  0.2012 -0.5819  0.3627
 7256TIP3    H143259   4.386   0.254   0.653  0.3215 -0.5669  0.9605
 7256TIP3    H243260   4.508   0.182   0.707  0.8104 -0.1262  0.4640
 7257TIP3   OH243261   4.677   6.464  13.030  0.4264  0.5667 -0.6566
 7257TIP3    H143262   4.741   6.535  13.032  0.2546  0.7489 -1.4146
 7257TIP3    H243263   4.598   6.501  13.070  0.4497  0.6814 -0.7197
 7258TIP3   OH243264   1.102   3.390  13.132  0.3094 -0.1386 -0.6895
 7258TIP3    H143265   1.103   3.473  13.180 -0.2020 -0.1668 -0.6201
 7258TIP3    H243266   1.181   3.344  13.161  0.9597  0.6092 -1.2395
 7259TIP3   OH243267   5.623   0.719  16.664 -0.0240  0.7906 -0.1865
 7259TIP3    H143268   5.544   0.764  16.696  0.1767  1.3522 -0.4759
 7259TIP3    H243269   5.666   0.783  16.608  0.2781  0.2388 -0.5917
 7260TIP3   OH243270   5.610   3.007   4.579 -0.4251 -0.3896  1.0565
 7260TIP3    H143271   5.610   2.968   4.492  0.0872 -0.6227  1.1544
 7260TIP3    H243272   5.673   3.079   4.573  0.1111 -0.8197  1.4068
 7261TIP3   OH243273   1.397   0.512  16.843  0.2751  0.1842 -0.0526
 7261TIP3    H143274   1.407   0.496  16.749  2.4070  0.0150  0.1389
 7261TIP3    H243275   1.308   0.547  16.853 -0.3464 -0.7392 -1.9817
 7262TIP3   OH243276   3.907   2.009   1.579 -0.4960  0.1679  0.0228
 7262TIP3    H143277   3.864   1.934   1.621  0.8256 -0.8872 -0.4317
 7262TIP3    H243278   3.841   2.044   1.519 -0.5303 -1.8862 -1.2443
 7263TIP3   OH243279   5.129   5.607  16.531 -0.2632 -0.0285  0.1448
 7263TIP3    H143280   5.197   5.674  16.525 -0.7905  0.5633  0.7025
 7263TIP3    H243281   5.055   5.651  16.572 -0.5310 -1.0151  0.7691
 7264TIP3   OH243282   1.594   5.515  13.046  0.0538  0.1450  0.0430
 7264TIP3    H143283   1.515   5.465  13.067  0.1803 -1.3189 -2.5272
 7264TIP3    H243284   1.606   5.502  12.952  1.9862  2.3827 -0.1090
 7265TIP3   OH243285   3.055   4.501   1.646  0.3635 -0.0395 -0.2217
 7265TIP3    H143286   3.093   4.448   1.716  1.1796  1.4289  0.4839
 7265TIP3    H243287   3.129   4.547   1.608 -0.1455 -0.4122 -1.7405
 7266TIP3   OH243288   5.201   1.732   2.350 -0.0367 -0.7315 -0.1981
 7266TIP3    H143289   5.122   1.783   2.368  1.0289  0.5057  1.2047
 7266TIP3    H243290   5.246   1.780   2.281  0.9023  0.2113  1.0317
 7267TIP3   OH243291   0.642   4.437  12.231 -0.1531 -0.4346 -0.1547
 7267TIP3    H143292   0.620   4.478  12.314  0.4133 -1.4900  0.5233
 7267TIP3    H243293   0.614   4.346  12.240 -1.2975 -0.2612 -1.6053
 7268TIP3   OH243294   5.400   0.914   0.120  0.0306  0.0307  0.0757
 7268TIP3    H143295   5.413   0.933   0.027  0.5542 -2.5599 -0.4578
 7268TIP3    H243296   5.472   0.960   0.164  1.7660 -1.2872 -1.2121
 7269TIP3   OH243297   2.082   2.088  14.530  0.0517 -0.0423  0.0863
 7269TIP3    H143298   2.005   2.133  14.496  0.6258  0.4063 -0.6551
 7269TIP3    H243299   2.148   2.157  14.540  1.0248 -0.7228 -1.3026
 7270TIP3   OH243300   0.036   4.535   5.867 -0.1334  0.1031  0.1933
 7270TIP3    H143301   0.066   4.456   5.912  1.5640  0.3561 -0.4045
 7270TIP3    H243302   0.062   4.607   5.925 -0.1681  0.3056 -0.0392
 7271TIP3   OH243303   1.220   0.267   5.122 -0.3459  0.0378  0.1303
 7271TIP3    H143304   1.188   0.345   5.169  1.2730  0.1646  1.0946
 7271TIP3    H243305   1.290   0.300   5.066 -0.7958 -0.4764 -0.7456
 7272TIP3   OH243306   2.320   4.771  16.777  0.3060  0.5769 -0.0649
 7272TIP3    H143307   2.230   4.766  16.809  0.6940  1.6368  1.2497
 7272TIP3    H243308   2.346   4.861  16.792  1.5834  0.3015 -0.5079
 7273TIP3   OH243309   3.674   5.565  11.878  0.1805  0.2175 -0.1072
 7273TIP3    H143310   3.600   5.626  11.869 -1.5679 -1.5661  1.2446
 7273TIP3    H243311   3.676   5.518  11.795 -2.5821 -2.0969  0.9528
 7274TIP3   OH243312   3.883   0.282   0.902 -0.0978  0.0317  0.6408
 7274TIP3    H143313   3.867   0.197   0.861  0.6403 -0.9491  2.2998
 7274TIP3    H243314   3.947   0.324   0.846  0.7375 -1.1927  0.6374
 7275TIP3   OH243315   0.469   4.428  14.275  0.0046  0.4435 -0.6054
 7275TIP3    H143316   0.436   4.384  14.353 -3.3730  0.5878 -1.7781
 7275TIP3    H243317   0.520   4.361  14.229  0.3846 -0.2211  0.7598
 7276TIP3   OH243318   3.466   3.962   5.889 -0.1347  0.1200 -0.0084
 7276TIP3    H143319   3.477   3.994   5.978 -1.2927 -0.6821  0.4430
 7276TIP3    H243320   3.417   4.032   5.844 -0.5943  0.0223  0.3271
 7277TIP3   OH243321   0.809   5.417   5.882  0.0904 -0.1776 -0.3969
 7277TIP3    H143322   0.810   5.365   5.962  2.9156  1.4990  0.8137
 7277TIP3    H243323   0.900   5.418   5.853 -0.9540 -1.4774 -4.2395
 7278TIP3   OH243324   1.569   4.766   3.221  0.8115  0.3666  0.0541
 7278TIP3    H143325   1.653   4.720   3.220  1.3811  1.3350  0.9653
 7278TIP3    H243326   1.524   4.736   3.142  1.1098 -1.7728  0.6431
 7279TIP3   OH243327   3.205   3.607   0.482 -0.5924 -0.1916 -0.3461
 7279TIP3    H143328   3.213   3.561   0.398  2.4052 -0.2038 -0.1571
 7279TIP3    H243329   3.223   3.699   0.462  3.1264 -0.5750  0.5464
 7280TIP3   OH243330   5.569   6.731  17.154 -0.2143  0.2076  0.2994
 7280TIP3    H143331   5.495   6.714  17.212 -1.6238  1.5289 -1.0137
 7280TIP3    H243332   5.637   6.670  17.183 -1.2056  0.1255  2.6349
 7281TIP3   OH243333   2.712   5.322  14.562 -0.4619 -0.4829 -0.0164
 7281TIP3    H143334   2.732   5.370  14.481 -0.1308  2.0639  1.4738
 7281TIP3    H243335   2.621   5.343  14.580 -0.4851 -0.8933  0.3512
 7282TIP3   OH243336   3.736   3.101  12.746  0.7472 -0.1876 -0.0050
 7282TIP3    H143337   3.682   3.176  12.722  0.7624  0.0917  0.8150
 7282TIP3    H243338   3.817   3.112  12.697  0.6927  0.2539  0.0044
 7283TIP3   OH243339   2.351   2.652   2.130  0.1771  0.0274 -0.2158
 7283TIP3    H143340   2.275   2.646   2.188  0.4871 -0.5718  0.1275
 7283TIP3    H243341   2.426   2.661   2.189  0.6066 -1.6304 -0.4789
 7284TIP3   OH243342   5.106   4.171   5.774  0.3026 -0.0657  0.4249
 7284TIP3    H143343   5.118   4.262   5.746  1.7364  0.1563  1.6753
 7284TIP3    H243344   5.041   4.175   5.844  0.0395 -0.0818  0.1873
 7285TIP3   OH243345   5.749   3.310   0.629 -0.1467 -0.5415 -0.0929
 7285TIP3    H143346   5.793   3.225   0.619 -1.7350 -1.4330  0.0922
 7285TIP3    H243347   5.738   3.319   0.724 -0.9974 -0.7006 -0.1664
 7286TIP3   OH243348   2.379   4.318  10.534  0.1476 -0.4989 -0.1809
 7286TIP3    H143349   2.409   4.243  10.482 -0.8611 -0.8348 -0.3077
 7286TIP3    H243350   2.311   4.282  10.590  0.0364  0.2227  0.1551
 7287TIP3   OH243351   4.696   6.723   1.513 -0.0878 -0.3239  0.4520
 7287TIP3    H143352   4.735   6.798   1.557 -1.5889 -0.1434  1.5454
 7287TIP3    H243353   4.691   6.654   1.580 -0.7381 -0.6513  0.0868
 7288TIP3   OH243354   6.306   1.922   1.948 -0.2487 -0.2650  0.0828
 7288TIP3    H143355   6.216   1.890   1.954 -0.6506  0.9399  0.9443
 7288TIP3    H243356   6.297   2.011   1.912  0.6362 -0.2991 -0.2513
 7289TIP3   OH243357   5.763   5.405   5.545  0.2718  0.2621  0.7344
 7289TIP3    H143358   5.748   5.383   5.453 -0.6109 -0.9782  1.1587
 7289TIP3    H243359   5.842   5.357   5.569  1.0611  1.3391  0.3933
 7290TIP3   OH243360   0.891   3.098  10.664  0.3269 -0.5830 -0.1196
 7290TIP3    H143361   0.827   3.141  10.720 -0.3320 -0.7055 -0.7660
 7290TIP3    H243362   0.858   3.111  10.575  0.1360 -2.3558 -0.3470
 7291TIP3   OH243363   5.565   4.217  11.155  0.3070  0.0035 -0.0099
 7291TIP3    H143364   5.485   4.163  11.154  0.4753 -0.2401 -1.0662
 7291TIP3    H243365   5.535   4.303  11.183 -0.5860  0.2690 -1.6521
 7292TIP3   OH243366   3.069   6.428   4.413 -0.0344 -0.0546  0.5215
 7292TIP3    H143367   3.077   6.349   4.466  1.0512 -0.2406  0.0996
 7292TIP3    H243368   3.057   6.397   4.324 -0.4343  0.2630  0.4609
 7293TIP3   OH243369   4.289   3.220  14.976 -0.4107 -0.0863 -0.4808
 7293TIP3    H143370   4.307   3.252  15.065  0.7104 -0.5639 -0.5149
 7293TIP3    H243371   4.250   3.295  14.931 -1.8662 -0.1101  0.6651
 7294TIP3   OH243372   3.321   4.356  15.710 -0.1917  0.3115 -0.0791
 7294TIP3    H143373   3.351   4.379  15.798  2.4734 -3.2413  0.1700
 7294TIP3    H243374   3.296   4.264  15.717 -1.6752  0.4174 -2.7057
 7295TIP3   OH243375   6.427   2.693  13.929  0.2382  0.2095 -0.4566
 7295TIP3    H143376   6.486   2.748  13.981  0.5560 -1.4348  0.9883
 7295TIP3    H243377   6.370   2.651  13.993 -1.0020 -0.0110 -1.6534
 7296TIP3   OH243378   2.403   3.060   1.741  0.1878 -0.2564 -0.6276
 7296TIP3    H143379   2.473   3.083   1.680  0.5133  0.0010 -0.1675
 7296TIP3    H243380   2.382   2.969   1.721  1.8693 -0.9013  0.3693
 7297TIP3   OH243381   5.224   3.836   0.383 -0.0859  0.2673 -0.1155
 7297TIP3    H143382   5.265   3.883   0.310  2.8347  1.0962  1.8874
 7297TIP3    H243383   5.268   3.751   0.386  1.5330  1.0915  1.9537
 7298TIP3   OH243384   1.850   4.862   6.527 -0.5011  0.0221 -0.0992
 7298TIP3    H143385   1.782   4.827   6.469  0.4626 -1.1138 -0.5970
 7298TIP3    H243386   1.807   4.932   6.576 -2.1414 -0.9315 -0.1034
 7299TIP3   OH243387   5.752   5.500   3.366  0.4083  0.9103  0.1172
 7299TIP3    H143388   5.687   5.567   3.347  0.6822  0.7018 -1.7310
 7299TIP3    H243389   5.824   5.519   3.306  1.2402  0.0093  0.8066
 7300TIP3   OH243390   0.895   5.115  16.878 -0.4908  0.2756  0.1736
 7300TIP3    H143391   0.938   5.195  16.908 -1.5618  0.5406  1.0802
 7300TIP3    H243392   0.820   5.105  16.937  1.1266 -2.9302  1.9243
 7301TIP3   OH243393   5.448   5.895  12.931  0.0358  0.0067  0.2512
 7301TIP3    H143394   5.536   5.920  12.902  0.3651  0.2579  1.3784
 7301TIP3    H243395   5.390   5.920  12.859  0.7579  0.9681 -0.0165
 7302TIP3   OH243396   6.187   0.213   0.395  0.0535 -0.4094 -0.3157
 7302TIP3    H143397   6.128   0.139   0.397 -0.6423  0.0913 -1.3559
 7302TIP3    H243398   6.263   0.182   0.346 -0.2341 -0.4431 -0.7458
 7303TIP3   OH243399   5.243   5.389  13.715 -0.0105  0.5469 -0.3694
 7303TIP3    H143400   5.327   5.432  13.705  0.3400 -0.4148 -1.8282
 7303TIP3    H243401   5.256   5.301  13.678 -1.0288 -0.4187  1.3935
 7304TIP3   OH243402   1.498   4.558   4.324  0.0683 -0.1283 -0.4487
 7304TIP3    H143403   1.505   4.534   4.232 -1.4008 -1.0917 -0.3577
 7304TIP3    H243404   1.520   4.477   4.371 -1.7904 -0.4687 -0.0589
 7305TIP3   OH243405   5.353   6.111   0.456 -0.3297 -0.7553 -0.2623
 7305TIP3    H143406   5.435   6.146   0.489 -0.5003 -0.6940  0.0988
 7305TIP3    H243407   5.286   6.173   0.488 -0.5480 -0.9724 -0.2944
 7306TIP3   OH243408   2.323   5.996   1.512  0.1511 -0.0622  0.0342
 7306TIP3    H143409   2.229   5.981   1.505 -0.1097  0.4752  2.0186
 7306TIP3    H243410   2.343   6.059   1.442 -1.3895  1.5776  1.0037
 7307TIP3   OH243411   0.600   2.204  13.975 -0.0738 -1.1031 -0.3540
 7307TIP3    H143412   0.515   2.160  13.973 -1.3937  1.2286 -0.3549
 7307TIP3    H243413   0.594   2.271  13.907  0.0298  1.8846  2.3025
 7308TIP3   OH243414   4.802   4.110   5.557 -0.0184 -0.2124  0.1636
 7308TIP3    H143415   4.743   4.036   5.546 -0.1098 -0.0361 -0.5226
 7308TIP3    H243416   4.889   4.073   5.546 -0.0092 -0.4083  0.8434
 7309TIP3   OH243417   3.628   0.913  15.851 -0.1170 -0.2841  0.0202
 7309TIP3    H143418   3.559   0.975  15.834  2.1759  2.0936 -1.2659
 7309TIP3    H243419   3.618   0.845  15.784 -1.3836 -0.1927  0.1042
 7310TIP3   OH243420   5.762   4.901   5.780  0.0044 -0.1313  0.4547
 7310TIP3    H143421   5.776   4.957   5.704 -1.5929 -0.5778 -0.2056
 7310TIP3    H243422   5.721   4.958   5.845 -1.9493 -0.5636 -0.3448
 7311TIP3   OH243423   0.674   0.128   4.070  0.3212  0.3429 -0.1939
 7311TIP3    H143424   0.584   0.116   4.039  0.2992  0.0036 -0.0025
 7311TIP3    H243425   0.700   0.042   4.102  1.2844  0.0353 -1.7098
 7312TIP3   OH243426   1.028   5.328   1.678 -0.1809 -0.5322  0.4968
 7312TIP3    H143427   1.112   5.333   1.724 -0.6629 -3.0831  1.7995
 7312TIP3    H243428   0.993   5.417   1.683  2.7322  0.8305 -0.8078
 7313TIP3   OH243429   1.240   1.244  15.452 -0.1710  0.2977  0.6342
 7313TIP3    H143430   1.291   1.316  15.415 -1.6546  0.8170 -0.4921
 7313TIP3    H243431   1.296   1.167  15.441  0.9967  1.0807  0.8659
 7314TIP3   OH243432   2.485   4.161   2.936  0.1949  0.4513 -0.3950
 7314TIP3    H143433   2.565   4.207   2.961  1.3330 -1.0898 -1.0171
 7314TIP3    H243434   2.478   4.090   3.000 -1.2370  1.1354  0.2402
 7315TIP3   OH243435   2.312   2.440   3.036  0.0843 -0.0419 -0.3388
 7315TIP3    H143436   2.267   2.524   3.036 -0.6953 -0.4403 -0.0113
 7315TIP3    H243437   2.255   2.383   2.984  1.2524 -0.0485 -1.6540
 7316TIP3   OH243438   5.502   0.692   2.836  0.0555  0.3044 -0.0703
 7316TIP3    H143439   5.440   0.642   2.783 -1.1186  1.1017  0.5028
 7316TIP3    H243440   5.555   0.626   2.880 -2.1129 -0.5259  1.4596
 7317TIP3   OH243441   5.573   0.441  16.259 -0.2961  0.4255  0.2590
 7317TIP3    H143442   5.490   0.409  16.223  0.6035  0.5060 -2.0795
 7317TIP3    H243443   5.582   0.529  16.222  0.6469  0.5684  0.8037
 7318TIP3   OH243444   6.352   6.102  13.281 -0.0300 -0.1234 -0.3791
 7318TIP3    H143445   6.272   6.114  13.332 -1.1915  1.2420 -2.3753
 7318TIP3    H243446   6.415   6.162  13.320  0.3545 -1.7848  1.7158
 7319TIP3   OH243447   3.574   5.462   4.058 -0.4659 -0.3280  0.1258
 7319TIP3    H143448   3.577   5.449   4.153  2.1022  0.0053  0.1696
 7319TIP3    H243449   3.665   5.480   4.034 -1.2711  0.9990 -2.2164
 7320TIP3   OH243450   1.152   2.263   6.379 -0.3373 -0.0768  0.6477
 7320TIP3    H143451   1.225   2.209   6.410  0.0018 -0.9859 -1.5169
 7320TIP3    H243452   1.192   2.321   6.314 -1.1623  1.0320  1.1167
 7321TIP3   OH243453   2.119   1.513   2.218  0.3639 -0.1293  0.3437
 7321TIP3    H143454   2.054   1.459   2.172  1.5828 -3.7992  2.5134
 7321TIP3    H243455   2.197   1.506   2.163  0.8251 -1.6277  1.1231
 7322TIP3   OH243456   3.662   3.735  14.985 -0.3847  0.3174 -0.5247
 7322TIP3    H143457   3.628   3.818  15.018  0.6386  2.3595 -4.1270
 7322TIP3    H243458   3.612   3.718  14.905  1.5852 -0.8023 -1.6106
 7323TIP3   OH243459   0.300   4.740  10.599 -0.2188  0.0309  0.0431
 7323TIP3    H143460   0.368   4.698  10.652  0.9356  1.5776 -0.1472
 7323TIP3    H243461   0.261   4.805  10.656  0.9221  1.5980 -0.8856
 7324TIP3   OH243462   1.318   5.028  11.178 -0.4056 -0.1244 -0.0055
 7324TIP3    H143463   1.358   5.093  11.235 -0.0185 -0.7781  0.4879
 7324TIP3    H243464   1.362   5.039  11.094 -0.1298  0.0446  0.1600
 7325TIP3   OH243465   5.836   3.327  16.015  0.1604  0.0632  0.4260
 7325TIP3    H143466   5.741   3.316  16.009  0.1078  0.5621  0.2630
 7325TIP3    H243467   5.871   3.238  16.015 -0.2785 -0.1167 -0.0188
 7326TIP3   OH243468   0.608   6.665  11.833  0.1673 -0.6629  0.3694
 7326TIP3    H143469   0.701   6.648  11.851  1.2706  3.8218  0.0349
 7326TIP3    H243470   0.566   6.662  11.919  0.7568 -1.7689  0.6409
 7327TIP3   OH243471   4.951   3.747   4.971 -0.0347  0.1950 -0.8168
 7327TIP3    H143472   5.029   3.700   4.999 -0.2583 -0.4185 -1.2157
 7327TIP3    H243473   4.897   3.752   5.050  0.6914  1.2298 -0.3614
 7328TIP3   OH243474   2.011   0.574  13.389 -0.0773  0.3565 -0.4295
 7328TIP3    H143475   1.927   0.593  13.348  0.3716  0.8200 -1.1532
 7328TIP3    H243476   2.074   0.577  13.317  0.7347  1.2457  0.2951
 7329TIP3   OH243477   3.713   6.214  15.461 -0.2072  0.5811 -0.3356
 7329TIP3    H143478   3.761   6.287  15.421  0.3741 -0.0135 -0.7527
 7329TIP3    H243479   3.780   6.162  15.505 -0.8571  1.3402  1.6770
 7330TIP3   OH243480   2.371   3.239  15.435  0.4447  0.8388 -0.0310
 7330TIP3    H143481   2.435   3.224  15.365  0.1277 -0.5158 -0.0463
 7330TIP3    H243482   2.309   3.167  15.427 -0.6276  1.6842  0.5069
 7331TIP3   OH243483   6.199   5.542   3.230 -0.2735 -0.5286  0.2850
 7331TIP3    H143484   6.233   5.631   3.228 -0.8617 -0.2812  0.9199
 7331TIP3    H243485   6.268   5.488   3.191 -0.1084  0.2652 -0.5452
 7332TIP3   OH243486   4.403   6.392  14.184  0.0754  0.1618 -0.2392
 7332TIP3    H143487   4.404   6.462  14.249  2.1127  0.2005 -0.2423
 7332TIP3    H243488   4.496   6.373  14.168 -0.3869 -0.5522 -2.3769
 7333TIP3   OH243489   2.572   4.645  14.391  0.3402 -0.3517  0.6498
 7333TIP3    H143490   2.523   4.702  14.331  0.7566  0.0896  0.7263
 7333TIP3    H243491   2.561   4.685  14.477  1.6390  0.3118  0.5285
 7334TIP3   OH243492   4.785   2.924  10.938 -0.3905  0.4935  0.6350
 7334TIP3    H143493   4.863   2.869  10.949 -1.1302 -0.5053  1.0439
 7334TIP3    H243494   4.778   2.972  11.021 -0.5734  0.0823  0.8644
 7335TIP3   OH243495   0.523   5.062  14.199 -0.3612 -0.1843  0.7795
 7335TIP3    H143496   0.561   5.121  14.135 -0.4319 -1.4596 -0.4836
 7335TIP3    H243497   0.486   5.119  14.266 -0.2729  1.1871 -0.3111
 7336TIP3   OH243498   5.632   0.248   3.029 -0.2342  0.5572  0.4482
 7336TIP3    H143499   5.699   0.182   3.043 -0.3087  0.4051  0.0878
 7336TIP3    H243500   5.550   0.203   3.049 -0.1562  1.0916  2.1410
 7337TIP3   OH243501   4.825   5.291  13.612 -0.0356 -0.0303 -0.4792
 7337TIP3    H143502   4.881   5.228  13.565  1.9089 -0.1115  1.7379
 7337TIP3    H243503   4.748   5.240  13.637  0.8018 -1.1558 -0.0574
 7338TIP3   OH243504   0.608   0.482   0.662 -0.2763 -0.6222 -0.7613
 7338TIP3    H143505   0.575   0.484   0.752 -1.9218  0.5675 -1.3397
 7338TIP3    H243506   0.617   0.389   0.641  0.6628 -0.9208  0.7790
 7339TIP3   OH243507   4.341   5.372  12.374  0.0886  0.0288  0.3403
 7339TIP3    H143508   4.246   5.358  12.369  0.2569 -1.7539  1.2381
 7339TIP3    H243509   4.379   5.289  12.346  1.4026  0.7628 -0.1243
 7340TIP3   OH243510   5.278   5.036  14.887 -0.1081  0.7964  0.3450
 7340TIP3    H143511   5.328   5.110  14.920 -0.9857  0.8314  1.6626
 7340TIP3    H243512   5.289   4.968  14.953 -0.9913  0.4632  0.1674
 7341TIP3   OH243513   6.391   4.649  16.824  0.4515  0.1766 -0.0245
 7341TIP3    H143514   6.430   4.727  16.783 -0.2495  0.4141 -0.2557
 7341TIP3    H243515   6.339   4.684  16.896 -0.0907 -0.0514 -0.3038
 7342TIP3   OH243516   3.822   3.557   0.371  0.2638 -0.4910  0.2214
 7342TIP3    H143517   3.860   3.644   0.367  2.5300 -1.3724  0.6460
 7342TIP3    H243518   3.863   3.510   0.298 -0.2536 -1.4350  0.5187
 7343TIP3   OH243519   5.571   3.683   3.135 -0.0071  0.0271 -0.0091
 7343TIP3    H143520   5.615   3.662   3.217  0.1505 -1.6313 -0.4860
 7343TIP3    H243521   5.578   3.778   3.128  1.7766  0.0033  0.9068
 7344TIP3   OH243522   0.747   5.757  14.353  0.2128  0.2799  0.1036
 7344TIP3    H143523   0.696   5.689  14.397 -0.1090 -0.0286 -0.7299
 7344TIP3    H243524   0.817   5.778  14.415  1.8548 -2.6351 -0.6008
 7345TIP3   OH243525   3.634   4.193   0.687 -0.2025  0.3175 -0.6047
 7345TIP3    H143526   3.698   4.210   0.756 -0.5901 -1.0304  0.1182
 7345TIP3    H243527   3.677   4.131   0.629 -1.1208 -1.3457  0.3951
 7346TIP3   OH243528   4.007   4.475  16.872  0.4375 -0.4857  0.0216
 7346TIP3    H143529   3.972   4.402  16.820 -1.8586  0.5262  0.0142
 7346TIP3    H243530   3.929   4.518  16.908  1.7547  1.4719  0.6975
 7347TIP3   OH243531   0.836   4.177  13.352  0.9514  0.3961  0.0053
 7347TIP3    H143532   0.797   4.161  13.438 -0.2464 -0.3120 -0.6419
 7347TIP3    H243533   0.916   4.226  13.371  0.1686  1.1991  1.4505
 7348TIP3   OH243534   6.584   4.182   2.601  0.2913 -0.1799 -0.2220
 7348TIP3    H143535   6.520   4.196   2.672  1.4268 -1.4907  1.1309
 7348TIP3    H243536   6.646   4.255   2.611  2.6889 -2.3570  2.8162
 7349TIP3   OH243537   0.635   5.405   3.048  0.0664  0.1622  0.9051
 7349TIP3    H143538   0.727   5.407   3.074  1.0904  2.3415 -2.2574
 7349TIP3    H243539   0.623   5.321   3.006  0.7934  0.1029  0.8074
 7350TIP3   OH243540   4.827   5.518  16.560  0.6509  0.6430 -0.3642
 7350TIP3    H143541   4.859   5.602  16.592 -1.1939  0.4699  2.3819
 7350TIP3    H243542   4.860   5.454  16.624 -3.2183  0.2544  1.5829
 7351TIP3   OH243543   6.835   2.202   3.519  0.3806 -0.1891  0.0169
 7351TIP3    H143544   6.769   2.142   3.485 -1.7304  2.0718 -0.1906
 7351TIP3    H243545   6.851   2.172   3.609 -0.5198 -1.1134 -0.1137
 7352TIP3   OH243546   3.595   6.485  11.248  0.2733 -0.5465  0.3544
 7352TIP3    H143547   3.683   6.519  11.230 -0.7191  1.5293 -1.0005
 7352TIP3    H243548   3.589   6.481  11.343  2.5520 -2.8845  0.5057
 7353TIP3   OH243549   0.822   3.179  12.104  0.2640  0.2201 -0.3035
 7353TIP3    H143550   0.780   3.176  12.018  0.7054 -1.3305 -0.4972
 7353TIP3    H243551   0.852   3.089  12.120  0.0841  0.4339  1.5296
 7354TIP3   OH243552   5.791   1.728  16.960  0.1499  0.5709  0.1223
 7354TIP3    H143553   5.885   1.737  16.953  0.0972  0.0235 -4.3894
 7354TIP3    H243554   5.756   1.813  16.934 -0.5053  0.0058 -0.9524
 7355TIP3   OH243555   4.224   4.225   3.569 -0.3760  0.4358 -0.1013
 7355TIP3    H143556   4.139   4.259   3.596  0.3359  0.4939  2.3583
 7355TIP3    H243557   4.277   4.226   3.650  2.0520  0.6815 -1.5942
 7356TIP3   OH243558   3.464   0.021  14.794  0.2033 -0.6118 -0.0561
 7356TIP3    H143559   3.477  -0.012  14.882 -0.1959  0.7197  0.5255
 7356TIP3    H243560   3.496   0.111  14.796 -0.6467 -0.2579 -1.0024
 7357TIP3   OH243561   5.441   2.468  11.819  0.1772 -0.5773  0.1456
 7357TIP3    H143562   5.509   2.520  11.777 -0.3545  0.7503  0.8580
 7357TIP3    H243563   5.402   2.417  11.748  0.5029  0.2427 -0.6429
 7358TIP3   OH243564   1.701   2.500  15.397  0.2699 -0.1109 -0.0459
 7358TIP3    H143565   1.795   2.513  15.387  0.2227  0.2882  0.0279
 7358TIP3    H243566   1.677   2.444  15.324  0.4230  0.4385 -0.5211
 7359TIP3   OH243567   0.931   5.364  14.127 -0.4379 -0.0742 -0.4696
 7359TIP3    H143568   0.928   5.315  14.046 -1.8041 -1.7311  0.5199
 7359TIP3    H243569   0.925   5.298  14.196  1.9092  1.1615  1.0651
 7360TIP3   OH243570   0.820   3.102  16.161  0.2745 -0.3033 -0.3503
 7360TIP3    H143571   0.725   3.094  16.149  0.3816 -3.6496 -0.1238
 7360TIP3    H243572   0.857   3.081  16.075  0.8021 -0.9988  0.0354
 7361TIP3   OH243573   3.109   3.472   5.090  0.2070  0.1750  0.5747
 7361TIP3    H143574   3.138   3.508   5.173  1.0032 -0.2288  0.4832
 7361TIP3    H243575   3.182   3.489   5.030 -1.3194  2.7983 -0.7555
 7362TIP3   OH243576   3.462   5.580   2.840  0.0817  0.4122 -0.4436
 7362TIP3    H143577   3.397   5.560   2.772  1.4282  1.6782 -2.1815
 7362TIP3    H243578   3.431   5.533   2.917 -0.0550 -3.5022 -2.6240
 7363TIP3   OH243579   4.370   2.060  11.638 -0.3434 -0.2744  0.1548
 7363TIP3    H143580   4.322   2.002  11.578 -1.5104 -0.4176  1.1899
 7363TIP3    H243581   4.392   2.004  11.713  0.6947  0.0188  0.0897
 7364TIP3   OH243582   6.709   1.207  16.448 -0.0971 -0.6152  0.4694
 7364TIP3    H143583   6.718   1.297  16.479  0.7394 -0.6287  0.2703
 7364TIP3    H243584   6.687   1.215  16.356 -2.4934 -0.5782  0.9637
 7365TIP3   OH243585   5.203   4.328   1.598  0.4013 -0.5786 -0.1447
 7365TIP3    H143586   5.237   4.375   1.674 -2.2844  2.4714 -0.5744
 7365TIP3    H243587   5.156   4.253   1.635 -1.7505  1.4013  1.4779
 7366TIP3   OH243588   2.802   5.233  14.212  0.0370 -0.0105 -0.1215
 7366TIP3    H143589   2.823   5.273  14.128  0.6782 -0.1170 -0.0190
 7366TIP3    H243590   2.773   5.306  14.267 -1.5333 -0.1191 -0.7863
 7367TIP3   OH243591   1.006   4.403   4.736  0.4302  0.5551 -0.2166
 7367TIP3    H143592   1.017   4.389   4.642  0.5508 -0.0683 -0.1153
 7367TIP3    H243593   0.972   4.492   4.743 -3.7015 -0.7667 -1.1172
 7368TIP3   OH243594   3.639   3.048   1.579  0.6670 -0.3476 -0.3312
 7368TIP3    H143595   3.593   3.021   1.658 -2.2880  1.9773 -1.0986
 7368TIP3    H243596   3.586   3.015   1.507  1.0425  1.0486 -1.2923
 7369TIP3   OH243597   0.046   3.366  15.011 -0.3262 -0.2551  0.5127
 7369TIP3    H143598   0.015   3.450  14.977  0.1815 -0.5889 -0.8720
 7369TIP3    H243599  -0.010   3.301  14.968 -0.0027 -0.6756  0.7230
 7370TIP3   OH243600   1.472   0.825   5.659  0.4384 -0.5812  0.0355
 7370TIP3    H143601   1.406   0.768   5.699  0.1650  0.2934  0.8725
 7370TIP3    H243602   1.551   0.772   5.657  0.5371 -0.6057  2.0160
 7371TIP3   OH243603   2.502   1.217   1.960 -0.3549 -0.1227  0.0201
 7371TIP3    H143604   2.513   1.222   2.055  0.1752  2.9897 -0.1007
 7371TIP3    H243605   2.564   1.281   1.925 -2.8467  1.2696 -2.2088
 7372TIP3   OH243606   1.051   1.962   3.891  0.2144  0.2177  0.0073
 7372TIP3    H143607   1.136   1.992   3.859 -0.1979 -0.1561 -1.5526
 7372TIP3    H243608   1.070   1.922   3.976  1.4629  0.8312  0.0437
 7373TIP3   OH243609   1.812   6.470  16.395  0.1561  0.6877  0.0290
 7373TIP3    H143610   1.754   6.433  16.462  0.9379  1.7078  1.3077
 7373TIP3    H243611   1.858   6.394  16.359  0.6263  0.2164  1.5374
 7374TIP3   OH243612   2.945   4.795  11.286  0.0305 -0.7792  0.1177
 7374TIP3    H143613   3.011   4.800  11.217  0.0552 -3.6398 -0.1957
 7374TIP3    H243614   2.927   4.886  11.308  2.2871  0.1660 -1.4747
 7375TIP3   OH243615   6.781   5.780  11.985 -0.1405  0.7874  0.5163
 7375TIP3    H143616   6.731   5.721  11.929 -1.6113  1.8844  0.6082
 7375TIP3    H243617   6.738   5.774  12.071 -0.9615  2.6859  0.2878
 7376TIP3   OH243618   5.525   2.338  14.707  0.4338  0.3775  0.4370
 7376TIP3    H143619   5.551   2.395  14.635 -0.7535  1.6590  0.9696
 7376TIP3    H243620   5.607   2.304  14.742  1.1017  0.9187 -0.5789
 7377TIP3   OH243621   1.778   1.659   6.178 -0.1599  0.2838  0.0217
 7377TIP3    H143622   1.725   1.580   6.176  2.3772 -1.5548  0.0205
 7377TIP3    H243623   1.747   1.708   6.254 -0.7046 -1.5495  1.0213
 7378TIP3   OH243624   5.082   1.150   1.922 -0.2813 -0.0360  0.3486
 7378TIP3    H143625   5.077   1.082   1.855  0.3538  0.8119 -0.5896
 7378TIP3    H243626   5.101   1.230   1.873 -1.9487  1.0081  1.3177
 7379TIP3   OH243627   4.984   0.122  12.240 -0.2500  0.2280  0.1125
 7379TIP3    H143628   4.951   0.038  12.207  0.5414 -0.3363  0.7221
 7379TIP3    H243629   5.065   0.099  12.287  0.4312  1.4293 -0.4272
 7380TIP3   OH243630   3.575   5.440  11.074  0.5320 -0.4862  0.0498
 7380TIP3    H143631   3.590   5.534  11.081 -2.1748 -0.0526  1.3075
 7380TIP3    H243632   3.658   5.400  11.101  1.8291  1.4900 -0.8100
 7381TIP3   OH243633   1.358   4.291   2.419  0.0074  0.4819 -0.1057
 7381TIP3    H143634   1.296   4.307   2.490  0.5451  1.3887  0.1742
 7381TIP3    H243635   1.314   4.323   2.341 -0.2468  0.2570 -0.0573
 7382TIP3   OH243636   5.572   2.347  13.383  0.4543 -0.0077  0.2665
 7382TIP3    H143637   5.481   2.338  13.412  1.2754 -0.1313  3.1179
 7382TIP3    H243638   5.598   2.258  13.360 -0.1816  0.0662 -0.8082
 7383TIP3   OH243639   0.571   3.704   2.330  0.2118  0.2872  0.2036
 7383TIP3    H143640   0.636   3.640   2.300  0.0592  0.6875 -1.0553
 7383TIP3    H243641   0.509   3.652   2.381 -0.4926 -0.8383 -1.6713
 7384TIP3   OH243642   6.326   5.743   1.672  0.1977 -0.0282 -0.2006
 7384TIP3    H143643   6.244   5.751   1.721 -0.0574  0.1323 -0.6408
 7384TIP3    H243644   6.372   5.825   1.690  0.1079  0.0263 -0.2118
 7385TIP3   OH243645   2.123   1.000   1.753 -0.3958  0.5768  0.1888
 7385TIP3    H143646   2.028   0.989   1.755 -0.4652  1.1617  2.1547
 7385TIP3    H243647   2.152   0.978   1.842  1.3036  0.4770 -0.3506
 7386TIP3   OH243648   4.060   2.453  14.900 -0.0328 -0.4411 -0.5012
 7386TIP3    H143649   4.065   2.484  14.809  0.2244 -0.3074 -0.4436
 7386TIP3    H243650   4.072   2.532  14.953  0.5134 -0.6196 -0.3528
 7387TIP3   OH243651   5.465   4.289   2.528 -0.2271 -0.1572 -0.2677
 7387TIP3    H143652   5.490   4.317   2.440 -0.2309 -0.8897 -0.5083
 7387TIP3    H243653   5.453   4.371   2.577 -2.3266  0.3541 -1.5176
 7388TIP3   OH243654   5.183   0.147  11.569  0.3446 -0.1066  0.1908
 7388TIP3    H143655   5.168   0.156  11.663 -0.2798  1.2123 -0.0068
 7388TIP3    H243656   5.176   0.053  11.552 -1.2114 -0.2158  1.2043
 7389TIP3   OH243657   6.172   6.242  13.495 -0.0775 -0.1799 -0.6866
 7389TIP3    H143658   6.097   6.255  13.552 -0.9357 -1.8010 -1.3737
 7389TIP3    H243659   6.247   6.275  13.545 -0.8285 -1.2843  1.2780
 7390TIP3   OH243660   6.772   4.801  12.135  0.8184  0.0202 -1.0127
 7390TIP3    H143661   6.706   4.734  12.125  2.2931 -1.3627 -1.9765
 7390TIP3    H243662   6.746   4.870  12.074  0.1376 -0.3791 -1.1793
 7391TIP3   OH243663   4.668   3.629   5.844  0.1946 -0.6114 -0.8086
 7391TIP3    H143664   4.623   3.629   5.929 -1.6216 -0.6581 -1.7213
 7391TIP3    H243665   4.685   3.721   5.827 -1.1199 -0.4088 -1.1947
 7392TIP3   OH243666   0.561   0.824   5.947 -0.1584 -0.1802  0.3351
 7392TIP3    H143667   0.607   0.824   6.031  0.6328 -0.1734 -0.0833
 7392TIP3    H243668   0.552   0.731   5.926 -0.5903 -0.1880  0.5480
 7393TIP3   OH243669   6.322   2.408   5.747 -0.0514 -0.0073  0.6999
 7393TIP3    H143670   6.397   2.370   5.792 -0.1930 -0.8516  0.2495
 7393TIP3    H243671   6.299   2.343   5.680 -1.1112  0.2808  0.7656
 7394TIP3   OH243672   3.828   2.554   4.363 -0.5310  0.2099  0.9341
 7394TIP3    H143673   3.846   2.648   4.357 -0.3498  0.2351  1.6766
 7394TIP3    H243674   3.853   2.531   4.453 -2.8719 -0.0405  1.5993
 7395TIP3   OH243675   6.054   4.020   2.363 -0.0857 -0.1224  0.3646
 7395TIP3    H143676   6.136   4.031   2.315 -1.0105  1.9910 -0.8847
 7395TIP3    H243677   5.989   4.002   2.295 -1.1031  0.9600  1.0146
 7396TIP3   OH243678   3.373   0.751  16.786 -0.9020  0.3228  0.3359
 7396TIP3    H143679   3.454   0.788  16.750 -0.1873  0.4222  1.9580
 7396TIP3    H243680   3.352   0.806  16.861 -2.4023  0.1865  0.0414
 7397TIP3   OH243681   1.589   4.643  11.345  0.1896  0.4183  0.2975
 7397TIP3    H143682   1.647   4.647  11.420  0.2419  0.3418  0.2611
 7397TIP3    H243683   1.524   4.577  11.368  0.7653 -0.2973 -0.1220
 7398TIP3   OH243684   2.086   6.688   0.349  0.3278 -0.0166  0.2000
 7398TIP3    H143685   2.130   6.747   0.287 -1.7833  0.2412 -1.1528
 7398TIP3    H243686   2.002   6.731   0.367  0.8418 -0.0870  3.3035
 7399TIP3   OH243687   1.104   0.157  15.436 -0.4392 -0.0118  0.9670
 7399TIP3    H143688   1.050   0.083  15.409  0.9753 -2.1275  3.4755
 7399TIP3    H243689   1.194   0.127  15.425  0.1922  1.4892  1.7261
 7400TIP3   OH243690   2.390   3.773  14.219 -0.8242 -1.1525  0.1355
 7400TIP3    H143691   2.361   3.744  14.305  0.1978 -0.0789  0.8512
 7400TIP3    H243692   2.471   3.724  14.203 -0.7650 -1.0007 -0.0265
 7401TIP3   OH243693   2.214   2.519   2.385  0.0822 -0.3126 -0.0649
 7401TIP3    H143694   2.136   2.560   2.420 -0.6620 -1.0084 -0.8733
 7401TIP3    H243695   2.182   2.449   2.328  1.2776 -1.6634  0.8127
 7402TIP3   OH243696   4.360   2.272   2.429  0.3281  0.7428 -0.4892
 7402TIP3    H143697   4.349   2.350   2.484 -0.4938 -0.2785  0.8668
 7402TIP3    H243698   4.392   2.205   2.489 -0.5290 -0.3942 -1.2555
 7403TIP3   OH243699   2.437   1.126   4.719  0.1100  0.4743  0.0929
 7403TIP3    H143700   2.468   1.038   4.738 -0.2830  0.8380  2.6893
 7403TIP3    H243701   2.345   1.125   4.743 -0.7432  0.8193 -2.7425
 7404TIP3   OH243702   1.116   4.307   1.029  0.4985 -0.7903  0.2323
 7404TIP3    H143703   1.096   4.276   0.941  0.5268  2.7118 -1.1731
 7404TIP3    H243704   1.031   4.327   1.068  0.5622  1.4308 -0.6244
 7405TIP3   OH243705   6.135   2.670   5.291  0.3685  0.5265 -0.6626
 7405TIP3    H143706   6.040   2.663   5.290 -0.1454  4.6096  0.7357
 7405TIP3    H243707   6.164   2.617   5.217 -3.2987  1.8594 -3.3411
 7406TIP3   OH243708   6.384   1.080  17.073 -0.2529  0.2705 -0.0574
 7406TIP3    H143709   6.441   1.151  17.103  3.4562 -1.0518 -3.1184
 7406TIP3    H243710   6.320   1.124  17.016 -0.9196  1.5600  1.6123
 7407TIP3   OH243711   6.821   1.027  14.645  0.4504 -0.0685 -0.4579
 7407TIP3    H143712   6.750   1.023  14.581  0.4555  0.2623 -0.4875
 7407TIP3    H243713   6.785   0.984  14.723  0.1869  0.1670 -0.4475
 7408TIP3   OH243714   5.476   5.871   0.293  0.8477  0.1515 -0.3993
 7408TIP3    H143715   5.480   5.960   0.258  1.0312  0.7111  0.9747
 7408TIP3    H243716   5.502   5.881   0.385 -0.3582 -1.1350  0.1053
 7409TIP3   OH243717   4.719   1.762   0.737  0.0759  0.4603 -0.2211
 7409TIP3    H143718   4.687   1.677   0.769 -0.0593  0.3643 -0.6030
 7409TIP3    H243719   4.781   1.791   0.804  0.2093  0.0044 -0.1432
 7410TIP3   OH243720   4.459   2.808   2.312  0.2731 -0.5533  0.3328
 7410TIP3    H143721   4.529   2.775   2.256  0.6320 -0.8766  0.9528
 7410TIP3    H243722   4.431   2.890   2.271  1.7445  0.1374  0.6354
 7411TIP3   OH243723   5.713   1.395  13.495  0.0894 -0.0193 -0.3022
 7411TIP3    H143724   5.641   1.373  13.436  0.0606 -0.3228 -0.1543
 7411TIP3    H243725   5.767   1.456  13.445 -0.6146  0.7230 -0.1908
 7412TIP3   OH243726   1.517   1.950  13.249 -0.1195  0.6953 -0.1273
 7412TIP3    H143727   1.550   1.866  13.283 -0.8568  0.9667  1.3424
 7412TIP3    H243728   1.453   1.925  13.182 -0.1722  0.0813  0.1417
 7413TIP3   OH243729   0.749   0.601   4.620 -0.3760 -0.2134 -0.9929
 7413TIP3    H143730   0.713   0.685   4.594 -1.0227 -0.2567 -0.2754
 7413TIP3    H243731   0.705   0.580   4.703  0.7122 -0.6479 -0.5008
 7414TIP3   OH243732   4.187   5.797   5.049 -0.3522 -0.6370 -0.1044
 7414TIP3    H143733   4.237   5.727   5.091  0.3482  0.0345  0.2042
 7414TIP3    H243734   4.247   5.833   4.983 -0.8474 -0.5843 -0.5390
 7415TIP3   OH243735   4.175   5.808  13.775  0.0300  0.0358 -0.2840
 7415TIP3    H143736   4.088   5.846  13.771  0.2254  0.5132  0.0057
 7415TIP3    H243737   4.235   5.883  13.775  0.4850 -0.2951 -1.5518
 7416TIP3   OH243738   3.075   4.354  11.901  0.1098 -0.1462  0.6951
 7416TIP3    H143739   3.029   4.287  11.851 -0.6150 -0.7312  2.0676
 7416TIP3    H243740   3.037   4.437  11.870  0.0963 -0.4467 -0.1131
 7417TIP3   OH243741   4.704   1.231  11.477 -0.0302 -0.0247 -0.6892
 7417TIP3    H143742   4.790   1.255  11.443  1.1119  1.0651  2.5792
 7417TIP3    H243743   4.642   1.286  11.429  1.4778  1.7305 -0.7044
 7418TIP3   OH243744   4.386   6.570   4.656 -0.2652  0.3056  0.3968
 7418TIP3    H143745   4.444   6.626   4.604 -1.7335  1.4824 -0.0381
 7418TIP3    H243746   4.311   6.626   4.677 -0.7315 -0.8343  1.9013
 7419TIP3   OH243747   2.866   0.956   5.670 -0.5982 -0.2288 -0.0266
 7419TIP3    H143748   2.804   1.029   5.660 -0.1187  0.1796 -0.0343
 7419TIP3    H243749   2.906   0.971   5.756 -0.5605 -0.5351  0.0103
 7420TIP3   OH243750   1.299   3.324   6.201 -0.6314  0.4838 -0.1071
 7420TIP3    H143751   1.299   3.309   6.296  0.0821  0.6928 -0.0706
 7420TIP3    H243752   1.391   3.327   6.177 -0.7814 -1.4890 -1.1434
 7421TIP3   OH243753   0.382   6.770  12.719  0.0061 -0.3918  0.3892
 7421TIP3    H143754   0.452   6.724  12.672 -0.9182 -1.5468  0.0857
 7421TIP3    H243755   0.414   6.777  12.809  2.1359  2.5071 -0.4275
 7422TIP3   OH243756   0.192   0.634  13.233  0.1906  0.3085 -0.6735
 7422TIP3    H143757   0.272   0.583  13.227  0.3527  0.6586 -1.6646
 7422TIP3    H243758   0.221   0.724  13.245  0.0213  0.7115 -2.9815
 7423TIP3   OH243759   5.333   6.797  11.951  0.7161 -0.3194  0.5346
 7423TIP3    H143760   5.385   6.776  12.029  1.2257 -0.3783  0.1871
 7423TIP3    H243761   5.257   6.740  11.957  0.8952 -0.5341  0.8405
 7424TIP3   OH243762   4.350   1.500  12.147  0.4082  0.3861  0.1153
 7424TIP3    H143763   4.336   1.580  12.097  1.8730  1.4158  1.2900
 7424TIP3    H243764   4.297   1.434  12.102 -1.0040  2.0386 -0.7601
 7425TIP3   OH243765   6.600   0.019  12.510 -0.4711 -0.9059 -0.2193
 7425TIP3    H143766   6.530  -0.005  12.450 -1.6148 -0.6223  0.9681
 7425TIP3    H243767   6.657   0.076  12.459 -2.4223  0.8669 -0.5435
 7426TIP3   OH243768   4.702   6.606   3.862  0.1058 -0.0403  0.0733
 7426TIP3    H143769   4.780   6.657   3.884 -1.8677  3.2974 -0.0306
 7426TIP3    H243770   4.647   6.612   3.939 -1.3946  0.4948 -1.0003
 7427TIP3   OH243771   6.760   0.302   3.504 -0.2193  0.2264 -0.4926
 7427TIP3    H143772   6.813   0.285   3.582  0.3672  2.1485 -0.4218
 7427TIP3    H243773   6.781   0.230   3.445  0.9241 -0.1383  0.3303
 7428TIP3   OH243774   6.376   1.432  12.822 -0.4772  0.2952  0.1386
 7428TIP3    H143775   6.377   1.413  12.916 -1.8627  0.7382  0.2713
 7428TIP3    H243776   6.293   1.394  12.791 -1.3067  2.4048 -0.3736
 7429TIP3   OH243777   1.438   6.726   6.314 -0.0620 -0.4556 -0.0045
 7429TIP3    H143778   1.520   6.680   6.296 -0.7159 -1.6997  0.0640
 7429TIP3    H243779   1.444   6.806   6.262  1.2171 -0.5002  0.0488
 7430TIP3   OH243780   4.502   1.688  13.158  0.1508 -0.0430  0.5779
 7430TIP3    H143781   4.518   1.597  13.133 -0.6183 -0.2470  0.7935
 7430TIP3    H243782   4.589   1.728  13.161  0.3549  0.0342 -2.4927
 7431TIP3   OH243783   3.360   6.533  14.073  0.4832 -0.0357  0.1062
 7431TIP3    H143784   3.401   6.523  13.986  1.3532 -0.1230  0.5114
 7431TIP3    H243785   3.423   6.586  14.122 -1.4429  2.8040 -0.2651
 7432TIP3   OH243786   4.390   2.944  12.679  0.3324 -0.0657 -0.1681
 7432TIP3    H143787   4.328   3.017  12.679 -1.0422 -1.1939 -0.5016
 7432TIP3    H243788   4.386   2.910  12.590 -0.8043 -1.9667  0.5599
 7433TIP3   OH243789   0.724   2.554  13.816  0.4957 -0.1962  0.3213
 7433TIP3    H143790   0.747   2.463  13.797 -0.3979 -0.2434 -0.5915
 7433TIP3    H243791   0.806   2.602  13.806  0.8142 -0.7822  0.0573
 7434TIP3   OH243792   1.894   5.667  16.772 -0.4594 -0.0130 -0.1562
 7434TIP3    H143793   1.892   5.728  16.699 -0.6718 -0.8269 -0.8434
 7434TIP3    H243794   1.880   5.722  16.850  0.1844  0.9090 -0.6787
 7435TIP3   OH243795   3.611   0.465   3.820 -0.4248 -0.0603 -0.1221
 7435TIP3    H143796   3.581   0.384   3.860  1.8329 -0.5997  0.6123
 7435TIP3    H243797   3.707   0.459   3.821 -0.2150  1.6953 -1.9688
 7436TIP3   OH243798   1.310   0.277   2.722  0.1400 -0.4739  0.0452
 7436TIP3    H143799   1.224   0.239   2.706 -0.3109  0.0471  1.1023
 7436TIP3    H243800   1.316   0.350   2.660 -0.4280 -0.1579  0.3514
 7437TIP3   OH243801   1.699   1.007  17.131  0.4486 -0.2046  0.2466
 7437TIP3    H143802   1.639   1.070  17.170  0.6585 -0.2076  0.5765
 7437TIP3    H243803   1.667   0.921  17.159  0.3141 -0.2348  0.0084
 7438TIP3   OH243804   3.060   0.767   2.100  0.3832  0.4219 -0.4249
 7438TIP3    H143805   3.058   0.824   2.178 -0.4750 -1.0280  0.6675
 7438TIP3    H243806   2.999   0.809   2.039 -0.1946  0.7258  0.3337
 7439TIP3   OH243807   1.610   3.027   4.761 -0.4866  1.0536  0.4363
 7439TIP3    H143808   1.537   2.975   4.727  0.0384 -0.5004  1.5688
 7439TIP3    H243809   1.581   3.055   4.847  1.1211 -1.7888  2.0568
 7440TIP3   OH243810   4.118   6.086  17.002  0.2643  0.0411 -0.1134
 7440TIP3    H143811   4.023   6.090  17.013  0.2201  1.2722 -0.7600
 7440TIP3    H243812   4.134   6.129  16.918  1.3949 -0.1799 -0.0235
 7441TIP3   OH243813   2.431   2.224  16.039 -0.2480  0.6176 -0.2469
 7441TIP3    H143814   2.494   2.171  15.991 -1.2337  1.8008 -3.0545
 7441TIP3    H243815   2.483   2.270  16.105  2.2306  2.5789 -3.2847
 7442TIP3   OH243816   3.932   4.201   2.040 -0.0863 -0.1949 -0.2720
 7442TIP3    H143817   3.936   4.177   1.948  0.1213 -0.8684 -0.0925
 7442TIP3    H243818   3.945   4.119   2.087  0.2985  0.2157  0.3596
 7443TIP3   OH243819   3.031   2.893   0.110  0.1053 -0.5346  0.1001
 7443TIP3    H143820   2.972   2.874   0.183 -1.7849  0.8515 -0.9805
 7443TIP3    H243821   2.973   2.920   0.039  1.9945 -0.2707 -1.4214
 7444TIP3   OH243822   2.182   0.174  15.532  0.3054  0.0953  0.3818
 7444TIP3    H143823   2.145   0.227  15.462  0.6467 -0.1852 -0.0140
 7444TIP3    H243824   2.275   0.168  15.511 -0.1856 -3.2917 -1.3462
 7445TIP3   OH243825   3.040   0.546   0.538  0.3148  0.1787  0.1630
 7445TIP3    H143826   2.962   0.594   0.509 -0.5856 -1.3894 -0.0977
 7445TIP3    H243827   3.108   0.613   0.542 -0.8763  1.4720 -0.2355
 7446TIP3   OH243828   3.300   1.400   3.906  0.5500  0.3362  0.0097
 7446TIP3    H143829   3.305   1.443   3.991  1.8076 -2.5285  1.5288
 7446TIP3    H243830   3.235   1.331   3.918  0.7495 -0.1084 -1.3483
 7447TIP3   OH243831   4.140   6.352  10.200  0.0082  0.0499  0.3337
 7447TIP3    H143832   4.227   6.371  10.164  1.0909 -2.2401  1.5023
 7447TIP3    H243833   4.120   6.427  10.255  1.0737  0.7830 -0.2370
 7448TIP3   OH243834   2.811   3.276  15.234 -0.2830 -0.2505 -0.5031
 7448TIP3    H143835   2.775   3.272  15.146 -0.7527 -0.6026 -0.2938
 7448TIP3    H243836   2.905   3.289  15.220 -0.6428  2.0978 -1.0343
 7449TIP3   OH243837   5.519   5.134   4.153 -0.0959  0.8840 -0.0878
 7449TIP3    H143838   5.476   5.151   4.069 -0.6731  0.2282  0.0675
 7449TIP3    H243839   5.457   5.167   4.218 -0.9669 -1.1966  0.1939
 7450TIP3   OH243840   1.899   3.884  15.563 -0.1191  0.4072 -0.0595
 7450TIP3    H143841   1.838   3.853  15.496 -0.8947 -0.2846  0.9331
 7450TIP3    H243842   1.846   3.942  15.618  0.5998  1.2544 -0.2538
 7451TIP3   OH243843   5.166   3.591   2.568 -0.1319  0.4870  0.0898
 7451TIP3    H143844   5.107   3.537   2.620 -0.1292 -1.3214 -1.6664
 7451TIP3    H243845   5.117   3.611   2.488  0.4684  1.7643  0.0151
 7452TIP3   OH243846   0.983   1.743  15.845  0.4767 -0.6870 -0.3580
 7452TIP3    H143847   0.965   1.649  15.852  1.4714 -0.8713 -0.2146
 7452TIP3    H243848   0.913   1.777  15.789 -0.5119 -1.3190  0.4560
 7453TIP3   OH243849   1.901   4.240   0.229 -0.8438  0.4651 -0.2278
 7453TIP3    H143850   1.976   4.214   0.175 -0.4980 -0.4562  0.6519
 7453TIP3    H243851   1.914   4.334   0.245  1.5238 -0.0988  1.9141
 7454TIP3   OH243852   0.288   3.157  16.025  0.1817  0.4146  0.8954
 7454TIP3    H143853   0.243   3.238  16.050 -0.6263  0.4625 -0.6440
 7454TIP3    H243854   0.313   3.117  16.109  1.2955  2.6132  1.6755
 7455TIP3   OH243855   6.789   6.141   3.346 -0.5860  0.0655 -0.3132
 7455TIP3    H143856   6.783   6.226   3.390  1.6276  0.8492 -1.3741
 7455TIP3    H243857   6.749   6.080   3.407 -0.3588  1.5548  1.4305
 7456TIP3   OH243858   2.065   3.517   4.991  0.0166 -0.1419  0.6579
 7456TIP3    H143859   2.126   3.521   4.917  0.3334 -2.0312  0.7761
 7456TIP3    H243860   2.062   3.607   5.024  1.7097  0.2651 -0.1763
 7457TIP3   OH243861   2.265   4.061  13.082 -0.5511 -0.1898  0.6347
 7457TIP3    H143862   2.280   3.967  13.096 -1.9442 -0.6332 -0.6414
 7457TIP3    H243863   2.299   4.077  12.994  0.4978  0.7288  1.1851
 7458TIP3   OH243864   2.417   4.634  16.193 -0.6566 -1.0864  0.3674
 7458TIP3    H143865   2.366   4.698  16.144 -2.2000 -2.7715 -0.3651
 7458TIP3    H243866   2.392   4.649  16.285 -0.5985 -0.3157  0.2631
 7459TIP3   OH243867   3.039   6.243   1.924  0.3988 -0.1892  0.0587
 7459TIP3    H143868   3.044   6.149   1.910  2.1882 -0.1817  0.4247
 7459TIP3    H243869   3.011   6.253   2.015 -0.0155 -0.3570 -0.0490
 7460TIP3   OH243870   5.936   3.785   1.466  0.1493 -0.0805  0.9503
 7460TIP3    H143871   5.991   3.788   1.544  3.1253  1.7497 -1.0377
 7460TIP3    H243872   5.963   3.705   1.421  0.7950  0.4981  0.2800
 7461TIP3   OH243873   0.088   3.472  11.598 -0.2332  0.4979 -0.7300
 7461TIP3    H143874   0.084   3.377  11.608 -0.4436  0.4415 -1.2802
 7461TIP3    H243875   0.006   3.496  11.555 -1.3477  1.2715  1.6952
 7462TIP3   OH243876   4.603   4.862   0.420 -0.3713  0.1703  0.0201
 7462TIP3    H143877   4.675   4.806   0.449 -0.9579 -0.8438 -0.4096
 7462TIP3    H243878   4.645   4.938   0.381  0.4833 -0.6239 -0.6610
 7463TIP3   OH243879   5.217   0.053   3.549  0.6136 -0.8646 -0.4890
 7463TIP3    H143880   5.291   0.062   3.609  1.7617  1.2478 -2.0657
 7463TIP3    H243881   5.251   0.086   3.466 -1.9098 -0.4633 -1.4265
 7464TIP3   OH243882   5.198   6.411   3.006  0.4040  0.4942  0.0481
 7464TIP3    H143883   5.207   6.451   2.919 -0.6105 -0.2283 -0.4178
 7464TIP3    H243884   5.274   6.441   3.055  0.4667  1.7411 -0.7689
 7465TIP3   OH243885   2.376   3.295  16.585  0.5597  0.6210  0.6657
 7465TIP3    H143886   2.345   3.228  16.524  1.6855 -0.1345  0.8880
 7465TIP3    H243887   2.325   3.279  16.665 -0.8587  1.5604 -0.0013
 7466TIP3   OH243888   3.299   0.084   4.660  0.5136 -0.2640 -0.2848
 7466TIP3    H143889   3.344   0.168   4.653  0.4154 -0.1723  0.1526
 7466TIP3    H243890   3.206   0.106   4.656  0.4966 -0.4163 -0.7972
 7467TIP3   OH243891   0.118   6.297   0.571  0.1636 -0.0239 -0.3890
 7467TIP3    H143892   0.192   6.357   0.578 -1.1006  1.7554 -1.4360
 7467TIP3    H243893   0.051   6.336   0.627 -0.3230 -1.0695 -0.2319
 7468TIP3   OH243894   5.411   5.760   1.921 -0.4841  1.2674 -0.2495
 7468TIP3    H143895   5.506   5.771   1.916 -0.1008 -0.2595  2.1124
 7468TIP3    H243896   5.380   5.842   1.958  0.3203  0.7604  1.6826
 7469TIP3   OH243897   3.676   0.254   1.602 -0.7674  0.9879  0.1924
 7469TIP3    H143898   3.659   0.170   1.646  1.8130 -0.9273 -2.0876
 7469TIP3    H243899   3.715   0.309   1.669 -1.5898  0.0405  1.5062
 7470TIP3   OH243900   4.520   2.773  13.611 -0.1770  0.2450  0.0920
 7470TIP3    H143901   4.582   2.793  13.541  2.6987  2.1881  2.9301
 7470TIP3    H243902   4.445   2.831  13.594 -0.5454 -0.8465 -2.4050
 7471TIP3   OH243903   3.916   3.198   2.597 -0.2099  0.2580 -0.5989
 7471TIP3    H143904   3.953   3.146   2.526 -0.7826  1.1626 -1.5814
 7471TIP3    H243905   3.989   3.249   2.630 -0.0093  0.0561 -0.7252
 7472TIP3   OH243906   3.214   2.016   2.687 -0.0421 -0.7073  0.7602
 7472TIP3    H143907   3.200   1.966   2.606 -0.1526  0.2812  0.1533
 7472TIP3    H243908   3.143   1.988   2.745 -1.5586  0.4505 -0.4382
 7473TIP3   OH243909   2.058   5.295   4.981 -0.1089  0.1955  0.1427
 7473TIP3    H143910   2.130   5.296   4.918  0.4653  0.6787  0.7960
 7473TIP3    H243911   1.980   5.274   4.928  0.6412 -1.3301 -0.4160
 7474TIP3   OH243912   1.666   1.825   6.349  0.1902 -0.1511 -0.3289
 7474TIP3    H143913   1.578   1.860   6.332 -0.1458 -1.4469 -1.4169
 7474TIP3    H243914   1.676   1.830   6.444 -0.6520  0.9467 -0.2776
 7475TIP3   OH243915   6.566   5.884   1.507 -0.5973 -0.2861 -0.5766
 7475TIP3    H143916   6.656   5.900   1.537 -0.8642 -1.9331  1.3129
 7475TIP3    H243917   6.562   5.790   1.490 -1.8781 -0.1862 -0.9493
 7476TIP3   OH243918   4.267   3.719  16.528 -0.9684 -0.3706 -0.4533
 7476TIP3    H143919   4.308   3.726  16.614 -1.2834  1.0235 -0.3846
 7476TIP3    H243920   4.305   3.640  16.489  2.6979  1.3840 -0.8495
 7477TIP3   OH243921   0.836   2.919  11.011  0.2327 -0.0445  0.1083
 7477TIP3    H143922   0.825   2.839  10.959 -1.0178  0.9329 -1.2265
 7477TIP3    H243923   0.804   2.989  10.954 -0.6688  1.1668  2.0149
 7478TIP3   OH243924   2.565   6.600  16.001  0.0188 -0.2235 -0.2204
 7478TIP3    H143925   2.658   6.578  15.998 -0.0352 -0.7605  1.3153
 7478TIP3    H243926   2.531   6.572  15.915  0.9554 -1.5195 -0.1934
 7479TIP3   OH243927   6.697   1.510   0.268 -0.3856  0.1091  0.0566
 7479TIP3    H143928   6.604   1.491   0.255  0.0248 -1.7497 -0.5436
 7479TIP3    H243929   6.725   1.555   0.188 -0.7444  0.6308  0.2206
 7480TIP3   OH243930   0.739   1.880  11.415  0.7838  0.0135  0.2033
 7480TIP3    H143931   0.810   1.945  11.411 -1.0053  2.1011  0.6242
 7480TIP3    H243932   0.682   1.903  11.342  1.0887 -2.4216 -0.8924
 7481TIP3   OH243933   0.404   2.897   4.940  0.1444 -0.1791  0.1420
 7481TIP3    H143934   0.491   2.864   4.919 -0.2492 -1.2119  0.0815
 7481TIP3    H243935   0.419   2.988   4.965  1.1336 -0.0822 -0.6896
 7482TIP3   OH243936   0.904   3.221   1.186 -0.2025 -0.0501 -0.5347
 7482TIP3    H143937   0.834   3.197   1.247  0.0253 -1.7172 -0.8813
 7482TIP3    H243938   0.927   3.139   1.142  2.7002  0.1670  0.3436
 7483TIP3   OH243939   0.167   2.033   3.257 -0.2987 -0.3437  0.4473
 7483TIP3    H143940   0.221   1.969   3.303  0.8611  1.9438  2.4714
 7483TIP3    H243941   0.109   1.980   3.203  1.7617 -3.0191  0.6506
 7484TIP3   OH243942   6.324   1.207   5.364 -0.3607 -0.6071 -0.6459
 7484TIP3    H143943   6.403   1.207   5.311 -0.4173 -0.3366 -0.7307
 7484TIP3    H243944   6.353   1.231   5.452 -0.3696 -0.3553 -0.7102
 7485TIP3   OH243945   2.319   4.684   3.331 -0.0947 -0.3750 -0.2128
 7485TIP3    H143946   2.409   4.655   3.343 -0.7553 -1.7497  1.9162
 7485TIP3    H243947   2.290   4.709   3.418 -1.8238 -0.1062 -0.8260
 7486TIP3   OH243948   6.786   0.763  13.382 -0.3847  0.6510 -0.4774
 7486TIP3    H143949   6.843   0.711  13.325 -1.3209 -0.1494 -0.6935
 7486TIP3    H243950   6.699   0.753  13.345 -1.1313 -0.4117  1.4476
 7487TIP3   OH243951   6.708   3.908  15.178 -0.3174 -0.1545 -0.4092
 7487TIP3    H143952   6.724   3.968  15.105 -0.8472  0.4311 -0.0626
 7487TIP3    H243953   6.777   3.930  15.242 -1.1902  0.9315  0.2117
 7488TIP3   OH243954   0.562   5.648   1.527 -0.2776 -0.4332 -0.1539
 7488TIP3    H143955   0.622   5.672   1.457  0.0466  0.6127  0.4602
 7488TIP3    H243956   0.618   5.632   1.602 -0.4337 -3.6038 -0.6000
 7489TIP3   OH243957   0.968   1.551  13.220  0.9060  0.2095 -0.2223
 7489TIP3    H143958   0.965   1.637  13.177  1.9042  0.0514 -0.6226
 7489TIP3    H243959   1.059   1.524  13.214  0.1891 -2.1299 -2.6670
 7490TIP3   OH243960   1.598   2.567   1.687  0.3538  0.4851 -0.7544
 7490TIP3    H143961   1.637   2.624   1.620  0.3744  0.2152 -0.9717
 7490TIP3    H243962   1.557   2.497   1.638  0.7949  0.0146 -0.4612
 7491TIP3   OH243963   5.441   4.888   6.292  0.2901 -0.2064  0.3380
 7491TIP3    H143964   5.527   4.848   6.277  0.3170 -0.2166  0.5082
 7491TIP3    H243965   5.459   4.981   6.302  0.2679 -0.1941  0.2639
 7492TIP3   OH243966   6.162   1.112  13.046  0.2736  0.0917 -0.0535
 7492TIP3    H143967   6.198   1.168  12.977  1.7841 -1.2563 -0.4253
 7492TIP3    H243968   6.134   1.033  13.000 -0.1887 -0.1787  0.6816
 7493TIP3   OH243969   1.380   4.650  13.753  0.2570 -0.3897  0.3055
 7493TIP3    H143970   1.463   4.612  13.781 -0.0126 -0.0806  1.5753
 7493TIP3    H243971   1.348   4.699  13.829 -2.7576 -3.2652  1.1662
 7494TIP3   OH243972   4.398   3.464  13.505  0.0927  0.2016 -0.2980
 7494TIP3    H143973   4.481   3.512  13.495  0.9672 -0.9679  0.9110
 7494TIP3    H243974   4.425   3.376  13.531 -1.5369  0.3855  2.4597
 7495TIP3   OH243975   2.899   5.449   2.924  0.8449 -0.2654 -0.4132
 7495TIP3    H143976   2.843   5.374   2.905  1.1491 -0.2157 -1.6011
 7495TIP3    H243977   2.863   5.520   2.872  0.7705  0.3292  0.4392
 7496TIP3   OH243978   4.673   0.881  11.961  0.8916  0.5074  0.1024
 7496TIP3    H143979   4.657   0.948  11.895  1.0438  0.2960 -0.1482
 7496TIP3    H243980   4.640   0.920  12.043  1.2571  1.0067  0.0155
 7497TIP3   OH243981   3.696   1.822   3.646 -0.0696  0.2750  0.2782
 7497TIP3    H143982   3.705   1.916   3.626  1.6436 -0.1715 -1.3240
 7497TIP3    H243983   3.634   1.790   3.580  2.3317 -0.3854 -1.8196
 7498TIP3   OH243984   4.304   3.673   0.587  1.0437 -0.2449  0.6220
 7498TIP3    H143985   4.298   3.669   0.492  1.0661  3.1869  0.3777
 7498TIP3    H243986   4.215   3.691   0.616  0.7856 -2.4696  1.4588
 7499TIP3   OH243987   3.180   1.087  14.105  0.3496 -0.3417 -0.1556
 7499TIP3    H143988   3.174   1.131  14.020 -0.4373 -0.4151 -0.1517
 7499TIP3    H243989   3.098   1.110  14.149  0.1334 -1.4039  0.0385
 7500TIP3   OH243990   1.767   0.035  14.171  0.4087  0.1147 -0.2960
 7500TIP3    H143991   1.695   0.095  14.154 -0.3700 -1.4201 -2.9598
 7500TIP3    H243992   1.846   0.086  14.154 -0.0461  1.3695  1.1533
 7501TIP3   OH243993   3.023   4.564  12.504 -0.5455  0.2123  0.4648
 7501TIP3    H143994   3.040   4.474  12.478  3.6911  1.0863 -0.5460
 7501TIP3    H243995   3.041   4.566  12.598  2.0520  0.3996  0.0266
 7502TIP3   OH243996   1.673   2.806   3.491 -0.0862  0.4660  0.0576
 7502TIP3    H143997   1.640   2.892   3.464 -2.1595 -0.3838 -0.3609
 7502TIP3    H243998   1.655   2.801   3.585 -1.9118 -0.2268 -0.2731
 7503TIP3   OH243999   1.115   1.801   4.118  0.5486 -0.4146  0.8290
 7503TIP3    H144000   1.175   1.736   4.081 -0.3310 -0.9899  0.3997
 7503TIP3    H244001   1.046   1.750   4.159  0.9339  0.2336  2.3544
 7504TIP3   OH244002   5.286   6.145   3.213 -0.4829  0.4466  0.2186
 7504TIP3    H144003   5.361   6.190   3.253 -0.8041  1.0772  0.1093
 7504TIP3    H244004   5.283   6.060   3.259 -1.8124  1.7388  2.7249
 7505TIP3   OH244005   2.467   1.366   4.847  0.0699 -0.1159 -0.2695
 7505TIP3    H144006   2.474   1.282   4.802  0.8110 -0.7645  0.9999
 7505TIP3    H244007   2.539   1.366   4.910 -0.9155  0.7619  0.9050
 7506TIP3   OH244008   4.797   4.201   2.158  0.4157  0.3512 -0.6514
 7506TIP3    H144009   4.789   4.172   2.249 -1.1970  2.2112 -0.1474
 7506TIP3    H244010   4.731   4.151   2.111 -0.4905  1.1894 -0.2969
 7507TIP3   OH244011   6.139   5.466   3.852  0.2827 -0.4580 -1.2228
 7507TIP3    H144012   6.153   5.427   3.766  1.5393 -0.3753 -1.0789
 7507TIP3    H244013   6.152   5.560   3.838 -1.4608 -0.2110 -1.3167
 7508TIP3   OH244014   3.008   5.358   2.071 -0.1231  0.2159  0.4091
 7508TIP3    H144015   3.044   5.360   1.983  1.3835  1.5666  1.0140
 7508TIP3    H244016   2.921   5.319   2.061  1.0676 -2.2461 -1.2575
 7509TIP3   OH244017   0.466   5.420  15.275 -0.4905  0.4399 -0.7221
 7509TIP3    H144018   0.486   5.490  15.337 -1.5312  3.0013 -3.0597
 7509TIP3    H244019   0.371   5.422  15.267 -0.3885  0.1040 -2.2762
 7510TIP3   OH244020   4.621   1.287  12.588  0.2694 -0.0825 -0.3086
 7510TIP3    H144021   4.663   1.373  12.585  0.2657 -0.0469  0.4736
 7510TIP3    H244022   4.637   1.256  12.678  0.2520 -0.8856 -0.5789
 7511TIP3   OH244023   1.374   5.659   5.897  0.0547  0.1624 -0.6247
 7511TIP3    H144024   1.357   5.754   5.895 -2.2155 -0.2108 -0.9873
 7511TIP3    H244025   1.288   5.619   5.910  1.1058 -1.8369  0.7143
 7512TIP3   OH244026   6.508   5.629  11.571  0.3048  0.2335 -0.2143
 7512TIP3    H144027   6.471   5.541  11.560  0.0055  0.3894 -0.4498
 7512TIP3    H244028   6.551   5.648  11.488  0.5688  0.2191 -0.0837
 7513TIP3   OH244029   2.152   2.300  10.338  0.0117  0.2808  0.0566
 7513TIP3    H144030   2.213   2.363  10.299 -0.0738  0.0298 -0.4855
 7513TIP3    H244031   2.108   2.350  10.407 -0.9421  1.1966 -1.1655
 7514TIP3   OH244032   2.348   1.510   3.505 -0.7667  0.6578  0.0918
 7514TIP3    H144033   2.441   1.488   3.507 -0.7271  0.8159  1.6606
 7514TIP3    H244034   2.307   1.437   3.460 -0.1881 -0.8461  1.8728
 7515TIP3   OH244035   1.517   5.133   4.018  0.1366 -0.0510  0.5799
 7515TIP3    H144036   1.423   5.151   4.009  0.4446  1.2224 -0.4582
 7515TIP3    H244037   1.540   5.170   4.103 -0.1893  0.1814  0.5705
 7516TIP3   OH244038   0.524   2.873   6.542 -0.4828  0.1484  0.4497
 7516TIP3    H144039   0.611   2.850   6.510  0.3129  1.1583  1.7822
 7516TIP3    H244040   0.481   2.789   6.557 -0.2800 -0.3588 -1.5534
 7517TIP3   OH244041   3.321   1.105  13.273 -0.4974  0.1846  0.5550
 7517TIP3    H144042   3.237   1.147  13.293 -1.0455 -0.5607 -0.0976
 7517TIP3    H244043   3.296   1.021  13.234  0.5335  0.3984 -0.6123
 7518TIP3   OH244044   3.945   6.195  13.747 -0.1790  0.4470 -0.4401
 7518TIP3    H144045   3.996   6.238  13.816  0.0674 -1.3280  0.5282
 7518TIP3    H244046   3.854   6.217  13.767 -0.3200 -1.7446  1.7873
 7519TIP3   OH244047   1.673   4.110   0.300  0.6618  0.1347  0.8641
 7519TIP3    H144048   1.760   4.142   0.278  0.6078  0.3646  0.9811
 7519TIP3    H244049   1.613   4.167   0.252  0.4789  1.5927  2.6902
 7520TIP3   OH244050   6.029   4.931   3.470 -0.0248  0.1489 -0.5149
 7520TIP3    H144051   6.070   4.929   3.557  0.0745 -0.4784 -0.5712
 7520TIP3    H244052   5.941   4.897   3.485 -0.7607  2.0146 -0.2899
 7521TIP3   OH244053   5.152   1.390  11.752  0.7178 -0.0362 -0.0147
 7521TIP3    H144054   5.130   1.304  11.787  1.0704  0.1837  0.7552
 7521TIP3    H244055   5.247   1.391  11.745  0.7708  0.5648  0.7090
 7522TIP3   OH244056   4.569   1.651  14.528 -0.2596  0.6433 -0.4098
 7522TIP3    H144057   4.479   1.668  14.501 -0.4286  1.1326  0.3965
 7522TIP3    H244058   4.612   1.617  14.450 -1.3049 -0.2195 -0.6385
 7523TIP3   OH244059   2.963   3.584   4.664  0.3876 -0.1838 -0.0935
 7523TIP3    H144060   3.001   3.561   4.579 -1.4312  1.3345 -1.4058
 7523TIP3    H244061   2.868   3.578   4.650  0.0375 -1.0942  2.2245
 7524TIP3   OH244062   0.090   6.247  12.541 -0.0545 -0.3365 -0.2600
 7524TIP3    H144063   0.116   6.203  12.460 -0.1718 -3.0228  1.0441
 7524TIP3    H244064  -0.005   6.233  12.546 -0.1951  0.6537 -0.1323
 7525TIP3   OH244065   6.121   6.677  11.623  0.2713 -0.3891 -0.1805
 7525TIP3    H144066   6.172   6.758  11.617  0.7559 -0.3520  2.7907
 7525TIP3    H244067   6.033   6.706  11.645 -0.0036 -0.6378 -0.9189
 7526TIP3   OH244068   1.832   5.653   1.495 -0.1866  0.7079 -0.0719
 7526TIP3    H144069   1.817   5.719   1.563 -0.2394  0.9392 -0.3082
 7526TIP3    H244070   1.746   5.637   1.457  0.1238  1.9751 -1.3705
 7527TIP3   OH244071   1.960   0.202   1.562  0.2239 -0.0028  0.1733
 7527TIP3    H144072   1.947   0.115   1.599  1.3779  0.4247  1.6694
 7527TIP3    H244073   2.046   0.198   1.520 -0.9841 -0.4256 -2.4545
 7528TIP3   OH244074   2.400   6.093   2.658  0.8054 -0.2910 -0.2033
 7528TIP3    H144075   2.456   6.052   2.723 -0.5254 -0.0641  1.1553
 7528TIP3    H244076   2.355   6.019   2.616  0.5556 -0.3844  0.2149
 7529TIP3   OH244077   3.221   3.611  10.936 -0.0605 -0.5109 -0.0738
 7529TIP3    H144078   3.236   3.680  11.001 -1.4679  1.7887 -2.0173
 7529TIP3    H244079   3.301   3.610  10.884  0.6925 -1.7113  1.0245
 7530TIP3   OH244080   3.544   2.183   2.062 -0.7598 -0.2450  0.1933
 7530TIP3    H144081   3.567   2.190   1.969 -1.7170 -1.5341 -0.1778
 7530TIP3    H244082   3.465   2.235   2.072  0.6280  1.8569  0.8500
 7531TIP3   OH244083   1.549   5.494  12.285  0.0459 -0.0118  0.0366
 7531TIP3    H144084   1.591   5.412  12.261 -0.7528 -0.7500  1.0406
 7531TIP3    H244085   1.520   5.532  12.202 -1.7262 -1.9629 -0.3401
 7532TIP3   OH244086   2.332   5.487  14.913  0.1289 -0.2902  0.4802
 7532TIP3    H144087   2.406   5.499  14.972 -0.4077  1.2339  0.8881
 7532TIP3    H244088   2.288   5.408  14.945 -0.6948  0.9938  2.7552
 7533TIP3   OH244089   2.652   1.805   4.809 -0.7892  0.4555  0.1705
 7533TIP3    H144090   2.649   1.769   4.897  2.3084 -0.1484  0.1562
 7533TIP3    H244091   2.585   1.873   4.808 -1.0400  0.3514  2.9085
 7534TIP3   OH244092   0.672   6.582   0.490  0.0725 -0.6385  0.1774
 7534TIP3    H144093   0.622   6.662   0.473 -0.6879 -1.2649 -0.6137
 7534TIP3    H244094   0.743   6.610   0.549 -1.1916  0.2594  1.3263
 7535TIP3   OH244095   2.055   0.208   3.038 -0.2913  0.0686  0.0544
 7535TIP3    H144096   2.053   0.216   3.134 -0.2490 -0.1547  0.0736
 7535TIP3    H244097   2.044   0.114   3.022  2.2948 -0.2929 -0.0585
 7536TIP3   OH244098   1.371   6.086  12.430 -0.0319  0.1043 -0.0890
 7536TIP3    H144099   1.451   6.060  12.383  0.8004 -0.1861  1.4085
 7536TIP3    H244100   1.373   6.182  12.428  2.0685  0.2331  2.5168
 7537TIP3   OH244101   1.431   3.220  15.066  0.0397  0.7592  0.6603
 7537TIP3    H144102   1.409   3.308  15.098  2.3014  2.0516 -0.9412
 7537TIP3    H244103   1.464   3.236  14.977 -1.2221 -1.9806 -0.3957
 7538TIP3   OH244104   2.639   1.171   2.724  0.3104 -0.2648  0.8537
 7538TIP3    H144105   2.645   1.231   2.798 -1.0007 -0.0950  0.8333
 7538TIP3    H244106   2.596   1.222   2.655  0.1676 -0.8878  0.4789
 7539TIP3   OH244107   3.974   6.049   0.986  0.4054 -0.2469 -0.6726
 7539TIP3    H144108   4.017   6.126   1.023  1.3017 -0.3087 -1.5393
 7539TIP3    H244109   3.927   6.010   1.060 -1.1041  1.7995 -0.4704
 7540TIP3   OH244110   2.768   0.466   4.078 -0.0875 -0.0791  0.0573
 7540TIP3    H144111   2.695   0.410   4.053 -0.3627  0.1058  0.4518
 7540TIP3    H244112   2.743   0.554   4.048  0.2204 -0.1117 -0.3102
 7541TIP3   OH244113   1.048   6.580  14.416 -0.3392  0.5397 -0.1375
 7541TIP3    H144114   1.046   6.531  14.334  0.5170  1.4772 -0.7464
 7541TIP3    H244115   1.007   6.522  14.480 -0.5737 -0.4082 -1.1197
 7542TIP3   OH244116   1.742   4.667  14.725  0.4989 -0.0984 -0.0836
 7542TIP3    H144117   1.706   4.701  14.643  0.4869 -0.3530 -0.1855
 7542TIP3    H244118   1.747   4.572  14.711  0.1604 -0.1806  0.3440
 7543TIP3   OH244119   2.394   3.754  14.926  0.0477 -0.7116 -0.0576
 7543TIP3    H144120   2.373   3.818  14.858  1.4597 -1.0657 -0.8689
 7543TIP3    H244121   2.483   3.725  14.905  0.8879 -0.2090  2.4321
 7544TIP3   OH244122   4.149   1.258   1.763  0.3809  0.2321 -0.1766
 7544TIP3    H144123   4.178   1.309   1.687 -0.7703 -0.9036 -1.4524
 7544TIP3    H244124   4.054   1.253   1.753  0.4130 -1.8129  0.0919
 7545TIP3   OH244125   4.240   3.937   6.175 -0.3857  0.0382 -0.5404
 7545TIP3    H144126   4.288   3.864   6.215 -1.5457 -0.4950 -0.0750
 7545TIP3    H244127   4.237   4.004   6.243 -0.4641 -0.0074 -0.4983
 7546TIP3   OH244128   0.883   4.407   4.170  0.5612 -0.0598 -0.1598
 7546TIP3    H144129   0.904   4.326   4.125  1.1210  0.2716 -0.5010
 7546TIP3    H244130   0.795   4.392   4.205  0.3660 -0.5462 -0.8323
 7547TIP3   OH244131   1.802   0.786   3.945  0.2277  0.4481  0.2914
 7547TIP3    H144132   1.830   0.768   4.034 -1.8221 -0.9194  0.7279
 7547TIP3    H244133   1.713   0.820   3.954 -0.1480 -0.0379 -1.2248
 7548TIP3   OH244134   0.959   1.155  11.983 -0.1506 -0.2227 -0.4924
 7548TIP3    H144135   1.042   1.203  11.981 -0.2907  0.0264 -0.3682
 7548TIP3    H244136   0.899   1.214  12.028 -0.4319 -0.3471 -0.7091
 7549TIP3   OH244137   2.913   5.908  13.779 -0.1705 -0.2490  0.0087
 7549TIP3    H144138   2.892   5.837  13.839 -2.9372  0.9232  0.5743
 7549TIP3    H244139   2.877   5.986  13.821 -0.9434  0.8399 -2.4917
 7550TIP3   OH244140   6.317   0.846  13.922  0.2193 -0.5009  0.5855
 7550TIP3    H144141   6.314   0.801  13.837 -0.2966 -1.3446  1.0474
 7550TIP3    H244142   6.225   0.859  13.946  0.2894  2.0925 -0.1840
 7551TIP3   OH244143   5.575   4.283  14.958 -0.0388  0.4554 -0.5908
 7551TIP3    H144144   5.559   4.191  14.979  0.7707  0.5639  0.5753
 7551TIP3    H244145   5.496   4.311  14.912 -0.7234 -0.5542 -0.0642
 7552TIP3   OH244146   5.994   6.290  12.911 -0.6483  0.7862  0.2103
 7552TIP3    H144147   5.992   6.195  12.904  1.7398  0.6937 -0.2565
 7552TIP3    H244148   5.909   6.319  12.878 -0.3905 -1.0914 -2.4103
 7553TIP3   OH244149   4.781   0.652  14.734 -0.1405  0.8052 -0.7461
 7553TIP3    H144150   4.775   0.682  14.824  0.2076 -1.5955  0.1441
 7553TIP3    H244151   4.864   0.688  14.702  1.4072 -0.9686  1.0251
 7554TIP3   OH244152   2.973   5.154   0.264  0.5035  0.2015  0.8351
 7554TIP3    H144153   3.058   5.117   0.240  0.3138 -0.0254  0.4994
 7554TIP3    H244154   2.920   5.144   0.185 -0.4534 -1.4895  1.6326
 7555TIP3   OH244155   1.170   4.277   0.230 -0.3677  0.4901 -0.1454
 7555TIP3    H144156   1.150   4.300   0.139  1.3912 -0.1511 -0.7536
 7555TIP3    H244157   1.101   4.217   0.256  0.3849 -1.2925 -1.9458
 7556TIP3   OH244158   4.858   6.213   0.096 -0.0021 -0.1349 -0.6735
 7556TIP3    H144159   4.845   6.232   0.003  3.3728 -0.2333 -1.3094
 7556TIP3    H244160   4.887   6.122   0.099 -1.0078 -0.4464  0.6277
 7557TIP3   OH244161   6.551   1.113   1.276 -0.0575  0.8083 -0.3647
 7557TIP3    H144162   6.550   1.097   1.371  1.2959 -0.0072 -0.4603
 7557TIP3    H244163   6.642   1.100   1.251 -0.6942 -0.6939 -2.0827
 7558TIP3   OH244164   4.820   6.763   3.524  0.3298  0.2370  0.2892
 7558TIP3    H144165   4.741   6.714   3.501  0.1803  0.4277  0.3912
 7558TIP3    H244166   4.859   6.788   3.440  1.1938 -1.2951  0.2054
 7559TIP3   OH244167   6.635   2.760  11.902  0.3525  0.2211 -0.3211
 7559TIP3    H144168   6.711   2.789  11.851 -0.3103  0.4633 -1.1899
 7559TIP3    H244169   6.654   2.669  11.923  0.2969 -0.1186 -1.6775
 7560TIP3   OH244170   3.070   5.643  16.754 -0.0562 -0.0451 -0.2774
 7560TIP3    H144171   3.110   5.724  16.721 -0.5079  0.4215  0.2852
 7560TIP3    H244172   3.128   5.615  16.824 -0.0395 -0.0592 -0.2966
 7561TIP3   OH244173   6.438   3.492  13.270  0.3611 -0.0540 -0.3303
 7561TIP3    H144174   6.473   3.405  13.287  0.6997  0.4319  1.8625
 7561TIP3    H244175   6.512   3.541  13.233  0.2251 -0.6164 -1.3757
 7562TIP3   OH244176   0.030   6.408  16.975 -0.1814  0.2444 -0.2608
 7562TIP3    H144177   0.053   6.317  16.994  0.3353  0.4449  0.0600
 7562TIP3    H244178  -0.066   6.409  16.981 -0.1327 -0.0348  0.8387
 7563TIP3   OH244179   0.461   2.207  16.897  0.2775 -0.0989 -0.6553
 7563TIP3    H144180   0.549   2.241  16.879  0.6127 -0.0381  0.9570
 7563TIP3    H244181   0.456   2.203  16.992 -2.1774  1.7746 -0.6153
 7564TIP3   OH244182   0.844   0.066  15.861  0.3897 -0.3723  0.2201
 7564TIP3    H144183   0.805  -0.020  15.877 -1.2933  0.5397  1.2280
 7564TIP3    H244184   0.829   0.083  15.768 -2.2868  0.2247  0.6998
 7565TIP3   OH244185   5.297   0.622  17.009 -0.2546 -0.1989 -0.2416
 7565TIP3    H144186   5.294   0.599  17.102 -0.7387 -0.2140 -0.2560
 7565TIP3    H244187   5.371   0.573  16.974  0.4389  0.4281  0.2987
 7566TIP3   OH244188   4.179   0.033   0.914  0.3135 -0.6421  0.6871
 7566TIP3    H144189   4.230   0.007   0.991  2.5482  1.1478 -0.0911
 7566TIP3    H244190   4.207   0.122   0.895 -2.0631 -0.1027 -0.7254
 7567TIP3   OH244191   2.315   5.483  16.720 -0.2643  0.2172  0.1084
 7567TIP3    H144192   2.243   5.433  16.758 -0.7575  0.9721  0.2066
 7567TIP3    H244193   2.378   5.493  16.792 -0.3911  0.1583  0.2281
 7568TIP3   OH244194   3.254   0.368  16.394 -0.0278 -0.6767 -0.8703
 7568TIP3    H144195   3.260   0.312  16.317  1.4361 -0.9508 -0.5963
 7568TIP3    H244196   3.163   0.398  16.395 -0.4707 -1.8773 -1.8374
 7569TIP3   OH244197   3.801   5.767   2.205  0.5138 -0.3745 -0.4526
 7569TIP3    H144198   3.855   5.700   2.245 -0.3473 -0.6781  0.2262
 7569TIP3    H244199   3.801   5.840   2.267  0.8179 -0.0475 -0.8306
 7570TIP3   OH244200   4.871   2.267   0.891 -0.2633 -0.0432 -0.1649
 7570TIP3    H144201   4.839   2.262   0.801  1.0561  1.2233 -0.7543
 7570TIP3    H244202   4.920   2.186   0.903  0.1693  0.1055 -0.8582
 7571TIP3   OH244203   1.649   0.646  13.955 -0.0582 -0.2495 -0.1137
 7571TIP3    H144204   1.555   0.648  13.976 -0.3377 -0.7655 -1.2037
 7571TIP3    H244205   1.657   0.699  13.875  0.1152 -2.2836 -1.5398
 7572TIP3   OH244206   5.573   1.750  12.129  0.0277  0.1780  0.0290
 7572TIP3    H144207   5.552   1.748  12.222  1.1112 -1.6474  0.2774
 7572TIP3    H244208   5.488   1.749  12.085 -0.4841  0.4383  0.9865
 7573TIP3   OH244209   1.306   6.365   0.733  0.5663 -1.0154  0.0787
 7573TIP3    H144210   1.294   6.379   0.827  0.7512 -0.0528 -0.0324
 7573TIP3    H244211   1.379   6.422   0.709 -1.2417  0.9299 -1.1438
 7574TIP3   OH244212   1.110   0.736  15.005  0.8315 -0.1140 -0.2461
 7574TIP3    H144213   1.062   0.654  15.022  1.0714 -0.1270  0.4126
 7574TIP3    H244214   1.055   0.784  14.944 -0.5486  0.3182  1.2623
 7575TIP3   OH244215   3.138   1.692   3.017 -0.4225  0.1469  0.2306
 7575TIP3    H144216   3.205   1.757   2.998 -1.2915  0.6637 -1.2961
 7575TIP3    H244217   3.057   1.743   3.026 -1.2021 -0.7025 -1.4355
 7576TIP3   OH244218   3.509   3.828   3.714  0.1420 -0.8033  0.8714
 7576TIP3    H144219   3.515   3.732   3.711 -1.7457 -0.9934  1.9165
 7576TIP3    H244220   3.574   3.858   3.650  1.0933 -2.7557  0.8525
 7577TIP3   OH244221   6.304   1.063  15.147 -0.9108 -0.3062  0.3282
 7577TIP3    H144222   6.238   1.031  15.208 -0.6196 -0.3476  0.6224
 7577TIP3    H244223   6.357   1.124  15.198 -2.2876  1.7382 -0.5506
 7578TIP3   OH244224   6.302   3.016   4.900 -0.3118 -0.0955  0.0469
 7578TIP3    H144225   6.213   3.051   4.902 -0.0020  0.6650  0.9646
 7578TIP3    H244226   6.356   3.085   4.937  0.1188 -2.0263  3.5061
 7579TIP3   OH244227   3.572   5.597   5.676  0.1775 -0.2657  0.8124
 7579TIP3    H144228   3.662   5.579   5.646  0.9163 -0.0434  2.7414
 7579TIP3    H244229   3.562   5.542   5.753 -1.1230  0.2169  1.0027
 7580TIP3   OH244230   6.486   5.262   0.291  0.2722 -0.1947 -0.3042
 7580TIP3    H144231   6.498   5.319   0.215  1.0799  0.0720  0.0177
 7580TIP3    H244232   6.454   5.321   0.360 -0.0915 -0.3677 -0.3208
 7581TIP3   OH244233   0.050   6.200  14.847  0.0764 -0.0106  0.4599
 7581TIP3    H144234   0.119   6.236  14.903  0.8620 -1.2647  0.3343
 7581TIP3    H244235   0.072   6.107  14.840 -0.6042 -0.0712 -1.0712
 7582TIP3   OH244236   1.096   0.644   3.782  0.1984  0.0797  0.6171
 7582TIP3    H144237   1.076   0.573   3.843  0.1012  0.7461  1.3758
 7582TIP3    H244238   1.192   0.650   3.782  0.1566  1.1779  2.0177
 7583TIP3   OH244239   1.244   6.199   1.623  0.0297  0.0768 -0.7396
 7583TIP3    H144240   1.261   6.262   1.694  0.8111 -1.2615  0.3115
 7583TIP3    H244241   1.207   6.123   1.667  1.8632 -1.3586 -1.5273
 7584TIP3   OH244242   3.094   5.425   1.814  0.0073  0.0043 -0.2618
 7584TIP3    H144243   3.168   5.393   1.763  0.7824 -0.2168  0.9511
 7584TIP3    H244244   3.016   5.395   1.766  0.6984 -0.2982 -1.2223
 7585TIP3   OH244245   5.113   3.051  15.170  0.4737 -0.0404  0.3108
 7585TIP3    H144246   5.112   2.958  15.147 -0.8164 -0.0590  0.3807
 7585TIP3    H244247   5.114   3.097  15.085  1.1274 -0.1039  0.2772
 7586TIP3   OH244248   1.282   3.740  15.287 -0.4002 -0.4002 -0.7447
 7586TIP3    H144249   1.344   3.811  15.269  0.8307 -1.4174 -0.6427
 7586TIP3    H244250   1.262   3.703  15.201 -1.9053  0.7307 -0.9208
 7587TIP3   OH244251   5.383   5.315  12.717 -0.4689 -0.0099 -0.5175
 7587TIP3    H144252   5.471   5.353  12.705 -0.6064 -0.2213 -2.5556
 7587TIP3    H244253   5.323   5.385  12.691 -0.8650 -0.3101 -0.4233
 7588TIP3   OH244254   5.139   0.208   2.841  0.5298 -0.3858 -0.4123
 7588TIP3    H144255   5.055   0.228   2.884  0.4636 -2.5121  0.5943
 7588TIP3    H244256   5.177   0.294   2.821 -1.4710  0.6370 -0.0885
 7589TIP3   OH244257   4.780   2.113   1.750  0.1231  0.6860  0.0678
 7589TIP3    H144258   4.779   2.112   1.655 -1.8339 -0.8016  0.0419
 7589TIP3    H244259   4.710   2.174   1.774 -0.9156 -0.6238  0.4919
 7590TIP3   OH244260   4.454   4.675   3.462  0.0206  0.2812  0.0071
 7590TIP3    H144261   4.542   4.655   3.496 -0.2348 -0.1282  0.4340
 7590TIP3    H244262   4.399   4.605   3.496  0.1449 -1.4890 -3.0922
 7591TIP3   OH244263   3.156   1.234   0.519  0.0602 -0.1450  0.2370
 7591TIP3    H144264   3.110   1.303   0.567 -1.1860 -0.2170 -0.7879
 7591TIP3    H244265   3.104   1.222   0.439  0.3378 -2.1467  0.2975
 7592TIP3   OH244266   4.870   3.462  17.064  0.2228  0.4662  0.5246
 7592TIP3    H144267   4.935   3.450  17.134  1.4486  2.1176 -0.2727
 7592TIP3    H244268   4.840   3.552  17.075 -1.0958  0.0885  0.1599
 7593TIP3   OH244269   1.012   5.282  16.630 -0.7871  0.7428 -0.4078
 7593TIP3    H144270   1.007   5.268  16.724  1.6610 -1.7440 -0.5108
 7593TIP3    H244271   1.069   5.358  16.620  1.7794 -0.9790  0.2056
 7594TIP3   OH244272   6.468   1.199  13.048  0.0303  0.7736  0.3174
 7594TIP3    H144273   6.517   1.269  13.093  1.6535  1.6228 -2.5373
 7594TIP3    H244274   6.533   1.158  12.990 -2.2226  0.8335 -2.4271
 7595TIP3   OH244275   4.486   1.945  14.909  0.4181  0.1941 -0.7000
 7595TIP3    H144276   4.466   1.976  14.997  1.2123  1.0345 -0.7985
 7595TIP3    H244277   4.448   1.857  14.905  2.7670 -1.0896  1.4814
 7596TIP3   OH244278   5.792   0.308  11.594 -0.2225  0.0981 -0.1543
 7596TIP3    H144279   5.727   0.373  11.567 -0.5040  0.0717  0.4385
 7596TIP3    H244280   5.801   0.320  11.688  0.4754 -0.0514 -0.1958
 7597TIP3   OH244281   3.342   2.224  15.190  0.0748 -0.3988 -0.2771
 7597TIP3    H144282   3.357   2.230  15.095 -0.4778  2.7327 -0.2681
 7597TIP3    H244283   3.247   2.235  15.200  0.2371  0.2356  0.6612
 7598TIP3   OH244284   6.579   2.094   0.215 -0.8931 -0.2194 -0.8733
 7598TIP3    H144285   6.642   2.166   0.206 -0.3996 -0.4554  0.4533
 7598TIP3    H244286   6.495   2.132   0.189 -0.5351  0.6676 -0.7647
 7599TIP3   OH244287   2.695   0.138   2.033  0.2644 -0.6955 -0.5366
 7599TIP3    H144288   2.676   0.087   2.112  0.0364 -2.4883 -1.6892
 7599TIP3    H244289   2.617   0.191   2.019 -0.2821 -1.4169 -0.3156
 7600TIP3   OH244290   4.215   6.272   5.193  0.5190 -0.3626 -0.0550
 7600TIP3    H144291   4.292   6.272   5.135  0.7511 -1.0512  0.2374
 7600TIP3    H244292   4.140   6.273   5.133  0.7500 -1.8409 -0.4151
 7601TIP3   OH244293   4.570   1.729  11.311  0.1156  0.7002  0.1270
 7601TIP3    H144294   4.484   1.732  11.267  0.7612  1.7730 -1.1638
 7601TIP3    H244295   4.607   1.645  11.285 -0.4606  0.3013  0.5583
 7602TIP3   OH244296   5.852   3.813   1.788  0.2285  0.2996  0.0588
 7602TIP3    H144297   5.810   3.747   1.732  1.1978 -1.5240  1.3750
 7602TIP3    H244298   5.779   3.859   1.829 -0.4809 -0.0926 -0.7232
 7603TIP3   OH244299   1.591   0.545   5.112  0.2316 -0.5513  0.2017
 7603TIP3    H144300   1.560   0.467   5.065 -0.8268 -0.5774  0.8978
 7603TIP3    H244301   1.544   0.542   5.196 -0.0922  1.0205  0.1061
 7604TIP3   OH244302   6.195   4.205   5.202 -0.3720  0.3489 -0.3489
 7604TIP3    H144303   6.270   4.185   5.146  1.3107  0.9564  1.5880
 7604TIP3    H244304   6.221   4.282   5.251 -1.7894 -0.1177  1.2462
 7605TIP3   OH244305   4.782   2.389  14.153 -0.1184  0.0722  0.2177
 7605TIP3    H144306   4.715   2.456  14.139 -0.6595 -0.7734 -1.6362
 7605TIP3    H244307   4.861   2.427  14.115 -0.1000  0.1877  0.3707
 7606TIP3   OH244308   6.310   3.680   0.894 -0.0770  0.7236  0.6675
 7606TIP3    H144309   6.309   3.651   0.803 -0.2275  0.1422  0.8542
 7606TIP3    H244310   6.385   3.739   0.900 -0.3628  1.1661  0.0447
 7607TIP3   OH244311   4.327   5.018   3.184  0.1599  0.6463  0.2040
 7607TIP3    H144312   4.390   5.032   3.254  1.9790 -1.6938 -0.8215
 7607TIP3    H244313   4.361   4.943   3.135 -3.7895 -1.2725 -0.0244
 7608TIP3   OH244314   4.434   2.463   2.989  0.1318 -0.4507  0.0575
 7608TIP3    H144315   4.386   2.416   2.920 -1.1927  0.7476  0.1252
 7608TIP3    H244316   4.482   2.531   2.942 -0.6285  0.2517  0.2726
 7609TIP3   OH244317   6.577   0.057   3.578  0.3326 -0.0019 -0.4988
 7609TIP3    H144318   6.510   0.051   3.646 -1.3964  1.2896 -2.0031
 7609TIP3    H244319   6.647   0.109   3.617  0.3403 -1.0469  0.9687
 7610TIP3   OH244320   1.333   3.035   2.264  0.3375  0.6590 -0.1190
 7610TIP3    H144321   1.353   2.962   2.207 -1.0609 -0.9435  1.3253
 7610TIP3    H244322   1.416   3.082   2.274  1.1817 -0.5111 -1.3429
 7611TIP3   OH244323   5.874   1.656   5.184  0.5088  0.4629 -0.1435
 7611TIP3    H144324   5.908   1.657   5.273 -0.1887 -0.1529  0.1398
 7611TIP3    H244325   5.884   1.566   5.155 -0.8726  0.2401 -0.0319
 7612TIP3   OH244326   4.723   2.018   2.600 -0.0588  0.0795  0.1337
 7612TIP3    H144327   4.786   2.031   2.529 -0.3180 -0.1541 -0.1400
 7612TIP3    H244328   4.754   1.940   2.646  0.6683  0.7918  0.8871
 7613TIP3   OH244329   1.345   2.773   1.654  0.0197 -0.4238 -0.4086
 7613TIP3    H144330   1.302   2.844   1.605  0.2252 -0.0847 -0.1090
 7613TIP3    H244331   1.437   2.799   1.658 -0.0893 -0.1683  0.6174
 7614TIP3   OH244332   0.249   4.266   5.549  0.1771 -0.1159 -0.2446
 7614TIP3    H144333   0.240   4.340   5.489  0.4918  0.0290 -0.1158
 7614TIP3    H244334   0.305   4.299   5.619 -0.0752 -0.3277  0.0585
 7615TIP3   OH244335   4.049   4.364   4.809 -0.0643 -0.3130 -0.4624
 7615TIP3    H144336   4.114   4.405   4.751  0.1280  0.0044 -0.0325
 7615TIP3    H244337   4.102   4.320   4.876 -0.2770 -0.9933 -0.7311
 7616TIP3   OH244338   3.601   6.268  15.845  0.0761  0.2967  0.6052
 7616TIP3    H144339   3.519   6.302  15.808 -0.4445 -0.0618  1.4184
 7616TIP3    H244340   3.579   6.181  15.878  0.6462  0.4245  1.3418
 7617TIP3   OH244341   1.063   5.495   2.945  0.0538  0.5321 -0.8633
 7617TIP3    H144342   1.131   5.498   3.013 -0.1556 -1.3679 -0.5344
 7617TIP3    H244343   1.029   5.584   2.942 -0.8692  0.4200  2.5015
 7618TIP3   OH244344   3.280   6.582  16.744  0.3175  0.3878 -0.1589
 7618TIP3    H144345   3.352   6.553  16.800 -0.5149 -0.4584  0.4889
 7618TIP3    H244346   3.247   6.661  16.786  1.0249  0.9314 -0.6027
 7619TIP3   OH244347   3.561   6.767  12.389  0.1173 -0.0424  0.0038
 7619TIP3    H144348   3.649   6.775  12.427  0.2011  0.7550 -0.3268
 7619TIP3    H244349   3.506   6.821  12.445 -0.0880 -0.2529  0.0019
 7620TIP3   OH244350   0.470   4.001  14.163 -0.0697  0.4953  0.5172
 7620TIP3    H144351   0.535   3.936  14.188 -0.4817 -0.3127 -0.4634
 7620TIP3    H244352   0.522   4.077  14.136  0.4134  0.5323  1.5125
 7621TIP3   OH244353   2.554   6.535  11.297  0.0458  0.1083 -0.1796
 7621TIP3    H144354   2.484   6.575  11.245  0.0413 -0.0583 -0.3054
 7621TIP3    H244355   2.600   6.608  11.337 -1.0479  0.1871  1.0075
 7622TIP3   OH244356   2.763   1.940  12.031  0.0663 -0.3589  0.5003
 7622TIP3    H144357   2.838   1.902  12.078  1.8382  0.4294 -1.5033
 7622TIP3    H244358   2.748   2.024  12.073  2.4562  0.9116 -0.9538
 7623TIP3   OH244359   2.237   1.519   3.806 -0.3809  0.3426  0.3820
 7623TIP3    H144360   2.171   1.528   3.737  0.6474 -1.2712 -0.8854
 7623TIP3    H244361   2.275   1.432   3.792  3.0671  1.7319  0.0358
 7624TIP3   OH244362   0.058   2.209  15.900 -0.2792 -0.3041  0.3330
 7624TIP3    H144363   0.071   2.271  15.828 -2.7640 -1.3843 -1.1732
 7624TIP3    H244364   0.086   2.125  15.864 -1.5329 -0.8512  0.5958
 7625TIP3   OH244365   3.863   4.041  15.212 -0.0169 -0.6473  0.5060
 7625TIP3    H144366   3.841   4.132  15.232  0.2425 -0.2737 -0.7945
 7625TIP3    H244367   3.793   3.990  15.253  1.0421 -0.0775  3.2303
 7626TIP3   OH244368   4.592   0.393   1.291  0.0019 -0.3398  0.2033
 7626TIP3    H144369   4.560   0.432   1.210 -0.6375 -2.0269 -0.3729
 7626TIP3    H244370   4.573   0.300   1.283  1.3618 -0.7821  1.6146
 7627TIP3   OH244371   2.736   4.232   6.514  0.0429  0.5996  0.7008
 7627TIP3    H144372   2.826   4.236   6.481  0.2867  0.5060  1.3228
 7627TIP3    H244373   2.694   4.310   6.480  0.6935  1.2431  1.3250
 7628TIP3   OH244374   1.032   0.699   2.147 -0.7473  0.1669  0.0094
 7628TIP3    H144375   0.995   0.720   2.233 -0.3260  3.0491 -0.4081
 7628TIP3    H244376   1.120   0.737   2.150  0.0952 -1.5937 -0.9919
 7629TIP3   OH244377   5.224   4.006  11.333  0.4359 -0.1498 -0.0140
 7629TIP3    H144378   5.143   3.969  11.299  1.2352  0.2781 -2.5735
 7629TIP3    H244379   5.244   4.079  11.276  1.4534  1.2512  1.9880
 7630TIP3   OH244380   6.837   6.765  14.570 -0.4215 -0.3095  0.1075
 7630TIP3    H144381   6.928   6.765  14.597 -0.4838 -0.8682  0.3270
 7630TIP3    H244382   6.840   6.759  14.474 -0.2079  1.3673 -0.0150
 7631TIP3   OH244383   0.700   2.012  15.100  0.1678 -0.4001 -0.7205
 7631TIP3    H144384   0.757   1.989  15.173  0.9684 -2.6936 -1.9856
 7631TIP3    H244385   0.759   2.031  15.027 -0.6433  0.2800 -1.2293
 7632TIP3   OH244386   2.845   5.266  12.595  0.2716  0.4149 -0.0855
 7632TIP3    H144387   2.817   5.347  12.551  2.4603  2.0508  1.2789
 7632TIP3    H244388   2.887   5.215  12.526 -1.3712  0.2808 -1.0290
 7633TIP3   OH244389   0.650   4.392   0.101 -0.0585  0.0429 -0.1768
 7633TIP3    H144390   0.620   4.477   0.133  1.3777  0.6641 -0.3811
 7633TIP3    H244391   0.637   4.396   0.006 -1.2298 -0.5037 -0.0535
 7634TIP3   OH244392   1.508   2.650  14.462 -0.2995  0.1903  0.5218
 7634TIP3    H144393   1.602   2.668  14.461 -0.7466  3.5655  2.8616
 7634TIP3    H244394   1.489   2.621  14.551 -1.3197 -2.1016 -0.3738
 7635TIP3   OH244395   4.447   1.325  16.130  0.1471 -0.1418  0.3577
 7635TIP3    H144396   4.378   1.316  16.064  0.6560  0.2721 -0.2488
 7635TIP3    H244397   4.517   1.268  16.099  1.1459  1.4736 -0.5081
 7636TIP3   OH244398   0.510   3.522  13.206  0.2541  0.0532 -0.7340
 7636TIP3    H144399   0.434   3.539  13.150 -0.7836 -0.1851  0.5393
 7636TIP3    H244400   0.581   3.573  13.168 -1.1196  2.1185 -0.6817
 7637TIP3   OH244401   1.637   2.208   1.783  0.1902  0.3542 -0.5574
 7637TIP3    H144402   1.590   2.128   1.809 -0.9933  0.8976 -0.9389
 7637TIP3    H244403   1.571   2.260   1.738  1.6626  0.3320 -2.8653
 7638TIP3   OH244404   3.585   3.164   4.367 -0.6067  0.2161  0.1233
 7638TIP3    H144405   3.647   3.162   4.294 -0.2613  0.3627  0.4094
 7638TIP3    H244406   3.640   3.179   4.444 -0.8227 -1.2642  0.5802
 7639TIP3   OH244407   1.339   3.518   2.458 -0.8343 -0.0263 -0.3187
 7639TIP3    H144408   1.401   3.495   2.389  1.5542  0.5424  1.5256
 7639TIP3    H244409   1.315   3.434   2.497  1.2423 -0.1069  0.9161
 7640TIP3   OH244410   4.155   0.079  11.575  0.1604 -0.4871 -0.2208
 7640TIP3    H144411   4.203   0.082  11.493  1.9169 -1.3945  0.7239
 7640TIP3    H244412   4.221   0.060  11.641 -0.8759  1.8523  1.6707
 7641TIP3   OH244413   5.756   6.676  15.943 -0.0711  0.0991 -0.2468
 7641TIP3    H144414   5.714   6.613  16.001  0.0561  0.5376  0.3292
 7641TIP3    H244415   5.793   6.623  15.873  0.0744 -0.4752  0.2557
 7642TIP3   OH244416   6.077   6.124  14.069 -0.1064 -0.2608 -0.0007
 7642TIP3    H144417   6.104   6.032  14.073  0.4511 -0.1274 -0.5574
 7642TIP3    H244418   6.092   6.149  13.978 -0.8121  0.2199  0.0109
 7643TIP3   OH244419   4.938   4.573  15.964 -0.1197 -0.0309 -0.2027
 7643TIP3    H144420   4.893   4.651  15.996  0.0914 -0.7297  2.0368
 7643TIP3    H244421   4.969   4.529  16.044  1.2014 -1.5490 -1.4656
 7644TIP3   OH244422   6.742   4.211   2.988  0.1270  0.1490  0.2327
 7644TIP3    H144423   6.720   4.120   3.008  1.0468 -0.9290 -3.0488
 7644TIP3    H244424   6.672   4.241   2.930  0.5810  1.0106  0.1121
 7645TIP3   OH244425   4.291   6.414   2.066 -0.0209  0.1898  0.1148
 7645TIP3    H144426   4.267   6.476   2.135  0.7913  1.1968 -0.4889
 7645TIP3    H244427   4.224   6.427   1.998 -0.3845 -0.2666  0.3792
 7646TIP3   OH244428   0.892   2.536  11.439 -0.2809 -0.3308  0.1951
 7646TIP3    H144429   0.902   2.599  11.367 -0.5581  1.2056  1.4378
 7646TIP3    H244430   0.981   2.513  11.464  0.1120  2.9483  2.4848
 7647TIP3   OH244431   5.637   1.010   4.046  0.4852  0.1817  0.2265
 7647TIP3    H144432   5.671   0.937   3.995  0.6426 -0.6761  1.5033
 7647TIP3    H244433   5.549   1.024   4.012  0.1221 -1.2001  0.5199
 7648TIP3   OH244434   1.091   6.554  15.688 -0.2510 -0.4494  0.6352
 7648TIP3    H144435   1.082   6.639  15.732 -1.3119  0.9623 -2.0997
 7648TIP3    H244436   1.183   6.551  15.660 -0.2899 -0.0266  0.4485
 7649TIP3   OH244437   4.562   6.271  17.067  0.1046 -0.4154 -0.1137
 7649TIP3    H144438   4.489   6.278  17.127 -1.8549  2.3518 -2.5128
 7649TIP3    H244439   4.572   6.360  17.031  1.1893 -1.7961 -3.6620
 7650TIP3   OH244440   4.535   3.857  13.945  0.2728  0.0498 -0.3302
 7650TIP3    H144441   4.483   3.890  14.019 -2.2767 -0.6516 -1.6760
 7650TIP3    H244442   4.606   3.921  13.936 -0.1691  0.9470  1.7834
 7651TIP3   OH244443   3.320   0.386   0.221  0.2757  0.7034  0.1155
 7651TIP3    H144444   3.263   0.397   0.297  0.6428  1.3210  0.3019
 7651TIP3    H244445   3.407   0.370   0.257 -0.0122 -1.9757 -0.1266
 7652TIP3   OH244446   2.344   1.232   4.209  0.3771 -0.8176  0.2219
 7652TIP3    H144447   2.408   1.198   4.147  2.4083  3.0655 -0.1573
 7652TIP3    H244448   2.259   1.219   4.165  1.3693 -1.7344 -1.5379
 7653TIP3   OH244449   4.587   0.007  12.212  0.1456 -0.9079 -0.4625
 7653TIP3    H144450   4.637  -0.004  12.293  0.2946 -0.1455 -0.4368
 7653TIP3    H244451   4.554  -0.080  12.191 -1.2634 -0.8417  1.3035
 7654TIP3   OH244452   4.673   1.293   4.047 -0.1261 -0.7701  0.1115
 7654TIP3    H144453   4.634   1.298   4.135  0.2663 -1.2018  0.3106
 7654TIP3    H244454   4.607   1.333   3.990 -0.8915 -1.5184  0.4430
 7655TIP3   OH244455   5.759   1.747   1.128  0.4656  0.7767 -0.0911
 7655TIP3    H144456   5.728   1.831   1.161 -0.5071  0.6543 -0.6389
 7655TIP3    H244457   5.700   1.683   1.168  2.5549  0.0851  2.1023
 7656TIP3   OH244458   1.458   1.580   1.804  0.2278 -0.3709  0.0517
 7656TIP3    H144459   1.378   1.629   1.785  0.6309  0.3788  0.2485
 7656TIP3    H244460   1.505   1.634   1.868 -0.1592 -1.8775  1.6693
 7657TIP3   OH244461   2.647   0.961  12.423 -0.1883 -0.6273  0.1807
 7657TIP3    H144462   2.669   0.996  12.336  0.1878 -1.5175 -0.0957
 7657TIP3    H244463   2.563   0.916  12.410 -0.0036 -0.9842  0.2160
 7658TIP3   OH244464   3.201   2.360   0.577 -0.4898 -0.3422  0.5591
 7658TIP3    H144465   3.281   2.412   0.580  0.3317 -1.1541 -2.9452
 7658TIP3    H244466   3.140   2.411   0.524 -1.1687 -1.1340  0.5404
 7659TIP3   OH244467   1.985   5.410  16.583 -0.2829 -0.0965  0.1197
 7659TIP3    H144468   1.905   5.453  16.614 -1.3439 -0.9848 -1.2464
 7659TIP3    H244469   2.029   5.380  16.662 -1.8323 -0.4783  0.8743
 7660TIP3   OH244470   0.691   2.541  14.105  0.0922 -0.0325  0.2073
 7660TIP3    H144471   0.696   2.633  14.076  3.0471  0.0822  0.7593
 7660TIP3    H244472   0.695   2.490  14.024  0.4055  0.3361 -0.0153
 7661TIP3   OH244473   2.076   4.529   3.469 -0.1910  0.3915  0.2751
 7661TIP3    H144474   2.057   4.470   3.397  0.3406 -0.4654  0.8117
 7661TIP3    H244475   2.171   4.533   3.472 -0.2078  0.4402  0.9021
 7662TIP3   OH244476   2.459   1.120  14.273 -0.2623  0.1112 -0.3106
 7662TIP3    H144477   2.385   1.111  14.213  0.5537  1.1996 -1.5356
 7662TIP3    H244478   2.463   1.214  14.291 -0.2406 -0.1492  1.1590
 7663TIP3   OH244479   2.321   3.643   2.543 -0.2782  0.5387  0.1299
 7663TIP3    H144480   2.247   3.690   2.505 -0.1386  1.1201  0.5640
 7663TIP3    H244481   2.282   3.593   2.616 -0.4413 -0.0993 -0.3866
 7664TIP3   OH244482   3.374   1.782  15.064  0.1908 -0.7409  0.2640
 7664TIP3    H144483   3.344   1.849  15.126  0.8393 -0.5415  0.3665
 7664TIP3    H244484   3.303   1.717  15.063 -0.5244  0.0125  0.0488
 7665TIP3   OH244485   3.470   2.254  11.550 -0.3212 -0.4690  0.2860
 7665TIP3    H144486   3.410   2.321  11.582  1.6667  2.0059 -0.8060
 7665TIP3    H244487   3.427   2.216  11.474 -2.3953 -2.0565  2.1161
 7666TIP3   OH244488   2.415   0.810  16.846  0.3252  0.3567  0.0162
 7666TIP3    H144489   2.426   0.722  16.883 -0.0316  0.4576  0.3792
 7666TIP3    H244490   2.402   0.866  16.923 -1.2798  0.4442 -0.2737
 7667TIP3   OH244491   6.100   0.951   2.968  0.5922 -0.2734 -0.1511
 7667TIP3    H144492   6.092   0.859   2.993  1.9576 -0.4684 -0.3777
 7667TIP3    H244493   6.163   0.951   2.896  2.6014  1.0882  1.4860
 7668TIP3   OH244494   0.833   4.015  14.215 -0.1601  0.0724  0.1326
 7668TIP3    H144495   0.797   4.005  14.126 -0.0047 -1.7933  0.2417
 7668TIP3    H244496   0.778   3.959  14.269  0.6502  0.0577  0.9576
 7669TIP3   OH244497   5.706   6.375  15.738 -0.3245  0.5714  0.2947
 7669TIP3    H144498   5.796   6.343  15.745 -0.5018  0.0159  0.1224
 7669TIP3    H244499   5.714   6.469  15.722  0.1871  0.8586  2.0568
 7670TIP3   OH244500   5.710   1.703  14.494 -0.2038 -0.1555 -0.0863
 7670TIP3    H144501   5.661   1.694  14.576 -0.0828 -1.0513 -0.0979
 7670TIP3    H244502   5.759   1.785  14.504 -0.3291 -0.1664  0.6657
 7671TIP3   OH244503   0.235   4.469  11.975  0.3120  1.1609  0.0737
 7671TIP3    H144504   0.234   4.384  12.019 -0.5450  0.0987 -1.8712
 7671TIP3    H244505   0.263   4.530  12.042 -2.5129 -0.0577  2.6105
 7672TIP3   OH244506   6.806   3.202  14.389 -0.2715  0.1833 -0.0994
 7672TIP3    H144507   6.726   3.232  14.347 -0.4198 -1.3704 -0.9982
 7672TIP3    H244508   6.792   3.109  14.406  0.6579  0.2675  1.3995
 7673TIP3   OH244509   4.628   1.461  14.333 -0.1157  0.0365 -0.1206
 7673TIP3    H144510   4.630   1.366  14.324  0.6340  0.0651 -0.3313
 7673TIP3    H244511   4.703   1.491  14.282  0.0114  0.7002  0.4415
 7674TIP3   OH244512   3.787   5.432   0.860  0.3271  0.5760  0.3336
 7674TIP3    H144513   3.727   5.370   0.817  0.4878 -0.4700  1.5471
 7674TIP3    H244514   3.766   5.516   0.820  0.7096 -0.3628 -2.0484
 7675TIP3   OH244515   2.968   4.097   2.937  0.1016 -0.4699  0.2669
 7675TIP3    H144516   3.038   4.032   2.937  1.7999  1.2406  1.4455
 7675TIP3    H244517   2.903   4.061   2.997  1.2704 -0.8476  1.3527
 7676TIP3   OH244518   6.629   5.590  15.616 -0.1687 -0.2895  0.0071
 7676TIP3    H144519   6.637   5.652  15.688 -0.8965 -1.2564  0.9397
 7676TIP3    H244520   6.537   5.565  15.615  0.0616 -1.1719 -0.5131
 7677TIP3   OH244521   5.928   1.246  14.889 -0.1496 -0.2245 -0.4603
 7677TIP3    H144522   5.888   1.316  14.939  0.0309 -1.5270  1.6430
 7677TIP3    H244523   5.867   1.229  14.818 -0.5989  1.4659 -0.5073
 7678TIP3   OH244524   5.233   2.635   5.017  0.2104 -0.1559 -0.4408
 7678TIP3    H144525   5.234   2.542   5.041 -0.2464  0.1393  0.8033
 7678TIP3    H244526   5.220   2.635   4.922 -2.5479 -1.3586 -0.1728
 7679TIP3   OH244527   1.323   0.591  14.958 -0.0235 -0.4270 -0.1140
 7679TIP3    H144528   1.332   0.553  14.870  0.2892 -0.7663  0.0605
 7679TIP3    H244529   1.260   0.663  14.947 -0.1540 -0.6069 -0.5712
 7680TIP3   OH244530   6.518   0.937  13.513  0.3735 -0.3362 -0.1680
 7680TIP3    H144531   6.487   1.001  13.448  1.4703  1.3046  0.8562
 7680TIP3    H244532   6.439   0.909  13.558 -0.1050  0.6335 -0.3627
 7681TIP3   OH244533   5.798   0.331  12.354  0.2840  0.2980  0.2119
 7681TIP3    H144534   5.731   0.279  12.310  0.6983  0.6786 -0.8868
 7681TIP3    H244535   5.879   0.314  12.305  0.8054  0.5923  0.9358
 7682TIP3   OH244536   2.127   5.612   3.621 -0.1364 -0.6076 -0.3089
 7682TIP3    H144537   2.182   5.678   3.579  2.2320 -1.5940  1.0341
 7682TIP3    H244538   2.096   5.654   3.701  0.2563 -0.6550 -0.1272
 7683TIP3   OH244539   0.488   5.568   3.218 -0.2919 -0.2694  0.2648
 7683TIP3    H144540   0.563   5.509   3.216 -0.8886 -1.0324 -0.6689
 7683TIP3    H244541   0.414   5.513   3.190 -0.8471  0.9358 -0.7303
 7684TIP3   OH244542   1.283   0.867  12.095 -0.6651 -0.4447 -0.6671
 7684TIP3    H144543   1.286   0.961  12.109 -0.0910 -0.2682 -1.8326
 7684TIP3    H244544   1.278   0.829  12.183 -0.9494  0.6669 -0.1925
 7685TIP3   OH244545   3.102   3.293   3.335 -0.1009  0.1895  0.0841
 7685TIP3    H144546   3.016   3.322   3.306  0.9901  2.0626 -1.5877
 7685TIP3    H244547   3.142   3.255   3.257  0.1649 -1.8727  1.1583
 7686TIP3   OH244548   3.271   2.476   5.421 -0.2572 -0.5678  0.2681
 7686TIP3    H144549   3.271   2.423   5.342 -2.6398  0.8654 -0.7908
 7686TIP3    H244550   3.183   2.466   5.457 -0.4492  1.7802  0.6064
 7687TIP3   OH244551   0.697   3.532  14.845  0.5052  0.1449 -0.5920
 7687TIP3    H144552   0.634   3.460  14.847  0.3394  0.2888 -0.6126
 7687TIP3    H244553   0.649   3.606  14.807  1.1588 -0.2088 -2.2262
 7688TIP3   OH244554   2.002   4.418  11.296 -0.0194 -0.4072 -0.2249
 7688TIP3    H144555   1.971   4.399  11.207 -0.1510 -0.5068 -0.1584
 7688TIP3    H244556   2.097   4.408  11.290  0.0331  0.2085 -0.5027
 7689TIP3   OH244557   5.717   3.215   1.695  0.0890  0.1651  0.2642
 7689TIP3    H144558   5.702   3.154   1.623 -2.0115 -1.0298  1.6152
 7689TIP3    H244559   5.810   3.205   1.716  0.3438 -0.7055 -1.1532
 7690TIP3   OH244560   5.246   0.444   3.057  0.5856  0.6820 -0.3395
 7690TIP3    H144561   5.271   0.384   3.128 -0.1730  1.0048  0.2190
 7690TIP3    H244562   5.217   0.523   3.103 -1.8696  0.1884 -0.8890
 7691TIP3   OH244563   3.040   3.349   1.481 -0.3491  0.4880  0.5345
 7691TIP3    H144564   3.083   3.332   1.397 -0.1064  2.2427  0.2661
 7691TIP3    H244565   2.947   3.336   1.463 -0.2057 -0.2246  0.2864
 7692TIP3   OH244566   3.333   5.313   5.213  0.5563  0.3812 -0.0763
 7692TIP3    H144567   3.330   5.276   5.302  0.3318  0.9073  0.1386
 7692TIP3    H244568   3.294   5.400   5.222 -1.9465 -0.5330 -1.1911
 7693TIP3   OH244569   6.663   5.034   2.861 -0.3342 -0.0996  0.2341
 7693TIP3    H144570   6.703   4.955   2.897  0.8461  0.7745  0.9189
 7693TIP3    H244571   6.625   5.006   2.777 -2.1219 -1.9145  1.5455
 7694TIP3   OH244572   5.277   1.724  13.956  0.6666  0.0667 -0.3104
 7694TIP3    H144573   5.224   1.644  13.961  0.0033  0.4910 -0.4101
 7694TIP3    H244574   5.366   1.695  13.973  0.5426 -0.8246 -1.1049
 7695TIP3   OH244575   4.742   1.578   3.692  0.1526  0.7056 -0.2230
 7695TIP3    H144576   4.724   1.630   3.770 -0.9550  0.5631 -0.3599
 7695TIP3    H244577   4.756   1.489   3.725  1.9657  1.0405  0.0030
 7696TIP3   OH244578   1.935   2.131   5.840 -0.0604  0.5655  0.0920
 7696TIP3    H144579   1.959   2.136   5.933  2.5316  0.2516 -0.4710
 7696TIP3    H244580   1.942   2.221   5.809 -0.7158  0.6369  0.1417
 7697TIP3   OH244581   4.120   2.529   2.288 -0.2604 -0.1247 -0.1800
 7697TIP3    H144582   4.156   2.554   2.373  2.7564 -1.6202 -0.8876
 7697TIP3    H244583   4.143   2.602   2.230  1.5147 -0.9544 -0.5693
 7698TIP3   OH244584   3.055   1.980  14.052  0.1608  0.6707  0.0078
 7698TIP3    H144585   3.038   2.067  14.016 -0.8119 -0.0468 -1.3689
 7698TIP3    H244586   3.146   1.984  14.084 -0.2013  2.4650  0.9131
 7699TIP3   OH244587   3.771   3.083   3.897  0.0111  0.3863  0.0761
 7699TIP3    H144588   3.684   3.057   3.869 -0.2417 -0.8774  1.9129
 7699TIP3    H244589   3.831   3.031   3.843 -0.2687  1.8566 -1.7790
 7700TIP3   OH244590   2.259   2.771   3.147 -0.9098  0.0487 -0.4169
 7700TIP3    H144591   2.257   2.755   3.241 -1.3735 -0.8730 -0.5675
 7700TIP3    H244592   2.203   2.848   3.134  0.2490  1.0239  0.1885
 7701TIP3   OH244593   1.247   3.026   2.529 -0.8436  0.5613 -0.2750
 7701TIP3    H144594   1.288   3.038   2.443 -0.8129  0.9905 -0.2025
 7701TIP3    H244595   1.216   3.113   2.553 -1.9737  0.2238 -0.4160
 7702TIP3   OH244596   0.958   5.725  12.778 -0.5114 -0.2140 -0.1962
 7702TIP3    H144597   0.900   5.745  12.851 -1.9739 -1.4002 -0.9841
 7702TIP3    H244598   1.000   5.642  12.802 -2.1903 -1.4485 -1.3222
 7703TIP3   OH244599   1.728   2.593  13.869 -0.2988  0.2937  0.2091
 7703TIP3    H144600   1.822   2.575  13.875 -0.4979 -1.1373 -0.5145
 7703TIP3    H244601   1.720   2.685  13.894  1.6353  1.3016 -2.3654
 7704TIP3   OH244602   2.244   4.673  15.838  0.4409  0.2909 -0.2492
 7704TIP3    H144603   2.282   4.706  15.756  0.4042 -0.0363 -0.4019
 7704TIP3    H244604   2.152   4.702  15.834 -0.1325 -1.5097 -1.3402
 7705TIP3   OH244605   6.093   1.685   3.793 -0.2159 -0.2226 -0.6757
 7705TIP3    H144606   6.127   1.678   3.703  2.0745  0.0940  0.0878
 7705TIP3    H244607   6.171   1.703   3.846 -1.3496 -1.4382  1.5289
 7706TIP3   OH244608   5.091   6.815  15.643  0.1741  0.1398 -0.1747
 7706TIP3    H144609   5.043   6.784  15.566  1.0118 -2.6061  0.2896
 7706TIP3    H244610   5.040   6.890  15.674 -2.2507 -0.9151 -1.2973
 7707TIP3   OH244611   0.878   0.655  11.836  0.2521  0.0456 -0.5883
 7707TIP3    H144612   0.903   0.742  11.867 -1.9433  0.8387 -0.9111
 7707TIP3    H244613   0.925   0.645  11.754 -0.1206  1.3159 -0.9867
 7708TIP3   OH244614   1.940   2.035   1.378 -0.0101  0.2429  0.4576
 7708TIP3    H144615   1.978   2.016   1.464 -1.1614  1.5079  1.2819
 7708TIP3    H244616   1.862   1.980   1.373 -0.5014  0.9007  0.6737
 7709TIP3   OH244617   0.656   0.274   5.388 -0.4767  0.3481  0.8073
 7709TIP3    H144618   0.750   0.294   5.378  0.3069 -2.2090  2.2318
 7709TIP3    H244619   0.630   0.242   5.302  0.8220 -1.7543  1.1018
 7710TIP3   OH244620   3.984   1.148  11.159 -0.5614 -0.2811  0.1595
 7710TIP3    H144621   4.051   1.083  11.183  0.3962  0.0067 -1.5473
 7710TIP3    H244622   4.035   1.224  11.130 -1.6645  1.0479  1.5319
 7711TIP3   OH244623   2.568   4.568  16.806  0.3443  0.7468  0.3063
 7711TIP3    H144624   2.506   4.640  16.823  0.0531  0.3691  0.8928
 7711TIP3    H244625   2.523   4.512  16.743  0.4684  0.9456  0.0396
 7712TIP3   OH244626   1.154   2.628  15.939 -0.3785  0.1208  0.7119
 7712TIP3    H144627   1.204   2.676  15.874 -2.2574  1.1670 -0.0592
 7712TIP3    H244628   1.181   2.664  16.023  1.5108 -0.7016  0.5041
 7713TIP3   OH244629   4.205   6.488  11.191  0.4355  0.3839 -0.2471
 7713TIP3    H144630   4.239   6.469  11.103  0.7610  1.8214 -0.4560
 7713TIP3    H244631   4.176   6.579  11.186  0.1065  0.3632  1.0411
 7714TIP3   OH244632   6.682   6.580   5.894  0.0301  0.2961 -0.5155
 7714TIP3    H144633   6.739   6.594   5.969 -0.5988 -0.1444  0.0446
 7714TIP3    H244634   6.739   6.540   5.828  0.9157  1.8839 -0.7699
 7715TIP3   OH244635   0.408   2.007  15.879 -0.4186  0.0486  0.6874
 7715TIP3    H144636   0.313   1.992  15.883 -0.1853 -1.4351  1.1623
 7715TIP3    H244637   0.437   1.953  15.805  0.1881 -0.3203  1.1848
 7716TIP3   OH244638   1.440   6.743   1.780  0.1538 -0.0573 -0.0938
 7716TIP3    H144639   1.512   6.716   1.836  0.7412  0.0912 -0.7573
 7716TIP3    H244640   1.437   6.838   1.789 -2.0695 -0.2455  2.4298
 7717TIP3   OH244641   3.128   3.596   0.026  0.1279 -0.0438  0.0653
 7717TIP3    H144642   3.114   3.674  -0.028 -0.9073 -0.1384  0.1787
 7717TIP3    H244643   3.043   3.577   0.064  0.5266 -0.8198  0.6123
 7718TIP3   OH244644   0.027   3.878  12.502  0.1548 -0.1870 -0.6515
 7718TIP3    H144645   0.109   3.898  12.545  0.3738 -0.2360 -1.0434
 7718TIP3    H244646   0.019   3.783  12.507  0.5999 -0.2765 -1.4641
 7719TIP3   OH244647   0.404   4.683   2.118 -0.1100 -0.4259 -0.1103
 7719TIP3    H144648   0.440   4.709   2.033  0.2651  1.2352  0.5038
 7719TIP3    H244649   0.460   4.610   2.146 -0.9393 -1.7691 -1.7431
 7720TIP3   OH244650   6.801   1.454   3.224 -0.5121 -0.8461  0.1888
 7720TIP3    H144651   6.849   1.404   3.290 -0.5310 -1.5779 -0.3408
 7720TIP3    H244652   6.781   1.390   3.155 -0.3886 -0.0669 -0.5822
 7721TIP3   OH244653   3.687   6.357   3.642 -0.1351  0.2700 -0.5838
 7721TIP3    H144654   3.636   6.277   3.654  0.9037 -0.3865 -0.4579
 7721TIP3    H244655   3.649   6.419   3.704  1.3947 -1.2529  2.0605
 7722TIP3   OH244656   6.523   1.406   4.212  0.1546  0.3170 -0.1681
 7722TIP3    H144657   6.567   1.367   4.137 -0.4967  1.7761 -1.3603
 7722TIP3    H244658   6.594   1.443   4.264  0.7363 -1.9477  0.7511
 7723TIP3   OH244659   5.761   0.450   5.211  0.4338  0.9061  0.6130
 7723TIP3    H144660   5.829   0.395   5.251 -0.3468  0.3744  1.2416
 7723TIP3    H244661   5.727   0.396   5.140 -0.5981  0.3878  1.4713
 7724TIP3   OH244662   2.459   2.712  15.925  0.1645 -0.2435  0.1421
 7724TIP3    H144663   2.420   2.637  15.970  1.9813 -1.2244  0.1534
 7724TIP3    H244664   2.401   2.786  15.946 -0.6240 -1.2539  1.6700
 7725TIP3   OH244665   4.716   3.574  16.698 -0.4077 -0.2544  0.0175
 7725TIP3    H144666   4.706   3.498  16.755  2.4691  1.2928  2.8958
 7725TIP3    H244667   4.768   3.542  16.624 -1.7928 -1.6794 -0.3961
 7726TIP3   OH244668   1.771   0.769   5.077 -0.2926 -0.0442  0.2595
 7726TIP3    H144669   1.713   0.697   5.101  1.7356 -2.2753 -0.9695
 7726TIP3    H244670   1.734   0.846   5.119 -2.6044 -1.7969  1.6594
 7727TIP3   OH244671   2.385   2.985  11.276 -0.2620  0.2678  0.1483
 7727TIP3    H144672   2.330   2.922  11.229  1.7499 -0.8430 -0.8891
 7727TIP3    H244673   2.447   2.930  11.325  3.1867  1.2114 -2.7220
 7728TIP3   OH244674   5.953   3.716  16.363  0.3768  0.3500 -0.2397
 7728TIP3    H144675   5.983   3.636  16.406 -1.3303 -0.0774  0.2248
 7728TIP3    H244676   5.934   3.690  16.273  0.8391  0.5054 -0.3888
 7729TIP3   OH244677   4.594   3.568   2.914  0.2617 -0.4987  0.2600
 7729TIP3    H144678   4.524   3.530   2.968  0.4031  0.8109  1.4145
 7729TIP3    H244679   4.575   3.662   2.914  0.7847 -0.3611 -1.2673
 7730TIP3   OH244680   2.133   5.515   1.248 -0.2982  0.2527  0.4115
 7730TIP3    H144681   2.173   5.584   1.300 -0.5442  1.0311 -0.3886
 7730TIP3    H244682   2.147   5.543   1.157  0.2262 -1.1186  0.0481
 7731TIP3   OH244683   2.599   0.837   4.632  0.1724 -0.5771  0.1209
 7731TIP3    H144684   2.553   0.762   4.669  0.0896 -0.1249  0.9501
 7731TIP3    H244685   2.542   0.867   4.561 -0.1740 -0.8183  0.2932
 7732TIP3   OH244686   6.375   1.962   6.697 -0.0392  0.3280 -0.2646
 7732TIP3    H144687   6.363   2.050   6.733  0.8217  0.4299 -0.2130
 7732TIP3    H244688   6.444   1.971   6.632  0.1223 -0.3285 -0.1939
 7733TIP3   OH244689   3.169   2.503   2.226  0.1818  0.5771 -0.6779
 7733TIP3    H144690   3.142   2.419   2.264  1.2385  0.7990  0.6622
 7733TIP3    H244691   3.214   2.480   2.145  1.9512 -0.3561  0.4792
 7734TIP3   OH244692   0.558   5.890  15.764 -0.2441  0.5184  0.1377
 7734TIP3    H144693   0.545   5.796  15.753 -0.1083  0.6183 -1.0780
 7734TIP3    H244694   0.620   5.898  15.837  0.0783 -0.3536 -0.0316
 7735TIP3   OH244695   0.719   1.572   1.794 -0.1292  0.0233 -0.1496
 7735TIP3    H144696   0.752   1.490   1.830 -1.7187 -0.5555  0.0349
 7735TIP3    H244697   0.647   1.597   1.852 -1.1034  0.3943 -1.4772
 7736TIP3   OH244698   6.616   1.374   3.800 -0.5913  0.0907  0.4627
 7736TIP3    H144699   6.570   1.305   3.752  1.1505  0.3257 -1.6714
 7736TIP3    H244700   6.641   1.333   3.882 -2.0155 -0.9280  0.4297
 7737TIP3   OH244701   6.267   2.613   1.219  0.1052  0.2355 -0.7434
 7737TIP3    H144702   6.294   2.558   1.292 -0.1643  2.6849  1.3154
 7737TIP3    H244703   6.347   2.660   1.194 -0.0442  0.1575 -1.3852
 7738TIP3   OH244704   3.874   0.065   2.100 -0.2422 -0.2417  0.3811
 7738TIP3    H144705   3.841   0.115   2.174  0.4840 -0.0979  0.6145
 7738TIP3    H244706   3.963   0.098   2.087  0.0730 -1.1377  0.2294
 7739TIP3   OH244707   5.320   6.763  14.513 -0.5005 -0.2656 -0.1596
 7739TIP3    H144708   5.363   6.678  14.523  0.7048  0.3753  0.3526
 7739TIP3    H244709   5.331   6.805  14.598  0.3936  1.0594 -0.9014
 7740TIP3   OH244710   6.612   6.373   4.171 -0.0330 -0.1803  0.4325
 7740TIP3    H144711   6.651   6.402   4.089 -1.0595  3.4923  1.0663
 7740TIP3    H244712   6.531   6.328   4.145  0.8164 -1.1766 -0.5749
 7741TIP3   OH244713   5.332   0.042  13.086  0.3611 -0.2642 -0.0036
 7741TIP3    H144714   5.290   0.018  13.168 -0.9914 -3.1149 -1.3736
 7741TIP3    H244715   5.319   0.137  13.079 -1.0355 -0.2208  2.2085
 7742TIP3   OH244716   4.663   2.117   3.813  0.5230 -0.2272  0.4458
 7742TIP3    H144717   4.612   2.116   3.732  1.9027  0.8965 -0.4866
 7742TIP3    H244718   4.618   2.055   3.870  0.0603 -1.7746 -1.4973
 7743TIP3   OH244719   0.051   6.188   4.192 -0.0044  0.1082 -0.4742
 7743TIP3    H144720   0.014   6.103   4.166  2.5895 -0.5386 -2.5521
 7743TIP3    H244721   0.029   6.246   4.119 -2.4382  1.5586  1.2856
 7744TIP3   OH244722   5.721   0.093  15.130 -0.1149 -0.2637 -0.3596
 7744TIP3    H144723   5.725   0.060  15.040 -1.0283 -1.5336  0.0438
 7744TIP3    H244724   5.681   0.022  15.181 -1.1874  1.0527  0.7440
 7745TIP3   OH244725   4.871   5.213   1.228 -0.0713 -0.4145  0.2062
 7745TIP3    H144726   4.899   5.272   1.298  0.3142 -2.3183  1.7090
 7745TIP3    H244727   4.865   5.270   1.151  0.5920  1.5186  1.5044
 7746TIP3   OH244728   2.937   2.414  15.073  0.2353 -0.9036 -0.0927
 7746TIP3    H144729   2.961   2.507  15.069  3.9808 -1.6596  0.3216
 7746TIP3    H244730   2.891   2.405  15.156 -1.8588  0.8017 -0.9678
 7747TIP3   OH244731   0.754   6.510   1.850  0.4014 -0.2017 -0.0367
 7747TIP3    H144732   0.675   6.474   1.890  0.0362  0.8285  0.1834
 7747TIP3    H244733   0.764   6.597   1.889  2.4148 -0.8192  1.0091
 7748TIP3   OH244734   4.119   2.469   1.752 -0.4248 -0.4173  0.2224
 7748TIP3    H144735   4.199   2.509   1.718 -1.8824  1.8069 -0.8486
 7748TIP3    H244736   4.132   2.375   1.741  2.2070 -0.1448  0.5512
 7749TIP3   OH244737   4.436   5.274   3.698  0.0879  0.0924  0.1597
 7749TIP3    H144738   4.363   5.218   3.671 -0.2261  0.2437  0.6817
 7749TIP3    H244739   4.394   5.351   3.738  0.5302  0.0813  0.6609
 7750TIP3   OH244740   1.743   0.185   4.178 -0.0001  0.0413 -0.2044
 7750TIP3    H144741   1.801   0.124   4.132 -0.8592 -2.2624  1.5722
 7750TIP3    H244742   1.657   0.170   4.138 -0.0993  0.5749 -0.1907
 7751TIP3   OH244743   5.227   4.862   6.107  0.0297 -0.1677 -0.4443
 7751TIP3    H144744   5.289   4.872   6.179 -0.0453  0.0829 -0.4130
 7751TIP3    H244745   5.220   4.768   6.094  0.7092 -0.1955 -0.6954
 7752TIP3   OH244746   0.972   5.524   6.507  0.6547 -0.1764 -0.1207
 7752TIP3    H144747   0.897   5.465   6.518  0.4760 -0.1223 -0.9979
 7752TIP3    H244748   0.956   5.595   6.569  1.2531 -1.4018  1.5123
 7753TIP3   OH244749   2.304   3.687  13.589  0.7893  0.5460  0.3273
 7753TIP3    H144750   2.362   3.612  13.603  0.6407  0.1415 -1.0579
 7753TIP3    H244751   2.358   3.763  13.611  0.9730  0.0551  1.6622
 7754TIP3   OH244752   1.726   6.184  14.073  0.0074  0.3976  0.0065
 7754TIP3    H144753   1.788   6.234  14.019 -0.5999 -0.3136 -1.4048
 7754TIP3    H244754   1.717   6.236  14.153  1.7253  0.9613 -0.1288
 7755TIP3   OH244755   2.933   5.455   0.327 -0.4776 -0.1903 -0.0044
 7755TIP3    H144756   2.895   5.486   0.409 -2.3556 -0.3248 -0.7707
 7755TIP3    H244757   2.888   5.373   0.309  2.4593 -2.0726  0.5766
 7756TIP3   OH244758   0.210   5.966  12.874  0.5555  0.5308  0.2905
 7756TIP3    H144759   0.185   6.006  12.958  2.4038  1.0946  0.6131
 7756TIP3    H244760   0.296   5.927  12.891  0.5763 -0.0851 -1.1238
 7757TIP3   OH244761   3.758   6.725   3.552 -0.6948  0.1673  0.3021
 7757TIP3    H144762   3.669   6.705   3.578 -0.4460 -4.5376 -1.4616
 7757TIP3    H244763   3.749   6.775   3.470 -1.8185 -1.0547 -0.3604
 7758TIP3   OH244764   6.098   1.423   3.402  0.1425  0.1825 -0.0492
 7758TIP3    H144765   6.013   1.399   3.365  0.5094 -1.2445 -0.0390
 7758TIP3    H244766   6.161   1.368   3.355  0.8553 -0.0566  1.1414
 7759TIP3   OH244767   0.522   1.170   1.025  0.5615 -0.4186 -0.9434
 7759TIP3    H144768   0.565   1.127   1.099  1.1804 -0.3813 -1.2814
 7759TIP3    H244769   0.456   1.106   0.996 -1.6097  0.6270  1.3423
 7760TIP3   OH244770   3.202   1.615  11.693  0.3236  0.3551  0.1632
 7760TIP3    H144771   3.249   1.553  11.749  0.8207  0.9449  0.4100
 7760TIP3    H244772   3.235   1.595  11.605 -2.5491 -2.5355 -0.4477
 7761TIP3   OH244773   1.765   2.876   4.583  0.4084 -0.1999 -0.1296
 7761TIP3    H144774   1.839   2.936   4.593  0.3364 -0.3213  1.2746
 7761TIP3    H244775   1.700   2.906   4.647 -0.5594 -0.4047 -0.9942
 7762TIP3   OH244776   2.631   0.298   3.242  0.0057 -0.4856 -0.0054
 7762TIP3    H144777   2.573   0.371   3.265  0.5813 -0.4338  1.3347
 7762TIP3    H244778   2.602   0.225   3.296  0.8106 -0.6298  0.2428
 7763TIP3   OH244779   6.646   5.781  12.229  0.2253  0.1511  0.5643
 7763TIP3    H144780   6.699   5.781  12.308  2.9274  1.5143 -1.1062
 7763TIP3    H244781   6.637   5.688  12.206  1.8645 -0.1281  0.9595
 7764TIP3   OH244782   2.903   5.453   0.607 -0.1406  0.0080 -0.2929
 7764TIP3    H144783   2.952   5.382   0.565 -1.0694  0.0898 -1.5796
 7764TIP3    H244784   2.847   5.408   0.670  0.0265 -0.2974 -0.3551
 7765TIP3   OH244785   4.628   1.901  11.966  0.2862  0.2383  0.0696
 7765TIP3    H144786   4.717   1.926  11.941  0.6310 -0.1887  0.8318
 7765TIP3    H244787   4.636   1.810  11.995 -0.3869  0.2268  0.2424
 7766TIP3   OH244788   0.953   4.894   4.749 -0.6053 -0.2196 -0.0784
 7766TIP3    H144789   1.047   4.896   4.766 -0.3856  1.7094 -1.2648
 7766TIP3    H244790   0.945   4.912   4.655 -2.1849  0.7786  0.2101
 7767TIP3   OH244791   4.419   2.520   3.261  0.6023 -0.0682 -0.0074
 7767TIP3    H144792   4.435   2.467   3.184 -0.5180 -2.6058  1.3872
 7767TIP3    H244793   4.389   2.604   3.227 -0.4848 -1.3211 -2.3319
 7768TIP3   OH244794   0.614   5.740  11.658 -0.2211  0.8859  0.4649
 7768TIP3    H144795   0.621   5.693  11.741  2.0590  0.9403  0.3711
 7768TIP3    H244796   0.557   5.685  11.604  2.5416 -2.0484  0.2606
 7769TIP3   OH244797   6.554   4.547  12.742 -0.7478 -1.0337  0.2818
 7769TIP3    H144798   6.463   4.535  12.715 -0.7806  1.6144 -1.0910
 7769TIP3    H244799   6.570   4.641  12.732  1.8708 -1.2752  1.4095
 7770TIP3   OH244800   2.759   1.963   0.465 -0.2360 -0.3327  0.2200
 7770TIP3    H144801   2.736   1.891   0.524  1.3602 -0.6095  0.5306
 7770TIP3    H244802   2.730   1.933   0.378 -2.0277 -0.1788  0.7184
 7771TIP3   OH244803   0.801   1.359  15.427 -0.2257  0.6871  0.1051
 7771TIP3    H144804   0.892   1.352  15.399  0.0398  0.2512  1.0437
 7771TIP3    H244805   0.790   1.289  15.491 -1.5337  0.0396 -0.7756
 7772TIP3   OH244806   0.722   3.425  16.716 -0.3651  0.1539  0.4225
 7772TIP3    H144807   0.802   3.392  16.675 -0.7623 -2.7958  1.7738
 7772TIP3    H244808   0.740   3.420  16.810 -2.7179 -2.5496  0.8605
 7773TIP3   OH244809   1.425   0.714  12.413 -0.2237 -0.6113 -0.2802
 7773TIP3    H144810   1.464   0.666  12.339  0.5618  0.8203 -0.8470
 7773TIP3    H244811   1.470   0.680  12.490 -0.9264 -2.0037 -0.4568
 7774TIP3   OH244812   6.392   3.024  12.942  0.3481  0.4923 -0.3571
 7774TIP3    H144813   6.355   3.001  13.027  0.2842  1.1025 -0.2144
 7774TIP3    H244814   6.319   3.015  12.880  0.4202 -0.0502 -0.3663
 7775TIP3   OH244815   0.593   5.567  10.394 -0.2935 -0.1925  0.2516
 7775TIP3    H144816   0.538   5.496  10.361  0.2705  0.1411 -1.5192
 7775TIP3    H244817   0.676   5.524  10.417  0.8447  0.0941 -2.8839
 7776TIP3   OH244818   0.671   6.325   0.617 -0.1040  0.3734 -0.0219
 7776TIP3    H144819   0.672   6.413   0.581 -0.3567  0.4130  0.0621
 7776TIP3    H244820   0.578   6.301   0.617 -0.0491  0.1587  0.0758
 7777TIP3   OH244821   1.901   1.804  13.653 -1.0161  0.5023 -0.1241
 7777TIP3    H144822   1.990   1.786  13.683  0.3098  1.6108 -3.0461
 7777TIP3    H244823   1.864   1.861  13.720  0.4953  0.0998  1.0969
 7778TIP3   OH244824   2.420   2.173  11.270  0.0870 -0.2115  0.0958
 7778TIP3    H144825   2.339   2.170  11.320 -0.5237  1.4971 -0.6946
 7778TIP3    H244826   2.395   2.143  11.182  0.3217  0.2131 -0.1197
 7779TIP3   OH244827   5.724   3.601  16.695 -0.0482  0.4955 -0.3424
 7779TIP3    H144828   5.673   3.587  16.615  0.3714 -1.7990 -0.2758
 7779TIP3    H244829   5.781   3.674  16.675 -1.1526  1.0704 -1.5261
 7780TIP3   OH244830   5.972   3.283   4.186 -0.1267  0.1618  0.1309
 7780TIP3    H144831   5.978   3.202   4.136  0.5740 -0.2040  0.7922
 7780TIP3    H244832   5.936   3.256   4.271  2.0484  0.1714  1.1192
 7781TIP3   OH244833   0.077   2.574   2.296  0.0695 -0.1511  0.1381
 7781TIP3    H144834  -0.002   2.618   2.265  1.3129  1.9479 -0.1907
 7781TIP3    H244835   0.128   2.557   2.216  0.4149 -0.5705  0.4403
 7782TIP3   OH244836   6.803   2.176  16.366  0.5891 -0.0949  0.6288
 7782TIP3    H144837   6.733   2.218  16.416  1.3233  2.6988 -0.4607
 7782TIP3    H244838   6.767   2.166  16.278  0.9412 -0.3029  0.5054
 7783TIP3   OH244839   3.232   2.236   2.889 -0.5444  0.4428  0.1769
 7783TIP3    H144840   3.283   2.189   2.822 -1.2073 -1.4547  0.9412
 7783TIP3    H244841   3.234   2.178   2.965 -2.5958  0.9962  0.7121
 7784TIP3   OH244842   2.508   1.838  15.338  0.7834 -0.1741 -0.8689
 7784TIP3    H144843   2.483   1.748  15.355  0.4303 -0.1698 -1.3317
 7784TIP3    H244844   2.426   1.888  15.346  0.8648  0.0159 -1.1884
 7785TIP3   OH244845   1.537   2.956  12.419  0.2993  0.0309  0.0436
 7785TIP3    H144846   1.500   2.967  12.507 -0.5238  0.0786 -0.3011
 7785TIP3    H244847   1.571   3.043  12.397 -0.6973  0.3672 -0.2140
 7786TIP3   OH244848   3.371   1.465   3.598  0.0317 -0.0838 -0.7658
 7786TIP3    H144849   3.316   1.422   3.533 -0.3498  0.5843 -0.8859
 7786TIP3    H244850   3.310   1.494   3.666  0.4518 -1.0462  0.0665
 7787TIP3   OH244851   3.626   5.219  12.781  0.5430 -0.3075 -0.1657
 7787TIP3    H144852   3.622   5.314  12.776 -2.3683 -0.3533 -0.0211
 7787TIP3    H244853   3.641   5.191  12.691  0.0031  0.2645 -0.4418
 7788TIP3   OH244854   5.805   3.074  15.513 -0.5940  0.3911  0.3421
 7788TIP3    H144855   5.760   3.099  15.432 -0.4344  0.5661  0.3073
 7788TIP3    H244856   5.879   3.021  15.484  0.3320  1.6777  0.2609
 7789TIP3   OH244857   3.805   0.513   5.677  0.1358 -0.2394  0.1284
 7789TIP3    H144858   3.725   0.479   5.717 -1.2975  1.9717 -0.6710
 7789TIP3    H244859   3.809   0.470   5.592 -0.2521 -0.3002  0.1372
 7790TIP3   OH244860   0.563   6.757  15.440  0.8791 -0.2501  0.4053
 7790TIP3    H144861   0.488   6.764  15.499  0.4216 -1.2887 -0.0112
 7790TIP3    H244862   0.576   6.662  15.430  3.0635 -0.1076  1.4531
 7791TIP3   OH244863   2.922   6.037  14.537 -0.0532  0.1001  0.4474
 7791TIP3    H144864   3.010   6.032  14.574  0.5746  0.6379 -0.8961
 7791TIP3    H244865   2.930   5.994  14.452 -0.9932  0.4826  0.1565
 7792TIP3   OH244866   5.175   3.316  13.508  0.3541  0.2151  0.6382
 7792TIP3    H144867   5.177   3.411  13.495  0.9538  0.1416  0.1597
 7792TIP3    H244868   5.262   3.295  13.542 -0.0868 -0.0437  1.6212
 7793TIP3   OH244869   5.762   2.813   5.614 -0.1949 -0.3556 -0.7266
 7793TIP3    H144870   5.824   2.837   5.546  0.7502 -0.8650 -0.0637
 7793TIP3    H244871   5.813   2.812   5.695 -0.8043 -1.8284 -0.3185
 7794TIP3   OH244872   3.306   3.308  11.600  0.0270 -0.2211 -0.1307
 7794TIP3    H144873   3.318   3.396  11.563 -0.7559  0.2725  0.7603
 7794TIP3    H244874   3.337   3.316  11.690 -0.6171 -0.6923  0.1378
 7795TIP3   OH244875   4.561   6.493   4.310 -0.4132  0.0229  0.1018
 7795TIP3    H144876   4.592   6.564   4.366  0.0704 -0.1095  0.0073
 7795TIP3    H244877   4.485   6.458   4.356 -0.2324  0.1431  0.5019
 7796TIP3   OH244878   1.137   6.050  14.683  0.2410  0.0268 -0.0589
 7796TIP3    H144879   1.184   6.050  14.599 -1.4991  0.4689 -1.0884
 7796TIP3    H244880   1.068   6.116  14.671 -0.6582 -0.6136  1.3621
 7797TIP3   OH244881   3.196   0.160   3.001 -0.4843 -0.6624 -0.3691
 7797TIP3    H144882   3.100   0.159   3.000 -0.5571  1.5162 -0.5870
 7797TIP3    H244883   3.220   0.193   2.914  0.4183 -0.1940  0.0447
 7798TIP3   OH244884   4.784   3.439   0.225  0.3722  0.0988  0.2642
 7798TIP3    H144885   4.760   3.375   0.157  0.5397  0.2469  0.0623
 7798TIP3    H244886   4.836   3.389   0.288 -1.1861 -0.4417  1.1803
 7799TIP3   OH244887   6.538   5.496  15.170 -1.0552 -0.4531  0.0865
 7799TIP3    H144888   6.583   5.498  15.085  2.5790  0.7239  1.8080
 7799TIP3    H244889   6.469   5.561  15.162  0.5380  1.1963 -1.4016
 7800TIP3   OH244890   3.846   4.204   1.436  0.4486  0.7381  0.6665
 7800TIP3    H144891   3.916   4.240   1.381  0.0827 -1.1215 -1.1450
 7800TIP3    H244892   3.770   4.259   1.416  0.4166  0.3141 -0.4627
 7801TIP3   OH244893   3.146   6.220   4.929  0.7932  0.4903 -0.2983
 7801TIP3    H144894   3.235   6.216   4.964  1.0094 -2.0972 -0.9285
 7801TIP3    H244895   3.149   6.290   4.864  1.7161  1.9485  1.2110
 7802TIP3   OH244896   0.189   2.389   1.174 -0.0213 -0.2728  0.4791
 7802TIP3    H144897   0.113   2.373   1.117  0.0027  0.0874  0.3414
 7802TIP3    H244898   0.262   2.401   1.113 -0.0624  0.4722  0.5674
 7803TIP3   OH244899   2.154   5.801  14.279  0.2409 -0.2299 -0.0038
 7803TIP3    H144900   2.146   5.763  14.367  0.8679 -0.0566  0.1375
 7803TIP3    H244901   2.073   5.850  14.267 -0.5699 -1.5849 -0.1823
 7804TIP3   OH244902   5.655   5.003  16.561  0.2515  0.2571  0.1487
 7804TIP3    H144903   5.601   4.991  16.483  1.8295 -1.6533 -0.7475
 7804TIP3    H244904   5.732   5.050  16.530  0.2194  0.8068  0.8846
 7805TIP3   OH244905   0.870   5.613  14.123  0.1618  0.2148  0.1120
 7805TIP3    H144906   0.895   5.520  14.118 -0.2795  0.0682  0.6006
 7805TIP3    H244907   0.817   5.619  14.202  2.1084  1.3398  1.4285
 7806TIP3   OH244908   4.699   2.968   4.055 -0.8808  0.3288  0.1604
 7806TIP3    H144909   4.679   2.961   3.962 -0.6672  0.6577  0.0873
 7806TIP3    H244910   4.645   2.901   4.096 -0.6444 -0.1192 -0.2501
 7807TIP3   OH244911   5.219   2.287   0.238  0.5202 -0.1816  0.0502
 7807TIP3    H144912   5.170   2.276   0.319  0.7321  0.2727  0.2471
 7807TIP3    H244913   5.164   2.347   0.185  2.5966  3.7058  1.8626
 7808TIP3   OH244914   3.045   0.582  13.329  0.4716 -0.1176  0.6382
 7808TIP3    H144915   3.096   0.530  13.268  0.7298  1.2301 -0.3483
 7808TIP3    H244916   3.052   0.672  13.296  0.0299  0.5515  2.2538
 7809TIP3   OH244917   2.619   0.022   0.685 -0.2859  0.4401  0.1325
 7809TIP3    H144918   2.573   0.067   0.756 -0.3194  0.3190  0.1871
 7809TIP3    H244919   2.552  -0.027   0.639 -0.1730  0.0634  0.3654
 7810TIP3   OH244920   5.627   5.582  12.088 -0.2397 -0.0919 -0.0851
 7810TIP3    H144921   5.566   5.587  12.162  0.7736 -1.1887  0.8699
 7810TIP3    H244922   5.709   5.552  12.127 -0.0676 -2.1944 -1.8640
 7811TIP3   OH244923   5.789   5.651  14.581 -0.0642 -0.4490  0.2028
 7811TIP3    H144924   5.740   5.700  14.514  0.0390 -0.4974  0.0897
 7811TIP3    H244925   5.879   5.683  14.573  0.4126 -1.9728 -1.1605
 7812TIP3   OH244926   6.534   1.491   3.332 -0.0582  0.2169  0.1412
 7812TIP3    H144927   6.612   1.457   3.287  0.6903  2.1311 -0.1148
 7812TIP3    H244928   6.490   1.413   3.366  1.8067 -0.9512  0.0241
 7813TIP3   OH244929   3.507   3.034  13.455 -0.4157 -0.1003 -0.1193
 7813TIP3    H144930   3.455   3.107  13.489 -0.9277  0.2232 -1.5634
 7813TIP3    H244931   3.589   3.074  13.426 -1.2258  0.1660 -2.1785
 7814TIP3   OH244932   1.360   2.001   0.345  0.6360  0.4109 -0.3676
 7814TIP3    H144933   1.413   2.011   0.424  2.0908  0.6315 -1.3386
 7814TIP3    H244934   1.317   1.917   0.356  2.4135 -0.5296 -0.2220
 7815TIP3   OH244935   1.884   3.190  10.148  0.2452  0.0851  0.4953
 7815TIP3    H144936   1.918   3.267  10.102 -0.5350 -0.6073 -1.3315
 7815TIP3    H244937   1.797   3.218  10.178  0.2338  0.1314  0.4209
 7816TIP3   OH244938   2.144   3.079  15.354  0.0287 -0.4961 -0.1418
 7816TIP3    H144939   2.082   3.017  15.392 -1.3025 -0.2096 -1.7412
 7816TIP3    H244940   2.139   3.064  15.259 -0.1611  1.8674 -0.5687
 7817TIP3   OH244941   0.249   0.216  15.126  0.1079 -0.0497 -0.8114
 7817TIP3    H144942   0.167   0.190  15.085 -0.5104 -0.6609  0.7331
 7817TIP3    H244943   0.287   0.134  15.157  0.8678  0.3242 -0.7324
 7818TIP3   OH244944   1.790   0.004  13.808  0.6232 -0.2432  0.1616
 7818TIP3    H144945   1.790  -0.046  13.890  0.4696 -0.0649  0.2728
 7818TIP3    H244946   1.747   0.086  13.831  0.8933 -0.0528 -0.0147
 7819TIP3   OH244947   2.689   5.627   5.023  0.0817  0.4396  0.0508
 7819TIP3    H144948   2.763   5.668   5.068 -0.2255 -1.3372  2.3610
 7819TIP3    H244949   2.614   5.680   5.048  0.3078  1.2952 -0.9940
 7820TIP3   OH244950   6.284   5.507  16.234  0.0933  0.4438  0.2073
 7820TIP3    H144951   6.297   5.560  16.312 -0.3668 -1.4425  1.6393
 7820TIP3    H244952   6.191   5.483  16.237 -0.2124  1.2245 -1.5530
 7821TIP3   OH244953   1.576   5.431  13.385 -0.4086  0.1453 -0.3343
 7821TIP3    H144954   1.537   5.517  13.366 -1.3728 -0.3744 -0.7972
 7821TIP3    H244955   1.501   5.376  13.410  0.1408 -0.6744 -0.4569
 7822TIP3   OH244956   2.906   3.559  12.464  0.0284  0.0351  0.3947
 7822TIP3    H144957   2.964   3.622  12.420 -0.3716  1.0324  1.2543
 7822TIP3    H244958   2.925   3.475  12.421  0.6446  0.7122 -0.7140
 7823TIP3   OH244959   5.022   6.232  11.442 -0.0342  0.0416  0.6220
 7823TIP3    H144960   5.018   6.257  11.349  1.8255 -0.3047  0.4180
 7823TIP3    H244961   4.938   6.188  11.458 -1.0954  1.5579 -0.4302
 7824TIP3   OH244962   2.917   6.662  13.031 -0.3889  0.0705 -0.1776
 7824TIP3    H144963   2.936   6.722  12.959 -0.6667 -1.5239 -1.6688
 7824TIP3    H244964   2.840   6.698  13.074  0.1215  1.3589 -0.3203
 7825TIP3   OH244965   4.868   1.566  13.933  0.5485  0.3049 -0.5121
 7825TIP3    H144966   4.836   1.653  13.907  0.8427  1.0857  1.5531
 7825TIP3    H244967   4.957   1.582  13.963  0.5443 -0.6802  0.0594
 7826TIP3   OH244968   2.215   2.695  13.353 -0.0315 -0.0536 -0.0961
 7826TIP3    H144969   2.236   2.630  13.420  0.6541 -0.0171 -0.2673
 7826TIP3    H244970   2.273   2.673  13.279 -0.1609  0.4350 -0.3501
 7827TIP3   OH244971   6.547   3.224  15.740 -0.2925  0.1698 -0.2753
 7827TIP3    H144972   6.481   3.264  15.684 -1.0027 -0.0447  0.3841
 7827TIP3    H244973   6.608   3.296  15.760 -0.5781  0.4843 -0.5258
 7828TIP3   OH244974   5.132   2.781   1.030  0.0126 -0.1872  0.2700
 7828TIP3    H144975   5.086   2.864   1.039 -1.0739 -0.3582 -2.6416
 7828TIP3    H244976   5.203   2.799   0.969  0.9696 -0.9991  1.1091
 7829TIP3   OH244977   0.799   3.340   3.226  0.2444 -0.4639  0.0494
 7829TIP3    H144978   0.849   3.372   3.151  0.6252  0.0926  0.5224
 7829TIP3    H244979   0.722   3.396   3.228  0.3835 -0.2775  0.2474
 7830TIP3   OH244980   5.706   0.796  11.950  0.3954  0.2280 -0.1908
 7830TIP3    H144981   5.719   0.861  11.881  3.0497  0.3240  0.3126
 7830TIP3    H244982   5.738   0.714  11.912  2.5278  0.4110  1.0420
 7831TIP3   OH244983   3.514   4.250  13.852  0.3747  0.6764 -0.3177
 7831TIP3    H144984   3.588   4.221  13.799  0.0367  1.2055 -1.0880
 7831TIP3    H244985   3.469   4.170  13.877  2.4438  0.1308  2.0583
 7832TIP3   OH244986   1.311   2.308   1.256 -0.2141 -0.3966 -0.1499
 7832TIP3    H144987   1.289   2.401   1.251 -1.1309 -0.5156  1.1629
 7832TIP3    H244988   1.285   2.273   1.172  1.2534  0.7336 -1.1354
 7833TIP3   OH244989   4.599   5.665   3.939 -0.6338  0.2411 -0.0151
 7833TIP3    H144990   4.617   5.632   3.851 -1.1998  0.3755 -0.1878
 7833TIP3    H244991   4.625   5.757   3.936 -0.1385  0.1077  0.1235
 7834TIP3   OH244992   4.577   1.927   0.549 -0.2025  0.0496 -0.2220
 7834TIP3    H144993   4.633   1.881   0.612  0.2971  0.8160 -0.0901
 7834TIP3    H244994   4.555   1.860   0.484  1.0368 -0.2310 -0.3883
 7835TIP3   OH244995   0.317   6.441  14.946  0.9433 -0.5328  0.3120
 7835TIP3    H144996   0.349   6.528  14.967 -2.5653  0.4468  2.4137
 7835TIP3    H244997   0.262   6.454  14.868 -3.5792  0.4425  3.2938
 7836TIP3   OH244998   4.432   3.929   0.549  0.0820  0.6070  0.2100
 7836TIP3    H144999   4.459   3.940   0.641 -0.8632  1.9392  0.3598
 7836TIP3    H245000   4.380   3.849   0.549 -0.6765  1.0827  1.0368
 7837TIP3   OH245001   1.806   3.289  12.351  0.0890 -0.0451  0.3082
 7837TIP3    H145002   1.835   3.348  12.281 -0.2762 -2.2437 -1.8505
 7837TIP3    H245003   1.815   3.202  12.313 -0.5225 -1.3387  2.9256
 7838TIP3   OH245004   4.745   5.457   2.179  0.6773  0.0579  0.4854
 7838TIP3    H145005   4.821   5.489   2.227  1.2277  0.4977 -0.6418
 7838TIP3    H245006   4.780   5.428   2.095 -0.1842 -1.1774  0.5161
 7839TIP3   OH245007   2.245   0.927  14.974 -0.3532  0.1839  0.3823
 7839TIP3    H145008   2.153   0.945  14.954 -0.5216  1.0614  1.7927
 7839TIP3    H245009   2.273   1.001  15.027  0.9109 -0.5164  0.7433
 7840TIP3   OH245010   4.799   0.885   6.015 -0.1064  0.4066  0.0837
 7840TIP3    H145011   4.736   0.943   6.058  1.6669  0.4411  2.8827
 7840TIP3    H245012   4.844   0.840   6.087  2.7625  0.0605 -1.7397
 7841TIP3   OH245013   5.728   0.726   5.928 -0.2129 -0.3759 -0.6106
 7841TIP3    H145014   5.680   0.684   5.856 -0.1321  1.0294 -1.5250
 7841TIP3    H245015   5.667   0.724   6.001 -1.0907 -0.0054 -1.3104
 7842TIP3   OH245016   4.474   6.054   0.369  0.3818  0.1837  0.3695
 7842TIP3    H145017   4.417   6.125   0.399  0.6469 -0.8649  3.7542
 7842TIP3    H245018   4.465   5.986   0.436  0.3161 -2.9738 -2.5809
 7843TIP3   OH245019   2.053   1.779  12.366  0.1286 -0.3211  0.2596
 7843TIP3    H145020   1.964   1.812  12.352  0.5182  1.4348  1.5481
 7843TIP3    H245021   2.104   1.817  12.295  0.2656  0.6892  0.8604
 7844TIP3   OH245022   0.628   2.723  16.297  0.3104 -0.0379  1.3356
 7844TIP3    H145023   0.622   2.730  16.392  0.7496 -0.3274  1.3900
 7844TIP3    H245024   0.588   2.639  16.276 -0.0233  0.1444  1.2374
 7845TIP3   OH245025   0.946   3.930  10.958 -0.6046  0.7863 -0.1385
 7845TIP3    H145026   0.872   3.960  10.905 -0.5155  1.6753  0.2172
 7845TIP3    H245027   0.996   3.874  10.899 -0.4313  1.8621 -1.0547
 7846TIP3   OH245028   5.936   0.216   1.108  0.1378 -0.0050  0.4127
 7846TIP3    H145029   5.924   0.309   1.126  0.9021  0.0128  0.8711
 7846TIP3    H245030   5.888   0.172   1.178  0.6490  0.0520  0.8022
 7847TIP3   OH245031   6.404   2.799   2.097 -0.0157 -0.0556 -0.0059
 7847TIP3    H145032   6.443   2.876   2.055  0.6385 -0.4659 -0.1552
 7847TIP3    H245033   6.349   2.835   2.166 -0.5739  0.5980 -0.7733
 7848TIP3   OH245034   5.386   2.152   4.802 -0.1236 -0.2683  0.0334
 7848TIP3    H145035   5.329   2.118   4.732 -0.6462  2.2700 -0.9086
 7848TIP3    H245036   5.471   2.161   4.760  0.1954 -1.1016  0.4975
 7849TIP3   OH245037   5.099   2.241   4.421  0.3981 -0.3326 -0.3224
 7849TIP3    H145038   5.092   2.164   4.365  0.3704 -0.5170 -0.0669
 7849TIP3    H245039   5.104   2.206   4.510 -1.2478 -0.0037 -0.0576
 7850TIP3   OH245040   2.826   5.923  11.321  0.0799  0.7828 -0.4160
 7850TIP3    H145041   2.816   5.972  11.240 -0.4929  1.1524 -0.1298
 7850TIP3    H245042   2.920   5.927  11.341 -0.1755  3.5797  0.6947
 7851TIP3   OH245043   6.282   6.496  12.222 -0.8420  0.3082  0.2025
 7851TIP3    H145044   6.208   6.556  12.219 -1.1632 -0.0890  0.1722
 7851TIP3    H245045   6.243   6.411  12.240 -0.3171  0.2398  1.0645
 7852TIP3   OH245046   3.497   2.236   0.167  0.2674  0.3026 -0.3553
 7852TIP3    H145047   3.522   2.275   0.083 -1.7055  0.5893 -0.8656
 7852TIP3    H245048   3.427   2.175   0.145 -0.5665  0.6818  1.1169
 7853TIP3   OH245049   2.404   2.171   4.980  0.0972  0.2925 -0.1327
 7853TIP3    H145050   2.436   2.260   4.969 -3.3301  1.5795 -0.8256
 7853TIP3    H245051   2.325   2.180   5.034 -0.6873 -2.2415 -0.7309
 7854TIP3   OH245052   6.058   2.098  13.403 -0.3772 -0.0009 -0.1308
 7854TIP3    H145053   6.143   2.086  13.360 -0.3334  0.3053 -0.1322
 7854TIP3    H245054   6.079   2.144  13.484 -0.4996 -0.2705  0.0540
 7855TIP3   OH245055   6.505   3.603  11.775 -0.1594  0.3017  0.0025
 7855TIP3    H145056   6.453   3.682  11.761 -0.1443  0.3847  0.4014
 7855TIP3    H245057   6.451   3.549  11.832 -0.2540 -0.0602 -0.4323
 7856TIP3   OH245058   2.221   2.100  11.710  0.1704 -0.1286 -0.5735
 7856TIP3    H145059   2.234   2.046  11.631 -0.7343  1.3000 -1.7643
 7856TIP3    H245060   2.141   2.150  11.691  1.2330  1.9766  0.2368
 7857TIP3   OH245061   6.371   3.765   0.520  0.1291  0.3370 -0.3749
 7857TIP3    H145062   6.390   3.683   0.566  0.0392 -0.3169 -1.4644
 7857TIP3    H245063   6.458   3.801   0.501  0.1999 -0.0532 -0.8243
 7858TIP3   OH245064   6.323   1.407  13.816  0.1858 -0.0863 -0.7083
 7858TIP3    H145065   6.265   1.337  13.787 -1.1966  1.2365 -1.3235
 7858TIP3    H245066   6.409   1.367  13.820 -0.8855 -2.4616  1.3423
 7859TIP3   OH245067   3.976   4.718   0.043  0.1932  0.0168 -0.5080
 7859TIP3    H145068   4.031   4.770   0.101  1.1027  1.1999 -2.3531
 7859TIP3    H245069   4.011   4.630   0.049  0.8598  0.3124  0.0436
 7860TIP3   OH245070   6.689   3.612  13.492  0.6073  0.0472 -0.1154
 7860TIP3    H145071   6.721   3.639  13.579 -0.7089 -0.0543  0.4125
 7860TIP3    H245072   6.596   3.632  13.493 -0.3431 -3.6508 -0.0104
 7861TIP3   OH245073   3.799   5.410  12.063  0.3132 -0.7321 -0.4116
 7861TIP3    H145074   3.743   5.473  12.018  0.0866  0.0159  0.8573
 7861TIP3    H245075   3.770   5.324  12.031 -2.0525 -0.4322  0.6960
 7862TIP3   OH245076   4.731   5.901   3.914  0.0295 -0.3875 -0.1127
 7862TIP3    H145077   4.802   5.876   3.973  0.0229 -0.9685 -0.3418
 7862TIP3    H245078   4.769   5.967   3.857 -0.3020  1.0927  1.3066
 7863TIP3   OH245079   0.896   1.567  11.932  0.0283 -0.8681  0.4608
 7863TIP3    H145080   0.862   1.519  12.008 -1.7876 -0.6614 -0.1792
 7863TIP3    H245081   0.917   1.499  11.868  0.0835 -0.9524  0.5678
 7864TIP3   OH245082   6.759   2.933  14.440 -0.6510 -0.2056  0.2720
 7864TIP3    H145083   6.736   2.885  14.520 -1.2799 -0.6661 -0.1780
 7864TIP3    H245084   6.808   2.869  14.388 -1.3931 -0.3252 -0.2814
 7865TIP3   OH245085   1.961   3.626  16.832  0.6370  0.2799  0.3132
 7865TIP3    H145086   1.944   3.554  16.771 -1.9870 -0.1136  1.3694
 7865TIP3    H245087   1.976   3.702  16.776 -3.5982  0.3742 -1.0075
 7866TIP3   OH245088   2.277   0.583   1.591  0.7045  0.4303 -0.0451
 7866TIP3    H145089   2.353   0.591   1.534  1.4773 -0.6980  0.7921
 7866TIP3    H245090   2.288   0.498   1.634 -0.8694  0.3890  0.3230
 7867TIP3   OH245091   6.756   2.464  15.750  0.3074  0.4781  0.2710
 7867TIP3    H145092   6.700   2.541  15.765 -1.3025 -0.3547 -1.0944
 7867TIP3    H245093   6.712   2.394  15.798  0.7482  0.0310  0.0278
 7868TIP3   OH245094   5.566   2.438   3.049  0.2429  0.5795  0.4156
 7868TIP3    H145095   5.641   2.388   3.081  0.3528 -0.0661 -0.7841
 7868TIP3    H245096   5.587   2.457   2.957  1.0487  4.4187  1.2063
 7869TIP3   OH245097   3.954   0.646  16.011  0.4229 -0.2017  0.1642
 7869TIP3    H145098   4.018   0.715  16.030  2.1000 -1.1409 -1.6842
 7869TIP3    H245099   3.929   0.611  16.097  2.9652 -0.2697  0.9468
 7870TIP3   OH245100   3.616   6.013  13.279  0.4187 -0.0297 -0.3706
 7870TIP3    H145101   3.686   6.049  13.225 -0.6369  1.7581 -0.6398
 7870TIP3    H245102   3.584   5.937  13.229  1.3537 -0.1449 -0.8182
 7871TIP3   OH245103   5.533   0.506  13.607  0.2849 -0.4569 -0.1065
 7871TIP3    H145104   5.568   0.471  13.689 -2.5195  0.8905  1.8340
 7871TIP3    H245105   5.500   0.429  13.561  0.1574 -1.0643  0.9539
 7872TIP3   OH245106   5.522   3.128   1.896 -0.2164 -0.0041  0.3526
 7872TIP3    H145107   5.524   3.034   1.912 -0.8127 -0.1582 -0.3857
 7872TIP3    H245108   5.612   3.157   1.910 -0.0370 -0.6753  0.6407
 7873TIP3   OH245109   4.451   1.781   5.694  0.1167  0.0263 -0.0416
 7873TIP3    H145110   4.449   1.875   5.675 -0.0900 -0.0862 -0.5921
 7873TIP3    H245111   4.486   1.775   5.783  0.3799  0.6101 -0.1023
 7874TIP3   OH245112   3.765   2.371  15.561 -0.1082 -0.1707  0.5211
 7874TIP3    H145113   3.678   2.392  15.594 -0.2618  3.1509 -1.5558
 7874TIP3    H245114   3.756   2.370  15.466  1.6758 -2.3490  0.2853
 7875TIP3   OH245115   4.208   0.429   2.762 -0.7564  0.5619 -0.1604
 7875TIP3    H145116   4.147   0.356   2.777 -0.2426  0.2638  0.5694
 7875TIP3    H245117   4.282   0.410   2.820 -0.5848  1.6391 -0.0053
 7876TIP3   OH245118   6.281   4.042  15.957  0.1669 -0.5456  0.2839
 7876TIP3    H145119   6.322   3.961  15.985 -0.2549 -0.6887  0.4964
 7876TIP3    H245120   6.354   4.102  15.940  0.7081 -1.9514 -3.0739
 7877TIP3   OH245121   3.643   0.030   2.793 -0.3767 -0.1619  0.2935
 7877TIP3    H145122   3.653   0.001   2.703  0.5151  1.7853 -0.2750
 7877TIP3    H245123   3.729   0.015   2.833 -1.2173 -2.6352  1.3902
 7878TIP3   OH245124   4.710   2.468  16.697 -0.7350  0.0080  0.3999
 7878TIP3    H145125   4.733   2.386  16.653 -2.3335 -0.9525  1.2803
 7878TIP3    H245126   4.758   2.466  16.780  0.1529  0.5471 -0.0853
 7879TIP3   OH245127   5.082   3.141   4.466  0.2795  0.2927  0.2305
 7879TIP3    H145128   5.061   3.226   4.506 -0.8656 -0.3878  1.1408
 7879TIP3    H245129   5.140   3.163   4.393  1.0877  1.7483  1.2435
 7880TIP3   OH245130   6.081   0.986  14.626  0.3435  0.2902  0.0981
 7880TIP3    H145131   6.136   0.924  14.577  0.8194  0.6378  0.1849
 7880TIP3    H245132   6.009   0.933  14.659 -1.0427  0.3512 -2.5243
 7881TIP3   OH245133   5.310   1.409  12.653  0.2159  0.3906  0.4890
 7881TIP3    H145134   5.341   1.323  12.625  2.2885  0.5603  2.0184
 7881TIP3    H245135   5.221   1.415  12.618  0.5119 -1.7814 -0.8344
 7882TIP3   OH245136   2.856   2.570  14.067  0.3236  0.3470  0.0749
 7882TIP3    H145137   2.878   2.659  14.095 -0.0525  0.4553  0.0330
 7882TIP3    H245138   2.789   2.542  14.130  1.4201 -0.4265  0.9550
 7883TIP3   OH245139   5.232   6.340  12.042  0.6331 -0.7472 -0.1675
 7883TIP3    H145140   5.275   6.346  11.957  1.7720 -0.2550  0.4197
 7883TIP3    H245141   5.296   6.374  12.104 -0.2918 -0.8006  0.8568
 7884TIP3   OH245142   1.839   6.414   1.008  0.2772  0.1169 -0.2024
 7884TIP3    H145143   1.781   6.395   1.081  0.7133 -4.5785 -0.7765
 7884TIP3    H245144   1.901   6.479   1.042  0.8363 -2.2379  3.9161
 7885TIP3   OH245145   6.543   0.572   3.683 -0.2041 -0.8554 -0.3617
 7885TIP3    H145146   6.447   0.570   3.676 -0.0622 -3.1974 -3.2572
 7885TIP3    H245147   6.565   0.499   3.740 -0.0918 -1.3724 -1.0598
 7886TIP3   OH245148   0.542   1.996   5.205  0.0815  0.0373  0.5821
 7886TIP3    H145149   0.552   1.976   5.298 -0.8484 -2.1337  0.2834
 7886TIP3    H245150   0.449   1.986   5.188 -0.0133  1.9247 -0.3205
 7887TIP3   OH245151   6.071   1.372   0.459  0.5641  0.3388  0.1125
 7887TIP3    H145152   6.115   1.454   0.436 -1.2935  1.4408  0.2285
 7887TIP3    H245153   6.047   1.333   0.375  1.4751 -0.1085  0.0561
 7888TIP3   OH245154   2.839   2.594  16.175  0.4245 -0.2231  0.3877
 7888TIP3    H145155   2.757   2.557  16.207 -0.1023  0.6183  0.0161
 7888TIP3    H245156   2.838   2.578  16.081  0.2124  0.7041  0.2309
 7889TIP3   OH245157   5.151   5.022   5.872 -0.3166  0.5004  0.1277
 7889TIP3    H145158   5.187   5.015   5.783 -0.7315  2.2992 -0.2234
 7889TIP3    H245159   5.223   4.996   5.929  0.7583  1.6235 -0.6609
 7890TIP3   OH245160   5.865   1.148  13.503  0.2861 -0.7814 -0.6072
 7890TIP3    H145161   5.795   1.198  13.460 -0.3922 -0.0180  1.2782
 7890TIP3    H245162   5.946   1.185  13.469 -0.2248  0.4107 -0.5667
 7891TIP3   OH245163   1.522   1.357  13.437  0.3718  0.2064  0.3221
 7891TIP3    H145164   1.513   1.441  13.482  0.8058  1.7316 -2.1954
 7891TIP3    H245165   1.617   1.343  13.432  0.3116 -0.2063  0.3647
 7892TIP3   OH245166   3.314   0.751  14.863  0.0674 -0.1597  0.0764
 7892TIP3    H145167   3.338   0.826  14.809 -0.7414  0.7920  0.9839
 7892TIP3    H245168   3.354   0.768  14.948 -0.4711 -0.5343  0.4166
 7893TIP3   OH245169   6.639   0.566  12.964  0.1372 -0.4140 -0.6841
 7893TIP3    H145170   6.561   0.523  12.929  0.3686 -1.7084  0.2883
 7893TIP3    H245171   6.712   0.524  12.918  0.3210 -0.2747 -0.5214
 7894TIP3   OH245172   1.095   5.443  16.354 -0.1621  0.0888 -0.1897
 7894TIP3    H145173   1.052   5.487  16.427 -0.1831  2.6123 -1.6209
 7894TIP3    H245174   1.032   5.449  16.282  0.6147 -0.6258 -0.9543
 7895TIP3   OH245175   4.792   2.275  12.525  0.0680 -0.1595  0.4184
 7895TIP3    H145176   4.781   2.368  12.547  1.9993 -0.3912  2.7799
 7895TIP3    H245177   4.725   2.230  12.575  0.8432 -0.2157  1.4396
 7896TIP3   OH245178   4.964   4.868   0.429  0.4516  0.4377 -0.7502
 7896TIP3    H145179   5.048   4.836   0.461 -0.6457 -3.4560 -1.2010
 7896TIP3    H245180   4.959   4.837   0.338 -2.5679 -2.2188  0.1420
 7897TIP3   OH245181   5.295   5.858  13.447  0.2456 -0.0453  0.1990
 7897TIP3    H145182   5.326   5.863  13.357  1.0392 -0.1957  0.4608
 7897TIP3    H245183   5.264   5.946  13.468 -0.8399 -0.2294 -0.5255
 7898TIP3   OH245184   6.131   5.340  12.124 -0.8779  0.7355  0.0736
 7898TIP3    H145185   6.154   5.271  12.062 -1.2660  1.9697 -1.5261
 7898TIP3    H245186   6.181   5.320  12.203  0.1901 -0.5074 -0.8743
 7899TIP3   OH245187   4.752   5.653  11.945 -0.1329 -0.3089 -0.4604
 7899TIP3    H145188   4.737   5.746  11.925  2.5693  0.6708  1.3901
 7899TIP3    H245189   4.818   5.654  12.014  0.6545 -3.6775 -0.9820
 7900TIP3   OH245190   3.101   3.866   2.939 -0.0866 -0.2777  0.0807
 7900TIP3    H145191   3.168   3.851   3.005 -0.0284 -2.9801 -0.4943
 7900TIP3    H245192   3.142   3.838   2.857 -0.9546  0.7812 -0.7410
 7901TIP3   OH245193   6.603   3.425  12.154  0.1268 -0.3191 -0.2128
 7901TIP3    H145194   6.581   3.361  12.221 -0.2679 -0.0759 -0.1081
 7901TIP3    H245195   6.555   3.504  12.178  0.1113 -0.1765 -0.6867
 7902TIP3   OH245196   6.206   1.774   2.644  0.0027 -0.0375  0.2463
 7902TIP3    H145197   6.158   1.831   2.584 -1.4945 -1.1565  0.3328
 7902TIP3    H245198   6.191   1.812   2.731  0.6884  0.5601  0.1152
 7903TIP3   OH245199   0.673   6.044  13.750 -0.5145  0.2917  0.4354
 7903TIP3    H145200   0.595   6.004  13.712 -1.4680  0.8334  1.7299
 7903TIP3    H245201   0.646   6.071  13.838  1.2688  0.0957  1.0885
 7904TIP3   OH245202   3.285   0.526  10.810  0.3404 -0.0317  0.0122
 7904TIP3    H145203   3.247   0.571  10.885  2.5489  1.0593  0.5555
 7904TIP3    H245204   3.230   0.553  10.736 -0.8532  0.2314  0.9698
 7905TIP3   OH245205   6.512   1.344  12.274 -0.1584  0.2674  0.2194
 7905TIP3    H145206   6.458   1.388  12.340 -0.2617 -0.2535  0.4874
 7905TIP3    H245207   6.448   1.308  12.212 -0.0368  2.3850 -1.2706
 7906TIP3   OH245208   6.599   0.724   1.093 -0.2588  0.2979  0.1867
 7906TIP3    H145209   6.525   0.681   1.051 -1.5648  0.7432  1.9376
 7906TIP3    H245210   6.669   0.721   1.027 -0.8117 -2.9005 -0.4161
 7907TIP3   OH245211   2.294   1.692  12.174 -0.0860  0.3085  0.0271
 7907TIP3    H145212   2.344   1.773  12.173  0.0768  0.2169  0.4366
 7907TIP3    H245213   2.306   1.658  12.263 -0.8985  0.2993  0.1372
 7908TIP3   OH245214   6.821   2.428  16.971 -0.1961  0.3564  0.2665
 7908TIP3    H145215   6.901   2.440  16.920 -0.1616 -0.7266  0.0302
 7908TIP3    H245216   6.833   2.343  17.014 -0.2967  1.1742  1.9724
 7909TIP3   OH245217   4.664   4.878   3.032  0.2518 -0.1507  0.6816
 7909TIP3    H145218   4.724   4.809   3.060 -0.2902 -1.7041 -1.6293
 7909TIP3    H245219   4.577   4.845   3.054  0.0463  0.3030  0.5634
 7910TIP3   OH245220   4.402   5.538   2.069  0.4856  0.0754 -0.6985
 7910TIP3    H145221   4.311   5.548   2.095  0.0682 -1.1541 -1.5641
 7910TIP3    H245222   4.448   5.517   2.150 -0.1182  0.0212 -0.3631
 7911TIP3   OH245223   3.302   0.482   5.566 -0.7371 -0.7728  0.0786
 7911TIP3    H145224   3.220   0.523   5.593 -1.0367 -0.3709 -1.3476
 7911TIP3    H245225   3.369   0.548   5.587 -1.0552 -0.1267 -0.8840
 7912TIP3   OH245226   6.110   5.179  12.885  0.0857  0.0091  0.8756
 7912TIP3    H145227   6.144   5.132  12.962  1.8887  2.6211  1.7996
 7912TIP3    H245228   6.035   5.228  12.919 -0.5616 -0.6035  0.3680
 7913TIP3   OH245229   3.248   5.923   3.321 -0.2366  0.0002 -0.3583
 7913TIP3    H145230   3.221   5.928   3.413  0.7564 -0.0852 -0.0468
 7913TIP3    H245231   3.191   5.985   3.276 -1.5399 -0.8255  0.1011
 7914TIP3   OH245232   1.782   2.439  11.457 -0.0298 -0.3691 -0.3760
 7914TIP3    H145233   1.837   2.497  11.404 -0.3473 -0.1982 -0.5235
 7914TIP3    H245234   1.826   2.354  11.454 -0.3756 -0.5282 -1.4530
 7915TIP3   OH245235   3.438   5.196  17.015  0.0307  0.1848  0.1490
 7915TIP3    H145236   3.480   5.112  17.029 -0.5330 -0.3254 -1.0847
 7915TIP3    H245237   3.360   5.194  17.069  0.4997  0.3039  0.8424
 7916TIP3   OH245238   5.467   0.132   6.616  0.3041 -0.6357 -0.2780
 7916TIP3    H145239   5.459   0.077   6.538 -1.3662 -1.4764  0.4234
 7916TIP3    H245240   5.377   0.159   6.635  0.8321  0.5510  0.6778
 7917TIP3   OH245241   4.299   2.239   3.091 -0.1247  0.6632 -0.1466
 7917TIP3    H145242   4.240   2.228   3.016 -0.9535  0.1415  0.5621
 7917TIP3    H245243   4.326   2.331   3.087 -0.0130  0.6023 -1.1742
 7918TIP3   OH245244   4.203   5.259  12.706  0.1611 -0.4013  0.4953
 7918TIP3    H145245   4.110   5.279  12.712 -0.3972 -2.5301 -0.0487
 7918TIP3    H245246   4.208   5.164  12.716  2.1254 -0.5178 -0.9066
 7919TIP3   OH245247   4.992   1.704   2.617 -0.0060 -0.6672  0.1667
 7919TIP3    H145248   5.065   1.642   2.619  0.7975  0.2735  0.4504
 7919TIP3    H245249   4.948   1.686   2.534  1.8012  0.1419 -1.0255
 7920TIP3   OH245250   0.243   6.525   4.834 -0.0463  0.4437 -0.4082
 7920TIP3    H145251   0.227   6.589   4.765  0.6052 -0.6778 -1.6417
 7920TIP3    H245252   0.221   6.441   4.795  0.9541 -0.2938  0.5302
 7921TIP3   OH245253   6.807   1.483  12.632  0.3579 -0.5438  0.1074
 7921TIP3    H145254   6.717   1.453  12.622  0.6277 -1.0757 -0.7559
 7921TIP3    H245255   6.860   1.404  12.627  0.8735 -0.2531  0.7758
 7922TIP3   OH245256   3.564   2.285  13.518  0.3204  0.1292 -0.2408
 7922TIP3    H145257   3.518   2.221  13.463  2.2438 -1.1337 -0.5107
 7922TIP3    H245258   3.536   2.370  13.484 -0.4020 -0.6039 -1.5900
 7923TIP3   OH245259   1.554   6.377  14.953  0.3978  0.0898 -0.5495
 7923TIP3    H145260   1.607   6.446  14.990  1.2229 -0.4206 -0.7505
 7923TIP3    H245261   1.474   6.376  15.005  0.8750  0.4203  0.1900
 7924TIP3   OH245262   3.237   1.380   0.833  0.5059 -0.1296 -0.5379
 7924TIP3    H145263   3.150   1.396   0.797  0.6155  0.2207 -0.6483
 7924TIP3    H245264   3.221   1.323   0.908  0.2774 -0.8973 -1.1466
 7925TIP3   OH245265   3.716   1.205  16.253 -0.1950 -0.5418  0.2100
 7925TIP3    H145266   3.714   1.241  16.342  2.6497  0.9759 -0.2568
 7925TIP3    H245267   3.638   1.241  16.211 -1.1585 -0.6430  1.8305
 7926TIP3   OH245268   1.750   0.830   3.033 -0.3707 -0.0821 -0.0740
 7926TIP3    H145269   1.692   0.798   2.963  0.1287 -2.0252  0.3431
 7926TIP3    H245270   1.735   0.924   3.035 -2.8446 -0.4053 -0.5775
 7927TIP3   OH245271   1.874   3.897   2.346 -0.2313 -0.3189  0.1627
 7927TIP3    H145272   1.858   3.972   2.288 -1.1579  1.3735  2.4271
 7927TIP3    H245273   1.842   3.821   2.297 -2.1437  1.1722 -1.0515
 7928TIP3   OH245274   5.813   1.497   2.971  0.2771  0.5144 -0.0618
 7928TIP3    H145275   5.758   1.575   2.963  0.0489  0.3446 -0.1449
 7928TIP3    H245276   5.891   1.517   2.920  0.0199  0.5095 -0.4608
 7929TIP3   OH245277   1.603   6.092  13.023 -0.2648  0.5497 -0.1483
 7929TIP3    H145278   1.645   6.114  13.106  1.3225 -1.0554 -0.4717
 7929TIP3    H245279   1.675   6.078  12.962 -1.3240 -0.5426 -1.2094
 7930TIP3   OH245280   2.125   1.394  13.638 -0.4022  0.5534 -0.3566
 7930TIP3    H145281   2.051   1.447  13.609  0.0013  0.8086 -0.9249
 7930TIP3    H245282   2.096   1.304  13.625 -1.0091  0.6236  0.4163
 7931TIP3   OH245283   0.764   5.336   0.034  0.2140 -0.7209  0.6860
 7931TIP3    H145284   0.853   5.369   0.020  0.0675 -0.9862 -1.0373
 7931TIP3    H245285   0.709   5.414   0.027  0.2014 -0.7522  0.4201
 7932TIP3   OH245286   3.881   0.513  12.867  0.3612  0.6635 -0.0555
 7932TIP3    H145287   3.940   0.580  12.832  1.2810 -0.0191  0.1559
 7932TIP3    H245288   3.796   0.535  12.830  0.9830  0.9237 -1.4074
 7933TIP3   OH245289   3.806   5.142   4.922  0.3866  0.7748 -0.0488
 7933TIP3    H145290   3.804   5.155   4.827  2.8693  0.6963 -0.1621
 7933TIP3    H245291   3.871   5.204   4.953  0.3284  0.1036  1.4938
 7934TIP3   OH245292   5.763   2.194  16.400 -0.2217 -0.2753  0.2545
 7934TIP3    H145293   5.773   2.181  16.494  0.3578 -1.3471  0.0649
 7934TIP3    H245294   5.684   2.247  16.391 -0.5166 -0.5092  1.3163
 7935TIP3   OH245295   6.454   0.210   1.564  0.1155 -0.3831 -0.3635
 7935TIP3    H145296   6.489   0.153   1.633 -2.3423 -1.8395 -0.1598
 7935TIP3    H245297   6.392   0.267   1.609 -1.9452 -1.7243 -1.3107
 7936TIP3   OH245298   2.051   5.135   5.533  0.1785 -0.3085  0.7212
 7936TIP3    H145299   1.986   5.197   5.500  0.4544 -0.4948 -0.2256
 7936TIP3    H245300   2.003   5.081   5.596 -1.2542 -1.9192 -1.5874
 7937TIP3   OH245301   0.162   4.570   4.542 -0.4297 -0.0916 -0.1161
 7937TIP3    H145302   0.119   4.655   4.531 -1.7043 -0.8648 -1.6099
 7937TIP3    H245303   0.173   4.537   4.452  0.7577 -1.1561  0.3898
 7938TIP3   OH245304   6.114   3.219  16.687 -0.5235  0.6853  0.4149
 7938TIP3    H145305   6.024   3.219  16.653 -1.2646 -3.1800  1.8001
 7938TIP3    H245306   6.104   3.227  16.782  0.3519 -1.4660  0.7508
 7939TIP3   OH245307   4.891   1.336  16.495 -0.1073 -0.4339 -0.1616
 7939TIP3    H145308   4.930   1.291  16.421  0.1217 -1.9583  0.8567
 7939TIP3    H245309   4.961   1.393  16.528  0.3321 -1.0087 -0.0919
 7940TIP3   OH245310   4.307   1.108   0.407  0.0751  0.2305  0.5128
 7940TIP3    H145311   4.293   1.201   0.417  0.3076  0.5666 -1.6773
 7940TIP3    H245312   4.222   1.072   0.381 -0.0410 -0.2047  1.4451
 7941TIP3   OH245313   4.242   6.807   0.568  0.1019 -0.3841 -0.2226
 7941TIP3    H145314   4.310   6.777   0.629  0.4811  0.7687 -0.0547
 7941TIP3    H245315   4.214   6.728   0.523  0.6084 -1.0904  0.6629
 7942TIP3   OH245316   3.037   3.208  14.427  0.6346  0.2004  0.3074
 7942TIP3    H145317   3.133   3.201  14.428  0.7062  0.0425 -1.7549
 7942TIP3    H245318   3.012   3.168  14.344 -1.2856 -0.1891  1.0364
 7943TIP3   OH245319   1.869   1.535   3.139  0.5184 -0.3358  0.0007
 7943TIP3    H145320   1.908   1.470   3.080  1.7646  1.8006 -1.6929
 7943TIP3    H245321   1.843   1.607   3.081 -0.6284  0.7694  1.8048
 7944TIP3   OH245322   1.259   5.075   4.496  0.0169  0.0704  0.3108
 7944TIP3    H145323   1.237   5.023   4.418 -2.3614  0.7786  0.4346
 7944TIP3    H245324   1.241   5.016   4.569 -1.6458  0.6487  0.4124
 7945TIP3   OH245325   2.628   1.513   3.284  0.4708 -0.5657  0.1138
 7945TIP3    H145326   2.644   1.480   3.372  2.1209 -0.1621  0.0010
 7945TIP3    H245327   2.715   1.515   3.243 -0.4631 -2.9243 -2.3230
 7946TIP3   OH245328   4.521   6.552   1.265 -0.1930  0.0010 -0.2213
 7946TIP3    H145329   4.598   6.568   1.209  1.0410 -0.7124  1.1900
 7946TIP3    H245330   4.453   6.610   1.230  1.5926  2.2021 -0.2775
 7947TIP3   OH245331   6.709   5.358  16.866  0.0356  0.1984 -0.5401
 7947TIP3    H145332   6.729   5.269  16.838  1.8545 -0.2035  1.7183
 7947TIP3    H245333   6.728   5.359  16.960 -3.8184  1.8825  0.4668
 7948TIP3   OH245334   5.967   6.416  14.464 -0.0766 -0.7136 -0.2258
 7948TIP3    H145335   6.010   6.458  14.538 -1.6005  0.8589 -0.1763
 7948TIP3    H245336   5.983   6.322  14.476 -0.5108 -0.5206  2.2241
 7949TIP3   OH245337   0.952   4.448   3.852 -0.2886 -0.3055  0.5688
 7949TIP3    H145338   0.990   4.410   3.931  1.1294  0.2069  0.1690
 7949TIP3    H245339   0.902   4.524   3.884 -0.0018 -0.2960  1.0104
 7950TIP3   OH245340   5.085   0.334   0.542  0.6563 -0.7923  0.1555
 7950TIP3    H145341   5.018   0.306   0.479 -0.5799 -1.1975  1.5786
 7950TIP3    H245342   5.071   0.276   0.618  3.6658 -1.9801 -0.0596
 7951TIP3   OH245343   0.377   3.196   0.302 -0.3863  0.0796 -0.1307
 7951TIP3    H145344   0.451   3.250   0.277 -0.6906  0.3252 -0.5179
 7951TIP3    H245345   0.352   3.150   0.221  0.3289 -1.2089  0.3540
 7952TIP3   OH245346   4.032   1.091   0.350 -0.2780  0.3475  1.2110
 7952TIP3    H145347   4.034   1.109   0.255  0.8539 -0.1102  1.1375
 7952TIP3    H245348   3.987   1.167   0.387 -2.1948 -0.2190  0.1622
 7953TIP3   OH245349   0.311   0.257   5.366  0.0462  0.1902  0.1629
 7953TIP3    H145350   0.301   0.352   5.364  1.2420  0.3322  0.2855
 7953TIP3    H245351   0.259   0.229   5.442 -3.8001  0.2302 -2.1940
 7954TIP3   OH245352   6.558   6.504  15.459  0.0545 -0.1570  0.0329
 7954TIP3    H145353   6.560   6.460  15.544 -0.1403  1.8517  1.1177
 7954TIP3    H245354   6.589   6.593  15.477 -0.9159  0.5976 -1.8195
 7955TIP3   OH245355   3.445   2.336  13.804  0.1870 -0.5214  0.4669
 7955TIP3    H145356   3.381   2.274  13.839  0.5384 -0.1071  1.9064
 7955TIP3    H245357   3.487   2.289  13.732 -0.9860 -1.1828  0.1813
 7956TIP3   OH245358   5.864   5.269  15.416 -0.0992 -0.2484 -0.5200
 7956TIP3    H145359   5.786   5.221  15.443  0.0084 -0.1601 -0.0306
 7956TIP3    H245360   5.841   5.309  15.333 -0.5538 -0.2803 -0.4107
 7957TIP3   OH245361   2.239   1.847   0.484  0.0110  0.0253 -0.4164
 7957TIP3    H145362   2.192   1.931   0.476  0.9015  0.6787  0.8576
 7957TIP3    H245363   2.327   1.866   0.453 -0.5318 -1.2560 -2.9986
 7958TIP3   OH245364   4.433   4.496   4.372  0.0663  0.1213  0.1186
 7958TIP3    H145365   4.496   4.547   4.424  0.4346  0.3898 -0.5802
 7958TIP3    H245366   4.348   4.515   4.411  0.3722  0.0661  0.8267
 7959TIP3   OH245367   0.631   2.148  15.923 -0.4284  0.0561  0.5866
 7959TIP3    H145368   0.598   2.157  16.013  1.3079  0.5627  1.2128
 7959TIP3    H245369   0.563   2.100  15.877 -2.9964  2.7244  1.2528
 7960TIP3   OH245370   1.981   2.495  15.788  0.1845  0.4298  0.0413
 7960TIP3    H145371   1.990   2.520  15.880  1.5169 -0.7104  0.2612
 7960TIP3    H245372   2.062   2.525  15.747  0.4874 -0.7894 -0.3108
 7961TIP3   OH245373   1.576   3.127   3.006  0.6352  0.2988  0.8694
 7961TIP3    H145374   1.481   3.115   3.010  0.4827  0.9377 -0.3872
 7961TIP3    H245375   1.590   3.183   2.929  2.0008  0.5101  1.2509
 7962TIP3   OH245376   2.782   0.070   0.033 -0.2539 -0.5529 -0.1556
 7962TIP3    H145377   2.837   0.023  -0.030  3.0127  2.0205  0.4971
 7962TIP3    H245378   2.785   0.016   0.112 -0.0203 -1.2639 -0.6386
 7963TIP3   OH245379   1.041   4.748   4.460  0.3359  0.3421  0.3084
 7963TIP3    H145380   0.951   4.722   4.480  0.1070 -2.2907 -3.1894
 7963TIP3    H245381   1.057   4.713   4.372  4.9740  0.2070  0.9550
 7964TIP3   OH245382   0.400   3.132   1.150 -0.4284 -0.4311 -0.1160
 7964TIP3    H145383   0.351   3.094   1.077  0.6061 -2.6337  0.2792
 7964TIP3    H245384   0.453   3.200   1.109 -0.1421 -1.3788 -1.3752
 7965TIP3   OH245385   6.019   5.518   2.788  0.7702  0.2637 -0.0104
 7965TIP3    H145386   5.991   5.591   2.733  1.5495  0.3890 -0.2465
 7965TIP3    H245387   6.090   5.553   2.841  0.7638 -0.1657  0.2923
 7966TIP3   OH245388   0.689   3.600  13.833  0.1928  0.5826  0.1166
 7966TIP3    H145389   0.738   3.683  13.831  0.3419  0.5019  0.3943
 7966TIP3    H245390   0.616   3.614  13.773  0.9380  0.4693 -0.8362
 7967TIP3   OH245391   3.981   0.619  17.051  0.3323 -0.4484 -0.1803
 7967TIP3    H145392   4.030   0.679  17.108 -3.1314  2.1629  0.4028
 7967TIP3    H245393   3.990   0.656  16.963  0.4285 -0.6946 -0.2750
 7968TIP3   OH245394   0.516   2.870   3.121 -0.3604 -0.3993  0.2163
 7968TIP3    H145395   0.502   2.964   3.130  1.6803  0.0750 -1.0169
 7968TIP3    H245396   0.446   2.841   3.063  0.4972  0.8850 -1.5467
 7969TIP3   OH245397   0.854   3.318  15.503 -0.5189  0.7921 -0.2867
 7969TIP3    H145398   0.853   3.233  15.458 -0.6521  1.0763 -0.8266
 7969TIP3    H245399   0.804   3.376  15.445  0.4911  1.5062 -0.4551
 7970TIP3   OH245400   2.517   2.811  16.569  0.1980  0.1133  0.2402
 7970TIP3    H145401   2.512   2.856  16.485  0.7847 -1.6443 -0.7989
 7970TIP3    H245402   2.426   2.788  16.590  0.0842  0.2285 -0.1218
 7971TIP3   OH245403   3.849   5.489   2.505  0.2503 -0.0439 -0.5131
 7971TIP3    H145404   3.753   5.492   2.505  0.2297 -0.6121 -0.1165
 7971TIP3    H245405   3.872   5.433   2.579  0.9168  0.6990 -0.1467
 7972TIP3   OH245406   3.904   4.987  11.558 -0.2319  0.0749 -0.0651
 7972TIP3    H145407   3.860   4.965  11.640 -0.2083 -0.2620 -0.1400
 7972TIP3    H245408   3.977   4.925  11.553 -0.4996 -0.2083 -0.5571
 7973TIP3   OH245409   1.328   5.883   5.624  0.2399  0.1538  0.2628
 7973TIP3    H145410   1.374   5.897   5.707  0.8247  1.0401 -0.1917
 7973TIP3    H245411   1.358   5.954   5.567  0.5898 -0.9790 -1.0318
 7974TIP3   OH245412   6.835   4.621  12.491  0.1190 -0.0286 -0.4206
 7974TIP3    H145413   6.782   4.579  12.423  1.4965 -1.8080 -0.4741
 7974TIP3    H245414   6.833   4.560  12.565  2.5943 -0.5411 -0.6891
 7975TIP3   OH245415   4.492   4.269   5.045 -0.3509 -0.1560  0.2230
 7975TIP3    H145416   4.434   4.208   5.090 -2.4366  2.2304  1.0204
 7975TIP3    H245417   4.501   4.343   5.106  1.4545  0.6916 -0.9710
 7976TIP3   OH245418   1.448   4.005  11.043  0.4051 -0.3617 -0.4625
 7976TIP3    H145419   1.426   3.933  11.102 -0.3415  0.0655 -0.2033
 7976TIP3    H245420   1.395   4.078  11.075  0.7418  0.1483 -1.0616
 7977TIP3   OH245421   2.003   3.332  10.532 -0.1376 -0.3298  0.1826
 7977TIP3    H145422   1.927   3.284  10.499 -0.2335  0.5036 -0.8459
 7977TIP3    H245423   2.075   3.269  10.525 -0.3208 -0.4391 -0.8492
 7978TIP3   OH245424   1.758   5.634   4.967  0.1288  0.1171 -0.0283
 7978TIP3    H145425   1.715   5.707   4.922 -0.0111  1.0694  1.5747
 7978TIP3    H245426   1.848   5.635   4.933 -0.4814 -0.5275 -1.8012
 7979TIP3   OH245427   0.234   0.930   1.893 -0.3662  0.5083  0.3014
 7979TIP3    H145428   0.227   1.020   1.925 -1.6564  0.7159 -0.5371
 7979TIP3    H245429   0.201   0.933   1.803  0.1985 -0.6830  0.0351
 7980TIP3   OH245430   4.414   3.505  11.644 -0.0679  0.0781 -0.3526
 7980TIP3    H145431   4.318   3.500  11.639 -0.0182 -0.4884 -0.8916
 7980TIP3    H245432   4.434   3.469  11.731 -0.4439  2.0663  0.6116
 7981TIP3   OH245433   2.116   5.034   5.069  1.2326 -0.0779 -0.0229
 7981TIP3    H145434   2.089   5.126   5.074 -1.1719 -0.7163 -0.1279
 7981TIP3    H245435   2.156   5.016   5.154  0.4331  0.7171  0.5393
 7982TIP3   OH245436   0.629   2.764  13.381  0.3120 -0.1135  0.0014
 7982TIP3    H145437   0.676   2.845  13.398 -0.3993  0.2510  0.3022
 7982TIP3    H245438   0.615   2.726  13.468 -2.0401  1.0098  0.2159
 7983TIP3   OH245439   6.555   3.474   5.893  0.0970  0.2753 -0.0839
 7983TIP3    H145440   6.613   3.447   5.964  1.9925  2.2616 -0.7450
 7983TIP3    H245441   6.471   3.490   5.934  0.4600 -1.0610  1.2366
 7984TIP3   OH245442   6.400   2.419   0.396  0.3562  0.6193 -0.0519
 7984TIP3    H145443   6.472   2.466   0.355  0.6866 -0.2833 -0.5497
 7984TIP3    H245444   6.442   2.368   0.466  0.3922 -0.7059 -0.9988
 7985TIP3   OH245445   4.916   5.075   5.344 -0.5282  0.3291 -0.3983
 7985TIP3    H145446   4.885   5.158   5.383 -0.3907  0.2746 -0.1716
 7985TIP3    H245447   5.011   5.080   5.350 -0.5459 -0.2507  0.4707
 7986TIP3   OH245448   2.336   0.743  14.240 -0.4432 -0.3494 -0.1891
 7986TIP3    H145449   2.283   0.798  14.297  0.2488  0.6742 -0.5097
 7986TIP3    H245450   2.331   0.656  14.279 -1.8275 -0.1516  0.1404
 7987TIP3   OH245451   5.133   3.682  12.209 -0.4569  0.1349 -0.1761
 7987TIP3    H145452   5.141   3.693  12.304 -1.1420 -0.5311 -0.0346
 7987TIP3    H245453   5.102   3.767  12.178  0.9329  0.7453  0.0338
 7988TIP3   OH245454   4.984   6.028   1.918  0.3981  0.3292 -0.0668
 7988TIP3    H145455   4.973   6.024   2.013  0.6424 -1.3635 -0.0740
 7988TIP3    H245456   4.944   5.947   1.886  1.8450  0.0198 -1.2329
 7989TIP3   OH245457   4.117   6.023   5.295 -0.0712  1.0958  0.1210
 7989TIP3    H145458   4.168   6.099   5.266 -0.2374  2.2475  2.5616
 7989TIP3    H245459   4.158   5.996   5.377 -1.3261 -0.1190  0.3914
 7990TIP3   OH245460   4.936   6.288  12.875  0.9780 -0.1805 -0.0369
 7990TIP3    H145461   4.931   6.214  12.935  1.3307 -0.0941  0.1049
 7990TIP3    H245462   4.944   6.365  12.932  0.9414 -0.0643 -0.1880
 7991TIP3   OH245463   5.059   4.307  15.901  0.0539 -0.4031 -1.0750
 7991TIP3    H145464   5.041   4.279  15.812 -0.1627 -0.1576 -1.1111
 7991TIP3    H245465   5.007   4.387  15.912  0.7896  0.0826 -1.0380
 7992TIP3   OH245466   0.512   2.604   5.539  0.2701 -0.1811  0.0284
 7992TIP3    H145467   0.516   2.697   5.562  0.4486  0.2250 -1.5459
 7992TIP3    H245468   0.579   2.563   5.595  0.2872  0.6575  0.6337
 7993TIP3   OH245469   2.382   5.026  16.844 -0.2884 -0.2345 -0.2596
 7993TIP3    H145470   2.329   5.069  16.910  1.3303  1.2830  0.1251
 7993TIP3    H245471   2.470   5.022  16.882  0.1833 -1.4601 -1.3874
 7994TIP3   OH245472   3.697   1.072  11.491 -0.4744  0.1065 -0.0307
 7994TIP3    H145473   3.775   1.084  11.546 -0.0429 -2.1174 -0.0573
 7994TIP3    H245474   3.732   1.046  11.406 -1.1556 -2.9180  0.4849
 7995TIP3   OH245475   1.758   5.639   0.287 -0.3234 -0.0309 -0.0190
 7995TIP3    H145476   1.849   5.635   0.318  0.7125 -0.7669 -2.8752
 7995TIP3    H245477   1.707   5.657   0.366  2.3603  1.2711  1.5581
 7996TIP3   OH245478   4.325   2.459   1.567  0.0501 -0.1114  0.3651
 7996TIP3    H145479   4.397   2.424   1.514 -1.0222 -1.0846 -0.4840
 7996TIP3    H245480   4.322   2.552   1.544 -0.5347 -0.5543 -1.4988
 7997TIP3   OH245481   3.074   3.998  15.533 -0.5214  0.0893  0.6146
 7997TIP3    H145482   3.065   4.078  15.483 -0.3950 -0.6435 -0.6172
 7997TIP3    H245483   3.045   3.928  15.474  3.0191 -1.2216  0.1742
 7998TIP3   OH245484   5.661   5.358  14.893 -0.0189  0.0395 -0.1086
 7998TIP3    H145485   5.744   5.341  14.848  0.0108 -0.2845  0.0672
 7998TIP3    H245486   5.670   5.447  14.926 -1.0370  1.3027 -2.9439
 7999TIP3   OH245487   0.397   2.966   5.757 -0.1308  0.3439 -0.1078
 7999TIP3    H145488   0.339   2.891   5.773  0.3264  0.3047  1.6009
 7999TIP3    H245489   0.467   2.930   5.702 -0.3619 -0.2720 -0.0136
 8000TIP3   OH245490   6.318   4.665  11.701  0.0693 -0.6648  0.2305
 8000TIP3    H145491   6.259   4.594  11.674 -1.5813  1.1503 -1.2950
 8000TIP3    H245492   6.268   4.714  11.767 -0.2452  0.9361 -1.1209
 8001TIP3   OH245493   2.596   6.144  11.208  0.3516 -0.4301 -0.0067
 8001TIP3    H145494   2.552   6.141  11.124  0.2993 -3.6754 -0.0149
 8001TIP3    H245495   2.689   6.145  11.186  0.3409 -1.4129 -0.1566
 8002TIP3   OH245496   6.095   4.048  11.411  0.4023 -0.1999 -0.2644
 8002TIP3    H145497   6.083   4.052  11.316  1.3302  2.0770 -0.3459
 8002TIP3    H245498   6.126   3.959  11.427 -0.3867 -0.8266 -2.0111
 8003TIP3   OH245499   0.409   5.635   4.365  0.0492  0.3234  0.1047
 8003TIP3    H145500   0.364   5.626   4.449  0.2439  0.8855  0.2783
 8003TIP3    H245501   0.460   5.555   4.356 -1.5921 -0.6930 -0.4828
 8004TIP3   OH245502   5.851   0.944  17.137  0.2074  0.0919  0.1501
 8004TIP3    H145503   5.920   0.930  17.072  1.0563 -0.6373  1.1700
 8004TIP3    H245504   5.898   0.971  17.216 -0.7402  0.2314  0.6731
 8005TIP3   OH245505   4.949   2.860   2.186  0.3358 -0.1860 -0.5687
 8005TIP3    H145506   4.988   2.887   2.269 -0.1074  1.3646 -0.8299
 8005TIP3    H245507   5.002   2.786   2.157  0.5807 -0.6650  1.0141
 8006TIP3   OH245508   2.606   1.992   1.204 -0.0790  0.1708  0.4069
 8006TIP3    H145509   2.678   2.055   1.201 -0.2213  0.4060  1.5451
 8006TIP3    H245510   2.546   2.021   1.136 -1.0161  2.3689  2.0662
 8007TIP3   OH245511   4.562   5.660  12.250  0.0840 -0.0972 -0.4055
 8007TIP3    H145512   4.543   5.578  12.295  0.6876 -0.2621 -0.4384
 8007TIP3    H245513   4.594   5.718  12.319 -0.5708  0.1909 -0.3420
 8008TIP3   OH245514   4.302   0.894   2.415  0.4732  0.6128 -0.2985
 8008TIP3    H145515   4.338   0.810   2.442  0.3961  0.9065  0.7705
 8008TIP3    H245516   4.244   0.919   2.487  0.7775  1.7548 -0.4306
 8009TIP3   OH245517   0.468   5.644   1.798 -0.0712 -0.1010 -0.2936
 8009TIP3    H145518   0.486   5.551   1.813 -0.4327  0.1302  1.9510
 8009TIP3    H245519   0.385   5.645   1.749  0.2505 -0.9584 -0.8765
 8010TIP3   OH245520   0.115   2.058  10.935 -0.0280  0.2572  0.1347
 8010TIP3    H145521   0.180   2.091  10.873  0.5716 -1.6712 -0.3462
 8010TIP3    H245522   0.058   2.133  10.954  0.8313  1.3337 -1.3880
 8011TIP3   OH245523   3.222   6.051   3.595 -0.3022  0.1555 -0.6624
 8011TIP3    H145524   3.289   6.103   3.550  1.5996 -1.7982 -0.2296
 8011TIP3    H245525   3.241   6.061   3.688 -0.3551 -0.7041 -0.5475
 8012TIP3   OH245526   6.682   4.995   3.951 -0.0279 -0.0511 -0.5112
 8012TIP3    H145527   6.656   4.995   4.043  1.9472 -0.6416  0.1009
 8012TIP3    H245528   6.778   4.994   3.953  0.0842  0.9520 -2.5961
 8013TIP3   OH245529   6.111   0.872   6.263 -0.8742 -0.0966  0.6581
 8013TIP3    H145530   6.157   0.788   6.266 -0.7126 -0.0564 -0.3232
 8013TIP3    H245531   6.127   0.911   6.349 -0.9011 -1.0357  1.1042
 8014TIP3   OH245532   2.970   5.032  14.685  0.5260  0.5937 -0.9447
 8014TIP3    H145533   2.999   5.049  14.596  0.6094 -0.6428 -1.1770
 8014TIP3    H245534   2.998   4.942  14.702 -0.1264  0.5680  0.0745
 8015TIP3   OH245535   1.665   1.155   0.892  0.2757 -0.1275 -0.0193
 8015TIP3    H145536   1.698   1.226   0.948 -1.5445  0.6973  0.0691
 8015TIP3    H245537   1.691   1.180   0.803 -0.0354  0.4599  0.0547
 8016TIP3   OH245538   1.240   6.203  14.015 -0.5726 -0.0356  0.3147
 8016TIP3    H145539   1.311   6.223  13.953 -1.7657  1.4237 -0.6308
 8016TIP3    H245540   1.221   6.110  13.999 -0.1336  0.0397 -0.7621
 8017TIP3   OH245541   4.348   3.005  10.937 -0.4594  0.0200 -0.2631
 8017TIP3    H145542   4.267   3.016  10.988 -0.1256  1.7499 -0.0344
 8017TIP3    H245543   4.364   3.091  10.899  1.4132 -0.2176 -0.1050
 8018TIP3   OH245544   6.323   1.838  11.381 -0.3344  0.1056 -0.3350
 8018TIP3    H145545   6.260   1.787  11.431 -0.6141  0.4878 -0.2879
 8018TIP3    H245546   6.279   1.922  11.367 -0.1862  0.0726 -1.0482
 8019TIP3   OH245547   6.119   0.323  13.387 -0.3551  0.5120  0.0728
 8019TIP3    H145548   6.095   0.281  13.304  0.7191 -0.3771  0.1805
 8019TIP3    H245549   6.116   0.417  13.368 -0.7897  0.3377 -0.7759
 8020TIP3   OH245550   4.878   6.357  16.652  0.0847 -0.6701  0.4020
 8020TIP3    H145551   4.887   6.334  16.560 -0.6053  0.5739  0.0134
 8020TIP3    H245552   4.878   6.452  16.654 -0.6576 -0.6664  1.6040
 8021TIP3   OH245553   4.946   0.525  13.526  0.4640 -0.9572 -0.1178
 8021TIP3    H145554   5.022   0.468  13.513  0.1536 -1.0805 -1.5393
 8021TIP3    H245555   4.971   0.581  13.600  1.9201 -1.0288 -0.5273
 8022TIP3   OH245556   1.050   2.693   0.022  0.7930  0.4532  0.4495
 8022TIP3    H145557   0.973   2.746   0.043  1.0520  0.6226  0.9840
 8022TIP3    H245558   1.115   2.756  -0.008  0.7108  0.3031 -0.0667
 8023TIP3   OH245559   5.776   1.050  16.831  0.2018  0.1334  0.1259
 8023TIP3    H145560   5.844   0.995  16.870  0.7428  0.8137  0.1580
 8023TIP3    H245561   5.770   1.019  16.740  0.0544 -0.3933  0.3086
 8024TIP3   OH245562   3.882   4.634   3.959  0.8977  0.1205  0.5330
 8024TIP3    H145563   3.873   4.540   3.942 -1.3710  0.4351 -0.4520
 8024TIP3    H245564   3.908   4.671   3.876 -2.0470  0.7223 -0.2466
 8025TIP3   OH245565   4.940   1.103   3.248  0.0507 -0.3715  0.2147
 8025TIP3    H145566   5.008   1.170   3.252 -0.0955 -0.2495  3.0040
 8025TIP3    H245567   4.977   1.029   3.297 -1.0092 -1.1319 -0.0877
 8026TIP3   OH245568   2.986   6.700  12.688 -0.5605 -0.4586 -0.2165
 8026TIP3    H145569   2.928   6.734  12.620 -1.6879 -1.1446  0.3715
 8026TIP3    H245570   2.959   6.610  12.700 -0.4250 -0.3361  1.1855
 8027TIP3   OH245571   5.257   3.759   1.128  0.3647  0.3983  0.7679
 8027TIP3    H145572   5.262   3.687   1.066  0.0266  0.6303  0.4704
 8027TIP3    H245573   5.167   3.758   1.159  0.2693  0.9013  0.5112
 8028TIP3   OH245574   6.062   3.421  13.687  0.4812 -0.1809  0.4595
 8028TIP3    H145575   6.054   3.407  13.781  1.0808 -1.0345  0.3906
 8028TIP3    H245576   5.993   3.485  13.667 -0.9462 -1.4234  1.1663
 8029TIP3   OH245577   3.205   5.951  14.495 -0.0597 -0.4121  0.0248
 8029TIP3    H145578   3.223   5.895  14.570 -0.9543 -0.4516  0.2239
 8029TIP3    H245579   3.188   5.891  14.423  3.5300 -0.4247 -0.9883
 8030TIP3   OH245580   4.530   4.230   4.020 -0.1509  0.4233 -0.0219
 8030TIP3    H145581   4.574   4.285   3.956 -1.4460  1.6173  0.0731
 8030TIP3    H245582   4.460   4.187   3.970 -1.8977  2.2299  0.7435
 8031TIP3   OH245583   0.877   1.516   1.141  0.5077 -0.1499 -0.2125
 8031TIP3    H145584   0.881   1.447   1.208 -0.3223  0.1196  0.1317
 8031TIP3    H245585   0.964   1.515   1.101  0.5987 -1.2264 -0.0426
 8032TIP3   OH245586   6.494   4.203   2.107 -0.0788  0.0667  0.3052
 8032TIP3    H145587   6.498   4.288   2.151 -2.6535  1.0809 -1.1810
 8032TIP3    H245588   6.575   4.159   2.134  0.6293  2.3357  2.3662
 8033TIP3   OH245589   1.324   1.541  15.461  0.5575 -0.4538 -0.0285
 8033TIP3    H145590   1.402   1.502  15.502 -0.1016  1.5997  3.6017
 8033TIP3    H245591   1.342   1.635  15.459 -1.5646  0.0132  0.3943
 8034TIP3   OH245592   4.270   0.047  15.526  0.3696  0.1255  0.0858
 8034TIP3    H145593   4.320   0.023  15.605 -0.4882 -1.3585  0.2114
 8034TIP3    H245594   4.202   0.106  15.558  0.2766 -0.1477  0.3961
 8035TIP3   OH245595   2.461   6.325  15.272 -0.2775  0.5215 -0.6776
 8035TIP3    H145596   2.442   6.369  15.189 -0.1019  1.0194 -0.4581
 8035TIP3    H245597   2.442   6.233  15.255 -3.4754  1.0107 -0.3071
 8036TIP3   OH245598   1.737   0.128  14.506 -0.0635  0.0421  0.0590
 8036TIP3    H145599   1.811   0.144  14.564 -0.6902 -0.7771  1.1179
 8036TIP3    H245600   1.660   0.130  14.563 -0.7270 -0.5072 -0.7802
 8037TIP3   OH245601   2.171   0.077  14.880  0.3472 -0.4557  0.1845
 8037TIP3    H145602   2.138  -0.013  14.880  1.7511 -1.0006 -0.7782
 8037TIP3    H245603   2.266   0.067  14.876  0.4849  1.0688 -1.4986
 8038TIP3   OH245604   4.198   6.091   4.488 -0.2584  0.0155 -0.0695
 8038TIP3    H145605   4.160   6.067   4.404 -0.2213  2.2896 -0.7992
 8038TIP3    H245606   4.122   6.114   4.543 -0.1691  3.1719 -1.0772
 8039TIP3   OH245607   0.495   1.184   3.094 -0.5298  0.1165 -0.0531
 8039TIP3    H145608   0.434   1.191   3.020 -0.2769 -0.6334 -0.3492
 8039TIP3    H245609   0.579   1.161   3.053  0.1050  1.6490  0.2918
 8040TIP3   OH245610   2.829   3.967   4.575  0.8078 -0.4783 -0.5002
 8040TIP3    H145611   2.775   3.888   4.578  0.6078 -0.3402 -0.4509
 8040TIP3    H245612   2.917   3.936   4.593  1.0870 -1.0027 -2.5765
 8041TIP3   OH245613   5.111   1.555  11.160  0.4505 -0.0096  0.2196
 8041TIP3    H145614   5.070   1.517  11.238 -0.7884  2.2633  0.7771
 8041TIP3    H245615   5.086   1.496  11.089 -0.3018 -0.9222  1.2021
 8042TIP3   OH245616   3.608   2.707   1.569 -0.0463  0.3442  0.0333
 8042TIP3    H145617   3.615   2.627   1.622  2.1607  0.9519  0.7795
 8042TIP3    H245618   3.691   2.752   1.583 -1.3561  2.9940 -0.0455
 8043TIP3   OH245619   2.293   6.126  16.285  0.3770 -0.3342  0.0351
 8043TIP3    H145620   2.378   6.107  16.324 -1.1287 -2.5888  2.5988
 8043TIP3    H245621   2.268   6.211  16.319  1.6170  0.4293 -0.8856
 8044TIP3   OH245622   0.288   4.516  16.725  0.0529  0.0751 -0.6860
 8044TIP3    H145623   0.261   4.537  16.815  1.9136 -0.3950  0.0397
 8044TIP3    H245624   0.368   4.566  16.712  0.5194 -0.8740 -1.6099
 8045TIP3   OH245625   1.191   3.090  14.329  0.3602  0.3909 -0.1439
 8045TIP3    H145626   1.196   2.995  14.316 -0.1195  0.3959 -0.4017
 8045TIP3    H245627   1.272   3.124  14.291  1.1302 -0.0223  1.0702
 8046TIP3   OH245628   0.721   6.322   3.908 -0.3396  0.4524 -0.5704
 8046TIP3    H145629   0.738   6.239   3.864  0.5493  1.0871 -1.4734
 8046TIP3    H245630   0.807   6.363   3.916 -0.6303  0.8634  0.7685
 8047TIP3   OH245631   5.100   5.064   2.015  0.2804 -0.2432  0.3816
 8047TIP3    H145632   5.141   5.077   2.100 -0.9629 -1.8513  1.2895
 8047TIP3    H245633   5.006   5.072   2.033  0.0449  0.3307 -1.0298
 8048TIP3   OH245634   1.465   4.912   4.219  0.4299  0.5138  0.7871
 8048TIP3    H145635   1.517   4.835   4.242  0.3342  0.5176  1.0302
 8048TIP3    H245636   1.527   4.985   4.221  0.4718  0.4778  0.8055
 8049TIP3   OH245637   2.630   3.381  14.573  0.6596 -0.1087  0.9096
 8049TIP3    H145638   2.692   3.412  14.640  0.5503  2.2861 -0.0124
 8049TIP3    H245639   2.686   3.342  14.505  1.1870  1.6074  0.3060
 8050TIP3   OH245640   3.262   3.530  16.434 -0.2105  0.2878  0.0429
 8050TIP3    H145641   3.212   3.499  16.510  0.4921  1.6166  1.0745
 8050TIP3    H245642   3.214   3.495  16.358 -2.1662  0.7324  1.0209
 8051TIP3   OH245643   5.212   5.130   4.446  0.1091 -0.7695  0.1922
 8051TIP3    H145644   5.245   5.160   4.361  1.6348 -2.0000  0.3234
 8051TIP3    H245645   5.288   5.092   4.490 -0.5453  0.2213  2.3150
 8052TIP3   OH245646   6.387   0.611  16.772 -0.1169  0.4283 -0.5559
 8052TIP3    H145647   6.371   0.638  16.681  0.4882  0.5495 -0.6276
 8052TIP3    H245648   6.477   0.638  16.790  0.5888 -1.6585 -0.6744
 8053TIP3   OH245649   1.080   1.285   4.515 -0.2001  0.4641 -0.0997
 8053TIP3    H145650   0.984   1.288   4.517 -0.1718  2.5169  0.5923
 8053TIP3    H245651   1.103   1.222   4.583 -1.0581  1.5044  1.2126
 8054TIP3   OH245652   3.774   0.648   0.824 -0.1773 -0.5384 -0.4565
 8054TIP3    H145653   3.773   0.553   0.823 -1.4269 -0.5599  0.5988
 8054TIP3    H245654   3.684   0.674   0.807  0.2621  0.4842 -1.3836
 8055TIP3   OH245655   0.817   6.538  15.313  0.0645  0.2917  0.0639
 8055TIP3    H145656   0.795   6.506  15.226 -0.2118 -1.0649  0.5986
 8055TIP3    H245657   0.736   6.530  15.363  0.5224 -0.1426  0.7607
 8056TIP3   OH245658   0.234   4.789  16.015 -0.7630  0.2193 -0.0268
 8056TIP3    H145659   0.173   4.759  16.082 -1.3449  0.6826 -0.3457
 8056TIP3    H245660   0.180   4.834  15.950 -0.0760  0.7766 -0.2360
 8057TIP3   OH245661   1.377   2.919   3.852 -0.3481 -0.2152  0.0656
 8057TIP3    H145662   1.297   2.894   3.898 -0.1098 -0.0369  0.5845
 8057TIP3    H245663   1.347   2.972   3.777 -0.6501  0.9428  0.9747
 8058TIP3   OH245664   1.684   3.478   1.093  0.1322 -0.3553 -0.4637
 8058TIP3    H145665   1.742   3.465   1.019 -0.5919  0.8582 -1.2776
 8058TIP3    H245666   1.599   3.499   1.054 -0.1439  0.8253  0.6881
 8059TIP3   OH245667   5.174   5.397  14.372  0.5269  0.3248 -0.0532
 8059TIP3    H145668   5.129   5.409  14.456  1.1730 -0.1863  0.3788
 8059TIP3    H245669   5.253   5.348  14.394  2.2701  2.7578 -0.4697
 8060TIP3   OH245670   6.187   4.895   1.844 -0.1253 -0.1425 -0.3648
 8060TIP3    H145671   6.258   4.949   1.877  0.5183 -0.6045 -0.9554
 8060TIP3    H245672   6.143   4.950   1.779  1.4765 -0.8170 -2.0925
 8061TIP3   OH245673   0.454   4.129  12.535 -0.0170 -0.5989 -0.1660
 8061TIP3    H145674   0.488   4.175  12.457 -0.6397 -1.5146 -1.0028
 8061TIP3    H245675   0.371   4.172  12.554  0.5816  0.2634  0.6114
 8062TIP3   OH245676   6.811   4.074  14.969 -0.5701 -0.3877  0.0930
 8062TIP3    H145677   6.765   4.093  14.887  0.1376 -1.4621 -0.5869
 8062TIP3    H245678   6.843   4.159  14.999  1.4429 -0.2386 -2.1584
 8063TIP3   OH245679   5.353   5.724  15.002 -0.2374  0.5879  0.3264
 8063TIP3    H145680   5.431   5.778  15.005 -0.0799  0.3556  0.3843
 8063TIP3    H245681   5.311   5.748  14.919 -0.1992  0.8419  0.3811
 8064TIP3   OH245682   1.820   3.535   4.477  0.1320 -0.3465 -0.1674
 8064TIP3    H145683   1.895   3.510   4.530  0.2072  0.0392 -0.0830
 8064TIP3    H245684   1.748   3.545   4.540 -0.0770 -1.0583 -0.2938
 8065TIP3   OH245685   0.485   2.247   0.323 -0.0340  0.0050 -0.5853
 8065TIP3    H145686   0.394   2.240   0.349  0.1896  0.2674  0.2816
 8065TIP3    H245687   0.485   2.227   0.229 -0.9600 -0.1001 -0.5652
 8066TIP3   OH245688   4.817   2.826  16.730 -0.0059 -0.4792  0.4883
 8066TIP3    H145689   4.724   2.849  16.728  0.7805  3.2502 -0.1978
 8066TIP3    H245690   4.847   2.835  16.640  1.4965  0.9553  1.0747
 8067TIP3   OH245691   4.442   3.687  11.151 -0.3510  0.2142 -0.0110
 8067TIP3    H145692   4.461   3.780  11.149 -0.4074  0.2261 -1.5456
 8067TIP3    H245693   4.437   3.662  11.059 -0.8628 -1.1972  0.3730
 8068TIP3   OH245694   5.508   0.013  12.812  0.1647  0.2710  0.7122
 8068TIP3    H145695   5.450  -0.063  12.805 -2.3004  2.1083 -0.0441
 8068TIP3    H245696   5.536   0.014  12.904 -0.4492 -1.0283  0.9327
 8069TIP3   OH245697   4.914   0.857  12.639  0.2240 -0.4229  0.1605
 8069TIP3    H145698   4.878   0.917  12.705 -2.6207 -0.6029 -1.1080
 8069TIP3    H245699   4.881   0.771  12.664 -0.1155 -0.6303 -0.9868
 8070TIP3   OH245700   6.101   5.988   0.538 -0.0195 -0.0451 -0.5154
 8070TIP3    H145701   6.084   6.016   0.448  1.6406 -1.7761 -1.4441
 8070TIP3    H245702   6.164   6.051   0.571  1.2090 -0.7576 -1.4395
 8071TIP3   OH245703   4.859   5.895  17.149 -0.1658  0.1213 -0.1053
 8071TIP3    H145704   4.844   5.876  17.241 -0.5118  0.2533 -0.1354
 8071TIP3    H245705   4.806   5.832  17.102 -0.3675  0.3682 -0.2102
 8072TIP3   OH245706   0.541   2.776  11.363  0.5605 -0.1014  0.2034
 8072TIP3    H145707   0.622   2.794  11.411  0.3552  0.1472  0.4545
 8072TIP3    H245708   0.567   2.780  11.271  0.5120  1.6124  0.2223
 8073TIP3   OH245709   1.163   3.252   1.642  0.4662  0.7414 -0.0395
 8073TIP3    H145710   1.170   3.165   1.603 -0.7297  0.6512 -0.0879
 8073TIP3    H245711   1.170   3.313   1.569  2.4865  0.7606  0.1229
 8074TIP3   OH245712   1.073   4.539  13.806  0.1784 -0.0920 -0.1298
 8074TIP3    H145713   1.030   4.461  13.840 -0.1139  0.0070 -0.2634
 8074TIP3    H245714   1.096   4.590  13.884 -0.0363 -0.1013 -0.0601
 8075TIP3   OH245715   1.963   3.033   3.401 -0.1175  0.8287 -0.4524
 8075TIP3    H145716   2.018   2.995   3.332 -0.0967 -0.1278  0.0805
 8075TIP3    H245717   1.877   3.042   3.361 -0.4006 -0.8354 -0.2527
 8076TIP3   OH245718   0.417   0.780   4.532  0.2770 -0.0805 -0.0532
 8076TIP3    H145719   0.340   0.831   4.505  0.1403 -0.7995 -1.0821
 8076TIP3    H245720   0.390   0.689   4.521  1.6096 -0.3446 -1.4703
 8077TIP3   OH245721   5.830   5.123   6.207  0.5383  0.3976  0.8504
 8077TIP3    H145722   5.872   5.149   6.125  0.7262 -0.3965  0.6835
 8077TIP3    H245723   5.847   5.195   6.267  2.3622 -0.0122  0.8662
 8078TIP3   OH245724   5.370   1.191   3.173 -0.4518  0.4016 -0.3174
 8078TIP3    H145725   5.423   1.116   3.145 -0.9948 -0.8278  1.6972
 8078TIP3    H245726   5.393   1.261   3.113  2.9163 -0.3011 -0.0391
 8079TIP3   OH245727   0.523   2.229   5.366  0.1919 -0.6800 -0.4138
 8079TIP3    H145728   0.548   2.177   5.442 -0.6850  0.8180  0.9704
 8079TIP3    H245729   0.430   2.211   5.355  0.8046 -3.0677 -2.9905
 8080TIP3   OH245730   1.838   2.001   1.073 -0.5284  0.4143 -0.5648
 8080TIP3    H145731   1.774   1.939   1.107  0.9875  0.1117  2.0369
 8080TIP3    H245732   1.909   1.947   1.040 -0.5040  0.7573 -1.0813
 8081TIP3   OH245733   3.236   4.285   0.759 -0.0227  0.2610 -0.2965
 8081TIP3    H145734   3.184   4.348   0.809 -2.6987  0.2455 -2.7724
 8081TIP3    H245735   3.323   4.325   0.753 -0.0340  0.9987  2.8169
 8082TIP3   OH245736   5.045   3.058   3.305  0.3301  0.0818  0.1555
 8082TIP3    H145737   5.032   2.974   3.260 -0.9120 -0.3492  1.2458
 8082TIP3    H245738   5.040   3.123   3.235 -1.1795 -0.5990 -0.4186
 8083TIP3   OH245739   0.462   3.467   1.857  0.1852 -0.3340  0.2947
 8083TIP3    H145740   0.395   3.413   1.898  1.2581 -1.8229  0.1643
 8083TIP3    H245741   0.472   3.542   1.916  0.7742 -1.7842  2.1233
 8084TIP3   OH245742   4.009   5.661  14.466 -0.2419 -0.0229  0.4790
 8084TIP3    H145743   3.948   5.600  14.425  0.9123  0.2717 -1.8104
 8084TIP3    H245744   4.088   5.609  14.483 -0.6058 -0.0825  2.2334
 8085TIP3   OH245745   5.650   5.605  15.696  0.2369  0.2006 -0.2392
 8085TIP3    H145746   5.587   5.676  15.687 -0.5250 -0.4315  0.0214
 8085TIP3    H245747   5.733   5.649  15.719 -0.9738  0.8773  3.7255
 8086TIP3   OH245748   4.607   2.391  11.422  0.1467  0.4412 -0.2753
 8086TIP3    H145749   4.537   2.332  11.396 -1.1553  1.4961  0.6491
 8086TIP3    H245750   4.562   2.471  11.448  1.6851  1.0757  0.5897
 8087TIP3   OH245751   1.356   5.407   3.754 -0.5740 -0.0974  0.4788
 8087TIP3    H145752   1.272   5.402   3.709 -0.1740  0.9551 -0.4404
 8087TIP3    H245753   1.413   5.456   3.693  0.6703 -0.7094  1.1129
 8088TIP3   OH245754   4.686   2.594  17.066  0.7966  0.0457 -0.5619
 8088TIP3    H145755   4.709   2.686  17.053 -0.2743  0.3961 -0.1095
 8088TIP3    H245756   4.689   2.581  17.161  3.4665 -1.1064 -0.7063
 8089TIP3   OH245757   6.189   1.952   1.550 -0.2906  0.1841  0.1834
 8089TIP3    H145758   6.105   1.959   1.596 -0.1298 -0.8953  0.6663
 8089TIP3    H245759   6.169   1.984   1.461 -1.1195  0.2817  0.3904
 8090TIP3   OH245760   4.734   3.948   4.182  0.0389  0.4570 -0.0377
 8090TIP3    H145761   4.640   3.932   4.183 -0.1226  1.3170 -0.2027
 8090TIP3    H245762   4.742   4.042   4.168  0.9291  0.0984 -2.5379
 8091TIP3   OH245763   3.788   2.411  14.654  0.0415 -0.0147 -0.1070
 8091TIP3    H145764   3.726   2.400  14.726 -0.2087  1.8255 -0.0071
 8091TIP3    H245765   3.782   2.503  14.631  1.5883 -0.1482 -1.1650
 8092TIP3   OH245766   5.941   0.073  15.816 -0.3683 -0.4156  0.5199
 8092TIP3    H145767   5.911  -0.013  15.845  2.2063 -1.3473  0.6126
 8092TIP3    H245768   5.963   0.119  15.897  2.5575 -1.3859  0.3666
 8093TIP3   OH245769   6.017   3.733  13.623  0.2815 -0.6491  0.1600
 8093TIP3    H145770   5.993   3.816  13.581  1.9749 -0.0262  0.3639
 8093TIP3    H245771   6.100   3.709  13.583  1.2069 -0.8004  2.0629
 8094TIP3   OH245772   3.008   0.232  10.476 -0.0266  0.9500 -0.3050
 8094TIP3    H145773   3.103   0.223  10.487 -0.2464 -0.5477  0.7259
 8094TIP3    H245774   2.976   0.142  10.476 -1.4393  1.4393 -0.8114
 8095TIP3   OH245775   1.385   0.393  14.020  0.2568  0.3069 -0.0864
 8095TIP3    H145776   1.298   0.371  13.985  0.1867 -0.8015  0.7584
 8095TIP3    H245777   1.382   0.489  14.029  0.3851  0.7227 -3.3032
 8096TIP3   OH245778   3.202   1.230   1.662 -0.2981 -0.5823 -0.3095
 8096TIP3    H145779   3.188   1.221   1.757  2.4737 -2.0755  0.0502
 8096TIP3    H245780   3.165   1.315   1.641 -0.6592 -0.0290  2.2049
 8097TIP3   OH245781   4.848   3.864  15.821  0.2047 -0.1276  0.6491
 8097TIP3    H145782   4.877   3.813  15.898  1.7913  0.2444  0.3393
 8097TIP3    H245783   4.922   3.922  15.802 -1.0286  1.3217  0.1391
 8098TIP3   OH245784   0.523   1.910   0.538  0.1813 -0.0216  0.1110
 8098TIP3    H145785   0.454   1.971   0.565  0.3208 -0.3379  1.2450
 8098TIP3    H245786   0.605   1.955   0.559  0.3106  0.0539 -0.5465
 8099TIP3   OH245787   6.253   0.941   5.266 -0.0465 -0.0711  0.0838
 8099TIP3    H145788   6.165   0.945   5.305  0.4195  0.4451  1.1404
 8099TIP3    H245789   6.292   1.025   5.289  0.2448  0.2890 -1.5997
 8100TIP3   OH245790   1.327   2.432   6.226 -0.5284 -0.6416  0.0185
 8100TIP3    H145791   1.411   2.477   6.235 -0.7951  0.2200 -1.4248
 8100TIP3    H245792   1.307   2.438   6.132 -2.2010 -0.8303  0.3366
 8101TIP3   OH245793   3.509   3.984   3.435 -0.4730  0.0554 -0.2998
 8101TIP3    H145794   3.429   3.946   3.472  0.8160 -0.9420  1.6301
 8101TIP3    H245795   3.563   3.908   3.412  0.4830  0.6985 -0.2375
 8102TIP3   OH245796   0.481   6.072   5.181  0.0877 -0.1600  0.0228
 8102TIP3    H145797   0.460   5.980   5.200  0.2353  0.0884  1.4812
 8102TIP3    H245798   0.507   6.071   5.089 -0.0479 -1.5609 -0.0330
 8103TIP3   OH245799   0.629   1.818   6.285 -0.1163  0.2327 -1.0635
 8103TIP3    H145800   0.534   1.821   6.297 -0.1660  1.2655 -1.6385
 8103TIP3    H245801   0.657   1.909   6.285  1.1738 -0.0856  1.1089
 8104TIP3   OH245802   1.656   0.501  10.962 -0.3109  0.0407  0.0369
 8104TIP3    H145803   1.654   0.597  10.968 -0.5334  0.0189  0.3149
 8104TIP3    H245804   1.720   0.475  11.028 -1.2983 -0.0841  0.9575
 8105TIP3   OH245805   1.739   6.557  15.367 -1.0767  0.0891  0.7149
 8105TIP3    H145806   1.755   6.465  15.387 -0.2855  0.0984  0.1608
 8105TIP3    H245807   1.774   6.604  15.444  2.1873  0.1374 -0.6284
 8106TIP3   OH245808   1.818   2.917  14.434 -0.1263 -0.0890  0.0784
 8106TIP3    H145809   1.909   2.889  14.434  0.2676  1.0974  0.8175
 8106TIP3    H245810   1.773   2.855  14.492  0.4477 -0.0124  0.6150
 8107TIP3   OH245811   5.535   5.322   1.167  0.2245  0.1434 -0.5097
 8107TIP3    H145812   5.503   5.232   1.157 -0.7109  0.0462  2.4504
 8107TIP3    H245813   5.483   5.357   1.240  0.5218  3.1285 -1.6273
 8108TIP3   OH245814   5.021   2.744   0.733 -0.1994 -0.5047 -0.1783
 8108TIP3    H145815   4.985   2.733   0.821 -1.6362  1.1243 -0.5104
 8108TIP3    H245816   5.085   2.815   0.742  3.2696 -3.4263  0.4279
 8109TIP3   OH245817   2.177   3.874   6.143 -0.6183 -0.1670 -0.2623
 8109TIP3    H145818   2.169   3.920   6.227  0.3518  0.3177 -0.4151
 8109TIP3    H245819   2.229   3.934   6.088 -0.9794 -0.6081 -1.1131
 8110TIP3   OH245820   6.776   2.822   2.634 -0.1227 -0.1365  0.2577
 8110TIP3    H145821   6.816   2.876   2.566 -0.9033  1.2260  0.8644
 8110TIP3    H245822   6.756   2.882   2.705 -1.9149 -1.0472  0.5729
 8111TIP3   OH245823   0.974   0.890  11.947 -0.4159 -0.2956  0.3270
 8111TIP3    H145824   0.925   0.865  12.026 -1.1593  0.5645  0.1415
 8111TIP3    H245825   0.975   0.985  11.948  0.1977 -0.2859 -0.3363
 8112TIP3   OH245826   6.755   3.955   1.026 -0.0820  0.3723  0.6153
 8112TIP3    H145827   6.771   3.940   1.119 -0.1148  0.6205  0.6613
 8112TIP3    H245828   6.816   4.025   1.002  1.4345 -1.0694 -0.0305
 8113TIP3   OH245829   1.102   1.989  12.401 -0.6191  0.4638 -0.1447
 8113TIP3    H145830   1.171   1.939  12.443  1.4014  3.2730  0.1905
 8113TIP3    H245831   1.025   1.975  12.456  0.1676 -1.2184  0.6004
 8114TIP3   OH245832   2.611   4.569   3.351  0.4049  0.2899  0.5897
 8114TIP3    H145833   2.595   4.544   3.260  1.7668  0.1396  0.3683
 8114TIP3    H245834   2.594   4.489   3.401 -0.5793  0.4374  0.5029
 8115TIP3   OH245835   4.590   0.921   3.646 -0.3980 -0.8030  0.4004
 8115TIP3    H145836   4.619   1.012   3.650  0.0701 -0.8115 -1.4697
 8115TIP3    H245837   4.500   0.926   3.613 -0.6111 -1.0020  0.9408
 8116TIP3   OH245838   5.523   5.670  12.665 -0.3116 -0.6362  0.2796
 8116TIP3    H145839   5.564   5.705  12.587  0.5011 -2.7573 -0.3326
 8116TIP3    H245840   5.445   5.723  12.678  0.5531  0.9846 -0.8269
 8117TIP3   OH245841   4.212   6.505  14.692 -0.1387  0.7529 -0.7328
 8117TIP3    H145842   4.130   6.459  14.675 -0.9923  2.1652 -0.6309
 8117TIP3    H245843   4.237   6.479  14.781  0.7070 -1.3495 -1.5237
 8118TIP3   OH245844   4.005   6.093  14.722 -0.1217 -1.1936  0.4072
 8118TIP3    H145845   4.024   6.177  14.680 -1.2176 -0.8570  0.5449
 8118TIP3    H245846   3.991   6.033  14.649 -2.2271 -0.5655  0.2042
 8119TIP3   OH245847   0.198   6.506   5.940  0.0804  0.8807 -0.3441
 8119TIP3    H145848   0.143   6.551   6.003  1.4776  0.7405  1.0366
 8119TIP3    H245849   0.187   6.413   5.959  0.2521  0.8199 -0.5343
 8120TIP3   OH245850   2.328   2.787  10.656 -0.1610 -0.3468  0.1683
 8120TIP3    H145851   2.263   2.756  10.594 -1.3155 -0.8102  1.5549
 8120TIP3    H245852   2.412   2.756  10.622 -0.7178 -0.2478 -1.3284
 8121TIP3   OH245853   1.831   3.983   5.697 -0.0590  0.3640 -0.0768
 8121TIP3    H145854   1.872   3.902   5.725  3.0621  1.6960 -0.3913
 8121TIP3    H245855   1.861   4.049   5.759 -2.1470  1.4351 -0.0924
 8122TIP3   OH245856   3.176   0.163  11.799 -0.4414 -0.2609 -0.1654
 8122TIP3    H145857   3.245   0.140  11.861 -0.1209 -1.1442 -0.8279
 8122TIP3    H245858   3.134   0.080  11.777 -1.2931  0.1788 -0.2806
 8123TIP3   OH245859   2.491   5.555  13.802 -0.5911  0.1202  0.3182
 8123TIP3    H145860   2.557   5.615  13.769 -1.3235  0.8880  0.2255
 8123TIP3    H245861   2.413   5.573  13.750 -1.0160 -0.4489  0.7371
 8124TIP3   OH245862   4.735   4.809  16.063 -0.4926 -0.2248  0.0876
 8124TIP3    H145863   4.655   4.786  16.017 -1.2244  1.2642  0.5570
 8124TIP3    H245864   4.717   4.894  16.102  1.6949  0.7042 -0.7426
 8125TIP3   OH245865   6.106   0.611   1.439 -0.1286  0.1415 -0.1654
 8125TIP3    H145866   6.074   0.701   1.431 -1.2296 -0.1175  0.9814
 8125TIP3    H245867   6.095   0.589   1.531 -0.0224 -1.2206 -0.4470
 8126TIP3   OH245868   2.412   4.263   1.504 -0.3800  0.1207 -0.0266
 8126TIP3    H145869   2.404   4.209   1.582 -1.5212 -0.0970 -0.2841
 8126TIP3    H245870   2.423   4.352   1.538 -2.1906  0.2120  0.4063
 8127TIP3   OH245871   2.799   5.338   1.261 -0.0304  0.4474  0.4602
 8127TIP3    H145872   2.893   5.328   1.246  0.0249  0.6909  0.6462
 8127TIP3    H245873   2.772   5.406   1.199 -0.2324 -0.1721 -0.1471
 8128TIP3   OH245874   0.946   0.479   0.352  0.5964  0.3268 -0.5072
 8128TIP3    H145875   0.966   0.492   0.444  1.3369  3.0955 -0.9890
 8128TIP3    H245876   0.968   0.387   0.335  3.7814  0.6296  1.2733
 8129TIP3   OH245877   1.347   2.002   3.360  0.0726 -0.2660  0.3828
 8129TIP3    H145878   1.399   1.928   3.327  0.2066  0.4731 -1.1423
 8129TIP3    H245879   1.405   2.046   3.422  0.4904 -0.6449  0.2700
 8130TIP3   OH245880   1.502   5.260   2.407 -1.1456 -0.2989  0.5071
 8130TIP3    H145881   1.596   5.268   2.395 -1.2251 -0.0875 -0.0425
 8130TIP3    H245882   1.483   5.309   2.487 -0.8089 -0.2190  0.5372
 8131TIP3   OH245883   3.269   5.768  14.698  0.2532 -0.2302 -0.1095
 8131TIP3    H145884   3.358   5.758  14.662  0.4557  0.8447  0.0320
 8131TIP3    H245885   3.223   5.689  14.670  0.8591 -0.1778 -1.3779
 8132TIP3   OH245886   2.204   6.753   0.662  0.4056  0.4474  0.9415
 8132TIP3    H145887   2.231   6.814   0.731 -0.3025  0.9104  0.8245
 8132TIP3    H245888   2.130   6.797   0.619  1.1861  0.4269 -0.4796
 8133TIP3   OH245889   5.049   1.391   0.479  0.0422  0.4543  0.0727
 8133TIP3    H145890   5.057   1.482   0.448 -2.3906  0.8600  0.3905
 8133TIP3    H245891   5.057   1.338   0.400 -0.1517  1.0789 -0.3830
 8134TIP3   OH245892   3.839   5.986  12.058  0.1290  0.0475  0.0879
 8134TIP3    H145893   3.924   5.950  12.082 -0.8171 -1.0684  2.0379
 8134TIP3    H245894   3.834   5.977  11.963  2.2404  0.3424 -0.0990
 8135TIP3   OH245895   0.217   2.910  16.964 -0.2378  0.4110  0.4251
 8135TIP3    H145896   0.174   2.841  17.014 -1.1112  0.1720 -0.6088
 8135TIP3    H245897   0.311   2.894  16.975 -0.3708 -2.0724 -1.2283
 8136TIP3   OH245898   4.450   3.511   2.677  0.1771  0.1283 -0.1841
 8136TIP3    H145899   4.387   3.583   2.676  0.4376  0.3774 -1.9434
 8136TIP3    H245900   4.489   3.515   2.764 -1.3527  0.7337  0.5128
 8137TIP3   OH245901   1.055   4.793   1.325 -0.7145 -0.6367  0.0034
 8137TIP3    H145902   1.129   4.798   1.384  0.5095  1.6542 -1.5652
 8137TIP3    H245903   1.069   4.713   1.275  0.1579 -0.7499  0.4156
 8138TIP3   OH245904   2.905   6.604  17.038  0.0294 -0.3700  0.1930
 8138TIP3    H145905   2.915   6.521  16.991 -0.3284  0.0246 -0.5932
 8138TIP3    H245906   2.949   6.668  16.984  2.6121 -0.4139  2.0506
 8139TIP3   OH245907   5.468   6.134  17.005  0.0904 -0.2678  0.7175
 8139TIP3    H145908   5.542   6.076  17.018  0.7652  0.3095 -0.3463
 8139TIP3    H245909   5.395   6.092  17.051  0.9875 -1.0103  1.4914
 8140TIP3   OH245910   3.366   2.567   0.590  0.2928  0.3267 -0.4149
 8140TIP3    H145911   3.405   2.650   0.619  1.0369 -0.4947  1.0626
 8140TIP3    H245912   3.430   2.531   0.528  0.9215 -0.0533  0.4407
 8141TIP3   OH245913   5.684   0.751  13.151  0.0552  0.3801 -0.2100
 8141TIP3    H145914   5.681   0.788  13.239 -1.3732  2.1078 -0.9303
 8141TIP3    H245915   5.594   0.725  13.133  0.5262 -0.9457 -0.7860
 8142TIP3   OH245916   5.377   6.263   4.348  0.3597 -0.1970 -0.4831
 8142TIP3    H145917   5.329   6.228   4.423  1.5168  1.0755  0.9041
 8142TIP3    H245918   5.311   6.272   4.279 -0.6150 -1.9166  0.1797
 8143TIP3   OH245919   5.587   2.474   6.105  0.3807 -0.1880 -0.1401
 8143TIP3    H145920   5.613   2.534   6.036  0.8512 -0.9654 -0.6453
 8143TIP3    H245921   5.650   2.403   6.101 -1.6010 -1.9993 -1.2354
 8144TIP3   OH245922   1.236   0.679   3.519 -0.2293  0.3646 -0.2660
 8144TIP3    H145923   1.168   0.687   3.452 -0.8133  1.4154  0.4142
 8144TIP3    H245924   1.229   0.589   3.550 -0.2328 -0.0039 -1.3183
 8145TIP3   OH245925   1.008   5.183  11.381 -0.0209 -0.1680  0.5754
 8145TIP3    H145926   1.057   5.262  11.355  0.4362 -0.7503 -0.3758
 8145TIP3    H245927   0.932   5.217  11.428 -0.2960  0.9025 -0.5883
 8146TIP3   OH245928   3.341   1.930   1.403 -0.0232 -0.6577  0.0080
 8146TIP3    H145929   3.363   1.902   1.491 -1.2792 -3.0587 -0.3611
 8146TIP3    H245930   3.411   1.896   1.348 -0.9750 -2.2279 -0.2983
 8147TIP3   OH245931   2.255   1.651   2.637 -0.1432 -0.2053  0.1965
 8147TIP3    H145932   2.220   1.621   2.720 -1.1650 -0.0433 -0.1605
 8147TIP3    H245933   2.251   1.747   2.642 -1.1492 -0.1989 -0.4057
 8148TIP3   OH245934   2.835   2.778  10.633 -0.0729  0.5460  0.1961
 8148TIP3    H145935   2.931   2.788  10.629  0.0333 -0.7139 -1.7957
 8148TIP3    H245936   2.806   2.854  10.682  1.8222  2.0499 -0.8422
 8149TIP3   OH245937   2.534   1.812  16.763 -0.0935  0.8435 -0.3927
 8149TIP3    H145938   2.560   1.904  16.760  1.1869  0.4630 -1.9200
 8149TIP3    H245939   2.583   1.770  16.692 -0.7030 -1.0109  0.2159
 8150TIP3   OH245940   1.015   6.430  16.765 -0.2168 -0.8317  0.1929
 8150TIP3    H145941   0.930   6.449  16.724 -0.4466 -0.0497  0.9982
 8150TIP3    H245942   1.076   6.423  16.692 -1.1221 -2.2631 -0.4591
 8151TIP3   OH245943   6.380   6.046  15.862 -0.3144  0.3296  0.1015
 8151TIP3    H145944   6.360   5.953  15.849  0.8320  0.2551 -1.4006
 8151TIP3    H245945   6.468   6.046  15.901 -0.5628  0.7752  0.6611
 8152TIP3   OH245946   3.977   3.452  14.905  0.2288  0.2180 -0.8113
 8152TIP3    H145947   3.926   3.492  14.835  1.5932  0.1754 -1.8727
 8152TIP3    H245948   4.062   3.434  14.866  0.2760 -2.0269  0.1741
 8153TIP3   OH245949   4.020   6.643   1.379  0.3318  0.2611 -0.6494
 8153TIP3    H145950   3.988   6.708   1.317  3.5735 -0.0799 -2.9550
 8153TIP3    H245951   4.001   6.559   1.338 -0.0414 -0.1081  0.2563
 8154TIP3   OH245952   3.922   3.026  13.029  0.0497 -0.0276  0.4352
 8154TIP3    H145953   3.865   2.975  12.971  1.7578 -1.3813 -0.1178
 8154TIP3    H245954   3.971   3.084  12.971 -1.2103  1.6897  0.9788
 8155TIP3   OH245955   2.442   1.638   5.121  0.4866 -0.2722 -0.0161
 8155TIP3    H145956   2.531   1.665   5.100  0.2135  2.6000  1.9160
 8155TIP3    H245957   2.406   1.710   5.173 -2.7770 -1.5801 -0.1682
 8156TIP3   OH245958   0.066   1.908  12.084 -0.2709 -0.4182  0.0187
 8156TIP3    H145959   0.044   1.819  12.112 -1.2787 -0.6611 -1.4291
 8156TIP3    H245960   0.131   1.896  12.015 -0.7656 -0.0800 -0.5195
 8157TIP3   OH245961   1.865   0.890   1.687  0.6431  0.1030  0.6209
 8157TIP3    H145962   1.798   0.889   1.619  2.0728  0.6005 -0.8674
 8157TIP3    H245963   1.855   0.807   1.732 -1.7295  0.6651  1.2519
 8158TIP3   OH245964   1.878   2.415   5.099 -0.3646 -0.2923 -0.2141
 8158TIP3    H145965   1.820   2.347   5.132 -0.1866 -0.8952 -1.0936
 8158TIP3    H245966   1.833   2.497   5.117 -1.7239 -0.7710 -1.2981
 8159TIP3   OH245967   3.107   3.947  10.303 -0.3430 -0.0562 -0.1363
 8159TIP3    H145968   3.132   4.026  10.350 -1.3709 -0.1729  0.6439
 8159TIP3    H245969   3.143   3.960  10.215 -0.8987  1.5035 -0.1750
 8160TIP3   OH245970   0.050   1.133  11.730 -0.0113 -0.5514 -0.1520
 8160TIP3    H145971   0.140   1.162  11.747 -0.0382  0.3409 -1.4107
 8160TIP3    H245972   0.058   1.039  11.713  0.5925 -0.5964  0.3433
 8161TIP3   OH245973   3.248   5.640  11.761  0.1937  0.0605  0.4900
 8161TIP3    H145974   3.154   5.637  11.742 -0.1536 -0.9383  2.0689
 8161TIP3    H245975   3.260   5.572  11.828  2.2826 -0.7505 -0.6233
 8162TIP3   OH245976   5.978   1.982  12.398 -0.2554 -0.1164 -0.0699
 8162TIP3    H145977   5.918   1.911  12.375 -0.2892 -0.2094  0.2914
 8162TIP3    H245978   5.930   2.034  12.462  0.0694 -0.2206  0.2602
 8163TIP3   OH245979   4.376   4.450   4.712  0.4146  0.2947 -0.2168
 8163TIP3    H145980   4.467   4.448   4.681  0.1153 -0.8182 -1.0867
 8163TIP3    H245981   4.384   4.458   4.808  1.5347 -2.3382  0.0157
 8164TIP3   OH245982   1.034   0.035   4.334 -0.3437 -0.1415  0.1572
 8164TIP3    H145983   0.993  -0.052   4.342 -0.1303 -0.2695 -0.1325
 8164TIP3    H245984   0.962   0.093   4.310 -0.1354 -0.5923 -1.6774
 8165TIP3   OH245985   6.746   0.901  16.189 -0.2931 -0.3229 -0.6852
 8165TIP3    H145986   6.805   0.846  16.138 -1.1094 -2.0123  0.1202
 8165TIP3    H245987   6.698   0.840  16.245 -1.7462  1.1444 -0.2459
 8166TIP3   OH245988   3.685   3.106   1.991 -0.4778  0.3590  0.0995
 8166TIP3    H145989   3.755   3.059   1.945 -2.1898 -1.8598 -0.3913
 8166TIP3    H245990   3.688   3.072   2.080 -0.7571  0.4745  0.1518
 8167TIP3   OH245991   6.287   0.325  15.715  0.8966 -0.3118  0.3450
 8167TIP3    H145992   6.329   0.240  15.703  0.8557 -0.2037 -0.6717
 8167TIP3    H245993   6.279   0.360  15.626 -1.8037 -0.5537  0.4053
 8168TIP3   OH245994   4.746   3.344  14.170  0.5074 -0.2682  0.1310
 8168TIP3    H145995   4.703   3.343  14.256  0.3469  1.9537  0.1421
 8168TIP3    H245996   4.750   3.252  14.144 -0.0766 -0.9329  2.1991
 8169TIP3   OH245997   3.671   6.548   0.185 -0.0867  0.4927 -0.1364
 8169TIP3    H145998   3.745   6.519   0.132 -0.0825 -2.0619  1.0875
 8169TIP3    H245999   3.659   6.478   0.249 -1.2866  2.5273  2.0339
 8170TIP3   OH246000   2.584   5.387  13.999 -0.5080 -0.2521 -0.1408
 8170TIP3    H146001   2.554   5.440  13.925  0.4529  1.4306  0.6070
 8170TIP3    H246002   2.517   5.399  14.066 -1.3856 -1.7872 -0.7025
 8171TIP3   OH246003   0.321   3.102   0.040 -0.0942 -0.5253 -0.2722
 8171TIP3    H146004   0.289   3.167  -0.022  3.6215  2.2782  0.4171
 8171TIP3    H246005   0.402   3.069   0.001  0.2580 -1.6546  1.3062
 8172TIP3   OH246006   5.874   5.879  14.269  1.1467 -0.1652  0.7397
 8172TIP3    H146007   5.785   5.844  14.265  0.7326  0.9319 -0.1761
 8172TIP3    H246008   5.924   5.826  14.206  0.6744  0.4659 -0.1799
 8173TIP3   OH246009   4.755   3.606  12.291 -0.3347  0.5536  0.4617
 8173TIP3    H146010   4.717   3.671  12.232 -0.4079  0.6174  0.5785
 8173TIP3    H246011   4.769   3.529  12.237 -0.1459  0.7037  0.2976
 8174TIP3   OH246012   2.362   4.801   1.276  0.5223  0.1435 -0.2683
 8174TIP3    H146013   2.378   4.715   1.236  0.3808 -0.1316  0.2593
 8174TIP3    H246014   2.272   4.821   1.254  0.3889 -0.0897  0.0613
 8175TIP3   OH246015   4.783   0.600  11.126 -0.6043 -0.0035  0.1849
 8175TIP3    H146016   4.730   0.608  11.046  0.2033  0.2155 -0.3348
 8175TIP3    H246017   4.860   0.550  11.100  0.3111  1.2050  0.4943
 8176TIP3   OH246018   4.912   4.089   4.568  0.2772 -0.2099  0.3599
 8176TIP3    H146019   4.867   4.143   4.634 -1.1731  1.7333 -2.0558
 8176TIP3    H246020   4.847   4.025   4.540  1.4171 -2.1590  1.8651
 8177TIP3   OH246021   3.546   0.771  11.445  0.2689  0.5268  0.2202
 8177TIP3    H146022   3.456   0.743  11.430  0.5808  0.2621 -1.3189
 8177TIP3    H246023   3.538   0.862  11.476 -0.5110  0.7404 -0.5652
 8178TIP3   OH246024   6.520   6.698   1.354  0.4224  0.0347 -0.1411
 8178TIP3    H146025   6.500   6.606   1.341  0.2816 -0.0709  0.7659
 8178TIP3    H246026   6.541   6.731   1.266 -0.1476 -0.7077 -0.5660
 8179TIP3   OH246027   6.773   0.156   3.769 -0.3024  0.1800  0.1577
 8179TIP3    H146028   6.844   0.093   3.760 -1.0530 -0.5743 -0.7110
 8179TIP3    H246029   6.777   0.184   3.860 -1.0078 -2.4301  1.0680
 8180TIP3   OH246030   4.035   0.883   4.109 -0.9734  0.5193 -0.2484
 8180TIP3    H146031   3.973   0.836   4.052  0.7364 -1.7577 -0.3971
 8180TIP3    H246032   4.093   0.929   4.048 -2.0729  2.1572 -0.1242
 8181TIP3   OH246033   4.289   3.733   2.742 -0.0985 -0.3652 -0.2182
 8181TIP3    H146034   4.335   3.807   2.782 -1.0009  0.4248 -0.5914
 8181TIP3    H246035   4.233   3.773   2.675  0.2646 -1.5159 -1.2394
 8182TIP3   OH246036   4.762   0.789   3.432  0.0097 -0.0416 -0.7281
 8182TIP3    H146037   4.734   0.851   3.499 -2.0570  0.1316 -1.6657
 8182TIP3    H246038   4.858   0.797   3.430  0.3101 -0.9724  3.0013
 8183TIP3   OH246039   5.956   2.918   4.606 -0.0743 -0.1776 -0.0844
 8183TIP3    H146040   5.961   2.883   4.517  0.8972  0.8563 -0.4528
 8183TIP3    H246041   5.935   2.842   4.660 -0.3182 -0.8879 -1.1391
 8184TIP3   OH246042   1.295   3.933  14.451  0.0443  0.0698  0.0984
 8184TIP3    H146043   1.253   3.895  14.373 -2.1568 -2.7306  2.3863
 8184TIP3    H246044   1.387   3.938  14.429 -0.3995 -1.3365 -2.4666
 8185TIP3   OH246045   6.466   4.213   5.061 -0.0638  0.4139  0.7516
 8185TIP3    H146046   6.508   4.155   5.125 -0.9378 -0.3063  0.6905
 8185TIP3    H246047   6.477   4.301   5.097 -0.3876  0.0343  1.8073
 8186TIP3   OH246048   5.806   4.211  13.158  0.3768 -0.2136 -0.6381
 8186TIP3    H146049   5.832   4.120  13.175  1.6822  0.2143 -0.2136
 8186TIP3    H246050   5.712   4.206  13.139 -0.2942 -1.3155  2.3907
 8187TIP3   OH246051   3.490   2.164   0.662 -0.4546  0.5532 -1.1431
 8187TIP3    H146052   3.523   2.122   0.582 -2.6247  2.3492 -3.1173
 8187TIP3    H246053   3.396   2.145   0.662 -0.3498 -0.3760  1.6991
 8188TIP3   OH246054   1.403   1.102   1.673  0.2217  0.1806 -0.0567
 8188TIP3    H146055   1.422   1.114   1.766  2.5059 -1.6223 -0.1873
 8188TIP3    H246056   1.364   1.015   1.667  3.1782 -1.2478 -0.9769
 8189TIP3   OH246057   2.236   1.363  11.441 -0.2362 -0.2175 -0.1821
 8189TIP3    H146058   2.255   1.379  11.349  0.5048  1.2193  0.1934
 8189TIP3    H246059   2.140   1.363  11.446 -0.2848  0.7794 -0.7947
 8190TIP3   OH246060   4.480   3.492  11.348 -0.1600 -0.3560  0.7326
 8190TIP3    H146061   4.463   3.568  11.294 -2.9672 -1.4182 -0.0076
 8190TIP3    H246062   4.451   3.517  11.436 -0.0117 -0.2104  0.7398
 8191TIP3   OH246063   1.285   3.447  16.911  0.0034 -0.6159 -0.0402
 8191TIP3    H146064   1.369   3.492  16.903 -0.2516  0.0285  0.7867
 8191TIP3    H246065   1.290   3.375  16.847  2.1226 -2.0772  1.6061
 8192TIP3   OH246066   2.167   0.030   0.174  0.2020  0.4227  0.2402
 8192TIP3    H146067   2.181   0.120   0.144 -0.3914  0.5559  0.3465
 8192TIP3    H246068   2.201  -0.024   0.104  0.1512  0.7336 -0.0266
 8193TIP3   OH246069   6.776   5.304  14.289  0.1504 -0.3251 -0.2324
 8193TIP3    H146070   6.821   5.229  14.250  0.1482 -0.2329 -0.4144
 8193TIP3    H246071   6.818   5.380  14.249 -0.4079 -0.2422 -0.6806
 8194TIP3   OH246072   3.026   6.231  13.757  1.0188 -0.0772 -0.0088
 8194TIP3    H146073   3.003   6.283  13.680 -1.6831 -2.3891 -0.9790
 8194TIP3    H246074   2.963   6.259  13.824  0.1014 -1.3934 -0.2777
 8195TIP3   OH246075   1.361   1.142  12.051 -0.1779  0.4674 -0.4349
 8195TIP3    H146076   1.346   1.231  12.019  2.2172  0.9273 -0.4857
 8195TIP3    H246077   1.450   1.121  12.023  0.2057 -1.0382  1.6464
 8196TIP3   OH246078   6.608   0.349  12.007  0.3112 -0.4903 -0.6778
 8196TIP3    H146079   6.701   0.329  12.008  0.2409 -0.9270 -1.6444
 8196TIP3    H246080   6.599   0.422  11.945  0.0034 -0.5038 -0.6537
 8197TIP3   OH246081   0.932   1.090  16.381  0.0817  0.3765  0.2300
 8197TIP3    H146082   1.018   1.100  16.340  0.1715 -1.1427 -0.0229
 8197TIP3    H246083   0.871   1.129  16.319  0.3430 -0.8177 -0.8281
 8198TIP3   OH246084   1.866   5.291  14.826 -0.2225 -0.1457  0.2671
 8198TIP3    H146085   1.906   5.322  14.907 -0.8882 -1.0706  0.9785
 8198TIP3    H246086   1.827   5.207  14.850  0.9264 -1.2105 -1.3979
 8199TIP3   OH246087   4.805   0.699  15.405  0.0369 -0.2218 -0.3613
 8199TIP3    H146088   4.730   0.645  15.430  0.5132 -1.3964 -1.3733
 8199TIP3    H246089   4.767   0.768  15.349 -0.6194  0.7600  1.2147
 8200TIP3   OH246090   0.808   6.094  16.964 -0.4586  0.4767  0.4636
 8200TIP3    H146091   0.759   6.056  17.037 -1.4638 -1.3586 -1.1057
 8200TIP3    H246092   0.859   6.022  16.928  3.0001  2.1550  1.5779
 8201TIP3   OH246093   2.574   4.687  13.329 -0.0727 -0.0589 -0.4501
 8201TIP3    H146094   2.606   4.764  13.376  0.3718 -0.9692  0.7938
 8201TIP3    H246095   2.601   4.613  13.383  0.0041 -1.1362 -1.9004
 8202TIP3   OH246096   1.833   3.946  11.631 -0.3692  0.5809  0.0352
 8202TIP3    H146097   1.769   4.014  11.653  0.0410  0.9300  0.1871
 8202TIP3    H246098   1.911   3.970  11.683 -0.3707 -0.2647  0.4398
 8203TIP3   OH246099   0.504   5.377   1.829  0.3727  0.2581 -0.1300
 8203TIP3    H146100   0.560   5.357   1.904  0.1399  1.0871  0.2780
 8203TIP3    H246101   0.459   5.295   1.810  1.6957 -0.4303 -0.4550
 8204TIP3   OH246102   3.555   6.091   3.669  0.0926 -0.1901 -0.2904
 8204TIP3    H146103   3.603   6.098   3.752  1.0064  0.7749 -0.8790
 8204TIP3    H246104   3.484   6.029   3.688  0.2251  0.0797  1.2337
 8205TIP3   OH246105   5.218   2.001  12.798 -0.4261 -0.1191 -0.4728
 8205TIP3    H146106   5.205   1.907  12.810 -0.3387 -0.0866 -0.1186
 8205TIP3    H246107   5.146   2.028  12.742 -1.4760 -0.0793  0.8457
 8206TIP3   OH246108   6.136   3.566  15.068  0.3280 -0.2243  0.3777
 8206TIP3    H146109   6.160   3.586  14.977  0.5745  0.9593  0.6832
 8206TIP3    H246110   6.139   3.651  15.112 -0.5329 -0.6761  1.3306
 8207TIP3   OH246111   6.541   2.949  13.393  0.0181  0.3082  0.3697
 8207TIP3    H146112   6.468   2.888  13.381  0.2783  0.2257 -0.8842
 8207TIP3    H246113   6.611   2.896  13.430  0.1499 -0.1003 -0.4539
 8208TIP3   OH246114   2.119   3.042  15.700  0.1047 -0.1508  0.8735
 8208TIP3    H146115   2.025   3.039  15.713  0.3164 -0.4314  2.6614
 8208TIP3    H246116   2.137   3.133  15.676 -0.8584 -0.6723 -2.3582
 8209TIP3   OH246117   0.456   6.242   6.585 -0.2227  0.1257  0.8313
 8209TIP3    H146118   0.483   6.152   6.602  1.4541 -0.1217 -2.4473
 8209TIP3    H246119   0.527   6.296   6.620  0.5605 -0.0787 -0.3825
 8210TIP3   OH246120   1.076   0.919  16.710  0.2413 -0.7100 -0.5412
 8210TIP3    H146121   1.123   0.983  16.657 -2.4411 -0.6906 -3.1596
 8210TIP3    H246122   1.051   0.967  16.788  0.6380  0.6181 -1.1917
 8211TIP3   OH246123   1.972   4.767   5.595 -0.2889 -0.0826  0.0112
 8211TIP3    H146124   1.974   4.807   5.508  1.1559  0.3848  0.2379
 8211TIP3    H246125   1.992   4.674   5.579 -0.7368 -0.1413 -0.2187
 8212TIP3   OH246126   3.849   0.612   4.147  0.1568  0.1354 -0.4413
 8212TIP3    H146127   3.793   0.672   4.098  1.0623  1.2136 -0.2009
 8212TIP3    H246128   3.790   0.544   4.179 -0.5773 -0.1812 -2.3635
 8213TIP3   OH246129   0.276   5.999   5.540  0.8493  0.1114 -0.1277
 8213TIP3    H146130   0.189   5.975   5.573 -0.4519  0.2901 -3.1546
 8213TIP3    H246131   0.273   6.094   5.533  2.8175  0.6160  3.3808
 8214TIP3   OH246132   3.120   6.331  11.497  0.3944  0.3558  0.0332
 8214TIP3    H146133   3.040   6.310  11.450  0.1706 -0.1446  0.6208
 8214TIP3    H246134   3.186   6.271  11.463  0.3940  0.4337 -0.1024
 8215TIP3   OH246135   5.630   5.506   4.878  0.2234 -0.1111 -0.1737
 8215TIP3    H146136   5.628   5.427   4.932 -1.3992  0.4767  0.7122
 8215TIP3    H246137   5.719   5.540   4.887  0.9023 -1.7613 -0.4706
 8216TIP3   OH246138   4.164   1.638  13.888 -0.4440  0.3636  0.1201
 8216TIP3    H146139   4.081   1.600  13.859 -0.5585  0.9986 -0.3890
 8216TIP3    H246140   4.230   1.598  13.831 -0.4623  0.2870  0.1512
 8217TIP3   OH246141   2.771   5.446  12.259  0.2098 -0.6623 -0.5445
 8217TIP3    H146142   2.766   5.450  12.355 -0.4691 -2.3053 -0.4748
 8217TIP3    H246143   2.680   5.450  12.231  0.3906 -0.4899 -1.1111
 8218TIP3   OH246144   0.340   6.378  15.249 -0.0365 -0.1067 -0.1444
 8218TIP3    H146145   0.338   6.389  15.154 -0.2577 -0.0559 -0.1355
 8218TIP3    H246146   0.265   6.429  15.280  1.5234  2.0457  0.2842
 8219TIP3   OH246147   3.804   2.134   5.713  0.8003 -0.3533  0.0159
 8219TIP3    H146148   3.831   2.098   5.629 -0.6470 -0.4041 -0.4684
 8219TIP3    H246149   3.785   2.226   5.694 -0.6310 -0.6276 -0.0125
 8220TIP3   OH246150   5.374   6.357  12.688 -0.1599 -0.5349 -0.0993
 8220TIP3    H146151   5.348   6.319  12.604 -1.1251 -1.7984  0.7444
 8220TIP3    H246152   5.319   6.313  12.753 -0.9718  1.9051  1.0182
 8221TIP3   OH246153   0.213   3.523   1.141 -0.0881  0.2596  0.1061
 8221TIP3    H146154   0.175   3.602   1.180  0.1223  0.2349  0.3695
 8221TIP3    H246155   0.180   3.452   1.195  0.7806  0.2861  0.7044
 8222TIP3   OH246156   4.493   4.311  11.135  0.1212 -0.1025  0.2924
 8222TIP3    H146157   4.581   4.347  11.127 -1.0348  3.5850  1.6505
 8222TIP3    H246158   4.463   4.299  11.045  1.6954 -0.6149 -0.1890
 8223TIP3   OH246159   6.340   1.760   3.887 -0.8873  0.0740  0.3373
 8223TIP3    H146160   6.425   1.730   3.855 -0.3813  2.0773 -0.3791
 8223TIP3    H246161   6.353   1.771   3.982  0.3356  2.1616  0.0046
 8224TIP3   OH246162   4.002   2.883  15.837 -0.4723  0.2489 -0.4430
 8224TIP3    H146163   4.080   2.882  15.893  0.4311 -0.9140 -1.6854
 8224TIP3    H246164   4.016   2.812  15.775 -3.1573 -0.9078  0.1398
 8225TIP3   OH246165   5.383   4.083  13.774  0.4072  0.0138 -0.4411
 8225TIP3    H146166   5.374   4.101  13.868 -0.8830 -0.7479 -0.3893
 8225TIP3    H246167   5.407   4.167  13.736  1.4514  0.2251  0.6254
 8226TIP3   OH246168   1.115   3.660   1.404 -0.0287 -0.5651  0.0719
 8226TIP3    H146169   1.196   3.687   1.360 -0.0395 -0.7023 -0.0316
 8226TIP3    H246170   1.062   3.620   1.335  0.1618 -1.2445  0.3128
 8227TIP3   OH246171   6.361   4.669  15.547  0.7532  0.2595 -0.1282
 8227TIP3    H146172   6.281   4.636  15.508  0.6803 -1.0062  1.0012
 8227TIP3    H246173   6.350   4.765  15.548 -1.6922  0.0761  1.8236
 8228TIP3   OH246174   4.461   4.721  12.774 -0.1999  0.8251 -0.1631
 8228TIP3    H146175   4.415   4.801  12.799  1.2712  1.0983  1.9996
 8228TIP3    H246176   4.393   4.662  12.743 -1.5291  2.3387 -0.2407
 8229TIP3   OH246177   6.355   2.229  14.379  0.2855 -0.4089 -0.3273
 8229TIP3    H146178   6.296   2.158  14.404  0.0240 -0.0636  0.0322
 8229TIP3    H246179   6.355   2.227  14.283  0.6148 -1.1665 -0.3198
 8230TIP3   OH246180   2.381   0.427   5.268  0.5430  0.1200 -0.1569
 8230TIP3    H146181   2.433   0.365   5.217 -0.6877 -1.2277  0.1664
 8230TIP3    H246182   2.411   0.416   5.358  0.4440  0.1327 -0.1225
 8231TIP3   OH246183   2.615   4.873   5.747 -0.0780 -0.6344 -0.1920
 8231TIP3    H146184   2.551   4.902   5.812 -0.7959 -1.0190 -0.7125
 8231TIP3    H246185   2.573   4.890   5.663 -0.4127 -2.7921 -0.5406
 8232TIP3   OH246186   0.929   1.028  12.356  0.4884  0.2419 -0.4109
 8232TIP3    H146187   0.854   1.050  12.300  0.4363  0.3133 -0.3139
 8232TIP3    H246188   0.998   1.087  12.328  1.0819 -1.0279 -1.7351
 8233TIP3   OH246189   3.159   6.792   2.779 -0.5684  0.4695 -0.0741
 8233TIP3    H146190   3.134   6.765   2.868  1.8560 -1.2715  0.1872
 8233TIP3    H246191   3.216   6.868   2.793 -0.1785  0.1887 -0.1225
 8234TIP3   OH246192   0.153   0.017  11.934 -0.2533  0.3655 -0.4384
 8234TIP3    H146193   0.109   0.079  11.876  1.0477 -0.0610 -1.9747
 8234TIP3    H246194   0.162   0.063  12.017 -1.9168  1.1153 -0.6285
 8235TIP3   OH246195   4.238   5.428  15.865  0.1964  0.1868 -0.7653
 8235TIP3    H146196   4.284   5.358  15.819 -0.1521  0.4664 -1.5495
 8235TIP3    H246197   4.147   5.399  15.871  0.3084 -0.0240  0.1140
 8236TIP3   OH246198   1.424   4.518   0.403 -0.1036 -0.4708  0.1333
 8236TIP3    H146199   1.428   4.477   0.316 -2.0085 -0.8515  0.1868
 8236TIP3    H246200   1.501   4.485   0.449  1.3972  0.3592 -1.6472
 8237TIP3   OH246201   3.159   4.913  12.423 -0.5634  0.0520  0.2288
 8237TIP3    H146202   3.246   4.907  12.463 -0.4013  2.5801  0.4297
 8237TIP3    H246203   3.173   4.892  12.331  0.4717  1.3116  0.0718
 8238TIP3   OH246204   1.097   2.000  15.335  0.2070  0.4746 -0.6489
 8238TIP3    H146205   1.107   1.906  15.319 -1.3552  0.1750 -0.0915
 8238TIP3    H246206   1.122   2.012  15.427  0.9464  0.7147 -0.8741
 8239TIP3   OH246207   1.904   1.111  12.883  0.0432  0.3364  0.0544
 8239TIP3    H146208   1.820   1.151  12.858  0.5195  0.6818 -1.1074
 8239TIP3    H246209   1.944   1.174  12.942 -0.8181 -0.1659  1.2006
 8240TIP3   OH246210   0.524   0.064  11.574 -0.2475  0.2117 -0.3504
 8240TIP3    H146211   0.616   0.050  11.597 -0.5943  0.9869  1.7957
 8240TIP3    H246212   0.507   0.004  11.501  1.4122 -1.4560  0.5535
 8241TIP3   OH246213   2.850   5.679  13.937 -0.4700 -0.4063  0.1448
 8241TIP3    H146214   2.886   5.630  14.011 -1.0558  0.3397  0.9463
 8241TIP3    H246215   2.842   5.614  13.867  0.4100 -1.0478  0.6237
 8242TIP3   OH246216   5.383   2.085  14.423 -0.3805  0.3401 -0.2673
 8242TIP3    H146217   5.465   2.100  14.470 -1.5421 -0.0878  2.0045
 8242TIP3    H246218   5.345   2.172  14.412  0.8780  0.6849 -2.4208
 8243TIP3   OH246219   1.339   1.278   5.092 -0.1725  0.1344  0.0253
 8243TIP3    H146220   1.247   1.293   5.072 -0.5626  1.1013  2.1899
 8243TIP3    H246221   1.363   1.352   5.148  2.1713  0.3466 -1.1462
 8244TIP3   OH246222   4.336   3.771   5.718  0.4380 -0.7402  0.0277
 8244TIP3    H146223   4.338   3.836   5.788 -1.5984  0.5308 -1.0003
 8244TIP3    H246224   4.283   3.699   5.752 -1.4704  0.3519 -0.5285
 8245TIP3   OH246225   2.422   6.709  15.072  0.1133  0.1128 -0.1370
 8245TIP3    H146226   2.369   6.631  15.056 -0.2657  0.5784 -1.2315
 8245TIP3    H246227   2.439   6.745  14.985 -0.7922  1.9557  0.3945
 8246TIP3   OH246228   6.419   4.025   2.439 -0.3441  0.3752  0.4890
 8246TIP3    H146229   6.477   4.081   2.491  2.0600 -0.9144 -0.6659
 8246TIP3    H246230   6.368   4.087   2.387 -0.4657  1.5660  1.9345
 8247TIP3   OH246231   5.301   6.456   1.048 -0.0092  0.4758  0.0302
 8247TIP3    H146232   5.221   6.405   1.036 -0.0452  0.6279 -0.4075
 8247TIP3    H246233   5.302   6.479   1.141 -0.4434  0.4209  0.0493
 8248TIP3   OH246234   4.378   2.526  13.669 -0.1208 -0.1052 -0.2898
 8248TIP3    H146235   4.471   2.505  13.662 -0.0514  0.6269 -2.0692
 8248TIP3    H246236   4.370   2.612  13.628 -1.5791 -0.1302 -0.1096
 8249TIP3   OH246237   5.451   4.551   2.619  0.5938 -0.4079 -0.3758
 8249TIP3    H146238   5.400   4.628   2.643 -0.0226 -1.4580  1.9404
 8249TIP3    H246239   5.542   4.579   2.628  0.3834  0.2745 -0.3152
 8250TIP3   OH246240   3.479   2.323   1.526  0.3489  0.3561  0.4577
 8250TIP3    H146241   3.425   2.283   1.458  0.7542 -0.6212  0.7036
 8250TIP3    H246242   3.483   2.416   1.502 -2.1447  0.6360  0.8884
 8251TIP3   OH246243   3.635   6.617  11.498  0.1839 -0.2321  0.7583
 8251TIP3    H146244   3.721   6.615  11.541  0.7747 -1.3103 -0.3845
 8251TIP3    H246245   3.584   6.549  11.542  0.7955 -1.3524 -0.2159
 8252TIP3   OH246246   4.243   5.428   2.776  0.1725  0.7964  0.5451
 8252TIP3    H146247   4.184   5.356   2.754  1.2239  0.1132 -0.0974
 8252TIP3    H246248   4.184   5.504   2.786 -1.0316 -0.2737  2.0109
 8253TIP3   OH246249   0.626   5.256  15.928 -0.1090 -0.4428 -0.0779
 8253TIP3    H146250   0.549   5.212  15.963 -0.0117  1.9297  3.7295
 8253TIP3    H246251   0.698   5.226  15.984  0.9087  0.5724 -0.7941
 8254TIP3   OH246252   0.046   1.320  12.059 -0.1058  0.6644 -0.0023
 8254TIP3    H146253  -0.011   1.309  11.983  1.1490  0.7288 -0.9755
 8254TIP3    H246254   0.074   1.411  12.055 -0.7198  0.9269  1.0676
 8255TIP3   OH246255   1.632   4.403  15.857 -0.2996 -0.6225 -0.1398
 8255TIP3    H146256   1.676   4.373  15.777 -0.3383  0.0720 -0.4280
 8255TIP3    H246257   1.627   4.324  15.912  0.6637 -0.8816 -0.3897
 8256TIP3   OH246258   4.384   1.276  12.428  0.0129 -0.2946  0.4581
 8256TIP3    H146259   4.379   1.181  12.437 -0.7894 -0.1725  1.5630
 8256TIP3    H246260   4.470   1.292  12.390  0.0329 -1.4762 -0.0294
 8257TIP3   OH246261   0.333   4.251  16.688  0.0108 -0.4872 -0.2719
 8257TIP3    H146262   0.315   4.341  16.713 -0.6067 -0.4411 -0.8657
 8257TIP3    H246263   0.426   4.239  16.707 -0.3599 -0.3984  1.8347
 8258TIP3   OH246264   2.224   0.700   1.824 -0.0866  0.0228  0.0636
 8258TIP3    H146265   2.205   0.666   1.737  0.9139 -0.2854 -0.0495
 8258TIP3    H246266   2.138   0.709   1.866 -0.4755 -1.4721 -0.3404
 8259TIP3   OH246267   5.862   5.112  11.830  0.2713  0.7000  0.4082
 8259TIP3    H146268   5.856   5.095  11.736 -0.4588  1.2697  0.3374
 8259TIP3    H246269   5.788   5.064  11.867  1.2095 -0.4494  0.8458
 8260TIP3   OH246270   4.920   2.479   1.295 -0.5624 -0.2780 -0.0488
 8260TIP3    H146271   5.009   2.493   1.264 -1.0403 -1.5906 -2.3263
 8260TIP3    H246272   4.924   2.399   1.346 -0.5435 -0.8227 -0.8817
 8261TIP3   OH246273   1.001   2.574   5.533  0.3981  0.1963  0.4642
 8261TIP3    H146274   1.007   2.508   5.464  0.2220 -0.6520  1.2439
 8261TIP3    H246275   1.086   2.617   5.532 -0.2365  1.5690 -1.5934
 8262TIP3   OH246276   1.820   5.027  16.175  0.2907  0.7768  0.2545
 8262TIP3    H146277   1.767   4.949  16.157 -0.8081  1.2231  1.3537
 8262TIP3    H246278   1.826   5.072  16.091 -1.0231  0.6567  0.0626
 8263TIP3   OH246279   1.495   3.859  12.757 -0.5516 -0.3458  0.4265
 8263TIP3    H146280   1.556   3.932  12.774 -1.3692  0.2234  1.0096
 8263TIP3    H246281   1.529   3.817  12.679  0.4667  0.0992  0.6154
 8264TIP3   OH246282   2.802   3.790  14.674 -0.1130  0.1972  0.3026
 8264TIP3    H146283   2.881   3.809  14.624  0.9409 -1.0203  1.4195
 8264TIP3    H246284   2.750   3.870  14.669  1.1760  1.0162 -0.4769
 8265TIP3   OH246285   1.466   0.767  16.930 -0.2722 -0.3442 -0.2149
 8265TIP3    H146286   1.421   0.781  17.014 -0.6673 -0.9614 -0.3172
 8265TIP3    H246287   1.455   0.674  16.912  5.8577 -2.1545  2.5573
 8266TIP3   OH246288   1.670   6.707   1.445 -0.4091 -0.0775 -0.5574
 8266TIP3    H146289   1.617   6.738   1.372 -2.0319  0.1126  0.6329
 8266TIP3    H246290   1.693   6.787   1.493 -1.0054 -0.3443  0.1912
 8267TIP3   OH246291   2.956   3.109  11.647 -0.3955  0.0038 -0.8392
 8267TIP3    H146292   2.909   3.033  11.681  0.2465  0.3394  0.9055
 8267TIP3    H246293   3.028   3.072  11.596 -1.1577 -0.5154 -1.5792
 8268TIP3   OH246294   1.042   2.661   3.195  0.2832 -0.4370 -0.0683
 8268TIP3    H146295   0.957   2.674   3.153  0.3197 -0.8562 -0.2697
 8268TIP3    H246296   1.090   2.603   3.135  0.2973 -1.1212  0.5984
 8269TIP3   OH246297   5.907   0.506  17.151  0.3735 -0.4287 -0.2198
 8269TIP3    H146298   5.886   0.502  17.245  1.1907 -0.0725 -0.0066
 8269TIP3    H246299   5.828   0.542  17.111 -0.5498 -2.0258  0.1125
 8270TIP3   OH246300   4.742   2.198   1.170 -0.0670  0.4004 -0.5707
 8270TIP3    H146301   4.690   2.148   1.107  0.2832  0.9759 -1.3197
 8270TIP3    H246302   4.811   2.239   1.118 -0.3566  1.6944  0.0246
 8271TIP3   OH246303   2.089   1.509  12.404  0.0439  0.4459  0.1665
 8271TIP3    H146304   2.092   1.602  12.382  0.8921  0.3027 -0.4077
 8271TIP3    H246305   2.000   1.494  12.434  0.7542  2.1618  3.5774
 8272TIP3   OH246306   2.423   5.268   0.073  0.2105  0.3379  0.0501
 8272TIP3    H146307   2.504   5.272   0.125  0.2326  0.3578  0.0148
 8272TIP3    H246308   2.425   5.182   0.032 -0.1839  0.0201  0.6811
 8273TIP3   OH246309   2.222   0.632  12.451  0.3584  0.3336  0.0082
 8273TIP3    H146310   2.263   0.546  12.453  0.6191  0.4391 -0.6044
 8273TIP3    H246311   2.224   0.662  12.542 -0.3868 -0.6022  0.3489
 8274TIP3   OH246312   4.738   3.906   2.439 -0.0026  0.5783  0.1080
 8274TIP3    H146313   4.743   3.838   2.506  0.1544  0.1918 -0.2910
 8274TIP3    H246314   4.829   3.928   2.420 -0.0011  3.2638  2.5686
 8275TIP3   OH246315   2.521   2.541   3.177 -0.6240  0.1352 -0.2842
 8275TIP3    H146316   2.436   2.510   3.144 -0.4893  0.6401 -1.1019
 8275TIP3    H246317   2.564   2.579   3.102  0.6810 -0.8222 -0.0577
 8276TIP3   OH246318   5.866   0.434  14.042  0.0360  0.1072  0.1213
 8276TIP3    H146319   5.845   0.445  14.135 -0.9565 -0.4224 -0.0319
 8276TIP3    H246320   5.841   0.343  14.022  2.1416 -0.4565 -0.1765
 8277TIP3   OH246321   4.991   1.029   0.484  0.4146 -0.4972 -0.6145
 8277TIP3    H146322   4.945   0.951   0.514 -0.7352  0.4787  0.2608
 8277TIP3    H246323   4.944   1.056   0.405  0.9580 -0.8069 -1.0526
 8278TIP3   OH246324   0.095   0.805   2.113 -0.2388 -0.4921 -0.2565
 8278TIP3    H146325   0.151   0.816   2.190 -0.5401 -1.7606  0.1518
 8278TIP3    H246326   0.143   0.850   2.043  0.8003 -0.6673  0.3138
 8279TIP3   OH246327   5.310   5.570   5.965 -0.3144 -0.4791 -0.3609
 8279TIP3    H146328   5.346   5.494   5.920  0.3976 -0.2779 -0.1437
 8279TIP3    H246329   5.216   5.567   5.947 -0.1730 -0.9486 -1.0324
 8280TIP3   OH246330   5.931   5.237  14.123 -0.1807 -0.8402  0.2582
 8280TIP3    H146331   5.901   5.152  14.155  1.2563 -1.7209 -0.6344
 8280TIP3    H246332   5.855   5.294  14.133 -0.8158 -1.9084  1.9869
 8281TIP3   OH246333   3.067   4.435  11.112  0.2792 -0.0836 -0.0166
 8281TIP3    H146334   2.999   4.443  11.179 -0.9085 -1.7054 -0.9517
 8281TIP3    H246335   3.057   4.514  11.058 -0.0499  0.2751  0.5580
 8282TIP3   OH246336   2.099   2.938   2.692 -0.0814 -0.7509 -0.0194
 8282TIP3    H146337   2.050   2.857   2.675 -1.5846  0.3924 -1.4008
 8282TIP3    H246338   2.032   3.005   2.702  1.1811  0.6906 -0.9028
 8283TIP3   OH246339   3.896   2.336   2.358 -0.0644  0.1961  0.3628
 8283TIP3    H146340   3.967   2.399   2.349 -0.1868  0.3781  0.6639
 8283TIP3    H246341   3.844   2.368   2.432  0.2229 -0.5906  0.9243
 8284TIP3   OH246342   5.274   0.343   3.417 -0.0912  0.1100  0.3454
 8284TIP3    H146343   5.334   0.416   3.399  0.0282 -0.2864 -1.0051
 8284TIP3    H246344   5.331   0.269   3.435 -0.2145  0.2985  1.6040
 8285TIP3   OH246345   3.570   6.616   5.060  0.3391  0.0777  0.5876
 8285TIP3    H146346   3.570   6.710   5.042  0.0463  0.1588  1.0028
 8285TIP3    H246347   3.634   6.581   4.998 -0.7508  0.3177 -0.7131
 8286TIP3   OH246348   1.349   5.054  14.519  0.1616 -0.1379 -0.0287
 8286TIP3    H146349   1.356   4.978  14.462  1.0708  0.6334 -0.9752
 8286TIP3    H246350   1.256   5.058  14.543 -0.1459 -0.7681 -1.0603
 8287TIP3   OH246351   2.849   2.531  11.448 -0.2925 -0.1431  0.6057
 8287TIP3    H146352   2.832   2.460  11.386 -0.6432  1.2516 -0.9491
 8287TIP3    H246353   2.870   2.486  11.530  2.3425 -2.1416 -0.9710
 8288TIP3   OH246354   0.345   5.817   4.156  0.3758  0.0384 -0.0960
 8288TIP3    H146355   0.332   5.742   4.097  3.1777 -0.0859 -0.7177
 8288TIP3    H246356   0.364   5.778   4.241  1.0212  0.0590 -0.2281
 8289TIP3   OH246357   0.361   0.077  14.464  0.3496  0.5321 -0.0898
 8289TIP3    H146358   0.319   0.083  14.550  0.7674 -1.0968  0.2604
 8289TIP3    H246359   0.454   0.067  14.484  0.6306  1.5874 -0.7940
 8290TIP3   OH246360   5.868   0.827  14.666  0.4320  0.9124 -0.7403
 8290TIP3    H146361   5.784   0.842  14.622 -0.0687  1.4996  0.3820
 8290TIP3    H246362   5.871   0.732  14.680 -0.3031  0.9444 -0.3085
 8291TIP3   OH246363   6.043   1.173   1.410 -0.1109 -0.3610  0.0522
 8291TIP3    H146364   6.102   1.107   1.373  0.5602  0.8610 -1.1223
 8291TIP3    H246365   6.084   1.199   1.492 -0.6455 -1.7328  0.7997
 8292TIP3   OH246366   3.972   2.176   1.812  0.1284 -0.3117  0.0323
 8292TIP3    H146367   3.963   2.154   1.719 -0.6610 -2.3291  0.5335
 8292TIP3    H246368   3.882   2.182   1.844  0.1870  3.9803  0.0199
 8293TIP3   OH246369   2.535   4.252  10.869 -0.0246  0.0654  0.2049
 8293TIP3    H146370   2.580   4.307  10.805  0.6513 -1.3459 -0.5690
 8293TIP3    H246371   2.573   4.277  10.953  1.0787  0.0245 -0.2664
 8294TIP3   OH246372   3.611   2.991  16.585  0.2236 -0.0072  0.0442
 8294TIP3    H146373   3.702   2.989  16.615  0.4486 -0.3211 -0.6365
 8294TIP3    H246374   3.566   3.050  16.646  1.6435  3.2013 -1.7414
 8295TIP3   OH246375   2.469   6.619  14.369  0.4391  0.2053 -0.2923
 8295TIP3    H146376   2.528   6.545  14.384  1.0378  0.6032 -0.6275
 8295TIP3    H246377   2.416   6.593  14.293 -0.3981 -0.4950  0.5164
 8296TIP3   OH246378   1.003   6.092   3.649  0.1885 -0.0439 -0.1665
 8296TIP3    H146379   0.953   6.164   3.613 -0.2233 -0.2432  0.0072
 8296TIP3    H246380   0.954   6.063   3.726  0.4555 -0.3732 -0.1139
 8297TIP3   OH246381   3.944   6.713   3.340  0.4322 -1.0666 -0.1922
 8297TIP3    H146382   3.959   6.628   3.381  0.5947 -0.6009  0.7509
 8297TIP3    H246383   3.860   6.704   3.296  0.4331 -1.7011 -0.0719
 8298TIP3   OH246384   0.450   6.257   2.243  0.3232  0.2248  0.4731
 8298TIP3    H146385   0.399   6.299   2.312  1.1271  1.1928  0.4959
 8298TIP3    H246386   0.528   6.224   2.287  0.5885  0.3789  0.1246
 8299TIP3   OH246387   2.204   4.470   2.218 -0.4497 -0.2143 -0.3191
 8299TIP3    H146388   2.225   4.555   2.181 -1.2913  0.4385  0.6473
 8299TIP3    H246389   2.116   4.480   2.255 -0.1093 -1.1430  0.8416
 8300TIP3   OH246390   6.634   1.579  13.578  0.2575  0.3895  0.1333
 8300TIP3    H146391   6.656   1.573  13.671  1.8721  0.7598 -0.1894
 8300TIP3    H246392   6.539   1.573  13.576  0.0788  1.6571  1.9240
 8301TIP3   OH246393   3.703   5.092  16.202 -0.4298  0.4677  0.5907
 8301TIP3    H146394   3.613   5.060  16.201  0.2203 -1.5743  1.2589
 8301TIP3    H246395   3.701   5.168  16.260 -1.6765  0.2443  0.8621
 8302TIP3   OH246396   6.788   6.573   1.096 -0.9797 -0.0788 -0.8264
 8302TIP3    H146397   6.715   6.614   1.143  0.2047  1.4540 -0.2369
 8302TIP3    H246398   6.772   6.594   1.004 -0.2361  2.1585 -0.5224
 8303TIP3   OH246399   5.116   4.686  15.330 -0.5765  0.5337 -0.1270
 8303TIP3    H146400   5.146   4.772  15.359 -0.7566  0.2235  1.0208
 8303TIP3    H246401   5.024   4.698  15.308 -1.2311  0.1699  2.2076
 8304TIP3   OH246402   1.882   4.574  16.950  0.1392  0.9505 -0.4490
 8304TIP3    H146403   1.869   4.524  17.031 -0.1149  0.8920 -0.5271
 8304TIP3    H246404   1.883   4.508  16.881 -1.4553  1.1318 -0.6986
 8305TIP3   OH246405   3.525   4.179  12.853  0.7941  0.1736  0.4560
 8305TIP3    H146406   3.442   4.211  12.816 -0.2481 -1.0937  1.5931
 8305TIP3    H246407   3.516   4.194  12.947  2.2256  0.7721  0.5190
 8306TIP3   OH246408   5.587   3.729  15.422  0.2236 -0.1838 -0.3947
 8306TIP3    H146409   5.622   3.723  15.333  0.9393 -1.6385 -0.0470
 8306TIP3    H246410   5.659   3.763  15.474 -0.3076  1.0118 -0.4155
 8307TIP3   OH246411   2.950   6.426  14.781 -0.2230 -0.0134  0.2969
 8307TIP3    H146412   3.021   6.388  14.834  1.0933  1.6973 -0.1351
 8307TIP3    H246413   2.872   6.376  14.806  0.6557 -0.3900  2.5906
 8308TIP3   OH246414   2.539   1.401  14.536 -0.9285  0.4380 -0.0907
 8308TIP3    H146415   2.468   1.345  14.567  0.0491 -0.9151 -0.1831
 8308TIP3    H246416   2.579   1.435  14.616 -0.0237 -0.9848  0.1097
 8309TIP3   OH246417   6.115   0.632   3.903  0.3300  0.4405  0.2604
 8309TIP3    H146418   6.041   0.603   3.850 -0.9471  2.0789  1.0311
 8309TIP3    H246419   6.135   0.558   3.960 -2.7783  0.8782  2.1572
 8310TIP3   OH246420   4.524   5.109   1.894  0.6390 -0.5245  0.5414
 8310TIP3    H146421   4.566   5.194   1.879  3.7707 -2.0407 -0.1394
 8310TIP3    H246422   4.532   5.095   1.989 -0.7655  0.2767  0.8138
 8311TIP3   OH246423   4.390   1.159  14.686  0.1351  0.5139 -0.8088
 8311TIP3    H146424   4.470   1.196  14.650  0.3268  0.1088 -0.8058
 8311TIP3    H246425   4.327   1.162  14.614 -0.0141  1.3330 -0.6523
 8312TIP3   OH246426   0.345   2.202  11.883 -0.6472  0.1984 -0.9298
 8312TIP3    H146427   0.379   2.160  11.962 -2.1094 -0.8431 -0.8135
 8312TIP3    H246428   0.411   2.183  11.816  0.2640  0.4945 -0.1318
 8313TIP3   OH246429   0.095   6.685  13.399  0.0598 -0.3675  0.3224
 8313TIP3    H146430   0.114   6.768  13.355  0.7695 -1.0586 -0.7228
 8313TIP3    H246431   0.016   6.702  13.449  1.1082  1.4266  1.4838
 8314TIP3   OH246432   3.687   3.040   5.103 -0.9554  0.5701 -0.4280
 8314TIP3    H146433   3.708   2.955   5.142 -1.5899  0.0264 -1.2241
 8314TIP3    H246434   3.634   3.085   5.169 -1.0086  0.1501 -0.1819
 8315TIP3   OH246435   6.443   5.966   2.630  0.7231  0.1743  0.7097
 8315TIP3    H146436   6.375   6.001   2.688 -1.0478 -1.2481 -0.4162
 8315TIP3    H246437   6.513   6.031   2.634 -0.5383  1.5320  2.1824
 8316TIP3   OH246438   0.745   4.575  14.194 -0.0108  0.2222  0.7997
 8316TIP3    H146439   0.799   4.643  14.153 -1.1264  0.2114 -0.7895
 8316TIP3    H246440   0.783   4.493  14.163  0.8104  0.1238  2.0257
 8317TIP3   OH246441   4.402   3.914  14.189 -0.3829  0.3768 -0.1863
 8317TIP3    H146442   4.399   4.007  14.213 -1.1218  0.1754  0.5622
 8317TIP3    H246443   4.382   3.868  14.271 -1.0908 -0.4061 -0.7848
 8318TIP3   OH246444   6.402   3.805  13.839 -0.0114  0.3952 -0.4345
 8318TIP3    H146445   6.338   3.735  13.844  1.3276 -0.7887  1.3375
 8318TIP3    H246446   6.374   3.868  13.905  1.2555 -0.7531  1.3021
 8319TIP3   OH246447   4.594   3.744  16.976 -0.1613 -0.3825  0.0461
 8319TIP3    H146448   4.626   3.818  16.924  2.5622  0.4034  2.5389
 8319TIP3    H246449   4.673   3.694  16.997 -1.7815 -3.3651 -0.4818
 8320TIP3   OH246450   6.635   5.078   1.044  0.0813 -0.0178 -0.2843
 8320TIP3    H146451   6.608   5.141   1.111  0.1111 -0.3163  0.0156
 8320TIP3    H246452   6.711   5.118   1.002 -0.9837  0.9587 -1.3355
 8321TIP3   OH246453   4.541   0.664  12.236 -0.3870 -0.0411  0.3919
 8321TIP3    H146454   4.446   0.651  12.239 -0.6337  1.5172  0.4152
 8321TIP3    H246455   4.561   0.673  12.142  0.0400 -2.1041  0.2391
 8322TIP3   OH246456   3.092   0.145  13.760 -0.0674  0.5701  0.1039
 8322TIP3    H146457   3.161   0.182  13.815 -0.1947 -0.2636  0.8397
 8322TIP3    H246458   3.139   0.100  13.690  0.2627 -1.6539  1.6448
 8323TIP3   OH246459   5.469   2.515  13.711  0.0608 -0.0479 -0.3499
 8323TIP3    H146460   5.425   2.431  13.721  1.0283 -0.6848 -1.1707
 8323TIP3    H246461   5.537   2.498  13.645  3.1200  0.2165  2.4595
 8324TIP3   OH246462   6.262   0.986  11.412 -0.0799 -0.2421  0.1435
 8324TIP3    H146463   6.313   1.002  11.491  1.2815 -3.0197 -0.0676
 8324TIP3    H246464   6.307   1.035  11.343  1.4553 -1.4225  0.2652
 8325TIP3   OH246465   3.224   5.105  17.130 -0.0838  0.0082  0.1242
 8325TIP3    H146466   3.257   5.027  17.085  1.0380  0.0651  0.8030
 8325TIP3    H246467   3.229   5.083  17.223  1.5096  1.3229  0.4079
 8326TIP3   OH246468   0.698   2.478   3.090  0.5048  0.3584  0.3726
 8326TIP3    H146469   0.717   2.569   3.111  1.1577  0.8880 -2.2342
 8326TIP3    H246470   0.617   2.459   3.138 -0.9345  3.0342 -0.7441
 8327TIP3   OH246471   4.484   2.687   4.872  0.0520 -0.0309 -0.1656
 8327TIP3    H146472   4.452   2.657   4.957 -2.6383 -1.0125 -1.4024
 8327TIP3    H246473   4.420   2.752   4.844  1.8337  1.5479 -0.7486
 8328TIP3   OH246474   1.274   4.406   2.161 -0.4225 -0.9133  0.1278
 8328TIP3    H146475   1.358   4.384   2.119  0.5492 -0.3853  1.7004
 8328TIP3    H246476   1.259   4.497   2.139  0.0109 -0.6807  0.7505
 8329TIP3   OH246477   5.283   5.066  12.502 -0.5046  0.2970 -0.2949
 8329TIP3    H146478   5.269   4.975  12.479  0.3310 -0.0846  0.6419
 8329TIP3    H246479   5.235   5.079  12.584 -0.0087  0.4798 -0.0242
 8330TIP3   OH246480   3.856   3.852  14.052 -0.3115  0.0320  0.1058
 8330TIP3    H146481   3.947   3.849  14.081  0.2898 -0.9846 -1.7990
 8330TIP3    H246482   3.815   3.915  14.112  1.8088  1.1350  0.4931
 8331TIP3   OH246483   2.418   6.326  12.895  0.0912 -0.0675  0.7447
 8331TIP3    H146484   2.334   6.357  12.930 -0.1704 -0.8753  0.8387
 8331TIP3    H246485   2.432   6.381  12.817 -0.8785 -0.3990  0.3191
 8332TIP3   OH246486   3.690   5.293  16.388 -0.0968  0.0542  0.2606
 8332TIP3    H146487   3.733   5.378  16.379 -0.8475  0.2663 -2.2968
 8332TIP3    H246488   3.599   5.314  16.411 -0.0368 -0.1188  0.6610
 8333TIP3   OH246489   2.802   6.761   5.893  0.5128 -0.2405  0.0575
 8333TIP3    H146490   2.853   6.769   5.973  1.6233 -1.5452 -0.4651
 8333TIP3    H246491   2.867   6.761   5.823 -0.4557  1.2185 -0.8930
 8334TIP3   OH246492   5.664   1.331   2.278 -0.2748 -0.0734  0.3586
 8334TIP3    H146493   5.593   1.316   2.341  1.1060 -1.2500  1.6993
 8334TIP3    H246494   5.664   1.252   2.223 -0.1840  0.0590  0.1687
 8335TIP3   OH246495   6.438   1.618   2.631 -0.7241 -0.2816  0.1020
 8335TIP3    H146496   6.373   1.654   2.691  0.2250  1.6441  0.0517
 8335TIP3    H246497   6.422   1.664   2.548  1.2611  0.9744  0.3560
 8336TIP3   OH246498   4.704   6.419  11.604  0.4493  0.3935 -0.1107
 8336TIP3    H146499   4.774   6.397  11.665 -0.1713  0.5947  0.7052
 8336TIP3    H246500   4.748   6.455  11.527  1.2008  1.2611  0.7047
 8337TIP3   OH246501   1.890   6.068  14.649 -0.2907 -0.2005  0.3282
 8337TIP3    H146502   1.928   6.057  14.736  1.3819  1.9308 -0.0646
 8337TIP3    H246503   1.838   6.148  14.656  0.4002  0.3646 -0.7932
 8338TIP3   OH246504   6.771   3.676  15.968 -0.0295  0.1038  0.5531
 8338TIP3    H146505   6.677   3.694  15.973  0.0775  0.2676  2.6005
 8338TIP3    H246506   6.807   3.712  16.049  1.8631  0.2774 -0.3032
 8339TIP3   OH246507   4.097   3.145  16.158  0.1813 -0.3605 -0.2842
 8339TIP3    H146508   4.067   3.059  16.186  1.2819 -0.7532 -0.2899
 8339TIP3    H246509   4.131   3.186  16.237 -0.9024  0.3216 -0.1566
 8340TIP3   OH246510   4.873   4.419  13.611  0.4832 -0.4312  0.2913
 8340TIP3    H146511   4.906   4.428  13.522 -0.9072 -0.0482 -0.2160
 8340TIP3    H246512   4.810   4.490  13.621  2.1241  0.8341  2.3238
 8341TIP3   OH246513   1.655   4.061   3.006  0.9370  0.4243  0.1942
 8341TIP3    H146514   1.658   3.996   2.937 -1.4254 -1.4322  1.6540
 8341TIP3    H246515   1.636   4.144   2.961 -2.1060 -0.9707 -1.3750
 8342TIP3   OH246516   3.349   1.912   6.561  0.7714 -0.2088  0.5908
 8342TIP3    H146517   3.395   1.930   6.643  0.6884  1.0564  0.3758
 8342TIP3    H246518   3.280   1.850   6.585 -0.1205  1.1846  1.7697
 8343TIP3   OH246519   6.301   4.948  15.494  0.0702 -0.3541  0.2002
 8343TIP3    H146520   6.366   5.018  15.486 -0.8734  0.4291 -0.9738
 8343TIP3    H246521   6.248   4.973  15.570 -0.8315  0.7355 -0.7457
 8344TIP3   OH246522   6.818   1.997  16.589  0.1324  0.0667  0.0771
 8344TIP3    H146523   6.728   1.999  16.623  0.0211  2.2262 -0.1774
 8344TIP3    H246524   6.814   2.050  16.509  1.5242 -0.2457 -0.2143
 8345TIP3   OH246525   6.039   5.881   4.635  0.1273 -0.0009  0.0885
 8345TIP3    H146526   6.059   5.788   4.620 -0.5322  0.2310 -2.7635
 8345TIP3    H246527   6.101   5.928   4.579  0.4179  1.3242  1.4560
 8346TIP3   OH246528   6.824   4.404   5.133  0.4181 -0.3672 -0.3433
 8346TIP3    H146529   6.843   4.433   5.044  1.6493  0.5286  0.1890
 8346TIP3    H246530   6.895   4.343   5.153  0.9329  0.5096  0.5205
 8347TIP3   OH246531   3.619   3.900   4.398 -0.0441  0.0859  0.7284
 8347TIP3    H146532   3.704   3.927   4.363  0.1234  1.5963  2.1398
 8347TIP3    H246533   3.615   3.806   4.382  1.3137  0.2127 -0.5470
 8348TIP3   OH246534   4.083   4.423   1.407  0.5716  0.4124  0.0140
 8348TIP3    H146535   4.147   4.416   1.478  0.3311 -0.9698  0.1246
 8348TIP3    H246536   4.089   4.339   1.361  0.0951  0.9535 -1.0628
 8349TIP3   OH246537   4.185   5.561   3.437 -0.6549 -0.0154  0.6057
 8349TIP3    H146538   4.211   5.647   3.469  1.1467 -1.1198  2.3067
 8349TIP3    H246539   4.263   5.526   3.394 -1.2195 -0.9989  0.3289
 8350TIP3   OH246540   2.673   3.515  11.953  0.6081 -0.1337 -0.1816
 8350TIP3    H146541   2.732   3.456  12.002  1.6870 -0.2718 -1.5916
 8350TIP3    H246542   2.669   3.477  11.865  0.5002  1.3370 -0.8296
 8351TIP3   OH246543   3.751   6.735  13.147 -0.1216  0.0085  0.3293
 8351TIP3    H146544   3.773   6.798  13.079  0.1529 -1.2456 -0.7811
 8351TIP3    H246545   3.671   6.770  13.187 -0.2906  0.7740 -0.6460
 8352TIP3   OH246546   3.962   4.965  13.988 -0.3451 -0.0537  0.3000
 8352TIP3    H146547   3.909   4.936  14.063  2.1721 -1.0720  1.8059
 8352TIP3    H246548   3.979   5.057  14.006  1.1547 -0.5467  1.6512
 8353TIP3   OH246549   2.758   5.367   0.030  0.4005  0.4933  0.2138
 8353TIP3    H146550   2.745   5.347   0.123  1.7028 -0.8475  0.1362
 8353TIP3    H246551   2.842   5.328   0.008  0.0126  0.5832 -1.5995
 8354TIP3   OH246552   2.355   6.463  12.251  0.3995 -0.1305  0.2008
 8354TIP3    H146553   2.424   6.403  12.224  0.0154 -0.6765  0.4082
 8354TIP3    H246554   2.277   6.434  12.204  0.2317  0.2719  0.2220
 8355TIP3   OH246555   3.495   5.365  12.088 -0.2561 -0.5527  0.2140
 8355TIP3    H146556   3.429   5.391  12.023 -1.8507 -0.6763  1.6961
 8355TIP3    H246557   3.536   5.287  12.050 -2.1428 -1.4757 -0.0623
 8356TIP3   OH246558   0.376   2.450   2.991 -0.1327  0.2052 -0.3266
 8356TIP3    H146559   0.401   2.474   3.080  0.8189  0.5718 -0.6766
 8356TIP3    H246560   0.337   2.363   2.999 -0.1454  0.2770  0.4571
 8357TIP3   OH246561   5.769   2.767   2.975  0.4778 -0.6762  0.0178
 8357TIP3    H146562   5.764   2.709   3.051  0.8124  0.3015  0.8075
 8357TIP3    H246563   5.750   2.854   3.010  2.4881  0.0859 -0.6489
 8358TIP3   OH246564   4.380   0.538   5.023  0.3931 -0.3340  0.2416
 8358TIP3    H146565   4.305   0.511   4.971  0.4829 -1.2680  0.5742
 8358TIP3    H246566   4.412   0.457   5.063  1.9090 -0.0622 -0.3264
 8359TIP3   OH246567   3.573   2.785   2.037  0.1739  0.1559  0.1034
 8359TIP3    H146568   3.619   2.858   2.077  0.5174  0.2786 -0.4953
 8359TIP3    H246569   3.496   2.772   2.091  0.0079  1.0910  0.1050
 8360TIP3   OH246570   3.681   0.148  14.105 -0.0740  0.0939 -0.0037
 8360TIP3    H146571   3.771   0.127  14.131  0.1693  0.3402 -0.6287
 8360TIP3    H246572   3.680   0.243  14.096 -0.3527  0.0774 -0.1640
 8361TIP3   OH246573   4.984   6.749   6.110 -0.5337  0.0065  0.2544
 8361TIP3    H146574   4.973   6.655   6.102  2.4654 -0.4533  0.3176
 8361TIP3    H246575   5.031   6.761   6.193  1.1321  1.2910 -0.7955
 8362TIP3   OH246576   1.200   5.763  11.036 -0.4650  0.6520 -0.4798
 8362TIP3    H146577   1.191   5.705  11.111  0.3123 -1.0616 -1.6467
 8362TIP3    H246578   1.293   5.759  11.013 -0.6012  1.4967 -1.2680
 8363TIP3   OH246579   6.261   3.473   5.082 -0.2412 -0.2422  0.4160
 8363TIP3    H146580   6.168   3.461   5.099 -0.5120 -0.2023 -0.9106
 8363TIP3    H246581   6.275   3.436   4.995  0.7713  0.6813  0.1565
 8364TIP3   OH246582   5.516   1.977   4.029  0.9813 -0.2795  0.2501
 8364TIP3    H146583   5.511   1.975   3.933  2.1559  1.0843  0.1227
 8364TIP3    H246584   5.608   1.961   4.048  0.9589  0.5191  1.0881
 8365TIP3   OH246585   2.767   6.269  12.973 -0.0413  0.4890 -0.3108
 8365TIP3    H146586   2.706   6.196  12.981  1.4720 -0.8994 -0.9620
 8365TIP3    H246587   2.748   6.325  13.048 -1.4614 -0.3959  0.0223
 8366TIP3   OH246588   5.056   1.746   5.210  0.3764  0.1180 -0.1092
 8366TIP3    H146589   5.051   1.714   5.300  0.1795  4.0792  1.5135
 8366TIP3    H246590   4.965   1.767   5.187  0.4556 -0.6385 -1.1535
 8367TIP3   OH246591   6.818   2.320   5.785 -0.2928 -0.2432  0.0853
 8367TIP3    H146592   6.768   2.348   5.709 -0.7580  3.0482  1.4158
 8367TIP3    H246593   6.759   2.262   5.833 -0.4322 -1.3820 -1.4091
 8368TIP3   OH246594   4.360   3.761  12.847 -0.1124 -0.3488  0.1671
 8368TIP3    H146595   4.408   3.843  12.862 -0.0285 -0.4079  0.2200
 8368TIP3    H246596   4.426   3.693  12.854  0.1214 -0.3241 -1.3709
 8369TIP3   OH246597   2.403   5.806   0.839 -0.6384  0.2008  0.3422
 8369TIP3    H146598   2.402   5.747   0.915 -0.3854 -0.3743 -0.0986
 8369TIP3    H246599   2.387   5.749   0.764 -0.4895  0.7112 -0.0805
 8370TIP3   OH246600   6.402   3.597  16.673 -0.8477  0.4062 -0.5116
 8370TIP3    H146601   6.360   3.528  16.622  0.2777  0.2515 -1.2508
 8370TIP3    H246602   6.456   3.645  16.610  1.5806 -0.5694  0.7079
 8371TIP3   OH246603   5.863   4.820   4.569 -0.4713 -0.3332  0.0000
 8371TIP3    H146604   5.894   4.830   4.659 -0.2383  2.3145 -0.2805
 8371TIP3    H246605   5.792   4.884   4.561  1.0324  1.2066 -2.2981
 8372TIP3   OH246606   3.933   5.252   1.866  0.5699 -0.4629  0.0739
 8372TIP3    H146607   3.907   5.163   1.890  1.6701 -0.7760  0.1522
 8372TIP3    H246608   4.029   5.251   1.867  0.6045  0.7860  0.2954
 8373TIP3   OH246609   5.580   1.765   2.355 -0.2431  0.0950 -0.0226
 8373TIP3    H146610   5.532   1.688   2.326  0.4801  0.0226 -1.0854
 8373TIP3    H246611   5.564   1.830   2.286 -0.4168  0.7193  0.5969
 8374TIP3   OH246612   5.756   4.006   3.134  0.3121 -0.7706 -0.4548
 8374TIP3    H146613   5.822   3.970   3.074  1.5473  0.0356  0.3546
 8374TIP3    H246614   5.789   4.093   3.154  0.1625 -1.1673  1.6980
 8375TIP3   OH246615   3.492   0.108   4.280 -0.2571  0.2953  0.1565
 8375TIP3    H146616   3.408   0.066   4.300 -2.2358  1.4399 -4.4010
 8375TIP3    H246617   3.556   0.037   4.280 -1.7497 -1.1137  1.0301
 8376TIP3   OH246618   0.963   4.413   5.667  0.7104  0.1944  0.5559
 8376TIP3    H146619   0.918   4.463   5.735 -0.6409  1.3722 -1.1000
 8376TIP3    H246620   1.037   4.468   5.641  0.4436  0.3848  0.1800
 8377TIP3   OH246621   5.061   5.623   5.140 -0.2860 -0.5505 -0.1369
 8377TIP3    H146622   5.008   5.561   5.090 -0.1536 -0.9500  0.2132
 8377TIP3    H246623   5.078   5.579   5.223 -2.2173  0.8928  1.1208
 8378TIP3   OH246624   4.569   4.833  13.066  0.3821 -0.0968 -0.2019
 8378TIP3    H146625   4.613   4.918  13.059  2.0812 -0.8833  0.4384
 8378TIP3    H246626   4.582   4.792  12.981 -0.4096  0.2507 -0.5004
 8379TIP3   OH246627   6.526   4.459   2.179  0.7395  0.5291  0.0653
 8379TIP3    H146628   6.560   4.517   2.110 -0.9808  1.2788 -0.2123
 8379TIP3    H246629   6.482   4.518   2.240 -0.8696 -0.4295 -0.1067
 8380TIP3   OH246630   4.292   1.001  12.403  0.4114  0.2598 -0.3007
 8380TIP3    H146631   4.260   1.008  12.493  0.4275  1.4819 -0.3697
 8380TIP3    H246632   4.216   0.972  12.352 -0.4095  2.3194 -0.3297
 8381TIP3   OH246633   0.627   5.799   4.318  0.2065  0.1025  0.0708
 8381TIP3    H146634   0.686   5.734   4.278 -0.3419 -2.2272  2.7349
 8381TIP3    H246635   0.544   5.753   4.329 -0.4489  1.5229  1.4216
 8382TIP3   OH246636   6.494   2.287   5.939 -0.7287 -0.0024 -0.3849
 8382TIP3    H146637   6.467   2.299   6.030 -0.9535 -0.0560 -0.4436
 8382TIP3    H246638   6.529   2.198   5.935  1.6980  0.8595  0.2390
 8383TIP3   OH246639   2.684   1.698   0.645  0.5150  0.1479  0.1268
 8383TIP3    H146640   2.671   1.682   0.551  0.7369 -0.2573  0.1625
 8383TIP3    H246641   2.658   1.616   0.687  1.2463  0.0267  0.3524
 8384TIP3   OH246642   4.970   0.968  12.411 -0.9738 -0.0323  0.0862
 8384TIP3    H146643   4.942   1.042  12.465 -0.1914  0.0017  0.4584
 8384TIP3    H246644   4.909   0.897  12.435 -1.6666  0.4516 -0.2073
 8385TIP3   OH246645   3.685   6.211  12.751  0.1527 -0.1789  0.3460
 8385TIP3    H146646   3.689   6.286  12.811  0.2105  1.5856 -1.7444
 8385TIP3    H246647   3.592   6.193  12.741  0.0055  1.0420 -0.7529
 8386TIP3   OH246648   3.864   3.436  12.099 -0.1740  0.0200 -0.0097
 8386TIP3    H146649   3.780   3.473  12.127  0.0551  0.6216 -0.0966
 8386TIP3    H246650   3.868   3.351  12.142 -1.1762 -0.3583 -0.6221
 8387TIP3   OH246651   3.158   1.427   1.947 -0.2101 -0.4198  0.1574
 8387TIP3    H146652   3.204   1.361   1.998 -0.3343  1.1850  2.5062
 8387TIP3    H246653   3.135   1.495   2.011  0.5945  2.2715 -2.1914
 8388TIP3   OH246654   1.034   1.458   5.727 -0.1832  0.2886 -0.4353
 8388TIP3    H146655   0.953   1.450   5.676  0.1737  1.3964 -1.2181
 8388TIP3    H246656   1.006   1.495   5.811 -0.6338 -0.5410 -0.2031
 8389TIP3   OH246657   6.229   4.788   0.729  0.0800  0.0361 -0.4695
 8389TIP3    H146658   6.268   4.770   0.643  1.4072 -3.8621  0.7071
 8389TIP3    H246659   6.295   4.840   0.774  2.3174 -2.9241  0.0374
 8390TIP3   OH246660   3.459   2.768  16.609  0.2395 -0.3452  0.4017
 8390TIP3    H146661   3.429   2.787  16.698  0.8893  1.0247  0.3588
 8390TIP3    H246662   3.523   2.837  16.590  0.9263 -1.2485 -0.7273
 8391TIP3   OH246663   0.978   2.300  12.524 -0.2040 -0.6143 -0.9731
 8391TIP3    H146664   0.971   2.245  12.446 -1.0100 -0.4213 -1.0461
 8391TIP3    H246665   0.887   2.317  12.549 -0.0491  1.8176 -1.7782
 8392TIP3   OH246666   4.641   0.475   2.830  0.2049  0.1666 -0.7713
 8392TIP3    H146667   4.694   0.547   2.797 -0.2846  1.3904  0.9738
 8392TIP3    H246668   4.653   0.478   2.925 -0.5109 -1.5194 -0.5917
 8393TIP3   OH246669   4.340   5.433   5.399 -0.9083  0.3744  0.2803
 8393TIP3    H146670   4.316   5.522   5.373 -1.1968  0.3648  0.5036
 8393TIP3    H246671   4.433   5.427   5.379 -0.9007  0.7061  0.2021
 8394TIP3   OH246672   1.126   0.287  16.810  0.2061  0.2734 -0.1543
 8394TIP3    H146673   1.173   0.369  16.801  2.2764 -0.9411 -1.0978
 8394TIP3    H246674   1.148   0.237  16.731 -2.3916 -0.5593 -0.4739
 8395TIP3   OH246675   5.420   3.136  13.671  0.6633  0.2227 -0.0695
 8395TIP3    H146676   5.409   3.062  13.612  1.5271  0.7368 -0.9068
 8395TIP3    H246677   5.512   3.160  13.662  0.2619  1.8027 -0.3421
 8396TIP3   OH246678   1.585   6.450  16.166 -0.1334 -0.2449  0.1684
 8396TIP3    H146679   1.644   6.489  16.231 -0.0656 -0.4351  0.2193
 8396TIP3    H246680   1.640   6.390  16.116 -0.3390 -0.6123  0.3779
 8397TIP3   OH246681   5.484   1.494   0.724 -0.1499 -0.1036 -0.2862
 8397TIP3    H146682   5.509   1.448   0.643 -0.6718 -1.0675  0.0815
 8397TIP3    H246683   5.566   1.503   0.773  0.1558  0.4110 -0.8790
 8398TIP3   OH246684   4.309   0.372  16.277  0.2944  0.1087 -0.1584
 8398TIP3    H146685   4.229   0.324  16.297  0.6754 -0.3781  0.2113
 8398TIP3    H246686   4.380   0.314  16.305  0.8334 -0.1717 -1.9128
 8399TIP3   OH246687   6.462   1.242  15.248  0.6120 -0.0333  0.2604
 8399TIP3    H146688   6.486   1.302  15.177 -0.8263 -0.8585 -0.9753
 8399TIP3    H246689   6.437   1.299  15.320 -0.4714  0.8691 -0.7985
 8400TIP3   OH246690   1.597   1.849  11.821  0.0970 -0.3008  0.5551
 8400TIP3    H146691   1.631   1.932  11.787  0.6737 -0.7352  0.0592
 8400TIP3    H246692   1.515   1.835  11.775  0.6318 -0.6417 -0.3173
 8401TIP3   OH246693   4.709   0.914   2.796 -0.7024  0.1690 -0.4066
 8401TIP3    H146694   4.646   0.972   2.754 -1.5109 -0.5350 -0.1991
 8401TIP3    H246695   4.733   0.959   2.877 -0.8590  0.4955 -0.5415
 8402TIP3   OH246696   4.289   6.666  13.784 -0.0082 -0.2730 -0.0221
 8402TIP3    H146697   4.307   6.712  13.865 -0.3238 -1.7834  0.9346
 8402TIP3    H246698   4.375   6.643  13.749  0.2163  1.9911 -1.1332
 8403TIP3   OH246699   0.544   3.508   3.964  0.5386  0.0846 -0.3871
 8403TIP3    H146700   0.529   3.503   4.059 -0.0865 -0.3070 -0.5006
 8403TIP3    H246701   0.638   3.523   3.956  0.8185 -1.1176  0.2822
 8404TIP3   OH246702   5.535   6.099  13.750 -0.1966 -0.0005 -0.1582
 8404TIP3    H146703   5.560   6.046  13.826 -0.9673 -1.8242 -1.1153
 8404TIP3    H246704   5.597   6.074  13.682 -1.3818 -0.7031 -1.0179
 8405TIP3   OH246705   2.302   4.717  13.290 -0.0184  0.2733 -0.1586
 8405TIP3    H146706   2.396   4.733  13.297 -0.1392  0.5476  0.8869
 8405TIP3    H246707   2.278   4.759  13.207  1.1972 -1.9565 -1.7685
 8406TIP3   OH246708   0.371   6.404  13.363  0.1125  0.6604  0.0202
 8406TIP3    H146709   0.391   6.494  13.337  0.4778  0.5283 -0.1695
 8406TIP3    H246710   0.346   6.410  13.455  0.3516  0.9257  0.0691
 8407TIP3   OH246711   0.736   3.255   2.727 -0.5566  0.6532 -0.0344
 8407TIP3    H146712   0.795   3.255   2.802 -0.7192  0.8347  0.0936
 8407TIP3    H246713   0.668   3.318   2.750 -0.3041  1.1340 -0.5739
 8408TIP3   OH246714   2.812   4.472  10.823 -0.0689 -0.0436 -0.0058
 8408TIP3    H146715   2.834   4.390  10.780  0.0747  0.9419 -1.9150
 8408TIP3    H246716   2.719   4.485  10.804  0.3594  1.1558 -1.3739
 8409TIP3   OH246717   0.741   0.827   4.309  0.0623  0.1825 -0.2236
 8409TIP3    H146718   0.711   0.876   4.386  1.4810  1.2111 -0.2798
 8409TIP3    H246719   0.804   0.764   4.344  0.7226  0.6621 -0.5122
 8410TIP3   OH246720   1.751   4.898   0.842 -0.2845 -0.2551  0.1831
 8410TIP3    H146721   1.837   4.894   0.884  0.0351 -3.2673 -0.5148
 8410TIP3    H246722   1.701   4.959   0.896  1.9519  0.7907  1.2132
 8411TIP3   OH246723   5.376   5.927  12.035  0.6771 -0.2566  0.0956
 8411TIP3    H146724   5.444   5.868  12.065 -0.1092  0.1278  2.8988
 8411TIP3    H246725   5.379   6.000  12.097 -0.1308  1.3750 -1.6920
 8412TIP3   OH246726   6.682   1.084  15.756 -0.1361  0.1076 -0.2587
 8412TIP3    H146727   6.721   1.109  15.840 -1.2472  0.1033  0.2733
 8412TIP3    H246728   6.748   1.107  15.691  0.6001  0.4296  0.5876
 8413TIP3   OH246729   4.784   2.593   4.165 -0.0193  0.1993  0.8001
 8413TIP3    H146730   4.877   2.613   4.151  0.5430 -1.4399  1.9118
 8413TIP3    H246731   4.738   2.653   4.107  1.8683 -1.5600 -2.8708
 8414TIP3   OH246732   3.256   2.442   3.180  0.0976 -0.4998  0.0956
 8414TIP3    H146733   3.285   2.460   3.091  0.8643  0.7010  0.5628
 8414TIP3    H246734   3.174   2.394   3.170  0.1404 -0.3186 -1.2500
 8415TIP3   OH246735   6.656   6.602   0.836  0.1501  0.2448 -0.4219
 8415TIP3    H146736   6.585   6.651   0.795 -0.6826  0.1697  0.8769
 8415TIP3    H246737   6.613   6.532   0.884  1.0439  0.5388  0.8653
 8416TIP3   OH246738   4.910   0.114   5.010  0.4570  0.9321  0.3608
 8416TIP3    H146739   5.001   0.123   4.981  0.4499  0.0714  0.0291
 8416TIP3    H246740   4.879   0.203   5.020  2.1100  1.3398  2.9236
 8417TIP3   OH246741   4.080   4.986  14.382  0.2179 -0.5411 -0.2438
 8417TIP3    H146742   4.030   4.967  14.303 -0.5285  0.6035 -0.0731
 8417TIP3    H246743   4.058   4.915  14.442  0.4086 -1.1479 -0.8797
 8418TIP3   OH246744   5.120   1.010   6.709  0.3695 -0.3069 -0.4437
 8418TIP3    H146745   5.054   1.027   6.642  1.0120 -1.8714 -1.5157
 8418TIP3    H246746   5.193   1.068   6.686  0.2673 -0.2513 -0.6308
 8419TIP3   OH246747   1.624   3.308  12.930 -0.3541  0.1214 -0.4488
 8419TIP3    H146748   1.611   3.221  12.891 -0.1677 -0.6356  1.1231
 8419TIP3    H246749   1.653   3.362  12.857  0.2852 -1.3182 -1.3053
 8420TIP3   OH246750   3.647   1.464  12.545 -0.7485  0.1383 -0.5095
 8420TIP3    H146751   3.631   1.418  12.462 -0.4815 -0.6164 -0.1464
 8420TIP3    H246752   3.659   1.394  12.609 -1.0682  0.7222  0.1938
 8421TIP3   OH246753   5.313   2.434   3.439  0.0719  0.0043  0.1780
 8421TIP3    H146754   5.278   2.521   3.454  1.7481  0.4560  1.8792
 8421TIP3    H246755   5.395   2.432   3.489 -1.5538 -3.7097  3.2409
 8422TIP3   OH246756   5.523   6.412   1.221  0.4438 -0.2758  0.0690
 8422TIP3    H146757   5.572   6.339   1.259  1.9395  0.5375 -0.2179
 8422TIP3    H246758   5.468   6.371   1.154 -0.6114 -1.4350  1.5590
 8423TIP3   OH246759   4.517   0.197  14.872  0.2533  0.2519 -0.3329
 8423TIP3    H146760   4.532   0.105  14.893 -0.6739 -0.2294 -1.6267
 8423TIP3    H246761   4.427   0.213  14.898 -0.2850  0.1715 -2.0424
 8424TIP3   OH246762   2.776   3.172   1.783 -0.3755  0.2086  0.2201
 8424TIP3    H146763   2.734   3.107   1.839 -2.2810  1.1197 -0.0729
 8424TIP3    H246764   2.865   3.139   1.771 -0.8746 -1.6378  1.1706
 8425TIP3   OH246765   2.801   0.414  15.645  0.1195 -0.3221 -0.1523
 8425TIP3    H146766   2.812   0.356  15.569 -0.5368 -0.8017  0.1060
 8425TIP3    H246767   2.884   0.406  15.693  0.0411 -1.0609 -0.1180
 8426TIP3   OH246768   3.246   0.852  10.907  0.1315 -0.4536 -0.2631
 8426TIP3    H146769   3.272   0.930  10.858 -0.7653  0.4094  0.5830
 8426TIP3    H246770   3.197   0.799  10.844 -0.3108  0.2556 -0.5290
 8427TIP3   OH246771   4.174   1.895  10.976  0.4889  0.8481  0.4110
 8427TIP3    H146772   4.249   1.944  10.942 -0.0454  0.3619 -1.6137
 8427TIP3    H246773   4.154   1.832  10.907 -4.4800  3.7074 -1.2566
 8428TIP3   OH246774   0.454   1.124  13.742  0.4635  0.4001 -0.0196
 8428TIP3    H146775   0.483   1.050  13.689  2.8599  0.4786  1.0779
 8428TIP3    H246776   0.530   1.182  13.747 -1.3325  3.0418 -0.8957
 8429TIP3   OH246777   1.989   3.109   2.941 -0.2955 -0.4108 -0.1875
 8429TIP3    H146778   1.906   3.062   2.936 -0.2990 -0.2346 -2.6447
 8429TIP3    H246779   1.970   3.196   2.905  0.2977  0.7087  1.9916
 8430TIP3   OH246780   4.760   3.869   4.806  0.2605 -0.1728  0.1319
 8430TIP3    H146781   4.830   3.834   4.861 -0.1889  1.3731  1.7894
 8430TIP3    H246782   4.680   3.855   4.856 -0.2359  0.8320 -0.3251
 8431TIP3   OH246783   4.852   3.885   5.210  0.0463  0.3169  0.2741
 8431TIP3    H146784   4.759   3.906   5.204  0.2315  0.9346 -0.8486
 8431TIP3    H246785   4.855   3.803   5.258 -1.0108  0.7501  1.1172
 8432TIP3   OH246786   5.571   3.055  16.330  0.3430 -0.5161 -0.2227
 8432TIP3    H146787   5.565   3.091  16.241  1.4184  0.4250  0.0610
 8432TIP3    H246788   5.596   2.963  16.317  2.1944  0.0384 -0.8840
 8433TIP3   OH246789   0.471   2.932  12.817  0.1452  0.6540  0.7292
 8433TIP3    H146790   0.465   2.851  12.868  1.0555 -0.1696 -0.4194
 8433TIP3    H246791   0.401   2.988  12.852 -1.7076 -1.3051  0.3634
 8434TIP3   OH246792   0.753   6.268  11.696  0.2812  0.3599 -0.3964
 8434TIP3    H146793   0.768   6.320  11.617  2.3024 -0.1094 -0.3785
 8434TIP3    H246794   0.840   6.261  11.737 -0.7398  0.7809  2.0116
 8435TIP3   OH246795   2.248   6.557  16.655  0.5079 -0.0186 -0.1069
 8435TIP3    H146796   2.317   6.576  16.592  0.8044 -0.9593 -0.0737
 8435TIP3    H246797   2.254   6.629  16.718  3.4077 -1.4558  1.5307
 8436TIP3   OH246798   4.369   3.570   1.934  0.2017  0.5593 -0.3529
 8436TIP3    H146799   4.328   3.569   1.848  0.0013  2.0367 -0.2951
 8436TIP3    H246800   4.296   3.566   1.996  0.3872 -1.8209 -0.1987
 8437TIP3   OH246801   6.033   5.480   5.407  0.5704 -0.2775  0.5019
 8437TIP3    H146802   6.073   5.395   5.390 -0.1794 -0.4812 -0.3315
 8437TIP3    H246803   5.977   5.496   5.331 -0.2857  0.3767  1.2464
 8438TIP3   OH246804   1.305   1.933   1.086  0.0780  0.1220 -0.6289
 8438TIP3    H146805   1.265   2.009   1.044  0.8382  0.6746 -0.3771
 8438TIP3    H246806   1.232   1.886   1.126 -0.2968  1.2450  0.0393
 8439TIP3   OH246807   2.698   4.508  13.502 -0.2541 -0.2052  0.1471
 8439TIP3    H146808   2.698   4.558  13.584  2.9313 -0.1483  0.2132
 8439TIP3    H246809   2.731   4.422  13.526  0.7004 -0.1997 -1.0623
 8440TIP3   OH246810   2.989   5.682   4.863 -0.4258 -0.2824  1.0247
 8440TIP3    H146811   2.933   5.698   4.940 -1.1287 -2.1806  0.9446
 8440TIP3    H246812   3.019   5.592   4.873 -0.2038 -0.4301 -0.7398
 8441TIP3   OH246813   6.339   1.935  13.587  0.4123 -0.4657  0.0636
 8441TIP3    H146814   6.350   2.027  13.564 -0.1774  0.0019  1.5396
 8441TIP3    H246815   6.425   1.908  13.620  0.6518 -0.5261 -0.5909
 8442TIP3   OH246816   2.171   1.839   1.834 -0.0039  0.0876 -0.1069
 8442TIP3    H146817   2.171   1.765   1.772  0.1683 -0.2966  0.3424
 8442TIP3    H246818   2.085   1.878   1.824  0.2798  0.4967 -1.1341
 8443TIP3   OH246819   3.490   2.399  15.638  0.3245  0.2353 -0.2154
 8443TIP3    H146820   3.465   2.471  15.696  0.7032 -0.0235  0.2751
 8443TIP3    H246821   3.414   2.385  15.582  0.3400  1.1998 -0.5028
 8444TIP3   OH246822   1.711   0.982   5.322  0.6479 -0.2769 -0.4507
 8444TIP3    H146823   1.725   0.968   5.416  1.3145 -2.9052 -0.8622
 8444TIP3    H246824   1.645   1.051   5.318  0.5080 -0.1731  1.9411
 8445TIP3   OH246825   4.738   6.246  15.916  0.1981  0.0969  0.4322
 8445TIP3    H146826   4.705   6.163  15.950  2.3634 -0.9680  0.0804
 8445TIP3    H246827   4.707   6.311  15.979 -0.4389 -1.1439  1.4486
 8446TIP3   OH246828   1.847   6.811   0.254  0.2161  0.1134  0.2580
 8446TIP3    H146829   1.874   6.851   0.171 -0.5625  1.7920  0.7619
 8446TIP3    H246830   1.768   6.761   0.232 -0.8936  1.8028  0.2109
 8447TIP3   OH246831   4.141   6.805  16.992  0.4673  0.4085 -0.1218
 8447TIP3    H146832   4.162   6.879  17.050  0.9832  0.2362 -0.0823
 8447TIP3    H246833   4.113   6.846  16.910 -0.8989  0.6724  0.4415
 8448TIP3   OH246834   0.484   5.610   3.711  0.3046 -0.7843  0.3762
 8448TIP3    H146835   0.491   5.520   3.743 -1.8169 -0.6828  1.2390
 8448TIP3    H246836   0.538   5.662   3.772  2.4436 -1.5427 -0.7646
 8449TIP3   OH246837   0.872   0.396  17.097  0.1330  0.3792 -0.2157
 8449TIP3    H146838   0.878   0.471  17.156 -2.4601  0.0848  0.5682
 8449TIP3    H246839   0.798   0.417  17.040  0.9777 -0.4879 -1.6906
 8450TIP3   OH246840   2.895   4.909  12.212  0.9683  0.1612  0.2788
 8450TIP3    H146841   2.807   4.885  12.185  1.7278 -1.3701 -0.9649
 8450TIP3    H246842   2.885   4.994  12.256 -0.9456  0.5544 -0.8505
 8451TIP3   OH246843   3.368   3.998   2.280 -0.3383  0.2505 -0.5403
 8451TIP3    H146844   3.354   3.927   2.219 -0.9885  0.9974 -1.2932
 8451TIP3    H246845   3.351   4.078   2.229  3.1078  1.1543 -0.5389
 8452TIP3   OH246846   4.032   1.659   2.187 -0.5700 -0.2320 -0.5282
 8452TIP3    H146847   3.945   1.685   2.156 -0.0075  1.4817 -0.7380
 8452TIP3    H246848   4.087   1.663   2.109  0.4433  2.2370  0.2389
 8453TIP3   OH246849   5.098   0.189   2.236  0.2107 -0.0667  0.1647
 8453TIP3    H146850   5.071   0.125   2.301  0.5133 -0.3550  0.0110
 8453TIP3    H246851   5.025   0.193   2.174  1.2332 -2.2307 -1.2847
 8454TIP3   OH246852   6.297   0.316   2.040  0.8640  0.1521 -0.4334
 8454TIP3    H146853   6.302   0.232   1.994 -0.9694  0.3907 -1.1393
 8454TIP3    H246854   6.239   0.370   1.986  0.0974  1.0789  1.2359
 8455TIP3   OH246855   6.215   6.577   4.609  0.5205  0.2990  0.0755
 8455TIP3    H146856   6.136   6.542   4.650 -0.0408 -1.1114 -2.0155
 8455TIP3    H246857   6.197   6.670   4.596  0.1320  0.4552  1.6123
 8456TIP3   OH246858   2.795   0.492   2.936  0.4406  0.5216  0.2321
 8456TIP3    H146859   2.709   0.532   2.917  0.4810  0.1547 -0.8338
 8456TIP3    H246860   2.811   0.435   2.861  2.6239  2.2339 -0.7148
 8457TIP3   OH246861   3.037   4.081  11.444  0.5054  0.1307 -0.4013
 8457TIP3    H146862   3.091   4.091  11.365  0.7243  0.0975 -0.2567
 8457TIP3    H246863   3.015   4.170  11.470  2.1772  0.2709  0.6952
 8458TIP3   OH246864   5.498   2.616  15.154  0.5536 -0.1468 -0.1328
 8458TIP3    H146865   5.507   2.601  15.060 -3.0143  2.4200 -1.1015
 8458TIP3    H246866   5.544   2.698  15.169  1.2356 -0.6218  0.4701
 8459TIP3   OH246867   2.388   2.983   5.688  0.0942  0.0142 -0.1274
 8459TIP3    H146868   2.431   2.985   5.603 -0.4407  1.6190 -0.3940
 8459TIP3    H246869   2.374   2.890   5.706  1.8822 -0.4405 -0.9221
 8460TIP3   OH246870   1.739   4.547  10.805 -0.0157 -0.3705 -0.6145
 8460TIP3    H146871   1.782   4.633  10.807  0.1606 -0.4220 -1.6044
 8460TIP3    H246872   1.699   4.538  10.891 -0.4718  0.9374 -0.6602
 8461TIP3   OH246873   1.914   4.126  16.344  0.3850 -0.6744 -0.0556
 8461TIP3    H146874   1.862   4.168  16.413 -1.0139 -1.8992 -0.3092
 8461TIP3    H246875   2.003   4.125  16.379  0.2968  1.4610  0.4095
 8462TIP3   OH246876   6.604   6.007   0.156  0.1701 -0.2581  0.3306
 8462TIP3    H146877   6.659   6.011   0.235  0.6415 -0.6150  0.0229
 8462TIP3    H246878   6.582   6.099   0.138  2.7160  0.1788 -0.9663
 8463TIP3   OH246879   0.569   6.111   4.931 -0.0769 -0.2535 -0.3402
 8463TIP3    H146880   0.661   6.099   4.907  0.0616  0.0003  0.0599
 8463TIP3    H246881   0.528   6.142   4.850  0.3556  0.4189 -0.3132
 8464TIP3   OH246882   3.819   2.752   3.951  0.6360  0.2328  0.2392
 8464TIP3    H146883   3.780   2.711   4.028  0.8420  0.6613  0.5717
 8464TIP3    H246884   3.846   2.678   3.896 -0.3853 -0.0808  0.1258
 8465TIP3   OH246885   2.683   4.806   6.291 -0.1000  0.6184  0.1297
 8465TIP3    H146886   2.704   4.777   6.380  0.5567  1.2352  0.1895
 8465TIP3    H246887   2.594   4.841   6.297 -0.7672 -1.0056  0.1313
 8466TIP3   OH246888   6.601   3.287   3.685 -0.1884 -0.1645  0.2462
 8466TIP3    H146889   6.538   3.263   3.617  1.0456 -0.5134 -0.8182
 8466TIP3    H246890   6.620   3.379   3.668  1.2928 -0.6483 -0.9080
 8467TIP3   OH246891   6.676   1.045  12.292  0.0840 -0.3750 -0.1997
 8467TIP3    H146892   6.726   0.982  12.343  0.8696 -0.2169 -0.7445
 8467TIP3    H246893   6.708   1.034  12.203 -0.8052 -0.2047 -0.5455
 8468TIP3   OH246894   5.901   0.955  13.037 -0.5095  0.2794 -0.1544
 8468TIP3    H146895   5.866   1.044  13.041 -1.0317  0.0399  0.7764
 8468TIP3    H246896   5.825   0.899  13.023 -0.7139 -0.3186  2.6643
 8469TIP3   OH246897   6.591   0.338   1.854  0.3547  0.2358 -0.6131
 8469TIP3    H146898   6.568   0.248   1.833 -1.0447  0.5665 -0.6368
 8469TIP3    H246899   6.582   0.344   1.949  1.1134  0.1919 -0.5305
 8470TIP3   OH246900   1.556   6.490  11.550 -0.3935 -0.1357 -0.0984
 8470TIP3    H146901   1.465   6.478  11.522 -0.2495 -0.3844 -0.4631
 8470TIP3    H246902   1.564   6.584  11.566 -0.8160 -0.1582  0.2823
 8471TIP3   OH246903   1.057   5.977   4.039 -0.2327 -0.1185  0.0661
 8471TIP3    H146904   1.121   5.906   4.028  0.8935  0.9873 -0.7449
 8471TIP3    H246905   1.010   5.953   4.119  2.1670 -0.2766  1.5473
 8472TIP3   OH246906   6.278   3.994  14.026  0.0901  0.1250 -0.3649
 8472TIP3    H146907   6.212   3.999  14.095 -0.6220  0.3510 -1.0491
 8472TIP3    H246908   6.314   4.083  14.020  1.4503 -0.3093  0.9424
 8473TIP3   OH246909   4.554   1.051   1.861 -0.4045  0.3835 -0.1012
 8473TIP3    H146910   4.604   1.014   1.933  0.8197 -1.1167 -1.6401
 8473TIP3    H246911   4.620   1.091   1.804 -1.2595  0.9093 -0.7500
 8474TIP3   OH246912   4.773   2.936  13.521 -0.4604 -0.7206  0.0629
 8474TIP3    H146913   4.792   2.853  13.479 -2.0947 -0.7958 -0.6097
 8474TIP3    H246914   4.828   2.937  13.599 -0.7716 -2.6626  0.3458
 8475TIP3   OH246915   0.649   5.926  11.908 -0.2592  0.4675  0.4236
 8475TIP3    H146916   0.743   5.928  11.889  0.0615 -1.7806  1.4509
 8475TIP3    H246917   0.641   5.963  11.995 -0.3455  0.7931  0.2777
 8476TIP3   OH246918   5.563   2.670   0.622 -0.7683 -0.0411 -0.3341
 8476TIP3    H146919   5.657   2.685   0.628 -0.7201 -0.7253  0.8298
 8476TIP3    H246920   5.556   2.584   0.579 -0.9072  0.4705 -1.3804
 8477TIP3   OH246921   5.472   5.303  14.715  0.2547 -0.0470 -0.6885
 8477TIP3    H146922   5.416   5.366  14.759 -1.1219 -0.2135 -2.0819
 8477TIP3    H246923   5.554   5.303  14.765 -1.3094 -0.5422  2.0501
 8478TIP3   OH246924   0.133   1.352  16.164 -0.5625 -0.5620 -0.2150
 8478TIP3    H146925   0.204   1.299  16.199 -0.4991 -0.7303 -0.5962
 8478TIP3    H246926   0.168   1.441  16.164 -0.3619 -0.6400 -0.3732
 8479TIP3   OH246927   0.374   5.196  11.914  0.3960 -0.1354 -0.3380
 8479TIP3    H146928   0.284   5.176  11.888  0.2634 -0.0650  0.0563
 8479TIP3    H246929   0.428   5.142  11.857  0.0423 -1.8340  0.8405
 8480TIP3   OH246930   2.313   2.735   5.750  0.0958 -0.1543 -0.0952
 8480TIP3    H146931   2.234   2.760   5.798  1.4515  3.6677  0.4953
 8480TIP3    H246932   2.372   2.699   5.817  1.0721  2.9001  0.8473
 8481TIP3   OH246933   2.625   2.379  12.487 -0.9751 -0.1871 -0.2164
 8481TIP3    H146934   2.544   2.349  12.527 -1.8050  1.6992 -0.3761
 8481TIP3    H246935   2.671   2.299  12.462 -1.1737 -1.4298  2.9311
 8482TIP3   OH246936   5.563   1.703   3.937 -0.3626  0.3506  0.5795
 8482TIP3    H146937   5.502   1.683   4.007 -0.9651 -0.8765 -0.2629
 8482TIP3    H246938   5.512   1.753   3.874 -0.1694  0.3719  0.4391
 8483TIP3   OH246939   1.781   5.801  14.609 -0.1857  0.4930 -0.4586
 8483TIP3    H146940   1.755   5.742  14.680  1.3369  0.7120  0.3053
 8483TIP3    H246941   1.810   5.881  14.653 -0.9666  1.3442 -1.4260
 8484TIP3   OH246942   5.745   2.334  11.787 -0.3732 -0.1301  0.4038
 8484TIP3    H146943   5.727   2.411  11.733 -0.3657 -0.3421  0.0988
 8484TIP3    H246944   5.740   2.366  11.877  0.2893  0.3763  0.2706
 8485TIP3   OH246945   2.784   1.909  13.597 -0.7483 -0.0035  0.3592
 8485TIP3    H146946   2.834   1.966  13.656 -1.5751  0.2941  0.7900
 8485TIP3    H246947   2.694   1.938  13.606 -1.0207 -0.5915 -0.3401
 8486TIP3   OH246948   1.782   3.723  11.512  0.0472 -0.0710 -0.6437
 8486TIP3    H146949   1.798   3.796  11.571  0.4021  1.4295 -2.5155
 8486TIP3    H246950   1.867   3.681  11.501  0.0279 -0.2026 -0.3083
 8487TIP3   OH246951   0.155   3.430  15.625 -0.0513  0.2446  0.1354
 8487TIP3    H146952   0.082   3.453  15.568  0.2693  0.7476 -0.0779
 8487TIP3    H246953   0.192   3.350  15.587 -0.5458 -0.0643  0.2982
 8488TIP3   OH246954   5.137   2.519   4.350  0.2652  0.3499  0.3053
 8488TIP3    H146955   5.098   2.432   4.362  0.8248 -0.0363 -0.5649
 8488TIP3    H246956   5.073   2.566   4.297 -0.8257  1.0649  2.1541
 8489TIP3   OH246957   6.209   3.072  13.575  0.8255  0.6339 -0.2329
 8489TIP3    H146958   6.216   2.995  13.631  0.4443  1.2208  0.6411
 8489TIP3    H246959   6.153   3.044  13.503  1.3950 -0.1547 -0.3918
 8490TIP3   OH246960   4.264   0.967  10.879  0.4593 -0.3369  0.8332
 8490TIP3    H146961   4.255   0.977  10.784 -0.1519 -2.5418  0.6239
 8490TIP3    H246962   4.296   0.878  10.891 -2.7901 -1.3793  2.8312
 8491TIP3   OH246963   5.142   3.577   4.477 -0.3149  0.1867  0.0947
 8491TIP3    H146964   5.193   3.603   4.400 -0.5479 -0.4833 -0.2932
 8491TIP3    H246965   5.099   3.658   4.505 -1.0554  0.2362 -1.1083
 8492TIP3   OH246966   1.541   2.129  14.914 -0.4799 -0.1952  0.2351
 8492TIP3    H146967   1.446   2.125  14.913 -0.5023 -0.0967  0.8750
 8492TIP3    H246968   1.565   2.099  15.002  0.0552  0.1039  0.1990
 8493TIP3   OH246969   2.354   2.607   4.946 -0.1178  0.1335 -0.0492
 8493TIP3    H146970   2.282   2.575   4.999 -0.6484  1.8841  0.3382
 8493TIP3    H246971   2.353   2.702   4.957  2.2531  0.2260 -0.0209
 8494TIP3   OH246972   0.999   5.318   3.943 -0.2235  0.4641 -0.0866
 8494TIP3    H146973   0.952   5.329   4.025  0.0323 -0.0717  0.1409
 8494TIP3    H246974   1.024   5.407   3.917  1.0079  0.5408  1.2079
 8495TIP3   OH246975   3.358   3.220   4.867 -0.1293  0.2000 -0.2595
 8495TIP3    H146976   3.379   3.306   4.905  3.2607 -0.3388 -0.6202
 8495TIP3    H246977   3.361   3.160   4.942  0.0284  0.0438 -0.3917
 8496TIP3   OH246978   0.069   1.470  17.004  0.0349  0.0416  0.0277
 8496TIP3    H146979  -0.024   1.448  17.006  0.0246  0.0945  0.1411
 8496TIP3    H246980   0.086   1.492  16.912 -0.0927  0.1502  0.0290
 8497TIP3   OH246981   3.560   4.621  13.023  0.3358 -0.2398  0.2210
 8497TIP3    H146982   3.479   4.576  13.048 -0.8056  1.8827  0.5384
 8497TIP3    H246983   3.628   4.554  13.032 -1.4222 -2.2663 -0.6356
 8498TIP3   OH246984   0.053   3.124   3.298 -0.3336 -0.8614 -0.0524
 8498TIP3    H146985   0.082   3.196   3.353  0.2620 -0.6233 -0.6565
 8498TIP3    H246986   0.133   3.092   3.256 -0.9149 -0.1649 -1.8009
 8499TIP3   OH246987   2.368   1.611   0.295 -0.2559  0.0241 -0.3818
 8499TIP3    H146988   2.287   1.629   0.248 -0.0466  2.0981 -0.0516
 8499TIP3    H246989   2.355   1.525   0.334 -2.9969  0.9788  1.0781
 8500TIP3   OH246990   5.138   4.511  16.944 -0.0125  0.1852  0.0471
 8500TIP3    H146991   5.176   4.460  16.871  1.7698  2.0855 -0.4340
 8500TIP3    H246992   5.106   4.591  16.903  0.4003  0.9890  1.2406
 8501TIP3   OH246993   3.561   4.681   4.095 -0.2723 -0.0491  0.1938
 8501TIP3    H146994   3.561   4.608   4.157  1.1228  0.2303  0.5686
 8501TIP3    H246995   3.608   4.751   4.141  0.6334  0.2205 -1.0917
 8502TIP3   OH246996   3.615   4.245  12.584 -0.5476  0.0353  0.1316
 8502TIP3    H146997   3.620   4.236  12.679  0.4100 -0.6898  0.0288
 8502TIP3    H246998   3.662   4.169  12.550  0.8524  1.2818 -0.8787
 8503TIP3   OH246999   4.186   6.008   3.687  0.0491 -0.1942 -0.1215
 8503TIP3    H147000   4.108   5.955   3.701  0.4423 -0.5573  0.8315
 8503TIP3    H247001   4.246   5.980   3.757 -0.1153  2.2350  1.0837
 8504TIP3   OH247002   0.471   5.375   0.560 -0.5084 -0.6446 -0.1740
 8504TIP3    H147003   0.420   5.390   0.481 -1.0003 -2.3551 -0.2335
 8504TIP3    H247004   0.542   5.439   0.556 -0.8445 -0.3360 -1.7141
 8505TIP3   OH247005   4.952   3.768  16.516  0.8376 -0.1394  0.0088
 8505TIP3    H147006   5.031   3.715  16.512 -0.2274 -2.0077  1.7504
 8505TIP3    H247007   4.969   3.832  16.585  1.3412  0.4105 -0.6169
 8506TIP3   OH247008   2.350   6.673  15.366 -0.6586 -0.5301 -0.7057
 8506TIP3    H147009   2.281   6.606  15.362  0.5448 -1.7800 -2.8851
 8506TIP3    H247010   2.338   6.724  15.286 -0.6433  0.9691  0.2138
 8507TIP3   OH247011   2.719   0.681  15.658  0.5760 -0.1996  0.3550
 8507TIP3    H147012   2.753   0.599  15.624  1.6847  0.9278 -1.4485
 8507TIP3    H247013   2.684   0.659  15.744 -0.3182 -2.7884 -0.5650
 8508TIP3   OH247014   5.803   2.607  12.443 -0.1860 -0.2157 -0.2841
 8508TIP3    H147015   5.879   2.587  12.388 -1.5993  0.2137 -2.5553
 8508TIP3    H247016   5.815   2.554  12.522  1.4940 -1.6338 -1.4188
 8509TIP3   OH247017   2.879   2.851  16.070  0.6174 -0.2018 -0.8262
 8509TIP3    H147018   2.962   2.884  16.104 -0.5045  1.7783  0.2097
 8509TIP3    H247019   2.857   2.778  16.128 -0.1817  1.7283  1.4659
 8510TIP3   OH247020   5.419   1.817   4.229  0.0823 -0.5576  0.1269
 8510TIP3    H147021   5.461   1.865   4.158 -0.0282 -0.6418  0.0047
 8510TIP3    H247022   5.396   1.732   4.191  0.3715 -0.7482  0.3722
 8511TIP3   OH247023   0.703   2.381   0.339 -0.4114  0.7926  0.1057
 8511TIP3    H147024   0.611   2.355   0.339 -0.4967  0.9723  1.6665
 8511TIP3    H247025   0.744   2.323   0.275 -1.0515 -1.5076  1.6359
 8512TIP3   OH247026   2.191   6.004  16.995  0.0427 -0.3240  0.2166
 8512TIP3    H147027   2.128   6.072  16.969 -0.1942 -0.5075  0.3121
 8512TIP3    H247028   2.276   6.040  16.970  0.0282  0.5097  1.3080
 8513TIP3   OH247029   5.338   6.637  11.082 -0.1353 -0.3596 -0.2288
 8513TIP3    H147030   5.345   6.663  10.990  1.3638  1.8197  0.4290
 8513TIP3    H247031   5.368   6.546  11.083 -1.2196 -0.7825 -2.0192
 8514TIP3   OH247032   0.588   4.911  12.146  0.3353 -0.0052  0.2198
 8514TIP3    H147033   0.611   5.003  12.135  0.6560 -0.1110  0.0067
 8514TIP3    H247034   0.519   4.912  12.213 -0.7939  0.5314 -0.9204
 8515TIP3   OH247035   0.352   6.588   3.539  0.4469 -0.3112  0.0585
 8515TIP3    H147036   0.369   6.548   3.454 -2.0714 -1.6571  0.1002
 8515TIP3    H247037   0.372   6.520   3.603  2.1560  0.6349  0.5830
 8516TIP3   OH247038   6.323   5.711   4.525  0.3856 -0.4613 -0.5582
 8516TIP3    H147039   6.276   5.629   4.540  0.1350 -0.2051  0.0766
 8516TIP3    H247040   6.259   5.767   4.481  0.6520 -0.7046 -1.2668
 8517TIP3   OH247041   2.470   4.628   0.780  0.2750 -0.0185 -0.2350
 8517TIP3    H147042   2.381   4.594   0.776 -0.1179  1.0410 -0.7220
 8517TIP3    H247043   2.515   4.588   0.706  0.4635 -1.2273  0.5065
 8518TIP3   OH247044   1.995   2.383   5.793 -0.0388 -0.0698  0.0160
 8518TIP3    H147045   1.934   2.452   5.767 -0.0760 -0.5557 -1.2280
 8518TIP3    H247046   2.034   2.415   5.874 -1.2240  0.6916  0.3159
 8519TIP3   OH247047   2.754   2.331  14.577 -0.4735  0.1010  0.1522
 8519TIP3    H147048   2.688   2.378  14.628  0.4219  1.1012  0.4120
 8519TIP3    H247049   2.836   2.345  14.624  0.3146  0.7461 -1.3439
 8520TIP3   OH247050   2.602   5.153   2.661  0.6931 -0.2216 -0.4769
 8520TIP3    H147051   2.583   5.246   2.648  2.2129  0.0861 -0.6612
 8520TIP3    H247052   2.665   5.132   2.592  1.1764 -1.1273  0.2289
 8521TIP3   OH247053   0.640   3.535  14.322 -0.1892  0.7389  0.1876
 8521TIP3    H147054   0.627   3.480  14.244 -1.1142  1.7369 -0.3928
 8521TIP3    H247055   0.689   3.479  14.383  1.1064  0.1148 -1.3277
 8522TIP3   OH247056   2.658   1.419   1.871 -0.3437  0.3291 -0.1473
 8522TIP3    H147057   2.649   1.483   1.800  1.2242  2.3401  1.3397
 8522TIP3    H247058   2.743   1.377   1.854 -0.8612 -0.5950 -0.5045
 8523TIP3   OH247059   3.183   1.166  16.638  0.1438  0.1553  0.4895
 8523TIP3    H147060   3.224   1.133  16.557 -0.6890 -0.1991  0.2075
 8523TIP3    H247061   3.250   1.153  16.705  1.3796  1.7030 -0.3676
 8524TIP3   OH247062   3.038   0.461   3.901  0.3358 -0.2689  0.0526
 8524TIP3    H147063   2.981   0.457   3.978  1.5907 -2.2383  0.9599
 8524TIP3    H247064   3.074   0.549   3.902  1.0506 -0.5314  2.3278
 8525TIP3   OH247065   3.435   4.662   4.719  0.4596 -0.0393  0.2814
 8525TIP3    H147066   3.483   4.730   4.766  0.8397  0.9767 -1.4997
 8525TIP3    H247067   3.387   4.616   4.788  1.7856  0.6997  1.7808
 8526TIP3   OH247068   6.435   1.489   1.715  0.9097  0.4025  0.0934
 8526TIP3    H147069   6.388   1.572   1.702 -0.4893 -0.5264 -1.1171
 8526TIP3    H247070   6.520   1.502   1.673  0.2410  0.8444 -1.1728
 8527TIP3   OH247071   6.394   0.475  14.069 -0.0936 -0.0193  1.1031
 8527TIP3    H147072   6.312   0.445  14.108  0.7603 -0.7426  2.4278
 8527TIP3    H247073   6.438   0.523  14.140  0.2646  1.0718  0.1674
 8528TIP3   OH247074   5.017   1.538  15.387  0.5254 -0.2675  0.0204
 8528TIP3    H147075   5.028   1.595  15.463 -1.2260 -1.0342  0.9117
 8528TIP3    H247076   5.105   1.507  15.367  1.4097  2.0799  0.0066
 8529TIP3   OH247077   0.074   6.245  13.808  0.1384 -0.3389  0.0592
 8529TIP3    H147078   0.142   6.278  13.867  1.2364 -0.5170 -1.0637
 8529TIP3    H247079   0.091   6.289  13.724  0.4195 -2.2023 -0.9253
 8530TIP3   OH247080   5.614   4.479  15.144 -0.2421 -0.1661 -0.5783
 8530TIP3    H147081   5.530   4.466  15.189 -0.1226  0.6977 -0.0899
 8530TIP3    H247082   5.612   4.416  15.072 -2.4624  1.5829 -2.1946
 8531TIP3   OH247083   1.513   3.255  16.991 -0.2392 -0.3556  0.5621
 8531TIP3    H147084   1.562   3.328  16.952 -0.3946  0.2562  1.4942
 8531TIP3    H247085   1.443   3.237  16.927  0.4651 -0.4388 -0.2014
 8532TIP3   OH247086   1.093   0.073  11.936  0.3139 -0.2982 -0.6211
 8532TIP3    H147087   1.057   0.158  11.963 -0.5594 -0.6219 -0.7195
 8532TIP3    H247088   1.148   0.093  11.860 -0.5048  0.0944 -1.1308
 8533TIP3   OH247089   0.872   0.312  14.449  0.1160 -0.0183  0.0066
 8533TIP3    H147090   0.847   0.289  14.359 -2.2883  0.0658  0.6043
 8533TIP3    H247091   0.961   0.277  14.458  0.1012 -0.7665 -2.1233
 8534TIP3   OH247092   4.414   2.451  11.660 -0.0160  0.2743  0.0369
 8534TIP3    H147093   4.501   2.424  11.689  1.1942  4.3862  1.0033
 8534TIP3    H247094   4.354   2.391  11.704  2.2454 -2.3866 -0.2688
 8535TIP3   OH247095   5.815   4.017   0.787  0.7204 -0.8420 -0.4465
 8535TIP3    H147096   5.758   3.977   0.853  2.0747 -0.0319  1.3026
 8535TIP3    H247097   5.903   3.986   0.809  1.6948  2.1433  0.3574
 8536TIP3   OH247098   5.305   5.933   4.535 -0.5571  0.1699 -0.8525
 8536TIP3    H147099   5.220   5.889   4.531 -0.2022 -0.4535 -2.7014
 8536TIP3    H247100   5.285   6.021   4.568 -1.5930 -0.6214  0.7661
 8537TIP3   OH247101   2.808   2.376   0.336 -0.4961 -0.5966  0.0506
 8537TIP3    H147102   2.870   2.411   0.272  0.1363 -1.0607  0.3978
 8537TIP3    H247103   2.797   2.284   0.311 -1.1544 -0.4843 -0.0890
 8538TIP3   OH247104   4.485   1.334  11.086 -0.0020  0.6352 -0.3777
 8538TIP3    H147105   4.551   1.369  11.146  0.7093 -0.3033 -0.5884
 8538TIP3    H247106   4.513   1.363  10.999  0.1537  0.2075 -0.4709
 8539TIP3   OH247107   6.347   1.719  12.132  0.5877  0.5377  0.1701
 8539TIP3    H147108   6.343   1.719  12.228  1.4368 -1.8136  0.2793
 8539TIP3    H247109   6.259   1.692  12.105  0.8270 -0.5124  0.3906
 8540TIP3   OH247110   6.068   1.855   2.013  0.5525  0.5514 -0.3942
 8540TIP3    H147111   6.011   1.894   2.079  0.8711 -1.6331  1.3032
 8540TIP3    H247112   6.009   1.820   1.947  0.1717  1.8347 -0.7556
 8541TIP3   OH247113   2.942   4.805   0.137  0.2505  0.1594  0.0589
 8541TIP3    H147114   2.877   4.856   0.090 -0.1010 -0.6710 -0.3758
 8541TIP3    H247115   2.931   4.831   0.229 -1.7112 -1.0143  0.2116
 8542TIP3   OH247116   5.201   1.125   5.107 -0.2923  0.3194 -0.1497
 8542TIP3    H147117   5.210   1.030   5.096 -0.9230  0.2992 -0.5259
 8542TIP3    H247118   5.281   1.161   5.070  0.5135 -0.1303  1.0986
 8543TIP3   OH247119   5.728   6.428   3.384  0.2890  0.6283 -0.3744
 8543TIP3    H147120   5.769   6.434   3.470 -1.8171 -1.0331  0.8272
 8543TIP3    H247121   5.795   6.387   3.329  1.7623  1.9638  0.3368
 8544TIP3   OH247122   5.790   5.993   1.340 -0.3642  0.0754  0.2583
 8544TIP3    H147123   5.867   6.016   1.288  0.2675 -0.1895  1.0577
 8544TIP3    H247124   5.735   6.071   1.339  0.4888  0.6945  0.6982
 8545TIP3   OH247125   6.144   5.288   2.721 -0.4987 -0.1356  0.1360
 8545TIP3    H147126   6.231   5.313   2.688 -1.0491 -0.5781 -1.7646
 8545TIP3    H247127   6.092   5.368   2.716 -0.5475 -0.1721  0.0568
 8546TIP3   OH247128   3.725   3.647   5.687 -0.4381 -0.1898  0.2103
 8546TIP3    H147129   3.791   3.638   5.619  1.5645 -1.6031  2.1953
 8546TIP3    H247130   3.772   3.687   5.761 -2.3616  0.7273  1.0226
 8547TIP3   OH247131   1.329   2.402   4.005  0.4729  0.2192 -0.4805
 8547TIP3    H147132   1.395   2.343   4.042  0.5338  1.8864  2.4131
 8547TIP3    H247133   1.379   2.461   3.949  1.1103  0.1686  0.0174
 8548TIP3   OH247134   2.754   5.642   1.177 -0.3548 -0.8396 -0.1716
 8548TIP3    H147135   2.671   5.688   1.178 -0.9017 -1.7471  1.6186
 8548TIP3    H247136   2.798   5.669   1.258  0.4757 -1.4258 -0.4032
 8549TIP3   OH247137   0.518   1.140  17.064 -0.6713  0.0968  0.0560
 8549TIP3    H147138   0.583   1.072  17.084 -3.0856 -1.9004  1.8434
 8549TIP3    H247139   0.518   1.196  17.142 -2.9102 -1.5912  1.3875
 8550TIP3   OH247140   3.875   2.092   4.456 -0.0387 -0.5490 -0.3889
 8550TIP3    H147141   3.882   2.181   4.423 -1.6757  0.5890  1.9982
 8550TIP3    H247142   3.816   2.048   4.396  0.3782  0.1085 -1.2993
 8551TIP3   OH247143   4.864   1.164   4.827 -0.2925 -0.4177  0.4232
 8551TIP3    H147144   4.834   1.075   4.844  0.0008 -0.5584  0.2203
 8551TIP3    H247145   4.898   1.194   4.911 -1.6599  0.0134  0.8426
 8552TIP3   OH247146   3.237   1.411  12.306  0.1725 -0.1463  0.1538
 8552TIP3    H147147   3.293   1.346  12.264  0.5656 -0.0618  0.5400
 8552TIP3    H247148   3.277   1.495  12.285 -0.5010 -0.0023 -0.5901
 8553TIP3   OH247149   1.897   1.553   0.316 -0.2486 -0.1726  0.3610
 8553TIP3    H147150   1.825   1.613   0.339  0.6733  0.1924  2.5770
 8553TIP3    H247151   1.967   1.576   0.377  0.6548 -2.5774  0.3291
 8554TIP3   OH247152   1.426   6.307   2.958 -0.0952 -0.0331 -0.0425
 8554TIP3    H147153   1.383   6.389   2.984  0.1212  0.1531 -0.2663
 8554TIP3    H247154   1.443   6.318   2.864  1.3226  0.3164  0.2222
 8555TIP3   OH247155   2.113   0.827   4.550  0.9491  0.3109 -0.0777
 8555TIP3    H147156   2.038   0.885   4.536  1.3575  0.8532 -0.0399
 8555TIP3    H247157   2.087   0.745   4.508  1.0793  1.0834 -1.7687
 8556TIP3   OH247158   5.816   0.264   4.427 -0.5871 -0.3239 -0.7492
 8556TIP3    H147159   5.807   0.357   4.449  0.0560 -0.4068 -0.0860
 8556TIP3    H247160   5.894   0.259   4.372  1.2184 -0.8068  1.6833
 8557TIP3   OH247161   6.091   1.618  12.037  0.0573 -0.0641 -0.8805
 8557TIP3    H147162   5.997   1.635  12.041  0.2511  0.9235 -0.2929
 8557TIP3    H247163   6.101   1.553  11.967 -0.9924  0.3203 -1.4017
 8558TIP3   OH247164   5.458   2.778   1.671 -0.0128  0.2995  0.3563
 8558TIP3    H147165   5.462   2.753   1.579 -1.2122 -1.4670  0.7325
 8558TIP3    H247166   5.549   2.777   1.700  0.2499 -0.5154 -0.4534
 8559TIP3   OH247167   0.349   6.606   5.718 -0.5834 -0.4716 -0.1485
 8559TIP3    H147168   0.333   6.695   5.749 -0.8258 -0.7017  0.3959
 8559TIP3    H247169   0.288   6.552   5.768  0.5936 -1.1313  0.6301
 8560TIP3   OH247170   3.006   4.805   6.081  0.0967 -0.2736 -0.3290
 8560TIP3    H147171   2.925   4.856   6.079 -1.8050 -3.0802 -0.7711
 8560TIP3    H247172   3.023   4.790   6.174 -1.0969 -1.3009 -0.2371
 8561TIP3   OH247173   0.178   5.660   0.628  0.5573 -0.1346  0.0765
 8561TIP3    H147174   0.221   5.575   0.618  3.2313  0.9564  1.2943
 8561TIP3    H247175   0.249   5.724   0.615 -0.7132  1.8074  2.1117
 8562TIP3   OH247176   0.643   2.165  12.410 -0.5384  0.1093  0.2357
 8562TIP3    H147177   0.701   2.170  12.335 -0.3039 -0.6170  0.3584
 8562TIP3    H247178   0.559   2.199  12.378 -0.1672  0.7782 -0.0503
 8563TIP3   OH247179   6.690   4.225  11.332 -0.2150 -0.8831 -0.1712
 8563TIP3    H147180   6.780   4.200  11.353 -0.7028 -1.5261  1.2769
 8563TIP3    H247181   6.687   4.224  11.236  1.3983 -0.4916 -0.2588
 8564TIP3   OH247182   2.590   6.504  10.517  0.1555 -0.1553  0.1478
 8564TIP3    H147183   2.639   6.586  10.519  2.1278 -1.2782  1.4385
 8564TIP3    H247184   2.515   6.520  10.575 -0.1363  1.0640 -0.5286
 8565TIP3   OH247185   0.170   4.019  16.758  0.5912 -0.0112 -0.1979
 8565TIP3    H147186   0.110   4.031  16.685  1.1161 -0.3793 -0.7063
 8565TIP3    H247187   0.225   4.097  16.757 -0.7005  0.9594  1.0936
 8566TIP3   OH247188   2.404   3.861   0.652  0.6301  0.4294  0.0415
 8566TIP3    H147189   2.315   3.826   0.657  1.0087 -0.3456  2.1426
 8566TIP3    H247190   2.437   3.830   0.568 -0.6781 -0.2348 -0.2630
 8567TIP3   OH247191   3.761   2.206  13.994 -0.5088 -0.2364 -0.1904
 8567TIP3    H147192   3.758   2.234  13.902  0.0378 -0.2785 -0.2237
 8567TIP3    H247193   3.847   2.235  14.025 -0.5713 -0.4901  0.2209
 8568TIP3   OH247194   2.247   0.503   4.601 -0.4834 -0.1922 -0.3064
 8568TIP3    H147195   2.156   0.473   4.601 -0.9333  1.0664  0.7883
 8568TIP3    H247196   2.248   0.577   4.541 -0.2496 -0.0348 -0.1115
 8569TIP3   OH247197   0.355   4.486  12.779  0.7147 -0.0850 -0.4101
 8569TIP3    H147198   0.373   4.425  12.850 -1.4600  0.0162  0.2908
 8569TIP3    H247199   0.320   4.430  12.708 -1.4156  0.2738  0.2837
 8570TIP3   OH247200   4.628   5.517  15.908 -0.5324  0.3728 -0.5866
 8570TIP3    H147201   4.658   5.599  15.945 -0.0140  0.4872 -1.2380
 8570TIP3    H247202   4.608   5.538  15.816  2.5243 -0.8326 -1.6731
 8571TIP3   OH247203   6.740   5.780   2.041 -0.1071 -0.0158  0.1162
 8571TIP3    H147204   6.713   5.857   1.990  0.0994 -0.6511 -0.9814
 8571TIP3    H247205   6.819   5.809   2.088  0.0354  0.4173 -0.3783
 8572TIP3   OH247206   2.503   3.894   3.022  0.1392  0.0989  0.2956
 8572TIP3    H147207   2.476   3.921   3.110  1.0123 -0.2558  0.6805
 8572TIP3    H247208   2.482   3.801   3.018  0.6345 -0.0155  0.3374
 8573TIP3   OH247209   4.782   6.356   2.760  0.0484  0.5561  0.3930
 8573TIP3    H147210   4.749   6.309   2.684 -0.3499 -1.4705  1.7405
 8573TIP3    H247211   4.717   6.339   2.829  0.0436  2.8708  1.0659
 8574TIP3   OH247212   1.971   4.671  11.055 -0.3081  0.0958 -0.5166
 8574TIP3    H147213   1.944   4.700  11.143  1.0120  0.4597 -0.2121
 8574TIP3    H247214   1.911   4.716  10.996 -0.3125  0.9605  0.1309
 8575TIP3   OH247215   4.218   2.884   5.312  0.4407 -0.2577 -0.3009
 8575TIP3    H147216   4.156   2.816   5.287 -0.2041  0.4462 -0.6785
 8575TIP3    H247217   4.267   2.847   5.386 -0.8987 -0.5699  0.4545
 8576TIP3   OH247218   4.268   3.427  16.756  0.8666 -0.1197 -0.6158
 8576TIP3    H147219   4.281   3.337  16.725 -0.8756 -0.6527  0.0551
 8576TIP3    H247220   4.180   3.426  16.795  2.1926  0.9048  2.7920
 8577TIP3   OH247221   5.628   4.841  13.926  0.2809 -0.3062  0.5719
 8577TIP3    H147222   5.652   4.766  13.871 -0.5840 -0.5337  0.4897
 8577TIP3    H247223   5.537   4.824  13.951  0.0828  0.7154  0.5599
 8578TIP3   OH247224   0.350   3.200   4.827  0.0915  0.4804 -0.2406
 8578TIP3    H147225   0.410   3.258   4.874 -1.8488  2.9576 -0.6028
 8578TIP3    H247226   0.309   3.147   4.895  1.6805 -0.3371  0.1332
 8579TIP3   OH247227   4.403   4.336  10.843 -0.7058 -0.0337  0.1114
 8579TIP3    H147228   4.377   4.244  10.833  1.2246 -0.6113  0.0460
 8579TIP3    H247229   4.345   4.384  10.784 -1.1623 -1.3079 -0.5146
 8580TIP3   OH247230   2.646   3.234   4.000 -0.0706  0.2501  0.5845
 8580TIP3    H147231   2.592   3.272   3.930 -0.0630 -0.4092  0.2154
 8580TIP3    H247232   2.590   3.167   4.039 -0.5443  1.4276  2.0464
 8581TIP3   OH247233   5.494   3.983  13.360  0.6089 -0.6178  0.1648
 8581TIP3    H147234   5.519   4.034  13.438  1.0813  0.8777 -0.9077
 8581TIP3    H247235   5.475   3.896  13.393 -1.3021  0.4777  2.2997
 8582TIP3   OH247236   6.688   2.201   4.664 -0.0194 -0.0668  0.4207
 8582TIP3    H147237   6.754   2.132   4.667  0.0994  0.0500  0.4986
 8582TIP3    H247238   6.734   2.278   4.632  0.1860  0.3455  1.6432
 8583TIP3   OH247239   5.337   1.160   6.046 -0.1830  0.2171 -0.7678
 8583TIP3    H147240   5.363   1.219   6.117 -0.2048  1.7238 -1.9546
 8583TIP3    H247241   5.370   1.202   5.967 -1.7591 -0.4496 -1.8335
 8584TIP3   OH247242   6.074   3.277  12.306 -0.5634  0.2486 -0.0301
 8584TIP3    H147243   6.008   3.297  12.372 -0.2214  0.2880  0.3097
 8584TIP3    H247244   6.092   3.184  12.317  1.3793  0.7541  1.7429
 8585TIP3   OH247245   6.120   0.990  16.477  0.3186 -0.4537  0.1527
 8585TIP3    H147246   6.183   0.989  16.548 -1.5202 -1.8074  1.8689
 8585TIP3    H247247   6.164   0.946  16.404  1.8155 -0.1070  0.8337
 8586TIP3   OH247248   6.054   1.083  11.882 -0.0500  0.1365 -0.0187
 8586TIP3    H147249   5.967   1.049  11.901  0.8306 -1.3861  1.5658
 8586TIP3    H247250   6.098   1.084  11.966  1.3576  1.2611 -0.7280
 8587TIP3   OH247251   5.259   1.034  15.003 -0.1243 -0.0908  0.0224
 8587TIP3    H147252   5.257   1.068  14.913 -0.4623  0.0087  0.0696
 8587TIP3    H247253   5.328   0.967  15.000  0.8573  0.8829  0.0354
 8588TIP3   OH247254   6.809   4.179   0.013 -0.0619 -0.1449  0.0969
 8588TIP3    H147255   6.822   4.272  -0.005 -1.0596  0.3812  1.8111
 8588TIP3    H247256   6.841   4.168   0.103 -1.1208 -1.1777  0.3693
 8589TIP3   OH247257   1.982   3.449   2.118 -0.2019 -0.6185 -0.1551
 8589TIP3    H147258   1.948   3.477   2.033  0.4095 -2.5543 -1.0961
 8589TIP3    H247259   2.073   3.424   2.101  0.4678  0.5618  1.4518
 8590TIP3   OH247260   3.270   1.636   1.433  0.0169 -0.4477 -0.0207
 8590TIP3    H147261   3.259   1.653   1.339 -0.9059 -0.9246 -0.0189
 8590TIP3    H247262   3.301   1.719   1.469 -1.0019  0.1863 -0.5382
 8591TIP3   OH247263   1.374   0.504  14.691 -0.7015  0.2629 -0.0379
 8591TIP3    H147264   1.284   0.519  14.662 -0.0011  1.0657 -2.0289
 8591TIP3    H247265   1.403   0.429  14.640  0.1611  0.8635 -0.4613
 8592TIP3   OH247266   3.662   4.199   5.649 -0.5973  0.2410  0.0559
 8592TIP3    H147267   3.720   4.175   5.577  0.8125  1.4192  0.7377
 8592TIP3    H247268   3.655   4.295   5.642 -0.7907  0.3192  1.2006
 8593TIP3   OH247269   6.110   3.983  15.520 -0.3044  0.3366 -0.1984
 8593TIP3    H147270   6.097   3.923  15.593  1.0225 -0.5329 -0.6346
 8593TIP3    H247271   6.036   4.044  15.525 -0.8183 -0.3627  1.2036
 8594TIP3   OH247272   0.345   2.364   6.403  0.1416  0.2774  0.0783
 8594TIP3    H147273   0.380   2.416   6.331 -1.5387 -1.6504 -2.2694
 8594TIP3    H247274   0.257   2.340   6.376 -1.2265  0.8039  3.5466
 8595TIP3   OH247275   0.649   6.475   1.488  0.7327  0.2693 -0.3700
 8595TIP3    H147276   0.611   6.525   1.416  1.2695  1.4898  0.1698
 8595TIP3    H247277   0.732   6.520   1.507  0.9178 -0.4477  0.5566
 8596TIP3   OH247278   3.541   2.786  15.820  0.3979  0.2665 -0.3177
 8596TIP3    H147279   3.563   2.742  15.738  0.3280 -0.0157 -0.1887
 8596TIP3    H247280   3.516   2.715  15.879  1.7116  0.3303  0.3506
 8597TIP3   OH247281   2.477   1.794   2.520  0.1841  0.6391  0.0995
 8597TIP3    H147282   2.535   1.735   2.569 -0.1254 -0.2038 -0.5403
 8597TIP3    H247283   2.389   1.761   2.537 -0.0055  1.0050 -0.1592
 8598TIP3   OH247284   2.949   6.150   0.923 -0.7912  0.2731  0.3609
 8598TIP3    H147285   2.944   6.185   1.012  1.1119 -0.6107  0.8487
 8598TIP3    H247286   3.032   6.183   0.889 -1.6002  0.8068 -1.2223
 8599TIP3   OH247287   0.752   1.352   5.182 -0.1364  0.3972  0.3149
 8599TIP3    H147288   0.801   1.345   5.100  2.5676 -1.8495  1.9168
 8599TIP3    H247289   0.728   1.444   5.188  1.0201  0.9579 -2.1868
 8600TIP3   OH247290   6.045   1.966   3.949 -0.0499  0.0719  0.0715
 8600TIP3    H147291   6.044   1.871   3.958  0.2517 -0.0267 -0.9072
 8600TIP3    H247292   6.054   1.998   4.039  0.2094 -0.8311  0.3726
 8601TIP3   OH247293   6.360   4.437  14.386  0.7851 -0.2683 -0.2169
 8601TIP3    H147294   6.366   4.462  14.478 -1.8967  2.3461 -0.6165
 8601TIP3    H247295   6.284   4.379  14.382 -0.0784  0.8676 -0.9372
 8602TIP3   OH247296   5.479   2.364  12.424 -0.2428  0.0554  0.3225
 8602TIP3    H147297   5.573   2.385  12.421 -0.7161  2.4344 -0.3804
 8602TIP3    H247298   5.438   2.437  12.377 -2.2963 -2.0966 -1.4277
 8603TIP3   OH247299   6.829   5.550   7.002 -0.9317 -0.5508  0.7328
 8603TIP3    H147300   6.849   5.522   6.913 -0.5943 -3.6409  1.6631
 8603TIP3    H247301   6.762   5.617   6.991  0.0642  0.1549 -1.8646
 8604TIP3   OH247302   6.529   2.868   6.518  0.0958  0.2514  0.4516
 8604TIP3    H147303   6.441   2.890   6.551  0.4743  2.5873  0.0971
 8604TIP3    H247304   6.552   2.787   6.564 -1.8288  0.1122  1.3008
 8605TIP3   OH247305   1.041   4.609  12.099 -0.1213 -0.2724 -0.0507
 8605TIP3    H147306   0.948   4.630  12.103 -0.7882 -2.6509 -1.6814
 8605TIP3    H247307   1.071   4.646  12.016  0.0506 -0.7421 -0.2005
 8606TIP3   OH247308   6.306   2.654  11.733 -0.1475 -0.6070 -0.2353
 8606TIP3    H147309   6.218   2.676  11.702 -0.0763 -0.1484 -0.1083
 8606TIP3    H247310   6.351   2.620  11.656  0.1401  0.8424 -0.7308
 8607TIP3   OH247311   1.289   5.532  16.693  0.1421  0.1742 -0.0717
 8607TIP3    H147312   1.333   5.466  16.641 -0.1474 -1.2526  1.4014
 8607TIP3    H247313   1.333   5.529  16.778 -0.7961  0.8871  0.4601
 8608TIP3   OH247314   1.265   0.583   5.197  0.2463 -0.3057  0.0895
 8608TIP3    H147315   1.307   0.668   5.202  0.1821 -0.3083  0.6940
 8608TIP3    H247316   1.324   0.523   5.243 -0.3027 -0.3475  0.7609
 8609TIP3   OH247317   5.856   3.898  12.923  0.7506  0.1198  0.1489
 8609TIP3    H147318   5.791   3.827  12.925  0.7394  0.1367  0.5934
 8609TIP3    H247319   5.866   3.918  12.830 -0.1409  0.3517  0.0897
 8610TIP3   OH247320   0.968   0.477   3.955 -0.5771 -0.2634  0.1448
 8610TIP3    H147321   0.908   0.506   3.886  0.6469 -0.0337 -0.8656
 8610TIP3    H247322   0.918   0.485   4.036 -1.5086  1.0814 -0.5261
 8611TIP3   OH247323   3.641   3.136   0.063  0.0464  0.5986 -0.0396
 8611TIP3    H147324   3.614   3.170   0.148  0.8088 -0.1050  0.4953
 8611TIP3    H247325   3.611   3.202   0.000 -0.9612  0.8858  0.7185
 8612TIP3   OH247326   6.536   4.306  15.206 -0.1982 -0.9057 -0.0323
 8612TIP3    H147327   6.585   4.262  15.276 -1.3954 -0.8998  0.8613
 8612TIP3    H247328   6.449   4.321  15.245 -0.5208  0.1763 -1.1278
 8613TIP3   OH247329   3.553   3.043  16.865 -0.4703 -0.0658 -0.3753
 8613TIP3    H147330   3.483   2.979  16.879 -1.1002  0.1664 -2.2213
 8613TIP3    H247331   3.631   3.003  16.903 -1.1162 -1.3907 -0.4148
 8614TIP3   OH247332   3.845   0.349  10.840  0.0072 -0.7907 -0.4871
 8614TIP3    H147333   3.774   0.285  10.838 -1.5717  0.8851 -0.4602
 8614TIP3    H247334   3.916   0.308  10.790 -2.0017 -1.3532 -3.0801
 8615TIP3   OH247335   0.524   1.181  11.643 -0.7260 -0.4823 -0.4461
 8615TIP3    H147336   0.617   1.203  11.645 -0.5807 -1.1051  1.6499
 8615TIP3    H247337   0.493   1.219  11.561  1.0533  0.9899 -0.5165
 8616TIP3   OH247338   3.228   1.776  12.779 -0.2926  0.1600 -0.0074
 8616TIP3    H147339   3.262   1.778  12.868 -0.5816 -0.6893  0.1345
 8616TIP3    H247340   3.157   1.840  12.778  0.3188  0.8470  0.1081
 8617TIP3   OH247341   1.947   6.278   0.015  1.0295  0.0968 -0.4494
 8617TIP3    H147342   1.958   6.373   0.025  2.4769  0.0065 -1.0692
 8617TIP3    H247343   1.854   6.263   0.033  1.0940  1.4277  1.2240
 8618TIP3   OH247344   5.683   4.326  13.835 -0.5574 -0.2541  0.2453
 8618TIP3    H147345   5.711   4.252  13.888 -1.3690 -0.0621  0.9619
 8618TIP3    H247346   5.635   4.383  13.895  0.6024  1.1963 -0.1220
 8619TIP3   OH247347   6.356   5.675  16.434 -0.0443  0.4861  0.0590
 8619TIP3    H147348   6.410   5.754  16.433  0.1549  0.3501 -0.0300
 8619TIP3    H247349   6.271   5.704  16.466 -0.6435  1.1532 -1.9903
 8620TIP3   OH247350   1.357   5.063  15.599 -0.4006 -0.0365 -0.6437
 8620TIP3    H147351   1.439   5.019  15.578 -0.8257 -1.1803 -0.0012
 8620TIP3    H247352   1.369   5.153  15.567  0.8797 -0.3292 -1.0494
 8621TIP3   OH247353   2.703   5.791   4.643 -0.0487  0.1906 -0.0930
 8621TIP3    H147354   2.700   5.705   4.685  0.8366 -0.4090 -1.1982
 8621TIP3    H247355   2.670   5.851   4.710 -0.7497 -1.0004  0.6851
 8622TIP3   OH247356   6.354   0.268  14.632 -0.7106  0.3554  0.1705
 8622TIP3    H147357   6.380   0.181  14.661 -1.7761 -0.1042 -0.1935
 8622TIP3    H247358   6.371   0.269  14.538 -0.3267  0.6923  0.2388
 8623TIP3   OH247359   6.422   5.994  14.929 -0.0009  0.2923 -0.1723
 8623TIP3    H147360   6.505   5.977  14.884  0.0930  0.5148 -0.0841
 8623TIP3    H247361   6.438   5.968  15.020  0.2366  1.1180  0.0275
 8624TIP3   OH247362   0.560   1.674  12.392  0.6541 -0.0933  0.2605
 8624TIP3    H147363   0.505   1.732  12.339  0.9069  1.2331  1.3983
 8624TIP3    H247364   0.647   1.682  12.353  0.4178 -0.8074 -0.4380
 8625TIP3   OH247365   3.076   3.326   2.106  0.0773 -0.0975  0.0619
 8625TIP3    H147366   3.165   3.292   2.099  0.4812  0.6574  1.2895
 8625TIP3    H247367   3.049   3.306   2.196  0.3159  2.6601  0.8373
 8626TIP3   OH247368   5.348   6.063   4.007 -0.3111 -0.6476  0.0229
 8626TIP3    H147369   5.315   6.028   4.090  0.3892 -1.0873  0.1227
 8626TIP3    H247370   5.314   6.152   4.003 -0.7499 -0.7853  0.5518
 8627TIP3   OH247371   1.441   6.001  15.599 -0.4124  0.4169  0.4685
 8627TIP3    H147372   1.515   6.020  15.656  0.0661 -0.0555  0.0089
 8627TIP3    H247373   1.368   6.050  15.638  0.1470  0.9280  0.8865
 8628TIP3   OH247374   6.518   1.565  16.647  0.5523 -0.2481  0.1857
 8628TIP3    H147375   6.498   1.621  16.722  2.5157  0.1455  0.4656
 8628TIP3    H247376   6.440   1.569  16.592  0.0624  1.5243  0.9477
 8629TIP3   OH247377   4.028   1.822  11.900  0.0867 -0.7912  0.2145
 8629TIP3    H147378   4.021   1.890  11.832 -1.0822 -0.9876  0.1143
 8629TIP3    H247379   3.946   1.829  11.949  0.0285 -2.0141  0.3186
 8630TIP3   OH247380   5.474   2.031   4.460  0.0940 -0.1494 -0.4423
 8630TIP3    H147381   5.498   2.075   4.379 -0.2805 -0.2647 -0.6167
 8630TIP3    H247382   5.426   1.953   4.432 -1.9629  0.9059 -0.0903
 8631TIP3   OH247383   3.646   6.537   0.818 -0.2578 -0.3039 -0.6335
 8631TIP3    H147384   3.718   6.583   0.861  0.1707 -0.8863 -0.7112
 8631TIP3    H247385   3.573   6.599   0.821 -0.0059 -0.0321  0.2129
 8632TIP3   OH247386   0.783   1.428  11.397 -0.3252  0.0203 -0.4217
 8632TIP3    H147387   0.746   1.497  11.452  1.4910  1.8814 -1.3924
 8632TIP3    H247388   0.822   1.366  11.459 -1.2497  0.2529  0.4330
 8633TIP3   OH247389   5.041   6.486   0.454 -0.4258 -0.5906  0.0962
 8633TIP3    H147390   5.072   6.573   0.427  1.1950 -0.3749  2.4118
 8633TIP3    H247391   4.988   6.503   0.532 -3.3225 -1.3950 -1.5336
 8634TIP3   OH247392   3.357   5.661  13.885  0.0753 -0.1193  0.2489
 8634TIP3    H147393   3.362   5.722  13.959  0.0082  1.8903 -1.3224
 8634TIP3    H247394   3.291   5.699  13.828 -0.8884 -2.3878 -0.2252
 8635TIP3   OH247395   5.781   5.361   4.243 -0.6082 -0.4114  0.1445
 8635TIP3    H147396   5.795   5.271   4.274  0.6878 -0.0019  0.8246
 8635TIP3    H247397   5.775   5.352   4.148 -0.0590 -1.1911  0.1700
 8636TIP3   OH247398   5.337   1.510   0.364 -0.0233  0.1722  0.0090
 8636TIP3    H147399   5.421   1.480   0.398 -0.1678  0.9650  1.1074
 8636TIP3    H247400   5.320   1.453   0.289  1.8966  0.5533 -0.7741
 8637TIP3   OH247401   5.437   6.471   2.107 -0.0796 -0.2472 -0.4565
 8637TIP3    H147402   5.451   6.562   2.131 -1.1708 -0.2997  0.4805
 8637TIP3    H247403   5.389   6.475   2.024  1.0432 -0.0146 -1.1197
 8638TIP3   OH247404   3.385   0.780   5.446  0.1497  0.2116 -0.5598
 8638TIP3    H147405   3.290   0.777   5.430 -0.1000 -0.9265  0.9149
 8638TIP3    H247406   3.394   0.757   5.538  1.9953 -1.6862 -1.1529
 8639TIP3   OH247407   1.143   0.457   1.668  0.3222 -0.0989  0.0483
 8639TIP3    H147408   1.154   0.531   1.727  2.1156 -0.5876  0.3848
 8639TIP3    H247409   1.070   0.482   1.611 -0.1122  1.2394  1.1558
 8640TIP3   OH247410   5.599   0.038  13.074  0.2804 -0.0463  0.2193
 8640TIP3    H147411   5.507   0.010  13.082  0.4260 -0.5558  0.1280
 8640TIP3    H247412   5.647  -0.042  13.052  0.3897  0.6794 -2.4849
 8641TIP3   OH247413   5.689   3.189  15.760 -0.4916  0.7440 -0.3388
 8641TIP3    H147414   5.732   3.274  15.749 -1.1357  1.1500  0.1992
 8641TIP3    H247415   5.721   3.137  15.686  1.2001  0.9030  0.2229
 8642TIP3   OH247416   5.941   3.425  11.470  0.3067 -0.1187 -0.1736
 8642TIP3    H147417   5.892   3.344  11.455 -2.0154  0.9936  0.8122
 8642TIP3    H247418   6.001   3.404  11.541 -0.4824 -0.9336  0.2777
 8643TIP3   OH247419   2.242   2.958  13.404 -0.5549  0.5132 -0.3230
 8643TIP3    H147420   2.294   2.994  13.475 -1.6110  2.2830 -0.3971
 8643TIP3    H247421   2.239   2.864  13.422 -1.3301  0.9648  2.3712
 8644TIP3   OH247422   5.917   3.274  16.871  0.4042 -0.6028 -0.1257
 8644TIP3    H147423   5.859   3.261  16.796  1.2413  2.0789 -1.3285
 8644TIP3    H247424   5.887   3.354  16.913  1.4834 -0.7156  0.9576
 8645TIP3   OH247425   5.921   2.693  16.873 -0.6043 -0.2683  0.6588
 8645TIP3    H147426   5.839   2.728  16.838  0.0330  3.4245  2.3406
 8645TIP3    H247427   5.989   2.736  16.823  0.2522  0.5095  2.3841
 8646TIP3   OH247428   3.459   5.766   4.623 -0.0834  0.1882 -0.1426
 8646TIP3    H147429   3.503   5.764   4.538 -0.1977 -1.6266 -0.2041
 8646TIP3    H247430   3.385   5.824   4.610 -0.2409 -0.2569 -1.3782
 8647TIP3   OH247431   1.740   2.344   2.126  0.2155 -0.1375 -0.2137
 8647TIP3    H147432   1.798   2.383   2.061 -0.3826  0.2868 -0.5027
 8647TIP3    H247433   1.704   2.267   2.083  0.3877 -0.2734 -0.1158
 8648TIP3   OH247434   2.687   6.645  16.323  0.0813  0.2916  0.2175
 8648TIP3    H147435   2.607   6.678  16.282 -0.0409  0.4425  0.5661
 8648TIP3    H247436   2.702   6.705  16.396  0.9775  0.7669 -0.3371
 8649TIP3   OH247437   6.472   4.999   5.209 -0.4756 -0.8246  0.3364
 8649TIP3    H147438   6.521   5.028   5.132 -1.9352  0.7986 -0.0696
 8649TIP3    H247439   6.386   4.973   5.174 -1.0031 -0.5077  1.3506
 8650TIP3   OH247440   4.234   2.811  11.284 -0.1384 -1.1655 -0.2911
 8650TIP3    H147441   4.150   2.793  11.326 -0.0712 -1.2334 -0.1863
 8650TIP3    H247442   4.212   2.830  11.193 -0.3489 -0.3537 -0.0788
 8651TIP3   OH247443   5.574   6.172   1.366  1.0838 -0.8250 -0.1866
 8651TIP3    H147444   5.493   6.170   1.314  1.4879 -1.8099 -0.8084
 8651TIP3    H247445   5.546   6.149   1.455  0.4546  0.4346 -0.0351
 8652TIP3   OH247446   4.756   1.801  14.654  0.1101  0.1455 -0.3123
 8652TIP3    H147447   4.700   1.777  14.581 -0.7622  1.3251 -0.0716
 8652TIP3    H247448   4.710   1.769  14.731  1.0899 -1.2109 -0.2583
 8653TIP3   OH247449   5.012   6.815  15.139  0.2293  0.3762 -0.3602
 8653TIP3    H147450   4.944   6.811  15.206  0.7424  3.2917  0.4582
 8653TIP3    H247451   4.966   6.833  15.057 -0.1643 -0.3998 -0.3184
 8654TIP3   OH247452   2.500   6.821  11.759 -0.1608  0.3902 -0.0997
 8654TIP3    H147453   2.453   6.791  11.681  0.4990 -1.0114  0.0158
 8654TIP3    H247454   2.592   6.807  11.740 -0.0269 -0.9550  1.2856
 8655TIP3   OH247455   6.253   3.348   4.197  0.0997 -0.2573  0.2784
 8655TIP3    H147456   6.291   3.435   4.185  0.1535  0.0425  2.2424
 8655TIP3    H247457   6.160   3.360   4.175  0.3643 -0.0553 -0.7820
 8656TIP3   OH247458   4.069   0.481   2.493 -0.0668 -0.1552  0.1782
 8656TIP3    H147459   4.090   0.443   2.408 -1.4777  2.0721 -1.2612
 8656TIP3    H247460   4.134   0.444   2.552  1.9292 -0.6434 -2.1485
 8657TIP3   OH247461   1.256   2.028  15.925  0.6773  0.1394  0.0127
 8657TIP3    H147462   1.204   2.105  15.904 -1.2664 -1.1334 -0.1351
 8657TIP3    H247463   1.346   2.051  15.900 -0.2044  1.5629 -2.0631
 8658TIP3   OH247464   0.894   3.043  14.984 -0.6496 -0.2248 -0.1937
 8658TIP3    H147465   0.808   3.000  14.984 -1.6500  1.6561 -0.7217
 8658TIP3    H247466   0.934   3.017  14.901 -1.0252 -0.5311 -0.2826
 8659TIP3   OH247467   2.239   0.924   0.783  0.4835 -0.0922 -0.0996
 8659TIP3    H147468   2.234   1.020   0.777  3.2905  0.2823  1.9596
 8659TIP3    H247469   2.254   0.896   0.692  0.6175  1.4986 -0.6057
 8660TIP3   OH247470   2.699   1.448   5.568 -0.0119 -0.3624 -0.4742
 8660TIP3    H147471   2.723   1.511   5.500  2.8711  0.2485  0.9585
 8660TIP3    H247472   2.667   1.502   5.640 -0.4559 -0.8059 -0.3331
 8661TIP3   OH247473   6.387   1.035   4.357  0.5967  0.2730 -0.4097
 8661TIP3    H147474   6.479   1.060   4.356  1.3587 -2.1250  0.3727
 8661TIP3    H247475   6.355   1.067   4.442  0.8272  0.7444 -0.4980
 8662TIP3   OH247476   1.403   3.580  13.512 -0.2503  0.4268 -0.3671
 8662TIP3    H147477   1.454   3.657  13.486 -1.2428  1.7712  1.4806
 8662TIP3    H247478   1.452   3.543  13.586  0.5027 -1.1008 -1.5608
 8663TIP3   OH247479   0.398   6.046   4.397  1.1166 -0.2090  0.7265
 8663TIP3    H147480   0.443   5.965   4.420 -0.2500 -1.4401 -0.6693
 8663TIP3    H247481   0.326   6.052   4.459  0.3772 -0.8585 -0.0454
 8664TIP3   OH247482   1.550   1.916  11.461 -0.8425 -0.3539 -0.0318
 8664TIP3    H147483   1.570   1.826  11.486 -0.4150  0.2910  2.2809
 8664TIP3    H247484   1.635   1.952  11.434 -1.1847 -0.8624 -1.9176
 8665TIP3   OH247485   6.591   4.662   5.896  0.2839  0.7969  0.3958
 8665TIP3    H147486   6.651   4.588   5.891 -0.9393 -0.2426  0.3412
 8665TIP3    H247487   6.507   4.626   5.868 -0.6256  1.8841  1.5730
 8666TIP3   OH247488   0.687   3.642  12.187 -0.3528 -0.3678 -0.8781
 8666TIP3    H147489   0.639   3.582  12.244  1.1214  0.4630  1.3622
 8666TIP3    H247490   0.631   3.719  12.181 -1.4042 -1.2010 -2.2353
 8667TIP3   OH247491   2.512   4.489   2.374  0.4652 -0.0606  0.2130
 8667TIP3    H147492   2.482   4.402   2.348 -2.9031  1.2447 -0.9018
 8667TIP3    H247493   2.470   4.505   2.458  2.0895  0.0538  1.0325
 8668TIP3   OH247494   2.553   4.189   1.223  0.2979 -0.3299 -0.0931
 8668TIP3    H147495   2.649   4.187   1.214  0.4623  1.0576  1.0748
 8668TIP3    H247496   2.538   4.218   1.312 -1.2291 -0.4026 -0.3117
 8669TIP3   OH247497   4.524   6.564  12.242 -0.1261  0.3410  0.3972
 8669TIP3    H147498   4.440   6.567  12.288  0.9782  1.9760  2.4580
 8669TIP3    H247499   4.553   6.473  12.252 -0.3844  0.4157  2.1638
 8670TIP3   OH247500   4.847   4.384  14.582  0.2824  0.2784  0.1602
 8670TIP3    H147501   4.883   4.463  14.623  0.4458  0.1762  0.2166
 8670TIP3    H247502   4.752   4.393  14.591  0.3246  0.1309  0.7967
 8671TIP3   OH247503   5.335   1.956   5.229  0.2035 -0.3465 -0.1269
 8671TIP3    H147504   5.327   1.943   5.135  1.6773 -0.9048 -0.2037
 8671TIP3    H247505   5.362   1.870   5.263 -1.6575 -0.5336  1.0154
 8672TIP3   OH247506   1.971   0.173  11.993  0.0857  0.0619  0.1113
 8672TIP3    H147507   2.055   0.207  11.964  0.7788 -1.0013  0.7991
 8672TIP3    H247508   1.963   0.088  11.949 -0.4672 -0.0124  0.3379
 8673TIP3   OH247509   2.443   6.506   5.455 -0.3765  0.1325  0.3573
 8673TIP3    H147510   2.399   6.581   5.415 -2.1702 -0.4556  1.1216
 8673TIP3    H247511   2.489   6.542   5.530  0.0704  0.6924 -0.1767
 8674TIP3   OH247512   1.294   1.731  14.354 -0.5422  0.1527 -0.4258
 8674TIP3    H147513   1.386   1.718  14.331 -0.7698 -1.1584 -0.6984
 8674TIP3    H247514   1.277   1.823  14.337  0.7822  0.4669 -0.1536
 8675TIP3   OH247515   6.593   3.807  12.555  0.2063 -0.1442 -0.0381
 8675TIP3    H147516   6.664   3.870  12.550 -1.6332  2.1311  0.7283
 8675TIP3    H247517   6.549   3.815  12.470  0.1750 -0.6821 -0.0751
 8676TIP3   OH247518   2.749   3.917   0.411 -0.0125 -0.0816 -0.0121
 8676TIP3    H147519   2.832   3.869   0.406  0.0021  0.0322 -1.6820
 8676TIP3    H247520   2.758   3.988   0.347 -1.3546 -0.0050 -0.1572
 8677TIP3   OH247521   1.848   2.551  16.377 -0.7891 -0.2055  0.1696
 8677TIP3    H147522   1.855   2.482  16.444  0.3478  0.6727  0.9988
 8677TIP3    H247523   1.760   2.541  16.341 -0.2095 -2.9780 -0.7287
 8678TIP3   OH247524   0.376   5.586  12.850 -0.2557  0.3674  0.1072
 8678TIP3    H147525   0.391   5.675  12.882  0.7438  0.8254 -1.5306
 8678TIP3    H247526   0.384   5.593  12.755 -2.5266 -1.0385 -0.2678
 8679TIP3   OH247527   6.601   4.246   3.545 -0.5528 -0.0590  0.4077
 8679TIP3    H147528   6.526   4.306   3.543 -1.2176 -0.8791  0.4347
 8679TIP3    H247529   6.572   4.173   3.599  1.0733  0.6421  2.3608
 8680TIP3   OH247530   1.152   3.332   3.442  0.4693 -0.5030  0.0490
 8680TIP3    H147531   1.071   3.302   3.484  1.1154 -0.1239  1.6682
 8680TIP3    H247532   1.193   3.253   3.410  1.5578 -1.3653  3.1796
 8681TIP3   OH247533   2.263   3.939  16.028 -0.6056  0.4561 -0.0397
 8681TIP3    H147534   2.203   3.877  16.068 -0.6091  0.3979 -0.1348
 8681TIP3    H247535   2.222   4.024  16.042 -0.5088  0.4568  0.2529
 8682TIP3   OH247536   3.604   5.955   5.224  0.5142 -0.3064 -0.8319
 8682TIP3    H147537   3.679   5.899   5.245 -1.1015 -1.3229  3.2753
 8682TIP3    H247538   3.627   6.039   5.264  0.9526  0.5945 -2.8803
 8683TIP3   OH247539   4.547   3.006  13.748 -0.1486  0.4498 -0.1450
 8683TIP3    H147540   4.631   3.018  13.793 -0.8418  0.1244  1.2716
 8683TIP3    H247541   4.562   2.929  13.692 -0.4779 -1.8749  2.7333
 8684TIP3   OH247542   6.231   5.476   5.133  0.1431  0.0685 -0.2152
 8684TIP3    H147543   6.227   5.427   5.215 -1.7525  1.0024  0.3120
 8684TIP3    H247544   6.224   5.568   5.160  4.3201  0.8367 -1.1105
 8685TIP3   OH247545   6.639   3.787  16.995  0.5442 -0.3358  0.1625
 8685TIP3    H147546   6.684   3.862  17.035  1.5384 -1.7155  1.7375
 8685TIP3    H247547   6.551   3.820  16.976  1.4059  1.6919 -0.7113
 8686TIP3   OH247548   5.099   1.234  13.830  0.4875  0.4309  0.3992
 8686TIP3    H147549   5.047   1.289  13.772 -1.3300 -0.6558  0.9264
 8686TIP3    H247550   5.171   1.202  13.776 -1.0367 -0.3852 -1.2443
 8687TIP3   OH247551   2.367   6.293  11.268  0.2321 -0.0727  0.0194
 8687TIP3    H147552   2.456   6.260  11.278  0.1462 -0.0442  1.0087
 8687TIP3    H247553   2.362   6.324  11.178  1.0159 -0.6832 -0.2378
 8688TIP3   OH247554   1.669   5.980   0.928  0.2828  0.1361  0.2218
 8688TIP3    H147555   1.735   6.035   0.971 -0.4327  0.8332  0.4532
 8688TIP3    H247556   1.586   6.021   0.951 -0.1581  0.1522 -1.3192
 8689TIP3   OH247557   6.330   4.634  13.718 -0.3915  0.4631  0.1400
 8689TIP3    H147558   6.397   4.691  13.679 -1.4326  1.8026  0.2091
 8689TIP3    H247559   6.247   4.668  13.684 -1.2872  1.0252  2.6492
 8690TIP3   OH247560   3.696   4.660   5.312  0.0944  0.1754 -0.5287
 8690TIP3    H147561   3.741   4.724   5.258  0.8881 -0.1925 -0.3264
 8690TIP3    H247562   3.637   4.615   5.252  0.0600  0.6044 -0.8215
 8691TIP3   OH247563   6.371   2.790  14.261  0.0637  0.1177 -0.4307
 8691TIP3    H147564   6.425   2.750  14.329 -0.0816 -2.5945 -1.8235
 8691TIP3    H247565   6.434   2.825  14.198  0.2412  3.5372  1.3594
 8692TIP3   OH247566   0.718   6.092   5.649 -0.1023 -0.1830  0.2399
 8692TIP3    H147567   0.671   6.044   5.581  0.0637 -1.4743  1.0233
 8692TIP3    H247568   0.810   6.075   5.631 -0.0467 -0.2883  0.6256
 8693TIP3   OH247569   6.779   5.967   0.909  0.0692  0.1114 -0.3743
 8693TIP3    H147570   6.796   6.056   0.941 -0.7519  0.1803 -0.1078
 8693TIP3    H247571   6.711   5.977   0.843  0.7805 -0.2013 -1.1794
 8694TIP3   OH247572   2.095   2.962  13.931 -0.0330  0.5092  0.1404
 8694TIP3    H147573   2.101   2.997  13.842  0.8464  1.0970  0.4162
 8694TIP3    H247574   2.096   3.039  13.988  1.3345  0.0866  0.7310
 8695TIP3   OH247575   5.230   6.066  11.843 -0.4689 -0.2711 -1.1897
 8695TIP3    H147576   5.270   6.010  11.910 -1.5497  0.8463  0.4585
 8695TIP3    H247577   5.293   6.137  11.829 -0.9313  0.3727 -0.1183
 8696TIP3   OH247578   1.569   2.316   4.993 -0.0427  0.1674 -0.5005
 8696TIP3    H147579   1.595   2.308   5.085  0.3428 -3.3319 -0.7749
 8696TIP3    H247580   1.641   2.277   4.944  0.2132  2.8300 -2.4760
 8697TIP3   OH247581   3.249   3.429   5.819 -0.0101  0.7676  0.0812
 8697TIP3    H147582   3.222   3.337   5.822  0.2999  0.6956  0.6111
 8697TIP3    H247583   3.218   3.466   5.901  0.7755  0.8884  0.3290
 8698TIP3   OH247584   1.737   0.288  13.823 -0.1929 -0.1578  0.2767
 8698TIP3    H147585   1.669   0.351  13.801  0.3928  0.0290 -1.1066
 8698TIP3    H247586   1.819   0.331  13.797  0.1827 -1.6769 -1.2027
 8699TIP3   OH247587   2.322   2.808   4.306  0.1896  0.6570 -0.3668
 8699TIP3    H147588   2.398   2.800   4.363 -0.6193  1.0627  0.7898
 8699TIP3    H247589   2.350   2.766   4.224  0.0274 -3.9650  1.6135
 8700TIP3   OH247590   5.036   5.059  13.034 -0.4970  0.3461  0.3966
 8700TIP3    H147591   5.071   4.983  13.081  0.8210 -0.8477 -2.2865
 8700TIP3    H247592   5.086   5.133  13.067  2.0088 -0.7880 -0.6156
 8701TIP3   OH247593   3.827   3.999   4.268 -0.0780 -0.1006  0.4894
 8701TIP3    H147594   3.787   3.982   4.183 -0.3738 -1.9569  0.9500
 8701TIP3    H247595   3.917   3.967   4.259  0.0255  0.1158  0.7400
 8702TIP3   OH247596   3.703   4.468   5.629 -0.2889  0.2867 -0.1869
 8702TIP3    H147597   3.747   4.546   5.597 -0.7597 -0.1391 -1.9935
 8702TIP3    H247598   3.638   4.500   5.691  0.2146  1.2139 -0.1170
 8703TIP3   OH247599   5.541   1.072   1.468 -0.2730 -0.5407  0.5611
 8703TIP3    H147600   5.538   0.995   1.412 -1.0776 -0.0094 -0.1539
 8703TIP3    H247601   5.617   1.122   1.436  2.0095 -2.3019  2.8145
 8704TIP3   OH247602   2.709   0.188  16.701  0.1505 -0.1689 -0.2856
 8704TIP3    H147603   2.652   0.258  16.671 -0.4112 -0.6997 -0.4794
 8704TIP3    H247604   2.695   0.183  16.795 -0.7693 -0.8540 -0.4472
 8705TIP3   OH247605   3.767   3.865   2.115 -0.1280  0.1449  0.9069
 8705TIP3    H147606   3.743   3.849   2.023 -1.7494  0.0620  1.3220
 8705TIP3    H247607   3.840   3.926   2.110 -0.2133  0.1670 -0.4522
 8706TIP3   OH247608   2.402   3.522  11.939  0.9493 -0.0173  0.0220
 8706TIP3    H147609   2.490   3.500  11.970  0.4011  0.1545  1.8106
 8706TIP3    H247610   2.416   3.558  11.851  2.5850 -0.6033  0.0035
 8707TIP3   OH247611   0.845   1.941   1.141  0.0298  0.5545  1.3075
 8707TIP3    H147612   0.817   1.984   1.060  1.2204 -1.0725 -0.0235
 8707TIP3    H247613   0.914   1.998   1.175 -1.5109  2.0638  2.0776
 8708TIP3   OH247614   6.049   5.665   0.408  0.6495 -0.1543 -0.0217
 8708TIP3    H147615   6.089   5.582   0.435  1.9913  0.7142  0.7964
 8708TIP3    H247616   6.122   5.726   0.405 -0.3259  1.0107 -0.5956
 8709TIP3   OH247617   3.058   4.287   1.385  0.3582 -0.1833  0.1211
 8709TIP3    H147618   3.039   4.302   1.293  1.4375  2.7673  0.2563
 8709TIP3    H247619   2.993   4.339   1.432  0.3668 -0.9462  1.0103
 8710TIP3   OH247620   2.883   1.729  16.030 -0.2251  0.0108 -0.3683
 8710TIP3    H147621   2.904   1.644  16.069  0.0826  1.5564  3.2161
 8710TIP3    H247622   2.968   1.771  16.016 -0.3279 -0.4621 -2.8935
 8711TIP3   OH247623   4.643   2.812   5.684 -0.1254  0.1455 -0.4269
 8711TIP3    H147624   4.624   2.775   5.770  1.4867 -0.1894 -0.1964
 8711TIP3    H247625   4.733   2.843   5.690 -0.4424  1.3916 -1.5685
 8712TIP3   OH247626   4.568   6.603  11.883 -0.0978 -0.1891  0.4266
 8712TIP3    H147627   4.499   6.557  11.836  2.3088 -2.5721 -1.0878
 8712TIP3    H247628   4.579   6.554  11.965  0.8666 -0.9242 -0.1134
 8713TIP3   OH247629   5.999   6.265   4.390  0.2397 -0.3427  0.2973
 8713TIP3    H147630   5.947   6.277   4.469  0.6292 -0.2240  0.5410
 8713TIP3    H247631   6.088   6.291   4.415  0.3566 -0.2468 -0.1950
 8714TIP3   OH247632   2.636   0.829  16.661  0.0023  0.3796  0.3265
 8714TIP3    H147633   2.563   0.789  16.709 -0.1199  2.1030  1.6929
 8714TIP3    H247634   2.612   0.922  16.655  0.9505  0.5588 -1.4000
 8715TIP3   OH247635   6.112   0.840  13.152 -0.2803  0.5495  0.6180
 8715TIP3    H147636   6.162   0.806  13.077 -0.6301  0.2687  0.5098
 8715TIP3    H247637   6.032   0.876  13.113 -0.2807  0.7704  0.8191
 8716TIP3   OH247638   6.198   0.317  14.183 -0.1937 -0.0922  0.0555
 8716TIP3    H147639   6.176   0.272  14.101 -0.6420 -3.1251  1.7078
 8716TIP3    H247640   6.116   0.358  14.210 -0.0665  0.8487 -0.9153
 8717TIP3   OH247641   4.903   6.575  16.190 -0.5761  0.4861 -0.8891
 8717TIP3    H147642   4.967   6.507  16.170  0.6000  1.4064 -0.3248
 8717TIP3    H247643   4.855   6.589  16.108 -1.4175 -1.5821 -0.8136
 8718TIP3   OH247644   1.509   4.143   6.410  0.0661  0.0222  0.2125
 8718TIP3    H147645   1.456   4.115   6.334 -0.6280 -0.4906  0.8645
 8718TIP3    H247646   1.575   4.074   6.420  1.7315  1.2989 -1.3882
 8719TIP3   OH247647   2.296   0.372   0.389 -0.5370 -0.2254 -0.0065
 8719TIP3    H147648   2.203   0.395   0.384 -1.1130 -2.3928 -0.2520
 8719TIP3    H247649   2.299   0.298   0.450  1.0895  0.0567  0.2899
 8720TIP3   OH247650   1.539   6.700   5.570 -0.3524  0.0595  0.1008
 8720TIP3    H147651   1.531   6.795   5.571 -1.2189  0.0042 -0.3628
 8720TIP3    H247652   1.599   6.682   5.497  2.1271  0.3515  1.9318
 8721TIP3   OH247653   0.037   1.566   5.248  0.3764 -0.3450  0.2576
 8721TIP3    H147654   0.079   1.644   5.285 -1.3202  0.0743  1.3791
 8721TIP3    H247655   0.096   1.494   5.272  0.4592  0.2107  1.8236
 8722TIP3   OH247656   3.071   3.957   2.398 -0.3481 -0.1850  0.1438
 8722TIP3    H147657   3.152   4.005   2.383 -0.7138  0.4657  0.1927
 8722TIP3    H247658   3.031   3.999   2.474 -2.2959  1.6864 -1.7387
 8723TIP3   OH247659   3.734   0.787   1.936  0.6785 -0.1667  0.4905
 8723TIP3    H147660   3.663   0.851   1.950 -0.7242 -1.9015  1.7242
 8723TIP3    H247661   3.801   0.836   1.888 -1.4869  1.4714 -1.0602
 8724TIP3   OH247662   4.856   6.202  12.387  0.3570  0.2216  0.3555
 8724TIP3    H147663   4.886   6.134  12.446  1.1107  0.6842  0.5202
 8724TIP3    H247664   4.925   6.209  12.321 -0.3532 -0.1073 -0.4372
 8725TIP3   OH247665   2.228   1.178  15.090 -0.1474  0.1111  0.0650
 8725TIP3    H147666   2.136   1.151  15.081  0.4220 -1.3395 -2.5757
 8725TIP3    H247667   2.240   1.244  15.021  1.0556 -0.6365 -0.4711
 8726TIP3   OH247668   1.911   6.231   1.670 -0.5982  0.5006  0.4283
 8726TIP3    H147669   1.851   6.282   1.616 -0.9029  0.6958  0.9466
 8726TIP3    H247670   1.862   6.212   1.750 -0.6962 -1.0969  0.0169
 8727TIP3   OH247671   0.711   6.820   0.063  0.5525 -0.2561 -0.7459
 8727TIP3    H147672   0.754   6.814  -0.022 -0.3221  1.1729 -1.3236
 8727TIP3    H247673   0.644   6.887   0.052  1.9721  1.7795  1.7528
 8728TIP3   OH247674   2.815   4.810   0.407  0.7600  0.5886  0.4012
 8728TIP3    H147675   2.826   4.716   0.419  2.4984  0.8618  1.1382
 8728TIP3    H247676   2.724   4.819   0.378  0.5649 -1.3061  0.2725
 8729TIP3   OH247677   2.615   4.518   1.890  0.1585  0.2997  0.0637
 8729TIP3    H147678   2.706   4.510   1.921  0.6186 -0.1221 -1.3379
 8729TIP3    H247679   2.578   4.431   1.903  0.4203  0.0595 -0.7293
 8730TIP3   OH247680   0.487   3.692  12.592  0.2984  0.4000  0.0430
 8730TIP3    H147681   0.441   3.640  12.526 -0.2110 -0.4210  0.9997
 8730TIP3    H247682   0.503   3.630  12.663 -0.4722  1.5902  1.3017
 8731TIP3   OH247683   4.159   4.527   2.711  0.0293  0.2127  0.2043
 8731TIP3    H147684   4.117   4.566   2.788 -1.4182  1.3524 -1.0999
 8731TIP3    H247685   4.088   4.519   2.647  1.4399  0.4978 -1.4614
 8732TIP3   OH247686   2.912   6.264  15.831 -0.2685  0.0457  0.5137
 8732TIP3    H147687   2.842   6.326  15.853 -0.7307 -0.8298  1.5918
 8732TIP3    H247688   2.874   6.209  15.763 -0.5143 -0.1921  0.8359
 8733TIP3   OH247689   1.947   3.065   4.661  0.3399  0.3623 -0.0156
 8733TIP3    H147690   1.944   3.147   4.613  1.9705  1.3144  1.4098
 8733TIP3    H247691   2.036   3.033   4.649 -0.4878 -1.6850 -1.2451
 8734TIP3   OH247692   2.890   5.013   3.642  0.5421 -0.4689  0.3213
 8734TIP3    H147693   2.933   5.010   3.556  0.2337  3.3623 -0.1339
 8734TIP3    H247694   2.961   5.023   3.705  0.6340  2.2359 -0.1023
 8735TIP3   OH247695   6.768   0.736   5.557 -0.0323 -0.0689  0.0146
 8735TIP3    H147696   6.709   0.807   5.585 -0.5533  0.1626 -1.5749
 8735TIP3    H247697   6.809   0.706   5.638 -2.3634 -0.2711  1.2002
 8736TIP3   OH247698   1.057   6.116   5.608 -0.0877 -0.4107 -0.1500
 8736TIP3    H147699   1.101   6.110   5.524 -0.0311 -0.2997 -0.1286
 8736TIP3    H247700   1.045   6.210   5.623  0.6353 -0.3849  0.3424
 8737TIP3   OH247701   3.134   0.818  14.159 -0.2330  0.0204  0.3934
 8737TIP3    H147702   3.177   0.904  14.162  1.5275 -0.7626 -0.5350
 8737TIP3    H247703   3.050   0.835  14.116  1.0956  0.9776 -2.0486
 8738TIP3   OH247704   5.077   2.040  15.272  0.0767 -0.1550 -0.3674
 8738TIP3    H147705   4.986   2.039  15.243  0.0089 -1.5317 -0.1573
 8738TIP3    H247706   5.078   2.099  15.347 -0.5615  0.1608 -0.5982
 8739TIP3   OH247707   3.927   4.132  12.464  0.0495 -0.6848 -0.5269
 8739TIP3    H147708   3.882   4.098  12.387  2.3738  0.2954 -2.4616
 8739TIP3    H247709   3.994   4.191  12.428  0.0586  1.2776  2.3385
 8740TIP3   OH247710   1.647   3.973  16.893  0.3384  0.1927  0.1787
 8740TIP3    H147711   1.665   3.919  16.817 -0.7064  0.7201 -0.4753
 8740TIP3    H247712   1.731   3.985  16.936  0.7441 -1.0980 -0.2287
 8741TIP3   OH247713   5.992   2.369   5.493 -0.4653 -0.2826 -0.4640
 8741TIP3    H147714   6.048   2.425   5.441 -0.0677  0.4038  0.6630
 8741TIP3    H247715   5.903   2.387   5.461 -0.3898  1.3035  0.1396
 8742TIP3   OH247716   5.452   1.599  13.237 -0.3235 -0.2749  0.4844
 8742TIP3    H147717   5.500   1.651  13.301 -0.7182 -1.5787  1.9105
 8742TIP3    H247718   5.509   1.596  13.160  0.7476  0.2718  1.2349
 8743TIP3   OH247719   2.255   5.396  10.692  0.0157 -0.5505  0.2418
 8743TIP3    H147720   2.242   5.414  10.785 -0.0139  0.0589  0.1267
 8743TIP3    H247721   2.300   5.312  10.689 -1.2330 -1.2576  0.7583
 8744TIP3   OH247722   6.457   4.511  10.925  0.0329 -0.2800  0.2487
 8744TIP3    H147723   6.529   4.572  10.910  1.8256 -2.6200 -1.4091
 8744TIP3    H247724   6.419   4.495  10.838  0.1743 -2.0747  0.4607
 8745TIP3   OH247725   3.864   1.495  15.429 -0.4450 -0.3476  0.4330
 8745TIP3    H147726   3.941   1.453  15.468  0.5171 -0.1717 -1.2220
 8745TIP3    H247727   3.899   1.547  15.357 -2.3151 -1.9236 -1.7100
 8746TIP3   OH247728   4.544   5.273  13.721  0.3877 -0.1463 -0.0808
 8746TIP3    H147729   4.596   5.333  13.773  2.1841 -0.6129 -1.2578
 8746TIP3    H247730   4.523   5.321  13.642 -2.6476  0.6913  1.0807
 8747TIP3   OH247731   5.064   5.204  15.612 -0.6612 -0.1910 -0.1708
 8747TIP3    H147732   5.047   5.116  15.577  0.1032 -0.1939 -0.5408
 8747TIP3    H247733   5.082   5.190  15.705  1.7484 -0.7309 -0.6495
 8748TIP3   OH247734   1.663   1.398  17.062  0.8521  0.6856 -0.0232
 8748TIP3    H147735   1.628   1.313  17.090  0.9842  0.6629  0.0682
 8748TIP3    H247736   1.587   1.456  17.063  0.7459  0.5505 -0.1601
 8749TIP3   OH247737   0.125   4.584   3.640 -0.0189 -0.1302  0.7366
 8749TIP3    H147738   0.047   4.637   3.624 -0.5104 -1.3695 -1.5238
 8749TIP3    H247739   0.183   4.604   3.566  0.8790 -0.8074  1.2338
 8750TIP3   OH247740   2.762   6.549   5.450 -0.7951 -0.3957  0.0099
 8750TIP3    H147741   2.839   6.562   5.395 -0.7498  1.7453  0.4818
 8750TIP3    H247742   2.785   6.477   5.509  0.8585  0.2423  0.1785
 8751TIP3   OH247743   4.758   1.743   5.171 -0.5701  0.4520 -0.2972
 8751TIP3    H147744   4.764   1.666   5.115 -0.5019  1.3267 -1.5261
 8751TIP3    H247745   4.691   1.797   5.131 -1.4842  0.5262  1.2336
 8752TIP3   OH247746   0.829   0.352   3.008 -0.3109 -0.6737 -0.0906
 8752TIP3    H147747   0.887   0.276   3.011  0.6297  0.0479  0.7591
 8752TIP3    H247748   0.803   0.359   2.916  0.9764 -1.0191 -0.5073
 8753TIP3   OH247749   3.897   3.629  11.768  0.1511 -0.2511 -0.4171
 8753TIP3    H147750   3.879   3.706  11.822  0.2081  0.4518 -1.3808
 8753TIP3    H247751   3.810   3.598  11.743  0.1184 -0.6966  0.2313
 8754TIP3   OH247752   6.483   2.319   1.028 -0.1035 -0.2336 -0.4586
 8754TIP3    H147753   6.521   2.234   1.006 -1.2542 -1.1935  1.0718
 8754TIP3    H247754   6.481   2.366   0.945  1.1228 -1.4590 -1.2339
 8755TIP3   OH247755   1.403   5.933   5.888 -0.2273 -0.0896 -0.5379
 8755TIP3    H147756   1.473   5.978   5.935  1.5852 -1.3014 -1.9567
 8755TIP3    H247757   1.328   5.993   5.895  1.1152  1.5824  0.4449
 8756TIP3   OH247758   0.989   2.687  14.953  0.7713 -0.8743  0.7730
 8756TIP3    H147759   1.008   2.606  14.999  0.8892 -1.3884 -0.1518
 8756TIP3    H247760   1.073   2.732  14.947  0.6543 -0.5387  1.5345
 8757TIP3   OH247761   1.110   3.365  17.128  0.3298 -0.4556  0.3090
 8757TIP3    H147762   1.145   3.404  17.048 -0.8778 -0.2597 -0.1443
 8757TIP3    H247763   1.145   3.420  17.198 -0.7161  1.0090 -0.2693
 8758TIP3   OH247764   2.919   6.572  12.324 -0.1908  0.2433 -0.2191
 8758TIP3    H147765   2.970   6.580  12.244 -1.0259 -0.8528 -0.8921
 8758TIP3    H247766   2.981   6.535  12.388  0.0051 -0.6674 -0.9090
 8759TIP3   OH247767   4.788   4.143  14.330  0.2903 -0.0707 -0.1788
 8759TIP3    H147768   4.882   4.156  14.343 -0.0018  1.4264  0.5997
 8759TIP3    H247769   4.777   4.048  14.334  2.0306 -0.4432 -2.3165
 8760TIP3   OH247770   6.733   3.229  14.840 -0.6310  0.0299  0.2588
 8760TIP3    H147771   6.639   3.212  14.850 -0.7091 -0.3171 -0.9117
 8760TIP3    H247772   6.740   3.277  14.757  0.1299  0.9717  0.8513
 8761TIP3   OH247773   2.567   5.436   1.770  0.3884  0.3137 -0.2786
 8761TIP3    H147774   2.609   5.453   1.854  0.6506 -0.2321 -0.2905
 8761TIP3    H247775   2.637   5.445   1.705  0.4277 -0.3109 -0.3285
 8762TIP3   OH247776   5.645   5.603  16.272  0.0030  0.8074  0.7731
 8762TIP3    H147777   5.627   5.566  16.185  0.9231 -2.0962  1.6741
 8762TIP3    H247778   5.699   5.680  16.255  1.9389 -0.8629 -1.2441
 8763TIP3   OH247779   5.326   1.198  15.228  0.2923 -0.4789 -0.2054
 8763TIP3    H147780   5.387   1.135  15.267 -0.5959 -0.2538  1.6367
 8763TIP3    H247781   5.316   1.168  15.137  1.3335 -1.8710  0.0980
 8764TIP3   OH247782   4.487   1.346  14.044  0.0150  0.1053  0.2007
 8764TIP3    H147783   4.414   1.346  13.982 -1.5888 -1.3730  1.9830
 8764TIP3    H247784   4.471   1.422  14.101 -2.5526 -2.3367  3.0907
 8765TIP3   OH247785   1.463   3.626   5.028  0.1640 -0.5776 -0.4465
 8765TIP3    H147786   1.541   3.573   5.043 -0.4939 -1.2185  0.9136
 8765TIP3    H247787   1.407   3.571   4.973 -0.0373 -0.8530  0.0201
 8766TIP3   OH247788   4.708   1.096   4.597 -0.0775  0.2749  0.4174
 8766TIP3    H147789   4.766   1.111   4.671 -0.4684  1.0955  0.5671
 8766TIP3    H247790   4.630   1.057   4.635  1.5613 -4.0793 -0.1464
 8767TIP3   OH247791   0.931   3.400   2.995 -0.2632  0.4984  0.0926
 8767TIP3    H147792   1.002   3.464   3.002  2.0465 -1.9278  0.2296
 8767TIP3    H247793   0.952   3.349   2.917 -1.9730 -0.1990  0.0397
 8768TIP3   OH247794   2.238   2.152   2.536  0.4540  0.1901  0.0243
 8768TIP3    H147795   2.319   2.189   2.501 -0.3351  0.7048 -1.3991
 8768TIP3    H247796   2.190   2.228   2.569  0.3149 -0.0352  0.3432
 8769TIP3   OH247797   5.157   5.267  12.360 -0.8376  0.1328 -0.6582
 8769TIP3    H147798   5.234   5.222  12.395 -0.0014  1.4632 -0.7162
 8769TIP3    H247799   5.103   5.197  12.322 -0.7622 -1.1101  1.3670
 8770TIP3   OH247800   5.854   6.261  14.108  0.1667 -0.4498  0.3033
 8770TIP3    H147801   5.946   6.233  14.110  0.1245 -0.5757  0.5548
 8770TIP3    H247802   5.838   6.285  14.017  0.5296 -0.1573  0.3154
 8771TIP3   OH247803   1.990   1.635  12.086 -0.3162 -0.0625 -0.5030
 8771TIP3    H147804   2.082   1.637  12.112  0.2870 -1.5469 -2.2960
 8771TIP3    H247805   1.950   1.575  12.150 -0.4350  1.7287  1.2060
 8772TIP3   OH247806   4.273   4.494   3.568  0.1666  0.0262 -0.0546
 8772TIP3    H147807   4.280   4.399   3.555  1.2385  0.1861 -0.7636
 8772TIP3    H247808   4.197   4.505   3.625  1.4145 -1.4159  2.0293
 8773TIP3   OH247809   1.069   2.958  11.976 -0.0309  0.8544 -0.0705
 8773TIP3    H147810   1.094   3.027  12.038 -0.0780  0.6481  0.1789
 8773TIP3    H247811   1.065   2.878  12.029  2.3590  0.1905 -0.7851
 8774TIP3   OH247812   2.511   0.695  15.460 -0.5487  0.0764  0.6436
 8774TIP3    H147813   2.525   0.620  15.401  2.3165  0.6642  0.4289
 8774TIP3    H247814   2.577   0.683  15.529 -2.4998  0.4825  2.6748
 8775TIP3   OH247815   0.693   3.678  11.919 -0.6021  0.1443  0.2019
 8775TIP3    H147816   0.782   3.712  11.912 -0.7596  0.5826  0.2758
 8775TIP3    H247817   0.686   3.646  12.009 -0.3693 -0.3360  0.0552
 8776TIP3   OH247818   1.611   0.467   4.807  0.1175 -0.1820 -0.1837
 8776TIP3    H147819   1.643   0.443   4.720 -0.4180  0.0485 -0.4495
 8776TIP3    H247820   1.645   0.555   4.822  1.8447 -0.9484  0.6721
 8777TIP3   OH247821   5.429   0.718   5.573 -0.2320  0.0213 -0.3165
 8777TIP3    H147822   5.362   0.771   5.616 -1.8709 -1.7010 -0.6138
 8777TIP3    H247823   5.452   0.650   5.637 -1.4452 -1.5401 -1.4518
 8778TIP3   OH247824   5.775   5.915  14.906  0.3438 -0.2635  0.0440
 8778TIP3    H147825   5.771   5.912  14.811 -2.8328  0.0460  0.0616
 8778TIP3    H247826   5.827   5.993  14.925  1.7943 -0.8277 -1.3618
 8779TIP3   OH247827   3.095   6.333   0.524 -0.6438  0.2955  0.1666
 8779TIP3    H147828   3.168   6.393   0.538  1.0550 -1.0780 -2.2296
 8779TIP3    H247829   3.033   6.382   0.469 -0.2023  0.5010 -0.1471
 8780TIP3   OH247830   1.276   2.603  14.043 -0.1318 -0.9775 -0.2021
 8780TIP3    H147831   1.216   2.676  14.029 -0.9735 -1.7764 -0.8766
 8780TIP3    H247832   1.297   2.607  14.137  2.0882  1.8012 -0.6747
 8781TIP3   OH247833   1.308   4.398   4.519  0.4580 -0.1241  0.5958
 8781TIP3    H147834   1.355   4.317   4.497  1.6540  0.6119  0.3448
 8781TIP3    H247835   1.222   4.387   4.479  1.0747 -0.7065 -0.6455
 8782TIP3   OH247836   0.316   0.699  12.917  0.5188  0.0558 -0.0696
 8782TIP3    H147837   0.255   0.635  12.882  1.3657 -1.8302  1.6984
 8782TIP3    H247838   0.271   0.737  12.992  0.8126 -0.0176  0.1474
 8783TIP3   OH247839   6.658   0.640  16.750 -0.2528 -0.0726  0.5933
 8783TIP3    H147840   6.684   0.656  16.841  2.1137 -2.3725  0.4461
 8783TIP3    H247841   6.730   0.677  16.698 -0.7833 -0.2380 -0.2679
 8784TIP3   OH247842   2.807   2.243  16.115  0.0335 -0.0460 -0.3125
 8784TIP3    H147843   2.747   2.291  16.172  1.5293  1.3917  0.1325
 8784TIP3    H247844   2.836   2.169  16.168  0.3533  0.5079  0.3001
 8785TIP3   OH247845   0.836   5.663   4.184  0.3648  0.0939 -0.0664
 8785TIP3    H147846   0.890   5.585   4.196 -0.6299 -0.8684 -1.5094
 8785TIP3    H247847   0.898   5.735   4.179  1.4456 -0.8420 -0.5052
 8786TIP3   OH247848   3.544   2.751   0.681  0.2737  0.4471 -0.3148
 8786TIP3    H147849   3.548   2.675   0.738  0.8053  0.2664 -0.5876
 8786TIP3    H247850   3.608   2.812   0.718  2.6076 -0.7081 -2.1827
 8787TIP3   OH247851   0.495   5.625  15.706  0.2244  0.0074 -0.4272
 8787TIP3    H147852   0.425   5.596  15.647  0.0402 -0.6017  0.0759
 8787TIP3    H247853   0.537   5.544  15.734 -2.1586 -0.1882  3.3262
 8788TIP3   OH247854   0.989   3.633   2.789 -0.3809 -0.1107 -0.1905
 8788TIP3    H147855   0.962   3.546   2.760 -0.0266 -0.6711  1.0909
 8788TIP3    H247856   0.924   3.658   2.854 -1.1614  1.1234 -1.3949
 8789TIP3   OH247857   2.395   1.114   3.658  0.2805  0.4252  0.2074
 8789TIP3    H147858   2.401   1.031   3.610  1.6655  0.2303  0.6733
 8789TIP3    H247859   2.449   1.175   3.607  1.7612  0.2193  1.4552
 8790TIP3   OH247860   4.233   0.019  12.648  0.3178 -0.2587 -0.1840
 8790TIP3    H147861   4.307   0.043  12.704  1.0505  0.3618 -1.3722
 8790TIP3    H247862   4.273   0.001  12.563 -0.7820 -1.0923 -0.5360
 8791TIP3   OH247863   3.397   2.546   0.930  0.2647 -0.2235  0.1448
 8791TIP3    H147864   3.304   2.528   0.943  0.7921 -2.3149  1.5885
 8791TIP3    H247865   3.424   2.479   0.866  0.9671 -0.2603  0.4799
 8792TIP3   OH247866   2.385   4.678   2.946  0.2389  0.7702 -0.1693
 8792TIP3    H147867   2.461   4.689   2.889 -0.4054 -1.0346 -1.4945
 8792TIP3    H247868   2.313   4.717   2.896 -0.2552 -0.4401 -0.4429
 8793TIP3   OH247869   5.787   4.607  13.342 -0.7878  0.5287 -0.2313
 8793TIP3    H147870   5.836   4.530  13.312 -1.1742  1.0647 -2.4402
 8793TIP3    H247871   5.755   4.583  13.429  0.0710 -1.3448 -0.3813
 8794TIP3   OH247872   1.673   6.330   0.066 -0.1423 -0.3476 -0.0232
 8794TIP3    H147873   1.590   6.283   0.057 -0.8494  1.0791 -1.5562
 8794TIP3    H247874   1.669   6.371   0.152 -0.9935 -0.3585 -0.0507
 8795TIP3   OH247875   4.162   5.047   1.010  0.2163 -0.4529 -0.4811
 8795TIP3    H147876   4.179   4.954   1.028 -1.2504 -0.5877  0.3921
 8795TIP3    H247877   4.087   5.068   1.065  1.0108  1.4745 -0.0769
 8796TIP3   OH247878   2.765   2.307   0.824  0.0988 -1.1626  0.5159
 8796TIP3    H147879   2.774   2.328   0.917 -0.9226 -0.7312  0.5318
 8796TIP3    H247880   2.671   2.319   0.806  0.5580  0.6034 -1.0001
 8797TIP3   OH247881   3.997   1.838   2.913 -0.1931  0.1374 -0.1025
 8797TIP3    H147882   3.964   1.763   2.963 -1.5280  0.0925 -1.0046
 8797TIP3    H247883   4.076   1.865   2.960 -1.1291 -0.1899  1.7291
 8798TIP3   OH247884   3.585   3.318   1.163  0.6924  0.0100  0.0096
 8798TIP3    H147885   3.504   3.323   1.215  0.2120  0.4176 -0.7512
 8798TIP3    H247886   3.655   3.317   1.227  0.0401 -2.1079  0.7799
 8799TIP3   OH247887   6.387   1.026   2.547  0.5274  0.0636  0.0042
 8799TIP3    H147888   6.367   1.083   2.473  1.6456  0.9700  0.3612
 8799TIP3    H247889   6.458   0.970   2.516  1.0084  0.4540  0.3643
 8800TIP3   OH247890   0.618   6.466   0.257  0.0303 -0.8014  0.2074
 8800TIP3    H147891   0.556   6.537   0.237  0.3532 -1.0804 -2.1030
 8800TIP3    H247892   0.650   6.486   0.345 -0.2461  1.6851 -0.1732
 8801TIP3   OH247893   1.841   3.835   4.576  0.4231  0.3309  0.2960
 8801TIP3    H147894   1.864   3.755   4.623  0.7076  0.3095  0.1225
 8801TIP3    H247895   1.885   3.827   4.492 -0.2875  0.2562 -0.0707
 8802TIP3   OH247896   2.401   5.248  12.984 -0.4949 -0.5707 -0.9211
 8802TIP3    H147897   2.358   5.287  13.060  1.2852 -1.8028  0.8003
 8802TIP3    H247898   2.334   5.190  12.947 -1.2083 -0.4062  0.0511
 8803TIP3   OH247899   2.139   3.711  15.319 -0.3346  0.0175  0.1137
 8803TIP3    H147900   2.164   3.677  15.233 -0.4632 -0.0839  0.1169
 8803TIP3    H247901   2.153   3.638  15.379 -1.4285 -0.3121 -0.0071
 8804TIP3   OH247902   1.827   2.512  17.140  0.3477 -0.1187 -0.1225
 8804TIP3    H147903   1.899   2.570  17.115  0.6598 -0.2989  0.3425
 8804TIP3    H247904   1.776   2.562  17.203  1.0844 -0.6349  0.9097
 8805TIP3   OH247905   0.482   4.343  15.036  0.7053  0.4121 -0.8519
 8805TIP3    H147906   0.508   4.265  15.086 -0.1840  1.6242  1.6850
 8805TIP3    H247907   0.565   4.386  15.015  1.1853  1.5515  2.6185
 8806TIP3   OH247908   0.451   6.199   2.822 -0.5912 -0.4323 -0.4735
 8806TIP3    H147909   0.439   6.105   2.808 -0.5363 -0.2773 -1.6879
 8806TIP3    H247910   0.376   6.239   2.779 -2.7216 -0.0279  3.2338
 8807TIP3   OH247911   3.219   6.086   2.555 -0.1133  0.5929  0.3416
 8807TIP3    H147912   3.142   6.117   2.507  0.0923  1.9000  0.8108
 8807TIP3    H247913   3.202   6.110   2.646  0.5385  0.2473  0.5632
 8808TIP3   OH247914   3.501   4.407  13.403 -0.0582 -0.5080 -0.2164
 8808TIP3    H147915   3.467   4.326  13.441 -0.2567  0.0299  0.7810
 8808TIP3    H247916   3.464   4.476  13.457  1.0172  0.1897 -0.3491
 8809TIP3   OH247917   2.652   5.471   2.687 -0.2739  0.1167  0.0618
 8809TIP3    H147918   2.693   5.538   2.743  1.0248 -1.8492  1.5864
 8809TIP3    H247919   2.559   5.494   2.688  0.1143  1.8997  0.5201
 8810TIP3   OH247920   1.822   4.634   2.175 -0.3970  0.2444  0.1328
 8810TIP3    H147921   1.900   4.620   2.229 -0.1189  1.2397  0.0090
 8810TIP3    H247922   1.771   4.554   2.185  0.2056 -0.0481  0.9493
 8811TIP3   OH247923   2.027   1.131   4.511  0.3533  0.1923 -0.2054
 8811TIP3    H147924   1.989   1.147   4.598  0.0565 -0.0632 -0.2904
 8811TIP3    H247925   2.110   1.179   4.513 -0.2646  1.2982 -0.2524
 8812TIP3   OH247926   5.813   4.846  12.971  0.0705 -0.3503  0.0602
 8812TIP3    H147927   5.732   4.833  12.922 -0.1969 -2.8652  0.9703
 8812TIP3    H247928   5.835   4.758  13.003  3.3400  0.1834 -0.4040
 8813TIP3   OH247929   0.372   6.093   4.091 -0.1275 -0.3122  0.3096
 8813TIP3    H147930   0.393   6.125   4.178  0.6520 -0.6245  0.2470
 8813TIP3    H247931   0.365   5.998   4.102 -1.9245 -0.1945  0.4012
 8814TIP3   OH247932   0.201   4.004   3.597  0.2569 -0.0368  0.3672
 8814TIP3    H147933   0.201   4.099   3.612 -0.5611  0.1151 -0.4918
 8814TIP3    H247934   0.127   3.972   3.647 -1.6720  0.2955 -2.0924
 8815TIP3   OH247935   5.501   4.980  14.457 -0.2318  0.5062  0.5169
 8815TIP3    H147936   5.427   4.922  14.477 -0.8824  1.2370  0.2628
 8815TIP3    H247937   5.530   4.952  14.371 -1.4447  1.4544 -0.2258
 8816TIP3   OH247938   4.302   2.198  13.561 -0.2688 -0.3117 -0.7563
 8816TIP3    H147939   4.242   2.242  13.622 -0.6916 -1.1223 -0.5737
 8816TIP3    H247940   4.375   2.169  13.615 -0.8970 -1.5098 -0.5016
 8817TIP3   OH247941   4.130   6.221   3.882 -0.4176 -0.4075  0.0811
 8817TIP3    H147942   4.168   6.166   3.814 -0.5328 -2.1949  1.4064
 8817TIP3    H247943   4.087   6.160   3.942 -0.3927  1.1128  1.7270
 8818TIP3   OH247944   2.458   3.857   0.367 -0.1147 -0.1284  0.3072
 8818TIP3    H147945   2.553   3.871   0.363  0.4393 -3.2034 -3.6422
 8818TIP3    H247946   2.420   3.942   0.344  1.5116  1.3151  2.5043
 8819TIP3   OH247947   6.682   4.112   4.000 -0.2778 -0.1520 -0.2962
 8819TIP3    H147948   6.667   4.162   3.919  0.3191  0.0071 -0.3141
 8819TIP3    H247949   6.710   4.177   4.063 -0.3035 -0.3469 -0.0834
 8820TIP3   OH247950   5.058   1.759   3.891  0.0907 -0.1333  0.4102
 8820TIP3    H147951   5.109   1.814   3.950 -0.4417 -0.1242  0.8763
 8820TIP3    H247952   4.987   1.815   3.860  1.3742  0.4270 -1.7014
 8821TIP3   OH247953   4.263   1.860  15.861 -0.6244  0.0951  0.2214
 8821TIP3    H147954   4.213   1.867  15.780  0.9583 -2.6953 -1.1669
 8821TIP3    H247955   4.221   1.789  15.910  1.1930 -1.5658 -0.4845
 8822TIP3   OH247956   0.252   5.487   5.073  0.3069  0.2040 -0.3442
 8822TIP3    H147957   0.212   5.402   5.058 -0.2312  0.4440 -0.2756
 8822TIP3    H247958   0.303   5.475   5.154  2.6528 -0.8895 -1.8493
 8823TIP3   OH247959   3.374   5.294  10.963 -0.2080  0.4125 -0.3359
 8823TIP3    H147960   3.460   5.333  10.980 -0.9212  1.1207  1.9586
 8823TIP3    H247961   3.333   5.286  11.049 -2.4977  0.1937 -1.3538
 8824TIP3   OH247962   5.926   5.292  13.083  0.5241 -0.0358  0.2473
 8824TIP3    H147963   5.958   5.204  13.100  0.5646  0.0725  0.7654
 8824TIP3    H247964   5.842   5.279  13.038  1.4876 -0.3111 -1.5382
 8825TIP3   OH247965   3.378   0.542   2.030  0.6089 -0.4249  0.5716
 8825TIP3    H147966   3.375   0.619   1.973  1.2871 -0.8923 -0.1101
 8825TIP3    H247967   3.410   0.576   2.114  0.9146  0.0353  0.2714
 8826TIP3   OH247968   0.714   5.554   0.562  0.0468  0.2313 -0.1564
 8826TIP3    H147969   0.779   5.597   0.506  1.7319 -1.1239  0.6655
 8826TIP3    H247970   0.765   5.522   0.636 -1.5811 -0.8838  0.5194
 8827TIP3   OH247971   0.012   3.723  12.219 -1.0356 -0.4614 -0.0362
 8827TIP3    H147972   0.045   3.670  12.147 -0.5905  0.7304 -0.7311
 8827TIP3    H247973   0.046   3.680  12.298  1.1037 -0.0420 -0.6678
 8828TIP3   OH247974   0.695   1.647   2.662  0.2520 -0.0850  0.5860
 8828TIP3    H147975   0.615   1.599   2.643 -0.1837  0.7664  0.2217
 8828TIP3    H247976   0.754   1.582   2.698 -0.5393 -0.7634  0.6768
 8829TIP3   OH247977   3.925   6.121  10.416 -0.3806  0.4713  0.1549
 8829TIP3    H147978   3.991   6.073  10.365 -0.6774 -0.8325  0.9312
 8829TIP3    H247979   3.842   6.090  10.381 -0.6191  2.3122 -1.0015
 8830TIP3   OH247980   3.459   3.748   0.683  0.3173 -0.1094 -0.1391
 8830TIP3    H147981   3.522   3.690   0.638  1.1590  0.4265  0.3380
 8830TIP3    H247982   3.482   3.836   0.653 -0.1873  0.0974  0.0738
 8831TIP3   OH247983   3.219   5.849   1.496 -0.5282  0.6044 -0.4172
 8831TIP3    H147984   3.285   5.828   1.562 -0.1369  1.5774 -0.4836
 8831TIP3    H247985   3.269   5.881   1.421 -1.0290  0.4833 -0.8107
 8832TIP3   OH247986   5.436   4.762  16.883  0.2765 -0.5385 -0.5735
 8832TIP3    H147987   5.421   4.849  16.920  0.1675 -1.3709  1.4790
 8832TIP3    H247988   5.475   4.778  16.797  2.4266  1.5093  0.6985
 8833TIP3   OH247989   2.069   5.178   0.054  0.3415 -0.2194  0.3130
 8833TIP3    H147990   1.993   5.210   0.102 -0.3510 -0.8085 -0.3808
 8833TIP3    H247991   2.103   5.255   0.009  0.6167  0.2043  1.2107
 8834TIP3   OH247992   1.819   1.136  11.910  0.1109  0.4268 -0.2894
 8834TIP3    H147993   1.756   1.065  11.903  0.3618  0.2147 -0.4124
 8834TIP3    H247994   1.882   1.120  11.839 -0.1140  1.0535 -0.6427
 8835TIP3   OH247995   6.398   6.171   5.488 -0.3693 -0.0899 -0.3107
 8835TIP3    H147996   6.440   6.198   5.406 -1.4400  0.7580 -0.6114
 8835TIP3    H247997   6.367   6.082   5.471 -1.1254  0.3015 -1.0620
 8836TIP3   OH247998   0.115   2.287   2.390 -0.5012 -0.9073 -0.1878
 8836TIP3    H147999   0.024   2.263   2.370 -0.9110  0.8984 -0.7096
 8836TIP3    H248000   0.123   2.377   2.358  1.6389 -1.2058 -0.6194
 8837TIP3   OH248001   2.242   5.090  15.821  0.4937 -0.1706 -0.2090
 8837TIP3    H148002   2.202   5.177  15.821  2.4567  0.7986 -0.7714
 8837TIP3    H248003   2.273   5.078  15.731 -3.0078 -3.1334 -1.2481
 8838TIP3   OH248004   1.490   0.179   4.068  0.1581  0.3716  0.0405
 8838TIP3    H148005   1.436   0.174   4.147 -0.4207 -0.9365 -0.4156
 8838TIP3    H248006   1.427   0.187   3.996  0.2949 -3.5640 -0.7364
 8839TIP3   OH248007   4.826   0.798   0.547  0.2989 -0.5258 -0.4807
 8839TIP3    H148008   4.851   0.721   0.599 -1.7369 -0.6694  0.3886
 8839TIP3    H248009   4.782   0.761   0.470 -1.0714 -0.2454  0.1538
 8840TIP3   OH248010   1.948   5.048   4.265  0.6921  0.3012  0.5020
 8840TIP3    H148011   1.910   4.992   4.197  0.2766  2.6654 -1.3649
 8840TIP3    H248012   2.031   5.007   4.287  1.2469 -0.1448 -2.1214
 8841TIP3   OH248013   0.091   2.145  15.437 -0.3845 -0.3308 -0.2630
 8841TIP3    H148014   0.088   2.197  15.517  0.2278 -0.2027 -0.3252
 8841TIP3    H248015   0.120   2.206  15.370 -2.5518  0.0292 -0.9602
 8842TIP3   OH248016   0.706   6.470  16.522  0.5275  0.0772  0.0536
 8842TIP3    H148017   0.655   6.439  16.448  0.1458 -0.2418  0.4507
 8842TIP3    H248018   0.775   6.404  16.533 -0.8167 -1.1721  1.4754
 8843TIP3   OH248019   0.381   0.806  12.651  0.0989  0.3430 -0.3751
 8843TIP3    H148020   0.314   0.752  12.607 -0.3924  0.5454  0.1163
 8843TIP3    H248021   0.398   0.760  12.733  0.5573  0.3006 -0.4945
 8844TIP3   OH248022   5.298   6.050  14.993 -0.3314  0.2445  0.4832
 8844TIP3    H148023   5.275   6.143  14.996  0.3079  0.4093  2.8064
 8844TIP3    H248024   5.259   6.013  15.073 -0.1899 -1.3924 -0.1692
 8845TIP3   OH248025   3.615   1.179  12.041 -0.1636 -1.1360  0.0891
 8845TIP3    H148026   3.679   1.133  12.096  0.1035 -1.7467 -0.7070
 8845TIP3    H248027   3.667   1.219  11.972 -0.3284  0.9049  1.0816
 8846TIP3   OH248028   6.598   4.894   3.425  0.5822  0.2350  1.0808
 8846TIP3    H148029   6.570   4.901   3.333 -1.3255  3.4392  1.7831
 8846TIP3    H248030   6.575   4.804   3.449 -0.4295 -0.1617 -1.0865
 8847TIP3   OH248031   3.307   5.154  12.771  0.3626  0.1704  0.7453
 8847TIP3    H148032   3.300   5.063  12.741  0.1416  0.8421 -1.3640
 8847TIP3    H248033   3.362   5.197  12.706 -1.0138  1.9703  0.6948
 8848TIP3   OH248034   2.113   5.539  11.562 -0.1930 -0.2928 -0.0435
 8848TIP3    H148035   2.159   5.522  11.644 -1.2294  1.6370  0.9965
 8848TIP3    H248036   2.024   5.509  11.577 -0.0714 -1.1946 -0.9812
 8849TIP3   OH248037   5.668   0.170  16.819 -0.2075  0.3422  0.8183
 8849TIP3    H148038   5.695   0.141  16.906 -0.8001  0.3800  1.0198
 8849TIP3    H248039   5.670   0.266  16.824 -0.9648  0.3525  1.0281
 8850TIP3   OH248040   6.302   5.228  13.781  0.1655  0.2539  0.6011
 8850TIP3    H148041   6.302   5.182  13.697 -2.7356 -0.0744  0.6747
 8850TIP3    H248042   6.259   5.312  13.763  2.6891  1.7533  1.0978
 8851TIP3   OH248043   2.613   5.652  13.120 -0.2069  0.1532 -0.0216
 8851TIP3    H148044   2.578   5.620  13.036 -0.9670 -2.5084  1.2064
 8851TIP3    H248045   2.692   5.600  13.134  1.3967  2.4060 -0.2347
 8852TIP3   OH248046   6.827   0.238   6.748 -0.1636 -0.2428  0.3845
 8852TIP3    H148047   6.735   0.260   6.730 -0.0875 -0.9757 -1.0715
 8852TIP3    H248048   6.822   0.156   6.797 -0.3021  0.2063  1.1340
 8853TIP3   OH248049   3.399   6.760  13.642 -0.5197 -0.0758  0.1879
 8853TIP3    H148050   3.413   6.833  13.581 -0.2071 -1.4241 -1.4381
 8853TIP3    H248051   3.421   6.796  13.728 -3.2405  2.6194 -0.0627
 8854TIP3   OH248052   3.282   4.373  16.436 -0.3980  0.4996  0.0873
 8854TIP3    H148053   3.344   4.328  16.377 -1.3693  1.0634 -1.4192
 8854TIP3    H248054   3.208   4.313  16.443 -0.0185  0.1329  1.3430
 8855TIP3   OH248055   2.750   6.634   2.091 -0.1654 -0.0175  0.1538
 8855TIP3    H148056   2.664   6.638   2.049  0.4830 -0.1390 -1.2690
 8855TIP3    H248057   2.739   6.574   2.164 -1.1757 -0.4237 -0.3154
 8856TIP3   OH248058   5.752   6.692   6.429 -0.1800 -0.0687 -0.1045
 8856TIP3    H148059   5.829   6.635   6.423  0.6725  0.8550  1.4594
 8856TIP3    H248060   5.719   6.679   6.518  0.5592  2.4659  0.6213
 8857TIP3   OH248061   1.510   2.640   3.965 -0.3839 -0.0355  0.3382
 8857TIP3    H148062   1.547   2.728   3.963 -0.6269  0.0817  0.7679
 8857TIP3    H248063   1.571   2.589   4.018  0.8217 -0.6416 -1.5690
 8858TIP3   OH248064   5.738   0.784   4.272  0.3015 -0.1233 -0.1502
 8858TIP3    H148065   5.829   0.814   4.284  0.2994  0.1093 -0.6858
 8858TIP3    H248066   5.724   0.787   4.177  0.4427 -2.2543 -0.2913
 8859TIP3   OH248067   5.805   1.071  11.487 -0.2928  0.0928 -0.1050
 8859TIP3    H148068   5.885   1.097  11.443 -0.4352 -0.7114 -0.8685
 8859TIP3    H248069   5.734   1.106  11.433 -0.4605 -0.2548 -0.1143
 8860TIP3   OH248070   0.366   5.838   1.477 -0.0314 -0.3961 -0.5462
 8860TIP3    H148071   0.450   5.794   1.492  0.8178  1.4451  0.4092
 8860TIP3    H248072   0.337   5.806   1.391  1.7845 -0.8479 -1.0356
 8861TIP3   OH248073   0.064   3.417   2.780 -0.1419  0.0771  0.1027
 8861TIP3    H148074   0.039   3.389   2.868 -2.3901  1.7655  0.1116
 8861TIP3    H248075   0.151   3.455   2.791  0.1047 -0.7831  1.3581
 8862TIP3   OH248076   3.574   5.936  11.268  0.1466 -0.6695  0.1615
 8862TIP3    H148077   3.631   6.010  11.290  0.7819 -0.5689 -1.6615
 8862TIP3    H248078   3.569   5.885  11.349 -0.7990  1.6431  1.6759
 8863TIP3   OH248079   0.257   6.366   3.244 -0.8574  0.6390 -0.4051
 8863TIP3    H148080   0.289   6.288   3.199 -0.7633  0.7927 -0.6109
 8863TIP3    H248081   0.327   6.431   3.230 -0.1769  0.2835  1.1412
 8864TIP3   OH248082   3.687   5.087  13.027  0.0297 -0.6150  0.1697
 8864TIP3    H148083   3.613   5.028  13.043 -0.5906  0.6652  2.5442
 8864TIP3    H248084   3.677   5.113  12.935 -2.3647 -0.6608  0.3424
 8865TIP3   OH248085   2.761   3.242  12.993  0.2600  0.0146 -0.1156
 8865TIP3    H148086   2.811   3.324  12.995 -0.6056  0.6315 -1.5397
 8865TIP3    H248087   2.780   3.205  12.906  1.3161 -1.7707  0.8175
 8866TIP3   OH248088   2.249   5.044   5.692 -0.3534  0.5671 -0.2456
 8866TIP3    H148089   2.191   5.112   5.656  2.2318  2.2421 -1.6060
 8866TIP3    H248090   2.275   5.077   5.778 -0.5394  0.3807 -0.1176
 8867TIP3   OH248091   0.512   6.476  11.383  0.0878  0.2247 -0.4077
 8867TIP3    H148092   0.505   6.381  11.377 -1.5239  0.2565  0.3736
 8867TIP3    H248093   0.465   6.508  11.306 -0.9992  0.3824  0.2973
 8868TIP3   OH248094   3.044   1.235  12.905 -0.4992 -0.0019  0.0536
 8868TIP3    H148095   2.984   1.199  12.840 -0.5853 -0.2402  0.2606
 8868TIP3    H248096   3.001   1.315  12.936 -0.4220  0.1521 -0.2323
 8869TIP3   OH248097   1.102   1.118   5.265 -0.3887 -0.2602 -0.1734
 8869TIP3    H148098   1.089   1.046   5.326  1.6155 -0.5122  0.0035
 8869TIP3    H248099   1.068   1.195   5.312  0.3685 -0.5821  0.9391
 8870TIP3   OH248100   1.992   5.945   3.299  0.1765  0.0604  0.8050
 8870TIP3    H148101   2.071   5.972   3.252  0.4551 -2.0172 -0.0427
 8870TIP3    H248102   2.012   5.959   3.391  0.6499  1.6957  0.4786
 8871TIP3   OH248103   5.143   0.829   4.503 -0.1140  0.0204 -0.3559
 8871TIP3    H148104   5.171   0.738   4.510  1.1870  0.4360  0.0890
 8871TIP3    H248105   5.064   0.833   4.557 -0.5653 -0.9820 -0.9145
 8872TIP3   OH248106   4.470   1.167   3.235  0.0687 -0.1394 -0.1193
 8872TIP3    H148107   4.530   1.092   3.234 -1.5533 -1.5119 -0.1784
 8872TIP3    H248108   4.391   1.133   3.277 -1.0305  1.2913 -0.9423
 8873TIP3   OH248109   4.710   6.606  10.564  0.2044  0.3404  0.1521
 8873TIP3    H148110   4.712   6.634  10.473  0.4691  2.1550  0.6747
 8873TIP3    H248111   4.620   6.579  10.580  0.1626 -0.0123 -0.6327
 8874TIP3   OH248112   5.854   4.937   5.128 -0.3253 -0.3601 -0.5401
 8874TIP3    H148113   5.787   5.005   5.123 -0.7317 -0.8206 -1.6304
 8874TIP3    H248114   5.930   4.975   5.085  0.1491  0.1688  0.7127
 8875TIP3   OH248115   6.100   3.969   1.790  0.3811  0.6848 -0.0661
 8875TIP3    H148116   6.142   3.912   1.726 -0.2239  0.7564 -0.5379
 8875TIP3    H248117   6.022   3.921   1.818  0.6188  0.6701  0.5972
 8876TIP3   OH248118   5.675   3.388  13.736 -0.6497  0.0072 -0.0146
 8876TIP3    H148119   5.690   3.367  13.644 -0.6451  1.6325 -0.4130
 8876TIP3    H248120   5.682   3.304  13.782  3.7337 -0.3319 -0.8806
 8877TIP3   OH248121   1.846   1.433  14.816 -0.9727  0.8001 -0.5272
 8877TIP3    H148122   1.844   1.342  14.788  1.5473  0.8639 -1.1508
 8877TIP3    H248123   1.879   1.481  14.739 -0.7220  2.0072  0.2996
 8878TIP3   OH248124   0.002   1.128   1.309 -0.1919  0.3904  0.1715
 8878TIP3    H148125  -0.028   1.209   1.267 -1.3076  0.4775  1.0982
 8878TIP3    H248126  -0.000   1.147   1.403 -0.5759 -0.7505  0.4099
 8879TIP3   OH248127   5.867   1.482  14.458 -0.1765  0.1971  0.5050
 8879TIP3    H148128   5.962   1.476  14.445 -0.2597  0.7325 -0.3954
 8879TIP3    H248129   5.849   1.576  14.463 -0.9680  0.2400 -1.9401
 8880TIP3   OH248130   3.551   5.091   1.775 -0.3461  0.1423 -0.5087
 8880TIP3    H148131   3.586   5.142   1.849  0.9710 -0.0533 -0.9640
 8880TIP3    H248132   3.502   5.154   1.723  0.0397  0.6351 -0.2849
 8881TIP3   OH248133   0.264   3.566  10.890  0.3358  0.0092  0.3686
 8881TIP3    H148134   0.243   3.508  10.817  0.1304  0.0971  0.3587
 8881TIP3    H248135   0.299   3.645  10.849  3.1575 -1.0835  0.4251
 8882TIP3   OH248136   5.771   4.661   3.961  0.4576  0.5948  0.6013
 8882TIP3    H148137   5.833   4.729   3.987 -0.1025  0.7860  1.4840
 8882TIP3    H248138   5.703   4.664   4.028 -0.9016  0.8782 -0.7513
 8883TIP3   OH248139   2.001   0.920  13.454 -0.2043  0.2184 -0.1405
 8883TIP3    H148140   1.909   0.947  13.454 -1.1943 -2.7232  1.2707
 8883TIP3    H248141   2.003   0.843  13.511  3.1759  0.2144 -0.0850
 8884TIP3   OH248142   2.163   3.808   3.680 -0.3457  0.8895 -0.0435
 8884TIP3    H148143   2.255   3.826   3.660  0.5354 -1.0328  1.9145
 8884TIP3    H248144   2.128   3.772   3.599  1.3892 -0.8263 -0.1124
 8885TIP3   OH248145   3.816   0.826  14.959  0.2939 -0.2861  0.0042
 8885TIP3    H148146   3.760   0.827  14.881 -2.9233 -1.1911  2.1475
 8885TIP3    H248147   3.833   0.734  14.975  0.7259 -0.1178  0.5250
 8886TIP3   OH248148   0.460   2.360   2.200  0.0776  0.5186  0.0847
 8886TIP3    H148149   0.422   2.281   2.238  2.7454 -1.0609 -0.2875
 8886TIP3    H248150   0.466   2.342   2.106 -0.5027  1.7379 -0.2062
 8887TIP3   OH248151   3.964   5.674  10.890  0.7639 -0.1473 -0.7106
 8887TIP3    H148152   3.969   5.635  10.977 -0.9843  1.5605  0.2555
 8887TIP3    H248153   4.055   5.684  10.862  1.3719 -0.4656  1.0341
 8888TIP3   OH248154   1.960   0.423   5.429  0.3767 -0.0008  0.4356
 8888TIP3    H148155   1.935   0.502   5.380  1.4086 -0.1997 -0.4338
 8888TIP3    H248156   1.925   0.438   5.516 -0.8580  0.6999 -0.1499
 8889TIP3   OH248157   3.376   3.201  15.462  0.5170 -0.4206  0.3639
 8889TIP3    H148158   3.299   3.187  15.516 -0.4070  1.0953 -0.5233
 8889TIP3    H248159   3.365   3.141  15.388 -0.6396  0.8983 -0.5730
 8890TIP3   OH248160   1.196   2.009   0.716 -0.3153  0.0157 -0.4257
 8890TIP3    H148161   1.186   2.100   0.745  2.6211  0.5677 -0.7580
 8890TIP3    H248162   1.179   1.957   0.794  1.1629  1.0959  0.6658
 8891TIP3   OH248163   5.307   3.057  17.065  0.3175  0.1442 -0.2287
 8891TIP3    H148164   5.369   3.106  17.011 -0.3040  0.6490 -0.5033
 8891TIP3    H248165   5.342   2.968  17.068  1.8935  0.7689  0.9444
 8892TIP3   OH248166   4.115   5.533   1.119  0.5707  0.0217  0.8047
 8892TIP3    H148167   4.063   5.476   1.176 -1.5719  0.0968 -0.8942
 8892TIP3    H248168   4.145   5.475   1.049  1.5490  0.2913  0.9839
 8893TIP3   OH248169   6.345   1.579   3.006  1.1232 -0.3015  0.0072
 8893TIP3    H148170   6.415   1.544   3.060  0.8127 -0.2820  0.4214
 8893TIP3    H248171   6.273   1.597   3.067  1.7533  2.4270  0.0947
 8894TIP3   OH248172   0.398   4.567  13.630  0.0475  0.5131 -0.6250
 8894TIP3    H148173   0.469   4.595  13.688  0.0563  2.1730 -1.3997
 8894TIP3    H248174   0.382   4.642  13.572 -0.4398 -0.8317 -2.3144
 8895TIP3   OH248175   4.453   4.669  14.566  0.5710  0.2963 -0.4901
 8895TIP3    H148176   4.436   4.620  14.486  1.6123  0.6610 -0.9620
 8895TIP3    H248177   4.373   4.718  14.583  0.2487  0.0013 -1.1586
 8896TIP3   OH248178   1.216   3.490   5.776 -0.4413 -0.5812  0.0904
 8896TIP3    H148179   1.264   3.534   5.846 -1.0350  2.4466 -1.2864
 8896TIP3    H248180   1.283   3.439   5.730  1.2685  2.2571 -0.7958
 8897TIP3   OH248181   6.769   1.296  13.577  0.5511 -0.0599 -0.2472
 8897TIP3    H148182   6.781   1.343  13.659  0.6903  0.5519 -0.6075
 8897TIP3    H248183   6.684   1.327  13.544 -1.1178 -2.7205  1.2187
 8898TIP3   OH248184   6.399   5.642  11.962 -0.7229  0.3302  0.0011
 8898TIP3    H148185   6.325   5.599  11.920 -2.2633  2.4753  0.3924
 8898TIP3    H248186   6.364   5.725  11.996  1.8750  1.5013  0.0763
 8899TIP3   OH248187   6.090   1.714  11.650 -0.1291  0.1239  0.0444
 8899TIP3    H148188   6.152   1.641  11.652 -1.8854 -1.4259  1.3957
 8899TIP3    H248189   6.115   1.769  11.725 -0.7690 -0.8982  1.0491
 8900TIP3   OH248190   0.494   1.438   2.138  0.3844  0.3803 -0.2640
 8900TIP3    H148191   0.574   1.415   2.186 -0.2248  1.0770  1.1480
 8900TIP3    H248192   0.501   1.389   2.056  0.7807 -2.0711  1.1343
 8901TIP3   OH248193   6.585   4.565   0.388 -0.3412 -0.1382  0.0026
 8901TIP3    H148194   6.538   4.489   0.423 -0.8731 -0.3183 -1.0632
 8901TIP3    H248195   6.630   4.532   0.310  0.8687  0.2429  0.5151
 8902TIP3   OH248196   5.596   2.408   1.352  0.3203 -0.1050  0.1542
 8902TIP3    H148197   5.625   2.438   1.438 -0.6438  1.0403  0.1082
 8902TIP3    H248198   5.502   2.394   1.362  0.4592 -1.5761 -0.2932
 8903TIP3   OH248199   0.187   4.715  12.676 -0.2743  0.3857  0.2167
 8903TIP3    H148200   0.122   4.715  12.606 -1.0357 -2.2450  0.8011
 8903TIP3    H248201   0.231   4.630  12.668  0.9937  0.8504  1.7179
 8904TIP3   OH248202   0.451   3.946   3.588 -0.1243  0.2118 -0.4493
 8904TIP3    H148203   0.481   3.855   3.587  1.5452  0.5830  2.7614
 8904TIP3    H248204   0.358   3.940   3.608  0.0213 -0.8109  0.0023
 8905TIP3   OH248205   2.047   5.396  14.651  0.2245 -0.3619  0.2481
 8905TIP3    H148206   2.126   5.390  14.705  0.1349  0.9912  0.5593
 8905TIP3    H248207   1.989   5.328  14.686  0.4764 -0.0326  1.3603
 8906TIP3   OH248208   0.706   2.838   4.819 -0.1958 -0.0881  0.0002
 8906TIP3    H148209   0.693   2.765   4.879 -2.3692  1.0286  1.0116
 8906TIP3    H248210   0.683   2.803   4.733  2.2559 -1.5089 -0.1621
 8907TIP3   OH248211   2.654   1.013   0.101 -0.0498  0.2688  0.4072
 8907TIP3    H148212   2.728   1.003   0.040 -1.3228  1.1293 -1.3691
 8907TIP3    H248213   2.691   1.058   0.176  1.8657 -1.9171  0.8994
 8908TIP3   OH248214   6.699   3.988   6.492  0.0008  0.2664  0.3489
 8908TIP3    H148215   6.702   3.984   6.588 -0.7917 -0.1619  0.3637
 8908TIP3    H248216   6.745   3.909   6.463  1.2828  0.9849  0.3433
 8909TIP3   OH248217   3.510   5.685   6.165  0.8780  0.3339  0.1331
 8909TIP3    H148218   3.550   5.769   6.140  2.2625 -0.1235  0.6919
 8909TIP3    H248219   3.481   5.699   6.255 -0.0875  0.6052 -0.2095
 8910TIP3   OH248220   1.259   6.674   0.048 -0.2857  0.1773  0.4709
 8910TIP3    H148221   1.220   6.647  -0.035  3.1887 -1.0354 -0.9441
 8910TIP3    H248222   1.268   6.593   0.097 -1.4921  0.7687  1.7395
 8911TIP3   OH248223   4.648   1.648  12.808  0.7077 -0.0426 -0.8922
 8911TIP3    H148224   4.676   1.638  12.716  0.8366  0.6467 -0.9364
 8911TIP3    H248225   4.567   1.699  12.803  0.0753 -1.0005 -0.6843
 8912TIP3   OH248226   5.024   2.544  16.630  0.1599  0.5791 -0.3645
 8912TIP3    H148227   4.955   2.479  16.613  1.7166 -0.8469 -1.5813
 8912TIP3    H248228   5.002   2.581  16.716 -2.4070  0.6097 -0.9701
 8913TIP3   OH248229   2.464   6.475  15.757  0.3644 -0.4832 -0.3192
 8913TIP3    H148230   2.529   6.496  15.690  2.3110 -0.2880  1.5289
 8913TIP3    H248231   2.447   6.381  15.744  1.2623 -0.6169 -0.6271
 8914TIP3   OH248232   0.618   2.447  15.631 -0.2562  0.3737 -0.0723
 8914TIP3    H148233   0.684   2.384  15.661  0.6359  0.7781 -1.1284
 8914TIP3    H248234   0.667   2.527  15.613 -1.0542  0.7223 -0.7602
 8915TIP3   OH248235   2.138   5.039  14.624  0.0610  0.4896 -0.8537
 8915TIP3    H148236   2.221   5.085  14.637  0.0789  0.3552 -0.4831
 8915TIP3    H248237   2.163   4.954  14.589  0.0140  0.8430 -1.7721
 8916TIP3   OH248238   2.627   3.334  14.057  0.3771  0.0217  0.4103
 8916TIP3    H148239   2.562   3.328  13.987  0.1018 -1.6062  0.7595
 8916TIP3    H248240   2.586   3.392  14.122 -0.4889 -0.4876  0.3470
 8917TIP3   OH248241   2.767   3.777   4.341  0.0466 -0.2785 -0.1632
 8917TIP3    H148242   2.855   3.794   4.307 -0.3386 -3.3958 -3.3283
 8917TIP3    H248243   2.719   3.858   4.325  2.0017  1.1296  0.6556
 8918TIP3   OH248244   2.042   1.446   6.356 -0.0327 -0.6045  0.3870
 8918TIP3    H148245   2.125   1.432   6.310  0.2502 -0.2127  0.7567
 8918TIP3    H248246   2.008   1.358   6.372 -0.5208 -0.7375 -1.2257
 8919TIP3   OH248247   3.605   1.241  12.745  0.0607  0.0249 -0.0384
 8919TIP3    H148248   3.691   1.199  12.742  0.9610  1.7307  0.7402
 8919TIP3    H248249   3.544   1.169  12.761  1.0978 -1.4800 -2.2843
 8920TIP3   OH248250   0.983   6.670  12.742 -0.5681 -0.3451  0.3662
 8920TIP3    H148251   1.068   6.679  12.699 -0.7022  0.1391  0.2005
 8920TIP3    H248252   0.959   6.760  12.767 -1.4751 -0.3595 -0.4357
 8921TIP3   OH248253   2.227   0.831   2.400  0.5810  1.0596  0.4477
 8921TIP3    H148254   2.150   0.887   2.411 -0.0319  0.1238  1.1526
 8921TIP3    H248255   2.209   0.783   2.319  0.8716  1.5083  0.1119
 8922TIP3   OH248256   2.994   2.424   5.689  0.2117  0.2941  0.3097
 8922TIP3    H148257   2.933   2.399   5.759 -1.9473  1.5328 -1.0125
 8922TIP3    H248258   3.068   2.464   5.735 -0.7012  0.2097  1.9401
 8923TIP3   OH248259   5.088   5.834   3.744 -0.0874 -0.3100 -0.3671
 8923TIP3    H148260   5.155   5.899   3.721  0.3821 -1.5869 -2.8509
 8923TIP3    H248261   5.055   5.865   3.829  1.9045  1.7218 -0.2055
 8924TIP3   OH248262   4.972   0.697   2.290 -0.4294 -0.7707 -0.4415
 8924TIP3    H148263   4.978   0.676   2.383 -0.0031  0.0079 -0.2856
 8924TIP3    H248264   4.896   0.648   2.259 -2.0453  0.7969  0.8329
 8925TIP3   OH248265   1.626   1.203  12.232 -0.7395  0.2618 -0.9585
 8925TIP3    H148266   1.632   1.123  12.179  2.8223  0.3387 -0.9505
 8925TIP3    H248267   1.603   1.172  12.320 -2.2951 -0.3539 -1.5406
 8926TIP3   OH248268   4.784   0.058   1.725  0.0109  0.4759 -0.0905
 8926TIP3    H148269   4.786   0.152   1.706 -1.0885  0.8540  1.4654
 8926TIP3    H248270   4.720   0.050   1.796  1.3158 -1.2437  0.9491
 8927TIP3   OH248271   6.629   3.654   5.685 -0.1596  0.0909 -0.5181
 8927TIP3    H148272   6.613   3.595   5.759  1.7124  1.3736  1.0084
 8927TIP3    H248273   6.713   3.625   5.648  0.1797  1.0239 -0.5167
 8928TIP3   OH248274   2.793   1.211   0.229  0.5363 -0.0513 -0.2067
 8928TIP3    H148275   2.850   1.268   0.281  1.3532 -1.4283  0.4384
 8928TIP3    H248276   2.715   1.265   0.214  1.1672  1.1540  0.5977
 8929TIP3   OH248277   5.242   2.590   4.743 -0.3114 -0.8100 -0.3648
 8929TIP3    H148278   5.154   2.623   4.724 -0.2845 -0.3656  0.2700
 8929TIP3    H248279   5.254   2.518   4.681 -1.2676 -1.1161 -0.2151
 8930TIP3   OH248280   5.666   5.003  14.687  0.6479  0.0332 -0.6901
 8930TIP3    H148281   5.694   5.024  14.598 -0.1835  0.8049 -0.7826
 8930TIP3    H248282   5.571   4.992  14.680  0.7241 -1.1587 -0.1289
 8931TIP3   OH248283   0.024   1.862  13.043  0.1218 -0.1515 -0.1395
 8931TIP3    H148284   0.087   1.794  13.065 -0.0064  0.1606  1.2984
 8931TIP3    H248285   0.064   1.943  13.075 -0.8010  0.1044  0.4076
 8932TIP3   OH248286   5.647   3.961   5.744 -0.7962 -0.0138  0.1934
 8932TIP3    H148287   5.565   3.914   5.726 -1.1873  0.1170  1.5009
 8932TIP3    H248288   5.685   3.915   5.819  0.0375  0.2839 -0.0403
 8933TIP3   OH248289   0.085   2.771  12.984  0.3358  0.1908  0.4403
 8933TIP3    H148290   0.142   2.699  13.011 -0.1108 -0.3190  0.0332
 8933TIP3    H248291   0.026   2.784  13.059 -1.3263 -1.6555 -0.4736
 8934TIP3   OH248292   1.803   5.273   2.053 -1.1466  0.0003 -0.2203
 8934TIP3    H148293   1.761   5.359   2.049 -0.0919  0.5544  0.0947
 8934TIP3    H248294   1.896   5.292   2.067 -0.8709 -1.1932 -0.2584
 8935TIP3   OH248295   1.279   3.607  11.830 -0.2970  0.0188 -0.1662
 8935TIP3    H148296   1.208   3.619  11.893 -1.3722 -0.2507 -1.2949
 8935TIP3    H248297   1.284   3.690  11.783 -0.8001 -0.4176 -1.0093
 8936TIP3   OH248298   4.258   5.682  10.837  0.4971 -0.0047 -0.1860
 8936TIP3    H148299   4.265   5.699  10.743  1.0615 -0.2786 -0.2045
 8936TIP3    H248300   4.321   5.611  10.852  3.0881  2.3466  0.9836
 8937TIP3   OH248301   6.706   4.418  12.379  0.8017  0.1675  0.1561
 8937TIP3    H148302   6.770   4.352  12.353 -0.6346 -1.5389  0.7561
 8937TIP3    H248303   6.631   4.368  12.412 -1.1792  2.0524 -1.1877
 8938TIP3   OH248304   2.212   1.499   0.927 -0.1630 -0.3891 -0.1322
 8938TIP3    H148305   2.299   1.515   0.891  0.2628 -1.6255  0.3228
 8938TIP3    H248306   2.219   1.416   0.974 -1.0804  0.4284  1.5613
 8939TIP3   OH248307   1.393   0.159   6.240 -0.2230 -0.3115 -0.2568
 8939TIP3    H148308   1.442   0.217   6.182 -0.1734 -0.3415 -0.2454
 8939TIP3    H248309   1.359   0.091   6.182 -0.0491 -0.4236 -0.2296
 8940TIP3   OH248310   6.245   6.092  13.006  0.2788 -0.3576 -0.7592
 8940TIP3    H148311   6.299   6.096  13.085  0.0990 -4.3662 -0.2256
 8940TIP3    H248312   6.271   6.169  12.956  1.4023  1.6313  2.5314
 8941TIP3   OH248313   6.480   2.533  10.711  0.0786 -0.0059 -0.2646
 8941TIP3    H148314   6.397   2.493  10.736  0.8486 -1.6843 -0.2972
 8941TIP3    H248315   6.461   2.580  10.630 -1.3771  1.6827  0.9670
 8942TIP3   OH248316   5.379   1.050   2.576 -0.1318  0.0057 -0.0224
 8942TIP3    H148317   5.289   1.018   2.578  0.0005 -0.3251  0.6868
 8942TIP3    H248318   5.403   1.062   2.668  0.5886 -0.0159 -0.2009
 8943TIP3   OH248319   3.122   6.823  11.151 -0.2199  0.1252  0.1666
 8943TIP3    H148320   3.193   6.768  11.119  0.4399  0.1223  1.5673
 8943TIP3    H248321   3.089   6.867  11.073  1.4442  0.2765 -0.4935
 8944TIP3   OH248322   5.416   2.487   2.204  0.1440 -0.4041 -0.2314
 8944TIP3    H148323   5.504   2.449   2.209  0.6685  0.7980  0.2063
 8944TIP3    H248324   5.401   2.500   2.110 -0.3260 -2.2364 -0.4494
 8945TIP3   OH248325   0.075   4.814   4.467  0.5164 -0.0418 -0.6763
 8945TIP3    H148326   0.128   4.877   4.419  0.2946  0.2973 -0.4750
 8945TIP3    H248327  -0.016   4.839   4.449  0.4302 -0.0702 -0.2882
 8946TIP3   OH248328   2.959   5.120  12.390 -0.2143  0.1586 -0.4507
 8946TIP3    H148329   3.009   5.162  12.319  0.2585  0.1095 -0.1532
 8946TIP3    H248330   3.019   5.053  12.424 -0.9693 -0.8049 -0.9542
 8947TIP3   OH248331   2.443   0.862   1.820  0.1733 -0.2454  0.2895
 8947TIP3    H148332   2.475   0.854   1.910 -0.0562 -0.5806  0.3428
 8947TIP3    H248333   2.369   0.801   1.815 -0.3448  0.3892  0.1141
 8948TIP3   OH248334   5.546   5.751  14.016  0.0645  0.1234  0.1090
 8948TIP3    H148335   5.574   5.721  14.103  0.8764 -2.0900 -0.8521
 8948TIP3    H248336   5.623   5.794  13.979  0.4161 -0.8881 -0.3461
 8949TIP3   OH248337   2.245   4.617   1.820 -0.0203 -0.0426 -0.3656
 8949TIP3    H148338   2.152   4.633   1.840 -0.2356 -1.3785 -0.2345
 8949TIP3    H248339   2.292   4.662   1.890 -0.6005 -0.0479  0.0391
 8950TIP3   OH248340   4.314   4.389  15.794 -0.6578 -0.0253  0.1098
 8950TIP3    H148341   4.287   4.359  15.880 -0.5802 -1.7303 -0.4307
 8950TIP3    H248342   4.405   4.361  15.786 -1.1768 -1.4636 -1.1805
 8951TIP3   OH248343   5.662   1.735   4.750  0.2623  0.4639 -0.5670
 8951TIP3    H148344   5.735   1.741   4.688  0.3353 -1.5261 -0.7592
 8951TIP3    H248345   5.595   1.687   4.702  0.0933 -0.6010  0.6773
 8952TIP3   OH248346   5.980   6.772  11.369 -0.4636 -0.3022 -0.0685
 8952TIP3    H148347   5.901   6.722  11.391 -0.0388 -1.2009 -0.5650
 8952TIP3    H248348   6.050   6.707  11.369  0.1776  0.3813 -0.2702
 8953TIP3   OH248349   4.633   2.613  11.951  0.0813  0.2576  0.1917
 8953TIP3    H148350   4.632   2.524  11.917  2.5612  0.2181  0.0755
 8953TIP3    H248351   4.722   2.626  11.984 -0.5393  2.3118  1.2633
 8954TIP3   OH248352   6.351   6.284  12.847 -0.4276 -0.5173 -0.4619
 8954TIP3    H148353   6.440   6.308  12.823  0.0312 -2.8299 -1.3805
 8954TIP3    H248354   6.307   6.271  12.763 -1.8947  1.3340 -0.0346
 8955TIP3   OH248355   5.235   1.997   0.103  0.2610 -0.1744 -0.4132
 8955TIP3    H148356   5.269   1.944   0.175  0.9602  0.9188  0.0970
 8955TIP3    H248357   5.215   2.082   0.143  0.0813  0.2576 -1.3838
 8956TIP3   OH248358   2.802   6.572   3.245 -0.3532  0.4739  0.2972
 8956TIP3    H148359   2.774   6.626   3.319 -0.8144 -0.7229  1.0467
 8956TIP3    H248360   2.832   6.491   3.285  1.0659  0.4542 -0.7410
 8957TIP3   OH248361   5.804   0.186  12.900  0.1165  0.2373 -0.5262
 8957TIP3    H148362   5.873   0.248  12.877  0.2783 -0.0810 -0.9100
 8957TIP3    H248363   5.850   0.103  12.915 -0.1037  0.1911 -0.0671
 8958TIP3   OH248364   6.679   4.963  17.055 -0.1890  0.3037 -0.7417
 8958TIP3    H148365   6.609   5.023  17.081 -0.1661 -0.0346  0.1441
 8958TIP3    H248366   6.731   5.013  16.992 -1.0857  0.6412 -1.2315
 8959TIP3   OH248367   1.140   3.729   4.842  0.4496 -0.1708 -0.1319
 8959TIP3    H148368   1.231   3.750   4.820  0.1156 -0.4418 -1.9537
 8959TIP3    H248369   1.146   3.646   4.889  0.9991 -2.9407 -4.4417
 8960TIP3   OH248370   2.095   0.763   5.877 -0.2043  0.1979  0.5103
 8960TIP3    H148371   2.158   0.691   5.870  1.8403  1.8168  1.2204
 8960TIP3    H248372   2.065   0.778   5.787  1.0506 -0.1035  0.0275
 8961TIP3   OH248373   4.502   2.212  12.342 -0.1079 -0.1291  0.4675
 8961TIP3    H148374   4.449   2.166  12.277 -0.7078 -0.8886  1.4640
 8961TIP3    H248375   4.554   2.143  12.383  0.4814  0.3855  0.6008
 8962TIP3   OH248376   5.900   0.936   3.157 -0.2480  0.7863 -0.2723
 8962TIP3    H148377   5.976   0.940   3.099  1.1201  0.5329  1.4154
 8962TIP3    H248378   5.890   1.025   3.189  1.1922  0.3144  1.6935
 8963TIP3   OH248379   0.827   6.297   6.082  0.4472 -0.1267  0.0523
 8963TIP3    H148380   0.844   6.205   6.065  1.6224 -0.0495  0.6812
 8963TIP3    H248381   0.819   6.337   5.996  0.8675 -0.6668 -0.2426
 8964TIP3   OH248382   4.121   5.557   2.072 -0.1245  0.1429 -0.1837
 8964TIP3    H148383   4.044   5.535   2.019 -0.5141 -0.6149  0.6651
 8964TIP3    H248384   4.088   5.560   2.162  0.7285  0.4075  0.1314
 8965TIP3   OH248385   1.744   1.404  14.389 -0.2376  0.2966 -0.4924
 8965TIP3    H148386   1.756   1.311  14.373 -0.2403  0.1577  0.3168
 8965TIP3    H248387   1.740   1.443  14.301  3.2268  0.0002 -0.9439
 8966TIP3   OH248388   5.933   1.824   3.119  0.7500  0.4916  0.5061
 8966TIP3    H148389   5.974   1.827   3.032  1.7391 -1.7055  0.8539
 8966TIP3    H248390   5.980   1.890   3.170 -0.0695  2.0618 -0.6473
 8967TIP3   OH248391   1.934   3.309   5.067  0.1328  0.4572 -0.2663
 8967TIP3    H148392   1.998   3.371   5.033  1.5363 -0.2852  0.9330
 8967TIP3    H248393   1.859   3.318   5.009  1.5723  0.8518 -2.1452
 8968TIP3   OH248394   4.572   4.319  16.025 -0.2120 -0.5747 -0.3948
 8968TIP3    H148395   4.585   4.344  15.933  0.6901 -1.0988 -0.4243
 8968TIP3    H248396   4.607   4.230  16.030 -0.4058 -0.6083  0.4247
 8969TIP3   OH248397   2.882   1.022  13.111 -0.0055 -0.1617  0.8157
 8969TIP3    H148398   2.920   1.055  13.030  1.5690 -0.3908  1.4201
 8969TIP3    H248399   2.835   1.097  13.148  0.9477  0.5148  0.6756
 8970TIP3   OH248400   4.606   2.148  15.985  0.3604 -0.7628  0.8360
 8970TIP3    H148401   4.676   2.209  16.010 -0.4055  1.5088 -2.0012
 8970TIP3    H248402   4.633   2.065  16.023  3.9690  0.2762  0.9532
 8971TIP3   OH248403   3.271   4.082   1.900  0.3232 -0.1313  0.0427
 8971TIP3    H148404   3.309   4.001   1.932 -0.9108 -0.5275  0.5561
 8971TIP3    H248405   3.219   4.056   1.824 -0.9108  0.0046  0.8235
 8972TIP3   OH248406   2.404   2.590  15.389 -0.5155  0.0489  0.3119
 8972TIP3    H148407   2.332   2.652  15.397 -1.0625 -0.7564  2.6538
 8972TIP3    H248408   2.473   2.626  15.446  0.1573 -0.1972 -0.3340
 8973TIP3   OH248409   1.213   0.358  13.641  0.4725  0.2975  0.2283
 8973TIP3    H148410   1.204   0.275  13.687  1.4180  0.1181  0.1048
 8973TIP3    H248411   1.140   0.359  13.579  1.1659 -1.0358 -0.6657
 8974TIP3   OH248412   3.089   6.774  16.538 -0.1729  0.2296  0.5614
 8974TIP3    H148413   3.040   6.694  16.520 -0.5936 -0.0484  2.6596
 8974TIP3    H248414   3.031   6.844  16.510 -0.2562 -0.1636 -0.2821
 8975TIP3   OH248415   4.255   5.683  14.153 -0.1687 -0.2402 -0.6049
 8975TIP3    H148416   4.309   5.610  14.123  0.2279  0.4489 -1.5834
 8975TIP3    H248417   4.166   5.646  14.157  0.4444 -1.6879  2.0570
 8976TIP3   OH248418   1.806   2.583  11.990  0.4996 -0.4983  0.1395
 8976TIP3    H148419   1.810   2.546  11.901  2.7970 -0.8573  0.3207
 8976TIP3    H248420   1.851   2.667  11.982  0.4401 -0.3935  0.8931
 8977TIP3   OH248421   3.073   0.089  17.069 -0.9709 -0.2887  0.0075
 8977TIP3    H148422   3.061   0.136  16.986 -2.2472  3.8461  2.2855
 8977TIP3    H248423   3.162   0.108  17.096 -0.4539 -1.8813 -0.4231
 8978TIP3   OH248424   2.069   1.851  12.906  0.1218  0.3094 -0.6868
 8978TIP3    H148425   2.044   1.885  12.992 -3.2998  1.1131 -1.8363
 8978TIP3    H248426   2.031   1.763  12.902 -0.3935  0.5560 -1.5938
 8979TIP3   OH248427   4.494   4.152   0.295 -0.2835  0.2217 -0.4510
 8979TIP3    H148428   4.479   4.086   0.228 -1.3564  2.2827 -2.3480
 8979TIP3    H248429   4.427   4.134   0.362 -0.2279 -0.8918 -0.6874
 8980TIP3   OH248430   2.732   2.085   3.280 -0.0895  0.2936  0.3854
 8980TIP3    H148431   2.701   2.170   3.313 -1.6049 -0.8956  2.2695
 8980TIP3    H248432   2.819   2.075   3.318 -0.2104  0.6898  0.7817
 8981TIP3   OH248433   2.688   5.335   4.206  0.3756 -0.1123  0.1195
 8981TIP3    H148434   2.680   5.278   4.283  1.1828  0.3989  0.6047
 8981TIP3    H248435   2.648   5.286   4.135  1.6019 -1.5549  0.3855
 8982TIP3   OH248436   3.815   1.449  11.473 -0.5188 -0.5798  0.1547
 8982TIP3    H148437   3.841   1.394  11.399  0.5734  0.6240 -0.3993
 8982TIP3    H248438   3.872   1.421  11.545  0.0739 -0.1825 -0.1422
 8983TIP3   OH248439   6.209   6.235   2.147 -0.7012 -0.1615 -0.1975
 8983TIP3    H148440   6.285   6.178   2.162  1.0433  2.0090 -0.2834
 8983TIP3    H248441   6.133   6.178   2.162  0.8860 -1.7602  2.5904
 8984TIP3   OH248442   4.779   6.577   4.151 -0.0564  0.3433  0.7912
 8984TIP3    H148443   4.705   6.550   4.206  0.3032 -0.1820  1.0178
 8984TIP3    H248444   4.842   6.506   4.158  0.6112  0.9215  0.8530
 8985TIP3   OH248445   0.196   2.256   3.121  0.6526 -0.7596 -0.2210
 8985TIP3    H148446   0.181   2.182   3.179 -0.8752  0.1966  0.6688
 8985TIP3    H248447   0.249   2.317   3.172 -0.9195  0.2004  0.3357
 8986TIP3   OH248448   3.746   5.075  14.865 -0.4787 -0.4440 -0.2892
 8986TIP3    H148449   3.698   5.048  14.943  0.8417 -2.7231 -0.1858
 8986TIP3    H248450   3.679   5.117  14.810 -2.4744 -2.7525  0.1722
 8987TIP3   OH248451   4.521   4.674  16.472  0.1282 -0.3141 -0.1959
 8987TIP3    H148452   4.554   4.713  16.391  4.1453  1.2562  1.9244
 8987TIP3    H248453   4.557   4.586  16.474  0.7929 -0.0397  0.2494
 8988TIP3   OH248454   4.266   1.649   2.762 -0.5835 -0.1683  0.1347
 8988TIP3    H148455   4.303   1.562   2.779  0.2254 -0.1277 -1.2133
 8988TIP3    H248456   4.183   1.650   2.809 -2.2424 -2.9043 -2.3840
 8989TIP3   OH248457   2.341   1.953  12.139  1.1950 -0.0695 -0.4110
 8989TIP3    H148458   2.290   2.021  12.095 -2.3315 -2.0208  0.3427
 8989TIP3    H248459   2.350   1.985  12.229  0.8001  0.0459 -0.4112
 8990TIP3   OH248460   1.792   2.597  16.709  0.7498 -0.2080 -0.5801
 8990TIP3    H148461   1.875   2.609  16.663  1.4516 -2.8003 -0.1594
 8990TIP3    H248462   1.795   2.660  16.781  1.2786  1.3090 -1.8658
 8991TIP3   OH248463   5.640   1.161   0.575  0.3239  0.2871  0.2357
 8991TIP3    H148464   5.728   1.192   0.594  0.7687  0.5351 -1.9381
 8991TIP3    H248465   5.638   1.072   0.608  2.4819 -0.8226 -2.2345
 8992TIP3   OH248466   6.533   5.990  17.015  0.0697  1.0151 -0.7466
 8992TIP3    H148467   6.468   6.051  17.051  0.2115  1.4318 -1.1811
 8992TIP3    H248468   6.571   6.037  16.941  0.5760  0.6089 -0.7484
 8993TIP3   OH248469   3.546   5.227   6.003 -0.2232  0.0288  0.0462
 8993TIP3    H148470   3.594   5.215   5.921 -0.5753  1.2127 -0.3598
 8993TIP3    H248471   3.557   5.144   6.050  2.5664  0.3637  0.1565
 8994TIP3   OH248472   1.834   3.050  12.754  0.4149 -0.3487 -0.3967
 8994TIP3    H148473   1.797   2.985  12.813 -1.2358 -0.3971 -1.4353
 8994TIP3    H248474   1.894   3.101  12.809 -0.9685 -0.4664  1.2932
 8995TIP3   OH248475   2.925   1.796   6.486  0.3484 -0.4246  0.1885
 8995TIP3    H148476   2.889   1.841   6.410  0.9031 -0.5290 -0.1434
 8995TIP3    H248477   2.875   1.830   6.560  1.9249  2.1550  0.1935
 8996TIP3   OH248478   2.071   4.356   3.988 -0.1211 -0.0233 -0.0553
 8996TIP3    H148479   2.138   4.298   4.024 -0.2998  0.6817  1.4816
 8996TIP3    H248480   2.088   4.355   3.893  0.6358 -1.5910  0.0566
 8997TIP3   OH248481   5.752   0.668  16.945 -0.4193 -0.1373 -0.6720
 8997TIP3    H148482   5.822   0.720  16.906 -0.5730  1.2965  0.8283
 8997TIP3    H248483   5.686   0.732  16.973 -1.1239 -1.2189  0.2964
 8998TIP3   OH248484   5.607   4.531   5.164  0.4565 -0.1351 -0.5217
 8998TIP3    H148485   5.535   4.530   5.227 -0.5087  0.4436 -1.5557
 8998TIP3    H248486   5.674   4.585   5.204  0.2588 -0.5625  0.4071
 8999TIP3   OH248487   5.469   1.352  16.733  0.8656 -0.3624 -0.0864
 8999TIP3    H148488   5.521   1.359  16.653  2.7894  1.6252  1.2405
 8999TIP3    H248489   5.496   1.426  16.786 -2.1166 -0.2380  1.4553
 9000TIP3   OH248490   2.181   5.782  15.079 -0.0027 -0.2607 -0.3959
 9000TIP3    H148491   2.271   5.804  15.055 -0.4736  1.3865 -0.7896
 9000TIP3    H248492   2.159   5.843  15.149 -0.1763 -1.9987  1.1534
 9001TIP3   OH248493   3.958   1.492  13.291 -0.4559 -0.2605  0.1143
 9001TIP3    H148494   3.898   1.458  13.357 -0.2607  0.0387  0.4483
 9001TIP3    H248495   3.928   1.580  13.273  0.2509  0.1279  0.7543
 9002TIP3   OH248496   1.134   6.352   2.752  0.7804  0.5523  0.2415
 9002TIP3    H148497   1.071   6.343   2.824  0.2291  0.7087 -0.2092
 9002TIP3    H248498   1.124   6.443   2.723  0.4001  0.2713 -0.5539
 9003TIP3   OH248499   1.451   2.027  16.909 -0.5093  0.7047 -0.1939
 9003TIP3    H148500   1.428   1.975  16.832  0.3624 -1.1510  0.7423
 9003TIP3    H248501   1.368   2.060  16.942 -1.1112 -0.2263 -0.7400
 9004TIP3   OH248502   5.162   0.530   5.146  0.0737  0.1386  0.2700
 9004TIP3    H148503   5.220   0.464   5.108  0.8257  1.3168 -0.7149
 9004TIP3    H248504   5.194   0.543   5.235  0.5823 -0.0662  0.1207
 9005TIP3   OH248505   0.533   6.226  16.563  0.2164  0.2190 -0.0487
 9005TIP3    H148506   0.495   6.313  16.570  3.2031  1.8056 -1.4247
 9005TIP3    H248507   0.602   6.225  16.629 -0.8745 -1.8500  1.1521
 9006TIP3   OH248508   0.326   4.097   0.182  0.4885 -0.4334 -0.2326
 9006TIP3    H148509   0.383   4.072   0.254  2.7928  0.9928 -1.4520
 9006TIP3    H248510   0.348   4.036   0.111  0.4647  0.0815 -0.6908
 9007TIP3   OH248511   0.612   4.679  14.404 -0.0620  0.1767 -0.3023
 9007TIP3    H148512   0.590   4.605  14.462 -0.2917 -0.2078 -0.8720
 9007TIP3    H248513   0.624   4.639  14.318 -2.0937  1.0337 -1.0401
 9008TIP3   OH248514   1.555   4.518  15.509  0.7791 -0.1939  0.1881
 9008TIP3    H148515   1.605   4.437  15.513  1.4369  0.0562 -1.6412
 9008TIP3    H248516   1.472   4.498  15.552  0.8808 -1.8883 -0.3340
 9009TIP3   OH248517   6.194   3.376  13.289 -0.6255  0.9216 -0.1145
 9009TIP3    H148518   6.217   3.313  13.357  0.2576  0.8926 -0.4319
 9009TIP3    H248519   6.264   3.441  13.291 -0.4248  0.7565 -1.2012
 9010TIP3   OH248520   0.035   2.702   4.438 -1.1626  0.2888 -0.3662
 9010TIP3    H148521  -0.051   2.730   4.471 -1.6739  0.3912 -1.7379
 9010TIP3    H248522   0.017   2.664   4.353  0.1802  0.4669 -0.7527
 9011TIP3   OH248523   1.908   6.758  16.285 -0.4022 -0.0143  0.3781
 9011TIP3    H148524   1.852   6.836  16.284 -0.8244 -0.3116  0.7511
 9011TIP3    H248525   1.848   6.684  16.290  0.0297 -0.3220  1.3697
 9012TIP3   OH248526   4.991   5.486  13.740  0.5385 -0.2939 -0.1116
 9012TIP3    H148527   4.923   5.424  13.713 -1.4913  2.1374 -0.9249
 9012TIP3    H248528   5.071   5.454  13.699 -0.9342 -1.0161 -2.6125
 9013TIP3   OH248529   1.228   4.166  12.317 -0.1328 -0.1190 -0.0050
 9013TIP3    H148530   1.184   4.095  12.363 -0.9473  0.3424 -0.0441
 9013TIP3    H248531   1.187   4.166  12.230 -0.6860  0.8684  0.2425
 9014TIP3   OH248532   4.003   1.535  14.956  0.2170  0.3979 -0.1871
 9014TIP3    H148533   3.942   1.575  14.894 -0.6185 -1.6084 -0.7478
 9014TIP3    H248534   4.027   1.452  14.914 -1.2526 -1.5866  2.5830
 9015TIP3   OH248535   4.038   2.769   3.581 -0.1953 -0.4231 -0.7535
 9015TIP3    H148536   4.059   2.785   3.673  1.6570 -0.0356 -1.1850
 9015TIP3    H248537   3.953   2.726   3.582  0.2812 -1.4507  1.2229
 9016TIP3   OH248538   5.355   4.133   3.757  0.2623 -0.2111  0.0511
 9016TIP3    H148539   5.318   4.046   3.740 -0.2984  0.1640 -0.6461
 9016TIP3    H248540   5.436   4.135   3.706 -0.0862 -0.0610 -0.4964
 9017TIP3   OH248541   5.101   5.524   4.216 -0.1979 -0.5796  0.3112
 9017TIP3    H148542   5.179   5.550   4.266 -0.0577 -0.8802  0.2517
 9017TIP3    H248543   5.032   5.583   4.247  0.8214  2.1885 -2.1248
 9018TIP3   OH248544   3.460   6.474   2.421  0.2540  0.1850  0.4987
 9018TIP3    H148545   3.407   6.421   2.362  0.2433  1.9710 -1.1967
 9018TIP3    H248546   3.406   6.485   2.499 -1.6978  1.4393 -0.9276
 9019TIP3   OH248547   0.429   0.128   4.407 -0.1629  0.4451 -0.3424
 9019TIP3    H148548   0.481   0.185   4.349 -0.4614 -0.1991 -1.2727
 9019TIP3    H248549   0.368   0.085   4.348 -1.4690  0.8564  0.6753
 9020TIP3   OH248550   3.000   1.131  15.914  0.2110  0.1587  0.3439
 9020TIP3    H148551   2.940   1.175  15.853  0.9954  0.7257 -0.0328
 9020TIP3    H248552   3.030   1.054  15.866 -0.4765 -0.3242  0.6689
 9021TIP3   OH248553   3.207   3.306  15.704  0.3937 -0.5390  0.1489
 9021TIP3    H148554   3.205   3.224  15.753 -0.9772 -0.8117 -0.3177
 9021TIP3    H248555   3.286   3.350  15.734 -0.6058 -0.4678  2.9876
 9022TIP3   OH248556   3.747   4.885   4.657  0.2689 -0.1352 -0.5478
 9022TIP3    H148557   3.674   4.943   4.635  0.7048 -0.1647 -2.2140
 9022TIP3    H248558   3.744   4.878   4.752  0.7617  3.3956 -0.1340
 9023TIP3   OH248559   4.184   4.390  11.121  0.2678  0.7045  0.1410
 9023TIP3    H148560   4.277   4.407  11.134  0.0893  1.1599  0.9006
 9023TIP3    H248561   4.142   4.425  11.200 -0.7211  1.9808 -0.8965
 9024TIP3   OH248562   1.822   6.676   0.694 -0.2608 -0.4817 -0.0891
 9024TIP3    H148563   1.801   6.709   0.607 -0.0162 -2.1863 -0.8495
 9024TIP3    H248564   1.835   6.754   0.748 -2.2655  0.6134 -1.1031
 9025TIP3   OH248565   1.898   1.358  12.102 -0.0464  0.0777 -0.4710
 9025TIP3    H148566   1.876   1.314  12.184  1.2738 -0.9454 -0.6313
 9025TIP3    H248567   1.875   1.294  12.034  0.2398  0.3322 -0.8088
 9026TIP3   OH248568   6.119   6.745  12.435 -0.4339 -0.3425 -0.0063
 9026TIP3    H148569   6.157   6.683  12.497 -0.2085  0.3705  0.5792
 9026TIP3    H248570   6.034   6.768  12.474 -0.8217 -0.8011 -0.5677
 9027TIP3   OH248571   1.814   3.759  13.036 -0.2355  0.6822 -0.4114
 9027TIP3    H148572   1.815   3.825  13.105  0.0956  0.0493  0.2019
 9027TIP3    H248573   1.906   3.750  13.009 -0.4638  1.5364 -1.5403
 9028TIP3   OH248574   5.655   3.426  14.804  0.2354  0.8356  0.5278
 9028TIP3    H148575   5.674   3.514  14.836 -0.9181  1.2410  0.1645
 9028TIP3    H248576   5.737   3.396  14.766  0.8900  1.3968  1.4577
 9029TIP3   OH248577   0.300   0.002  13.570  0.7999  0.3650  0.2880
 9029TIP3    H148578   0.393   0.008  13.548  0.9186 -1.3599  0.1517
 9029TIP3    H248579   0.277  -0.090  13.552 -0.6138  0.4433  1.5101
 9030TIP3   OH248580   0.273   4.884  11.574  0.1236  0.7955 -0.0745
 9030TIP3    H148581   0.234   4.965  11.542 -1.8521  0.9163  2.2851
 9030TIP3    H248582   0.199   4.823  11.582  1.1578 -0.4418  0.4277
 9031TIP3   OH248583   0.526   4.568   3.183 -0.0562  0.0968 -0.4035
 9031TIP3    H148584   0.439   4.589   3.148 -0.6484 -1.2096  0.1950
 9031TIP3    H248585   0.509   4.534   3.271  1.2201  1.3178  0.3616
 9032TIP3   OH248586   2.723   3.227  14.320 -0.5429  0.2400 -0.2318
 9032TIP3    H148587   2.692   3.154  14.266 -1.0710 -0.0260  0.4263
 9032TIP3    H248588   2.809   3.247  14.284 -0.2591 -0.9058 -0.2391
 9033TIP3   OH248589   6.614   2.119  13.768  0.0922  0.1858  0.4074
 9033TIP3    H148590   6.639   2.052  13.704 -1.2253 -0.9627  1.0453
 9033TIP3    H248591   6.627   2.076  13.853  3.4699  2.2232  1.1214
 9034TIP3   OH248592   6.539   3.740   4.275 -0.4371 -0.3960 -0.4786
 9034TIP3    H148593   6.562   3.650   4.298 -1.0915 -0.6519 -0.8021
 9034TIP3    H248594   6.618   3.775   4.234 -0.4168 -1.0564 -1.0095
 9035TIP3   OH248595   2.262   1.437  11.185  0.2990  0.1326  0.7608
 9035TIP3    H148596   2.289   1.431  11.094  1.6882 -0.9569  1.2178
 9035TIP3    H248597   2.212   1.519  11.190  0.6445  0.4652 -0.8490
 9036TIP3   OH248598   6.221   1.903   3.427  0.3789 -0.0854  0.3046
 9036TIP3    H148599   6.228   1.943   3.513 -0.1891 -1.8803  1.2397
 9036TIP3    H248600   6.210   1.810   3.445 -1.5833 -0.3029 -1.6264
 9037TIP3   OH248601   5.228   2.017  14.653  0.0806 -0.0679  0.2486
 9037TIP3    H148602   5.235   1.921  14.653 -1.9713 -0.2497  0.0275
 9037TIP3    H248603   5.281   2.044  14.578  0.6979 -1.0121  0.3156
 9038TIP3   OH248604   5.529   3.704   3.604  0.5935  0.4085 -0.1917
 9038TIP3    H148605   5.506   3.724   3.695 -2.5594 -1.0327 -0.5361
 9038TIP3    H248606   5.597   3.767   3.582 -0.9855  3.1505  2.0896
 9039TIP3   OH248607   1.510   4.308  16.140 -0.3481 -0.4139  0.0738
 9039TIP3    H148608   1.534   4.364  16.214 -0.4558  1.6433 -1.3525
 9039TIP3    H248609   1.415   4.311  16.136 -0.3946 -1.2442  0.3614
 9040TIP3   OH248610   3.819   3.854  17.138  0.0885 -0.0973 -0.6423
 9040TIP3    H148611   3.856   3.823  17.055  0.5970 -2.6495  0.4470
 9040TIP3    H248612   3.884   3.832  17.204 -0.8552  0.7241  0.6202
 9041TIP3   OH248613   1.213   2.237  13.345  0.0646  0.3598  0.5254
 9041TIP3    H148614   1.156   2.303  13.383  0.0705  0.4093  0.4484
 9041TIP3    H248615   1.273   2.286  13.289  0.7164  0.4023  1.2455
 9042TIP3   OH248616   4.312   0.500  13.718  0.6120  0.2511 -0.2815
 9042TIP3    H148617   4.391   0.456  13.749  1.3500  1.9800  0.3960
 9042TIP3    H248618   4.265   0.432  13.669  2.4021 -0.8736 -0.5394
 9043TIP3   OH248619   4.617   0.152   1.911  0.2833  0.7677 -0.1538
 9043TIP3    H148620   4.561   0.224   1.881 -0.2670  0.4456  0.0830
 9043TIP3    H248621   4.572   0.117   1.987 -1.1183 -1.7948 -1.9950
 9044TIP3   OH248622   1.346   2.330  16.699  0.5611  0.0750 -0.0299
 9044TIP3    H148623   1.274   2.354  16.758  0.8268 -3.2536  1.9501
 9044TIP3    H248624   1.307   2.330  16.612 -1.2789  0.3186  0.7349
 9045TIP3   OH248625   3.738   4.414  13.032  0.0921 -0.5084  0.5218
 9045TIP3    H148626   3.819   4.403  12.983 -1.4562 -2.5571 -1.8398
 9045TIP3    H248627   3.738   4.342  13.095  0.1191 -0.5112  0.5181
 9046TIP3   OH248628   0.654   3.302   5.908 -0.5226 -0.9002  0.6942
 9046TIP3    H148629   0.736   3.288   5.862  1.1661  3.6397  1.7891
 9046TIP3    H248630   0.677   3.296   6.001 -1.5173  0.0733  1.0257
 9047TIP3   OH248631   1.610   3.576   4.662 -0.2898 -0.2961  0.1250
 9047TIP3    H148632   1.528   3.528   4.673  0.0617 -1.0570 -0.5374
 9047TIP3    H248633   1.588   3.666   4.688 -1.2075 -0.5905  0.4078
 9048TIP3   OH248634   4.004   3.036  15.421 -0.7039  0.3076 -0.3085
 9048TIP3    H148635   3.988   3.126  15.392 -3.9271  0.1448  0.5629
 9048TIP3    H248636   4.010   2.985  15.341  2.0896  1.3314 -0.8539
 9049TIP3   OH248637   1.954   6.512  12.774 -0.2436 -0.1445  0.7125
 9049TIP3    H148638   1.977   6.526  12.866  0.0887  2.0535  0.3554
 9049TIP3    H248639   1.875   6.564  12.761  0.1911  0.2585 -0.4344
 9050TIP3   OH248640   0.063   3.315   0.980 -0.5247 -0.3199  0.0450
 9050TIP3    H148641   0.077   3.407   0.961 -2.5109 -0.3299 -1.8597
 9050TIP3    H248642   0.108   3.300   1.063  1.3020  1.9109 -0.4610
 9051TIP3   OH248643   2.996   6.208   6.075 -0.2374 -0.3008  0.1048
 9051TIP3    H148644   2.918   6.159   6.103 -1.0681  1.0453  0.2665
 9051TIP3    H248645   2.977   6.298   6.101  1.0832  0.1700 -0.5136
 9052TIP3   OH248646   2.284   6.705   1.760  0.2500  0.3622 -0.2221
 9052TIP3    H148647   2.255   6.677   1.673  0.8985  2.8706 -1.3293
 9052TIP3    H248648   2.219   6.771   1.787  0.4400  0.1046  0.9169
 9053TIP3   OH248649   0.288   3.586  13.083  0.1238 -0.0204 -0.2583
 9053TIP3    H148650   0.210   3.586  13.138  0.3008  2.5177  0.0761
 9053TIP3    H248651   0.272   3.654  13.018  2.1354  0.7358 -0.0327
 9054TIP3   OH248652   5.176   6.378   3.797 -0.1272 -0.3279 -0.1284
 9054TIP3    H148653   5.184   6.458   3.746 -1.5400  0.4178  0.7727
 9054TIP3    H248654   5.143   6.313   3.735 -3.0306  0.8708 -0.0070
 9055TIP3   OH248655   3.493   0.474  16.134 -0.0591 -0.2707 -0.7505
 9055TIP3    H148656   3.524   0.387  16.158  0.2427  0.0308 -0.0162
 9055TIP3    H248657   3.558   0.506  16.072  0.7084  0.0461  0.1848
 9056TIP3   OH248658   3.737   2.130  14.265 -0.5242  0.5073 -0.5525
 9056TIP3    H148659   3.746   2.137  14.170 -2.6258 -2.1780 -1.0655
 9056TIP3    H248660   3.714   2.218  14.293  0.8054  1.5227 -2.3892
 9057TIP3   OH248661   3.590   2.122  12.547  0.0480  0.0360 -0.0452
 9057TIP3    H148662   3.547   2.205  12.528 -3.6678 -1.0640  2.4194
 9057TIP3    H248663   3.614   2.128  12.640  1.2412 -1.1052 -0.2467
 9058TIP3   OH248664   6.346   1.660   2.375  0.4676  0.4548  0.6907
 9058TIP3    H148665   6.270   1.604   2.388  0.7417 -0.2994 -0.8185
 9058TIP3    H248666   6.354   1.668   2.280  2.4758  0.2197  0.8046
 9059TIP3   OH248667   6.617   1.087   3.672  0.0651 -0.4133 -0.6269
 9059TIP3    H148668   6.536   1.066   3.718 -0.8870  1.4239 -1.3659
 9059TIP3    H248669   6.608   1.043   3.587  1.0257 -2.3045  0.1834
 9060TIP3   OH248670   0.762   2.730   3.122  0.3654  0.7022  0.0465
 9060TIP3    H148671   0.765   2.762   3.032 -1.0544 -2.4628 -1.2684
 9060TIP3    H248672   0.688   2.777   3.161 -0.7215  0.2099 -1.3293
 9061TIP3   OH248673   4.372   1.889  11.852 -0.2293  0.2316  0.3066
 9061TIP3    H148674   4.461   1.909  11.883 -0.1945 -0.6359  0.8176
 9061TIP3    H248675   4.333   1.839  11.924 -0.7371 -0.3757 -0.3761
 9062TIP3   OH248676   5.528   0.324  12.993  0.1488  0.1187  0.2663
 9062TIP3    H148677   5.546   0.231  12.980  0.6946  0.3079 -0.4037
 9062TIP3    H248678   5.574   0.345  13.075 -0.8045 -0.4108  0.9590
 9063TIP3   OH248679   6.027   6.183  14.641 -0.5190 -0.2536 -0.3324
 9063TIP3    H148680   6.025   6.094  14.603 -0.5452 -0.5664  0.3941
 9063TIP3    H248681   6.113   6.190  14.681 -0.6976 -0.1262  0.0286
 9064TIP3   OH248682   3.357   4.104  16.522 -0.3919 -0.3936 -0.0704
 9064TIP3    H148683   3.300   4.058  16.461 -2.4537  1.5335  0.3052
 9064TIP3    H248684   3.299   4.132  16.593  1.1653  0.9629  0.7343
 9065TIP3   OH248685   0.835   2.661  10.879 -0.4110 -0.3158  0.5194
 9065TIP3    H148686   0.764   2.696  10.826 -0.1619  0.0515  0.4232
 9065TIP3    H248687   0.844   2.570  10.850  1.1469  0.4344 -1.6432
 9066TIP3   OH248688   3.875   6.203   0.114  0.0298  0.0123 -0.4689
 9066TIP3    H148689   3.942   6.135   0.115 -0.6413 -0.6722 -0.8401
 9066TIP3    H248690   3.806   6.167   0.059 -0.5833  0.7665 -0.2068
 9067TIP3   OH248691   2.608   3.473   0.554 -0.2390 -0.1954  0.0228
 9067TIP3    H148692   2.576   3.454   0.642  0.9303 -0.8934  0.3284
 9067TIP3    H248693   2.678   3.537   0.568 -0.1317 -0.2157 -0.4150
 9068TIP3   OH248694   6.195   2.317   0.898  0.2515  0.3072  0.0371
 9068TIP3    H148695   6.200   2.411   0.884 -0.0173  0.1172 -1.5223
 9068TIP3    H248696   6.164   2.307   0.988 -0.8504  1.7166 -0.1624
 9069TIP3   OH248697   5.745   2.459   5.563  0.8713  0.1946 -0.0155
 9069TIP3    H148698   5.659   2.435   5.529  0.2559  2.4063 -0.1812
 9069TIP3    H248699   5.764   2.393   5.629 -0.8387 -0.4891 -0.1603
 9070TIP3   OH248700   5.502   0.992   3.041  0.4748  0.0900 -0.6850
 9070TIP3    H148701   5.544   0.907   3.059  0.7685  0.2468 -0.6309
 9070TIP3    H248702   5.463   0.981   2.954 -0.8692 -0.6410 -0.0414
 9071TIP3   OH248703   5.404   5.575  10.502  0.1569  0.1738  0.3812
 9071TIP3    H148704   5.477   5.517  10.521  1.7159  1.6750 -0.7406
 9071TIP3    H248705   5.327   5.529  10.537  1.2125 -2.7323 -0.8392
 9072TIP3   OH248706   3.413   3.504   1.755 -0.1176 -0.2988 -0.1556
 9072TIP3    H148707   3.477   3.461   1.812  2.0107 -0.4402 -2.4945
 9072TIP3    H248708   3.386   3.436   1.693 -0.3306  0.5145 -0.9789
 9073TIP3   OH248709   1.495   6.569   0.625 -0.6336  0.3415 -0.1950
 9073TIP3    H148710   1.557   6.518   0.572 -0.8697 -1.9903  1.6423
 9073TIP3    H248711   1.550   6.616   0.688 -0.6339 -2.1202  1.7672
 9074TIP3   OH248712   6.484   3.174  11.360  0.4687 -0.1938  0.5197
 9074TIP3    H148713   6.483   3.213  11.448  2.3756 -0.7335  0.8286
 9074TIP3    H248714   6.549   3.104  11.366  0.4458 -0.3978 -1.2621
 9075TIP3   OH248715   1.301   1.843  10.966 -0.0805  0.1355 -0.0248
 9075TIP3    H148716   1.330   1.859  11.056  0.3144  0.8601 -0.2731
 9075TIP3    H248717   1.214   1.803  10.975 -0.1496  0.4314  0.6691
 9076TIP3   OH248718   4.378   0.405   3.969  0.2769 -0.0379  0.1177
 9076TIP3    H148719   4.471   0.383   3.973  0.3692  0.2895 -0.2383
 9076TIP3    H248720   4.351   0.382   3.881 -0.0770 -0.5088  0.3476
 9077TIP3   OH248721   6.391   3.491   5.311 -0.3983  0.5775 -0.2086
 9077TIP3    H148722   6.470   3.444   5.285 -0.0180  1.8308 -1.4421
 9077TIP3    H248723   6.337   3.493   5.232 -1.3352  0.4105  0.4050
 9078TIP3   OH248724   6.771   2.343  13.455 -0.1683 -0.6893  0.0996
 9078TIP3    H148725   6.817   2.424  13.431  1.2897 -1.2720  0.7691
 9078TIP3    H248726   6.751   2.301  13.372  2.8130 -1.6172 -0.2714
 9079TIP3   OH248727   5.784   0.297  13.527  0.1644  0.0106 -0.1818
 9079TIP3    H148728   5.806   0.386  13.500 -2.8893  0.8474 -0.2609
 9079TIP3    H248729   5.735   0.261  13.454 -1.6400 -0.4172  1.1585
 9080TIP3   OH248730   4.142   5.340   0.891  0.5332  0.3114 -0.2623
 9080TIP3    H148731   4.188   5.264   0.925  1.4471  0.6772 -0.6353
 9080TIP3    H248732   4.078   5.305   0.829 -0.4956 -0.2887  1.0878
 9081TIP3   OH248733   2.071   0.725  11.155 -0.5175  0.1651 -0.0559
 9081TIP3    H148734   2.074   0.652  11.093 -2.4036  0.3505 -0.4240
 9081TIP3    H248735   2.095   0.685  11.239 -1.1057 -0.7936 -0.3263
 9082TIP3   OH248736   4.266   4.945   1.595 -0.1645  0.7531 -0.0742
 9082TIP3    H148737   4.222   4.945   1.681  1.1410  1.4901  0.6228
 9082TIP3    H248738   4.240   4.861   1.556 -1.9704  1.0501  0.3981
 9083TIP3   OH248739   2.264   2.646  12.009 -0.4392 -0.4908 -0.0603
 9083TIP3    H148740   2.357   2.645  12.034 -0.7448  0.3481  1.2263
 9083TIP3    H248741   2.252   2.732  11.968 -1.1330  0.4337  1.9431
 9084TIP3   OH248742   3.044   5.398  16.604  0.0984  0.4540 -0.9793
 9084TIP3    H148743   3.033   5.488  16.572 -0.9469  0.1190 -1.6101
 9084TIP3    H248744   3.119   5.403  16.663 -0.2225  1.8370 -0.6403
 9085TIP3   OH248745   1.573   1.651  13.896  0.0615 -0.2957  0.1559
 9085TIP3    H148746   1.619   1.729  13.864 -1.5251  0.4795 -0.3399
 9085TIP3    H248747   1.546   1.674  13.984  0.6468 -0.7688  0.4646
 9086TIP3   OH248748   6.373   6.220   4.141  0.2144  0.0776 -0.1092
 9086TIP3    H148749   6.358   6.224   4.235 -1.1552 -1.0417 -0.2431
 9086TIP3    H248750   6.288   6.241   4.102  0.2680 -1.2867 -1.0410
 9087TIP3   OH248751   5.927   2.407   5.791  0.7216  0.2586  0.6000
 9087TIP3    H148752   5.939   2.338   5.725  0.7168  1.2423 -0.4503
 9087TIP3    H248753   5.995   2.390   5.856  1.5554  0.0298 -0.3171
 9088TIP3   OH248754   0.213   6.056   0.488 -0.1326  0.0946  0.3446
 9088TIP3    H148755   0.186   6.145   0.512 -0.1023  0.8100 -2.0411
 9088TIP3    H248756   0.140   6.022   0.436  0.9486 -0.2748 -0.9640
 9089TIP3   OH248757   6.809   3.812   0.771  0.1714  0.9463 -0.3990
 9089TIP3    H148758   6.745   3.845   0.708 -2.1996  1.5458  2.1422
 9089TIP3    H248759   6.826   3.886   0.829  2.7623  0.6085 -0.6053
 9090TIP3   OH248760   6.310   5.302   2.163  0.4054  0.8210 -0.5260
 9090TIP3    H148761   6.218   5.328   2.155  0.4508  0.4761 -2.5877
 9090TIP3    H248762   6.349   5.368   2.220 -1.1115  0.9443  0.4275
 9091TIP3   OH248763   2.899   4.776  13.594 -0.4235  0.5122  0.1629
 9091TIP3    H148764   2.884   4.845  13.659  1.8069  1.6204 -0.3791
 9091TIP3    H248765   2.875   4.695  13.639  2.2138  1.0650  2.9302
 9092TIP3   OH248766   5.772   0.273  16.306  0.1033  0.1024  0.5524
 9092TIP3    H148767   5.714   0.349  16.315  0.1414 -0.0746  2.6287
 9092TIP3    H248768   5.712   0.199  16.298  0.0661  0.2079 -0.2171
 9093TIP3   OH248769   2.415   5.167  14.338 -0.3976  0.7684  0.4954
 9093TIP3    H148770   2.494   5.113  14.331  0.1683  1.5900  0.2778
 9093TIP3    H248771   2.344   5.105  14.355 -0.4048 -0.4905 -3.3106
 9094TIP3   OH248772   2.809   2.906  12.227 -0.4172  0.2067  0.1327
 9094TIP3    H148773   2.845   2.884  12.140  0.2618 -0.4244  0.5594
 9094TIP3    H248774   2.849   2.842  12.286 -0.6747  0.7939  0.9581
 9095TIP3   OH248775   5.304   2.787   5.441 -0.2376 -0.0429  0.0473
 9095TIP3    H148776   5.282   2.789   5.534  0.4596  0.2722  0.2140
 9095TIP3    H248777   5.389   2.742   5.438 -0.3735 -0.2764 -0.4656
 9096TIP3   OH248778   6.215   6.263  11.860  0.2880  0.3539  0.0261
 9096TIP3    H148779   6.226   6.181  11.811  0.4606  0.4576 -0.1097
 9096TIP3    H248780   6.151   6.242  11.928 -1.8810  0.8704 -1.7569
 9097TIP3   OH248781   2.017   4.604   4.445  0.2156  0.2833  0.0747
 9097TIP3    H148782   2.000   4.525   4.393  1.6678 -0.4595  0.6469
 9097TIP3    H248783   1.954   4.600   4.516 -0.6457  0.3956 -0.6644
 9098TIP3   OH248784   6.024   0.694  12.418  0.2332 -0.2218  0.1303
 9098TIP3    H148785   6.069   0.610  12.425  2.6418  0.9787  0.0878
 9098TIP3    H248786   6.005   0.704  12.325 -0.2065 -0.7692  0.1574
 9099TIP3   OH248787   2.654   4.431  14.277  0.3881 -0.0088 -0.6190
 9099TIP3    H148788   2.627   4.505  14.332 -0.2717 -0.7916  0.1346
 9099TIP3    H248789   2.685   4.472  14.196 -0.3436  1.0781 -0.3738
 9100TIP3   OH248790   5.809   2.211  16.669 -0.4771 -0.8201  0.1055
 9100TIP3    H148791   5.778   2.291  16.713 -0.3912 -0.2885 -0.7938
 9100TIP3    H248792   5.904   2.219  16.668 -0.4816 -0.8071 -0.2237
 9101TIP3   OH248793   4.300   0.190  16.692 -0.6314  0.4692  0.0505
 9101TIP3    H148794   4.273   0.281  16.684 -1.2777  0.3021  0.2666
 9101TIP3    H248795   4.219   0.142  16.711 -0.2261 -0.0759  0.4626
 9102TIP3   OH248796   5.753   3.484  15.702 -0.8099  0.4992  0.2258
 9102TIP3    H148797   5.734   3.557  15.761 -0.2974  2.2065 -1.6247
 9102TIP3    H248798   5.687   3.490  15.634 -0.5994 -0.6422 -0.1051
 9103TIP3   OH248799   0.902   2.592  14.453 -0.1156  0.7331  0.4020
 9103TIP3    H148800   0.900   2.509  14.502 -0.4055  0.9620  0.7861
 9103TIP3    H248801   0.936   2.656  14.516 -0.5578  1.0444  0.3304
 9104TIP3   OH248802   4.488   1.787   1.878  0.1871 -0.4280 -0.3214
 9104TIP3    H148803   4.466   1.809   1.788 -1.4836 -0.7253 -0.0152
 9104TIP3    H248804   4.478   1.869   1.926  0.0476 -0.4984 -0.2300
 9105TIP3   OH248805   4.236   0.394  14.472  0.2023 -0.0258 -0.2447
 9105TIP3    H148806   4.201   0.315  14.513  0.9043 -1.0348 -1.4996
 9105TIP3    H248807   4.276   0.363  14.391  0.4530  1.6391 -0.7984
 9106TIP3   OH248808   4.136   4.924   0.148 -0.1069 -0.0935  0.1176
 9106TIP3    H148809   4.199   4.890   0.211  0.9878  2.0130  0.2641
 9106TIP3    H248810   4.173   4.903   0.062 -0.5465 -1.1399  0.1763
 9107TIP3   OH248811   1.359   4.412   3.519  0.1856 -0.2583  0.5783
 9107TIP3    H148812   1.317   4.419   3.605 -0.0671  0.2360  0.4211
 9107TIP3    H248813   1.369   4.503   3.490 -0.7123 -0.4514 -0.3825
 9108TIP3   OH248814   0.836   5.045  10.990 -0.7174 -0.4861  0.5030
 9108TIP3    H148815   0.757   5.089  11.022 -0.0951  0.7949  0.3527
 9108TIP3    H248816   0.882   5.112  10.940  0.3026 -1.3105  0.2978
 9109TIP3   OH248817   0.305   5.730   2.552 -0.0177 -0.0299  0.1316
 9109TIP3    H148818   0.267   5.735   2.640  0.2248 -0.4685  0.2653
 9109TIP3    H248819   0.232   5.702   2.497 -0.2204  0.4396  0.1569
 9110TIP3   OH248820   5.042   4.404  14.387  0.0566  0.2809 -0.1383
 9110TIP3    H148821   4.979   4.375  14.454  0.0482 -1.3106 -0.7969
 9110TIP3    H248822   5.029   4.499  14.382 -1.4978  0.1428  0.5613
 9111TIP3   OH248823   0.905   5.756  11.376 -0.2757  0.1238  0.1661
 9111TIP3    H148824   0.975   5.800  11.424  0.1947  0.1255 -0.5095
 9111TIP3    H248825   0.858   5.826  11.332  0.2454 -0.0067 -0.6123
 9112TIP3   OH248826   5.697   3.885   0.309 -0.1755  0.3342  0.0405
 9112TIP3    H148827   5.710   3.925   0.223 -1.4691  0.8765  0.0846
 9112TIP3    H248828   5.624   3.933   0.347  0.8806  0.6395  1.7877
 9113TIP3   OH248829   2.157   5.137   3.346  0.4365  0.4009  0.0334
 9113TIP3    H148830   2.189   5.193   3.416  0.7709 -0.4080  0.5386
 9113TIP3    H248831   2.234   5.088   3.317  0.0977  0.0152 -0.2248
 9114TIP3   OH248832   1.096   3.550   3.154  0.0022 -0.4411  0.4388
 9114TIP3    H148833   1.058   3.561   3.241 -3.9974  1.4011 -1.2906
 9114TIP3    H248834   1.116   3.638   3.124 -0.2672 -0.8546 -1.0835
 9115TIP3   OH248835   6.529   2.926  12.268 -0.8155 -0.4404 -0.1999
 9115TIP3    H148836   6.610   2.898  12.310  0.1010 -1.4628 -2.4685
 9115TIP3    H248837   6.557   2.954  12.180 -3.0307 -2.1181 -1.5392
 9116TIP3   OH248838   2.830   0.114   4.155  0.2255  0.3046  0.1497
 9116TIP3    H148839   2.791   0.172   4.220 -0.7696 -0.3851  0.2013
 9116TIP3    H248840   2.867   0.042   4.207 -1.5420 -0.8082 -0.0716
 9117TIP3   OH248841   0.473   1.491   0.311 -0.2293 -0.6231 -0.5239
 9117TIP3    H148842   0.436   1.557   0.252  0.6568 -1.9039 -2.6202
 9117TIP3    H248843   0.484   1.413   0.256  0.1934 -2.0605  1.4813
 9118TIP3   OH248844   6.783   5.210  12.650 -0.5801  0.3619 -0.2626
 9118TIP3    H148845   6.793   5.257  12.567  0.0782  2.4742  0.9157
 9118TIP3    H248846   6.805   5.276  12.717  0.7849 -1.7733  1.5312
 9119TIP3   OH248847   6.255   4.317  15.652  0.4091 -0.2376 -0.2219
 9119TIP3    H148848   6.214   4.397  15.619 -0.4634  0.4234  2.2548
 9119TIP3    H248849   6.182   4.256  15.666  0.8911 -0.9150 -0.5647
 9120TIP3   OH248850   2.569   2.050  13.022  0.3123 -0.6278 -0.1250
 9120TIP3    H148851   2.600   2.117  12.961 -0.9871 -1.1863 -1.4398
 9120TIP3    H248852   2.615   1.970  12.996 -0.4618 -0.9325 -0.5834
 9121TIP3   OH248853   1.677   3.600  12.098 -0.5113 -0.7988  0.4931
 9121TIP3    H148854   1.664   3.683  12.144  1.9314 -0.4887  0.7464
 9121TIP3    H248855   1.667   3.622  12.006 -1.0051 -0.4603  0.6254
 9122TIP3   OH248856   0.139   5.428   4.451 -0.3996  0.2337  0.8221
 9122TIP3    H148857   0.061   5.420   4.396 -0.3369  0.5912  0.6819
 9122TIP3    H248858   0.152   5.340   4.487 -0.3837 -0.0203  0.1966
 9123TIP3   OH248859   1.610   3.294   2.784 -0.1506 -0.1924 -0.6132
 9123TIP3    H148860   1.615   3.293   2.688 -0.6684 -0.2199 -0.6392
 9123TIP3    H248861   1.644   3.381   2.809 -0.2517 -0.0905 -0.8307
 9124TIP3   OH248862   0.228   4.640  10.366  0.4018 -0.7874  0.5397
 9124TIP3    H148863   0.252   4.678  10.450 -0.5686  1.7559 -0.2295
 9124TIP3    H248864   0.137   4.611  10.378  0.0512  0.1330  0.2591
 9125TIP3   OH248865   1.283   0.675  15.273 -0.8786 -0.3800 -0.5346
 9125TIP3    H148866   1.291   0.761  15.231 -0.7425 -0.5676 -0.8962
 9125TIP3    H248867   1.303   0.612  15.203 -0.6114 -0.6939 -0.1834
 9126TIP3   OH248868   0.719   6.480  13.219  0.2125 -0.4883 -0.2814
 9126TIP3    H148869   0.713   6.384  13.221  0.2138 -0.4860 -0.1392
 9126TIP3    H248870   0.693   6.504  13.130 -0.4294 -0.5753 -0.1207
 9127TIP3   OH248871   6.620   4.936  11.912 -0.5135 -0.4292  0.2509
 9127TIP3    H148872   6.585   4.900  11.830 -0.8236 -1.9395  1.0030
 9127TIP3    H248873   6.545   4.975  11.955 -0.2535  0.8242 -0.3852
 9128TIP3   OH248874   2.415   5.719  14.660 -0.6556 -0.0295 -0.2646
 9128TIP3    H148875   2.424   5.804  14.617 -0.2736  0.1458  0.1510
 9128TIP3    H248876   2.347   5.733  14.725 -0.8827 -0.1564 -0.4749
 9129TIP3   OH248877   0.625   6.838  15.014 -0.4060 -0.0886  0.1661
 9129TIP3    H148878   0.602   6.892  15.090  2.6269  0.5881  0.7180
 9129TIP3    H248879   0.652   6.901  14.948 -0.9527 -0.7852 -0.7452
 9130TIP3   OH248880   2.150   5.341  15.825  1.1207  0.3790 -0.3253
 9130TIP3    H148881   2.138   5.387  15.908 -0.6929  0.4427 -0.5763
 9130TIP3    H248882   2.062   5.336  15.788  1.6186 -1.2882 -1.3822
 9131TIP3   OH248883   6.746   0.304   5.817 -0.5253  0.0282  0.0314
 9131TIP3    H148884   6.812   0.373   5.823 -0.8448  0.5028 -1.5106
 9131TIP3    H248885   6.669   0.341   5.861 -1.0453  1.1440 -1.7105
 9132TIP3   OH248886   0.787   6.261   3.544  0.6807  0.1933  0.1419
 9132TIP3    H148887   0.763   6.247   3.453 -0.4473  2.9979 -0.0945
 9132TIP3    H248888   0.720   6.216   3.594 -0.5861  1.3091 -0.4920
 9133TIP3   OH248889   5.656   5.652   0.162 -0.1655 -0.0687  0.0942
 9133TIP3    H148890   5.643   5.680   0.253 -0.7974 -0.3274  0.0916
 9133TIP3    H248891   5.748   5.629   0.157 -0.3495 -1.0592  0.9567
 9134TIP3   OH248892   2.872   6.572   3.708 -0.0509 -0.2742 -0.0189
 9134TIP3    H148893   2.784   6.590   3.675  0.5537  1.2635 -0.9418
 9134TIP3    H248894   2.926   6.641   3.669  1.1718  0.1848  2.2700
 9135TIP3   OH248895   5.632   3.919  12.594 -0.7468 -0.2877 -0.1588
 9135TIP3    H148896   5.700   3.893  12.531  0.4084  0.4587  0.7275
 9135TIP3    H248897   5.590   3.837  12.618  1.0470 -1.0465  0.5843
 9136TIP3   OH248898   3.280   0.263  11.577  0.1439 -0.0077  0.3200
 9136TIP3    H148899   3.369   0.230  11.587  0.1372 -0.8766 -1.8782
 9136TIP3    H248900   3.230   0.222  11.647  1.1185 -0.9025  0.5107
 9137TIP3   OH248901   2.212   1.733   3.573 -0.5430 -0.6446  0.1704
 9137TIP3    H148902   2.250   1.796   3.635 -2.7404  1.5728 -0.5648
 9137TIP3    H248903   2.272   1.658   3.575  2.0099  1.2784  1.4114
 9138TIP3   OH248904   5.466   1.542   2.127 -0.0002  0.5209 -0.1256
 9138TIP3    H148905   5.372   1.559   2.117  0.1244  1.6174  0.3863
 9138TIP3    H248906   5.470   1.458   2.172 -0.8094  1.3078  1.5296
 9139TIP3   OH248907   4.574   5.828   3.137 -0.9134 -0.0878  0.2194
 9139TIP3    H148908   4.482   5.854   3.148 -0.4114  2.3209 -0.6670
 9139TIP3    H248909   4.590   5.837   3.043 -0.2917 -2.6003  0.0148
 9140TIP3   OH248910   5.874   2.861  13.622 -0.6648 -0.0272  0.4315
 9140TIP3    H148911   5.883   2.934  13.561 -1.6491 -0.2565 -0.0067
 9140TIP3    H248912   5.898   2.784  13.571  0.9817  0.0331  1.0676
 9141TIP3   OH248913   2.739   3.929  15.672 -0.4778  0.0957 -0.2433
 9141TIP3    H148914   2.824   3.897  15.702  0.6141 -0.8929 -3.9022
 9141TIP3    H248915   2.684   3.850  15.668 -0.3681  0.0564 -1.3630
 9142TIP3   OH248916   2.617   5.527  15.408  0.1081 -0.9860  0.1067
 9142TIP3    H148917   2.628   5.597  15.472  1.0362  0.5586 -1.6608
 9142TIP3    H248918   2.696   5.474  15.416  1.1051  0.2767 -0.9682
 9143TIP3   OH248919   4.679   6.108   2.582  0.3356 -0.4315  0.8292
 9143TIP3    H148920   4.711   6.146   2.501  2.5634 -0.6397  1.5447
 9143TIP3    H248921   4.584   6.110   2.574  0.4864  0.7255 -1.2183
 9144TIP3   OH248922   1.544   1.368  10.188 -0.4710 -0.0042  0.4507
 9144TIP3    H148923   1.617   1.399  10.241 -1.3959  2.5358  0.3992
 9144TIP3    H248924   1.513   1.290  10.233  0.8251  0.1938  1.7683
 9145TIP3   OH248925   5.059   6.718   1.236  0.0772  0.1294  0.4188
 9145TIP3    H148926   5.080   6.806   1.268  2.9442 -0.9154  1.6528
 9145TIP3    H248927   5.111   6.707   1.157 -0.4533 -0.4076  0.1277
 9146TIP3   OH248928   3.539   2.773  13.365  0.4693  0.2115  0.2147
 9146TIP3    H148929   3.523   2.864  13.389  1.6582  1.2015 -2.3637
 9146TIP3    H248930   3.629   2.756  13.394  0.8840  0.4816 -0.8620
 9147TIP3   OH248931   6.351   0.394   3.809  0.4327 -0.0560  0.6617
 9147TIP3    H148932   6.409   0.330   3.850  2.1419  1.3428  0.5322
 9147TIP3    H248933   6.269   0.387   3.857  0.0492 -3.2559 -0.1851
 9148TIP3   OH248934   1.344   5.159   5.882 -0.4687  0.2932 -0.4780
 9148TIP3    H148935   1.324   5.187   5.792  0.1119  2.1234 -0.0775
 9148TIP3    H248936   1.275   5.096   5.903 -0.4285 -0.4522 -2.3099
 9149TIP3   OH248937   4.050   1.467  12.145 -0.1044 -0.0062 -0.0493
 9149TIP3    H148938   4.049   1.475  12.050 -0.1043 -1.8850 -0.2410
 9149TIP3    H248939   4.016   1.551  12.176  0.2771  0.7924 -1.6810
 9150TIP3   OH248940   6.652   3.644  15.147  0.5265 -0.2904  0.1108
 9150TIP3    H148941   6.721   3.622  15.084  0.2589 -0.4500 -0.1296
 9150TIP3    H248942   6.671   3.735  15.172 -1.2171  1.0184 -2.7095
 9151TIP3   OH248943   0.823   4.901  14.829 -0.3290  0.0572  0.6023
 9151TIP3    H148944   0.763   4.927  14.899 -0.4935 -1.3690  1.0118
 9151TIP3    H248945   0.784   4.822  14.792  0.6655 -0.1918  0.0457
 9152TIP3   OH248946   3.254   6.799  15.855  0.1643 -0.5457 -0.1766
 9152TIP3    H148947   3.226   6.868  15.794 -0.1517 -0.2764  0.2605
 9152TIP3    H248948   3.346   6.819  15.872 -0.2195  0.4711  0.8392
 9153TIP3   OH248949   1.782   4.117   3.248 -0.9254  0.1777  0.1157
 9153TIP3    H148950   1.729   4.128   3.169 -0.0472  0.0861 -0.4959
 9153TIP3    H248951   1.868   4.090   3.216 -0.3762  0.7460  1.0679
 9154TIP3   OH248952   0.476   6.107   1.284 -0.2310  0.2378 -0.3163
 9154TIP3    H148953   0.473   6.149   1.198 -3.6177  0.8200 -0.0593
 9154TIP3    H248954   0.478   6.013   1.265  2.3066  0.3569 -0.9296
 9155TIP3   OH248955   5.036   1.162   0.121  0.2126 -0.2643 -0.1969
 9155TIP3    H148956   4.970   1.204   0.176 -0.4498 -1.4740 -0.0325
 9155TIP3    H248957   5.027   1.069   0.140  0.3082 -0.6702 -1.9881
 9156TIP3   OH248958   4.005   2.886  13.252  0.1578  0.1666 -0.1196
 9156TIP3    H148959   3.989   2.933  13.334 -1.9939 -1.9853  0.8272
 9156TIP3    H248960   3.976   2.946  13.184  0.4195  1.3772  0.8145
 9157TIP3   OH248961   5.479   1.925  17.154 -0.5038  0.1672 -0.3098
 9157TIP3    H148962   5.396   1.961  17.185 -0.2393 -0.1238  0.7941
 9157TIP3    H248963   5.544   1.992  17.179 -0.1637 -0.5073  0.6697
 9158TIP3   OH248964   0.165   2.320   0.411  0.2134  0.0136 -0.3989
 9158TIP3    H148965   0.086   2.374   0.407  0.1837  0.0222  0.2425
 9158TIP3    H248966   0.136   2.237   0.448  0.3938 -0.2027 -0.7304
 9159TIP3   OH248967   4.499   5.503  14.715 -0.1529 -0.2937  0.3320
 9159TIP3    H148968   4.532   5.552  14.789 -0.3099 -1.6020  1.3109
 9159TIP3    H248969   4.529   5.551  14.638 -0.8377  1.6523  1.2171
 9160TIP3   OH248970   1.113   0.768   4.086 -0.5529  0.3110 -0.3993
 9160TIP3    H148971   1.022   0.787   4.066 -0.1956  1.2393 -1.2060
 9160TIP3    H248972   1.163   0.816   4.020  0.4953 -0.8590 -0.4950
 9161TIP3   OH248973   4.905   2.885   2.867 -0.4125 -0.2370  0.2855
 9161TIP3    H148974   4.918   2.941   2.791 -0.2806  1.6102  1.6189
 9161TIP3    H248975   4.814   2.899   2.893  0.2427  1.2540  2.0056
 9162TIP3   OH248976   5.157   2.373   5.665  0.2948 -0.7757  0.3114
 9162TIP3    H148977   5.197   2.422   5.737 -1.1616 -0.2013  0.7693
 9162TIP3    H248978   5.186   2.418   5.586  0.3281 -0.2098  0.6449
 9163TIP3   OH248979   5.751   0.876   3.636  0.0065  0.2294  0.4178
 9163TIP3    H148980   5.674   0.932   3.633  1.6998  2.6910 -1.9707
 9163TIP3    H248981   5.762   0.847   3.545  1.2877 -0.9586  0.9197
 9164TIP3   OH248982   4.063   1.554   1.087  0.5547  0.2317 -0.0028
 9164TIP3    H148983   3.992   1.518   1.141 -0.1601  2.1918  0.4651
 9164TIP3    H248984   4.022   1.572   1.003  0.1432  2.3297  0.5849
 9165TIP3   OH248985   2.795   3.265  10.618  0.2942  0.6870  0.0875
 9165TIP3    H148986   2.728   3.243  10.552  0.1661 -0.3595  0.5345
 9165TIP3    H248987   2.848   3.333  10.577  0.3410 -0.0797 -1.1893
 9166TIP3   OH248988   1.317   5.100  11.752  0.7413  0.0301  0.0584
 9166TIP3    H148989   1.241   5.045  11.733  0.8411  0.3531 -1.3983
 9166TIP3    H248990   1.392   5.042  11.738  0.7913 -0.3010  1.5394
 9167TIP3   OH248991   5.684   1.128  13.858 -0.0623  0.3556  0.6252
 9167TIP3    H148992   5.657   1.036  13.866 -1.0978  0.4612 -1.1821
 9167TIP3    H248993   5.749   1.139  13.927 -2.3050 -0.8164  3.1172
 9168TIP3   OH248994   5.254   1.827   2.053  0.5588 -0.0656  0.4478
 9168TIP3    H148995   5.250   1.777   1.972  0.2859  1.1405 -0.3235
 9168TIP3    H248996   5.346   1.853   2.061  0.4604  0.4039  0.1287
 9169TIP3   OH248997   3.185   1.224  13.871 -0.4001  0.3536 -0.4922
 9169TIP3    H148998   3.105   1.243  13.822  0.5483 -1.9825 -3.2723
 9169TIP3    H248999   3.229   1.308  13.879 -1.4421  1.1326 -2.2460
 9170TIP3   OH249000   2.990   1.902   2.775 -0.1398 -0.4133 -0.1614
 9170TIP3    H149001   2.988   1.926   2.868 -0.0788 -0.3965 -0.1643
 9170TIP3    H249002   2.952   1.814   2.772  1.6678 -1.2718  0.1460
 9171TIP3   OH249003   0.180   2.303  12.375  0.2013  0.3499 -0.3714
 9171TIP3    H149004   0.100   2.353  12.360  0.2663  0.1030 -1.7124
 9171TIP3    H249005   0.164   2.219  12.332  1.2386  0.3613 -0.8223
 9172TIP3   OH249006   6.279   5.137  14.760 -0.0625 -0.5051 -0.2203
 9172TIP3    H149007   6.310   5.145  14.851 -1.2579  0.3658  0.1272
 9172TIP3    H249008   6.354   5.166  14.708 -0.7157  3.4232  0.6597
 9173TIP3   OH249009   3.439   3.738  14.802 -0.3944  0.3463 -0.2183
 9173TIP3    H149010   3.487   3.762  14.722 -2.7551  1.0179 -1.5282
 9173TIP3    H249011   3.429   3.821  14.849 -0.4661  0.2387 -0.0443
 9174TIP3   OH249012   4.074   0.373  16.492 -0.6332  0.1536 -0.6555
 9174TIP3    H149013   4.005   0.431  16.525  1.0081  1.5282  0.4984
 9174TIP3    H249014   4.152   0.397  16.542  0.6570 -1.5113 -1.7616
 9175TIP3   OH249015   0.998   1.010  15.956 -0.3663  0.5955  0.0264
 9175TIP3    H149016   0.994   0.964  16.040  0.9176 -0.5697 -0.5160
 9175TIP3    H249017   0.930   0.968  15.903  0.9316 -0.8829 -0.5318
 9176TIP3   OH249018   4.597   5.617   1.245  0.5163 -0.2010  0.4041
 9176TIP3    H149019   4.685   5.596   1.214  0.0441 -3.3280  0.8442
 9176TIP3    H249020   4.541   5.604   1.169  0.1235 -1.2559  0.8562
 9177TIP3   OH249021   2.411   4.939  10.890  0.4797 -0.3973 -0.6108
 9177TIP3    H149022   2.375   5.004  10.951  0.1466 -0.9191 -0.2452
 9177TIP3    H249023   2.494   4.977  10.862  1.3239 -0.7451  1.2406
 9178TIP3   OH249024   3.928   4.752  13.739  0.2754 -0.4056 -0.5060
 9178TIP3    H149025   3.981   4.831  13.749  0.8525 -0.7702 -0.6426
 9178TIP3    H249026   3.859   4.761  13.805  0.3685  0.1835 -0.4849
 9179TIP3   OH249027   3.530   0.774  14.173  0.1269 -0.0767 -0.6313
 9179TIP3    H149028   3.610   0.771  14.120 -0.3771  3.3054 -1.8394
 9179TIP3    H249029   3.468   0.719  14.125  0.9585 -0.6174 -1.1175
 9180TIP3   OH249030   2.027   4.867   1.434  0.4980  0.7978  0.0407
 9180TIP3    H149031   2.080   4.931   1.387  1.9122 -1.2851 -1.3582
 9180TIP3    H249032   2.085   4.833   1.502  0.8816 -1.1531 -1.1936
 9181TIP3   OH249033   4.677   5.996  12.192  0.6821 -0.4077  0.4835
 9181TIP3    H149034   4.772   6.008  12.195  0.5331  0.6763  1.1738
 9181TIP3    H249035   4.663   5.910  12.232  1.3837 -0.7031  0.1227
 9182TIP3   OH249036   4.961   6.304  15.106 -0.2026  0.1684  0.0827
 9182TIP3    H149037   4.979   6.388  15.066  0.6025 -0.4367 -0.8648
 9182TIP3    H249038   5.001   6.240  15.047 -2.4256 -1.0257 -0.2492
 9183TIP3   OH249039   6.530   6.016  15.515 -0.7087 -0.4219  0.8956
 9183TIP3    H149040   6.567   6.054  15.595  1.4200 -0.3677 -0.0388
 9183TIP3    H249041   6.503   6.091  15.463 -0.3972 -0.3730  0.8037
 9184TIP3   OH249042   5.183   6.830  14.274  0.3122  0.3251 -0.4163
 9184TIP3    H149043   5.263   6.797  14.316  0.1697  0.8903  0.3101
 9184TIP3    H249044   5.136   6.876  14.343  0.2028  1.5188 -1.2365
 9185TIP3   OH249045   3.273   4.923  13.298 -0.2437 -0.4689  0.0059
 9185TIP3    H149046   3.369   4.915  13.297 -0.1569  0.0339  1.5707
 9185TIP3    H249047   3.247   4.889  13.384 -1.4463 -0.2925 -0.2688
 9186TIP3   OH249048   5.534   2.698   5.531 -0.5611 -0.2661  0.4659
 9186TIP3    H149049   5.613   2.751   5.536  0.3846 -1.3951 -1.5805
 9186TIP3    H249050   5.549   2.626   5.593  0.8867 -1.4787 -1.1895
 9187TIP3   OH249051   5.721   3.483  11.791 -0.1732 -0.4127  0.1186
 9187TIP3    H149052   5.759   3.554  11.844  1.2190 -0.6590 -0.5012
 9187TIP3    H249053   5.656   3.526  11.736  2.1005  0.8181 -1.7567
 9188TIP3   OH249054   2.093   6.621   1.048  0.0206 -0.4522 -0.7039
 9188TIP3    H149055   2.069   6.681   0.978  0.5473 -1.9162 -2.2354
 9188TIP3    H249056   2.126   6.677   1.118 -0.4573  1.0700 -1.6457
 9189TIP3   OH249057   1.457   5.859  17.080  0.6041 -0.1266  0.5155
 9189TIP3    H149058   1.480   5.851  17.172 -0.3763 -0.1643  0.7611
 9189TIP3    H249059   1.443   5.953  17.067  0.4706 -0.1538  0.4658
 9190TIP3   OH249060   2.650   0.299  14.325  0.0781 -0.0439  0.5502
 9190TIP3    H149061   2.701   0.228  14.289 -1.1332 -0.9614  0.5717
 9190TIP3    H249062   2.640   0.361  14.252  0.3572 -0.3336  0.2629
 9191TIP3   OH249063   0.383   1.568   5.135 -0.2829 -0.7185  0.3550
 9191TIP3    H149064   0.393   1.486   5.183 -1.5478 -0.8586  0.4219
 9191TIP3    H249065   0.327   1.546   5.061  1.5037 -0.4640 -1.1378
 9192TIP3   OH249066   4.003   3.501   1.317 -0.0013  0.6822 -0.3288
 9192TIP3    H149067   3.913   3.492   1.348  0.0437 -0.0198 -0.3874
 9192TIP3    H249068   3.995   3.511   1.223  0.0255 -0.3378 -0.4482
 9193TIP3   OH249069   3.154   2.635  14.680 -0.5439  0.7355 -0.1248
 9193TIP3    H149070   3.059   2.621  14.686 -0.1990 -1.4040  1.7182
 9193TIP3    H249071   3.163   2.728  14.659 -3.0335  0.8729 -0.9500
 9194TIP3   OH249072   3.453   4.860   0.221 -0.1916  0.0458 -0.0981
 9194TIP3    H149073   3.535   4.851   0.269 -0.7742  0.6760  1.0487
 9194TIP3    H249074   3.421   4.770   0.213  0.7093 -0.2254 -0.7498
 9195TIP3   OH249075   2.788   1.485   6.440  0.5715 -0.0969 -0.3216
 9195TIP3    H149076   2.855   1.506   6.375 -1.5278  1.1809 -2.2154
 9195TIP3    H249077   2.825   1.517   6.522  2.7606 -0.5409 -1.0448
 9196TIP3   OH249078   2.495   2.165  11.773  0.0115 -0.6214  0.2076
 9196TIP3    H149079   2.463   2.246  11.813 -0.7804 -2.4832  3.7623
 9196TIP3    H249080   2.418   2.127  11.732 -0.1264 -0.6049  0.4484
 9197TIP3   OH249081   6.133   5.946   3.582  0.0118 -0.8256 -0.9390
 9197TIP3    H149082   6.088   6.009   3.526  0.5308 -1.6922 -2.3696
 9197TIP3    H249083   6.129   5.985   3.669 -0.6502  0.6472 -1.5935
 9198TIP3   OH249084   4.957   1.139  13.052  0.8447  0.1160 -0.0569
 9198TIP3    H149085   4.884   1.191  13.086 -0.3625 -0.7642 -1.1832
 9198TIP3    H249086   5.023   1.204  13.027 -0.0882  1.0357 -0.2061
 9199TIP3   OH249087   4.946   5.523  16.930  0.1500 -0.2981 -0.0303
 9199TIP3    H149088   5.002   5.589  16.970 -0.1814 -0.3241  0.4760
 9199TIP3    H249089   4.863   5.568  16.913 -0.0383 -0.5524  0.2119
 9200TIP3   OH249090   1.520   4.303  16.666 -0.4273  0.0113 -0.1140
 9200TIP3    H149091   1.535   4.272  16.756  0.3053  0.3967 -0.0922
 9200TIP3    H249092   1.428   4.330  16.665  0.1286  2.1982  1.2252
 9201TIP3   OH249093   1.314   4.269  10.905  0.2634 -0.0091 -0.4666
 9201TIP3    H149094   1.314   4.365  10.906  3.0071  0.0510 -0.4504
 9201TIP3    H249095   1.267   4.245  10.985  0.3443  1.3435  0.0174
 9202TIP3   OH249096   6.311   3.949   4.964  0.5877  0.1719 -0.3109
 9202TIP3    H149097   6.274   3.987   4.884  2.1043  0.3750 -0.9516
 9202TIP3    H249098   6.242   3.958   5.029 -0.8278 -0.3381 -1.6851
 9203TIP3   OH249099   5.787   6.302   5.059  0.0635 -0.5542  0.8938
 9203TIP3    H149100   5.855   6.353   5.103  2.7484 -2.1836 -1.0469
 9203TIP3    H249101   5.826   6.215   5.046 -1.9492 -1.2341 -1.4037
 9204TIP3   OH249102   5.959   0.769   1.740 -0.2419  0.2676 -0.3258
 9204TIP3    H149103   5.993   0.846   1.785  3.0470 -0.3495 -1.4572
 9204TIP3    H249104   5.874   0.797   1.705 -1.6312  1.6415  3.5807
 9205TIP3   OH249105   6.612   6.154   2.558 -0.1826  0.1410  0.2589
 9205TIP3    H149106   6.684   6.135   2.497 -1.6799  1.7228 -2.2171
 9205TIP3    H249107   6.630   6.243   2.588 -1.5668  0.9621 -1.2153
 9206TIP3   OH249108   1.087   5.439   0.045 -0.5859 -0.0763 -0.1074
 9206TIP3    H149109   1.110   5.350   0.070 -0.1732 -0.7781 -2.6618
 9206TIP3    H249110   1.160   5.493   0.076  0.6612 -1.1029 -1.1282
 9207TIP3   OH249111   2.788   2.805  14.772 -0.9852 -0.4007 -0.1725
 9207TIP3    H149112   2.716   2.857  14.809  0.6951  1.4728  0.6590
 9207TIP3    H249113   2.835   2.867  14.716  0.4496 -1.3480 -0.0611
 9208TIP3   OH249114   3.134   5.374   3.722 -0.6530  0.3322  0.1944
 9208TIP3    H149115   3.168   5.321   3.650 -0.7687  0.1974  0.2391
 9208TIP3    H249116   3.185   5.455   3.718 -0.7464  0.3768 -0.1158
 9209TIP3   OH249117   1.335   5.177  16.119 -0.5090 -0.2951 -0.8428
 9209TIP3    H149118   1.322   5.117  16.045  2.3386 -1.1636 -0.7462
 9209TIP3    H249119   1.429   5.175  16.136 -0.9930  0.0671  2.6570
 9210TIP3   OH249120   1.008   1.108   0.584  0.0969  0.2900 -0.5748
 9210TIP3    H149121   1.073   1.090   0.652  0.1968 -0.1997 -0.7923
 9210TIP3    H249122   0.947   1.169   0.624  0.8640  1.0158 -0.4628
 9211TIP3   OH249123   0.854   2.403  10.842  0.8759  0.0423 -0.1777
 9211TIP3    H149124   0.879   2.365  10.758 -0.5083 -2.4452  0.4199
 9211TIP3    H249125   0.909   2.358  10.906  0.8948  0.8414  0.3785
 9212TIP3   OH249126   0.754   3.739   3.621 -0.1359  0.6627  0.1338
 9212TIP3    H149127   0.769   3.775   3.708 -0.3594  1.8564 -0.3139
 9212TIP3    H249128   0.671   3.692   3.628 -0.2665  0.9470  0.5041
 9213TIP3   OH249129   0.121   6.504  15.798  0.0290 -0.0614  0.3094
 9213TIP3    H149130   0.202   6.503  15.849  0.8448 -0.3458 -0.9503
 9213TIP3    H249131   0.056   6.461  15.853  1.2881 -1.8230  0.4627
 9214TIP3   OH249132   2.594   3.391   5.523 -0.4470 -0.3620  0.1738
 9214TIP3    H149133   2.515   3.340   5.541 -1.1415  0.7098  0.2680
 9214TIP3    H249134   2.562   3.482   5.514  0.7770  0.0881  0.2408
 9215TIP3   OH249135   3.981   0.914   1.064 -0.3063 -0.4436  0.1393
 9215TIP3    H149136   3.995   0.933   0.971 -0.1065  0.7757  0.4015
 9215TIP3    H249137   4.001   0.996   1.108  0.2058 -1.1875  1.3249
 9216TIP3   OH249138   2.263   6.644  12.808 -0.1174  0.3156  0.5945
 9216TIP3    H149139   2.257   6.732  12.771  0.0638  0.2436  0.3874
 9216TIP3    H249140   2.304   6.592  12.738 -0.8487 -0.0848  0.4619
 9217TIP3   OH249141   4.905   1.033  11.123 -0.2716 -0.2452 -0.0413
 9217TIP3    H149142   4.972   1.100  11.137 -1.0284  0.3707  0.7876
 9217TIP3    H249143   4.909   0.978  11.201 -1.4068  0.4266  0.5249
 9218TIP3   OH249144   0.622   6.490   2.115  0.0736 -0.0246  0.5032
 9218TIP3    H149145   0.570   6.427   2.165 -0.8837 -1.5807 -2.2417
 9218TIP3    H249146   0.709   6.450   2.110 -0.2499 -0.6522 -0.3351
 9219TIP3   OH249147   5.501   6.300   3.279  0.0042 -0.0225  0.1052
 9219TIP3    H149148   5.588   6.336   3.298 -0.5652  0.6142  1.5882
 9219TIP3    H249149   5.468   6.354   3.207  0.9027 -0.4089 -0.6234
 9220TIP3   OH249150   0.867   1.879   4.799 -0.0431  0.2498  0.4754
 9220TIP3    H149151   0.932   1.913   4.737  0.6136 -0.2900  0.8532
 9220TIP3    H249152   0.803   1.949   4.808  0.6762  0.9307  0.3631
 9221TIP3   OH249153   4.908   6.350   3.946 -0.0950 -0.1820 -0.7480
 9221TIP3    H149154   4.904   6.436   3.903 -1.8971  0.7502  1.1041
 9221TIP3    H249155   4.980   6.358   4.009  1.2452 -0.8776 -2.1194
 9222TIP3   OH249156   6.814   1.655  12.392 -0.1206 -0.8367 -0.0049
 9222TIP3    H149157   6.777   1.589  12.334  0.2272 -1.9062  0.9701
 9222TIP3    H249158   6.813   1.615  12.479 -0.5758  0.7107  0.7361
 9223TIP3   OH249159   4.732   5.923  11.828 -0.1999 -0.3383 -0.6131
 9223TIP3    H149160   4.738   5.932  11.733  0.6532  0.2055 -0.5088
 9223TIP3    H249161   4.794   5.987  11.863 -0.9998 -0.0520  0.3276
 9224TIP3   OH249162   3.707   5.775  12.953 -0.2244 -0.1598 -0.5602
 9224TIP3    H149163   3.714   5.819  12.869  0.1075 -0.3441 -0.6302
 9224TIP3    H249164   3.634   5.819  12.997  0.2984  0.6735 -0.5014
 9225TIP3   OH249165   6.276   0.520  11.029 -0.0144  0.4682  0.2300
 9225TIP3    H149166   6.230   0.436  11.038  1.2844 -0.1977  0.8886
 9225TIP3    H249167   6.359   0.507  11.074  0.8321  1.6399 -0.9255
 9226TIP3   OH249168   2.560   3.479  15.194  0.4889  0.3157  0.0451
 9226TIP3    H149169   2.476   3.523  15.202  0.2755  0.0085 -0.4783
 9226TIP3    H249170   2.588   3.463  15.284 -0.9064 -1.2807  0.2250
 9227TIP3   OH249171   4.928   6.453  12.094  0.0267  0.4112  0.3328
 9227TIP3    H149172   4.847   6.421  12.055  0.7100  1.8796 -2.5669
 9227TIP3    H249173   4.973   6.374  12.124  0.2934 -1.2056 -3.7663
 9228TIP3   OH249174   5.092   2.001   5.343  0.5683 -0.2995 -0.4506
 9228TIP3    H149175   5.180   1.975   5.319  1.0701 -0.6668  1.5787
 9228TIP3    H249176   5.064   1.936   5.407 -1.9875 -1.3389 -2.4763
 9229TIP3   OH249177   4.985   3.549  15.630 -0.0779  0.3987 -0.4016
 9229TIP3    H149178   5.027   3.467  15.658 -1.8155 -0.3651  0.0880
 9229TIP3    H249179   5.016   3.613  15.694 -0.0963 -0.2716  0.3044
 9230TIP3   OH249180   0.011   0.218   3.070 -0.2573 -0.6023  0.4932
 9230TIP3    H149181   0.063   0.295   3.045  0.7912 -1.5517 -0.3361
 9230TIP3    H249182   0.037   0.151   3.007 -1.7355 -1.4132  0.7322
 9231TIP3   OH249183   4.983   5.777   0.275  0.5062 -0.2613 -0.6630
 9231TIP3    H149184   5.009   5.750   0.363 -1.0080 -0.5302 -0.2866
 9231TIP3    H249185   5.039   5.853   0.256  0.8989 -0.2523  0.4859
 9232TIP3   OH249186   4.748   3.685  11.069 -0.0919 -0.0754 -0.2084
 9232TIP3    H149187   4.742   3.645  11.156 -0.6997  0.3907 -0.0226
 9232TIP3    H249188   4.666   3.659  11.026  0.7425 -1.3244 -1.0996
 9233TIP3   OH249189   0.478   0.218  12.739  0.2094  0.2139 -0.1771
 9233TIP3    H149190   0.562   0.190  12.702 -0.1448  1.7395 -2.3798
 9233TIP3    H249191   0.436   0.137  12.766  1.8647 -0.7005 -0.1690
 9234TIP3   OH249192   0.998   1.582   5.983  0.1541  0.0205 -0.0915
 9234TIP3    H149193   0.929   1.584   6.048  0.7094  0.2499  0.5028
 9234TIP3    H249194   1.078   1.602   6.032  0.4751  1.0321 -0.9924
 9235TIP3   OH249195   6.407   4.451   3.530  0.2576 -0.2223  0.0510
 9235TIP3    H149196   6.372   4.502   3.603  0.8982 -0.4265  0.5019
 9235TIP3    H249197   6.331   4.402   3.498  0.4771 -2.3764  2.4382
 9236TIP3   OH249198   4.031   3.395   2.851  0.4327 -0.1302 -0.2258
 9236TIP3    H149199   4.017   3.336   2.924  0.3490 -0.5282 -0.5592
 9236TIP3    H249200   4.073   3.342   2.784 -2.9679 -0.8942 -1.9833
 9237TIP3   OH249201   4.846   6.564   1.320 -0.2023  0.2839 -0.1340
 9237TIP3    H149202   4.923   6.619   1.306  0.8859 -1.0495  0.4769
 9237TIP3    H249203   4.790   6.616   1.378  1.1330  0.4638  1.0228
 9238TIP3   OH249204   4.148   4.278  14.777  0.0636  0.5516  0.2769
 9238TIP3    H149205   4.185   4.232  14.852 -0.2604  1.7115  1.1685
 9238TIP3    H249206   4.074   4.224  14.750  0.3955 -0.0590  0.5624
 9239TIP3   OH249207   0.326   4.069   5.376  0.3606 -0.5510  0.4517
 9239TIP3    H149208   0.316   4.138   5.441  3.0339 -1.8032  2.3336
 9239TIP3    H249209   0.253   4.010   5.393  0.3978 -0.2961  1.5754
 9240TIP3   OH249210   2.509   5.118  15.052 -0.6810  0.2535 -0.5846
 9240TIP3    H149211   2.558   5.183  15.103  2.4516 -2.6207  0.4213
 9240TIP3    H249212   2.559   5.109  14.971  0.0822 -2.1295  0.0787
 9241TIP3   OH249213   1.622   3.780  14.760  0.1005  0.1046 -0.0446
 9241TIP3    H149214   1.674   3.790  14.681 -0.2327 -0.6845 -0.3813
 9241TIP3    H249215   1.629   3.687  14.782 -1.3946 -0.1051 -0.2868
 9242TIP3   OH249216   6.320   0.718  12.278  0.2914  0.6040 -0.8192
 9242TIP3    H149217   6.268   0.746  12.203 -0.5524  0.1042 -0.4326
 9242TIP3    H249218   6.326   0.795  12.334 -0.1872  0.6151 -0.7827
 9243TIP3   OH249219   2.712   4.049  10.530 -0.4824  0.2836 -0.1647
 9243TIP3    H149220   2.780   4.007  10.477 -0.8346 -0.9777  0.3436
 9243TIP3    H249221   2.648   4.079  10.467 -0.0151  0.4376 -0.5736
 9244TIP3   OH249222   0.447   0.658  11.492  0.5074  0.1709 -0.1626
 9244TIP3    H149223   0.441   0.750  11.516  0.3209 -0.2269  1.3679
 9244TIP3    H249224   0.378   0.646  11.426 -0.4549  0.8072  0.6926
 9245TIP3   OH249225   5.927   2.618  13.486 -0.5633 -0.1028  0.5475
 9245TIP3    H149226   5.998   2.554  13.486 -0.1764  0.2625 -1.2670
 9245TIP3    H249227   5.852   2.571  13.522 -0.7652 -2.2268 -2.2741
 9246TIP3   OH249228   4.880   0.763   1.349 -0.0354 -0.2895 -0.4464
 9246TIP3    H149229   4.803   0.771   1.293  0.1521  1.1830 -0.5472
 9246TIP3    H249230   4.954   0.755   1.289  0.1070  0.7204 -0.4353
 9247TIP3   OH249231   0.189   4.042   3.046  0.3456 -0.2311 -0.0657
 9247TIP3    H149232   0.229   3.985   3.112 -0.0988 -0.1406  0.2793
 9247TIP3    H249233   0.101   4.059   3.078 -0.0240 -0.5294 -0.8907
 9248TIP3   OH249234   3.048   1.607  14.230 -0.0791  0.1787  0.1774
 9248TIP3    H149235   3.118   1.645  14.176  1.3683 -1.7639  0.5745
 9248TIP3    H249236   3.076   1.622  14.320 -0.7370  0.3287  0.3622
 9249TIP3   OH249237   2.457   3.908  13.554  0.7801 -0.5759 -0.0852
 9249TIP3    H149238   2.438   3.993  13.515  3.9343 -0.3940 -1.6494
 9249TIP3    H249239   2.477   3.926  13.645  0.8379  0.2886 -0.2647
 9250TIP3   OH249240   5.392   6.150  13.101  0.0438 -0.0519 -0.1617
 9250TIP3    H149241   5.359   6.060  13.105  1.5372 -0.6169  0.2346
 9250TIP3    H249242   5.478   6.142  13.059  1.0216  0.9150  1.5390
 9251TIP3   OH249243   5.100   4.001   0.558  0.2852  0.6686  0.4516
 9251TIP3    H149244   5.173   4.063   0.555  0.9351 -0.0430  1.1616
 9251TIP3    H249245   5.128   3.929   0.502 -1.0006  1.5275 -1.3944
 9252TIP3   OH249246   4.001   5.480   4.182  0.3228  0.1995  0.0489
 9252TIP3    H149247   4.085   5.527   4.187  0.7357 -0.3230 -1.5583
 9252TIP3    H249248   4.003   5.436   4.097 -0.3667 -2.1570  1.1738
 9253TIP3   OH249249   3.981   3.994  16.500 -0.4506 -0.4827 -0.4438
 9253TIP3    H149250   4.055   3.982  16.559  0.4819  2.1734 -0.8904
 9253TIP3    H249251   3.904   3.976  16.553  0.4325 -2.8930  0.1568
 9254TIP3   OH249252   6.181   4.190  13.119  0.2355 -0.7067 -0.3131
 9254TIP3    H149253   6.107   4.188  13.059 -0.3660 -0.3120  0.4034
 9254TIP3    H249254   6.160   4.125  13.186  0.9125 -1.1612 -0.5289
 9255TIP3   OH249255   3.226   1.106  11.319 -0.2583 -0.0147 -0.6003
 9255TIP3    H149256   3.193   1.175  11.262  1.0343  1.6850  0.5755
 9255TIP3    H249257   3.314   1.088  11.286  0.6033  1.1604  0.8711
 9256TIP3   OH249258   6.181   6.173   5.675 -0.2669  0.8553 -0.8471
 9256TIP3    H149259   6.156   6.087   5.708 -0.1656  0.7617 -1.0176
 9256TIP3    H249260   6.264   6.159   5.630 -0.2921  1.0270 -0.9487
 9257TIP3   OH249261   1.526   1.659  15.989  0.2713  0.1134 -0.3306
 9257TIP3    H149262   1.524   1.749  16.021  0.3792  0.4627 -1.2653
 9257TIP3    H249263   1.506   1.606  16.065  0.6186  0.9058  0.3251
 9258TIP3   OH249264   5.245   0.552   5.418 -0.2647 -0.2664 -0.1759
 9258TIP3    H149265   5.319   0.495   5.437  0.6900  0.6931 -0.8716
 9258TIP3    H249266   5.256   0.626   5.479 -1.2214 -0.5830  0.3979
 9259TIP3   OH249267   4.866   5.327  11.446 -0.4734 -0.2410 -0.3918
 9259TIP3    H149268   4.796   5.382  11.481 -0.2548  0.5361 -1.1254
 9259TIP3    H249269   4.824   5.244  11.424 -1.2203  0.2768 -0.9928
 9260TIP3   OH249270   5.395   6.110   1.931  0.7477  0.3141  0.0191
 9260TIP3    H149271   5.475   6.151   1.963 -0.7755  3.2688  0.3632
 9260TIP3    H249272   5.351   6.179   1.882 -1.4711 -1.3020 -0.4143
 9261TIP3   OH249273   0.861   2.639   2.293  0.1438 -0.2937 -0.0725
 9261TIP3    H149274   0.767   2.636   2.307  0.4057 -1.2076  1.7154
 9261TIP3    H249275   0.875   2.717   2.239 -1.5146  0.4914  0.5953
 9262TIP3   OH249276   4.215   3.742   4.651 -0.1785  0.0909  0.0080
 9262TIP3    H149277   4.268   3.676   4.697  0.1441 -0.2604 -0.8463
 9262TIP3    H249278   4.130   3.700   4.637  0.0079 -0.1294 -0.4833
 9263TIP3   OH249279   6.560   5.380  12.491  0.4500  0.0093 -0.1504
 9263TIP3    H149280   6.525   5.296  12.462 -1.0841 -0.0904  1.7670
 9263TIP3    H249281   6.645   5.387  12.448 -0.0317 -1.8158 -1.5225
 9264TIP3   OH249282   3.895   5.716   3.182  0.3429 -0.2152 -0.2184
 9264TIP3    H149283   3.910   5.668   3.264  0.0862 -1.3184 -0.7893
 9264TIP3    H249284   3.982   5.739   3.151  0.5139 -0.9063 -0.2656
 9265TIP3   OH249285   2.963   2.245  14.333  0.7859  0.3249  0.2063
 9265TIP3    H149286   3.036   2.188  14.309  0.5652  0.9106 -2.1773
 9265TIP3    H249287   2.885   2.190  14.325  0.6826  0.6018 -0.8814
 9266TIP3   OH249288   5.621   5.906  13.198  0.1949  0.1960 -0.0163
 9266TIP3    H149289   5.632   5.998  13.174  0.4134 -0.0336 -0.8245
 9266TIP3    H249290   5.531   5.885  13.171 -0.1714  0.4109  0.9973
 9267TIP3   OH249291   0.752   2.774   5.852  0.1233  0.5955  0.1059
 9267TIP3    H149292   0.771   2.783   5.945 -1.3904  3.7125  0.2764
 9267TIP3    H249293   0.807   2.840   5.809  1.0045 -0.9686 -1.3156
 9268TIP3   OH249294   1.128   2.453  16.811  0.2645 -0.2835  0.2279
 9268TIP3    H149295   1.139   2.481  16.902  0.2855  0.6823 -0.0609
 9268TIP3    H249296   1.035   2.465  16.793  0.5275  1.0283 -0.3433
 9269TIP3   OH249297   3.741   5.397  13.003  0.2713 -0.1730 -0.0579
 9269TIP3    H149298   3.814   5.336  12.992 -0.6143 -0.9077 -2.4917
 9269TIP3    H249299   3.748   5.456  12.928 -0.9742  0.4742  0.3150
 9270TIP3   OH249300   3.856   5.414  13.313  0.0402 -0.0739 -0.3503
 9270TIP3    H149301   3.824   5.496  13.277 -0.8089 -0.9649 -1.7369
 9270TIP3    H249302   3.846   5.351  13.241  3.2880 -0.8174 -0.2715
 9271TIP3   OH249303   3.988   0.381  13.107  0.1370 -0.0354  0.1933
 9271TIP3    H149304   4.068   0.423  13.140 -1.2593  1.8457  1.3884
 9271TIP3    H249305   3.935   0.454  13.074 -2.4605 -0.7632  2.4117
 9272TIP3   OH249306   3.991   1.718   4.791 -0.2081 -0.2214 -0.5603
 9272TIP3    H149307   3.937   1.795   4.773 -0.3652  0.4782  2.3776
 9272TIP3    H249308   4.032   1.737   4.875  1.0398 -2.6951 -0.5234
 9273TIP3   OH249309   3.337   3.011   2.030  0.6556 -0.1478  0.5291
 9273TIP3    H149310   3.400   2.952   2.071  0.2253  0.3259  1.9275
 9273TIP3    H249311   3.265   2.954   2.004  1.8180 -0.7734 -1.5439
 9274TIP3   OH249312   2.322   6.028   1.089  0.2195 -0.2960 -0.3994
 9274TIP3    H149313   2.349   6.079   1.013  3.0244 -0.8411  0.1135
 9274TIP3    H249314   2.338   6.086   1.164  1.5632 -1.1824  0.0396
 9275TIP3   OH249315   2.526   3.065  16.169 -0.0411 -0.2218  0.2107
 9275TIP3    H149316   2.619   3.090  16.162 -0.3813  1.0893 -0.0491
 9275TIP3    H249317   2.527   2.976  16.203  1.2943  0.1652  1.2666
 9276TIP3   OH249318   1.725   0.115  12.994 -0.6457 -0.0042 -0.4551
 9276TIP3    H149319   1.738   0.178  12.923  3.8085  2.3041  2.0018
 9276TIP3    H249320   1.661   0.157  13.052  0.6862  1.3506  0.0910
 9277TIP3   OH249321   3.987   6.415   5.924 -0.2015 -0.2197  0.2517
 9277TIP3    H149322   3.956   6.328   5.948 -1.7363  0.5191  1.0771
 9277TIP3    H249323   3.961   6.471   5.997  1.5881  0.7950  0.1878
 9278TIP3   OH249324   3.418   6.103  12.423 -0.2432 -0.1221  0.1192
 9278TIP3    H149325   3.439   6.010  12.424 -0.2858 -0.1625  2.4035
 9278TIP3    H249326   3.334   6.110  12.470  0.7896  1.2159  1.9354
 9279TIP3   OH249327   5.405   4.136  15.604  0.0289 -0.5243  0.2867
 9279TIP3    H149328   5.409   4.185  15.686  0.2870  0.7810 -0.4803
 9279TIP3    H249329   5.313   4.139  15.579 -0.1954 -1.6107  0.9068
 9280TIP3   OH249330   5.715   4.176   2.156 -0.2416 -0.2637 -0.1897
 9280TIP3    H149331   5.782   4.209   2.216  0.6816 -1.3276 -0.5977
 9280TIP3    H249332   5.733   4.082   2.150 -0.4931 -0.2274 -1.9177
 9281TIP3   OH249333   0.033   4.942   5.147  0.3232 -0.0567 -0.2549
 9281TIP3    H149334   0.075   4.971   5.228  1.2277  1.3122 -1.1646
 9281TIP3    H249335  -0.030   5.011   5.126  0.5235 -0.0942 -1.0168
 9282TIP3   OH249336   1.616   5.432   5.280 -0.5927 -0.1518  0.2736
 9282TIP3    H149337   1.693   5.477   5.314 -0.4356 -0.3772  0.2179
 9282TIP3    H249338   1.612   5.350   5.330  0.8698 -1.5003 -1.6466
 9283TIP3   OH249339   4.090   1.222  11.901 -0.2186 -0.1817 -0.6780
 9283TIP3    H149340   4.099   1.211  11.807 -0.5905 -0.0957 -0.7245
 9283TIP3    H249341   3.997   1.238  11.915 -0.0550  0.6033 -0.3844
 9284TIP3   OH249342   0.315   0.631  11.242  0.3328 -0.6911 -0.2466
 9284TIP3    H149343   0.314   0.717  11.199  1.2546 -0.1615  0.7471
 9284TIP3    H249344   0.230   0.593  11.220  0.5884 -0.2847 -2.1820
 9285TIP3   OH249345   2.053   1.723  14.849 -0.0803 -0.2629 -0.5766
 9285TIP3    H149346   2.117   1.779  14.806 -0.3906  0.7180  0.2178
 9285TIP3    H249347   2.035   1.654  14.785  1.7671 -0.5735 -0.8065
 9286TIP3   OH249348   4.532   4.725  15.598  0.2585  0.4320 -0.2757
 9286TIP3    H149349   4.557   4.673  15.675  0.5863 -0.8226 -1.2028
 9286TIP3    H249350   4.447   4.689  15.572 -0.7749  2.1326  0.6041
 9287TIP3   OH249351   5.718   5.223   1.921  0.6148  0.3235  0.4018
 9287TIP3    H149352   5.779   5.278   1.873 -0.8620  1.8278  0.1561
 9287TIP3    H249353   5.688   5.158   1.856 -0.0770  1.2870 -0.2842
 9288TIP3   OH249354   4.917   3.963  12.571  0.0729  0.0137  0.5745
 9288TIP3    H149355   4.863   3.956  12.492  0.8239 -0.2021  0.0715
 9288TIP3    H249356   4.999   4.001  12.541  0.3021  0.0969  1.2868
 9289TIP3   OH249357   2.465   0.711   1.127  0.2264 -0.5023 -0.7983
 9289TIP3    H149358   2.480   0.723   1.033  0.7058 -0.4130 -0.7089
 9289TIP3    H249359   2.430   0.795   1.157 -1.0543 -0.8952 -1.1191
 9290TIP3   OH249360   4.145   1.895   0.543 -0.0304 -0.5180 -0.2552
 9290TIP3    H149361   4.073   1.938   0.499  1.4946  0.6628 -1.7278
 9290TIP3    H249362   4.218   1.898   0.480  1.0255 -2.5955  0.7426
 9291TIP3   OH249363   4.521   4.855  11.676  0.3076 -0.6159 -0.0037
 9291TIP3    H149364   4.605   4.811  11.689  1.1058  1.4726  3.5921
 9291TIP3    H249365   4.477   4.846  11.761 -1.3080  1.7299 -0.5119
 9292TIP3   OH249366   2.316   2.295  12.868  0.1782  0.0740  0.0267
 9292TIP3    H149367   2.251   2.364  12.877  0.0659  0.0308 -0.4024
 9292TIP3    H249368   2.290   2.228  12.931  0.1461  0.3160  0.2675
 9293TIP3   OH249369   0.436   2.036   5.553  0.2977  0.2017  1.0918
 9293TIP3    H149370   0.341   2.039   5.556  0.2983  0.9149  0.6941
 9293TIP3    H249371   0.463   2.008   5.640 -0.3119 -1.3598  0.8192
 9294TIP3   OH249372   2.362   5.733  16.808 -0.3177  0.0688 -0.1208
 9294TIP3    H149373   2.294   5.743  16.875  0.4475  1.8322  0.4662
 9294TIP3    H249374   2.337   5.655  16.759 -1.4224 -0.7374  1.6224
 9295TIP3   OH249375   2.562   5.247  15.660  0.2834  1.1160 -0.3446
 9295TIP3    H149376   2.494   5.306  15.693 -1.3061 -1.5543  1.5296
 9295TIP3    H249377   2.632   5.250  15.725 -0.0678  0.5153  0.0676
 9296TIP3   OH249378   5.742   4.538   2.987 -0.4275  0.5782  0.4231
 9296TIP3    H149379   5.696   4.456   2.970 -0.4738  0.4938  0.9268
 9296TIP3    H249380   5.673   4.603   2.999 -0.4056  1.2978 -2.6222
 9297TIP3   OH249381   1.278   5.354  11.040  0.0738 -0.4712  0.3397
 9297TIP3    H149382   1.268   5.412  10.965 -0.4160 -0.5395  0.3466
 9297TIP3    H249383   1.349   5.296  11.017 -1.4031 -1.8491 -0.9593
 9298TIP3   OH249384   0.974   4.119  16.549  0.1578  0.0238 -0.1211
 9298TIP3    H149385   1.045   4.135  16.487 -0.8153  1.9190 -0.8332
 9298TIP3    H249386   0.952   4.026  16.537  0.1737  0.2544 -2.4495
 9299TIP3   OH249387   2.838   5.579  12.924  0.6288  0.2838  0.8734
 9299TIP3    H149388   2.800   5.661  12.891  0.9256  0.2626  0.4610
 9299TIP3    H249389   2.842   5.522  12.847  2.0312  0.4884  0.7550
 9300TIP3   OH249390   2.343   6.685   3.965 -0.5407 -0.1925 -0.6915
 9300TIP3    H149391   2.263   6.692   4.018 -1.4349  2.2908 -2.1621
 9300TIP3    H249392   2.407   6.738   4.012 -0.6270  0.1100 -0.9126
 9301TIP3   OH249393   0.335   5.168  12.339  0.2402 -0.4656 -0.1616
 9301TIP3    H149394   0.415   5.197  12.295  0.2294  0.3898  0.3476
 9301TIP3    H249395   0.363   5.150  12.429  0.0890 -1.3391 -0.2776
 9302TIP3   OH249396   2.219   0.062  11.258 -0.3998 -0.0304 -0.2245
 9302TIP3    H149397   2.181   0.120  11.324 -0.6670 -1.4493  0.9020
 9302TIP3    H249398   2.312   0.083  11.258 -0.2070 -0.7299  1.4044
 9303TIP3   OH249399   2.662   2.458  11.733 -0.5402  0.5657 -0.0421
 9303TIP3    H149400   2.742   2.437  11.781  0.5411  0.7160 -1.6868
 9303TIP3    H249401   2.592   2.446  11.797  0.6632 -0.8778  1.0998
 9304TIP3   OH249402   1.853   0.141  16.081  0.4414  0.2300  0.3274
 9304TIP3    H149403   1.807   0.175  16.005 -0.9644 -1.1524  0.4940
 9304TIP3    H249404   1.792   0.154  16.154  1.1450  0.1713  0.9363
 9305TIP3   OH249405   3.499   0.191   5.782 -0.2355  0.4212  0.2824
 9305TIP3    H149406   3.480   0.170   5.873 -0.0955 -1.2427 -0.0414
 9305TIP3    H249407   3.419   0.170   5.735  0.3995 -0.8934 -0.2640
 9306TIP3   OH249408   4.790   3.741  11.702  0.2545  0.2697 -0.6675
 9306TIP3    H149409   4.790   3.697  11.787  0.5626 -0.5097 -1.0637
 9306TIP3    H249410   4.881   3.766  11.688  0.2241  0.2974 -0.8169
 9307TIP3   OH249411   1.246   3.344  16.390  0.2636 -0.2641 -0.1558
 9307TIP3    H149412   1.275   3.390  16.311  0.6857  0.7389  0.5469
 9307TIP3    H249413   1.313   3.277  16.405  0.0079 -0.6743 -0.8204
 9308TIP3   OH249414   6.242   5.127   0.496 -0.1521  0.2981 -0.1777
 9308TIP3    H149415   6.293   5.201   0.531  0.2179 -0.8216  1.7835
 9308TIP3    H249416   6.304   5.078   0.443 -0.1586  0.8517 -0.7177
 9309TIP3   OH249417   3.954   2.452   0.379 -0.6227  0.3294  0.1491
 9309TIP3    H149418   3.980   2.381   0.438 -0.3312 -0.7439 -1.2289
 9309TIP3    H249419   3.858   2.448   0.377 -0.5813 -0.4776 -0.4480
 9310TIP3   OH249420   3.015   5.059   1.527  0.4324  0.3091  0.5259
 9310TIP3    H149421   3.101   5.090   1.554  0.6439  0.4627 -0.2854
 9310TIP3    H249422   3.009   5.082   1.434 -0.0365 -0.6762  0.2911
 9311TIP3   OH249423   1.501   5.963   2.786 -0.0550  0.0745 -0.3981
 9311TIP3    H149424   1.582   5.914   2.772  0.8170  1.4417 -0.4157
 9311TIP3    H249425   1.529   6.043   2.832 -1.3155  0.8219 -0.8564
 9312TIP3   OH249426   2.434   6.750   0.479  0.3767  0.6092  0.0860
 9312TIP3    H149427   2.354   6.753   0.532  0.3749 -0.4389  0.1620
 9312TIP3    H249428   2.420   6.677   0.419  2.1859 -1.1267  1.6173
 9313TIP3   OH249429   2.608   0.440  15.289 -0.3124 -0.0828 -0.2166
 9313TIP3    H149430   2.599   0.415  15.197  0.7212 -0.6118 -0.1763
 9313TIP3    H249431   2.701   0.432  15.308 -0.5355 -0.1156  0.9266
 9314TIP3   OH249432   4.334   5.922   5.543 -0.4886  0.1662  0.2953
 9314TIP3    H149433   4.404   5.886   5.597 -1.2438  0.3996  1.4438
 9314TIP3    H249434   4.380   5.960   5.467  0.5247 -0.6684  0.4752
 9315TIP3   OH249435   5.283   0.728   4.750 -0.9262  0.3196 -0.4028
 9315TIP3    H149436   5.237   0.811   4.759 -1.2168  0.1091  0.0471
 9315TIP3    H249437   5.370   0.745   4.786 -0.0246  1.2138 -2.7956
 9316TIP3   OH249438   6.329   2.796  12.455 -0.4822 -0.7317  0.1849
 9316TIP3    H149439   6.397   2.830  12.397  0.3074 -0.2181  1.3719
 9316TIP3    H249440   6.283   2.731  12.403 -0.5212  0.4953 -1.3895
 9317TIP3   OH249441   2.285   1.790  12.538  0.6847 -0.2020 -0.6066
 9317TIP3    H149442   2.194   1.766  12.523  0.4102 -0.0319  0.6932
 9317TIP3    H249443   2.336   1.717  12.503 -0.0432 -1.3894  0.7481
 9318TIP3   OH249444   6.066   4.586  16.507 -0.4126 -0.9463  0.1117
 9318TIP3    H149445   6.066   4.583  16.603  0.4026 -0.9326  0.1240
 9318TIP3    H249446   5.983   4.628  16.484  0.2884  1.0218  0.8921
 9319TIP3   OH249447   5.444   3.772   3.871 -0.1790  0.6503 -0.3614
 9319TIP3    H149448   5.411   3.843   3.926  0.3956  1.4998 -1.0877
 9319TIP3    H249449   5.511   3.729   3.925 -0.5245  0.6613  0.0778
 9320TIP3   OH249450   5.945   0.705  13.632 -0.2974 -0.2496 -0.6295
 9320TIP3    H149451   5.994   0.775  13.589 -0.1440 -0.1222 -0.2581
 9320TIP3    H249452   5.972   0.710  13.724  1.0285 -1.8700 -0.8718
 9321TIP3   OH249453   5.796   2.211   1.376  0.0486  0.2397  0.0614
 9321TIP3    H149454   5.740   2.272   1.329 -0.8955  0.7544  1.7790
 9321TIP3    H249455   5.862   2.267   1.418  2.8618 -0.4353 -3.0212
 9322TIP3   OH249456   3.091   5.966  15.163  0.0012 -0.4006  0.2839
 9322TIP3    H149457   3.152   6.037  15.143 -1.2099  0.4472 -0.5637
 9322TIP3    H249458   3.090   5.912  15.084 -0.7237 -0.1042  0.0799
 9323TIP3   OH249459   4.954   0.397  15.198  0.0913  0.9915 -0.5756
 9323TIP3    H149460   4.970   0.491  15.201 -0.4802  1.0712  0.5239
 9323TIP3    H249461   4.860   0.388  15.217  0.0743  0.2134 -0.9748
 9324TIP3   OH249462   3.971   2.563  13.839 -0.0046 -0.1261 -0.2491
 9324TIP3    H149463   4.046   2.504  13.840 -0.2026 -0.4414  1.9994
 9324TIP3    H249464   3.895   2.506  13.824 -0.1382 -0.4118  1.3500
 9325TIP3   OH249465   3.842   4.188   5.181  0.2703 -0.5776  0.0639
 9325TIP3    H149466   3.812   4.099   5.161 -0.8232 -0.7204  2.0827
 9325TIP3    H249467   3.785   4.217   5.252  3.0630  0.3039  2.1123
 9326TIP3   OH249468   1.087   3.790  11.175  0.3173 -0.7170 -0.2544
 9326TIP3    H149469   1.168   3.791  11.124  1.0788  4.2339  0.5436
 9326TIP3    H249470   1.022   3.832  11.119 -1.0572 -2.2264  0.1200
 9327TIP3   OH249471   5.201   5.742   4.905 -0.1138 -0.1461 -0.3625
 9327TIP3    H149472   5.269   5.729   4.839 -0.6578 -1.0099 -0.7827
 9327TIP3    H249473   5.171   5.832   4.892  1.8156  0.7191  0.6962
 9328TIP3   OH249474   2.768   1.766   3.513  0.4364  0.4694 -0.0049
 9328TIP3    H149475   2.718   1.689   3.537 -0.5536  0.1299 -2.8217
 9328TIP3    H249476   2.828   1.779   3.586 -1.0409 -1.4749  1.6634
 9329TIP3   OH249477   3.738   4.830  15.296 -0.2541 -0.3444  0.0612
 9329TIP3    H149478   3.834   4.831  15.289 -0.1347  1.7795  1.2208
 9329TIP3    H249479   3.717   4.738  15.312  1.5160 -0.9756 -0.8817
 9330TIP3   OH249480   4.596   1.695   0.172  0.3205  0.5369 -0.4841
 9330TIP3    H149481   4.542   1.669   0.246  0.1207 -1.1834 -1.1819
 9330TIP3    H249482   4.539   1.685   0.096  1.4146 -0.8053 -1.1807
 9331TIP3   OH249483   6.486   2.792  14.977 -0.7995  0.3304  0.4167
 9331TIP3    H149484   6.579   2.813  14.990 -0.5799  0.3112 -0.9906
 9331TIP3    H249485   6.480   2.769  14.885 -2.2202  0.3599  0.4922
 9332TIP3   OH249486   2.323   3.255  14.087 -0.3026 -0.2984 -0.3032
 9332TIP3    H149487   2.238   3.272  14.046 -0.2669  2.2102  0.4753
 9332TIP3    H249488   2.375   3.333  14.065  2.6850 -2.7240 -2.7584
 9333TIP3   OH249489   0.861   2.373   4.645  0.1893  0.1949 -0.1370
 9333TIP3    H149490   0.944   2.324   4.652 -0.2810 -1.1083 -2.4837
 9333TIP3    H249491   0.860   2.405   4.555 -2.1635 -0.4380 -0.3913
 9334TIP3   OH249492   1.564   5.142  14.261 -0.1983  0.7202  0.7273
 9334TIP3    H149493   1.573   5.118  14.169  1.0930 -0.9565  1.2587
 9334TIP3    H249494   1.469   5.153  14.273 -0.3440  1.6369 -0.9211
 9335TIP3   OH249495   2.907   4.064  13.154  0.4596  0.4212  0.4639
 9335TIP3    H149496   2.940   4.144  13.113  2.4994 -0.3874  0.4158
 9335TIP3    H249497   2.960   3.994  13.116  0.2712 -0.7115  2.1671
 9336TIP3   OH249498   3.458   5.824  12.512  0.1707 -0.1716  0.1590
 9336TIP3    H149499   3.505   5.755  12.558  0.2191  0.5621  1.2505
 9336TIP3    H249500   3.467   5.802  12.419  2.5845 -0.1043  0.3220
 9337TIP3   OH249501   0.493   4.014  11.087  0.3628  0.1690  0.2923
 9337TIP3    H149502   0.418   3.968  11.124  0.7053 -0.8994 -0.2970
 9337TIP3    H249503   0.496   3.985  10.995  1.9896 -0.5020  0.5241
 9338TIP3   OH249504   3.002   4.164   6.100 -0.2989 -0.5032  0.2343
 9338TIP3    H149505   2.981   4.194   6.011 -1.8456 -1.8384  0.0925
 9338TIP3    H249506   3.098   4.157   6.101 -0.0806  1.7817 -0.5433
 9339TIP3   OH249507   4.972   4.483   4.554 -0.8062 -0.1854 -0.0190
 9339TIP3    H149508   4.957   4.519   4.642 -0.8621 -0.2802  0.0105
 9339TIP3    H249509   5.036   4.413   4.568 -0.0945  0.4192 -0.1862
 9340TIP3   OH249510   1.085   0.535  11.253  0.9842  0.4764 -0.3231
 9340TIP3    H149511   1.026   0.610  11.265  0.4931  0.0666 -0.1542
 9340TIP3    H249512   1.029   0.466  11.218  1.2320 -0.1171  0.4216
 9341TIP3   OH249513   0.481   6.400  14.115 -0.6374  0.8122  0.9719
 9341TIP3    H149514   0.495   6.493  14.094  2.6610 -0.1716 -2.2545
 9341TIP3    H249515   0.547   6.380  14.182 -0.9492  0.6557  1.2344
 9342TIP3   OH249516   2.801   4.637   2.962 -0.2481 -0.3270  0.0867
 9342TIP3    H149517   2.746   4.600   3.031 -2.0302 -1.3970 -1.7994
 9342TIP3    H249518   2.852   4.705   3.006 -3.1475  0.7984  1.9494
 9343TIP3   OH249519   3.042   1.618  13.752 -0.1154 -0.0969  0.0120
 9343TIP3    H149520   3.114   1.559  13.774  0.2838  0.7970  1.2719
 9343TIP3    H249521   3.059   1.645  13.662  0.8391 -0.3112  0.1233
 9344TIP3   OH249522   1.390   0.863   0.029 -0.0155  0.2652  0.6136
 9344TIP3    H149523   1.305   0.905   0.013  0.7002  1.4177 -0.2990
 9344TIP3    H249524   1.413   0.891   0.118 -1.1165 -1.0580  1.3682
 9345TIP3   OH249525   5.336   3.992  11.994  0.1621  0.5464 -0.3309
 9345TIP3    H149526   5.375   3.910  12.026  1.3191  0.6504 -1.4290
 9345TIP3    H249527   5.253   3.964  11.955  0.0210  0.0552  0.2939
 9346TIP3   OH249528   2.292   4.139  10.729 -0.1995 -0.3274  0.0447
 9346TIP3    H149529   2.262   4.048  10.728 -0.7756 -0.1493 -1.6257
 9346TIP3    H249530   2.383   4.134  10.758 -0.3075 -1.4145  0.2335
 9347TIP3   OH249531   3.427   3.651   0.034 -0.0069  0.3710 -0.4784
 9347TIP3    H149532   3.346   3.601   0.032  0.0717  0.1836  0.7397
 9347TIP3    H249533   3.420   3.707   0.112  1.6940 -0.7937  0.5742
 9348TIP3   OH249534   5.926   3.015   0.929  0.2806  0.2965  0.4442
 9348TIP3    H149535   5.937   3.077   1.001 -3.5381  2.1007 -0.2858
 9348TIP3    H249536   5.858   2.955   0.958 -2.0595  1.6431 -1.7982
 9349TIP3   OH249537   5.768   4.228   0.405 -0.1959 -0.3157  0.1544
 9349TIP3    H149538   5.843   4.280   0.378  0.0086 -0.8472 -0.3414
 9349TIP3    H249539   5.805   4.146   0.436 -0.5780 -0.6987 -0.3721
 9350TIP3   OH249540   1.905   0.625  15.346  0.0750 -0.5723 -0.0275
 9350TIP3    H149541   1.940   0.689  15.285 -0.0400  1.1522  1.6323
 9350TIP3    H249542   1.816   0.656  15.366  0.2374 -0.8726  1.2696
 9351TIP3   OH249543   2.166   5.914   1.947 -0.1097  0.7132 -0.3286
 9351TIP3    H149544   2.073   5.924   1.967  0.1555  2.2641  0.2697
 9351TIP3    H249545   2.183   5.979   1.879  0.4400  0.0926 -0.7980
 9352TIP3   OH249546   1.312   1.733   6.353 -0.8161 -0.3150 -0.4855
 9352TIP3    H149547   1.356   1.739   6.438  3.0961 -0.5083 -2.2907
 9352TIP3    H249548   1.309   1.824   6.321 -1.4334 -0.3485 -0.5275
 9353TIP3   OH249549   4.670   1.245   2.439  0.5360 -0.5634 -0.2354
 9353TIP3    H149550   4.584   1.213   2.413 -0.3858  0.7227  1.0290
 9353TIP3    H249551   4.731   1.177   2.411 -0.9258 -1.7023 -0.7874
 9354TIP3   OH249552   4.562   3.667   4.425 -0.1548 -0.3600  0.8354
 9354TIP3    H149553   4.571   3.616   4.506 -1.2430 -1.5277  0.2455
 9354TIP3    H249554   4.644   3.652   4.378 -0.5270 -1.7686  0.5861
 9355TIP3   OH249555   1.728   2.827  12.955 -0.0314 -0.5655  0.3181
 9355TIP3    H149556   1.636   2.804  12.942 -0.2221  0.9502 -1.4206
 9355TIP3    H249557   1.777   2.755  12.916 -0.5610  0.0664 -1.6140
 9356TIP3   OH249558   3.696   4.148  11.680 -0.0139  0.0261 -0.4055
 9356TIP3    H149559   3.772   4.119  11.629 -0.2659 -2.1253  0.3246
 9356TIP3    H249560   3.642   4.194  11.617  0.5650 -0.9247 -1.6580
 9357TIP3   OH249561   4.890   0.313  16.030 -0.5705 -0.2889 -0.4673
 9357TIP3    H149562   4.887   0.407  16.044 -0.5625 -0.3194 -0.2541
 9357TIP3    H249563   4.979   0.296  15.998  0.1469 -0.4795  1.4661
 9358TIP3   OH249564   3.578   4.228  14.153 -0.1656 -0.4102  0.5722
 9358TIP3    H149565   3.552   4.283  14.079 -0.8652 -0.8595  0.4827
 9358TIP3    H249566   3.500   4.220  14.207 -0.2294 -1.7427  0.3164
 9359TIP3   OH249567   1.847   4.558   1.735 -0.6153  0.2867  0.0761
 9359TIP3    H149568   1.885   4.613   1.804 -1.3018 -1.5105  2.0021
 9359TIP3    H249569   1.767   4.604   1.709 -0.3647  0.9905  0.5271
 9360TIP3   OH249570   6.020   4.939   6.363  0.7023 -0.2691 -0.0135
 9360TIP3    H149571   5.970   5.010   6.323  1.5846 -0.7524 -2.0891
 9360TIP3    H249572   5.956   4.869   6.374  0.3021  0.0979  0.0387
 9361TIP3   OH249573   3.764   3.235   4.912  0.4880 -0.1784 -0.1963
 9361TIP3    H149574   3.746   3.179   4.988  0.5544  1.4103  1.0570
 9361TIP3    H249575   3.739   3.323   4.941  0.9174  0.5431 -1.8905
 9362TIP3   OH249576   4.378   5.932  14.816  0.5342  0.1482  0.0398
 9362TIP3    H149577   4.425   6.009  14.847  0.8094  1.0636 -2.3719
 9362TIP3    H249578   4.398   5.929  14.722 -0.3214 -2.2694 -0.1260
 9363TIP3   OH249579   1.637   1.016   5.798 -0.2221  0.8532 -0.2080
 9363TIP3    H149580   1.576   0.949   5.765  0.5655  0.8506 -1.7255
 9363TIP3    H249581   1.700   0.967   5.851  0.8624  0.1978 -2.0101
 9364TIP3   OH249582   3.286   2.472  13.338  0.2868 -0.3557 -1.3107
 9364TIP3    H149583   3.241   2.522  13.406  1.7665 -1.6017  0.7019
 9364TIP3    H249584   3.219   2.414  13.303 -0.1632 -0.8659  0.3016
 9365TIP3   OH249585   1.935   5.933   5.979  0.1988 -0.0549  0.2799
 9365TIP3    H149586   1.892   5.941   5.894  1.0982 -2.0003 -0.3951
 9365TIP3    H249587   2.028   5.943   5.960  0.3621  0.1185  1.1434
 9366TIP3   OH249588   1.810   1.860   1.819  0.3414  0.5338  0.2405
 9366TIP3    H149589   1.861   1.937   1.846 -0.1856  0.4416  1.5401
 9366TIP3    H249590   1.857   1.828   1.742  2.4996  0.2597  1.5626
 9367TIP3   OH249591   1.515   3.678  11.468  0.7004 -0.2147  0.3666
 9367TIP3    H149592   1.467   3.730  11.532  0.3590 -1.5327  1.2135
 9367TIP3    H249593   1.607   3.685  11.494  0.5170 -1.1531  1.3459
 9368TIP3   OH249594   2.018   4.028   1.293 -0.1313 -0.1951  0.4925
 9368TIP3    H149595   2.091   4.075   1.334 -0.2807  0.0775  0.4495
 9368TIP3    H249596   1.944   4.088   1.299 -0.3362 -0.4446  0.4753
 9369TIP3   OH249597   4.151   3.799   2.373  0.2003 -0.2948  0.2360
 9369TIP3    H149598   4.236   3.832   2.401  1.5807 -1.0840 -2.5866
 9369TIP3    H249599   4.129   3.731   2.437  0.1327  1.9534  2.7405
 9370TIP3   OH249600   2.692   4.608  12.446 -0.3076 -0.6839 -0.3358
 9370TIP3    H149601   2.755   4.613  12.518 -0.3536 -0.2245 -0.3223
 9370TIP3    H249602   2.725   4.670  12.381 -0.5229 -0.7485 -0.5089
 9371TIP3   OH249603   0.414   5.577   6.261  0.1914  0.0432  0.1076
 9371TIP3    H149604   0.482   5.628   6.305 -0.9454  0.2326  1.7152
 9371TIP3    H249605   0.450   5.489   6.255  1.0190  0.3814 -0.0916
 9372TIP3   OH249606   1.040   0.100   5.463  0.1342 -0.7661  0.2389
 9372TIP3    H149607   0.967   0.046   5.432 -0.2426  0.4198 -1.0467
 9372TIP3    H249608   0.999   0.169   5.514  0.4340 -0.5885  0.2395
 9373TIP3   OH249609   4.072   5.416  12.040 -0.0584 -0.2255  0.3130
 9373TIP3    H149610   3.980   5.399  12.057 -0.0787 -0.4998 -0.0662
 9373TIP3    H249611   4.102   5.340  11.989  0.7351 -0.8442  1.6511
 9374TIP3   OH249612   2.039   1.285   5.727 -0.0400 -0.4706  0.0638
 9374TIP3    H149613   1.952   1.288   5.767  0.0273 -0.2858  0.1972
 9374TIP3    H249614   2.036   1.352   5.659 -0.1317 -0.7375 -0.1976
 9375TIP3   OH249615   1.672   0.586  15.634 -0.0559  0.1283  0.7323
 9375TIP3    H149616   1.677   0.491  15.627 -1.0649  0.1033  0.1457
 9375TIP3    H249617   1.578   0.605  15.637  0.0340  1.2214 -1.3114
 9376TIP3   OH249618   0.159   4.112   6.694  0.6714  0.5076  0.3394
 9376TIP3    H149619   0.193   4.025   6.716  2.2757  0.9576 -0.1868
 9376TIP3    H249620   0.220   4.145   6.629 -0.6416  1.5416 -0.4045
 9377TIP3   OH249621   0.667   6.829   5.847  0.3794 -0.7815 -0.5482
 9377TIP3    H149622   0.747   6.817   5.896  0.0808 -1.6406 -0.2536
 9377TIP3    H249623   0.620   6.899   5.893  0.2649 -1.3312  0.1861
 9378TIP3   OH249624   0.841   6.798   6.296 -0.6594  0.4557  0.8380
 9378TIP3    H149625   0.792   6.875   6.324 -0.8200  1.0461 -0.9213
 9378TIP3    H249626   0.843   6.741   6.373 -0.1259  2.3909  2.3303
 9379TIP3   OH249627   3.251   6.022   4.067 -0.2337  0.0257 -0.6706
 9379TIP3    H149628   3.313   5.949   4.064 -0.2534 -0.0985  0.9743
 9379TIP3    H249629   3.259   6.064   3.982 -0.7753 -2.3346 -1.9623
 9380TIP3   OH249630   5.058   1.585   1.066 -0.4762 -0.7219 -0.3565
 9380TIP3    H149631   5.101   1.504   1.096  1.2198  0.1145 -0.3713
 9380TIP3    H249632   5.121   1.624   1.006 -1.1758  0.7095 -0.1909
 9381TIP3   OH249633   0.136   4.224  11.121  0.2534 -0.2074 -0.2106
 9381TIP3    H149634   0.203   4.194  11.182  0.7404 -0.5447 -0.9012
 9381TIP3    H249635   0.085   4.146  11.101 -0.8087  0.1946  0.8716
 9382TIP3   OH249636   1.663   5.476   4.075  0.5317  0.0377  0.1775
 9382TIP3    H149637   1.671   5.560   4.120 -1.4824 -0.8055  2.3198
 9382TIP3    H249638   1.749   5.435   4.086  0.9985  1.0978  0.6160
 9383TIP3   OH249639   5.587   1.530   1.227 -0.2993 -0.0470 -0.1170
 9383TIP3    H149640   5.508   1.533   1.173 -0.8901 -0.7337  0.6768
 9383TIP3    H249641   5.559   1.563   1.312 -0.0851 -1.5751  0.5733
 9384TIP3   OH249642   2.074   2.441  12.473 -0.1442  0.1464 -0.2001
 9384TIP3    H149643   2.093   2.445  12.380 -1.9123 -0.8934 -0.6532
 9384TIP3    H249644   2.096   2.528  12.506 -0.8398  0.9988 -1.8661
 9385TIP3   OH249645   3.471   5.785   1.719 -0.2711  0.3077  0.1868
 9385TIP3    H149646   3.546   5.728   1.702  0.5569  1.2616  0.5659
 9385TIP3    H249647   3.404   5.725   1.754 -0.5466 -0.9475 -2.2667
 9386TIP3   OH249648   6.078   0.343  11.552  0.2577  0.1993 -0.3451
 9386TIP3    H149649   6.044   0.432  11.555  2.0226  0.9966 -2.2263
 9386TIP3    H249650   6.001   0.288  11.536 -0.5698  1.5979 -1.2797
 9387TIP3   OH249651   1.451   5.534  16.915 -0.1957  0.0924  0.1834
 9387TIP3    H149652   1.477   5.454  16.960  2.3821  0.1649 -0.9915
 9387TIP3    H249653   1.529   5.590  16.917 -1.3051  1.7634 -0.7258
 9388TIP3   OH249654   2.028   0.896  12.406 -0.1246  0.0473 -0.4334
 9388TIP3    H149655   2.046   0.850  12.488  0.7181  0.0236 -0.6153
 9388TIP3    H249656   2.044   0.831  12.338 -0.7527  0.0881 -0.6264
 9389TIP3   OH249657   3.546   2.378  14.808 -0.2957  0.1022 -0.5507
 9389TIP3    H149658   3.470   2.359  14.754 -0.8676  1.1506 -0.1363
 9389TIP3    H249659   3.513   2.436  14.876  1.2683  2.1961 -1.4898
 9390TIP3   OH249660   6.635   6.125  11.095  0.3921  0.7265 -0.0777
 9390TIP3    H149661   6.654   6.217  11.114 -0.9367  1.2461 -1.0637
 9390TIP3    H249662   6.634   6.121  10.999 -0.8436 -0.0208 -0.0448
 9391TIP3   OH249663   3.133   5.332  14.093 -0.4232  0.1867  0.3557
 9391TIP3    H149664   3.223   5.362  14.106 -0.1713 -0.4350  0.1161
 9391TIP3    H249665   3.141   5.238  14.078 -1.1153  0.1227  0.3314
 9392TIP3   OH249666   4.685   1.935  13.178 -0.2636  0.1172 -0.3668
 9392TIP3    H149667   4.683   2.011  13.120 -0.1842 -1.4016 -2.4748
 9392TIP3    H249668   4.611   1.948  13.238 -1.4648  0.9095 -1.9471
 9393TIP3   OH249669   3.584   4.718  13.549 -0.1658  1.3238  0.2551
 9393TIP3    H149670   3.675   4.708  13.577  0.2618  1.9004 -0.8296
 9393TIP3    H249671   3.533   4.712  13.629  0.7694  0.2666  0.7973
 9394TIP3   OH249672   3.821   4.073  12.937  0.4768  0.4922  0.2502
 9394TIP3    H149673   3.806   4.145  12.998 -1.4823  0.5718 -0.2438
 9394TIP3    H249674   3.772   4.000  12.974  0.3836  0.1472 -0.5314
 9395TIP3   OH249675   6.133   6.500  14.684  0.5926 -0.2790 -0.0330
 9395TIP3    H149676   6.180   6.568  14.733  0.4824  0.3496 -0.7868
 9395TIP3    H249677   6.087   6.450  14.751  0.2465  0.7246  0.4962
 9396TIP3   OH249678   1.687   3.209   2.049 -0.7485 -0.6681  0.1040
 9396TIP3    H149679   1.614   3.173   1.997 -1.0394  0.4363 -0.2787
 9396TIP3    H249680   1.727   3.273   1.991 -0.5868  0.0229  0.9773
 9397TIP3   OH249681   2.620   5.710   3.543 -0.3836  0.1742 -0.3775
 9397TIP3    H149682   2.570   5.766   3.484  1.0686  1.4409 -0.4593
 9397TIP3    H249683   2.590   5.621   3.522 -1.8406  0.7981 -1.1077
 9398TIP3   OH249684   3.347   5.582   3.608  0.1737 -0.5021  0.7580
 9398TIP3    H149685   3.262   5.615   3.579  0.8144  0.7282  0.2153
 9398TIP3    H249686   3.381   5.650   3.666  1.5425 -0.1515 -0.4070
 9399TIP3   OH249687   4.585   4.686  11.077  0.1637 -0.2196  0.1418
 9399TIP3    H149688   4.653   4.620  11.089  0.5334 -0.2502 -1.7820
 9399TIP3    H249689   4.556   4.674  10.987 -1.2497  0.8747  0.4185
 9400TIP3   OH249690   5.734   1.847  15.430  0.1830 -0.6455  0.8941
 9400TIP3    H149691   5.690   1.763  15.418 -1.7253  0.3701  0.3190
 9400TIP3    H249692   5.667   1.903  15.470  1.2343  0.7566  0.7665
 9401TIP3   OH249693   1.186   6.729   4.543 -0.2335  0.1063  0.0454
 9401TIP3    H149694   1.137   6.784   4.482 -1.2619 -0.4984  0.3009
 9401TIP3    H249695   1.175   6.640   4.510  1.1428 -0.0046 -0.1804
 9402TIP3   OH249696   3.093   6.062   1.653 -0.2900 -0.5299 -0.2358
 9402TIP3    H149697   3.152   6.014   1.595  2.7485  2.7153 -0.1298
 9402TIP3    H249698   3.103   6.020   1.738  0.5440 -1.1033 -0.6013
 9403TIP3   OH249699   0.640   6.505   2.534  0.2872 -0.2946 -0.2272
 9403TIP3    H149700   0.719   6.452   2.522  0.1661 -0.3299 -0.9377
 9403TIP3    H249701   0.595   6.500   2.450  0.2677  0.9266 -0.3159
 9404TIP3   OH249702   3.068   6.760  11.837  0.2698 -0.1836 -0.6945
 9404TIP3    H149703   3.003   6.691  11.840  1.7841 -1.7313 -1.5761
 9404TIP3    H249704   3.129   6.739  11.909  0.2806  0.7408 -0.4190
 9405TIP3   OH249705   2.137   1.038  10.282  0.0866  0.3633  0.4446
 9405TIP3    H149706   2.193   1.068  10.354  0.3863 -0.5742  0.6192
 9405TIP3    H249707   2.065   0.993  10.325  1.0918 -1.6173  0.1549
 9406TIP3   OH249708   5.372   3.929   1.507 -0.2227 -0.6311  0.7975
 9406TIP3    H149709   5.298   3.872   1.528  0.5102 -1.3678  1.4873
 9406TIP3    H249710   5.438   3.907   1.573  0.7146 -0.2097  0.0268
 9407TIP3   OH249711   6.328   1.117  12.746  0.4498  0.1745 -0.1013
 9407TIP3    H149712   6.405   1.118  12.802  0.7889 -1.3615 -0.4933
 9407TIP3    H249713   6.360   1.082  12.662 -0.7686 -1.0133 -0.0988
 9408TIP3   OH249714   3.644   0.055   6.513 -0.5408 -0.0150 -0.4949
 9408TIP3    H149715   3.649  -0.033   6.476  0.8620 -0.8957  1.5760
 9408TIP3    H249716   3.568   0.053   6.571 -0.4684  0.1109 -0.3940
 9409TIP3   OH249717   2.101   0.553  14.916  0.3193  0.3192  0.6571
 9409TIP3    H149718   2.059   0.537  14.832 -0.3933  0.2023  1.0225
 9409TIP3    H249719   2.083   0.474  14.967 -1.7262  1.5063  1.8871
 9410TIP3   OH249720   3.631   0.797  14.732  0.4090 -0.5339 -0.0041
 9410TIP3    H149721   3.593   0.749  14.658 -0.7526 -0.0925  0.2966
 9410TIP3    H249722   3.576   0.875  14.742  0.5188 -0.6059  1.3582
 9411TIP3   OH249723   5.358   4.587   4.407  0.4085 -0.4519 -0.5736
 9411TIP3    H149724   5.382   4.504   4.448  1.7114 -0.0386 -0.4621
 9411TIP3    H249725   5.336   4.644   4.481 -1.2755 -0.9074 -0.6866
 9412TIP3   OH249726   2.778   4.836   2.128  0.3697  0.2103 -0.0988
 9412TIP3    H149727   2.740   4.855   2.042  0.7558 -0.2974 -0.3858
 9412TIP3    H249728   2.704   4.843   2.188  0.4588  2.6304 -0.1484
 9413TIP3   OH249729   4.424   6.235   1.842 -0.2046 -0.3921 -0.5622
 9413TIP3    H149730   4.413   6.318   1.795  0.4627  0.1586  0.2305
 9413TIP3    H249731   4.371   6.244   1.921  0.0138 -0.6515 -0.3825
 9414TIP3   OH249732   2.668   1.725   1.033  0.0727  0.3477  0.7026
 9414TIP3    H149733   2.710   1.798   0.986 -0.6673  1.9615  2.4237
 9414TIP3    H249734   2.699   1.734   1.123  0.4833 -1.9178  0.8339
 9415TIP3   OH249735   4.724   2.202  12.985  0.1338 -0.5509 -0.0479
 9415TIP3    H149736   4.645   2.219  13.036  0.3788  0.3278  0.0451
 9415TIP3    H249737   4.794   2.247  13.032  0.3302  0.4818 -1.2592
 9416TIP3   OH249738   0.626   5.409   5.685  0.4390  0.3620  0.0159
 9416TIP3    H149739   0.600   5.325   5.724  0.8552  0.3442  0.2707
 9416TIP3    H249740   0.703   5.435   5.736  0.3740  0.8479 -0.1328
 9417TIP3   OH249741   3.935   4.977  12.839  0.0592 -0.8242  0.2175
 9417TIP3    H149742   3.882   4.998  12.916  0.4888  0.4515  0.1830
 9417TIP3    H249743   3.872   4.951  12.773 -0.2825 -2.4679  1.1436
 9418TIP3   OH249744   4.124   0.891  14.139 -0.7011  0.2075 -0.1062
 9418TIP3    H149745   4.079   0.808  14.128 -0.3628  0.1496 -1.2433
 9418TIP3    H249746   4.201   0.870  14.192 -0.0648 -0.4204 -1.2515
 9419TIP3   OH249747   5.248   1.257   6.403 -0.2534 -0.5873  0.1016
 9419TIP3    H149748   5.160   1.245   6.367  0.3642 -0.1706 -1.6496
 9419TIP3    H249749   5.294   1.307   6.335  0.7865  0.8509  1.7999
 9420TIP3   OH249750   0.468   3.115  16.358  0.2901  0.0865  0.4849
 9420TIP3    H149751   0.384   3.160  16.351  0.7070  0.7151 -0.6477
 9420TIP3    H249752   0.484   3.108  16.452  0.0316  1.9642  0.7075
 9421TIP3   OH249753   6.659   5.447  14.695  0.0260 -0.5142 -0.5245
 9421TIP3    H149754   6.611   5.516  14.741 -0.8878 -2.3327  1.4214
 9421TIP3    H249755   6.620   5.446  14.607  0.1852  1.5003 -0.6666
 9422TIP3   OH249756   3.753   6.830   0.157 -0.4531  0.4587 -0.0992
 9422TIP3    H149757   3.723   6.745   0.125  0.9146  0.3308 -1.1577
 9422TIP3    H249758   3.848   6.829   0.141 -0.5453  2.5864 -1.1798
 9423TIP3   OH249759   4.132   5.222   2.172  0.4799  0.5551  0.1984
 9423TIP3    H149760   4.190   5.257   2.240  1.3618  1.5404 -1.0004
 9423TIP3    H249761   4.046   5.261   2.191  0.8162  1.1624  0.4985
 9424TIP3   OH249762   6.447   1.639  11.811 -0.1415  0.1547 -0.4930
 9424TIP3    H149763   6.422   1.709  11.872  0.8769 -0.5224  0.7329
 9424TIP3    H249764   6.509   1.681  11.751  0.1663  0.4040 -0.0054
 9425TIP3   OH249765   4.224   6.791  13.307 -0.2630 -0.5433 -0.2555
 9425TIP3    H149766   4.259   6.767  13.393 -1.5917  0.2860  0.5456
 9425TIP3    H249767   4.141   6.744  13.301 -0.4048 -0.2171 -0.8783
 9426TIP3   OH249768   3.044   3.578   3.044  0.0431  0.0778  0.4400
 9426TIP3    H149769   3.013   3.496   3.006  1.5804 -0.5591  0.4881
 9426TIP3    H249770   3.004   3.646   2.991  1.2936 -0.7673 -1.7321
 9427TIP3   OH249771   3.289   0.153  16.650  0.1938 -0.5870 -0.2537
 9427TIP3    H149772   3.287   0.226  16.588  0.9073 -0.4835 -0.1713
 9427TIP3    H249773   3.227   0.089  16.615  1.8620 -1.3261 -2.0956
 9428TIP3   OH249774   3.601   3.616  11.346  0.0374  0.0955 -0.6095
 9428TIP3    H149775   3.537   3.688  11.348  0.1459  0.2117 -1.1220
 9428TIP3    H249776   3.548   3.538  11.361  0.0553  0.3565  0.9178
 9429TIP3   OH249777   2.889   3.912  11.599 -0.0008  0.6584 -0.2011
 9429TIP3    H149778   2.960   3.962  11.558  0.8570  0.4567  0.9718
 9429TIP3    H249779   2.925   3.886  11.684 -0.7387 -1.2027 -0.4244
 9430TIP3   OH249780   2.988   6.376   4.144  0.0916 -0.1992 -0.4275
 9430TIP3    H149781   2.898   6.409   4.145  0.1989  0.1065  0.4922
 9430TIP3    H249782   3.022   6.402   4.059 -0.8462 -0.7648 -0.9824
 9431TIP3   OH249783   2.254   4.980   0.174 -0.6362 -0.5346 -0.3713
 9431TIP3    H149784   2.191   5.042   0.136  0.2451 -0.7224 -2.2628
 9431TIP3    H249785   2.303   5.032   0.238  0.5528  1.0024 -2.3960
 9432TIP3   OH249786   4.333   4.013   1.228  0.6220  0.5322 -0.0908
 9432TIP3    H149787   4.397   4.055   1.171  2.2525 -2.2760 -0.5015
 9432TIP3    H249788   4.373   4.015   1.315  0.1174  0.9592  0.1368
 9433TIP3   OH249789   1.230   4.159  11.141 -0.0528  0.5040 -0.4646
 9433TIP3    H149790   1.149   4.108  11.154  0.0835  0.3431 -0.2422
 9433TIP3    H249791   1.237   4.213  11.220 -0.2454  0.9398 -0.7413
 9434TIP3   OH249792   2.100   0.314   6.447 -0.3944  1.0825  0.3477
 9434TIP3    H149793   2.128   0.228   6.479  0.2240  1.2518  0.2683
 9434TIP3    H249794   2.024   0.295   6.393  1.8334  0.1083 -2.7048
 9435TIP3   OH249795   3.890   5.173  16.612 -0.0666 -0.0969  0.0057
 9435TIP3    H149796   3.885   5.204  16.703 -1.3248 -1.8273  0.5939
 9435TIP3    H249797   3.840   5.238  16.562 -0.3219  0.2850  0.7332
 9436TIP3   OH249798   3.628   6.724  17.062 -0.1440  0.1435 -0.0750
 9436TIP3    H149799   3.659   6.635  17.047 -0.0246 -0.5597  3.3715
 9436TIP3    H249800   3.612   6.759  16.975  1.0237 -2.7864 -1.6252
 9437TIP3   OH249801   0.581   2.382  10.911 -0.1876  0.3658 -0.2016
 9437TIP3    H149802   0.573   2.420  10.824  0.2248  0.9806  0.0229
 9437TIP3    H249803   0.675   2.378  10.928 -0.1352 -2.0136 -0.7462
 9438TIP3   OH249804   4.121   1.035  12.605 -0.6722  0.0512 -0.0786
 9438TIP3    H149805   4.106   1.124  12.575  0.5339 -0.1464 -1.3257
 9438TIP3    H249806   4.040   1.011  12.650 -1.4800  1.3306 -0.8034
 9439TIP3   OH249807   1.006   0.518  15.857  0.1295  0.5140 -0.1782
 9439TIP3    H149808   0.942   0.534  15.925  1.6349  0.5955  1.2926
 9439TIP3    H249809   0.968   0.556  15.778 -1.0295  1.7135  0.9206
 9440TIP3   OH249810   0.506   1.473  16.501 -0.1290 -0.7356 -0.3317
 9440TIP3    H149811   0.512   1.557  16.546  0.0373 -0.4168 -0.9370
 9440TIP3    H249812   0.515   1.408  16.571 -2.3438 -0.2884  0.4538
 9441TIP3   OH249813   4.109   4.234   5.529  0.1610  0.0964  0.3778
 9441TIP3    H149814   4.189   4.283   5.513  0.5749 -0.3626  1.0094
 9441TIP3    H249815   4.077   4.265   5.613 -0.7740  0.8520 -0.2314
 9442TIP3   OH249816   0.507   0.417  16.107  0.1866  0.3678  0.3311
 9442TIP3    H149817   0.512   0.447  16.197  1.2978 -0.5875  0.6164
 9442TIP3    H249818   0.491   0.496  16.055 -0.6466  0.9008  1.3652
 9443TIP3   OH249819   1.983   4.803   5.336 -0.2334 -0.3622 -0.4464
 9443TIP3    H149820   1.920   4.832   5.271  0.6358  0.4252 -0.9589
 9443TIP3    H249821   2.034   4.734   5.292 -0.2309 -0.4564 -0.2976
 9444TIP3   OH249822   3.780   6.790  11.342 -0.4889  0.1246  0.0707
 9444TIP3    H149823   3.811   6.729  11.275  1.8111 -0.2855  1.3960
 9444TIP3    H249824   3.758   6.735  11.417 -0.9202  0.7291  0.3992
 9445TIP3   OH249825   5.588   0.217   0.145  0.3797  0.0675 -0.1913
 9445TIP3    H149826   5.531   0.276   0.194  3.0668  1.3330  1.6718
 9445TIP3    H249827   5.585   0.250   0.055 -1.5194  0.2435 -0.1095
 9446TIP3   OH249828   1.223   3.973   4.596 -0.4648  0.0478  0.2672
 9446TIP3    H149829   1.178   3.987   4.513 -0.4711 -0.3941  0.1934
 9446TIP3    H249830   1.180   4.033   4.657  1.0021  2.0555 -0.5407
 9447TIP3   OH249831   6.319   5.212  11.642  0.0044  0.0276 -0.0447
 9447TIP3    H149832   6.287   5.123  11.625  1.3959 -0.5740  0.4038
 9447TIP3    H249833   6.414   5.205  11.641  0.1536  1.7111 -0.9491
 9448TIP3   OH249834   4.846   6.109   1.631 -0.0094 -0.8167  0.4197
 9448TIP3    H149835   4.781   6.171   1.664 -1.0099 -2.2727  1.2573
 9448TIP3    H249836   4.912   6.105   1.701  0.8288  0.3547 -0.2585
 9449TIP3   OH249837   3.350   0.704  15.183 -0.2576  0.1783 -0.1199
 9449TIP3    H149838   3.313   0.777  15.233  0.5194  1.0308 -0.7612
 9449TIP3    H249839   3.303   0.627  15.215 -1.8293  1.0774 -0.1684
 9450TIP3   OH249840   0.542   6.491  15.397  0.7314 -0.8224  0.1807
 9450TIP3    H149841   0.485   6.474  15.322 -1.2141  1.8848  0.9163
 9450TIP3    H249842   0.493   6.459  15.473  1.1752 -0.4616  0.6292
 9451TIP3   OH249843   1.843   1.928  17.096  0.0706 -0.6589 -0.2354
 9451TIP3    H149844   1.818   2.008  17.051  1.2853 -0.8602 -1.3142
 9451TIP3    H249845   1.935   1.940  17.117  0.4689 -2.0559 -1.0701
 9452TIP3   OH249846   3.181   4.716  13.153  0.2983  0.0751 -0.5482
 9452TIP3    H149847   3.195   4.794  13.207  2.2752 -0.0033 -0.8892
 9452TIP3    H249848   3.118   4.664  13.203  0.2289  1.1163  0.4979
 9453TIP3   OH249849   6.296   5.655   5.842  0.3357 -0.1489  0.4550
 9453TIP3    H149850   6.256   5.617   5.764 -0.0461  1.7607 -0.3316
 9453TIP3    H249851   6.331   5.580   5.890  2.0154 -1.3013 -2.3306
 9454TIP3   OH249852   5.698   4.671  13.721 -0.7027 -0.0642 -0.4781
 9454TIP3    H149853   5.713   4.595  13.664 -1.2945 -0.7189  0.2098
 9454TIP3    H249854   5.778   4.723  13.712  0.3459 -1.4874  0.1207
 9455TIP3   OH249855   2.749   1.391   0.447  0.1929 -0.1135 -0.0705
 9455TIP3    H149856   2.765   1.421   0.537 -3.9433  0.1805  0.7764
 9455TIP3    H249857   2.732   1.471   0.398  1.7358 -0.3294 -1.0093
 9456TIP3   OH249858   3.587   0.475   5.827  0.1437  0.2006  0.0024
 9456TIP3    H149859   3.582   0.474   5.923 -1.3907  2.3169  0.0156
 9456TIP3    H249860   3.558   0.387   5.801 -0.3881 -0.0903  1.4633
 9457TIP3   OH249861   6.766   2.854  14.975  0.0178 -0.3471  0.3974
 9457TIP3    H149862   6.834   2.894  14.919 -1.2885 -0.1241 -1.1018
 9457TIP3    H249863   6.815   2.799  15.036  1.7155  1.5652  0.8849
 9458TIP3   OH249864   0.514   3.570  14.040 -0.3529 -0.1363 -0.6242
 9458TIP3    H149865   0.545   3.488  14.079 -0.6265  1.2465  2.7907
 9458TIP3    H249866   0.575   3.585  13.967  1.6718 -1.7922  0.5988
 9459TIP3   OH249867   3.792   3.564  14.737  0.1469 -0.1589  0.1718
 9459TIP3    H149868   3.796   3.660  14.738 -0.2320 -0.1431  0.2724
 9459TIP3    H249869   3.796   3.541  14.644 -0.4580 -0.0121  0.1088
 9460TIP3   OH249870   1.548   4.031  14.622 -0.3777 -0.5162  0.2453
 9460TIP3    H149871   1.552   3.988  14.537 -0.7178 -3.1846  1.4652
 9460TIP3    H249872   1.587   3.967  14.683 -0.6787  1.0393  2.1890
 9461TIP3   OH249873   4.115   2.834   1.682 -0.1895 -0.0310  0.2170
 9461TIP3    H149874   4.175   2.775   1.636 -0.2208 -2.3303  2.8364
 9461TIP3    H249875   4.150   2.921   1.665  1.2929 -0.9471 -1.9044
 9462TIP3   OH249876   6.508   2.836  11.444 -0.3972  0.6193 -0.7784
 9462TIP3    H149877   6.533   2.744  11.451  0.8704  0.9798 -0.2260
 9462TIP3    H249878   6.445   2.850  11.514  1.3331  0.7478  0.8379
 9463TIP3   OH249879   5.874   5.150  16.462  0.1496 -0.2946  0.5105
 9463TIP3    H149880   5.943   5.128  16.399  0.3816 -0.2568  0.7480
 9463TIP3    H249881   5.865   5.245  16.454 -1.4209 -0.5309 -1.1087
 9464TIP3   OH249882   4.961   1.115   1.131 -0.3072 -0.3166 -0.0837
 9464TIP3    H149883   5.051   1.131   1.105 -0.4012  1.0424  0.3101
 9464TIP3    H249884   4.920   1.073   1.055  0.9185 -2.0280  0.1514
 9465TIP3   OH249885   6.366   2.865   4.613  1.0971 -0.7312 -0.3166
 9465TIP3    H149886   6.351   2.872   4.707  1.7043 -1.2212 -0.1750
 9465TIP3    H249887   6.318   2.939   4.575  0.1630 -0.9950  0.2962
 9466TIP3   OH249888   1.463   2.023   1.932 -0.4021  0.4733 -0.1352
 9466TIP3    H149889   1.384   2.040   1.880 -0.0605  0.4892 -0.6540
 9466TIP3    H249890   1.430   1.986   2.014 -0.8749 -0.9250 -0.9217
 9467TIP3   OH249891   0.883   1.041   2.227  0.5283 -0.1682 -0.6434
 9467TIP3    H149892   0.886   1.118   2.283  1.4983  1.4272 -2.7434
 9467TIP3    H249893   0.895   0.967   2.286 -0.0252  1.2996  1.3940
 9468TIP3   OH249894   2.327   5.114  11.088  0.1113  0.5265  0.0691
 9468TIP3    H149895   2.351   5.169  11.162 -2.3285  0.1403  1.2472
 9468TIP3    H249896   2.257   5.057  11.121 -0.3553 -0.3796 -2.2357
 9469TIP3   OH249897   2.683   5.199   1.021  0.1639  0.1901 -0.0822
 9469TIP3    H149898   2.611   5.136   1.020 -0.2242  0.6337 -0.1960
 9469TIP3    H249899   2.760   5.146   1.042 -0.2608 -0.2240  0.4888
 9470TIP3   OH249900   0.271   6.319   4.321 -0.2312  0.0557 -0.4646
 9470TIP3    H149901   0.211   6.252   4.288  0.2747  0.1902 -1.7023
 9470TIP3    H249902   0.323   6.273   4.387 -2.7564  0.3436  1.9507
 9471TIP3   OH249903   0.539   1.238   3.513  0.0936  0.3242 -0.3794
 9471TIP3    H149904   0.506   1.164   3.462  0.0755  0.4660 -0.5751
 9471TIP3    H249905   0.634   1.224   3.516 -0.0558 -0.5896  0.9806
 9472TIP3   OH249906   0.434   0.639  15.477 -0.8465  0.2488 -0.9024
 9472TIP3    H149907   0.414   0.622  15.569 -2.4819  0.1452 -1.2399
 9472TIP3    H249908   0.516   0.593  15.460  1.3383  2.9798  1.3398
 9473TIP3   OH249909   3.416   2.666  15.321  0.4850  0.1379 -0.0281
 9473TIP3    H149910   3.439   2.730  15.254 -0.9467  1.3127  0.5526
 9473TIP3    H249911   3.471   2.590  15.301  2.1278  1.4600 -0.8379
 9474TIP3   OH249912   3.705   5.439   2.832 -0.1903  0.1994 -0.1408
 9474TIP3    H149913   3.664   5.371   2.778  0.7810 -0.6858  0.1974
 9474TIP3    H249914   3.632   5.491   2.865 -0.9757 -0.8096 -0.2323
 9475TIP3   OH249915   5.620   5.094  10.464  0.5757 -0.4259 -0.1463
 9475TIP3    H149916   5.572   5.022  10.422  1.8587  0.0911 -2.6644
 9475TIP3    H249917   5.688   5.118  10.401  0.6958  2.5034  0.9415
 9476TIP3   OH249918   0.008   0.957   6.520  0.5068  0.0993 -0.4669
 9476TIP3    H149919   0.083   1.008   6.489  2.2625 -0.7557  2.0060
 9476TIP3    H249920  -0.015   0.998   6.604  0.3369 -1.5894  0.3517
 9477TIP3   OH249921   3.731   4.033  12.257 -0.3539 -0.7185 -0.1955
 9477TIP3    H149922   3.646   4.074  12.272  1.0355  2.2892  0.0832
 9477TIP3    H249923   3.759   4.066  12.172  1.3209 -0.1154  0.5466
 9478TIP3   OH249924   1.167   4.853   3.516 -0.0253 -0.1091 -0.2487
 9478TIP3    H149925   1.099   4.786   3.522 -1.8695  1.6143 -0.8758
 9478TIP3    H249926   1.171   4.891   3.603 -0.6714  0.5230 -0.4889
 9479TIP3   OH249927   5.127   6.462   5.503 -0.2951  0.2032  0.7517
 9479TIP3    H149928   5.181   6.457   5.582 -0.7282 -1.2605  0.9780
 9479TIP3    H249929   5.151   6.384   5.452 -0.9706  0.4302  0.0575
 9480TIP3   OH249930   5.197   6.029   2.123  0.1055  0.2122  0.9713
 9480TIP3    H149931   5.274   6.040   2.067 -1.2705 -0.4358 -1.1653
 9480TIP3    H249932   5.158   6.116   2.128  0.1174  0.2326  0.7228
 9481TIP3   OH249933   3.947   0.178   0.539  0.7290  0.0892 -0.5597
 9481TIP3    H149934   3.947   0.121   0.616 -2.4847  1.3745  0.5591
 9481TIP3    H249935   3.862   0.164   0.498 -0.0669  3.6311 -0.4614
 9482TIP3   OH249936   4.340   0.674   2.586 -0.0563 -0.5660 -0.0675
 9482TIP3    H149937   4.271   0.617   2.621 -1.6330  1.8068  0.9854
 9482TIP3    H249938   4.419   0.620   2.588 -0.9499 -2.0219  3.0594
 9483TIP3   OH249939   1.927   0.661  12.764 -0.0078 -0.1954 -0.8286
 9483TIP3    H149940   1.894   0.722  12.831  0.7895 -1.1978  0.5213
 9483TIP3    H249941   1.883   0.689  12.683 -1.2539  0.8579  0.1575
 9484TIP3   OH249942   3.714   3.153  11.462 -0.1662  0.3290 -0.0716
 9484TIP3    H149943   3.687   3.241  11.488  1.7762  1.1726 -0.6763
 9484TIP3    H249944   3.751   3.115  11.541  1.6314  1.2019 -0.4303
 9485TIP3   OH249945   5.262   0.189   5.594 -0.1164  0.0534 -0.6445
 9485TIP3    H149946   5.183   0.242   5.609  0.6420  1.1922 -0.5403
 9485TIP3    H249947   5.238   0.102   5.623 -0.9248  0.6668  0.6153
 9486TIP3   OH249948   3.117   3.798   2.654 -0.1624  0.9765 -0.1733
 9486TIP3    H149949   3.198   3.802   2.603  0.0181  0.2889  0.0540
 9486TIP3    H249950   3.054   3.847   2.602  0.4763  1.7844 -0.2076
 9487TIP3   OH249951   1.703   1.145  14.313 -0.0413  0.0375 -0.4720
 9487TIP3    H149952   1.611   1.170  14.299  0.5089  1.3740 -2.0244
 9487TIP3    H249953   1.716   1.069  14.257  0.5213  1.6552 -2.6811
 9488TIP3   OH249954   5.679   4.644   2.698  0.0809 -0.1996 -0.2763
 9488TIP3    H149955   5.749   4.689   2.650  0.7542 -1.7537 -0.8215
 9488TIP3    H249956   5.718   4.560   2.723 -0.1292  0.5925  3.2330
 9489TIP3   OH249957   0.260   1.134  13.492 -0.1020  0.0864 -0.0903
 9489TIP3    H149958   0.327   1.148  13.559  0.8386  0.1903 -1.0251
 9489TIP3    H249959   0.235   1.222  13.464  1.5973  0.0600 -1.8693
 9490TIP3   OH249960   2.677   1.014   4.128  0.4174  0.0627  0.2803
 9490TIP3    H149961   2.682   0.920   4.113 -1.7974  0.0422 -0.6392
 9490TIP3    H249962   2.653   1.024   4.220 -0.0997 -0.3072  0.1864
 9491TIP3   OH249963   4.516   0.699  12.491  0.1306 -0.1285  0.6544
 9491TIP3    H149964   4.524   0.674  12.399 -0.1065 -1.1405  0.8959
 9491TIP3    H249965   4.519   0.795  12.491 -0.6870 -0.0848 -0.4892
 9492TIP3   OH249966   2.415   1.027  12.255  0.2934 -0.1787 -0.3229
 9492TIP3    H149967   2.363   1.037  12.335  3.3616 -1.8739  2.1479
 9492TIP3    H249968   2.455   1.113  12.241 -1.3206  0.5031 -0.9192
 9493TIP3   OH249969   3.700   1.461  11.082 -0.3578  0.1591  0.1842
 9493TIP3    H149970   3.614   1.503  11.070  0.0093  0.9362  0.2087
 9493TIP3    H249971   3.755   1.501  11.015 -0.3075 -1.2115 -0.6217
 9494TIP3   OH249972   2.137   5.642  14.509  0.0385 -0.8209  0.3768
 9494TIP3    H149973   2.145   5.666  14.601 -4.8603 -1.4251  1.2214
 9494TIP3    H249974   2.110   5.550  14.510  0.1633 -0.9355 -1.6703
 9495TIP3   OH249975   6.169   1.734  13.455  0.0230  0.1877  0.1077
 9495TIP3    H149976   6.243   1.786  13.487 -0.3837  1.4919 -0.9810
 9495TIP3    H249977   6.149   1.771  13.369 -0.4308 -1.6581 -0.6184
 9496TIP3   OH249978   3.916   2.163   0.770  0.2527  0.1483 -0.1280
 9496TIP3    H149979   3.918   2.255   0.795  1.9714  0.2481 -0.4912
 9496TIP3    H249980   3.918   2.115   0.853  0.6276  0.4487  0.0392
 9497TIP3   OH249981   3.950   2.520  16.408 -0.2280 -0.4164 -0.2353
 9497TIP3    H149982   3.870   2.484  16.446 -0.3434 -0.5413 -0.6018
 9497TIP3    H249983   4.009   2.531  16.483 -0.4662 -0.6397 -0.0154
 9498TIP3   OH249984   1.993   5.008   3.605  0.3432 -0.0297 -0.2929
 9498TIP3    H149985   1.945   4.930   3.575 -0.8903  0.8020 -0.5824
 9498TIP3    H249986   2.027   5.047   3.524  1.5004 -0.5783 -0.0943
 9499TIP3   OH249987   4.739   5.867   5.322  0.0289 -0.5804  0.0844
 9499TIP3    H149988   4.764   5.837   5.235 -0.0175 -2.6084  0.7297
 9499TIP3    H249989   4.792   5.816   5.383 -1.0816 -0.3639  1.3030
 9500TIP3   OH249990   4.774   1.742  15.088  0.4919  0.2924  0.3352
 9500TIP3    H149991   4.861   1.770  15.062  0.8253 -1.9484 -1.2940
 9500TIP3    H249992   4.722   1.747  15.007 -0.3565 -0.2217  0.8306
 9501TIP3   OH249993   2.075   3.807   1.478  0.2333 -0.2213  0.2660
 9501TIP3    H149994   2.069   3.838   1.387  0.0737 -0.0022  0.3489
 9501TIP3    H249995   2.146   3.859   1.516 -0.8375  0.9499  0.7526
 9502TIP3   OH249996   4.198   4.162   2.346  0.4939 -0.2804  0.2591
 9502TIP3    H149997   4.200   4.216   2.267 -0.7172  1.2172  1.1930
 9502TIP3    H249998   4.267   4.198   2.401  0.5331 -0.5355  0.3785
 9503TIP3   OH249999   0.491   2.446  12.831  0.4897 -0.1314 -0.5518
 9503TIP3    H150000   0.469   2.528  12.876  0.3801  0.0936 -1.0072
 9503TIP3    H250001   0.417   2.388  12.851  0.0565  0.2254 -1.0766
 9504TIP3   OH250002   3.900   6.508  15.009  0.5672 -0.6676  0.2629
 9504TIP3    H150003   3.974   6.471  15.057  2.2866  0.7376 -1.1899
 9504TIP3    H250004   3.887   6.594  15.047 -0.2941 -0.8830  0.4675
 9505TIP3   OH250005   5.913   5.773  12.164  0.5320 -0.4804 -0.7794
 9505TIP3    H150006   5.991   5.765  12.219 -1.6566 -1.7214  2.4310
 9505TIP3    H250007   5.906   5.689  12.120  0.9717 -0.3752 -1.0551
 9506TIP3   OH250008   5.566   6.476   1.784 -0.0059  0.2331  0.5303
 9506TIP3    H150009   5.490   6.500   1.836 -0.7674 -2.2115  0.6394
 9506TIP3    H250010   5.532   6.465   1.695  0.3552 -0.1550  0.4360
 9507TIP3   OH250011   4.411   0.406  15.573  0.3360 -0.5500 -0.0315
 9507TIP3    H150012   4.387   0.340  15.639  0.2697 -0.7185 -0.2227
 9507TIP3    H250013   4.334   0.412  15.516  0.4567 -0.5254 -0.1924
 9508TIP3   OH250014   6.201   2.327   4.539 -0.0881  0.4350 -0.1523
 9508TIP3    H150015   6.217   2.421   4.527  0.6006  0.1633 -1.6551
 9508TIP3    H250016   6.281   2.285   4.507  0.5526 -0.6274  2.6323
 9509TIP3   OH250017   3.093   1.326  12.531 -0.0369 -0.5597 -0.6708
 9509TIP3    H150018   3.132   1.364  12.610 -1.1320 -1.4944  0.3600
 9509TIP3    H250019   3.156   1.345  12.461 -0.5185  3.2358 -0.3069
 9510TIP3   OH250020   3.922   4.003  11.124 -0.6557 -0.2416  0.7406
 9510TIP3    H150021   3.895   3.914  11.147  2.1454 -0.5918  3.3210
 9510TIP3    H250022   3.991   3.991  11.059  0.5235 -0.1087  1.9204
 9511TIP3   OH250023   0.470   4.647  12.380  0.0420 -0.0178 -0.3696
 9511TIP3    H150024   0.462   4.742  12.393  0.9665 -0.0974  1.0352
 9511TIP3    H250025   0.404   4.626  12.314 -0.6556  1.4933 -0.2000
 9512TIP3   OH250026   2.597   2.767  14.212 -0.3022 -0.1874  0.0888
 9512TIP3    H150027   2.602   2.718  14.294  1.6560  0.1307  0.2187
 9512TIP3    H250028   2.555   2.850  14.236  1.9226  0.6928  1.2608
 9513TIP3   OH250029   0.299   5.765   6.106  0.1583  0.2999  0.2667
 9513TIP3    H150030   0.347   5.695   6.151  0.3949  0.2492 -0.0582
 9513TIP3    H250031   0.283   5.830   6.173  1.0622  0.5087  0.2910
 9514TIP3   OH250032   1.936   6.229  16.349  0.0904 -0.0104  0.2890
 9514TIP3    H150033   2.021   6.250  16.310  0.2691  0.0362  0.6935
 9514TIP3    H250034   1.895   6.170  16.287  0.1165  0.5350 -0.2580
 9515TIP3   OH250035   6.619   5.619   2.946 -0.5857 -0.1414 -0.3783
 9515TIP3    H150036   6.631   5.661   2.861 -2.0207 -0.2281 -0.6434
 9515TIP3    H250037   6.543   5.664   2.985  0.7598  0.7376  1.3913
 9516TIP3   OH250038   2.555   5.226   3.988  0.6684 -0.2537  0.3791
 9516TIP3    H150039   2.522   5.156   3.932  0.1376 -1.5219  2.1983
 9516TIP3    H250040   2.530   5.307   3.943 -1.8638 -1.1849 -0.0505
 9517TIP3   OH250041   6.481   2.500   5.431  0.3942 -0.3837 -0.1527
 9517TIP3    H150042   6.398   2.480   5.473  0.2624 -0.6066 -0.5105
 9517TIP3    H250043   6.532   2.419   5.438  0.4135 -0.3866 -0.3251
 9518TIP3   OH250044   2.801   5.684   0.912  0.6238 -0.0880  0.7878
 9518TIP3    H150045   2.777   5.603   0.868 -2.1831  0.3797  1.2900
 9518TIP3    H250046   2.798   5.662   1.005  0.0792  0.5105  0.9196
 9519TIP3   OH250047   1.498   1.991   4.866  0.3720  0.3237  0.3842
 9519TIP3    H150048   1.413   1.946   4.871  1.0222 -1.0884 -0.7742
 9519TIP3    H250049   1.497   2.036   4.781  0.7045  0.4738  0.4573
 9520TIP3   OH250050   2.862   2.524  15.549  0.5612 -0.0018 -0.5245
 9520TIP3    H150051   2.889   2.572  15.628 -0.5143 -1.2143  0.6206
 9520TIP3    H250052   2.891   2.434  15.564  0.4226 -0.2323 -1.5606
 9521TIP3   OH250053   0.667   5.230  15.311  0.2373 -0.0611 -0.3248
 9521TIP3    H150054   0.725   5.243  15.236  2.0800 -0.4858  0.9459
 9521TIP3    H250055   0.608   5.306  15.310 -1.2456 -1.1033 -3.3701
 9522TIP3   OH250056   5.329   2.114  15.678  0.3396 -0.1364 -0.0689
 9522TIP3    H150057   5.286   2.067  15.750 -1.4949  2.2453  0.5507
 9522TIP3    H250058   5.354   2.198  15.717  1.7690  0.1621 -1.5574
 9523TIP3   OH250059   4.385   2.496  15.013 -0.6650 -0.0490 -0.2378
 9523TIP3    H150060   4.380   2.405  14.984 -0.1623 -0.1666  0.0292
 9523TIP3    H250061   4.318   2.541  14.961 -0.3093 -0.3995 -1.0287
 9524TIP3   OH250062   1.741   1.378  10.478 -0.6116  0.5128  0.4193
 9524TIP3    H150063   1.814   1.425  10.437 -1.8592  1.8919 -0.3258
 9524TIP3    H250064   1.698   1.444  10.532 -0.7936 -0.5148  1.5591
 9525TIP3   OH250065   2.849   4.022  17.009 -0.0000  0.8296 -0.3160
 9525TIP3    H150066   2.917   4.046  17.072 -1.3382  0.5635  1.2652
 9525TIP3    H250067   2.773   4.074  17.034 -1.2998 -1.0352 -0.1841
 9526TIP3   OH250068   0.064   6.521  11.959  0.9005  0.3766 -0.4928
 9526TIP3    H150069   0.100   6.497  12.044 -0.2559  0.6110  0.0911
 9526TIP3    H250070   0.067   6.617  11.957 -1.3103  0.5144  0.3537
 9527TIP3   OH250071   2.875   6.302  16.944  0.1436 -0.1009  0.2941
 9527TIP3    H150072   2.813   6.245  16.899 -1.5007  1.0327  1.0115
 9527TIP3    H250073   2.870   6.276  17.036 -0.6447  1.1634  0.6350
 9528TIP3   OH250074   6.660   2.977   3.299  0.6167 -0.6807  0.1755
 9528TIP3    H150075   6.748   3.001   3.328  0.9014 -0.6043 -0.7302
 9528TIP3    H250076   6.626   2.923   3.371  0.9782  0.1938  1.0204
 9529TIP3   OH250077   4.507   2.956   1.386 -0.1304 -0.2018  0.2882
 9529TIP3    H150078   4.579   2.943   1.326 -1.3158  0.4352 -1.3431
 9529TIP3    H250079   4.469   3.040   1.361  0.9797  1.5545  3.7398
 9530TIP3   OH250080   4.614   0.379   6.648 -0.0393 -0.6466  0.9492
 9530TIP3    H150081   4.664   0.327   6.710  0.1688 -3.2568 -1.2216
 9530TIP3    H250082   4.542   0.322   6.621 -0.7701  0.8068 -0.3527
 9531TIP3   OH250083   4.634   2.106  11.558 -0.1294  0.0705  0.0606
 9531TIP3    H150084   4.661   2.188  11.600  0.3927  0.4184 -0.9232
 9531TIP3    H250085   4.549   2.086  11.597 -0.6940  1.5609 -0.3234
 9532TIP3   OH250086   4.820   1.811   2.789  0.1431 -0.4553 -0.3588
 9532TIP3    H150087   4.865   1.766   2.717 -0.4986 -0.8834 -0.5008
 9532TIP3    H250088   4.736   1.766   2.797 -0.0275 -0.0426  0.2875
 9533TIP3   OH250089   0.969   3.456  12.864  0.1841  1.0608  0.9252
 9533TIP3    H150090   1.038   3.445  12.929  0.1119  1.4752  1.0767
 9533TIP3    H250091   0.965   3.551  12.849  1.5805  0.8457 -1.2056
 9534TIP3   OH250092   4.882   4.457   2.345 -0.7649  0.5030  0.6254
 9534TIP3    H150093   4.871   4.485   2.255  0.1009 -1.6653 -0.2109
 9534TIP3    H250094   4.907   4.537   2.392 -1.1473  1.6487 -1.0493
 9535TIP3   OH250095   6.610   2.281   5.513  0.0871  0.0917  0.1989
 9535TIP3    H150096   6.550   2.250   5.581  1.6922 -0.8278  1.2493
 9535TIP3    H250097   6.671   2.208   5.501  1.3858  1.2483 -0.3709
 9536TIP3   OH250098   0.477   4.989   5.635 -0.2761 -0.4081 -1.0200
 9536TIP3    H150099   0.383   4.980   5.650 -0.2150 -0.5993 -0.7433
 9536TIP3    H250100   0.484   5.042   5.556 -0.5869  1.7565  0.3218
 9537TIP3   OH250101   0.216   5.343   3.356  0.4475 -0.3741 -0.2367
 9537TIP3    H150102   0.260   5.258   3.358 -0.9605 -1.1349 -0.0966
 9537TIP3    H250103   0.245   5.386   3.437  1.0444 -0.7750 -0.2257
 9538TIP3   OH250104   6.323   2.250   0.127 -0.1532 -0.0321 -0.2707
 9538TIP3    H150105   6.360   2.229   0.041  0.0618  1.0916 -0.4599
 9538TIP3    H250106   6.270   2.173   0.149  1.4338 -1.2385 -0.4690
 9539TIP3   OH250107   4.707   4.796   4.541  0.2092  0.0288  0.0206
 9539TIP3    H150108   4.704   4.889   4.563 -1.4236 -0.9048  4.9822
 9539TIP3    H250109   4.616   4.766   4.546  0.7883 -2.0263 -0.5362
 9540TIP3   OH250110   2.158   6.299   1.561  0.6428  0.9501  0.8634
 9540TIP3    H150111   2.070   6.299   1.600  0.9262  0.6686  1.5227
 9540TIP3    H250112   2.144   6.275   1.470 -0.0069  1.2976  0.8664
 9541TIP3   OH250113   0.519   4.559   5.417  0.0779  0.1292  0.0390
 9541TIP3    H150114   0.585   4.599   5.361 -1.5374 -0.0491 -2.1506
 9541TIP3    H250115   0.439   4.608   5.397 -0.8425 -0.8103  1.2674
 9542TIP3   OH250116   5.888   4.356  14.415  0.3961 -0.3808  0.2868
 9542TIP3    H150117   5.920   4.323  14.499  0.2490  0.2622  0.6041
 9542TIP3    H250118   5.911   4.449  14.415  0.5616 -0.4143 -0.4676
 9543TIP3   OH250119   3.074   5.251  15.090 -0.4903 -0.1091  0.4530
 9543TIP3    H150120   3.076   5.345  15.073 -0.2037 -0.0744  0.6768
 9543TIP3    H250121   3.164   5.229  15.115 -0.3664 -0.5821 -0.3729
 9544TIP3   OH250122   6.372   4.506   4.296 -0.6677 -0.2939 -0.0921
 9544TIP3    H150123   6.350   4.465   4.213 -1.2935 -0.7368  0.2773
 9544TIP3    H250124   6.295   4.490   4.351 -0.2887  0.0434  0.5480
 9545TIP3   OH250125   3.095   3.753  12.388  0.4678  0.1905 -0.5488
 9545TIP3    H150126   3.174   3.798  12.360  0.1168  0.7351 -0.6846
 9545TIP3    H250127   3.032   3.823  12.406  0.4231 -0.1708  0.8276
 9546TIP3   OH250128   4.366   4.947  14.338  0.3400  0.2509 -0.0473
 9546TIP3    H150129   4.393   4.974  14.425  2.0264  1.9801 -1.0309
 9546TIP3    H250130   4.273   4.968  14.334 -0.0741 -1.0036  1.6928
 9547TIP3   OH250131   3.305   4.312  14.212  0.0185 -0.0709 -0.3469
 9547TIP3    H150132   3.263   4.341  14.131 -0.2283 -1.0543 -0.5795
 9547TIP3    H250133   3.238   4.260  14.256 -0.2955  1.5055  1.1217
 9548TIP3   OH250134   2.171   5.286  12.725 -0.4109  0.1447 -0.2050
 9548TIP3    H150135   2.260   5.281  12.688  0.5752  0.5341  1.9696
 9548TIP3    H250136   2.163   5.207  12.777 -1.2918  0.2084 -0.2378
 9549TIP3   OH250137   6.240   0.992   1.327 -0.3842 -0.7404  0.2555
 9549TIP3    H150138   6.301   0.973   1.398 -0.1238  4.5988  1.8693
 9549TIP3    H250139   6.294   0.989   1.248  0.9317 -0.4107  1.1161
 9550TIP3   OH250140   5.717   3.003  13.279 -0.0308  0.2549  0.6787
 9550TIP3    H150141   5.647   3.005  13.345 -0.5191 -1.2263  0.2374
 9550TIP3    H250142   5.685   2.944  13.211  0.6707  1.3765 -0.6825
 9551TIP3   OH250143   1.492   5.278  15.860 -0.4601 -0.6279 -0.4446
 9551TIP3    H150144   1.486   5.213  15.789 -0.9264 -0.6590 -0.3838
 9551TIP3    H250145   1.400   5.298  15.880 -0.3141  0.2402 -0.6362
 9552TIP3   OH250146   1.352   3.580   5.998 -0.1128 -0.3188 -0.7069
 9552TIP3    H150147   1.320   3.516   6.061 -0.1547  0.1386 -0.2647
 9552TIP3    H250148   1.352   3.663   6.045  2.2081 -0.3654 -0.5115
 9553TIP3   OH250149   2.127   4.259  10.276 -0.1845  0.4440  0.2318
 9553TIP3    H150150   2.104   4.269  10.184 -0.7386  1.6157  0.4795
 9553TIP3    H250151   2.184   4.182  10.279 -0.2740  0.3160 -1.0608
 9554TIP3   OH250152   4.253   2.808  15.964  0.2854  0.2566  0.0174
 9554TIP3    H150153   4.348   2.805  15.968  0.2368 -1.2043  1.1450
 9554TIP3    H250154   4.227   2.718  15.944 -0.8977  0.1185  1.8608
 9555TIP3   OH250155   2.893   4.535   4.620  0.8135  0.0538 -0.5058
 9555TIP3    H150156   2.959   4.532   4.690 -0.4388  0.8101  0.7617
 9555TIP3    H250157   2.904   4.453   4.573  2.2448 -0.1107  0.0499
 9556TIP3   OH250158   4.050   1.105   0.066 -0.2190 -0.3591  0.0946
 9556TIP3    H150159   4.053   1.173  -0.002  0.1011 -0.9242 -0.4642
 9556TIP3    H250160   4.141   1.079   0.077 -0.0950  0.6347  1.6848
 9557TIP3   OH250161   0.610   3.511   1.615 -0.7833 -0.3463 -0.8794
 9557TIP3    H150162   0.563   3.483   1.693  1.5415 -0.9227  0.4303
 9557TIP3    H250163   0.546   3.508   1.544 -2.7325 -0.6868  0.8361
 9558TIP3   OH250164   6.052   6.264  13.840 -0.1648 -0.1219 -0.2370
 9558TIP3    H150165   5.984   6.330  13.854 -1.1330 -0.5881 -2.3752
 9558TIP3    H250166   6.120   6.308  13.791 -0.3282 -0.4290 -0.7476
 9559TIP3   OH250167   3.681   1.241   2.814 -0.5157 -0.3838 -0.0638
 9559TIP3    H150168   3.701   1.332   2.835 -0.9789  0.3602 -2.4927
 9559TIP3    H250169   3.757   1.209   2.765 -0.3527 -1.3371  0.7681
 9560TIP3   OH250170   3.230   0.357   0.471 -0.3176 -0.0896 -0.5788
 9560TIP3    H150171   3.257   0.356   0.562 -0.9668 -1.4445 -0.3729
 9560TIP3    H250172   3.158   0.420   0.467 -0.0801  0.2015 -0.2222
 9561TIP3   OH250173   3.621   1.508   3.720  0.3669  0.1521 -0.5819
 9561TIP3    H150174   3.540   1.457   3.711  1.4901 -1.9613  0.3364
 9561TIP3    H250175   3.592   1.596   3.744 -1.7657  0.5594 -4.0208
 9562TIP3   OH250176   4.391   4.646   0.521  0.1791  0.1039 -0.0713
 9562TIP3    H150177   4.443   4.672   0.445  0.2618  1.0344  0.2891
 9562TIP3    H250178   4.455   4.620   0.587  0.0804 -2.7978 -0.9832
 9563TIP3   OH250179   2.689   0.703  11.335 -0.1729 -0.4226 -0.5629
 9563TIP3    H150180   2.620   0.639  11.354  1.0085 -1.9259 -1.0968
 9563TIP3    H250181   2.647   0.788  11.347 -1.5400 -1.2801  1.1783
 9564TIP3   OH250182   0.668   5.976   0.903  0.3699 -0.3129  0.0618
 9564TIP3    H150183   0.735   6.043   0.894  0.3162 -0.1479  0.8618
 9564TIP3    H250184   0.666   5.933   0.817  0.1855  0.9037 -0.5622
 9565TIP3   OH250185   5.674   1.645   5.868 -0.1015 -0.0438 -0.1516
 9565TIP3    H150186   5.720   1.717   5.910  0.6422  1.0904 -2.7284
 9565TIP3    H250187   5.617   1.610   5.936  1.8793  0.8528  2.1086
 9566TIP3   OH250188   0.976   3.596  14.794 -0.1188 -0.7239 -0.5911
 9566TIP3    H150189   0.883   3.574  14.801 -0.5374  1.0972  0.1033
 9566TIP3    H250190   1.011   3.533  14.731 -2.1170 -0.5457 -1.9576
 9567TIP3   OH250191   2.508   5.506   0.660  0.4611 -0.2227 -0.2630
 9567TIP3    H150192   2.498   5.587   0.609 -0.4876 -1.4993 -2.2417
 9567TIP3    H250193   2.419   5.469   0.662  0.4477 -0.2343  2.4238
 9568TIP3   OH250194   5.742   1.716  14.851  0.1222 -0.6545 -0.1918
 9568TIP3    H150195   5.662   1.681  14.813 -1.3318  2.2514 -0.0836
 9568TIP3    H250196   5.714   1.796  14.896  2.9930  0.1365  0.3837
 9569TIP3   OH250197   5.414   5.973   2.583  0.1215  0.4874  0.1336
 9569TIP3    H150198   5.358   5.973   2.506 -0.2215  0.7570  0.3788
 9569TIP3    H250199   5.502   5.955   2.549  0.0069  0.8051 -0.3409
 9570TIP3   OH250200   0.971   5.612  12.107 -0.3899 -0.3035  0.0077
 9570TIP3    H150201   0.975   5.517  12.099 -2.2343 -0.4136 -0.0854
 9570TIP3    H250202   0.900   5.628  12.168 -0.2363  1.0219 -0.1347
 9571TIP3   OH250203   2.109   4.397  10.797  0.3041 -0.2292  0.3005
 9571TIP3    H150204   2.084   4.321  10.744 -1.8118  1.0691 -0.7182
 9571TIP3    H250205   2.121   4.468  10.733 -0.6829  0.9850  1.3978
 9572TIP3   OH250206   3.719   1.124   3.934 -0.0724  0.0043  0.5455
 9572TIP3    H150207   3.658   1.157   3.867 -0.6557 -0.4788  0.8375
 9572TIP3    H250208   3.805   1.130   3.892 -0.3908  0.0597 -0.1152
 9573TIP3   OH250209   4.370   3.065   2.243  0.0597 -0.0343 -0.4574
 9573TIP3    H150210   4.280   3.100   2.243  0.7034  1.7597  0.3359
 9573TIP3    H250211   4.395   3.065   2.151 -0.0082  1.6229 -0.5144
 9574TIP3   OH250212   0.347   5.646   5.665  0.4441 -0.2606  0.0657
 9574TIP3    H150213   0.417   5.581   5.675 -1.6841 -2.9451 -1.0504
 9574TIP3    H250214   0.292   5.635   5.743 -0.2033 -0.2112 -0.3726
 9575TIP3   OH250215   4.052   2.996   4.969  0.9234  0.9755 -0.3164
 9575TIP3    H150216   4.049   2.975   4.876  0.8910  2.3242 -0.6341
 9575TIP3    H250217   4.124   3.058   4.978  0.9557  0.8257  0.5701
 9576TIP3   OH250218   6.207   2.016  12.853  0.6470  0.2760  0.0318
 9576TIP3    H150219   6.278   1.958  12.881  0.0243 -0.8452 -0.6561
 9576TIP3    H250220   6.211   2.014  12.757 -0.0849  0.5034 -0.0064
 9577TIP3   OH250221   4.396   5.459  14.056  0.6432  0.4468  0.0456
 9577TIP3    H150222   4.405   5.364  14.060 -1.5832  0.1856  0.4534
 9577TIP3    H250223   4.420   5.483  13.967 -2.8892 -1.1339 -1.5265
 9578TIP3   OH250224   1.504   3.939  17.141  0.0055 -0.2114  0.1625
 9578TIP3    H150225   1.551   4.010  17.097 -0.4857 -0.2495 -0.4437
 9578TIP3    H250226   1.547   3.930  17.226  1.8913 -1.0912 -0.8355
 9579TIP3   OH250227   6.060   2.268  14.520 -0.2372  0.8764 -0.3363
 9579TIP3    H150228   6.095   2.186  14.556 -2.9316 -0.5782 -0.7405
 9579TIP3    H250229   5.965   2.259  14.530 -0.7000  3.2475 -1.9377
 9580TIP3   OH250230   6.172   3.593  14.793 -0.6444  0.4325  0.3204
 9580TIP3    H150231   6.148   3.581  14.701 -0.4257  0.1095  0.3034
 9580TIP3    H250232   6.169   3.687  14.806  1.7163  0.7041 -0.6825
 9581TIP3   OH250233   2.175   2.640  11.358  0.0984  0.0812 -0.0631
 9581TIP3    H150234   2.180   2.560  11.410 -1.5532 -0.7712 -1.1465
 9581TIP3    H250235   2.189   2.710  11.422  1.5274 -1.0321  0.9121
 9582TIP3   OH250236   6.712   4.888  13.429 -0.2338  0.0333  0.6278
 9582TIP3    H150237   6.720   4.844  13.344 -0.3788  0.2298  0.5145
 9582TIP3    H250238   6.803   4.897  13.459 -0.1262  0.6576  0.1413
 9583TIP3   OH250239   4.785   0.302  12.183  0.4046  0.3065 -0.0959
 9583TIP3    H150240   4.852   0.234  12.182 -0.4008 -0.6612 -3.8994
 9583TIP3    H250241   4.831   0.381  12.154  0.0374 -0.3636 -2.7328
 9584TIP3   OH250242   4.266   6.584   2.315  1.1864  0.4215 -0.7867
 9584TIP3    H150243   4.212   6.652   2.276  0.7073  0.0633 -0.7623
 9584TIP3    H250244   4.342   6.630   2.350 -0.0556  1.2306  1.0156
 9585TIP3   OH250245   5.789   5.068  12.342  0.3235 -0.0326  0.0678
 9585TIP3    H150246   5.779   5.092  12.434  0.0856 -0.2626  0.1050
 9585TIP3    H250247   5.866   5.012  12.341  0.7195  0.5084  0.0210
 9586TIP3   OH250248   1.335   5.453   4.286  0.4369 -0.6309  0.0228
 9586TIP3    H150249   1.317   5.430   4.195 -0.1617 -0.1891  0.0258
 9586TIP3    H250250   1.374   5.373   4.323  0.0155 -1.0575 -0.4307
 9587TIP3   OH250251   5.045   3.071  13.025  0.2563  0.0222 -0.2839
 9587TIP3    H150252   5.088   3.147  12.987  0.0482  0.0741 -0.4205
 9587TIP3    H250253   5.053   3.084  13.119 -0.9876  0.9277 -0.2743
 9588TIP3   OH250254   1.807   3.887  16.191  0.1611 -0.7544  0.4036
 9588TIP3    H150255   1.769   3.895  16.104 -1.3911 -1.9582  0.9319
 9588TIP3    H250256   1.836   3.976  16.212  2.1712 -0.7319 -1.9866
 9589TIP3   OH250257   1.986   1.061  17.134  0.0508 -0.1073 -0.2269
 9589TIP3    H150258   2.033   0.992  17.088  3.9245  0.2520  2.6717
 9589TIP3    H250259   1.895   1.030  17.138  0.7076 -2.8068 -2.8074
 9590TIP3   OH250260   2.130   2.432   3.452  0.1639  0.0443 -0.4643
 9590TIP3    H150261   2.160   2.348   3.418 -1.0251 -0.1674 -1.0185
 9590TIP3    H250262   2.056   2.456   3.397 -1.2854  0.1157  1.4338
 9591TIP3   OH250263   5.087   6.612  11.917  0.1954 -0.3188 -0.6958
 9591TIP3    H150264   5.053   6.562  11.991 -3.4052  1.7670 -0.6915
 9591TIP3    H250265   5.116   6.546  11.854 -1.3407 -2.2901  0.5526
 9592TIP3   OH250266   2.254   1.643  16.032  0.1594 -0.0467  0.3431
 9592TIP3    H150267   2.288   1.731  16.051  1.6930 -0.3001 -1.0456
 9592TIP3    H250268   2.257   1.598  16.116  2.5077  0.2202  0.4634
 9593TIP3   OH250269   4.184   4.462   4.515 -0.2775 -0.4825  0.9329
 9593TIP3    H150270   4.140   4.378   4.525 -0.9679 -0.2699 -0.2296
 9593TIP3    H250271   4.255   4.459   4.579 -1.8765 -0.8847  2.7745
 9594TIP3   OH250272   1.952   5.959  14.152 -0.4145  0.0924  0.2846
 9594TIP3    H150273   1.931   5.964  14.059 -1.1073 -2.5796  0.1987
 9594TIP3    H250274   1.890   6.018  14.194 -0.5607  0.8063 -0.8896
 9595TIP3   OH250275   3.753   0.484  17.035  0.3007  0.3300  0.2792
 9595TIP3    H150276   3.713   0.567  17.010 -0.5437 -0.2170 -0.2200
 9595TIP3    H250277   3.842   0.508  17.062  0.5474  1.2120 -1.2232
 9596TIP3   OH250278   2.168   3.369  13.241  0.0357  0.7405  0.2365
 9596TIP3    H150279   2.103   3.300  13.254 -0.3879  0.9735 -0.5818
 9596TIP3    H250280   2.216   3.373  13.324  1.7899 -2.2653 -0.4993
 9597TIP3   OH250281   4.183   4.831   3.650 -0.0889  0.5848 -0.5222
 9597TIP3    H150282   4.207   4.766   3.716 -0.3679  0.4111 -0.5890
 9597TIP3    H250283   4.117   4.787   3.596 -0.2255  0.8984 -0.6128
 9598TIP3   OH250284   6.480   0.247   2.612 -0.4104  0.3529 -0.2320
 9598TIP3    H150285   6.424   0.237   2.535 -0.8572 -0.9269  0.2450
 9598TIP3    H250286   6.493   0.158   2.644  1.2288  0.7047  0.1505
 9599TIP3   OH250287   2.526   3.672   4.278 -0.9101 -0.2033 -0.0253
 9599TIP3    H150288   2.606   3.695   4.326 -0.4622 -0.0286 -0.8433
 9599TIP3    H250289   2.529   3.576   4.272 -0.5576 -0.1719 -0.3937
 9600TIP3   OH250290   6.175   6.324   6.479  0.0875  0.1466 -0.1709
 9600TIP3    H150291   6.263   6.315   6.515 -0.8003  1.0421  2.4718
 9600TIP3    H250292   6.189   6.344   6.386  2.6912  1.0322  0.3222
 9601TIP3   OH250293   5.271   4.574  11.274  0.0079 -0.0283  0.1276
 9601TIP3    H150294   5.265   4.638  11.203  0.2275  0.0700  0.1940
 9601TIP3    H250295   5.219   4.500  11.244 -2.2047  1.0678  1.0417
 9602TIP3   OH250296   2.232   3.940  17.165 -0.0241  1.0646 -0.3407
 9602TIP3    H150297   2.317   3.938  17.208 -0.2971  0.9691  0.2097
 9602TIP3    H250298   2.251   3.965  17.075  0.7131 -0.0585 -0.5191
 9603TIP3   OH250299   4.940   3.456   5.827  0.1634 -0.2620  0.6037
 9603TIP3    H150300   4.989   3.470   5.908  0.8445 -0.7499  0.2805
 9603TIP3    H250301   4.864   3.513   5.835  0.3120 -0.1826  1.5155
 9604TIP3   OH250302   3.481   5.812   2.696 -0.1145  0.1363 -0.2613
 9604TIP3    H150303   3.486   5.747   2.765  0.9507 -0.3885 -0.8067
 9604TIP3    H250304   3.395   5.799   2.657 -0.2838 -0.3003  0.2547
 9605TIP3   OH250305   3.276   1.325   3.366 -0.1050  0.4278 -0.7801
 9605TIP3    H150306   3.242   1.274   3.293  1.2404  0.7160 -1.6524
 9605TIP3    H250307   3.346   1.272   3.403  0.3182  0.9852 -0.7566
 9606TIP3   OH250308   2.102   5.787   0.910 -0.4061  0.1317  0.7128
 9606TIP3    H150309   2.170   5.752   0.967  0.6677  1.2251  0.1771
 9606TIP3    H250310   2.100   5.880   0.930  0.0760  0.5685 -1.0425
 9607TIP3   OH250311   0.383   0.373   3.214  0.0556  0.4328 -0.2259
 9607TIP3    H150312   0.420   0.446   3.263  1.6816 -0.4736 -0.0051
 9607TIP3    H250313   0.422   0.295   3.254 -0.7520 -0.4878 -1.1588
 9608TIP3   OH250314   0.087   0.447  12.140  0.0893  0.0522 -0.0814
 9608TIP3    H150315   0.179   0.423  12.150 -0.4666 -1.7716  1.3198
 9608TIP3    H250316   0.075   0.460  12.046  1.0003 -3.4320 -0.8382
 9609TIP3   OH250317   2.965   1.350  16.576 -0.2681  0.8916 -0.4238
 9609TIP3    H150318   2.979   1.371  16.483 -1.4781 -2.3664 -1.5098
 9609TIP3    H250319   3.042   1.300  16.601 -0.4896  0.7107 -0.0937
 9610TIP3   OH250320   1.400   5.051  10.430  0.3892 -0.5880 -0.8230
 9610TIP3    H150321   1.493   5.061  10.449  0.5086 -2.5506 -0.1128
 9610TIP3    H250322   1.397   4.992  10.354 -0.2653  0.3697 -1.5551
 9611TIP3   OH250323   6.515   5.104  12.403  0.2393 -0.6440 -0.3773
 9611TIP3    H150324   6.465   5.035  12.358  0.9886 -0.7607 -1.0504
 9611TIP3    H250325   6.607   5.080  12.389  0.4973 -0.2713  0.5970
 9612TIP3   OH250326   3.415   2.724  16.213  0.3837 -0.4597  0.2008
 9612TIP3    H150327   3.322   2.711  16.198  0.3541 -0.7048  0.5845
 9612TIP3    H250328   3.458   2.665  16.151  0.3429  1.5159 -1.8101
 9613TIP3   OH250329   3.906   0.599  10.905  0.6170 -0.1246  0.7087
 9613TIP3    H150330   3.913   0.562  10.993 -1.7508  0.9291  1.4126
 9613TIP3    H250331   3.878   0.526  10.850  0.5801 -0.4364  1.1421
 9614TIP3   OH250332   0.850   3.275  13.222  0.1448 -0.1195 -0.1922
 9614TIP3    H150333   0.923   3.289  13.161 -1.1634  0.7895 -1.6394
 9614TIP3    H250334   0.891   3.266  13.308  1.8906  1.8706 -0.7349
 9615TIP3   OH250335   6.687   4.545   5.389 -0.2124  0.2588  0.1796
 9615TIP3    H150336   6.746   4.493   5.334 -0.6673  0.1410 -0.2074
 9615TIP3    H250337   6.740   4.570   5.465  1.0525  2.0631 -1.2032
 9616TIP3   OH250338   2.148   3.583   1.640 -0.2371  0.0234 -0.2082
 9616TIP3    H150339   2.146   3.644   1.566 -1.9442  0.2986  0.0316
 9616TIP3    H250340   2.231   3.536   1.630  0.6561  1.6673 -0.9671
 9617TIP3   OH250341   0.830   4.688  10.842 -0.3084  0.3616 -0.0146
 9617TIP3    H150342   0.780   4.703  10.761 -2.1069 -4.0631 -0.0253
 9617TIP3    H250343   0.893   4.620  10.818 -0.1687 -0.3008  2.0312
 9618TIP3   OH250344   4.318   6.551  16.342  0.3312  0.3364 -0.1657
 9618TIP3    H150345   4.307   6.639  16.378 -0.4168 -0.2969  1.2570
 9618TIP3    H250346   4.395   6.517  16.387 -0.5400 -0.4251  0.7943
 9619TIP3   OH250347   5.565   2.590  10.497  0.0305 -0.1517  0.3019
 9619TIP3    H150348   5.563   2.566  10.405 -2.0695  0.9803 -0.0149
 9619TIP3    H250349   5.567   2.506  10.544  1.8105 -0.7302 -0.7175
 9620TIP3   OH250350   0.984   5.288  13.656 -0.4798 -0.3846 -0.5153
 9620TIP3    H150351   0.909   5.241  13.619  0.5679 -1.0416 -1.8820
 9620TIP3    H250352   1.008   5.351  13.588  0.5247 -0.5331 -0.3078
 9621TIP3   OH250353   0.987   4.997   5.150  0.6046 -0.5512  0.0900
 9621TIP3    H150354   0.941   5.022   5.230  0.8983 -0.9038  0.3696
 9621TIP3    H250355   0.971   5.069   5.090 -0.3880 -0.7038  0.1567
 9622TIP3   OH250356   5.236   3.238   2.713 -0.1180  0.3598 -0.1709
 9622TIP3    H150357   5.291   3.159   2.711  0.1915  0.5804 -0.3504
 9622TIP3    H250358   5.278   3.298   2.652  0.0554  0.9433  0.5125
 9623TIP3   OH250359   3.170   5.106   5.066  0.2767  0.4157  0.1382
 9623TIP3    H150360   3.189   5.119   4.973  0.0781 -0.5746 -0.0491
 9623TIP3    H250361   3.230   5.166   5.111  1.1087  0.1438 -0.5859
 9624TIP3   OH250362   0.690   4.341  16.305  0.2693 -0.3199 -0.0701
 9624TIP3    H150363   0.622   4.393  16.263  0.0699  0.0953  0.7366
 9624TIP3    H250364   0.686   4.256  16.262 -1.6435 -0.7254  0.8276
 9625TIP3   OH250365   2.882   6.795   5.616  0.4650  0.1611 -0.0044
 9625TIP3    H150366   2.922   6.709   5.600  1.6692  0.5915  0.5738
 9625TIP3    H250367   2.803   6.796   5.561  0.4032 -1.3314  0.0219
 9626TIP3   OH250368   3.259   5.473   4.401  0.3603 -0.0901  0.6188
 9626TIP3    H150369   3.283   5.465   4.493  1.4157  0.1171  0.3772
 9626TIP3    H250370   3.163   5.467   4.400  0.4236 -2.1415  1.5304
 9627TIP3   OH250371   3.578   5.004  13.538  0.0459 -0.8896  0.0176
 9627TIP3    H150372   3.595   4.912  13.518 -2.1383 -0.8165 -2.8663
 9627TIP3    H250373   3.564   5.006  13.633  3.5627 -2.8137  0.7353
 9628TIP3   OH250374   1.418   3.608   5.301 -0.2321 -0.7770 -0.2638
 9628TIP3    H150375   1.398   3.628   5.209  0.3883  1.7788  0.0614
 9628TIP3    H250376   1.508   3.577   5.299  0.1939  0.3972 -0.4598
 9629TIP3   OH250377   5.005   1.494  16.055 -0.1401  0.4876  0.4284
 9629TIP3    H150378   4.940   1.510  16.123  0.1404  0.9644  0.5871
 9629TIP3    H250379   4.956   1.454  15.983 -0.6788  1.2040  0.3978
 9630TIP3   OH250380   1.640   4.239   5.088  0.3160 -0.0656 -0.4199
 9630TIP3    H150381   1.715   4.225   5.145  0.1532 -3.5487 -0.8409
 9630TIP3    H250382   1.565   4.212   5.141  0.1446 -3.1763 -2.0260
 9631TIP3   OH250383   1.242   6.169   5.812 -0.8292 -0.2175  0.3158
 9631TIP3    H150384   1.243   6.166   5.716 -0.9793  0.4935  0.2873
 9631TIP3    H250385   1.162   6.121   5.836 -0.1895 -1.4057  0.1409
 9632TIP3   OH250386   4.864   0.391   3.984 -0.2472 -0.1931 -0.1138
 9632TIP3    H150387   4.850   0.314   3.928  2.0628  0.9572 -2.5190
 9632TIP3    H250388   4.952   0.380   4.019 -0.6352  0.4515  1.1442
 9633TIP3   OH250389   6.815   1.449   5.895 -0.0371 -0.1781 -0.0206
 9633TIP3    H150390   6.790   1.469   5.985 -1.8859 -0.5387 -0.4099
 9633TIP3    H250391   6.778   1.362   5.879 -0.1488  0.0759 -1.2700
 9634TIP3   OH250392   6.204   0.717   4.926  0.7523 -0.2684 -0.1023
 9634TIP3    H150393   6.220   0.711   5.021 -2.9925  2.2263  0.8681
 9634TIP3    H250394   6.148   0.642   4.907 -2.1542  1.5285  0.7568
 9635TIP3   OH250395   1.809   4.241   4.453  0.1215  0.4965 -0.5084
 9635TIP3    H150396   1.739   4.186   4.487 -1.2954  1.9548 -0.9478
 9635TIP3    H250397   1.807   4.320   4.507  1.8662  0.3358 -0.1229
 9636TIP3   OH250398   1.604   5.997  12.337 -0.1103 -0.3440  0.4241
 9636TIP3    H150399   1.666   6.062  12.305  0.7948 -0.5456  1.7255
 9636TIP3    H250400   1.607   5.927  12.272 -0.1821  0.3516 -0.3425
 9637TIP3   OH250401   6.122   2.620   0.153 -0.2795  0.2732 -0.0225
 9637TIP3    H150402   6.172   2.699   0.137  1.3259 -0.7762 -0.4577
 9637TIP3    H250403   6.126   2.571   0.071 -1.0293 -0.3637  0.3020
 9638TIP3   OH250404   0.604   0.921   3.855 -0.7443 -0.4152  0.8039
 9638TIP3    H150405   0.601   1.016   3.840  2.1804 -0.4189 -0.5131
 9638TIP3    H250406   0.596   0.883   3.768  1.1173 -1.2004  0.9356
 9639TIP3   OH250407   1.973   1.774   0.699 -0.2282 -0.5994  0.7008
 9639TIP3    H150408   2.012   1.746   0.616  1.6088  0.3441  1.1756
 9639TIP3    H250409   1.879   1.778   0.682  0.2200  1.3003 -1.9204
 9640TIP3   OH250410   4.853   2.767  12.414  0.2906 -0.3596  0.2838
 9640TIP3    H150411   4.823   2.816  12.490 -0.7640 -1.4181  0.5855
 9640TIP3    H250412   4.772   2.737  12.371  0.8851 -1.8736  0.1593
 9641TIP3   OH250413   3.507   2.939   1.130  0.1350  0.2910  0.5855
 9641TIP3    H150414   3.479   2.993   1.204 -0.3375  0.1413  0.5190
 9641TIP3    H250415   3.466   2.854   1.145 -0.0473  0.2915  0.0979
 9642TIP3   OH250416   5.344   6.253   4.918 -0.2078 -0.6231  0.2525
 9642TIP3    H150417   5.266   6.279   4.968 -0.8903  1.6393 -1.7966
 9642TIP3    H250418   5.408   6.322   4.937 -0.7578  0.7729 -2.4499
 9643TIP3   OH250419   1.361   0.115  12.972  0.1115  0.0159 -0.0966
 9643TIP3    H150420   1.312   0.187  13.011 -0.7056  0.1149 -1.2386
 9643TIP3    H250421   1.322   0.036  13.008 -1.2963  0.0791 -1.3838
 9644TIP3   OH250422   6.533   5.438  13.637 -0.3849  0.3259 -0.0771
 9644TIP3    H150423   6.475   5.496  13.687  1.6147  1.3118  1.2266
 9644TIP3    H250424   6.475   5.393  13.575 -2.4742  1.4128  1.0002
 9645TIP3   OH250425   2.528   5.799   2.693  0.0928 -0.6641  0.0861
 9645TIP3    H150426   2.559   5.849   2.768 -2.0449 -0.0249  0.6149
 9645TIP3    H250427   2.475   5.729   2.731 -1.0549 -0.3144 -0.8052
 9646TIP3   OH250428   3.937   2.880  14.558  0.7107 -0.3153 -0.1833
 9646TIP3    H150429   3.876   2.934  14.609  1.5229 -0.5457  1.0762
 9646TIP3    H250430   3.892   2.865  14.475 -0.8991 -0.3944  0.6670
 9647TIP3   OH250431   4.325   4.144  14.340 -0.3507  0.2615 -0.4936
 9647TIP3    H150432   4.254   4.168  14.281 -0.4334  0.7169 -0.2130
 9647TIP3    H250433   4.281   4.114  14.420 -0.2319  0.6975 -0.2589
 9648TIP3   OH250434   6.280   5.955  16.580 -0.7549 -0.5912 -0.1026
 9648TIP3    H150435   6.252   6.001  16.501  0.4186  0.2019 -0.0887
 9648TIP3    H250436   6.375   5.943  16.568 -0.3926  0.2988  1.5229
 9649TIP3   OH250437   1.219   0.370   3.025 -0.7255  0.4114  0.3114
 9649TIP3    H150438   1.195   0.285   2.989 -1.2211  0.1348  1.2506
 9649TIP3    H250439   1.301   0.355   3.071 -2.3955 -0.3989  3.2796
 9650TIP3   OH250440   4.844   2.187  14.953  0.0860  0.1886  0.6693
 9650TIP3    H150441   4.920   2.139  14.920 -0.2178  0.0834  0.1027
 9650TIP3    H250442   4.797   2.124  15.007 -0.4506 -0.2465 -0.2828
 9651TIP3   OH250443   5.537   0.728   4.433  0.1702  0.1449 -0.5652
 9651TIP3    H150444   5.593   0.758   4.361  1.4652  0.6902  0.6105
 9651TIP3    H250445   5.508   0.808   4.476 -0.7106 -0.1723 -0.5459
 9652TIP3   OH250446   3.755   2.718  13.561 -0.3127 -0.5806  0.7959
 9652TIP3    H150447   3.718   2.673  13.638  0.5499 -1.2599  0.8275
 9652TIP3    H250448   3.832   2.665  13.537 -0.5547 -0.3618 -0.5242
 9653TIP3   OH250449   3.318   2.293  11.942 -0.7015  0.0492 -0.3529
 9653TIP3    H150450   3.272   2.302  12.026 -0.2088  0.2084 -0.0949
 9653TIP3    H250451   3.281   2.362  11.887 -0.6900  0.2509 -0.1114
 9654TIP3   OH250452   4.829   4.960   2.582  0.1311 -0.0367  0.0931
 9654TIP3    H150453   4.763   4.922   2.639 -0.7818 -0.1531 -1.0146
 9654TIP3    H250454   4.788   5.039   2.547 -0.4712 -1.4442 -2.6235
 9655TIP3   OH250455   2.365   1.684   5.590 -0.2793 -0.0263  0.1972
 9655TIP3    H150456   2.271   1.693   5.602 -0.5329 -1.4876 -0.4033
 9655TIP3    H250457   2.395   1.770   5.561 -1.1333  0.9267  1.9942
 9656TIP3   OH250458   4.838   5.075   3.199  0.5564  0.1953 -0.5263
 9656TIP3    H150459   4.751   5.037   3.183  0.9082 -0.8350 -0.0317
 9656TIP3    H250460   4.829   5.166   3.169 -0.2353 -0.3105 -1.9170
 9657TIP3   OH250461   1.637   4.236   3.696 -0.1351 -0.7751 -0.2199
 9657TIP3    H150462   1.556   4.184   3.690 -0.9970  0.3786  0.9311
 9657TIP3    H250463   1.689   4.208   3.620 -3.2905  1.2889 -3.4452
 9658TIP3   OH250464   4.273   0.149  11.273 -0.1278  0.0328  0.3654
 9658TIP3    H150465   4.334   0.159  11.199 -0.0653 -2.2337  0.0447
 9658TIP3    H250466   4.230   0.234  11.279  0.3315  0.5058 -1.8777
 9659TIP3   OH250467   3.649   0.210  13.295 -0.2764  0.1118  0.5825
 9659TIP3    H150468   3.700   0.272  13.347 -0.1574 -0.4041  1.0952
 9659TIP3    H250469   3.686   0.216  13.207 -0.0678  0.5428  0.6973
 9660TIP3   OH250470   1.423   3.339   0.949  0.0499 -0.1641 -0.1909
 9660TIP3    H150471   1.341   3.322   0.995 -1.1095  0.4149 -1.9379
 9660TIP3    H250472   1.430   3.434   0.947  1.4026 -0.1986  0.9295
 9661TIP3   OH250473   1.925   0.044  14.688  0.2364  0.2562  0.2562
 9661TIP3    H150474   1.961   0.060  14.776  1.0029  2.1996 -0.3554
 9661TIP3    H250475   1.945  -0.048  14.671  3.1704  0.6777  0.7984
 9662TIP3   OH250476   2.480   3.746  10.508 -0.0416  0.0549  0.4835
 9662TIP3    H150477   2.498   3.813  10.574  0.4393 -0.3710  0.7900
 9662TIP3    H250478   2.553   3.685  10.516  0.6699  0.6184 -1.2591
 9663TIP3   OH250479   3.362   4.799  14.314 -0.1400 -0.6163  0.0744
 9663TIP3    H150480   3.409   4.721  14.342  0.0797 -0.4639  0.1310
 9663TIP3    H250481   3.285   4.766  14.268 -0.4456 -0.8727  0.7565
 9664TIP3   OH250482   4.261   1.586  16.861 -0.0806  0.4498 -0.1020
 9664TIP3    H150483   4.218   1.669  16.843 -1.5266 -0.5720 -1.7387
 9664TIP3    H250484   4.192   1.530  16.897  0.4195 -0.5506 -0.6382
 9665TIP3   OH250485   5.125   1.767   4.850  1.1102  0.3215 -0.4248
 9665TIP3    H150486   5.210   1.811   4.849 -0.3159  3.3483 -1.1294
 9665TIP3    H250487   5.114   1.740   4.941  2.8885 -0.3278 -0.3694
 9666TIP3   OH250488   3.564   1.570  13.236  0.2888 -0.8794  0.4301
 9666TIP3    H150489   3.641   1.621  13.264 -0.0111 -0.5436  0.6532
 9666TIP3    H250490   3.601   1.492  13.196  0.8290  0.4699 -1.8655
 9667TIP3   OH250491   0.794   1.458   3.308  0.5767  0.3276 -0.8653
 9667TIP3    H150492   0.707   1.431   3.278 -0.0754  0.2114  1.0126
 9667TIP3    H250493   0.777   1.519   3.380  2.0033 -0.8727  0.5676
 9668TIP3   OH250494   0.417   3.092   0.686  0.4664 -0.7021 -0.8188
 9668TIP3    H150495   0.325   3.110   0.668  0.2847 -0.7973 -0.0101
 9668TIP3    H250496   0.461   3.175   0.671 -0.0019 -0.2038  0.4560
 9669TIP3   OH250497   6.699   2.333   2.316 -0.6960 -0.2312  0.5595
 9669TIP3    H150498   6.674   2.408   2.262  0.0584 -1.2001 -1.2305
 9669TIP3    H250499   6.629   2.326   2.380 -2.0999  0.4927 -0.8168
 9670TIP3   OH250500   0.602   6.658   4.753 -0.2861 -0.0371  0.1684
 9670TIP3    H150501   0.689   6.675   4.788 -0.5673  1.2397  0.2829
 9670TIP3    H250502   0.602   6.564   4.735  0.8487 -0.1975  0.8774
 9671TIP3   OH250503   2.532   1.447  11.331  0.1861 -0.3411 -0.7578
 9671TIP3    H150504   2.511   1.533  11.367 -0.8981 -0.1136 -1.8678
 9671TIP3    H250505   2.460   1.391  11.360 -0.8950 -0.0721 -2.7697
 9672TIP3   OH250506   1.031   4.527  16.004  0.1994 -0.4426 -0.0641
 9672TIP3    H150507   1.121   4.554  15.989  0.1199 -0.2758 -0.2440
 9672TIP3    H250508   0.982   4.565  15.931  0.2086 -1.7475 -0.7826
 9673TIP3   OH250509   1.744   0.443   3.297 -0.0162  0.4525  0.2895
 9673TIP3    H150510   1.660   0.485   3.280 -0.1475  0.5408  1.1085
 9673TIP3    H250511   1.799   0.469   3.224 -0.3298  1.4250  0.3772
 9674TIP3   OH250512   3.018   2.048  15.394  0.3997 -1.0673  0.4683
 9674TIP3    H150513   2.960   1.992  15.342 -0.2486  0.3422 -0.4002
 9674TIP3    H250514   2.959   2.090  15.458  0.1223  1.2674 -1.1616
 9675TIP3   OH250515   3.076   4.721  14.753  0.0702  0.0106  0.4451
 9675TIP3    H150516   2.986   4.718  14.718  1.1301  0.8421 -2.6846
 9675TIP3    H250517   3.089   4.634  14.790 -1.2038 -1.0900 -1.4624
 9676TIP3   OH250518   0.847   6.778  11.965  0.0814  0.1795 -0.3921
 9676TIP3    H150519   0.881   6.690  11.953 -0.3267  0.1846 -1.7040
 9676TIP3    H250520   0.917   6.836  11.935 -1.2908  0.1741 -4.0414
 9677TIP3   OH250521   6.674   4.961   0.704  0.0871 -0.0502 -0.3778
 9677TIP3    H150522   6.656   5.036   0.648  1.6643 -0.5458 -1.6514
 9677TIP3    H250523   6.724   4.997   0.777 -0.4503  0.3555 -0.2097
 9678TIP3   OH250524   4.502   0.548  16.964 -0.4895 -0.1027 -0.5542
 9678TIP3    H150525   4.558   0.614  16.923  0.8788 -0.6466  0.3467
 9678TIP3    H250526   4.499   0.477  16.901 -2.2560  0.9079 -1.6813
 9679TIP3   OH250527   1.604   4.611  11.954 -0.3793  0.4465 -0.0869
 9679TIP3    H150528   1.535   4.596  11.890 -1.5720  1.0256  1.0304
 9679TIP3    H250529   1.587   4.698  11.989 -0.5408 -0.3320  1.9210
 9680TIP3   OH250530   5.604   6.441  10.870 -0.0016  0.5083 -0.0598
 9680TIP3    H150531   5.573   6.511  10.813 -0.6248  1.2920  1.2026
 9680TIP3    H250532   5.525   6.407  10.912  0.4455 -0.0341  0.3587
 9681TIP3   OH250533   5.007   4.821   5.299 -0.5075  0.7555 -0.5629
 9681TIP3    H150534   4.947   4.894   5.315 -1.5305  0.6404 -3.2529
 9681TIP3    H250535   4.960   4.765   5.237  1.5243 -0.5006 -1.0712
 9682TIP3   OH250536   1.875   0.542  14.042 -0.1676 -0.2816 -0.2586
 9682TIP3    H150537   1.785   0.548  14.012 -0.2348  0.2307  0.0407
 9682TIP3    H250538   1.872   0.568  14.134  0.4744  0.9758 -0.5739
 9683TIP3   OH250539   0.529   4.200  10.746  0.4130 -0.1601  1.1684
 9683TIP3    H150540   0.577   4.142  10.805 -0.3566 -0.1609  1.8161
 9683TIP3    H250541   0.442   4.161  10.739 -0.0618  0.8044  1.4600
 9684TIP3   OH250542   2.674   0.790  17.062 -0.4250 -0.0471 -0.0127
 9684TIP3    H150543   2.730   0.847  17.009 -1.6846  1.8816  0.6376
 9684TIP3    H250544   2.651   0.718  17.004  1.3879 -0.0521 -0.7991
 9685TIP3   OH250545   3.501   4.803  16.734 -0.4371  0.0526  0.1677
 9685TIP3    H150546   3.516   4.897  16.743  0.2639  0.3296 -2.9183
 9685TIP3    H250547   3.430   4.784  16.796 -0.2982  2.4908  1.1831
 9686TIP3   OH250548   0.280   2.164  14.931 -0.0013 -0.0411 -0.3594
 9686TIP3    H150549   0.190   2.193  14.922 -0.0128  0.3552  0.8484
 9686TIP3    H250550   0.329   2.217  14.869 -0.3136  1.2308  0.4329
 9687TIP3   OH250551   2.302   4.064   1.118  0.1642  0.5587 -0.1278
 9687TIP3    H150552   2.374   4.084   1.177 -0.6431  1.8679  0.4477
 9687TIP3    H250553   2.278   4.148   1.079 -2.8277  0.7556  1.7841
 9688TIP3   OH250554   1.799   2.411  12.817  0.4449 -0.6749  0.5249
 9688TIP3    H150555   1.835   2.490  12.775 -0.0272 -0.2537  0.9043
 9688TIP3    H250556   1.762   2.361  12.744  0.3118 -0.3114  0.3368
 9689TIP3   OH250557   5.080   1.684   4.350 -0.0698 -0.1666 -0.3595
 9689TIP3    H150558   5.090   1.680   4.446  2.1173 -0.9076 -0.5679
 9689TIP3    H250559   5.012   1.619   4.331  0.3275 -0.9019  0.6139
 9690TIP3   OH250560   1.787   1.602  13.325 -0.5989  0.0377  0.0768
 9690TIP3    H150561   1.787   1.666  13.254 -0.0051 -1.3787 -1.2743
 9690TIP3    H250562   1.874   1.609  13.365 -0.3005 -0.3242 -0.4858
 9691TIP3   OH250563   2.572   5.062  14.117  0.4789  0.2269  0.5059
 9691TIP3    H150564   2.654   5.078  14.163  0.3585  1.1312  0.4279
 9691TIP3    H250565   2.532   5.149  14.108  0.0459 -0.0534 -0.4516
 9692TIP3   OH250566   1.301   4.896  13.056 -0.2609  0.0315 -0.0557
 9692TIP3    H150567   1.238   4.950  13.104 -0.1402  0.3151 -0.2182
 9692TIP3    H250568   1.384   4.943  13.062 -0.0720 -0.3134  0.1113
 9693TIP3   OH250569   3.807   0.714   3.335 -0.2902  0.6568  0.0586
 9693TIP3    H150570   3.829   0.792   3.385 -1.1384 -0.3907  2.2051
 9693TIP3    H250571   3.793   0.646   3.401 -2.3548 -0.6162 -1.5505
 9694TIP3   OH250572   6.098   5.031   2.191  0.9863  0.2578  0.1898
 9694TIP3    H150573   6.061   5.119   2.198 -0.3972 -0.2820 -0.0028
 9694TIP3    H250574   6.046   4.988   2.123 -0.0395 -1.4829  1.9621
 9695TIP3   OH250575   1.115   4.534   6.393  0.3574  0.3373  0.0685
 9695TIP3    H150576   1.126   4.603   6.459  1.7113  0.4794 -0.2762
 9695TIP3    H250577   1.038   4.562   6.343  0.6304  1.3914  0.2069
 9696TIP3   OH250578   5.319   5.241   1.565 -0.1170  0.0667 -0.5011
 9696TIP3    H150579   5.308   5.155   1.605 -2.3410  0.4354 -0.2146
 9696TIP3    H250580   5.267   5.237   1.485 -0.3683  1.1833 -0.4076
 9697TIP3   OH250581   6.676   2.636   1.841  0.6787  0.2853 -0.3632
 9697TIP3    H150582   6.610   2.600   1.901 -0.0057 -0.3664 -1.4661
 9697TIP3    H250583   6.680   2.573   1.769  2.3813  0.4180 -0.4302
 9698TIP3   OH250584   2.190   0.503   0.920  0.4676  0.1564  0.0521
 9698TIP3    H150585   2.115   0.469   0.969 -0.3561  1.8030 -0.0181
 9698TIP3    H250586   2.174   0.597   0.912  0.5035 -0.0030 -3.4153
 9699TIP3   OH250587   2.591   0.598   0.411  0.0364  0.6378  0.2582
 9699TIP3    H150588   2.559   0.515   0.375  1.9948 -0.1831  0.2536
 9699TIP3    H250589   2.544   0.608   0.494 -0.8095 -0.0705 -0.1230
 9700TIP3   OH250590   1.294   6.126   3.108  0.1707 -0.2780 -0.0280
 9700TIP3    H150591   1.199   6.130   3.105  0.1771 -0.1807 -0.0967
 9700TIP3    H250592   1.323   6.194   3.047  0.2818  0.9189  1.3019
 9701TIP3   OH250593   1.846   3.105  16.210  0.3635  0.1418 -0.4881
 9701TIP3    H150594   1.772   3.050  16.184 -0.1407  0.1529  0.8537
 9701TIP3    H250595   1.806   3.188  16.236  0.9524  0.5160 -0.7699
 9702TIP3   OH250596   2.700   4.905   5.192  0.0831  0.5182  0.3353
 9702TIP3    H150597   2.647   4.977   5.157  0.8236  1.2405  0.6724
 9702TIP3    H250598   2.770   4.894   5.128  1.3260  1.7101  1.4514
 9703TIP3   OH250599   5.849   1.900   3.724  0.0824 -0.2457 -0.0341
 9703TIP3    H150600   5.862   1.814   3.765 -0.3504 -0.4300 -0.2761
 9703TIP3    H250601   5.885   1.962   3.787 -1.0057 -0.4847  0.8425
 9704TIP3   OH250602   6.298   1.034   2.067  0.2675  0.0933  0.0468
 9704TIP3    H150603   6.337   1.022   1.981  2.1399  1.5297  0.6270
 9704TIP3    H250604   6.254   0.951   2.086  1.9332 -1.1478 -1.2324
 9705TIP3   OH250605   2.235   4.015  10.297  0.1517  0.4776  0.2005
 9705TIP3    H150606   2.173   3.980  10.361 -0.4504 -0.1703 -0.7205
 9705TIP3    H250607   2.248   3.944  10.235  1.2768  0.8572 -0.0165
 9706TIP3   OH250608   2.821   3.360   2.037  0.1644  0.1496  0.3126
 9706TIP3    H150609   2.842   3.326   1.949 -1.0920 -1.6893  0.6537
 9706TIP3    H250610   2.900   3.404   2.065  0.8331  0.1887 -1.4808
 9707TIP3   OH250611   5.994   5.009   1.066 -0.0113 -0.2582  0.3982
 9707TIP3    H150612   5.969   4.928   1.111 -2.7194  0.5800  0.5810
 9707TIP3    H250613   6.006   4.983   0.975 -1.6489 -0.7598  0.3083
 9708TIP3   OH250614   0.639   5.616  17.102  0.7646  0.0411  0.0468
 9708TIP3    H150615   0.560   5.667  17.085  0.1971 -0.5673  0.7767
 9708TIP3    H250616   0.709   5.681  17.104  0.6313  0.3731 -2.6254
 9709TIP3   OH250617   1.973   4.374   0.833 -0.6164  0.2728  0.0233
 9709TIP3    H150618   1.967   4.302   0.896  2.4099  0.4233  0.6240
 9709TIP3    H250619   1.965   4.332   0.748 -0.6908 -0.5257  0.4144
 9710TIP3   OH250620   3.474   5.004  11.328 -0.1918 -0.1531 -1.0529
 9710TIP3    H150621   3.468   5.076  11.391 -1.5416 -0.2703 -1.0219
 9710TIP3    H250622   3.567   4.981  11.327 -0.1232 -0.0890  0.8018
 9711TIP3   OH250623   4.208   6.231  10.740  0.4895 -0.0116 -0.3383
 9711TIP3    H150624   4.301   6.236  10.720  0.5195 -0.5692 -0.3607
 9711TIP3    H250625   4.174   6.165  10.680  0.3104 -0.6641  0.4687
 9712TIP3   OH250626   0.908   1.736  12.819  0.1836  0.8341 -0.0721
 9712TIP3    H150627   0.904   1.826  12.785 -0.5868  0.7072 -0.3198
 9712TIP3    H250628   0.889   1.745  12.913 -0.2338  0.8905 -0.1625
 9713TIP3   OH250629   6.046   2.282   4.125 -0.1394  0.0953 -0.2754
 9713TIP3    H150630   6.025   2.190   4.139  0.8055 -0.3267 -1.4476
 9713TIP3    H250631   6.138   2.290   4.151 -0.6174  1.0415  1.1800
 9714TIP3   OH250632   2.864   3.702   5.105  0.4982  0.7346 -0.3098
 9714TIP3    H150633   2.892   3.614   5.132  1.2990  1.7257  2.3633
 9714TIP3    H250634   2.940   3.740   5.063  0.3775  0.4326 -0.8153
 9715TIP3   OH250635   4.477   3.783   6.504 -0.3667 -0.0808  0.0693
 9715TIP3    H150636   4.481   3.697   6.461  1.0887  0.7484 -1.6239
 9715TIP3    H250637   4.563   3.792   6.547 -0.2705  0.7506 -0.2817
 9716TIP3   OH250638   5.633   4.485  14.433 -0.0234 -0.1465  0.5695
 9716TIP3    H150639   5.555   4.430  14.429 -0.0529 -0.0575 -0.8231
 9716TIP3    H250640   5.707   4.424  14.436 -0.0309 -0.3409 -1.5131
 9717TIP3   OH250641   5.336   5.379   0.976 -0.4578 -0.1603  0.2665
 9717TIP3    H150642   5.249   5.339   0.972 -1.4398  1.7427  0.9810
 9717TIP3    H250643   5.353   5.389   1.069 -0.5764  1.5911  0.1501
 9718TIP3   OH250644   6.666   4.817   0.233  0.3094  0.6012  0.1471
 9718TIP3    H150645   6.589   4.783   0.187  2.2571 -1.7175 -1.6658
 9718TIP3    H250646   6.675   4.759   0.309  2.0889 -1.4638 -1.4969
 9719TIP3   OH250647   3.256   6.339  15.486  0.0826 -0.1630  0.1111
 9719TIP3    H150648   3.240   6.253  15.525  3.3828 -0.4189  1.2961
 9719TIP3    H250649   3.298   6.389  15.556  0.3476  1.6168 -1.2501
 9720TIP3   OH250650   2.413   5.646   5.567 -0.9666  0.4443 -0.0831
 9720TIP3    H150651   2.393   5.739   5.563  0.3912  0.8387  1.2537
 9720TIP3    H250652   2.346   5.609   5.624 -2.2764  0.3180 -1.6213
 9721TIP3   OH250653   0.109   3.649   5.215 -0.4635  0.2785 -0.8245
 9721TIP3    H150654   0.103   3.640   5.120  0.7724 -2.1243 -0.7485
 9721TIP3    H250655   0.088   3.562   5.249 -3.6422  1.6715  1.3363
 9722TIP3   OH250656   3.926   3.050   5.388  0.5864 -0.5426  0.1136
 9722TIP3    H150657   3.949   3.123   5.330 -3.1811 -0.6704 -1.8862
 9722TIP3    H250658   3.902   3.092   5.471 -2.1325  0.7868 -1.1961
 9723TIP3   OH250659   6.580   1.146  14.580  0.2548  0.1996  0.2033
 9723TIP3    H150660   6.553   1.223  14.630  3.0536  2.3740 -1.3472
 9723TIP3    H250661   6.498   1.100  14.562 -1.6771  3.1909  0.6014
 9724TIP3   OH250662   4.491   2.690   2.853 -0.0985 -0.1548 -0.4264
 9724TIP3    H150663   4.513   2.713   2.762 -0.0406 -0.0789 -0.3932
 9724TIP3    H250664   4.551   2.741   2.906 -0.8866  0.6883 -0.3129
 9725TIP3   OH250665   1.443   6.654   4.879 -0.2811 -0.0254  0.3487
 9725TIP3    H150666   1.455   6.707   4.801 -1.0378  0.1965  0.3778
 9725TIP3    H250667   1.361   6.606   4.864  0.2072 -0.9194  0.4711
 9726TIP3   OH250668   2.853   3.762   2.920  0.0755  0.1130 -0.1288
 9726TIP3    H150669   2.802   3.837   2.891  1.9528  1.2931 -0.5359
 9726TIP3    H250670   2.944   3.790   2.912  0.7971 -1.3097  2.1527
 9727TIP3   OH250671   4.912   6.328  16.918 -0.3887 -0.5213 -0.2043
 9727TIP3    H150672   4.883   6.243  16.952 -3.6061  1.0655  1.5051
 9727TIP3    H250673   4.883   6.328  16.827 -0.6082 -1.1426 -0.1404
 9728TIP3   OH250674   6.375   5.463  15.478  0.1175 -0.1784  0.5125
 9728TIP3    H150675   6.334   5.501  15.556  0.3069 -1.6136  1.3599
 9728TIP3    H250676   6.313   5.395  15.449  0.4912 -0.3018 -0.0056
 9729TIP3   OH250677   2.402   6.392  11.029 -0.0687 -0.1887 -0.3624
 9729TIP3    H150678   2.472   6.411  10.966  0.3865 -0.9752 -0.1031
 9729TIP3    H250679   2.373   6.478  11.059  1.3314  0.1345  0.1174
 9730TIP3   OH250680   4.375   3.475  16.405 -0.3768  0.3576 -0.3152
 9730TIP3    H150681   4.298   3.423  16.379 -0.2261 -1.4347  2.3653
 9730TIP3    H250682   4.432   3.412  16.450  3.0208  1.4790 -2.6826
 9731TIP3   OH250683   3.420   4.957   1.993  0.0568  0.1322 -0.0578
 9731TIP3    H150684   3.464   4.984   1.913 -0.7506 -0.4098 -0.6999
 9731TIP3    H250685   3.331   4.991   1.984  0.3247  1.2689  1.2490
 9732TIP3   OH250686   3.343   0.870  11.630  0.2861 -0.1396  0.6154
 9732TIP3    H150687   3.279   0.930  11.668  0.0186 -1.6044  2.6779
 9732TIP3    H250688   3.428   0.910  11.647  0.0342  0.5927  0.1652
 9733TIP3   OH250689   0.188   3.536  15.184  0.0819 -0.5384  0.1212
 9733TIP3    H150690   0.134   3.460  15.161  0.3009 -0.3191 -1.1718
 9733TIP3    H250691   0.158   3.561  15.271 -0.6802 -1.4959  0.1537
 9734TIP3   OH250692   3.795   2.838   0.881 -0.0933  0.2712  0.8574
 9734TIP3    H150693   3.808   2.915   0.936 -0.6008  1.0506 -0.0710
 9734TIP3    H250694   3.859   2.848   0.810 -0.4884  0.1027  0.4682
 9735TIP3   OH250695   1.230   6.357   6.776  0.1557  0.3645 -0.3028
 9735TIP3    H150696   1.177   6.286   6.812  0.5142  0.2663  0.0421
 9735TIP3    H250697   1.313   6.314   6.752  0.3303  0.6437 -0.2003
 9736TIP3   OH250698   3.156   2.427  16.235  0.0328 -0.1924  0.1209
 9736TIP3    H150699   3.185   2.369  16.164  1.2658  0.4083  0.1026
 9736TIP3    H250700   3.146   2.370  16.311  0.3706 -0.5700 -0.1175
 9737TIP3   OH250701   6.129   1.113  16.976  0.0083  0.2062  0.3473
 9737TIP3    H150702   6.048   1.157  17.002  0.4536  1.6367 -0.6069
 9737TIP3    H250703   6.112   1.020  16.993 -0.9579  0.6937  2.4098
 9738TIP3   OH250704   4.874   4.522  15.522 -0.2517  0.4572 -0.0948
 9738TIP3    H150705   4.874   4.501  15.428  0.1092  1.1335 -0.2532
 9738TIP3    H250706   4.920   4.448  15.562  1.7447  1.2633 -0.7416
 9739TIP3   OH250707   6.149   5.925   0.000 -0.0341 -0.2156  0.1646
 9739TIP3    H150708   6.057   5.942  -0.022  0.2188 -0.0669 -0.8235
 9739TIP3    H250709   6.197   5.997  -0.042  0.3583  1.1458  2.7072
 9740TIP3   OH250710   6.781   2.516   0.428  0.1054 -0.5116  0.0710
 9740TIP3    H150711   6.846   2.586   0.427  1.5784 -1.7372  1.6553
 9740TIP3    H250712   6.706   2.551   0.381  1.6027  1.2876 -1.1056
 9741TIP3   OH250713   1.453   4.740  12.575  0.0251 -0.2356 -0.4900
 9741TIP3    H150714   1.382   4.737  12.510 -1.0713 -1.4744  0.6782
 9741TIP3    H250715   1.411   4.774  12.654  1.1198  0.4158 -0.1708
 9742TIP3   OH250716   2.924   0.174   2.998 -0.1062  0.4079  0.5565
 9742TIP3    H150717   2.853   0.140   3.052 -0.6559 -0.0034 -0.4011
 9742TIP3    H250718   2.880   0.223   2.928  0.4685 -0.8763 -0.7567
 9743TIP3   OH250719   2.526   0.372  16.652  0.0251  0.0159 -0.7573
 9743TIP3    H150720   2.481   0.387  16.736  1.1359 -1.3262  0.1248
 9743TIP3    H250721   2.506   0.450  16.600 -2.4646 -0.0726 -0.0594
 9744TIP3   OH250722   5.638   2.967   1.459  0.5758 -0.3181  0.0240
 9744TIP3    H150723   5.636   3.003   1.370 -0.4142  0.5242  0.3650
 9744TIP3    H250724   5.549   2.936   1.474 -0.6444  3.5222  2.2248
 9745TIP3   OH250725   0.066   5.235   4.173 -0.1278  0.0540 -0.1046
 9745TIP3    H150726   0.153   5.253   4.138 -0.3937  2.5859  0.3999
 9745TIP3    H250727   0.075   5.149   4.215  2.4384  0.7111  0.8662
 9746TIP3   OH250728   4.792   3.465   3.455  0.2306 -0.6700  0.3462
 9746TIP3    H150729   4.773   3.425   3.369 -0.7163  1.1411 -0.3383
 9746TIP3    H250730   4.885   3.447   3.469  0.5815 -0.4118 -1.4018
 9747TIP3   OH250731   6.113   2.761   1.616 -0.4480  0.0970 -0.2491
 9747TIP3    H150732   6.084   2.670   1.617 -1.1386  0.3157 -0.0010
 9747TIP3    H250733   6.171   2.768   1.692 -1.5696  0.2298  0.6227
 9748TIP3   OH250734   5.651   5.270  16.088 -0.0134 -0.7124  0.0981
 9748TIP3    H150735   5.726   5.236  16.040 -0.3746 -1.9167  0.3460
 9748TIP3    H250736   5.609   5.331  16.027 -2.1060 -4.2846 -2.3616
 9749TIP3   OH250737   0.656   3.188  12.548  0.0426  0.5488 -0.0103
 9749TIP3    H150738   0.693   3.275  12.565 -0.1503  0.3617  1.5348
 9749TIP3    H250739   0.707   3.129  12.603 -0.6763 -0.1255 -0.0530
 9750TIP3   OH250740   1.981   5.241  13.072 -0.4850 -0.3383  0.5129
 9750TIP3    H150741   1.987   5.201  13.159  2.3420 -0.6127  0.2796
 9750TIP3    H250742   1.978   5.336  13.089  2.5601 -0.2330  0.9735
 9751TIP3   OH250743   3.741   3.768  12.159 -0.5438  0.3751  0.1349
 9751TIP3    H150744   3.756   3.798  12.069  0.1428 -0.3487 -0.0027
 9751TIP3    H250745   3.725   3.848  12.208  0.8503  0.9392 -0.2940
 9752TIP3   OH250746   3.260   6.482  15.228 -0.4588 -0.0261 -0.6679
 9752TIP3    H150747   3.353   6.501  15.239 -1.0160  3.1820 -0.5522
 9752TIP3    H250748   3.233   6.446  15.312  0.2635  1.0373  0.0422
 9753TIP3   OH250749   3.903   4.643   1.480 -0.6540 -0.0838  0.6751
 9753TIP3    H150750   3.991   4.681   1.476 -1.6011  2.1798 -0.1858
 9753TIP3    H250751   3.909   4.564   1.426  0.1554  1.6569 -2.0100
 9754TIP3   OH250752   2.456   5.456   3.568 -0.0772  0.0685 -0.0595
 9754TIP3    H150753   2.384   5.516   3.550 -0.5932 -0.2199  1.0241
 9754TIP3    H250754   2.426   5.371   3.535 -1.4770 -0.7099  2.9458
 9755TIP3   OH250755   0.049   6.704   0.377  0.7052  0.0408  0.6053
 9755TIP3    H150756   0.006   6.678   0.296  0.6108  0.4718  0.5137
 9755TIP3    H250757  -0.018   6.752   0.425  0.6799 -0.4351  1.0586
 9756TIP3   OH250758   3.209   0.517  13.588  0.5233  0.3205 -0.8173
 9756TIP3    H150759   3.212   0.598  13.537 -0.0882  0.5105 -0.5545
 9756TIP3    H250760   3.121   0.481  13.572  1.2979 -1.1078 -2.1805
 9757TIP3   OH250761   1.893   4.006   3.939 -0.1180  0.4616  0.7044
 9757TIP3    H150762   1.975   3.958   3.953  1.3649  2.5148 -0.3349
 9757TIP3    H250763   1.874   4.046   4.023 -0.4448 -0.5586  1.1279
 9758TIP3   OH250764   2.519   1.184  13.016  0.1027 -0.1503  0.7286
 9758TIP3    H150765   2.448   1.215  12.959  1.1187  0.9513  0.0305
 9758TIP3    H250766   2.502   1.225  13.100 -1.5860 -2.0264  1.4021
 9759TIP3   OH250767   4.931   3.734  16.032  0.0542  0.3438  0.1012
 9759TIP3    H150768   5.025   3.725  16.046  0.0887  1.1511  0.4823
 9759TIP3    H250769   4.891   3.706  16.114 -0.0139  0.3804  0.0807
 9760TIP3   OH250770   4.034   6.751  15.664 -0.4389 -0.0158  0.7185
 9760TIP3    H150771   4.031   6.692  15.589  2.4749  1.0861 -0.4498
 9760TIP3    H250772   4.058   6.695  15.738 -0.0094 -0.6476  0.1127
 9761TIP3   OH250773   2.040   2.549  15.414 -0.2130 -0.0472 -0.0385
 9761TIP3    H150774   2.058   2.455  15.422  1.8792  0.3967  1.2236
 9761TIP3    H250775   2.029   2.579  15.504 -2.8264  0.6567 -0.4978
 9762TIP3   OH250776   4.690   3.894   0.448 -0.3340 -0.0484  0.0481
 9762TIP3    H150777   4.682   3.846   0.366  1.6188 -0.8048  0.2564
 9762TIP3    H250778   4.602   3.927   0.465 -1.3442 -2.0106 -1.0468
 9763TIP3   OH250779   0.328   4.144  16.168 -0.3498 -0.4869 -0.7720
 9763TIP3    H150780   0.385   4.076  16.133 -1.1565 -1.1560 -0.8075
 9763TIP3    H250781   0.317   4.121  16.260 -1.0513 -0.7005 -0.9095
 9764TIP3   OH250782   0.826   5.135  14.970 -0.5061 -0.0901  0.1158
 9764TIP3    H150783   0.840   5.080  14.894  1.5308  1.3757 -0.6534
 9764TIP3    H250784   0.818   5.073  15.043  1.7836 -1.4583 -0.6842
 9765TIP3   OH250785   4.734   6.538   0.116 -0.1398 -0.1494  0.2047
 9765TIP3    H150786   4.698   6.602   0.177  2.7444  1.0979  0.7546
 9765TIP3    H250787   4.722   6.454   0.159 -2.4193  0.1449  0.2620
 9766TIP3   OH250788   5.071   2.481   4.076 -0.4729  0.5806 -0.4641
 9766TIP3    H150789   5.036   2.405   4.029  3.2462 -1.1485 -0.8021
 9766TIP3    H250790   5.074   2.550   4.009 -3.0218  0.8663 -0.3962
 9767TIP3   OH250791   2.574   2.851  11.409  0.2960 -0.2489 -0.7814
 9767TIP3    H150792   2.640   2.805  11.358 -0.0580 -1.1487 -0.4450
 9767TIP3    H250793   2.584   2.818  11.498  0.7993  1.1876 -0.2726
 9768TIP3   OH250794   0.619   0.623   2.605 -0.3065  0.6225 -0.5328
 9768TIP3    H150795   0.577   0.610   2.690  1.9570 -1.7336  0.3386
 9768TIP3    H250796   0.569   0.567   2.545  0.8687 -1.4119  0.2946
 9769TIP3   OH250797   4.976   5.796   4.031  0.1431 -0.3386  0.4802
 9769TIP3    H150798   4.962   5.816   4.124 -0.0896 -0.0262  0.3789
 9769TIP3    H250799   5.008   5.706   4.031 -1.5507 -0.9901  0.7534
 9770TIP3   OH250800   6.643   2.664  11.240  0.1478  0.7432  0.1278
 9770TIP3    H150801   6.589   2.586  11.228  1.5268 -0.1508 -0.3989
 9770TIP3    H250802   6.587   2.736  11.211 -0.8651 -0.1267 -0.1356
 9771TIP3   OH250803   5.317   4.747   4.908  0.7320  0.2550 -0.1189
 9771TIP3    H150804   5.256   4.687   4.952 -0.3108 -0.2846 -2.1532
 9771TIP3    H250805   5.309   4.829   4.957 -2.8397  0.6891 -1.0824
 9772TIP3   OH250806   0.617   1.522  16.179 -0.0096  0.5814  0.2882
 9772TIP3    H150807   0.532   1.565  16.180 -0.3663 -0.0777  2.0386
 9772TIP3    H250808   0.614   1.461  16.253  3.0605  2.6768  2.3795
 9773TIP3   OH250809   4.622   6.690  13.755  0.5179 -0.3902 -0.6177
 9773TIP3    H150810   4.662   6.639  13.685  2.1184  1.7664 -1.4064
 9773TIP3    H250811   4.628   6.781  13.725 -0.0757  0.4928  1.6799
 9774TIP3   OH250812   3.308   0.870   2.154 -0.3903 -0.0770 -0.4944
 9774TIP3    H150813   3.240   0.816   2.113 -0.4962  0.5283 -1.1317
 9774TIP3    H250814   3.268   0.957   2.161 -0.2542 -0.0890  0.6071
 9775TIP3   OH250815   0.205   4.136  13.578 -0.3930 -0.3443  0.2421
 9775TIP3    H150816   0.156   4.175  13.506 -0.1037  1.2010  0.8426
 9775TIP3    H250817   0.290   4.180  13.576 -0.0458 -0.9589  0.9436
 9776TIP3   OH250818   3.248   5.040   0.224  0.0259  0.2239  0.1342
 9776TIP3    H150819   3.289   5.122   0.252  0.2733  0.7937 -1.7785
 9776TIP3    H250820   3.320   4.977   0.221  0.0970  0.3029  0.1855
 9777TIP3   OH250821   5.768   5.505   1.740 -0.0738  0.0878  0.0809
 9777TIP3    H150822   5.673   5.513   1.727 -0.4680 -0.0577  2.3834
 9777TIP3    H250823   5.805   5.585   1.704 -1.3186  1.1493  1.0969
 9778TIP3   OH250824   6.001   1.637   4.296  0.3584  0.2974  0.0122
 9778TIP3    H150825   5.953   1.717   4.316  1.7255  0.9470  0.8123
 9778TIP3    H250826   5.951   1.568   4.340 -0.0659  0.9064  0.5053
 9779TIP3   OH250827   2.880   3.277   0.539  0.0563  0.7451  0.5458
 9779TIP3    H150828   2.960   3.288   0.487  0.4606  1.7142  1.3589
 9779TIP3    H250829   2.838   3.363   0.537 -0.4086  0.5320  1.0211
 9780TIP3   OH250830   0.040   2.088   3.794 -0.1884 -0.5414 -0.2210
 9780TIP3    H150831   0.017   2.075   3.886  1.3971 -1.3336  0.0938
 9780TIP3    H250832   0.126   2.131   3.797 -1.1280  1.5648 -1.3435
 9781TIP3   OH250833   5.617   2.271   3.722 -0.1368 -0.1700 -0.0395
 9781TIP3    H150834   5.684   2.256   3.789  0.3481  0.1875 -0.4386
 9781TIP3    H250835   5.635   2.204   3.656 -0.3471 -0.2450 -0.0219
 9782TIP3   OH250836   2.067   5.678  15.497 -0.4547  0.3274 -0.3280
 9782TIP3    H150837   2.116   5.631  15.430  1.7307 -0.6867  1.8223
 9782TIP3    H250838   1.990   5.623  15.513 -1.4064  0.9571 -2.4102
 9783TIP3   OH250839   4.523   1.605   3.078 -0.2741  0.1561  0.1264
 9783TIP3    H150840   4.584   1.630   3.148  0.7624 -0.0563 -0.6735
 9783TIP3    H250841   4.575   1.611   2.998 -1.2826 -0.1526 -0.5714
 9784TIP3   OH250842   4.378   4.711  12.227 -0.2033 -0.0651 -0.2070
 9784TIP3    H150843   4.376   4.616  12.213 -0.7574  0.0180 -0.7021
 9784TIP3    H250844   4.457   4.725  12.281 -0.8013 -0.9515  0.9472
 9785TIP3   OH250845   0.041   4.090  13.318 -0.1607 -0.0978 -0.2134
 9785TIP3    H150846   0.105   4.022  13.295 -2.3702 -3.6082  2.8941
 9785TIP3    H250847  -0.035   4.072  13.262 -1.3583 -1.4089  1.7221
 9786TIP3   OH250848   3.473   5.088   4.713 -0.2468  0.1665  0.8224
 9786TIP3    H150849   3.380   5.066   4.706 -0.1443  0.0452 -0.3673
 9786TIP3    H250850   3.477   5.154   4.782 -1.3158  0.7017  0.3960
 9787TIP3   OH250851   6.456   5.107  14.983  0.0229 -0.0391 -0.3808
 9787TIP3    H150852   6.427   5.016  14.980 -4.5068  1.1775 -1.7001
 9787TIP3    H250853   6.427   5.139  15.068  0.5293  0.4592 -0.3932
 9788TIP3   OH250854   6.068   4.322  16.304  0.5253 -0.2589 -0.2735
 9788TIP3    H150855   6.059   4.315  16.209  0.6354 -3.3057 -0.1476
 9788TIP3    H250856   6.137   4.259  16.326  0.3822  0.2699  1.8549
 9789TIP3   OH250857   6.129   1.954  11.841  0.3292 -0.0622 -0.4950
 9789TIP3    H150858   6.204   1.996  11.883 -0.1633  0.9846 -0.6240
 9789TIP3    H250859   6.116   2.003  11.760 -0.4563 -0.2635 -0.4989
 9790TIP3   OH250860   0.228   0.365   4.704 -0.2080  0.6726 -0.1999
 9790TIP3    H150861   0.167   0.315   4.758 -0.8693 -0.0491 -1.5710
 9790TIP3    H250862   0.262   0.432   4.763  0.1495 -0.9057  1.5006
 9791TIP3   OH250863   0.358   5.807   3.071  0.1404  0.1706  0.2362
 9791TIP3    H150864   0.332   5.838   3.158  0.1440  1.2146 -0.1317
 9791TIP3    H250865   0.401   5.723   3.088 -0.6288 -0.0538  1.1564
 9792TIP3   OH250866   2.840   4.820  14.204  0.0387  0.0520 -0.1911
 9792TIP3    H150867   2.754   4.787  14.178  0.1876  0.1280 -0.7715
 9792TIP3    H250868   2.822   4.871  14.283 -0.4207 -0.0796 -0.2056
 9793TIP3   OH250869   1.479   3.508   0.639 -0.0235 -0.6237 -0.7274
 9793TIP3    H150870   1.547   3.446   0.667  0.6635  0.0243 -0.9258
 9793TIP3    H250871   1.464   3.487   0.547 -0.3172 -0.9599 -0.6085
 9794TIP3   OH250872   6.099   3.389   3.796 -0.1114  0.0341 -0.1268
 9794TIP3    H150873   6.118   3.423   3.708  0.2631 -1.6265 -0.7230
 9794TIP3    H250874   6.184   3.363   3.830 -0.1839  1.1416  0.9739
 9795TIP3   OH250875   4.616   4.580  15.817 -0.0775  0.4321  0.2806
 9795TIP3    H150876   4.572   4.633  15.884  0.3817 -2.1846  2.8444
 9795TIP3    H250877   4.709   4.590  15.836  0.3954  2.8101 -2.6359
 9796TIP3   OH250878   5.081   0.584  13.765  0.0487  0.3114  0.5384
 9796TIP3    H150879   5.153   0.521  13.771  0.6244  1.0302  1.3348
 9796TIP3    H250880   5.029   0.569  13.844  0.4049  1.0877  0.9295
 9797TIP3   OH250881   5.926   0.212  12.567 -0.1213 -0.3940 -0.1207
 9797TIP3    H150882   5.910   0.255  12.483  2.0187 -0.2461 -0.5105
 9797TIP3    H250883   5.840   0.208  12.608 -0.6723  3.0867 -0.6176
 9798TIP3   OH250884   3.211   2.491  16.661 -0.2159 -0.4679  0.0817
 9798TIP3    H150885   3.162   2.426  16.611 -0.3756  0.2765 -0.7651
 9798TIP3    H250886   3.290   2.507  16.610 -0.8459  1.0253 -0.4786
 9799TIP3   OH250887   3.856   2.008   5.219  0.1904  0.4262  0.2224
 9799TIP3    H150888   3.855   2.103   5.229  1.7224  0.6387 -1.3126
 9799TIP3    H250889   3.778   1.988   5.167 -0.3096  0.7696  0.8153
 9800TIP3   OH250890   6.758   1.453   6.151  0.3936  0.1908  0.0288
 9800TIP3    H150891   6.803   1.403   6.220 -0.1121  2.5700  2.2204
 9800TIP3    H250892   6.665   1.445   6.173  0.0275 -0.7471 -1.6816
 9801TIP3   OH250893   3.049   1.958   3.084 -0.0903  0.3598 -0.4316
 9801TIP3    H150894   3.096   1.956   3.167  1.4056 -0.8715 -1.2573
 9801TIP3    H250895   3.001   2.041   3.086 -1.5937 -0.4282  2.4076
 9802TIP3   OH250896   5.398   1.040  10.771  0.2939 -0.2486 -0.1886
 9802TIP3    H150897   5.348   1.091  10.835 -1.3021 -1.0569 -0.7208
 9802TIP3    H250898   5.390   0.950  10.801  1.7860 -0.3597 -0.0882
 9803TIP3   OH250899   5.931   6.271   1.179 -0.0261 -0.6100  0.0719
 9803TIP3    H150900   5.843   6.306   1.167 -0.2225 -1.2074 -0.2633
 9803TIP3    H250901   5.918   6.181   1.209  0.4719 -0.5186  0.5752
 9804TIP3   OH250902   1.895   0.448  13.659 -0.1831 -0.1895  0.1115
 9804TIP3    H150903   1.960   0.444  13.589 -0.6730  1.3594 -0.4600
 9804TIP3    H250904   1.931   0.508  13.723 -0.5367 -0.2140  0.3370
 9805TIP3   OH250905   2.870   0.208  15.830 -0.1563 -0.0701  0.0723
 9805TIP3    H150906   2.889   0.202  15.736 -1.0551  0.1719 -0.1318
 9805TIP3    H250907   2.775   0.199  15.836 -0.4932  2.7808  0.6772
 9806TIP3   OH250908   2.894   1.462  12.965 -0.0312 -0.0197 -0.3316
 9806TIP3    H150909   2.943   1.544  12.965  1.1669 -0.7222 -1.0309
 9806TIP3    H250910   2.868   1.449  12.874 -1.0156  0.0215 -0.0772
 9807TIP3   OH250911   6.828   3.118   5.870  0.2074 -0.7657  0.8141
 9807TIP3    H150912   6.864   3.191   5.819 -1.1530 -1.3924 -1.1749
 9807TIP3    H250913   6.827   3.150   5.960 -0.8679  1.9549 -0.0434
 9808TIP3   OH250914   3.933   4.389  11.930 -0.3731  0.1742 -0.3814
 9808TIP3    H150915   3.915   4.402  12.023 -0.2849 -1.8698 -0.0250
 9808TIP3    H250916   3.981   4.467  11.904  1.1595  0.0359  1.7462
 9809TIP3   OH250917   5.729   1.465   0.842 -0.0357  0.0586 -0.3405
 9809TIP3    H150918   5.785   1.414   0.784 -2.7044 -2.5174 -0.8570
 9809TIP3    H250919   5.710   1.406   0.915 -0.5890  1.5303  0.7499
 9810TIP3   OH250920   4.882   4.369   5.547 -0.2765 -0.2692  0.3747
 9810TIP3    H150921   4.859   4.279   5.569 -1.3547 -0.1735 -0.3130
 9810TIP3    H250922   4.804   4.405   5.506  0.8531  0.2785 -1.4460
 9811TIP3   OH250923   0.176   0.784   0.105  0.8014 -0.1719  0.8115
 9811TIP3    H150924   0.156   0.777   0.012  0.3874 -0.4178  0.9180
 9811TIP3    H250925   0.244   0.851   0.110  0.7903 -0.1237  0.3390
 9812TIP3   OH250926   3.694   3.141  12.214  0.0432 -0.1141 -0.6033
 9812TIP3    H150927   3.689   3.046  12.206  1.9879 -0.5697  2.0794
 9812TIP3    H250928   3.788   3.159  12.224  0.0174  2.4187 -3.5161
 9813TIP3   OH250929   6.027   3.088   4.854 -0.3559 -0.1756  0.3503
 9813TIP3    H150930   6.001   3.161   4.798 -0.3873  0.0425  0.6522
 9813TIP3    H250931   6.014   3.011   4.799 -0.9206 -0.0098  0.2423
 9814TIP3   OH250932   6.810   5.136  12.049 -0.4752 -0.5147  0.8581
 9814TIP3    H150933   6.742   5.198  12.022 -0.9922 -0.8557  1.3487
 9814TIP3    H250934   6.848   5.105  11.967  0.5731  1.2805  0.6041
 9815TIP3   OH250935   1.487   5.357   1.988 -0.2123  0.6233 -0.4096
 9815TIP3    H150936   1.541   5.339   1.911 -0.3873  0.3712 -0.4745
 9815TIP3    H250937   1.473   5.452   1.986  1.6835  0.9586  0.5810
 9816TIP3   OH250938   1.280   2.222  11.912 -0.4605 -0.4821  0.3347
 9816TIP3    H150939   1.200   2.184  11.876 -0.7584 -1.3167  1.8090
 9816TIP3    H250940   1.334   2.147  11.936  1.8336  0.0107 -2.6900
 9817TIP3   OH250941   1.373   2.802   5.177 -0.1998  0.4883 -0.5862
 9817TIP3    H150942   1.364   2.895   5.197  0.4669  0.4456 -0.0218
 9817TIP3    H250943   1.466   2.791   5.156 -0.3907  0.0563 -1.2484
 9818TIP3   OH250944   4.930   3.671  11.291  0.2433  0.4079  0.2911
 9818TIP3    H150945   4.882   3.588  11.289  1.4728 -0.3380  0.5254
 9818TIP3    H250946   4.999   3.658  11.357 -0.9888  2.4705  2.1278
 9819TIP3   OH250947   1.062   2.054  16.164  0.4659  0.4032  0.4377
 9819TIP3    H150948   1.010   2.010  16.097  0.1210  0.8140  0.4345
 9819TIP3    H250949   1.124   2.107  16.115 -0.9446  2.0929  0.4140
 9820TIP3   OH250950   1.949   0.235  13.283  0.3969  0.9974  0.3237
 9820TIP3    H150951   1.913   0.324  13.276 -0.0242  0.8586  0.7384
 9820TIP3    H250952   1.886   0.188  13.338 -0.3272 -0.0455 -1.3173
 9821TIP3   OH250953   0.341   5.926  12.075  0.3032 -0.2619 -0.7800
 9821TIP3    H150954   0.260   5.950  12.118  0.8764  1.2371 -0.4867
 9821TIP3    H250955   0.343   5.977  11.995 -0.6086 -2.7989 -2.5509
 9822TIP3   OH250956   6.286   4.821  17.032 -0.0211 -0.0866  0.5297
 9822TIP3    H150957   6.350   4.861  17.090  0.8825 -0.1144 -0.4206
 9822TIP3    H250958   6.220   4.785  17.091  0.3787  0.7038  1.4900
 9823TIP3   OH250959   1.650   4.070   0.617  0.2414  0.4370  0.3532
 9823TIP3    H150960   1.576   4.111   0.661  0.4720  0.0216  1.1521
 9823TIP3    H250961   1.631   4.078   0.523 -0.0364  1.7515  0.5108
 9824TIP3   OH250962   4.183   4.077   1.950  0.1661 -0.1633  0.3754
 9824TIP3    H150963   4.227   4.016   2.009  3.2776 -0.2541 -1.7518
 9824TIP3    H250964   4.129   4.021   1.894  0.2774 -0.5483  0.6472
 9825TIP3   OH250965   0.121   0.713   3.740 -0.0370 -0.2559 -0.8864
 9825TIP3    H150966   0.029   0.737   3.739  0.2312  0.7987 -1.1895
 9825TIP3    H250967   0.167   0.792   3.770  0.7724 -0.7269 -0.8410
 9826TIP3   OH250968   1.705   0.167  11.866  0.1653  0.1836 -0.5642
 9826TIP3    H150969   1.741   0.184  11.953 -0.0768  0.9803 -0.6100
 9826TIP3    H250970   1.675   0.076  11.870  0.2586  0.1766  0.1471
 9827TIP3   OH250971   5.977   4.047   1.448 -0.2212  0.4441 -0.3832
 9827TIP3    H150972   5.967   3.951   1.443 -0.3394  0.5156 -2.0916
 9827TIP3    H250973   5.887   4.080   1.442 -0.4348  0.6423  2.7056
 9828TIP3   OH250974   3.956   1.474   0.848 -0.4714 -0.1219  0.1176
 9828TIP3    H150975   3.899   1.456   0.773 -1.4213  0.7517  0.5994
 9828TIP3    H250976   3.975   1.388   0.885 -1.2204 -0.4541 -0.2499
 9829TIP3   OH250977   4.625   0.895  16.698 -0.2042  0.2493  1.1538
 9829TIP3    H150978   4.600   0.987  16.698  1.1157  0.6422  0.0120
 9829TIP3    H250979   4.686   0.887  16.771  1.7394  0.9351 -0.3149
 9830TIP3   OH250980   4.785   1.564   4.466 -0.9928  0.0220 -0.4762
 9830TIP3    H150981   4.838   1.513   4.527  1.1401  1.7616 -0.7222
 9830TIP3    H250982   4.701   1.575   4.510 -1.6037 -3.6077 -0.4606
 9831TIP3   OH250983   5.637   6.244   0.513  0.0323 -0.5469 -0.0643
 9831TIP3    H150984   5.661   6.335   0.529 -1.0720 -0.0172 -1.2538
 9831TIP3    H250985   5.683   6.194   0.581  1.2934  0.8059  0.1087
 9832TIP3   OH250986   2.844   3.599   0.537  0.1292 -0.3078  0.5508
 9832TIP3    H150987   2.809   3.653   0.465  0.8435 -0.8125 -0.1880
 9832TIP3    H250988   2.917   3.651   0.571  0.9454 -0.8716 -0.2924
 9833TIP3   OH250989   5.809   6.547  11.448 -0.1913 -0.1605  0.4889
 9833TIP3    H150990   5.735   6.534  11.390  0.0391 -1.1308  0.3919
 9833TIP3    H250991   5.859   6.465  11.442  0.0966 -0.0880  1.6708
 9834TIP3   OH250992   5.001   1.653   2.017 -0.2892  0.2379 -0.0623
 9834TIP3    H150993   4.918   1.642   2.064  0.2378 -1.6710  0.5078
 9834TIP3    H250994   4.980   1.715   1.947 -1.9935  0.3820  0.5083
 9835TIP3   OH250995   5.908   3.485   1.925 -0.1579  0.1059 -0.0080
 9835TIP3    H150996   5.984   3.489   1.984 -0.3478 -1.0533  0.3360
 9835TIP3    H250997   5.833   3.485   1.984 -0.3798 -0.1406 -0.2879
 9836TIP3   OH250998   3.466   6.087  13.961 -0.4164 -0.0569 -0.9119
 9836TIP3    H150999   3.401   6.129  14.018  0.4806  0.5638 -0.3232
 9836TIP3    H251000   3.501   6.016  14.013  0.7101  0.7720 -0.4943
 9837TIP3   OH251001   3.880   5.078   0.365 -0.9495 -0.0107 -0.1451
 9837TIP3    H151002   3.923   5.150   0.317 -1.0332 -0.1660 -0.4571
 9837TIP3    H251003   3.824   5.122   0.428 -1.3352  0.2047 -0.6314
 9838TIP3   OH251004   2.443   5.056   1.114 -0.7528  0.3827 -0.0663
 9838TIP3    H151005   2.416   5.147   1.126  0.8757  1.0323 -0.9826
 9838TIP3    H251006   2.400   5.009   1.185 -0.8659  2.0415  1.0226
 9839TIP3   OH251007   4.764   1.941   0.255 -0.1979  0.1517  1.0932
 9839TIP3    H151008   4.797   1.980   0.174  0.1533  0.6211  1.4498
 9839TIP3    H251009   4.743   1.851   0.232  0.4796  0.1046  0.6347
 9840TIP3   OH251010   6.253   5.154   4.151 -0.8656  0.4251 -0.9127
 9840TIP3    H151011   6.169   5.167   4.196  0.2262 -0.3291  1.4714
 9840TIP3    H251012   6.301   5.234   4.167 -0.2442 -0.0812 -0.1837
 9841TIP3   OH251013   1.690   3.047  14.190  0.4480  0.1997 -0.7052
 9841TIP3    H151014   1.699   2.980  14.122 -0.4904 -1.1596  0.4382
 9841TIP3    H251015   1.697   2.998  14.273 -1.9517  1.2112  0.1777
 9842TIP3   OH251016   4.361   3.453   3.024  0.4096  0.3575 -0.3554
 9842TIP3    H151017   4.324   3.440   2.937 -0.0109 -0.5713 -0.0536
 9842TIP3    H251018   4.287   3.441   3.084  0.6518  1.2024  0.1214
 9843TIP3   OH251019   5.393   5.483   2.050  0.0941 -0.5871 -0.1872
 9843TIP3    H151020   5.360   5.564   2.010 -0.4339  0.2770  1.8807
 9843TIP3    H251021   5.316   5.443   2.090  0.9645  0.0308  2.3123
 9844TIP3   OH251022   0.612   6.558   5.673 -0.1277  0.8087  0.4042
 9844TIP3    H151023   0.519   6.580   5.680 -0.6984 -0.9499 -0.9830
 9844TIP3    H251024   0.625   6.537   5.581  1.0281 -1.3288  0.9733
 9845TIP3   OH251025   3.106   6.400  11.769  0.3559  0.3675 -0.0793
 9845TIP3    H151026   3.126   6.394  11.676  0.4742 -3.3710  0.0381
 9845TIP3    H251027   3.012   6.380  11.775  0.4826 -0.0459  0.6371
 9846TIP3   OH251028   0.612   0.291   1.093  0.4117  0.1150  0.1931
 9846TIP3    H151029   0.700   0.282   1.129  0.8279 -2.0899 -1.2055
 9846TIP3    H251030   0.602   0.217   1.034 -2.1377  0.7079 -0.2539
 9847TIP3   OH251031   5.146   0.530  11.870 -0.2990  0.2375  0.3064
 9847TIP3    H151032   5.218   0.497  11.817 -1.6113 -0.6981 -0.9692
 9847TIP3    H251033   5.140   0.469  11.944 -0.3353 -0.1911 -0.0484
 9848TIP3   OH251034   0.808   1.864   5.067  0.0851  0.1951 -0.1024
 9848TIP3    H151035   0.755   1.944   5.071 -1.2728 -0.6927  0.8152
 9848TIP3    H251036   0.843   1.863   4.978 -0.9917  1.1348 -0.5721
 9849TIP3   OH251037   0.924   3.495   1.957 -0.0662 -0.6273 -0.1234
 9849TIP3    H151038   0.850   3.451   1.916  0.3184 -0.0119 -1.5649
 9849TIP3    H251039   0.991   3.498   1.888  0.5218  0.7061  0.4638
 9850TIP3   OH251040   1.918   4.522   5.048  0.3282 -0.2931 -0.1957
 9850TIP3    H151041   1.872   4.590   5.098 -1.9381 -2.2011  0.5088
 9850TIP3    H251042   1.855   4.496   4.981  0.9262 -2.0528 -0.1153
 9851TIP3   OH251043   3.757   2.697   2.669 -0.0167  0.3722 -0.4060
 9851TIP3    H151044   3.750   2.765   2.736  0.7510  1.0406 -0.9990
 9851TIP3    H251045   3.850   2.677   2.664 -0.0847  0.2467 -1.2072
 9852TIP3   OH251046   0.514   0.483   0.950  0.6834 -0.4078 -0.5800
 9852TIP3    H151047   0.549   0.408   0.997  0.5611 -0.2856 -0.2898
 9852TIP3    H251048   0.555   0.559   0.991  0.8567 -0.3192 -0.9160
 9853TIP3   OH251049   5.292   1.412   4.876 -0.5763 -0.0624  0.1339
 9853TIP3    H151050   5.342   1.331   4.885 -0.8635 -0.3584 -0.8292
 9853TIP3    H251051   5.302   1.455   4.961  2.4178  0.5517 -0.4122
 9854TIP3   OH251052   2.255   2.838  16.735 -0.8827 -0.3381  0.4347
 9854TIP3    H151053   2.284   2.809  16.822 -0.4132 -0.0353  0.3827
 9854TIP3    H251054   2.253   2.933  16.741 -0.2208 -0.2880 -0.0790
 9855TIP3   OH251055   2.391   2.122   1.419 -0.0699 -0.4347 -0.2918
 9855TIP3    H151056   2.477   2.163   1.417 -0.0405  0.3111  4.4968
 9855TIP3    H251057   2.330   2.193   1.402  0.1546 -0.3985 -0.9889
 9856TIP3   OH251058   1.329   4.864  12.311 -0.9425 -0.0985  0.0179
 9856TIP3    H151059   1.383   4.942  12.305  2.5239 -2.3269 -0.3529
 9856TIP3    H251060   1.242   4.897  12.332  0.3981  3.7796  0.2675
 9857TIP3   OH251061   6.554   3.386   3.197 -0.5337  0.4888  0.0424
 9857TIP3    H151062   6.634   3.384   3.250 -0.2616 -1.2345 -0.4026
 9857TIP3    H251063   6.524   3.296   3.194 -0.5564  0.5156 -2.7310
 9858TIP3   OH251064   4.106   6.367  14.305  0.1758  0.1922  0.1858
 9858TIP3    H151065   4.125   6.278  14.277 -0.3301 -0.1841  1.0193
 9858TIP3    H251066   4.035   6.395  14.247 -0.8853 -0.5928  1.0795
 9859TIP3   OH251067   4.401   5.865  11.804 -0.5642  0.2743 -0.5242
 9859TIP3    H151068   4.441   5.939  11.849  1.2636  0.0227 -1.6328
 9859TIP3    H251069   4.408   5.792  11.866  0.6640  0.2644 -0.6449
 9860TIP3   OH251070   5.798   6.509  16.346  0.5404  0.6452  0.4611
 9860TIP3    H151071   5.738   6.508  16.421  1.1714  2.5469  1.0538
 9860TIP3    H251072   5.854   6.585  16.361 -0.5976  2.3968 -2.9253
 9861TIP3   OH251073   4.511   6.600  14.005  0.1759 -0.1801 -0.1698
 9861TIP3    H151074   4.557   6.664  13.951  1.2014  0.2536  1.1588
 9861TIP3    H251075   4.572   6.527  14.013  0.6919  0.4010  1.6236
 9862TIP3   OH251076   1.557   0.322  12.569  0.0341  0.1627 -0.0228
 9862TIP3    H151077   1.578   0.239  12.612  0.4968 -0.1956 -0.9183
 9862TIP3    H251078   1.483   0.302  12.513 -0.7229  0.6885  0.7610
 9863TIP3   OH251079   0.743   1.007  14.475 -0.2385 -0.0766  0.0895
 9863TIP3    H151080   0.828   1.048  14.462 -0.2708  0.2892  0.9554
 9863TIP3    H251081   0.680   1.079  14.471 -0.5340 -0.3775 -0.7830
 9864TIP3   OH251082   1.643   1.812   6.003 -0.1177 -0.3084 -0.6850
 9864TIP3    H151083   1.695   1.765   6.067 -1.9482 -1.3796  0.1098
 9864TIP3    H251084   1.552   1.790   6.025 -1.1513  3.5954 -0.2147
 9865TIP3   OH251085   2.042   6.736   5.462  0.4276 -0.1709  0.3696
 9865TIP3    H151086   1.969   6.733   5.525  0.3374  1.3274  0.3754
 9865TIP3    H251087   2.048   6.829   5.438  2.1000 -0.3334  0.0931
 9866TIP3   OH251088   4.284   4.623  16.124 -0.6185 -0.4156  0.2370
 9866TIP3    H151089   4.234   4.556  16.078 -2.9354  1.3965 -0.0648
 9866TIP3    H251090   4.284   4.595  16.216 -1.9097 -0.6393  0.1805
 9867TIP3   OH251091   5.502   2.698   1.411  0.0375 -0.0716  0.0645
 9867TIP3    H151092   5.499   2.701   1.315 -0.0586  0.2580  0.0752
 9867TIP3    H251093   5.537   2.612   1.432 -0.4624 -0.3562 -0.2568
 9868TIP3   OH251094   0.253   2.928  14.533  0.1767  0.1749 -0.2466
 9868TIP3    H151095   0.318   2.935  14.463  0.7424  1.5491  0.3829
 9868TIP3    H251096   0.194   2.859  14.504  1.2669 -0.3297 -1.3650
 9869TIP3   OH251097   3.100   5.418   4.819 -0.3871  0.0362 -0.2349
 9869TIP3    H151098   3.180   5.434   4.768  0.1622 -0.1125  0.5601
 9869TIP3    H251099   3.040   5.378   4.757  0.5676 -0.9381 -0.5561
 9870TIP3   OH251100   2.088   0.246   4.205 -0.3314  0.1980 -0.0098
 9870TIP3    H151101   1.997   0.232   4.233 -0.4915  1.7038  0.3005
 9870TIP3    H251102   2.081   0.303   4.129  0.3535  0.2988  0.0005
 9871TIP3   OH251103   4.910   5.687   5.501 -0.1731 -0.0835  0.2558
 9871TIP3    H151104   4.969   5.632   5.552 -1.1732 -0.4460  1.0715
 9871TIP3    H251105   4.926   5.776   5.533 -0.1052 -0.1857  0.5044
 9872TIP3   OH251106   2.660   3.299   5.117 -0.5898 -0.2703 -0.2020
 9872TIP3    H151107   2.607   3.222   5.140 -0.4446 -0.2885  0.0724
 9872TIP3    H251108   2.617   3.372   5.161  0.0218 -0.3926  0.6057
 9873TIP3   OH251109   0.183   2.477  13.906 -0.0279  0.6787 -0.1151
 9873TIP3    H151110   0.127   2.463  13.830 -1.9661  1.7387  1.0421
 9873TIP3    H251111   0.272   2.460  13.874 -0.8355  0.5145 -2.4340
 9874TIP3   OH251112   1.948   0.574  14.672  0.2726 -0.0471 -0.2685
 9874TIP3    H151113   1.861   0.534  14.671  0.8217 -1.3739  0.8913
 9874TIP3    H251114   1.995   0.530  14.600 -0.2564  1.3353 -1.5022
 9875TIP3   OH251115   2.468   0.959   1.572 -0.5484 -0.2592  0.2316
 9875TIP3    H151116   2.461   0.924   1.661 -0.5528 -1.1168 -0.0955
 9875TIP3    H251117   2.380   0.948   1.535 -0.8190  1.0402  0.4497
 9876TIP3   OH251118   6.784   4.766  13.910 -0.0430 -0.0433 -0.1943
 9876TIP3    H151119   6.762   4.690  13.857  0.1919 -0.2697  0.0282
 9876TIP3    H251120   6.853   4.735  13.969 -0.2755  0.2090  0.2170
 9877TIP3   OH251121   4.006   4.943  14.838  0.2421  0.0241  0.3608
 9877TIP3    H151122   3.924   4.987  14.859  1.1424  1.6297  0.6638
 9877TIP3    H251123   4.023   4.887  14.913  0.0925  0.7138  0.9199
 9878TIP3   OH251124   4.138   3.745   5.116  0.3804  0.4670 -0.0147
 9878TIP3    H151125   4.211   3.697   5.075  0.0806 -1.4372  1.5048
 9878TIP3    H251126   4.171   3.768   5.203  0.2458  2.4630 -0.4585
 9879TIP3   OH251127   0.018   5.334   0.808 -0.3382 -0.7717  0.0922
 9879TIP3    H151128   0.018   5.380   0.892  0.1669 -0.5291 -0.0368
 9879TIP3    H251129   0.106   5.349   0.773 -0.7927 -0.2128 -0.8447
 9880TIP3   OH251130   6.145   2.063  16.859  0.1733  0.1690 -0.0024
 9880TIP3    H151131   6.053   2.038  16.870  0.4027 -1.1916 -0.9855
 9880TIP3    H251132   6.187   1.985  16.822  1.8454  0.5875  0.9489
 9881TIP3   OH251133   6.556   2.261  16.495 -0.1077 -0.7353  0.0341
 9881TIP3    H151134   6.486   2.197  16.487 -0.2620 -0.6746  0.8885
 9881TIP3    H251135   6.512   2.344  16.510  0.0835 -0.3648 -1.2748
 9882TIP3   OH251136   1.220   0.094  13.691  0.0398  0.5170 -0.0072
 9882TIP3    H151137   1.277   0.046  13.631  0.4839  1.3951 -0.2922
 9882TIP3    H251138   1.136   0.047  13.686 -0.0782  0.8470 -1.6714
 9883TIP3   OH251139   0.499   3.348   0.655 -0.2442 -0.2233 -0.2277
 9883TIP3    H151140   0.511   3.417   0.720 -2.4273  1.9984 -1.9796
 9883TIP3    H251141   0.579   3.350   0.603  0.8978 -1.0334  1.3760
 9884TIP3   OH251142   1.214   5.029  16.582 -0.4517 -0.1438 -0.4634
 9884TIP3    H151143   1.171   5.082  16.514 -0.9369 -1.3521 -1.1190
 9884TIP3    H251144   1.145   5.013  16.647 -0.6616 -1.0366 -0.8988
 9885TIP3   OH251145   4.181   3.257  15.925  0.4128 -0.4785  0.4192
 9885TIP3    H151146   4.102   3.274  15.873  1.2142 -0.7729 -0.9548
 9885TIP3    H251147   4.151   3.206  16.000 -0.6218 -1.1244 -0.4065
 9886TIP3   OH251148   2.350   5.010  13.715 -0.0703 -0.0497 -0.1689
 9886TIP3    H151149   2.332   5.103  13.726 -2.0691 -0.2645 -1.1821
 9886TIP3    H251150   2.342   4.994  13.621 -0.7887 -1.4105  0.0915
 9887TIP3   OH251151   0.899   3.085   0.369  0.4192  0.3056  0.1330
 9887TIP3    H151152   0.973   3.138   0.341 -1.3168  2.9674  0.2770
 9887TIP3    H251153   0.926   3.050   0.454  1.8286  0.4556 -0.2255
 9888TIP3   OH251154   5.510   0.822   0.809 -0.2792 -0.1565 -1.2454
 9888TIP3    H151155   5.475   0.734   0.815  0.7752 -0.5223  2.6991
 9888TIP3    H251156   5.604   0.810   0.797 -0.0544  0.3552 -0.1285
 9889TIP3   OH251157   0.334   0.078   6.154 -0.4203  0.5982  0.3937
 9889TIP3    H151158   0.361   0.010   6.216  0.9268  1.8522  1.2498
 9889TIP3    H251159   0.266   0.127   6.201 -0.4998  0.6115  0.2658
 9890TIP3   OH251160   2.625   0.428  14.072  0.5554 -0.0585  0.4038
 9890TIP3    H151161   2.536   0.399  14.053 -0.5489  2.2288  1.7052
 9890TIP3    H251162   2.664   0.444  13.986 -1.2122  1.4243 -0.1805
 9891TIP3   OH251163   0.872   2.960  16.442  0.1507 -0.0503  0.0740
 9891TIP3    H151164   0.894   2.885  16.387  3.3070 -0.4974  1.7372
 9891TIP3    H251165   0.842   3.027  16.380  1.7241 -1.1515 -2.0019
 9892TIP3   OH251166   6.170   0.349   0.945 -0.6346  0.1861  0.2502
 9892TIP3    H151167   6.168   0.266   0.993  0.4175  1.1815  2.0785
 9892TIP3    H251168   6.211   0.326   0.861 -1.9962 -1.4657 -0.0258
 9893TIP3   OH251169   4.016   0.829  13.524  0.0537 -0.6793  0.1741
 9893TIP3    H151170   3.956   0.797  13.456  0.3140 -0.5844 -0.1013
 9893TIP3    H251171   4.096   0.778  13.512 -0.8670 -2.8666  2.3393
 9894TIP3   OH251172   6.330   6.685  14.220  0.2800  0.6520  0.0026
 9894TIP3    H151173   6.388   6.760  14.227  1.4625 -0.3135  1.2840
 9894TIP3    H251174   6.251   6.710  14.268  1.8554  0.0986  3.2436
 9895TIP3   OH251175   2.960   1.708  13.094 -0.0685 -0.2845 -0.3520
 9895TIP3    H151176   3.009   1.787  13.116 -1.5103  0.2280  1.1425
 9895TIP3    H251177   2.981   1.646  13.164 -0.7672 -0.4162 -0.2565
 9896TIP3   OH251178   2.217   1.090  12.411 -0.2677  0.0355  0.2241
 9896TIP3    H151179   2.157   1.019  12.435 -0.2027  0.5601  2.0819
 9896TIP3    H251180   2.161   1.166  12.396 -0.2352 -0.0723 -0.4872
 9897TIP3   OH251181   0.223   3.393  15.903 -0.6600  0.2547 -0.5133
 9897TIP3    H151182   0.230   3.323  15.839  0.9120  1.0485 -1.2726
 9897TIP3    H251183   0.309   3.435  15.902 -0.9818  1.0440  1.2512
 9898TIP3   OH251184   3.160   4.208  14.873  0.3995 -0.0413  0.0012
 9898TIP3    H151185   3.151   4.191  14.967  0.6131 -0.6815 -0.0867
 9898TIP3    H251186   3.117   4.133  14.832  1.2390 -0.3118 -0.4072
 9899TIP3   OH251187   0.363   2.903  11.968  0.3607  0.3327 -0.0936
 9899TIP3    H151188   0.310   2.825  11.948 -0.2586  0.2075  1.7683
 9899TIP3    H251189   0.312   2.949  12.035  0.6660  2.4240 -1.2140
 9900TIP3   OH251190   3.957   4.934   1.408 -0.0033  0.2198 -0.6429
 9900TIP3    H151191   3.904   4.856   1.392 -0.8321  0.7182 -0.4182
 9900TIP3    H251192   3.923   4.969   1.491 -0.0303  1.1299 -1.0277
 9901TIP3   OH251193   6.229   1.884   5.932  0.3283 -0.3916 -0.2868
 9901TIP3    H151194   6.271   1.936   5.864  0.2670  0.8480  0.5745
 9901TIP3    H251195   6.301   1.843   5.980  0.7799  2.4562  1.7664
 9902TIP3   OH251196   1.547   6.408  14.633  0.3713  0.4950  0.1372
 9902TIP3    H151197   1.566   6.470  14.704 -2.4720  0.6679  0.8867
 9902TIP3    H251198   1.480   6.350  14.670  0.9613 -1.3071 -1.4685
 9903TIP3   OH251199   1.454   0.444  15.135 -0.2256 -0.7698 -0.0951
 9903TIP3    H151200   1.519   0.508  15.161 -2.1241  0.8321  0.9810
 9903TIP3    H251201   1.398   0.490  15.072 -0.6032 -1.9347 -0.6404
 9904TIP3   OH251202   2.469   3.718  12.535 -0.1395  0.0820 -0.0101
 9904TIP3    H151203   2.550   3.735  12.583 -1.0285 -1.1406  2.0490
 9904TIP3    H251204   2.430   3.804  12.521  0.8424  0.5716  0.1678
 9905TIP3   OH251205   2.828   0.748  11.747  0.0501  0.4169  0.2117
 9905TIP3    H151206   2.917   0.782  11.757  0.4589 -0.1936 -1.0441
 9905TIP3    H251207   2.830   0.701  11.664 -1.7623  1.3846 -0.4487
 9906TIP3   OH251208   3.954   5.674  12.635 -0.1116 -0.2808 -0.3012
 9906TIP3    H151209   3.973   5.767  12.645 -0.4472 -0.1917 -0.4754
 9906TIP3    H251210   3.918   5.666  12.546 -0.2551 -0.5456 -0.2217
 9907TIP3   OH251211   5.965   3.747   2.053  0.5688  0.1278 -0.0683
 9907TIP3    H151212   5.935   3.745   1.962  1.1793  3.0425 -0.4387
 9907TIP3    H251213   5.898   3.796   2.100  0.7255 -0.5231  0.8756
 9908TIP3   OH251214   2.111   3.809  16.390 -0.4215  0.0393 -0.2099
 9908TIP3    H151215   2.024   3.774  16.411  0.1027 -0.8200  0.6210
 9908TIP3    H251216   2.171   3.741  16.419  0.5427  0.7017 -0.6189
 9909TIP3   OH251217   1.558   1.556   1.519 -0.1612  0.5855  0.2639
 9909TIP3    H151218   1.482   1.502   1.496  0.0196  0.0094  0.9485
 9909TIP3    H251219   1.566   1.546   1.614  2.8096 -2.2193 -0.1059
 9910TIP3   OH251220   5.924   4.372   3.578 -0.2037  0.2026  0.2850
 9910TIP3    H151221   5.981   4.316   3.525 -0.8574 -2.2205  1.9859
 9910TIP3    H251222   5.946   4.350   3.668 -0.7879  2.4840  1.0604
 9911TIP3   OH251223   1.479   4.234  12.701 -0.0430  0.6503  0.3003
 9911TIP3    H151224   1.460   4.223  12.608 -2.2875  0.7262  0.6750
 9911TIP3    H251225   1.505   4.326  12.709 -0.6885  0.8844 -0.1541
 9912TIP3   OH251226   5.049   0.168  14.094  0.5410  0.1609  0.0333
 9912TIP3    H151227   5.006   0.194  14.013  0.4795  1.1079  0.3659
 9912TIP3    H251228   5.141   0.154  14.069  0.5892  0.7680 -0.1301
 9913TIP3   OH251229   0.095   4.808   2.336 -0.4500 -0.2723  0.2841
 9913TIP3    H151230   0.171   4.755   2.312 -0.6979  0.1519 -1.6213
 9913TIP3    H251231   0.125   4.898   2.328 -0.8692 -0.1125  0.4783
 9914TIP3   OH251232   4.043   2.945   3.344  0.0602  0.5392 -0.5003
 9914TIP3    H151233   3.972   3.010   3.341  0.6474  1.3349  1.3679
 9914TIP3    H251234   4.054   2.926   3.437  1.7751 -0.1748 -0.8093
 9915TIP3   OH251235   1.739   0.339  14.343  0.1804 -0.0918  0.1168
 9915TIP3    H151236   1.729   0.251  14.380  0.8172  0.1797  0.9661
 9915TIP3    H251237   1.704   0.332  14.254  1.6112 -1.6047 -0.3738
 9916TIP3   OH251238   6.225   3.685  16.872  0.3999  0.2257 -0.1304
 9916TIP3    H151239   6.270   3.680  16.956  1.8790  0.2124 -0.8983
 9916TIP3    H251240   6.295   3.681  16.806 -0.6967  0.5227 -1.3639
 9917TIP3   OH251241   3.295   1.460  11.919  0.4537  0.0839 -0.3715
 9917TIP3    H151242   3.303   1.365  11.912 -0.3513 -0.0529  0.2871
 9917TIP3    H251243   3.373   1.495  11.876  0.1902 -0.8417 -1.6550
 9918TIP3   OH251244   0.675   3.991   6.358  0.6947 -0.5082 -0.2063
 9918TIP3    H151245   0.626   3.954   6.284  0.8418 -1.5122  0.1751
 9918TIP3    H251246   0.610   4.003   6.427  0.5257  0.5933 -0.5512
 9919TIP3   OH251247   4.369   4.386   5.290  0.2419 -0.3822  0.0400
 9919TIP3    H151248   4.372   4.482   5.294 -0.4338 -0.3972  1.0355
 9919TIP3    H251249   4.357   4.359   5.381  4.4029 -1.5875  0.4551
 9920TIP3   OH251250   3.302   3.093   1.279  0.3643  0.1430  0.1983
 9920TIP3    H151251   3.279   3.108   1.188  0.4918  0.8908  0.2802
 9920TIP3    H251252   3.261   3.009   1.301  0.1348  0.0750 -0.4744
 9921TIP3   OH251253   2.741   2.479   5.170  0.0187 -0.3205  0.3279
 9921TIP3    H151254   2.790   2.544   5.120 -0.1579 -1.1386 -0.9302
 9921TIP3    H251255   2.808   2.418   5.201  0.1053  0.0877  0.9805
 9922TIP3   OH251256   0.167   2.488   2.035  0.0512  0.1762 -0.0411
 9922TIP3    H151257   0.158   2.393   2.047 -0.4711  0.3288  0.8495
 9922TIP3    H251258   0.253   2.498   1.993  0.5337 -0.6270  0.7108
 9923TIP3   OH251259   2.382   4.345  16.403  0.5052 -0.2747 -0.1158
 9923TIP3    H151260   2.458   4.402  16.413 -0.1053  0.9260 -1.9064
 9923TIP3    H251261   2.309   4.396  16.440 -0.1699  0.5042 -2.3537
 9924TIP3   OH251262   6.362   0.609   1.015  0.2943 -0.1176  0.1250
 9924TIP3    H151263   6.309   0.659   0.952  0.8740 -1.6348 -1.6492
 9924TIP3    H251264   6.299   0.581   1.081 -1.0444 -1.1549 -1.4854
 9925TIP3   OH251265   6.347   3.120   4.403 -0.1490 -0.4601  0.0747
 9925TIP3    H151266   6.311   3.157   4.323 -1.4712 -1.4694  0.1753
 9925TIP3    H251267   6.433   3.162   4.413 -0.4510  0.5053 -1.2495
 9926TIP3   OH251268   6.000   5.873  11.850 -0.1064 -0.2535  0.4778
 9926TIP3    H151269   5.937   5.812  11.813  0.9678 -0.3827 -1.2165
 9926TIP3    H251270   5.991   5.861  11.945 -1.0457 -1.8725  0.2250
 9927TIP3   OH251271   6.414   5.512   2.330  0.1699  0.2355  0.5557
 9927TIP3    H151272   6.448   5.563   2.256  0.5870  0.0889  0.6398
 9927TIP3    H251273   6.454   5.552   2.407 -0.4937  0.5726  0.7333
 9928TIP3   OH251274   2.128   1.229  14.346  0.1013  0.8265  0.2670
 9928TIP3    H151275   2.073   1.152  14.355  1.3493 -0.2319 -0.8091
 9928TIP3    H251276   2.081   1.285  14.284  0.1358  0.0188 -0.5038
 9929TIP3   OH251277   5.144   3.459  15.247  0.8058  0.4486 -0.4677
 9929TIP3    H151278   5.126   3.395  15.315  1.2716 -0.6602 -1.3509
 9929TIP3    H251279   5.233   3.438  15.217  0.8588  1.3269 -0.9758
 9930TIP3   OH251280   4.865   4.319  11.309  0.3175 -0.3069  0.6700
 9930TIP3    H151281   4.829   4.251  11.253  2.1831 -1.4716  0.7945
 9930TIP3    H251282   4.840   4.401  11.267 -0.6250 -1.0934 -0.3509
 9931TIP3   OH251283   4.973   3.673  16.818 -0.1744  0.0422  0.2003
 9931TIP3    H151284   4.885   3.651  16.787 -0.4386  0.9865  0.2451
 9931TIP3    H251285   5.008   3.591  16.852 -1.9083  0.0628  2.2682
 9932TIP3   OH251286   5.097   5.894  16.205 -0.5516  0.2241 -0.2309
 9932TIP3    H151287   5.180   5.857  16.176 -0.3485  1.0420 -0.7284
 9932TIP3    H251288   5.083   5.970  16.148 -1.1480  0.6798  0.4994
 9933TIP3   OH251289   5.047   0.294   3.313  0.5560  0.0116 -0.3838
 9933TIP3    H151290   5.136   0.289   3.346  0.5679 -0.8589 -0.5297
 9933TIP3    H251291   5.016   0.381   3.341  1.2042  0.0456  0.2623
 9934TIP3   OH251292   0.209   4.406  14.597 -0.5573 -0.4461 -0.2015
 9934TIP3    H151293   0.147   4.398  14.669  0.0607 -0.6263  0.3228
 9934TIP3    H251294   0.192   4.331  14.541  0.1100 -1.2606  0.6680
 9935TIP3   OH251295   1.764   1.687  12.295  0.2191 -0.5315  0.1611
 9935TIP3    H151296   1.736   1.702  12.205  0.0742  1.4073  0.4810
 9935TIP3    H251297   1.727   1.761  12.344 -0.8509 -2.2261  2.0713
 9936TIP3   OH251298   1.505   2.016  12.740  0.3133 -0.0313  0.2511
 9936TIP3    H151299   1.540   1.958  12.809  1.6647  0.3524 -0.0833
 9936TIP3    H251300   1.575   2.078  12.723 -0.4409  0.5925 -0.6804
 9937TIP3   OH251301   0.867   0.196   2.253 -0.0305 -0.2132 -0.1083
 9937TIP3    H151302   0.774   0.189   2.232  0.1535 -0.7034 -0.8335
 9937TIP3    H251303   0.873   0.268   2.315 -1.0535 -1.0374  0.9954
 9938TIP3   OH251304   1.258   4.531  14.984  0.8795  0.2862 -0.0479
 9938TIP3    H151305   1.269   4.509  15.077  2.1354 -1.2576 -0.5229
 9938TIP3    H251306   1.186   4.474  14.955  0.1954  1.0778  0.0521
 9939TIP3   OH251307   0.033   0.191  13.433 -0.0208 -0.0037  0.1958
 9939TIP3    H151308  -0.056   0.217  13.410  0.1966 -0.5283 -1.4029
 9939TIP3    H251309   0.023   0.136  13.511 -0.9956  0.6183  0.5235
 9940TIP3   OH251310   2.791   6.189  16.134 -0.5211  0.2978  0.3418
 9940TIP3    H151311   2.760   6.242  16.208 -0.5209  2.1274 -0.9083
 9940TIP3    H251312   2.850   6.247  16.086  0.1275 -1.1317 -0.6482
 9941TIP3   OH251313   1.575   3.847  15.063 -0.0717  0.4621 -0.6611
 9941TIP3    H151314   1.587   3.757  15.092 -2.6403 -0.3562 -1.8012
 9941TIP3    H251315   1.590   3.844  14.969  0.6182  1.4167 -0.5903
 9942TIP3   OH251316   3.535   6.224  15.220 -0.5151 -0.0826  0.3008
 9942TIP3    H151317   3.469   6.190  15.280 -0.5082  0.7864  0.8164
 9942TIP3    H251318   3.616   6.226  15.271 -0.7142  1.5998  0.6197
 9943TIP3   OH251319   4.374   3.439  14.414  0.1047  0.8243  0.2390
 9943TIP3    H151320   4.437   3.401  14.352  0.9035  0.0747  1.4526
 9943TIP3    H251321   4.416   3.429  14.499 -1.5167  0.6585  1.0560
 9944TIP3   OH251322   6.458   1.201   5.004 -0.0946 -0.1822 -0.0650
 9944TIP3    H151323   6.452   1.106   5.000 -0.6904 -0.1225 -1.1643
 9944TIP3    H251324   6.510   1.219   5.081  1.7472 -1.4772 -0.9426
 9945TIP3   OH251325   4.586   3.588  16.280 -0.2025 -0.1242 -0.0723
 9945TIP3    H151326   4.511   3.563  16.333 -0.9116  2.1565  0.0876
 9945TIP3    H251327   4.549   3.616  16.196  0.4696  0.8482 -0.0589
 9946TIP3   OH251328   1.871   3.094  15.820 -0.2409 -0.6078  0.1993
 9946TIP3    H151329   1.802   3.145  15.776 -0.7579 -1.1120  0.4201
 9946TIP3    H251330   1.918   3.159  15.873  0.2130 -0.0384 -0.8634
 9947TIP3   OH251331   2.171   5.342   3.534 -0.3579  0.5840  0.1129
 9947TIP3    H151332   2.149   5.299   3.617 -0.8443  0.2619 -0.1719
 9947TIP3    H251333   2.134   5.430   3.542  0.2479  0.8042  0.5255
 9948TIP3   OH251334   4.814   5.866   6.466 -0.4778 -0.0952 -0.0707
 9948TIP3    H151335   4.772   5.870   6.381 -3.6024  1.3186  1.3665
 9948TIP3    H251336   4.776   5.790   6.509 -1.2873  0.9018  1.0722
 9949TIP3   OH251337   4.343   0.065   3.115  0.1467 -0.1278 -0.8199
 9949TIP3    H151338   4.302   0.011   3.047 -1.0168 -0.1454 -0.1310
 9949TIP3    H251339   4.295   0.043   3.195 -1.1207  2.6812 -0.6928
 9950TIP3   OH251340   1.756   4.977   1.429 -0.6402  0.2603 -0.4657
 9950TIP3    H151341   1.759   4.955   1.335  0.8150 -0.6167 -0.2577
 9950TIP3    H251342   1.846   4.962   1.459 -1.5263 -1.6286  1.5395
 9951TIP3   OH251343   0.093   3.801  14.699  0.0951 -0.0658 -0.2927
 9951TIP3    H151344   0.034   3.867  14.663 -1.7096 -1.5640 -0.2482
 9951TIP3    H251345   0.073   3.721  14.649  0.4013 -1.1862  1.3043
 9952TIP3   OH251346   4.398   1.317  16.412 -0.3297 -0.1849  0.0115
 9952TIP3    H151347   4.396   1.336  16.319 -2.6921 -0.2537  0.0049
 9952TIP3    H251348   4.462   1.378  16.448 -1.1764  1.5284 -1.3038
 9953TIP3   OH251349   0.384   4.329   4.879  0.8515  0.7738 -0.2703
 9953TIP3    H151350   0.339   4.315   4.962  1.4825 -0.2582 -0.0821
 9953TIP3    H251351   0.341   4.268   4.819  2.3323 -0.6765  0.0589
 9954TIP3   OH251352   0.632   6.753   2.750 -0.5980  0.1165 -0.3297
 9954TIP3    H151353   0.634   6.673   2.698 -2.2559  0.4660 -0.9843
 9954TIP3    H251354   0.655   6.822   2.688  0.9719  0.1815  0.2652
 9955TIP3   OH251355   4.495   6.083  13.542 -0.2328  0.5376 -0.4569
 9955TIP3    H151356   4.434   6.010  13.534  0.4604 -0.3544  1.7661
 9955TIP3    H251357   4.493   6.125  13.456 -2.0777 -0.9448 -1.2030
 9956TIP3   OH251358   2.583   0.381   3.807 -0.6044  0.2731  0.1881
 9956TIP3    H151359   2.523   0.306   3.811 -2.0611  1.1885 -2.4751
 9956TIP3    H251360   2.654   0.352   3.750  0.1157  0.1409  1.1213
 9957TIP3   OH251361   3.211   3.518  16.916 -0.4602 -0.3187 -0.0821
 9957TIP3    H151362   3.237   3.609  16.929 -1.7927  0.1617 -0.6130
 9957TIP3    H251363   3.158   3.497  16.993  1.0752 -1.1721  0.8067
 9958TIP3   OH251364   0.001   3.682   6.057  0.4288 -0.1448 -0.0484
 9958TIP3    H151365   0.023   3.676   5.964 -1.8589  1.8530 -0.8373
 9958TIP3    H251366   0.003   3.776   6.076 -0.4440 -0.4019  1.5424
 9959TIP3   OH251367   1.018   1.797   3.636 -0.0778  0.0448 -0.5983
 9959TIP3    H151368   1.055   1.728   3.691  0.5621  1.0316  0.2350
 9959TIP3    H251369   0.997   1.868   3.697  0.3780  1.0546 -1.5802
 9960TIP3   OH251370   4.777   3.216  13.828  0.0134 -0.6611 -0.5830
 9960TIP3    H151371   4.804   3.229  13.738  1.8713 -1.5314 -0.1903
 9960TIP3    H251372   4.764   3.122  13.837 -0.3184 -0.5689  0.0234
 9961TIP3   OH251373   3.398   2.298   4.610  0.1537  0.0505  0.4263
 9961TIP3    H151374   3.479   2.334   4.646  0.6519 -2.4864  2.0403
 9961TIP3    H251375   3.421   2.272   4.521  0.5157  1.1234  0.1832
 9962TIP3   OH251376   1.788   0.907   1.316  0.2415 -0.0194 -0.1780
 9962TIP3    H151377   1.853   0.838   1.325  1.2023  0.7467 -1.0471
 9962TIP3    H251378   1.781   0.921   1.222 -1.2028 -0.0946 -0.1056
 9963TIP3   OH251379   6.093   1.652  12.349  0.1538  0.5913 -0.0451
 9963TIP3    H151380   6.028   1.582  12.355  2.0653 -1.2756 -0.0309
 9963TIP3    H251381   6.092   1.678  12.256  0.9814 -1.1055 -0.5785
 9964TIP3   OH251382   0.801   4.301   0.318 -0.1632 -0.0216  0.2009
 9964TIP3    H151383   0.735   4.297   0.248 -0.4590 -1.0034  0.5185
 9964TIP3    H251384   0.777   4.378   0.369 -1.6911 -0.8852  0.8881
 9965TIP3   OH251385   0.262   0.378  11.368 -0.2962  0.2865  0.6574
 9965TIP3    H151386   0.312   0.351  11.445  0.3982  1.9622  0.8345
 9965TIP3    H251387   0.327   0.387  11.298 -0.2739  2.4507  0.8813
 9966TIP3   OH251388   5.161   3.752  15.306 -0.2523 -0.1841  0.0144
 9966TIP3    H151389   5.246   3.750  15.261 -0.6434  4.2818 -1.4611
 9966TIP3    H251390   5.108   3.686  15.261  0.3085  1.9932 -4.4035
 9967TIP3   OH251391   2.939   5.617  16.036  0.1463 -0.0652  0.5731
 9967TIP3    H151392   2.857   5.569  16.023  0.6739 -0.8240  0.0037
 9967TIP3    H251393   2.913   5.709  16.036 -0.5651 -0.2444 -0.7411
 9968TIP3   OH251394   3.208   1.482  13.358 -0.0081  0.0357  0.5752
 9968TIP3    H151395   3.121   1.509  13.387  1.1708  0.2794  4.3905
 9968TIP3    H251396   3.211   1.388  13.374  0.1544 -0.1396 -0.4229
 9969TIP3   OH251397   6.058   3.726   2.396 -0.0079  0.3100  0.1230
 9969TIP3    H151398   6.027   3.791   2.460  0.6447 -0.3370  1.1125
 9969TIP3    H251399   6.050   3.642   2.441  3.6724  0.1182  0.6978
 9970TIP3   OH251400   5.086   6.542  13.272  0.3425  0.1374 -0.1145
 9970TIP3    H151401   5.147   6.612  13.296 -0.3507  1.0969 -1.1027
 9970TIP3    H251402   5.009   6.558  13.326 -0.2839  0.8702 -1.2056
 9971TIP3   OH251403   2.252   3.944  12.041 -0.2068  0.2481 -0.5358
 9971TIP3    H151404   2.203   4.026  12.047 -1.7280 -0.3272 -3.2000
 9971TIP3    H251405   2.196   3.880  12.084  0.5100  0.4077  0.6588
 9972TIP3   OH251406   6.421   4.233  16.919 -0.3238  0.6558  0.1233
 9972TIP3    H151407   6.374   4.242  16.836 -0.4978 -1.2977 -0.0365
 9972TIP3    H251408   6.355   4.249  16.986 -0.7457 -0.0275 -0.1169
 9973TIP3   OH251409   2.908   1.273   3.056  0.1424 -0.8099  0.0732
 9973TIP3    H151410   2.931   1.301   3.145 -2.6035  0.7484  0.3959
 9973TIP3    H251411   2.957   1.332   2.999 -1.2257  1.0013  0.6866
 9974TIP3   OH251412   0.521   5.912   2.190  0.6883 -0.3914  0.1705
 9974TIP3    H151413   0.506   5.901   2.284  0.3279  0.0605  0.1677
 9974TIP3    H251414   0.615   5.894   2.179  0.5134 -1.5226  0.4450
 9975TIP3   OH251415   3.897   3.562   3.179 -0.1044 -0.4790 -0.7032
 9975TIP3    H151416   3.920   3.639   3.231 -1.0168 -0.2484 -0.6234
 9975TIP3    H251417   3.978   3.540   3.132  0.3058  0.2226 -0.3479
 9976TIP3   OH251418   3.080   0.370   1.233  0.5462 -0.2618  0.3284
 9976TIP3    H151419   3.024   0.356   1.310  0.1765 -1.6036 -0.1443
 9976TIP3    H251420   3.028   0.427   1.177 -0.0790 -0.9261  0.2043
 9977TIP3   OH251421   2.035   3.549   1.877  0.4862  0.1369  0.3030
 9977TIP3    H151422   2.124   3.538   1.911  1.0229  2.8540  0.0219
 9977TIP3    H251423   2.045   3.551   1.782  0.0339 -0.1327  0.2463
 9978TIP3   OH251424   4.636   0.915   0.770  0.0985 -0.5380 -0.2823
 9978TIP3    H151425   4.608   1.005   0.789 -0.7167 -1.0216  0.9750
 9978TIP3    H251426   4.676   0.920   0.684 -0.3112  0.9584 -0.4209
 9979TIP3   OH251427   1.799   0.312   1.360  0.4285  0.0476 -0.5898
 9979TIP3    H151428   1.753   0.229   1.364 -0.6775  0.6716  0.2460
 9979TIP3    H251429   1.869   0.304   1.424 -1.0603  0.5230  1.1915
 9980TIP3   OH251430   4.500   1.369   3.434  1.1002 -0.0124 -0.1667
 9980TIP3    H151431   4.500   1.305   3.363  0.5738  1.6251 -1.7263
 9980TIP3    H251432   4.588   1.408   3.431  1.6008 -0.9894  1.1228
 9981TIP3   OH251433   5.116   4.297  14.163 -0.1653 -0.5191 -0.0205
 9981TIP3    H151434   5.089   4.325  14.251  0.2209  0.3252 -0.1583
 9981TIP3    H251435   5.051   4.336  14.105  1.1830  1.4040 -0.3419
 9982TIP3   OH251436   6.832   5.441   2.538  0.3682 -0.2549 -0.1620
 9982TIP3    H151437   6.863   5.354   2.561 -0.7213 -0.3831  0.8938
 9982TIP3    H251438   6.852   5.495   2.615  0.6138  0.3395 -0.6239
 9983TIP3   OH251439   0.785   4.378   6.326 -0.9130  0.4713  0.6646
 9983TIP3    H151440   0.778   4.469   6.356 -0.3239  1.3092 -1.5856
 9983TIP3    H251441   0.695   4.355   6.301 -1.5215 -0.4236  3.3740
 9984TIP3   OH251442   2.598   1.820  14.404  0.2968 -0.0289  0.0182
 9984TIP3    H151443   2.687   1.787  14.418 -0.2243 -2.4837 -1.8363
 9984TIP3    H251444   2.599   1.908  14.443  2.4677 -1.2859  3.2837
 9985TIP3   OH251445   1.483   1.564  13.638 -0.3807  0.4856  0.1669
 9985TIP3    H151446   1.456   1.649  13.603 -0.6377  0.0157 -0.8197
 9985TIP3    H251447   1.520   1.584  13.724 -0.4681  1.5860 -0.0349
 9986TIP3   OH251448   2.465   4.998   5.518 -0.2204 -0.0024  0.0479
 9986TIP3    H151449   2.443   5.079   5.473  0.7684 -0.5442 -1.4729
 9986TIP3    H251450   2.396   4.988   5.584 -0.2064  2.2054  0.4909
 9987TIP3   OH251451   2.595   5.554   5.969  0.6697  0.1077 -0.1967
 9987TIP3    H151452   2.580   5.463   5.944  0.7691  0.4290 -1.4724
 9987TIP3    H251453   2.507   5.591   5.979  0.6125 -0.3637  1.3163
 9988TIP3   OH251454   1.429   0.920   4.400  0.0960  0.1836  0.3161
 9988TIP3    H151455   1.348   0.940   4.353  0.7148 -0.6785 -1.1919
 9988TIP3    H251456   1.401   0.894   4.488 -1.2483  0.0605 -0.1384
 9989TIP3   OH251457   6.741   5.695   4.208 -0.2078  0.2174  0.1893
 9989TIP3    H151458   6.793   5.660   4.135  0.8585  0.6802  0.7058
 9989TIP3    H251459   6.675   5.628   4.224  0.0255 -0.2488 -0.6970
 9990TIP3   OH251460   4.729   3.554   6.129  0.2489 -0.0104  0.5308
 9990TIP3    H151461   4.791   3.481   6.134 -0.6850 -0.9862 -1.0976
 9990TIP3    H251462   4.647   3.518   6.162 -0.1564  0.3700 -0.0359
 9991TIP3   OH251463   1.676   5.717  17.013  0.2416 -0.4961 -0.2194
 9991TIP3    H151464   1.598   5.760  17.048 -0.4769 -0.5644 -1.6601
 9991TIP3    H251465   1.749   5.758  17.059 -0.6051 -0.0012  0.7263
 9992TIP3   OH251466   1.673   5.239   2.951  0.0750  0.0436  0.1305
 9992TIP3    H151467   1.757   5.284   2.960 -1.6536  4.1193 -1.4465
 9992TIP3    H251468   1.620   5.273   3.023 -0.9370 -0.5450 -0.3127
 9993TIP3   OH251469   5.172   5.598   3.923  0.1188  0.2595 -0.5676
 9993TIP3    H151470   5.187   5.602   4.018 -0.7339  3.4756 -0.4435
 9993TIP3    H251471   5.172   5.504   3.903 -2.2229 -0.7397  3.0552
 9994TIP3   OH251472   1.648   4.746   3.564 -0.4472  0.0665  0.9767
 9994TIP3    H151473   1.608   4.666   3.599 -1.1316 -0.0844 -0.1306
 9994TIP3    H251474   1.740   4.724   3.554 -0.5658 -0.4696  1.0172
 9995TIP3   OH251475   6.085   0.039   0.948 -0.0831  0.6726 -0.0636
 9995TIP3    H151476   6.018  -0.027   0.930  1.5005 -1.4160  1.2901
 9995TIP3    H251477   6.035   0.115   0.979 -1.8880 -0.4197 -0.1362
 9996TIP3   OH251478   3.824   4.453  16.192  0.3737  0.4089  0.5299
 9996TIP3    H151479   3.829   4.368  16.234  0.3788 -0.6585 -1.5041
 9996TIP3    H251480   3.743   4.492  16.224  0.8569  0.0985  2.2210
 9997TIP3   OH251481   0.244   5.824  11.270 -0.1507  0.3749 -0.3030
 9997TIP3    H151482   0.301   5.768  11.323  1.8532  1.3269 -1.3504
 9997TIP3    H251483   0.177   5.765  11.235  0.9348 -1.0439 -0.0669
 9998TIP3   OH251484   6.175   5.637  16.974 -0.2970  0.3895 -0.5367
 9998TIP3    H151485   6.228   5.712  16.948  0.6752  0.5393  1.6492
 9998TIP3    H251486   6.116   5.671  17.041 -2.1865 -0.1115 -1.8588
 9999TIP3   OH251487   4.857   0.576  11.443  0.5918 -0.2611  0.1768
 9999TIP3    H151488   4.914   0.510  11.402 -0.3606 -0.2089 -1.3396
 9999TIP3    H251489   4.906   0.607  11.518  1.9841 -1.1787 -0.3081
10000TIP3   OH251490   5.391   2.191  12.862  0.1871 -0.4092  0.4055
10000TIP3    H151491   5.366   2.258  12.798  0.6066 -0.5143  0.1271
10000TIP3    H251492   5.333   2.117  12.842 -0.5799  0.0115  0.9949
10001TIP3   OH251493   5.931   4.038   0.521 -0.5358 -0.0165 -0.1111
10001TIP3    H151494   5.937   3.949   0.487 -0.3979  0.0296 -0.2074
10001TIP3    H251495   5.878   4.030   0.600  0.5948 -0.3864  0.6289
10002TIP3   OH251496   4.643   5.256  10.512  0.4382 -0.3865  0.0665
10002TIP3    H151497   4.701   5.315  10.561 -0.1237 -1.4223  2.0964
10002TIP3    H251498   4.567   5.310  10.491 -0.2388 -0.3977  2.2315
10003TIP3   OH251499   1.232   2.252   5.654  0.2163 -0.3611  0.2951
10003TIP3    H151500   1.270   2.323   5.603  0.7823 -1.4034 -0.7776
10003TIP3    H251501   1.223   2.179   5.592 -1.4571 -0.8639  1.0660
10004TIP3   OH251502   1.497   2.736  17.024 -0.5241  0.1779  0.0116
10004TIP3    H151503   1.460   2.648  17.029 -1.3998  0.5122 -0.3865
10004TIP3    H251504   1.534   2.752  17.111 -1.0531 -0.2757  0.3219
10005TIP3   OH251505   0.697   0.895   4.964  0.5733  0.9385 -0.2134
10005TIP3    H151506   0.729   0.957   4.898  0.0540  2.1195  0.6023
10005TIP3    H251507   0.621   0.854   4.924  1.5347  0.0239 -1.1647
10006TIP3   OH251508   4.871   5.356   5.126  0.2044  0.2723 -0.1694
10006TIP3    H151509   4.795   5.338   5.070  1.2034  0.7228 -1.7442
10006TIP3    H251510   4.930   5.282   5.111  0.2176  0.0651  0.8262
10007TIP3   OH251511   3.701   2.258  12.250 -0.2588 -0.2395 -0.4552
10007TIP3    H151512   3.744   2.303  12.323  3.3874 -1.9545 -1.3406
10007TIP3    H251513   3.687   2.169  12.282 -0.4613 -0.4749 -1.1934
10008TIP3   OH251514   5.583   1.613  15.380 -0.1606 -0.7293 -0.8891
10008TIP3    H151515   5.612   1.577  15.296 -1.4001 -1.3979 -1.0597
10008TIP3    H251516   5.490   1.590  15.384 -0.4866  0.6354 -0.0320
10009TIP3   OH251517   0.328   6.725   2.302  0.0770  0.1904 -0.0759
10009TIP3    H151518   0.240   6.761   2.300  0.5908  1.7098 -4.5122
10009TIP3    H251519   0.368   6.763   2.380 -2.5112  1.0761  0.9166
10010TIP3   OH251520   4.468   4.625   1.600 -0.1074 -0.2582  0.0573
10010TIP3    H151521   4.501   4.592   1.517 -0.5144 -0.7457  0.0853
10010TIP3    H251522   4.474   4.721   1.592  1.0167 -0.3203 -0.0486
10011TIP3   OH251523   6.520   4.852  12.683 -0.4091 -0.1305 -0.4166
10011TIP3    H151524   6.613   4.859  12.661 -0.6426  0.0666 -1.3900
10011TIP3    H251525   6.503   4.927  12.740  0.5993 -1.6091  1.9879
10012TIP3   OH251526   5.175   1.685   3.617  0.2302  0.7606 -0.1257
10012TIP3    H151527   5.144   1.742   3.688  0.7699 -0.7364  1.3759
10012TIP3    H251528   5.244   1.736   3.574 -1.9198  2.7940 -1.4082
10013TIP3   OH251529   2.175   4.817   4.495 -0.1030 -0.2000  0.2495
10013TIP3    H151530   2.247   4.773   4.542  0.4548 -2.9809 -2.8896
10013TIP3    H251531   2.111   4.748   4.480 -0.9567  0.9499 -1.6598
10014TIP3   OH251532   1.998   3.935  10.469  0.3018 -0.3342  0.0006
10014TIP3    H151533   1.926   3.875  10.487 -0.8627  0.6658 -1.1063
10014TIP3    H251534   2.064   3.914  10.535 -0.7416 -1.6935  0.6624
10015TIP3   OH251535   6.778   6.299   0.290 -0.2730  0.4666  0.3814
10015TIP3    H151536   6.775   6.395   0.284  0.7839  0.5040  0.0896
10015TIP3    H251537   6.860   6.281   0.337 -0.4710 -0.2906  0.4464
10016TIP3   OH251538   4.953   4.750  15.089 -0.2844  0.3391  0.0406
10016TIP3    H151539   4.960   4.787  15.001 -1.9225  0.2298 -0.1605
10016TIP3    H251540   4.919   4.821  15.143  3.8344  1.5217  1.4360
10017TIP3   OH251541   5.182   1.220  10.893 -0.2339  0.3715 -0.0618
10017TIP3    H151542   5.147   1.308  10.885  0.8657  1.2310  3.1960
10017TIP3    H251543   5.203   1.210  10.986 -0.7702 -3.5331 -0.1770
10018TIP3   OH251544   4.706   4.016   6.325  0.2265 -0.1133 -0.4029
10018TIP3    H151545   4.785   4.069   6.339 -0.2859  0.2407  1.4641
10018TIP3    H251546   4.683   3.985   6.412 -0.8159 -1.5313 -1.1463
10019TIP3   OH251547   2.507   5.749  15.244  0.2914  0.5691 -0.1192
10019TIP3    H151548   2.544   5.667  15.276  1.1837  1.4104  1.0778
10019TIP3    H251549   2.523   5.747  15.149  0.3912 -0.5835 -0.0883
10020TIP3   OH251550   5.933   1.631   1.605  0.4608 -0.2667 -0.2108
10020TIP3    H151551   5.962   1.553   1.652 -0.4395 -0.1945  0.5125
10020TIP3    H251552   5.908   1.600   1.518 -2.6342 -1.3966  0.9286
10021TIP3   OH251553   6.565   2.056  15.927  0.1475  0.6811 -0.6299
10021TIP3    H151554   6.496   1.991  15.934  0.4284  0.4445  0.0318
10021TIP3    H251555   6.619   2.026  15.854 -2.0274  2.4107 -3.1626
10022TIP3   OH251556   4.042   4.337   6.410  0.4365  0.4277  0.2533
10022TIP3    H151557   4.111   4.403   6.420  0.8664 -0.0643  0.5928
10022TIP3    H251558   3.990   4.368   6.337  2.6677 -0.5840 -1.9220
10023TIP3   OH251559   4.946   0.289   3.033  0.0958 -0.1298  0.6708
10023TIP3    H151560   4.863   0.284   3.080  0.9573 -3.4474  2.1392
10023TIP3    H251561   5.007   0.331   3.094 -0.3140  2.0537 -0.3055
10024TIP3   OH251562   5.051   5.592  12.854  0.3000  0.2414  0.0349
10024TIP3    H151563   5.053   5.497  12.847 -1.4551  0.1753 -0.0190
10024TIP3    H251564   5.070   5.610  12.946 -0.6819 -0.2375  0.3346
10025TIP3   OH251565   5.412   6.157   5.602 -0.1310 -0.3470  0.1310
10025TIP3    H151566   5.411   6.251   5.586  0.8700 -0.3897 -0.2898
10025TIP3    H251567   5.335   6.123   5.556  1.1779 -0.1063 -2.4056
10026TIP3   OH251568   0.360   2.521   0.215  0.0003 -0.0166  0.3437
10026TIP3    H151569   0.378   2.435   0.178  0.6300 -0.1426  0.9268
10026TIP3    H251570   0.446   2.560   0.230 -0.2814  0.8493 -0.2100
10027TIP3   OH251571   6.809   2.853   1.953  0.7023 -0.5550  0.4901
10027TIP3    H151572   6.799   2.761   1.929  0.1452 -0.9602  2.1330
10027TIP3    H251573   6.736   2.898   1.910  0.3015 -1.0765  0.6178
10028TIP3   OH251574   4.571   5.672  14.505 -0.1111 -0.4434 -0.4012
10028TIP3    H151575   4.623   5.725  14.444  2.1898 -3.2704 -1.0842
10028TIP3    H251576   4.510   5.623  14.450  0.2312 -1.1360 -0.1744
10029TIP3   OH251577   4.245   1.346  16.655 -0.3234 -0.4329  0.3085
10029TIP3    H151578   4.308   1.343  16.583 -0.9021 -0.6097 -0.1940
10029TIP3    H251579   4.260   1.432  16.695 -1.6720  0.7523 -1.5705
10030TIP3   OH251580   3.300   2.104  12.586 -0.0461 -0.0392 -0.0987
10030TIP3    H151581   3.275   2.140  12.501  0.7699  0.8141  0.0033
10030TIP3    H251582   3.390   2.074  12.575 -0.3807 -1.1763  0.1024
10031TIP3   OH251583   4.753   5.273  15.766 -0.1356 -0.1785 -0.8241
10031TIP3    H151584   4.753   5.339  15.835  1.2597  0.0620 -1.0229
10031TIP3    H251585   4.791   5.317  15.690  1.2523 -1.3185 -0.8273
10032TIP3   OH251586   2.307   0.438  15.656  0.5762  0.4172 -0.7604
10032TIP3    H151587   2.402   0.434  15.669  0.7503 -0.1112 -2.0720
10032TIP3    H251588   2.281   0.348  15.637 -0.1777  0.5847 -0.5736
10033TIP3   OH251589   5.202   0.645  11.559 -0.2451  0.5332 -0.2024
10033TIP3    H151590   5.196   0.666  11.466 -2.1645 -2.1516 -0.7792
10033TIP3    H251591   5.145   0.710  11.602 -1.8624 -0.0900 -1.3116
10034TIP3   OH251592   2.819   0.264   2.735  0.6989  0.0749 -0.2650
10034TIP3    H151593   2.762   0.288   2.663  1.3799  2.0791 -0.2062
10034TIP3    H251594   2.858   0.180   2.709 -1.3576 -0.7591 -0.7955
10035TIP3   OH251595   0.501   3.459  15.801  0.3755 -0.0321 -0.0854
10035TIP3    H151596   0.432   3.506  15.753  1.9069  0.9297 -1.4421
10035TIP3    H251597   0.574   3.520  15.803  0.7156 -0.4274  2.7318
10036TIP3   OH251598   0.226   5.667   0.131  0.2386  0.0609  0.2335
10036TIP3    H151599   0.300   5.614   0.161 -0.8006 -1.2819  0.5392
10036TIP3    H251600   0.193   5.621   0.054 -0.9627 -0.0215  0.7667
10037TIP3   OH251601   1.847   1.351   0.988 -0.0808  0.2612 -0.3134
10037TIP3    H151602   1.875   1.401   0.912  1.1735  0.5217  0.2867
10037TIP3    H251603   1.909   1.278   0.993  1.6891  1.7463  1.9984
10038TIP3   OH251604   0.719   6.801   3.005  0.0009 -0.2378 -0.0301
10038TIP3    H151605   0.681   6.802   2.918 -2.5446  0.3417  0.9856
10038TIP3    H251606   0.784   6.871   3.004  1.6531 -1.6791 -2.0340
10039TIP3   OH251607   5.412   2.710   2.442 -0.4318 -0.1767 -0.3361
10039TIP3    H151608   5.409   2.635   2.384  1.3602 -0.5021 -0.0572
10039TIP3    H251609   5.397   2.673   2.529 -3.3338  0.3369 -0.5212
10040TIP3   OH251610   5.590   5.810   5.229 -0.3487 -0.2940 -0.1603
10040TIP3    H151611   5.568   5.870   5.300 -0.0135 -1.7879  1.2912
10040TIP3    H251612   5.509   5.761   5.214  0.3651 -2.1220  1.4552
10041TIP3   OH251613   0.301   0.000  12.434 -0.5977  0.2680 -0.1228
10041TIP3    H151614   0.380  -0.018  12.485 -0.4345  2.1832  0.3942
10041TIP3    H251615   0.255  -0.083  12.428  1.5312 -0.9434 -0.5676
10042TIP3   OH251616   4.182   3.307   3.934  0.6576  0.0741  0.3608
10042TIP3    H151617   4.196   3.353   3.851  0.0128  1.1901  0.8513
10042TIP3    H251618   4.218   3.365   4.001  0.2303 -0.3357  0.9597
10043TIP3   OH251619   4.632   3.166   2.355 -0.3819  0.3627 -0.3132
10043TIP3    H151620   4.555   3.140   2.303  0.2345 -0.2281 -0.9458
10043TIP3    H251621   4.706   3.156   2.295  0.3171 -0.0409  0.5958
10044TIP3   OH251622   6.301   1.788   5.495  0.0139 -0.1749 -0.1299
10044TIP3    H151623   6.284   1.809   5.403  0.7812 -2.4718 -0.8445
10044TIP3    H251624   6.227   1.827   5.542 -1.7196 -1.0671 -1.9807
10045TIP3   OH251625   0.061   3.589  12.483 -0.8048  0.2486 -0.0102
10045TIP3    H151626   0.054   3.525  12.553 -0.3120 -0.8788 -0.9575
10045TIP3    H251627   0.148   3.574  12.445 -1.0207  0.9053 -0.7901
10046TIP3   OH251628   0.917   5.905   1.049 -0.0355  0.1426  0.0107
10046TIP3    H151629   0.918   5.911   0.953  0.9763 -0.3738 -0.0329
10046TIP3    H251630   0.925   5.811   1.067 -1.5721  0.1025  0.6140
10047TIP3   OH251631   2.197   4.826   2.754 -0.5222 -0.5818 -0.3404
10047TIP3    H151632   2.127   4.884   2.784 -0.8768 -1.0320 -0.2942
10047TIP3    H251633   2.266   4.886   2.725 -0.3142 -0.1274  1.0060
10048TIP3   OH251634   3.521   0.345  16.466 -0.2057 -0.1481 -0.0491
10048TIP3    H151635   3.518   0.406  16.539 -0.3897 -0.8803  0.5601
10048TIP3    H251636   3.436   0.353  16.424  0.2541  1.0218 -0.8215
10049TIP3   OH251637   2.058   3.793   3.934  0.4168  0.3473 -0.3431
10049TIP3    H151638   2.056   3.764   3.843 -0.1975 -3.0362  0.5852
10049TIP3    H251639   2.122   3.734   3.976 -2.3844 -1.1781  2.1675
10050TIP3   OH251640   4.273   3.192   5.024  0.5461  0.6582  0.1355
10050TIP3    H151641   4.347   3.132   5.025  0.8790  1.0571 -0.4789
10050TIP3    H251642   4.289   3.249   4.950  0.1362  1.3979  0.6061
10051TIP3   OH251643   6.755   2.189   4.022  0.3721 -0.0788  0.1407
10051TIP3    H151644   6.778   2.162   4.111  1.5133 -1.9717 -0.6572
10051TIP3    H251645   6.759   2.284   4.023 -0.1722 -0.0456  2.2375
10052TIP3   OH251646   1.162   1.428  12.324 -0.8872  0.3517  0.0477
10052TIP3    H151647   1.075   1.469  12.333 -0.5580  0.8296  1.2937
10052TIP3    H251648   1.145   1.334  12.329 -1.3329  0.4381  0.2274
10053TIP3   OH251649   3.436   6.354   5.419  0.4768  0.3660  0.4817
10053TIP3    H151650   3.440   6.426   5.482  0.4830  0.0207  0.8769
10053TIP3    H251651   3.516   6.304   5.436  0.6976  0.5130 -0.0945
10054TIP3   OH251652   3.691   5.184  14.363  0.4069  0.0249  0.4958
10054TIP3    H151653   3.635   5.253  14.399  0.1032  0.9555 -1.5977
10054TIP3    H251654   3.761   5.174  14.427  1.0992  3.1320  0.4006
10055TIP3   OH251655   6.292   1.506  15.173  0.1115 -0.3870 -0.3472
10055TIP3    H151656   6.207   1.473  15.143  0.8725 -2.7490 -0.1527
10055TIP3    H251657   6.299   1.476  15.264  1.1005 -0.1236 -0.3172
10056TIP3   OH251658   5.134   0.466  16.410 -0.0235  0.0347  0.2241
10056TIP3    H151659   5.161   0.405  16.341 -0.6703  0.4840 -0.4405
10056TIP3    H251660   5.145   0.416  16.491  2.6004  0.1120  0.0062
10057TIP3   OH251661   6.690   5.897  13.986  0.1534  0.2195 -0.1877
10057TIP3    H151662   6.603   5.936  13.984  0.8796  1.9802 -0.2142
10057TIP3    H251663   6.675   5.803  13.986 -1.7322  0.4803 -0.2789
10058TIP3   OH251664   2.685   6.687  13.849  0.5540  0.3080  0.3840
10058TIP3    H151665   2.653   6.720  13.765  1.2919  1.4639  0.5308
10058TIP3    H251666   2.755   6.626  13.826 -1.8990 -2.6085  0.0376
10059TIP3   OH251667   3.364   1.926   1.005  0.4739 -0.1117  0.1272
10059TIP3    H151668   3.350   1.882   0.921 -1.1003  0.3096  0.1307
10059TIP3    H251669   3.375   1.855   1.067  0.4081 -0.4576 -0.2514
10060TIP3   OH251670   3.148   2.753   4.980 -0.6821  0.3110  0.4726
10060TIP3    H151671   3.163   2.745   5.074  2.3441 -1.5412 -0.0485
10060TIP3    H251672   3.091   2.679   4.958 -1.4139  0.7602  0.7834
10061TIP3   OH251673   4.416   2.544  10.876 -0.2285  0.2568  0.4182
10061TIP3    H151674   4.430   2.565  10.784  0.7087 -0.1143  0.4617
10061TIP3    H251675   4.375   2.458  10.875 -2.1779  1.1438  0.3036
10062TIP3   OH251676   4.789   1.463   0.686  0.4619 -0.1567 -0.6879
10062TIP3    H151677   4.843   1.427   0.616  1.3938 -2.2265  0.9948
10062TIP3    H251678   4.849   1.474   0.759 -1.6111 -5.1904  2.2373
10063TIP3   OH251679   5.040   5.543   1.830  0.4414  0.4386 -0.1841
10063TIP3    H151680   5.102   5.470   1.822  0.0917  0.0596  0.5819
10063TIP3    H251681   5.080   5.600   1.895  1.1576  1.4033 -1.4093
10064TIP3   OH251682   0.694   2.079   6.250 -0.1045 -0.1129  0.2119
10064TIP3    H151683   0.788   2.094   6.238 -0.3416  0.7949 -0.6636
10064TIP3    H251684   0.666   2.151   6.305 -0.5664  0.5302 -0.8441
10065TIP3   OH251685   5.873   0.572  15.974  0.5459  0.1687  0.5675
10065TIP3    H151686   5.849   0.633  16.044  0.9716  0.1771  0.7061
10065TIP3    H251687   5.959   0.600  15.945  0.7755 -0.3993  0.6770
10066TIP3   OH251688   0.785   5.204   1.032  0.0217 -0.5810 -0.5509
10066TIP3    H151689   0.815   5.230   0.944  0.4668 -3.2537 -1.2828
10066TIP3    H251690   0.858   5.154   1.068 -0.4086 -0.0478  1.1315
10067TIP3   OH251691   2.356   5.747   4.563  0.5282  0.5867 -0.4445
10067TIP3    H151692   2.440   5.780   4.533  0.5752  1.2273  0.3526
10067TIP3    H251693   2.291   5.808   4.527  0.4300  0.2637 -0.8152
10068TIP3   OH251694   1.994   4.550  13.351 -0.7785 -0.1629 -0.3318
10068TIP3    H151695   1.953   4.466  13.371  0.8853 -1.0470 -0.4891
10068TIP3    H251696   1.921   4.605  13.320 -1.9730 -1.3708  0.2157
10069TIP3   OH251697   4.797   2.872  14.254 -0.2368 -0.4962  0.5670
10069TIP3    H151698   4.885   2.846  14.281  0.5652 -0.0199 -1.3996
10069TIP3    H251699   4.780   2.953  14.302  1.2488  0.4888 -0.4907
10070TIP3   OH251700   1.822   5.740  11.221 -0.0534 -0.1211 -0.3919
10070TIP3    H151701   1.895   5.713  11.165  0.7614 -1.3288  1.1864
10070TIP3    H251702   1.860   5.806  11.280 -0.0527 -1.1659  0.8084
10071TIP3   OH251703   4.320   3.422   0.736  0.1188 -0.3840 -0.1653
10071TIP3    H151704   4.349   3.458   0.652 -1.6703  1.0843 -0.2248
10071TIP3    H251705   4.395   3.433   0.795  0.6543  0.6176 -1.0148
10072TIP3   OH251706   3.065   4.229  17.014 -0.6126  0.2950 -0.2860
10072TIP3    H151707   2.988   4.231  16.957 -0.7559  0.5631 -0.0831
10072TIP3    H251708   3.072   4.318  17.049  0.7247  0.7282 -1.5256
10073TIP3   OH251709   3.297   1.926   0.302 -0.2085 -0.6839 -0.2504
10073TIP3    H151710   3.382   1.907   0.262 -0.0982 -2.3200  0.6828
10073TIP3    H251711   3.239   1.858   0.267 -0.9839  0.0031 -0.3375
10074TIP3   OH251712   0.442   2.329  12.267 -0.3501 -0.3326  0.0883
10074TIP3    H151713   0.477   2.418  12.266  0.7164 -0.7420  0.2033
10074TIP3    H251714   0.353   2.339  12.303  0.0608  0.5820  0.8919
10075TIP3   OH251715   0.993   5.804   2.412 -0.1858  0.0883 -0.9293
10075TIP3    H151716   1.055   5.798   2.484 -0.6290  1.4081 -0.4065
10075TIP3    H251717   1.047   5.798   2.333  0.5911  0.9127 -0.4826
10076TIP3   OH251718   4.554   3.712  14.773  0.1162 -0.3877  0.4159
10076TIP3    H151719   4.583   3.794  14.813  0.4895 -0.5692  0.5136
10076TIP3    H251720   4.458   3.718  14.774  0.1146  0.8766 -1.2628
10077TIP3   OH251721   6.149   0.441  13.854  0.3221 -0.1193  0.5794
10077TIP3    H151722   6.060   0.413  13.836 -0.3724  3.1357 -2.1437
10077TIP3    H251723   6.204   0.381  13.803 -0.6822  0.3946 -1.1743
10078TIP3   OH251724   2.734   1.384  13.453  0.2117  0.5918 -0.3249
10078TIP3    H151725   2.720   1.290  13.469 -0.4552  0.6514 -0.5464
10078TIP3    H251726   2.657   1.426  13.490  0.6039  1.0722 -0.0573
10079TIP3   OH251727   3.803   2.283   0.552 -0.1672 -0.2987  0.7663
10079TIP3    H151728   3.789   2.217   0.485 -0.1659 -0.5824  1.0398
10079TIP3    H251729   3.815   2.233   0.633  3.0093 -0.1396  0.4968
10080TIP3   OH251730   6.223   0.046   4.615  0.0355  0.4052  0.1358
10080TIP3    H151731   6.172   0.050   4.696  1.5689  1.1375  1.1141
10080TIP3    H251732   6.280   0.123   4.618  0.3187  0.3052 -1.5271
10081TIP3   OH251733   0.563   5.883   6.090  0.5207 -0.0430 -0.4448
10081TIP3    H151734   0.531   5.911   6.004  1.1556  0.4013 -0.5422
10081TIP3    H251735   0.575   5.789   6.082  1.1239  0.0779 -1.0250
10082TIP3   OH251736   3.823   6.307  12.510 -0.9142  0.2292  0.5629
10082TIP3    H151737   3.791   6.291  12.598 -1.8765  2.9361  0.8046
10082TIP3    H251738   3.744   6.322  12.458 -0.2866  2.2944  0.1067
10083TIP3   OH251739   0.201   4.233  12.127  0.0224  0.0285 -0.2061
10083TIP3    H151740   0.238   4.176  12.060 -1.0314 -1.9578  0.7979
10083TIP3    H251741   0.148   4.174  12.182  0.1047  1.7244  1.8126
10084TIP3   OH251742   4.273   5.841   3.461  0.1011  0.2408 -0.1981
10084TIP3    H151743   4.365   5.819   3.477 -0.2434 -1.4639 -0.4230
10084TIP3    H251744   4.253   5.909   3.525  0.1115 -2.8706  3.4149
10085TIP3   OH251745   1.614   0.509  13.722 -0.3442  0.2568 -0.3457
10085TIP3    H151746   1.632   0.557  13.803  0.7515  1.2630 -1.1437
10085TIP3    H251747   1.523   0.529  13.701 -0.8066 -0.4485  0.9008
10086TIP3   OH251748   6.639   0.268   3.221 -0.7991 -0.3719 -0.1355
10086TIP3    H151749   6.708   0.249   3.156 -0.0029  0.5866  0.3944
10086TIP3    H251750   6.586   0.336   3.180 -0.0057  0.5858  0.3835
10087TIP3   OH251751   1.386   6.758   1.446 -0.1916  0.3769 -0.1139
10087TIP3    H151752   1.346   6.706   1.516 -1.8470 -0.9587 -1.9606
10087TIP3    H251753   1.362   6.848   1.467  0.3694  0.1513  1.6584
10088TIP3   OH251754   0.599   4.478   2.116  0.3411  0.0305 -0.9458
10088TIP3    H151755   0.641   4.480   2.030  0.3233  1.7334 -0.9517
10088TIP3    H251756   0.547   4.398   2.116 -0.0504  0.2540 -2.7235
10089TIP3   OH251757   0.237   4.903   1.883  0.4124 -0.1083  0.3554
10089TIP3    H151758   0.269   4.866   1.800 -0.3072 -1.3743  0.6198
10089TIP3    H251759   0.148   4.868   1.891 -0.1984  1.4852  0.7658
10090TIP3   OH251760   3.712   1.981   4.982  0.2140 -0.3758  0.0143
10090TIP3    H151761   3.710   1.887   4.965 -2.4888 -0.5060  0.5686
10090TIP3    H251762   3.694   2.021   4.897  2.1695 -0.2855 -0.3856
10091TIP3   OH251763   0.239   2.706  10.969  0.1218  0.4452  0.2223
10091TIP3    H151764   0.300   2.780  10.963  0.4399  0.1861  0.2089
10091TIP3    H251765   0.271   2.644  10.904 -2.7828  2.1370 -3.1331
10092TIP3   OH251766   2.516   0.011  14.228  0.3559  0.4400  0.5195
10092TIP3    H151767   2.531  -0.065  14.285  1.5119  0.5005  0.3171
10092TIP3    H251768   2.467   0.073  14.283 -1.1668 -0.6727  0.4929
10093TIP3   OH251769   2.941   3.012  15.230  0.1188  0.0558 -0.5211
10093TIP3    H151770   3.008   3.033  15.165  2.2881  0.1464  1.6041
10093TIP3    H251771   2.886   3.090  15.234  0.8195  0.5986 -1.2360
10094TIP3   OH251772   4.696   4.776  15.354 -0.2103 -0.2203 -0.1321
10094TIP3    H151773   4.638   4.763  15.428  0.4085  0.5270  0.4984
10094TIP3    H251774   4.674   4.863  15.321  0.4309  0.0063  0.0184
10095TIP3   OH251775   1.589   3.040  13.474 -0.1596 -0.0103  0.3711
10095TIP3    H151776   1.532   3.114  13.492  0.5253  0.8104 -0.7019
10095TIP3    H251777   1.601   3.041  13.379 -0.3199 -1.6451  0.3078
10096TIP3   OH251778   0.775   2.599   0.938  0.6997  0.1710 -0.1066
10096TIP3    H151779   0.862   2.567   0.914  0.3037  0.4467 -2.0149
10096TIP3    H251780   0.717   2.525   0.922  0.3802  0.4614 -0.2984
10097TIP3   OH251781   3.154   4.501  16.102 -0.3426  0.1287 -0.1847
10097TIP3    H151782   3.078   4.466  16.148 -0.0168 -1.8596 -1.0839
10097TIP3    H251783   3.202   4.424  16.071  2.2385  1.2941  0.6157
10098TIP3   OH251784   3.035   2.523  12.069 -0.3288  0.1412  0.2933
10098TIP3    H151785   2.991   2.571  12.140  0.1583  1.4687 -0.2765
10098TIP3    H251786   3.110   2.482  12.111  0.0623  1.0706  0.5225
10099TIP3   OH251787   4.325   3.392  15.437  0.8603  0.4727  0.2319
10099TIP3    H151788   4.338   3.423  15.526  3.1434 -1.9647  0.8532
10099TIP3    H251789   4.237   3.423  15.413 -0.4966 -0.1478  3.8715
10100TIP3   OH251790   3.878   0.381  12.377  0.4901 -0.3834 -0.2615
10100TIP3    H151791   3.958   0.400  12.426  0.9755 -1.1951 -0.7167
10100TIP3    H251792   3.895   0.415  12.289 -0.0452  0.2996 -0.1099
10101TIP3   OH251793   5.587   6.393   4.454 -0.0717  0.4342 -0.2692
10101TIP3    H151794   5.619   6.411   4.366  0.2501 -0.4497 -0.3419
10101TIP3    H251795   5.506   6.343   4.440  0.7054 -0.9196 -0.0708
10102TIP3   OH251796   0.706   0.805  15.421 -0.2591  0.7041 -0.2916
10102TIP3    H151797   0.740   0.766  15.340  0.4127  0.9170 -0.1239
10102TIP3    H251798   0.625   0.848  15.395 -0.0517  0.7710 -0.8533
10103TIP3   OH251799   3.908   0.769   0.221 -0.1070  0.1840 -0.0489
10103TIP3    H151800   3.897   0.674   0.227  0.0312  0.1065 -0.8405
10103TIP3    H251801   3.975   0.781   0.153 -0.1982  0.8475 -0.0281
10104TIP3   OH251802   2.921   3.423  13.090  0.2217 -0.0940  0.7010
10104TIP3    H151803   2.903   3.513  13.063 -0.4845 -0.1881  0.8270
10104TIP3    H251804   3.011   3.406  13.062 -0.9446 -0.7872 -3.1826
10105TIP3   OH251805   5.542   4.980   1.466  0.4091  0.1222 -0.6097
10105TIP3    H151806   5.522   5.070   1.492 -0.9269 -0.5811  1.0516
10105TIP3    H251807   5.538   4.931   1.548  0.2886 -1.5760 -1.5993
10106TIP3   OH251808   2.250   0.859   4.187  0.7449  0.4772 -0.4196
10106TIP3    H151809   2.274   0.900   4.104 -0.2695 -0.0185 -0.9827
10106TIP3    H251810   2.169   0.902   4.213  0.6186  0.0611 -0.1069
10107TIP3   OH251811   1.413   1.197  14.344  0.0468 -0.2680  0.2544
10107TIP3    H151812   1.415   1.111  14.301 -0.6635  0.1986 -0.7858
10107TIP3    H251813   1.389   1.179  14.434  1.6395 -1.2979  0.4989
10108TIP3   OH251814   2.442   0.947   3.428  0.0151  0.1252  0.6567
10108TIP3    H151815   2.525   0.900   3.433 -0.1830 -0.4236 -0.8415
10108TIP3    H251816   2.459   1.022   3.372  0.5618  2.4917  3.7112
10109TIP3   OH251817   2.642   2.800   4.716  0.4574 -0.2724  0.3601
10109TIP3    H151818   2.686   2.717   4.728  0.7017 -0.0343  1.1646
10109TIP3    H251819   2.711   2.862   4.692  0.2774 -0.2907 -0.2417
10110TIP3   OH251820   6.239   2.030  14.589  0.2469  0.2569  0.4899
10110TIP3    H151821   6.184   1.957  14.562  0.7687 -0.1295  0.4543
10110TIP3    H251822   6.288   1.997  14.664  0.4290  0.5952  0.5242
10111TIP3   OH251823   4.420   6.815   4.455 -0.0557  0.5159 -0.4566
10111TIP3    H151824   4.461   6.846   4.536 -2.1135 -1.5793  1.5501
10111TIP3    H251825   4.379   6.892   4.417 -0.1253  1.3278  1.2162
10112TIP3   OH251826   0.914   3.717  14.141  0.6118 -0.0188  0.4114
10112TIP3    H151827   0.967   3.788  14.180  3.3687 -1.5903 -0.1853
10112TIP3    H251828   0.964   3.638  14.159 -2.0564 -1.8013  0.4811
10113TIP3   OH251829   4.214   3.954   3.564  0.4216 -0.4101 -0.0527
10113TIP3    H151830   4.206   4.048   3.551 -0.1802 -0.5261 -0.5658
10113TIP3    H251831   4.300   3.943   3.604  0.7215  0.3077 -0.4760
10114TIP3   OH251832   0.214   5.731   3.767 -0.0588  0.3774  0.2156
10114TIP3    H151833   0.207   5.693   3.854 -0.3949  0.2431  0.1290
10114TIP3    H251834   0.308   5.733   3.749 -0.0699 -0.9761 -0.0374
10115TIP3   OH251835   4.810   4.670  16.337 -0.4301 -0.1717  0.3713
10115TIP3    H151836   4.782   4.758  16.364 -0.9217 -0.5055  0.9818
10115TIP3    H251837   4.754   4.648  16.263 -1.2864 -0.5300  1.1095
10116TIP3   OH251838   0.680   0.831   2.898 -0.1060  0.1148  0.0095
10116TIP3    H151839   0.759   0.788   2.864 -0.1459 -1.6310  1.9069
10116TIP3    H251840   0.618   0.829   2.825  0.5170 -1.5132 -0.5287
10117TIP3   OH251841   3.306   0.118   3.441  0.4452 -0.5016  0.5596
10117TIP3    H151842   3.281   0.057   3.371 -0.9574 -0.5432  1.0649
10117TIP3    H251843   3.387   0.158   3.409  1.0906 -2.1783 -0.0524
10118TIP3   OH251844   6.504   6.819  11.590 -0.0591 -0.3926  0.5070
10118TIP3    H151845   6.510   6.825  11.495 -0.2806 -1.2958  0.4249
10118TIP3    H251846   6.414   6.842  11.610 -0.1714 -0.7615  0.4387
10119TIP3   OH251847   6.528   4.233   6.069 -0.0898  0.1314 -0.2364
10119TIP3    H151848   6.588   4.265   6.001 -0.0898 -0.8924 -0.7541
10119TIP3    H251849   6.474   4.308   6.091  1.7739  1.2637  0.6990
10120TIP3   OH251850   2.443   0.767  12.157  0.0326 -0.0766  0.1281
10120TIP3    H151851   2.423   0.861  12.149 -0.9391 -0.3526 -1.0382
10120TIP3    H251852   2.535   0.760  12.133 -0.2331  0.4358 -1.1229
10121TIP3   OH251853   1.061   5.639  11.776  0.3931  0.3563  0.0368
10121TIP3    H151854   1.059   5.702  11.704  1.9205  0.6509  0.2160
10121TIP3    H251855   1.082   5.693  11.853  2.2548 -0.3941  0.1120
10122TIP3   OH251856   2.606   0.997  16.056  0.5680  0.1938  0.1425
10122TIP3    H151857   2.530   1.054  16.052 -0.6028 -1.3701 -1.4603
10122TIP3    H251858   2.582   0.929  16.119  1.9457  1.3587  2.0340
10123TIP3   OH251859   6.503   4.096  16.449  0.0294 -0.0761 -0.1715
10123TIP3    H151860   6.561   4.170  16.464  0.0677 -0.2216  0.4092
10123TIP3    H251861   6.562   4.025  16.423 -0.1152  0.4247 -2.0637
10124TIP3   OH251862   1.516   2.499  14.037 -0.4465  0.0173  0.3117
10124TIP3    H151863   1.426   2.530  14.027 -0.9124 -1.6330 -1.2752
10124TIP3    H251864   1.566   2.551  13.975  0.1293  2.2659  2.5309
10125TIP3   OH251865   4.418   3.166  11.575  0.1904 -0.0887  0.3202
10125TIP3    H151866   4.323   3.173  11.573 -0.0013 -1.5655  2.0213
10125TIP3    H251867   4.447   3.251  11.610 -0.5207  0.2065  0.2119
10126TIP3   OH251868   5.160   3.911   6.243 -0.0901 -0.0001  0.0340
10126TIP3    H151869   5.215   3.904   6.165  0.6299  0.5549  0.4809
10126TIP3    H251870   5.076   3.873   6.217  0.6245 -1.2324 -0.5473
10127TIP3   OH251871   1.252   0.442   3.626 -0.2500  0.1367  0.1723
10127TIP3    H151872   1.310   0.479   3.693  0.4537 -1.9911  0.8445
10127TIP3    H251873   1.257   0.347   3.641 -2.2648 -0.2316 -1.1395
10128TIP3   OH251874   3.915   6.378  15.331 -0.1805  0.9184 -0.4491
10128TIP3    H151875   3.997   6.390  15.283  0.7568 -3.8698 -0.5329
10128TIP3    H251876   3.940   6.382  15.423 -0.1979  1.1542 -0.4550
10129TIP3   OH251877   5.108   2.889   2.410  0.3529 -0.3848 -0.3566
10129TIP3    H151878   5.139   2.828   2.477  0.1182 -1.2072 -0.9839
10129TIP3    H251879   5.144   2.974   2.436 -0.8686 -0.4084  1.5778
10130TIP3   OH251880   5.168   0.677  13.131 -0.5956  0.1386 -0.4622
10130TIP3    H151881   5.119   0.757  13.149 -0.1173  0.3163  0.0903
10130TIP3    H251882   5.170   0.671  13.035  1.0442  1.8686 -0.5992
10131TIP3   OH251883   3.587   1.481  12.232  0.2657  0.2110 -0.3552
10131TIP3    H151884   3.674   1.511  12.207  0.7486 -0.0871  0.8955
10131TIP3    H251885   3.581   1.393  12.194 -0.1453  0.8319 -1.8126
10132TIP3   OH251886   4.055   1.634   5.116 -0.3708 -0.1963  0.7153
10132TIP3    H151887   4.096   1.712   5.079 -0.5892 -0.4387 -0.0667
10132TIP3    H251888   4.083   1.632   5.207 -1.8443  1.8417  1.2829
10133TIP3   OH251889   4.548   3.816   4.945  0.7860  0.3254  0.0554
10133TIP3    H151890   4.536   3.744   5.006 -0.0975 -0.4393 -0.9734
10133TIP3    H251891   4.459   3.847   4.926  1.1735  2.0717  0.8939
10134TIP3   OH251892   0.134   5.614   2.385  0.6710 -0.4734  1.0190
10134TIP3    H151893   0.172   5.542   2.335 -2.8037 -0.5494 -1.9573
10134TIP3    H251894   0.057   5.576   2.428  0.1768  0.9293  1.4554
10135TIP3   OH251895   3.289   3.024   1.713  0.3356  0.1112  0.5146
10135TIP3    H151896   3.298   2.961   1.641 -2.4694 -0.2659  0.3819
10135TIP3    H251897   3.349   2.993   1.780  0.2826 -1.7396 -0.2329
10136TIP3   OH251898   6.187   2.359   1.921  0.1700 -0.6731  0.5713
10136TIP3    H151899   6.234   2.347   2.004  2.5472 -1.7865 -0.8277
10136TIP3    H251900   6.194   2.275   1.877 -1.6285 -0.2959 -0.5019
10137TIP3   OH251901   6.539   5.400  12.795 -0.3911  0.2388  0.0780
10137TIP3    H151902   6.546   5.428  12.703  1.5717  0.5935  0.3112
10137TIP3    H251903   6.462   5.446  12.828 -0.4237  1.0359 -1.0567
10138TIP3   OH251904   5.739   1.421  11.798  0.0263 -0.1120 -0.1237
10138TIP3    H151905   5.799   1.398  11.727  0.0324 -1.2011  0.2126
10138TIP3    H251906   5.654   1.387  11.769  0.0894 -0.8266  0.5138
10139TIP3   OH251907   0.399   4.850   1.664  0.5714  0.3853 -0.2455
10139TIP3    H151908   0.350   4.929   1.642  1.5006  1.2070  0.5419
10139TIP3    H251909   0.446   4.828   1.583  0.5673  0.8498 -0.3806
10140TIP3   OH251910   6.183   0.331  10.773  0.2396 -0.1085 -0.4091
10140TIP3    H151911   6.270   0.311  10.738  0.6925  2.5468 -0.9969
10140TIP3    H251912   6.183   0.292  10.861  1.7850 -0.6901 -0.6372
10141TIP3   OH251913   6.520   2.666   4.003 -0.0522  0.1549  0.7288
10141TIP3    H151914   6.428   2.674   3.979  0.1482 -0.6493 -0.3624
10141TIP3    H251915   6.518   2.644   4.097 -0.8855  1.9800  1.1917
10142TIP3   OH251916   3.664   0.091  13.665  0.6573 -0.7291  0.3166
10142TIP3    H151917   3.701   0.004  13.677 -1.2652 -1.4445  1.4697
10142TIP3    H251918   3.639   0.119  13.752  0.3292  0.5693 -0.1752
10143TIP3   OH251919   5.370   4.079   5.755  0.4863  0.0696  0.0965
10143TIP3    H151920   5.405   4.137   5.688 -0.6430 -1.1753 -1.6582
10143TIP3    H251921   5.279   4.109   5.767  0.4398 -0.2185  0.4846
10144TIP3   OH251922   0.397   1.754   1.728 -0.2904  0.0763 -0.3200
10144TIP3    H151923   0.429   1.840   1.700  0.5217 -0.3886 -0.8446
10144TIP3    H251924   0.303   1.757   1.708  0.0857  0.0858 -2.3811
10145TIP3   OH251925   3.010   3.787  13.341 -0.0330  0.0148 -0.0097
10145TIP3    H151926   3.101   3.787  13.310  0.1210  1.8369  0.3267
10145TIP3    H251927   2.958   3.807  13.263 -0.1614 -1.0274 -0.2016
10146TIP3   OH251928   4.534   1.782  15.831 -0.0439  0.1580  0.0255
10146TIP3    H151929   4.531   1.788  15.736  0.1795 -0.4263 -0.0196
10146TIP3    H251930   4.451   1.821  15.861  0.1818  0.9619 -0.3700
10147TIP3   OH251931   2.075   3.509   0.717 -0.0697 -0.6456 -0.2437
10147TIP3    H151932   2.100   3.595   0.686 -0.0613 -0.7492 -0.5262
10147TIP3    H251933   2.122   3.448   0.660  1.6767 -0.8561  1.3343
10148TIP3   OH251934   4.679   4.588  11.771  0.0829  0.4347 -0.6219
10148TIP3    H151935   4.740   4.639  11.825 -0.3606  1.6416 -1.2127
10148TIP3    H251936   4.736   4.537  11.713  0.7351  4.1657 -3.6613
10149TIP3   OH251937   0.189   5.024   5.699  0.2696  0.1368 -0.2284
10149TIP3    H151938   0.142   4.949   5.735 -0.2908 -0.5483 -2.2480
10149TIP3    H251939   0.219   5.073   5.775 -2.3464 -0.2560  1.1572
10150TIP3   OH251940   2.717   6.350  16.332 -0.3835 -0.5720 -0.1973
10150TIP3    H151941   2.783   6.347  16.401 -0.8806 -2.0632  0.2484
10150TIP3    H251942   2.730   6.435  16.290  2.0833 -0.9858 -0.4058
10151TIP3   OH251943   1.958   4.350   3.234  0.3148  0.4666 -0.0887
10151TIP3    H151944   2.028   4.299   3.194  0.1382  0.1828 -0.0362
10151TIP3    H251945   1.894   4.285   3.263  1.2357  0.4979  2.2564
10152TIP3   OH251946   4.306   2.711  14.800  0.0810  0.2764  0.1795
10152TIP3    H151947   4.239   2.679  14.740  2.1683 -0.6767 -1.7603
10152TIP3    H251948   4.264   2.786  14.844 -2.1854 -0.2066 -1.0047
10153TIP3   OH251949   1.275   5.198   5.168 -0.3862 -0.4875  0.2780
10153TIP3    H151950   1.343   5.149   5.214  1.9835  0.5796 -1.8522
10153TIP3    H251951   1.315   5.281   5.145 -2.5759  0.3933 -0.6926
10154TIP3   OH251952   4.885   2.840  13.143 -0.4948  0.2438 -0.2670
10154TIP3    H151953   4.865   2.907  13.208  0.5898  0.0600  0.2947
10154TIP3    H251954   4.931   2.887  13.073 -0.4273  0.2196 -0.2391
10155TIP3   OH251955   5.905   0.056  11.923 -0.1449 -0.9107 -0.8350
10155TIP3    H151956   5.873   0.004  11.850  0.1508 -0.4935 -1.2669
10155TIP3    H251957   5.995   0.077  11.900  0.4267 -1.9608  0.2974
10156TIP3   OH251958   1.934   3.900   5.969 -0.2076 -0.1943  0.0300
10156TIP3    H151959   2.009   3.895   6.029  0.0865 -2.5941 -0.4591
10156TIP3    H251960   1.865   3.942   6.021  1.4107  2.0936  0.4876
10157TIP3   OH251961   4.936   6.344   0.712 -0.7842 -0.5453  0.8706
10157TIP3    H151962   5.001   6.333   0.781 -0.1173 -0.5141  0.2569
10157TIP3    H251963   4.892   6.426   0.735  1.0101  0.7186  0.0254
10158TIP3   OH251964   4.564   1.665   4.616 -0.4998  0.3332  0.4090
10158TIP3    H151965   4.490   1.698   4.668  0.5189 -1.1704  2.9888
10158TIP3    H251966   4.610   1.744   4.588 -2.2711  1.2559 -0.0716
10159TIP3   OH251967   0.695   4.842  13.622  0.2324  0.6533 -0.3186
10159TIP3    H151968   0.751   4.801  13.688 -0.0583  2.0526  0.8633
10159TIP3    H251969   0.726   4.807  13.539 -0.6187 -2.6821  0.6053
10160TIP3   OH251970   4.426   4.501   4.035  0.2343 -0.4658  0.3687
10160TIP3    H151971   4.373   4.445   4.092  0.5925 -0.1946  0.9806
10160TIP3    H251972   4.471   4.560   4.095  0.8520 -0.3671 -0.1812
10161TIP3   OH251973   6.125   0.317   0.625 -0.1241 -0.0469  0.0125
10161TIP3    H151974   6.040   0.276   0.641 -0.1983  0.0974 -0.0090
10161TIP3    H251975   6.145   0.297   0.534  0.3642 -0.9885  0.3113
10162TIP3   OH251976   1.973   0.687   5.628 -0.2223 -0.4194  0.0858
10162TIP3    H151977   1.914   0.679   5.553  0.5430 -3.4093 -0.2871
10162TIP3    H251978   2.060   0.700   5.590 -0.0039 -0.6567  0.4889
10163TIP3   OH251979   5.107   3.440   2.853 -0.7793 -0.3084  0.2344
10163TIP3    H151980   5.168   3.367   2.849 -2.1386 -1.4541 -0.7511
10163TIP3    H251981   5.059   3.435   2.770  0.1299  2.6814 -0.6080
10164TIP3   OH251982   5.233   5.179  14.652 -0.3637 -0.5453  0.5046
10164TIP3    H151983   5.241   5.105  14.712  1.2529 -2.0579 -1.4244
10164TIP3    H251984   5.310   5.233  14.670  0.2657 -1.1406 -0.3419
10165TIP3   OH251985   3.962   5.632  13.780 -0.7650  0.4072 -0.2455
10165TIP3    H151986   3.967   5.726  13.797 -1.3261  0.4303 -0.1746
10165TIP3    H251987   4.042   5.611  13.734 -0.4990  0.8685  0.0030
10166TIP3   OH251988   0.128   5.314  12.204  0.5624  0.0687 -0.4171
10166TIP3    H151989   0.194   5.273  12.260 -0.7577  0.0313  1.1826
10166TIP3    H251990   0.110   5.249  12.136  1.6189 -0.2101 -0.4561
10167TIP3   OH251991   1.028   6.540   5.903 -0.2902 -0.2886  0.2995
10167TIP3    H151992   1.009   6.492   5.823  0.6592 -1.7914  0.9172
10167TIP3    H251993   1.117   6.513   5.927 -0.0876  1.0563  1.2145
10168TIP3   OH251994   0.478   5.847  16.662  0.4537 -0.2313 -0.3503
10168TIP3    H151995   0.492   5.888  16.747  1.1706 -1.2077  0.0261
10168TIP3    H251996   0.430   5.766  16.682 -1.0759  0.4435 -1.0881
10169TIP3   OH251997   1.778   1.536  13.657 -0.1373 -0.3066 -0.2214
10169TIP3    H151998   1.717   1.562  13.589  1.5157 -0.8036 -1.9992
10169TIP3    H251999   1.837   1.611  13.666  0.1225 -0.5447  0.0871
10170TIP3   OH252000   3.969   6.059   4.705  0.9939 -0.5715 -0.3752
10170TIP3    H152001   3.909   6.062   4.779 -0.8984  1.1262 -1.8566
10170TIP3    H252002   4.056   6.048   4.744  0.0599  0.1981  2.0682
10171TIP3   OH252003   0.501   4.828  12.893 -0.2327 -0.6050 -0.1676
10171TIP3    H152004   0.451   4.748  12.882  0.4365 -1.0156 -0.2732
10171TIP3    H252005   0.496   4.871  12.807  0.1435 -0.9690 -0.3753
10172TIP3   OH252006   2.341   6.544   5.916  0.3604 -0.0801 -0.0001
10172TIP3    H152007   2.336   6.461   5.964 -1.2920  0.2121  0.4135
10172TIP3    H252008   2.433   6.553   5.893  0.3697 -3.0393 -1.7881
10173TIP3   OH252009   1.365   4.894   3.892  0.6573 -0.7728 -0.0682
10173TIP3    H152010   1.388   4.983   3.864  0.0100 -1.0252 -1.4801
10173TIP3    H252011   1.444   4.842   3.874  1.1866 -0.4287  1.1578
10174TIP3   OH252012   1.186   2.065   2.668 -0.2755 -0.0675 -0.5546
10174TIP3    H152013   1.182   2.157   2.696  1.3498 -0.3740  0.8574
10174TIP3    H252014   1.161   2.015   2.745  0.4657 -0.8427 -0.8007
10175TIP3   OH252015   0.259   0.683  11.852 -0.0471 -0.1197  0.2678
10175TIP3    H152016   0.214   0.601  11.830  1.3989 -0.9605  0.3765
10175TIP3    H252017   0.332   0.657  11.908 -1.2764  1.5590  2.8651
10176TIP3   OH252018   1.956   0.514   3.160 -0.0882 -0.4568 -0.2415
10176TIP3    H152019   1.991   0.505   3.072 -0.9057  0.3510 -0.6553
10176TIP3    H252020   1.957   0.608   3.178  3.3398 -0.7207  1.9861
10177TIP3   OH252021   5.769   4.865   3.114 -0.3714 -0.4610 -0.0251
10177TIP3    H152022   5.765   4.921   3.191  0.5402 -1.8117  1.0475
10177TIP3    H252023   5.688   4.883   3.067 -0.5846  0.9556  0.8228
10178TIP3   OH252024   5.426   4.964   5.859  0.4224  0.5961 -0.1585
10178TIP3    H152025   5.494   4.995   5.918  1.0555  0.5447 -0.8475
10178TIP3    H252026   5.438   4.869   5.856  0.8200  0.6600 -0.8691
10179TIP3   OH252027   4.708   1.845   1.409 -0.0938  0.0212 -0.2134
10179TIP3    H152028   4.793   1.853   1.452  0.4888 -1.0941 -1.1324
10179TIP3    H252029   4.728   1.838   1.316 -1.2272  0.2676 -0.4893
10180TIP3   OH252030   0.650   6.450  15.103 -0.1805  0.2298  0.9372
10180TIP3    H152031   0.636   6.365  15.060 -0.6783 -0.1873  1.8943
10180TIP3    H252032   0.563   6.489  15.108 -0.1841  0.1187  1.8638
10181TIP3   OH252033   4.759   5.457  14.487 -0.0158  0.5029 -0.7212
10181TIP3    H152034   4.674   5.501  14.492 -0.4151 -0.1869 -1.3185
10181TIP3    H252035   4.820   5.519  14.528 -0.8245  0.9380 -0.1306
10182TIP3   OH252036   1.114   2.744  12.174  0.0445 -0.0175  0.0385
10182TIP3    H152037   1.068   2.722  12.255 -0.8625 -3.7332 -1.2771
10182TIP3    H252038   1.203   2.712  12.186  0.2239  0.4232 -0.0769
10183TIP3   OH252039   0.684   2.413   1.876  0.0565  0.4603  0.1581
10183TIP3    H152040   0.736   2.377   1.804  1.3548  0.7328  0.9393
10183TIP3    H252041   0.700   2.353   1.949 -1.4020  0.0742  0.1950
10184TIP3   OH252042   5.451   1.394   5.563  0.4752  0.3500 -1.0434
10184TIP3    H152043   5.385   1.426   5.625 -1.2862 -0.2302 -2.5387
10184TIP3    H252044   5.467   1.469   5.505  0.2313  0.1204 -1.4078
10185TIP3   OH252045   1.698   2.841   0.038  0.3272 -0.1195 -0.0689
10185TIP3    H152046   1.767   2.809   0.095 -0.6596  0.7558  1.7228
10185TIP3    H252047   1.733   2.920  -0.001  0.5558  0.0059  0.3846
10186TIP3   OH252048   2.029   0.446  14.432  0.1611 -0.2383  0.1386
10186TIP3    H152049   2.093   0.390  14.474 -0.4160 -0.3408  0.9060
10186TIP3    H252050   1.980   0.387  14.374  1.6250  0.0897 -1.5293
10187TIP3   OH252051   1.794   5.240   0.831 -0.4716 -0.9471 -0.2307
10187TIP3    H152052   1.783   5.335   0.829  0.2319 -0.8596 -0.3467
10187TIP3    H252053   1.712   5.206   0.866 -0.5937 -0.2696  0.1467
10188TIP3   OH252054   5.602   5.492   4.402 -0.1418 -0.0069  0.1624
10188TIP3    H152055   5.672   5.439   4.364 -0.3303 -0.9922  1.1284
10188TIP3    H252056   5.641   5.534   4.478 -0.1465  0.8380 -0.2873
10189TIP3   OH252057   3.180   6.384  16.454  0.4228  0.0516  0.1472
10189TIP3    H152058   3.119   6.313  16.433 -0.2777  0.9652 -1.0399
10189TIP3    H252059   3.165   6.402  16.547 -0.9692  0.1043 -0.0736
10190TIP3   OH252060   3.996   0.323   5.837  0.4112  0.4628 -0.3441
10190TIP3    H152061   3.942   0.396   5.808  2.2476  2.6144  1.3090
10190TIP3    H252062   4.065   0.317   5.771  0.1301  0.0423 -0.6042
10191TIP3   OH252063   4.677   5.838   4.301 -0.3348  0.3309 -0.1222
10191TIP3    H152064   4.585   5.850   4.278 -0.5523  0.6241  0.8398
10191TIP3    H252065   4.714   5.926   4.296  0.4287 -0.0759 -2.6017
10192TIP3   OH252066   3.481   6.462   4.680 -0.8573 -0.4294 -0.2007
10192TIP3    H152067   3.536   6.463   4.601 -1.2943 -1.5069 -0.5293
10192TIP3    H252068   3.544   6.468   4.752 -0.4322  0.2689 -0.6131
10193TIP3   OH252069   4.006   6.624  13.251  0.0509  0.0321  0.0299
10193TIP3    H152070   3.920   6.657  13.226 -0.5578 -1.7928 -0.4411
10193TIP3    H252071   3.989   6.567  13.326  0.6419 -1.3422 -0.8508
10194TIP3   OH252072   2.524   4.249   5.882  0.2017  0.2140 -0.1674
10194TIP3    H152073   2.562   4.278   5.965  0.0215 -0.4918  0.1668
10194TIP3    H252074   2.599   4.228   5.827  0.3436 -1.5304  0.6151
10195TIP3   OH252075   4.359   2.602   5.594  0.6730  0.5975 -0.3071
10195TIP3    H152076   4.446   2.567   5.613  0.0953 -0.5634  0.3218
10195TIP3    H252077   4.374   2.672   5.531  1.9714 -0.2235 -0.9422
10196TIP3   OH252078   1.534   5.398  14.310  0.3601 -0.2108 -0.2064
10196TIP3    H152079   1.566   5.308  14.301  2.5116  0.0559  3.1200
10196TIP3    H252080   1.599   5.451  14.265 -0.3301 -0.2111 -1.2300
10197TIP3   OH252081   5.554   4.804  10.301 -0.1448 -0.2555  0.5049
10197TIP3    H152082   5.509   4.824  10.383 -0.7883  0.4663 -0.0077
10197TIP3    H252083   5.483   4.780  10.241  0.1280  1.0464 -0.3696
10198TIP3   OH252084   6.335   0.905   5.918 -0.0647 -0.2218 -0.2260
10198TIP3    H152085   6.242   0.924   5.910 -0.1460 -1.0474 -1.5234
10198TIP3    H252086   6.338   0.820   5.963  0.1511  0.6913  1.5682
10199TIP3   OH252087   0.925   3.530  16.408  0.4104 -0.3055  0.0613
10199TIP3    H152088   0.950   3.442  16.378  0.0783 -0.7442  1.0477
10199TIP3    H252089   0.988   3.551  16.476  0.4560  0.2088 -0.1351
10200TIP3   OH252090   0.592   2.540   1.236 -0.2430 -0.1748 -0.0971
10200TIP3    H152091   0.604   2.463   1.292 -0.9831 -0.2169  0.0074
10200TIP3    H252092   0.550   2.507   1.158  1.1178 -0.1757 -0.8635
10201TIP3   OH252093   5.981   6.493  15.252 -0.3722  0.0011 -0.4587
10201TIP3    H152094   5.966   6.582  15.286 -0.3762  1.0099 -2.8939
10201TIP3    H252095   6.006   6.442  15.329  0.5423  2.3105  0.8906
10202TIP3   OH252096   5.251   2.545  16.465 -0.1460  0.7747 -0.7493
10202TIP3    H152097   5.183   2.550  16.531  0.8760  2.2621  0.2688
10202TIP3    H252098   5.253   2.632  16.425  0.7421  0.5791 -1.1726
10203TIP3   OH252099   4.062   1.937   5.017  0.5129 -0.0912 -0.7002
10203TIP3    H152100   4.011   1.938   5.098  0.6110 -0.5300 -0.6302
10203TIP3    H252101   4.000   1.964   4.949  0.4013  0.1728 -0.4943
10204TIP3   OH252102   4.273   2.433  13.081  0.8127 -0.1907 -0.1019
10204TIP3    H152103   4.292   2.379  13.159  0.4549 -1.2795 -0.7441
10204TIP3    H252104   4.181   2.454  13.089  1.3501  1.9418  1.0986
10205TIP3   OH252105   6.309   1.859   2.908  0.5683 -0.3389  0.4337
10205TIP3    H152106   6.344   1.882   2.994 -0.0537 -1.1780  0.9271
10205TIP3    H252107   6.339   1.769   2.893  2.3884  0.4622 -1.1552
10206TIP3   OH252108   2.990   5.881   4.642  0.1065 -0.1167  0.7370
10206TIP3    H152109   2.902   5.861   4.611  0.0386  0.6120  0.4359
10206TIP3    H252110   2.996   5.836   4.727  0.2182 -1.9353 -0.1884
10207TIP3   OH252111   6.835   1.968  15.105  0.1470  0.5292  0.9551
10207TIP3    H152112   6.818   1.917  15.026 -0.0236 -1.2276  2.0673
10207TIP3    H252113   6.927   1.952  15.124  0.2564  1.1595  0.9950
10208TIP3   OH252114   2.313   1.780   1.093 -0.1827 -0.5664  0.2561
10208TIP3    H152115   2.368   1.851   1.060 -1.3062 -0.1680 -0.8408
10208TIP3    H252116   2.344   1.765   1.182  1.2389  0.0958 -0.0956
10209TIP3   OH252117   6.067   4.543  13.020  0.5454 -0.1682 -0.1744
10209TIP3    H152118   5.978   4.560  12.989  0.7574  0.2996 -0.5347
10209TIP3    H252119   6.059   4.466  13.075  0.2360 -1.2820 -1.7254
10210TIP3   OH252120   3.595   1.180  17.132 -0.7445  0.1448 -0.6014
10210TIP3    H152121   3.583   1.261  17.180 -0.2727 -0.2712  0.2382
10210TIP3    H252122   3.670   1.138  17.174  0.3192  0.2186 -2.3030
10211TIP3   OH252123   5.800   0.681   2.234  0.4498 -0.6678 -0.1272
10211TIP3    H152124   5.805   0.702   2.141  0.4901 -0.3383 -0.0517
10211TIP3    H252125   5.715   0.715   2.262  0.3636 -0.9177 -0.0806
10212TIP3   OH252126   6.482   4.042   0.412  0.0735 -0.2195 -0.1811
10212TIP3    H152127   6.518   4.002   0.333  1.2919  1.7732 -0.7110
10212TIP3    H252128   6.454   4.129   0.383 -1.0826 -0.0946  1.2305
10213TIP3   OH252129   2.219   6.238  13.246 -0.4088 -0.2170  0.5352
10213TIP3    H152130   2.220   6.205  13.336  1.3374 -2.1410 -0.1139
10213TIP3    H252131   2.310   6.260  13.227 -0.7551  0.2317 -0.7423
10214TIP3   OH252132   5.442   2.835  11.736 -0.6941  0.2460  0.1889
10214TIP3    H152133   5.474   2.824  11.825 -0.4536  0.3364  0.1129
10214TIP3    H252134   5.374   2.902  11.743  0.0138  0.9840  0.1482
10215TIP3   OH252135   1.918   1.303   5.485  0.1129 -0.2020  0.2205
10215TIP3    H152136   1.942   1.217   5.450  2.0633  0.2458  0.3235
10215TIP3    H252137   1.856   1.284   5.555  0.2680 -1.5065  0.0290
10216TIP3   OH252138   4.873   4.881  13.609 -0.2351 -0.0588  0.3599
10216TIP3    H152139   4.943   4.937  13.575 -0.7754  0.4456  0.0720
10216TIP3    H252140   4.795   4.935  13.605 -0.9370 -1.0903 -0.7036
10217TIP3   OH252141   4.806   1.913  11.079  0.4591 -0.3524 -0.1074
10217TIP3    H152142   4.760   1.947  11.156  1.5993 -0.7994  0.8121
10217TIP3    H252143   4.846   1.990  11.038 -2.9052  0.4430 -2.3123
10218TIP3   OH252144   3.061   4.469  14.856 -0.1504 -0.1822  0.7096
10218TIP3    H152145   2.996   4.440  14.921  0.5319 -1.1568  0.9830
10218TIP3    H252146   3.139   4.417  14.876 -0.0769 -0.8569 -1.1994
10219TIP3   OH252147   1.157   4.210  11.768  0.3583  0.4306 -0.3576
10219TIP3    H152148   1.104   4.129  11.766  0.8023  0.0823 -3.1601
10219TIP3    H252149   1.092   4.280  11.777 -0.4058 -0.1013 -1.4587
10220TIP3   OH252150   5.363   1.754   5.939 -0.6922 -0.6147 -0.3925
10220TIP3    H152151   5.400   1.775   5.853 -0.0203  0.5282  0.1480
10220TIP3    H252152   5.412   1.677   5.968  0.0318 -0.1963 -0.4722
10221TIP3   OH252153   1.835   0.948  14.888  0.2827 -0.1501 -0.1703
10221TIP3    H152154   1.895   1.018  14.916 -0.6007  0.3551  0.5307
10221TIP3    H252155   1.783   0.987  14.818 -0.7681  0.2007  0.7695
10222TIP3   OH252156   0.239   4.712  14.863  0.1380 -0.4740 -0.1933
10222TIP3    H152157   0.147   4.690  14.855 -0.0184 -0.5982  1.5788
10222TIP3    H252158   0.279   4.635  14.903  0.7451  0.0978  0.3233
10223TIP3   OH252159   0.994   2.806   2.544  0.3591 -0.0120  0.0174
10223TIP3    H152160   1.011   2.733   2.485 -1.3604  0.9125 -1.7579
10223TIP3    H252161   0.995   2.883   2.487 -0.7792  0.9934  1.2903
10224TIP3   OH252162   6.651   5.099   3.609  0.1858 -0.3538  0.5242
10224TIP3    H152163   6.636   5.018   3.561 -1.3479  0.2953 -0.1592
10224TIP3    H252164   6.741   5.092   3.641  0.3372 -1.9681 -0.1796
10225TIP3   OH252165   2.562   6.156   1.860 -0.0299  0.7194 -0.4990
10225TIP3    H152166   2.633   6.127   1.803 -1.3630  0.2603 -2.0073
10225TIP3    H252167   2.520   6.227   1.811 -1.4002  0.1017 -0.2800
10226TIP3   OH252168   0.774   0.917  11.615 -0.3741 -0.2069  0.2150
10226TIP3    H152169   0.716   0.854  11.656 -0.1371  0.1481  1.1365
10226TIP3    H252170   0.766   0.995  11.669 -0.1023  0.3098 -0.4734
10227TIP3   OH252171   1.979   2.605   5.536  0.0408 -0.2324 -0.7112
10227TIP3    H152172   1.969   2.510   5.536 -0.6521 -0.1700 -0.9263
10227TIP3    H252173   1.942   2.634   5.619  0.4198 -0.1644 -0.5645
10228TIP3   OH252174   1.157   1.809  16.054  0.3234 -0.0501  0.3823
10228TIP3    H152175   1.216   1.884  16.045  1.3628 -0.9171 -0.2005
10228TIP3    H252176   1.090   1.823  15.986  2.0782 -1.0297 -1.6697
10229TIP3   OH252177   4.484   2.141  13.158  0.1444  0.1707  0.3004
10229TIP3    H152178   4.451   2.197  13.228  0.4381  0.2977  0.3413
10229TIP3    H252179   4.407   2.118  13.106 -0.0183  0.3805  0.4502
10230TIP3   OH252180   0.245   5.430   7.018 -0.4252 -0.0803  0.1134
10230TIP3    H152181   0.232   5.335   7.012 -0.9768 -0.0187  0.2940
10230TIP3    H252182   0.157   5.466   7.027 -0.1010  0.1617  3.8151
10231TIP3   OH252183   5.222   2.300  14.460  0.5415 -0.6017  0.0591
10231TIP3    H152184   5.152   2.273  14.520 -2.0631  2.5544 -1.2652
10231TIP3    H252185   5.257   2.380  14.500 -1.4188  1.7176 -2.5025
10232TIP3   OH252186   2.427   3.853   1.659  0.0086 -0.3066  0.2203
10232TIP3    H152187   2.405   3.833   1.568  0.4701 -0.6255  0.1752
10232TIP3    H252188   2.522   3.854   1.662  0.0016 -0.3902  0.7172
10233TIP3   OH252189   3.121   3.290   3.617  0.4044 -0.3866 -0.4061
10233TIP3    H152190   3.115   3.385   3.630 -1.3003 -0.7057  1.8498
10233TIP3    H252191   3.129   3.279   3.522 -0.0467  1.9973 -0.7871
10234TIP3   OH252192   3.317   0.525  11.700 -0.9230  0.5451  0.0085
10234TIP3    H152193   3.322   0.457  11.634  0.0652  1.1089 -0.5221
10234TIP3    H252194   3.303   0.606  11.650  0.5896  1.0833  0.4010
10235TIP3   OH252195   0.420   3.128   1.743 -0.2339 -0.1037 -0.2697
10235TIP3    H152196   0.417   3.162   1.832  0.6389  0.8859 -0.6010
10235TIP3    H252197   0.513   3.128   1.720 -0.3825 -0.9604 -0.9573
10236TIP3   OH252198   5.624   2.044  13.581  0.4767 -0.0494  0.0189
10236TIP3    H152199   5.552   1.983  13.593  0.4648  0.1570  1.1546
10236TIP3    H252200   5.633   2.054  13.486 -0.5062 -0.6306 -0.1417
10237TIP3   OH252201   3.316   2.920  16.378  0.1122 -0.0689  0.0476
10237TIP3    H152202   3.377   2.993  16.368  0.1109  0.1598  1.5086
10237TIP3    H252203   3.365   2.844  16.347 -0.4219  0.7035 -3.0226
10238TIP3   OH252204   0.540   3.101  16.662  0.3318 -0.1268 -0.0097
10238TIP3    H152205   0.614   3.093  16.723 -1.2788 -1.6704  1.9280
10238TIP3    H252206   0.501   3.186  16.683  1.6953  0.8513 -1.2830
10239TIP3   OH252207   4.406   1.817   3.827  0.2266 -0.1924  0.4451
10239TIP3    H152208   4.317   1.791   3.803  0.2253  0.5433 -0.3948
10239TIP3    H252209   4.400   1.912   3.840  1.5111  0.4964 -2.9221
10240TIP3   OH252210   5.698   5.981  15.560 -0.4796 -0.0946  0.2250
10240TIP3    H152211   5.775   5.971  15.617 -1.3603  1.6747  1.8465
10240TIP3    H252212   5.730   5.958  15.473  1.5609 -0.6378  1.0439
10241TIP3   OH252213   5.288   1.243  15.980 -0.5870  0.4918  0.0638
10241TIP3    H152214   5.313   1.236  16.072  0.0448  2.5533  0.0922
10241TIP3    H252215   5.274   1.152  15.952  2.2887 -0.4655  1.3383
10242TIP3   OH252216   2.263   6.490   3.799 -0.0172  0.1294  0.0399
10242TIP3    H152217   2.209   6.484   3.720 -2.7703  1.3873  1.6717
10242TIP3    H252218   2.284   6.583   3.806  0.4939 -0.0251  0.6191
10243TIP3   OH252219   3.579   6.612  14.910 -0.8344  0.1270  0.3235
10243TIP3    H152220   3.567   6.524  14.945  0.8304 -0.0036  0.6928
10243TIP3    H252221   3.657   6.645  14.955  1.0417  0.2214 -2.6796
10244TIP3   OH252222   1.534   5.216  15.252  0.0033 -0.3223  0.0261
10244TIP3    H152223   1.537   5.121  15.260 -1.1090 -0.5089 -1.3224
10244TIP3    H252224   1.506   5.232  15.162 -0.2344  1.2789  0.3420
10245TIP3   OH252225   0.102   1.194   4.369  0.5484 -0.6346  0.6442
10245TIP3    H152226   0.031   1.204   4.433  1.6471  0.4610  1.7319
10245TIP3    H252227   0.099   1.274   4.317  0.8113 -0.7174  0.4993
10246TIP3   OH252228   3.541   1.182   3.013 -0.7453 -0.4200 -0.1978
10246TIP3    H152229   3.450   1.171   2.983 -0.0365 -2.0605 -1.9358
10246TIP3    H252230   3.593   1.177   2.933  1.0860 -2.3431  1.0204
10247TIP3   OH252231   0.648   5.828   3.254  0.0875 -0.9758 -0.1067
10247TIP3    H152232   0.634   5.734   3.259 -0.9274 -0.7665  1.8427
10247TIP3    H252233   0.706   5.847   3.327  0.3182 -0.0702 -0.5086
10248TIP3   OH252234   0.079   5.310   5.376  0.7791  0.5913  0.2760
10248TIP3    H152235   0.171   5.330   5.357  1.3096 -0.8725  1.0973
10248TIP3    H252236   0.079   5.216   5.394 -0.9283  0.5376  0.0873
10249TIP3   OH252237   6.681   6.593   3.095  0.4321  0.0794 -0.3692
10249TIP3    H152238   6.657   6.556   3.180 -0.8471  2.2926  0.3360
10249TIP3    H252239   6.776   6.592   3.094  0.4511 -1.3328  0.4303
10250TIP3   OH252240   5.189   3.037   5.483 -0.1301 -0.0731  0.3570
10250TIP3    H152241   5.213   3.081   5.564  2.7676 -0.1268 -0.3690
10250TIP3    H252242   5.241   2.957   5.482 -1.0570 -0.7121 -0.9890
10251TIP3   OH252243   4.774   0.425  14.186 -0.0316  0.1311 -1.2113
10251TIP3    H152244   4.690   0.427  14.139 -1.4401  0.5639  1.1711
10251TIP3    H252245   4.773   0.342  14.233  0.6706  0.3491 -0.7942
10252TIP3   OH252246   6.263   2.387  10.420 -0.1849  0.0047  0.4491
10252TIP3    H152247   6.305   2.463  10.378 -1.3872  1.2516  1.4091
10252TIP3    H252248   6.320   2.367  10.494 -0.1974  0.3766  0.5625
10253TIP3   OH252249   2.966   5.430   4.398  0.3564 -0.2052  0.4693
10253TIP3    H152250   2.935   5.437   4.308 -1.0742 -1.1163  0.8614
10253TIP3    H252251   2.899   5.474   4.451  0.9248 -0.1203  1.1356
10254TIP3   OH252252   1.625   1.732   5.719  0.2853  0.0321 -0.4671
10254TIP3    H152253   1.542   1.684   5.724 -1.1984  2.1878 -2.0010
10254TIP3    H252254   1.603   1.819   5.753  2.4280  0.1725  0.7239
10255TIP3   OH252255   6.306   3.609   4.205 -0.2496  0.0707 -0.1505
10255TIP3    H152256   6.393   3.626   4.240 -1.6410  1.7339  2.9093
10255TIP3    H252257   6.286   3.686   4.152 -0.0161 -0.1949 -0.6407
10256TIP3   OH252258   1.566   5.730   0.492 -0.4609 -0.6060 -0.5129
10256TIP3    H152259   1.614   5.785   0.555  0.3186 -1.1644 -0.6059
10256TIP3    H252260   1.473   5.746   0.513 -0.2538  0.5769 -0.4054
10257TIP3   OH252261   1.110   6.792  15.828  0.1556 -0.3059 -0.0478
10257TIP3    H152262   1.049   6.866  15.840 -0.1096 -0.9253  4.0726
10257TIP3    H252263   1.184   6.829  15.780 -1.1661  1.8906 -0.5215
10258TIP3   OH252264   4.892   3.188   6.544  0.2850 -0.1353 -0.9900
10258TIP3    H152265   4.972   3.136   6.555 -0.4614 -1.0536  0.4388
10258TIP3    H252266   4.921   3.279   6.558  1.5286 -0.1363 -3.1023
10259TIP3   OH252267   6.059   4.409  14.831  0.1336  0.0846 -0.3744
10259TIP3    H152268   5.965   4.388  14.826 -0.2932  1.5484  0.6033
10259TIP3    H252269   6.093   4.388  14.745 -1.3788  0.6881 -1.1578
10260TIP3   OH252270   1.164   4.342  13.083 -0.2293 -0.0814  0.1352
10260TIP3    H152271   1.187   4.434  13.072 -0.5397 -0.0993 -0.7486
10260TIP3    H252272   1.236   4.295  13.040 -1.1000 -0.1788 -1.2922
10261TIP3   OH252273   0.812   4.435   5.287  0.1484  0.4402 -0.2665
10261TIP3    H152274   0.793   4.513   5.339 -1.7207 -0.0529 -0.1207
10261TIP3    H252275   0.820   4.467   5.198  0.6993  0.9536 -0.0408
10262TIP3   OH252276   2.265   1.083  10.548 -0.3499  0.6784  0.4529
10262TIP3    H152277   2.254   0.999  10.592  1.1514  0.0593 -0.2585
10262TIP3    H252278   2.339   1.124  10.594  0.2863  0.6600 -0.5270
10263TIP3   OH252279   1.632   5.762  12.184  0.5439 -0.2397  0.0026
10263TIP3    H152280   1.643   5.704  12.259  0.4868 -0.1430  0.0848
10263TIP3    H252281   1.554   5.730  12.139  0.0752  0.2420  0.4722
10264TIP3   OH252282   2.587   6.118  15.946  0.1845  0.4850  0.1247
10264TIP3    H152283   2.651   6.144  16.012 -1.8887  0.5099  2.2483
10264TIP3    H252284   2.518   6.072  15.995 -0.3725 -1.5840 -2.3406
10265TIP3   OH252285   0.017   5.462  15.570  0.1268 -0.4128 -0.3900
10265TIP3    H152286  -0.068   5.506  15.580  0.3717 -0.1614  0.7045
10265TIP3    H252287  -0.000   5.391  15.508 -0.9928 -0.6292  0.1352
10266TIP3   OH252288   5.188   4.731   2.352  0.1848 -0.3366  0.0797
10266TIP3    H152289   5.146   4.817   2.355  0.5561 -0.1092 -0.9146
10266TIP3    H252290   5.252   4.733   2.423 -0.5640 -0.2031  0.7618
10267TIP3   OH252291   5.220   1.182   2.805 -0.4441  0.4176 -0.6730
10267TIP3    H152292   5.167   1.222   2.874 -1.7286  0.1627 -1.4645
10267TIP3    H252293   5.306   1.171   2.844 -0.8844  1.1367  0.5707
10268TIP3   OH252294   3.353   2.575  13.895  0.5572  0.1432  0.0670
10268TIP3    H152295   3.377   2.650  13.841  0.3613  0.1205 -0.0509
10268TIP3    H252296   3.410   2.504  13.865  2.7400  0.9404  2.0275
10269TIP3   OH252297   5.635   4.282  15.808  0.2829  0.5154  0.7679
10269TIP3    H152298   5.682   4.287  15.725 -0.9474 -0.3969 -0.0150
10269TIP3    H252299   5.625   4.373  15.835  1.5255  0.7775  0.4047
10270TIP3   OH252300   6.798   1.848   3.149  0.1321 -0.1512 -0.1484
10270TIP3    H152301   6.764   1.933   3.123  1.7502  0.3253 -0.8022
10270TIP3    H252302   6.725   1.806   3.195 -0.9779  1.2102 -0.6115
10271TIP3   OH252303   0.349   6.036  14.048  0.1934 -0.6862  0.5209
10271TIP3    H152304   0.380   6.089  13.975  0.1087  0.6874  1.4566
10271TIP3    H252305   0.406   6.059  14.121 -1.4237  0.0541  1.6158
10272TIP3   OH252306   6.229   5.338  15.687  0.1493 -0.0695 -0.0839
10272TIP3    H152307   6.317   5.301  15.695 -0.7628 -2.4101 -0.0640
10272TIP3    H252308   6.241   5.431  15.704  2.6484 -0.2742 -0.2904
10273TIP3   OH252309   4.324   1.385   0.374  0.1881  0.4888 -0.5664
10273TIP3    H152310   4.262   1.452   0.402 -0.6530 -0.6629  0.4480
10273TIP3    H252311   4.410   1.420   0.397 -0.3542  0.4335  1.7655
10274TIP3   OH252312   4.814   5.443  10.635  0.2905  0.6077 -0.0972
10274TIP3    H152313   4.883   5.418  10.696  0.3137 -0.0980 -0.4102
10274TIP3    H252314   4.758   5.502  10.685 -0.3767 -0.9028  1.0070
10275TIP3   OH252315   2.332   5.644   5.937 -0.1345  0.0959 -0.3731
10275TIP3    H152316   2.294   5.651   5.849  0.1825  1.2165 -0.4467
10275TIP3    H252317   2.272   5.692   5.993 -0.8053 -1.3722  0.2066
10276TIP3   OH252318   5.823   4.494   0.509  0.1399 -0.8266  0.3171
10276TIP3    H152319   5.852   4.436   0.580  0.6856  1.2870  1.9484
10276TIP3    H252320   5.821   4.581   0.550  1.0716  0.5970 -2.4530
10277TIP3   OH252321   0.794   3.997   2.570 -0.1723 -0.2447 -0.0659
10277TIP3    H152322   0.755   4.013   2.484  0.7296 -0.0309 -0.4513
10277TIP3    H252323   0.799   4.083   2.611  2.3611  0.2091 -1.1266
10278TIP3   OH252324   4.698   4.946  11.105 -0.5390  0.0727 -0.7683
10278TIP3    H152325   4.655   4.867  11.074 -0.5078  0.6722 -2.4823
10278TIP3    H252326   4.628   5.011  11.113 -0.4967  0.0118  0.1464
10279TIP3   OH252327   0.496   3.577  15.396 -0.1863  0.2442  0.0446
10279TIP3    H152328   0.512   3.485  15.413 -2.2867 -0.0883  0.5494
10279TIP3    H252329   0.497   3.584  15.300 -0.1491 -0.3420 -0.0004
10280TIP3   OH252330   0.832   2.976  13.163 -0.3025 -0.1561  0.2830
10280TIP3    H152331   0.798   2.992  13.251 -0.1863  0.4717  0.2192
10280TIP3    H252332   0.805   3.054  13.113 -1.6073 -1.1308 -0.6004
10281TIP3   OH252333   6.250   1.105   4.596  1.0057 -0.5693  0.4906
10281TIP3    H152334   6.320   1.162   4.628  1.3455 -0.4229 -0.4601
10281TIP3    H252335   6.247   1.033   4.658  1.2687 -0.0350  1.1374
10282TIP3   OH252336   5.879   3.710  11.484  0.4576  0.2638  0.1172
10282TIP3    H152337   5.861   3.727  11.391  2.5754  0.7955 -0.2554
10282TIP3    H252338   5.892   3.616  11.489  0.4477  0.2474 -0.1571
10283TIP3   OH252339   6.368   3.009   4.043  0.3707 -0.2782 -0.7538
10283TIP3    H152340   6.313   3.085   4.028 -0.4992 -1.0825 -1.8432
10283TIP3    H252341   6.433   3.012   3.972  0.5576 -0.3547 -0.5886
10284TIP3   OH252342   4.915   4.993  11.847 -0.9478 -0.2340  0.1479
10284TIP3    H152343   5.001   5.028  11.869  0.3481 -0.5908 -3.6396
10284TIP3    H252344   4.867   5.068  11.812 -1.4578 -0.4581  0.3638
10285TIP3   OH252345   3.479   4.555   5.206 -0.2678  0.0321  0.2100
10285TIP3    H152346   3.448   4.621   5.269 -0.4278 -0.0595  0.2281
10285TIP3    H252347   3.413   4.487   5.209  0.2382 -0.4533  0.7033
10286TIP3   OH252348   3.876   4.634  14.475 -0.7786 -0.1746  0.4270
10286TIP3    H152349   3.840   4.713  14.514 -0.8779 -0.2696  0.5295
10286TIP3    H252350   3.877   4.653  14.381  1.8383  1.0258  0.6151
10287TIP3   OH252351   1.841   1.323   3.810 -0.6163 -0.4677  0.4926
10287TIP3    H152352   1.878   1.384   3.745 -1.5306  0.5716  0.9198
10287TIP3    H252353   1.910   1.258   3.823  0.6090  0.7722  0.4159
10288TIP3   OH252354   2.750   0.053   3.150 -0.3389  0.5375 -0.1584
10288TIP3    H152355   2.740  -0.002   3.228 -0.7402  0.1829 -0.4544
10288TIP3    H252356   2.673   0.110   3.152 -1.3544 -0.7089 -1.2639
10289TIP3   OH252357   4.193   2.105  11.907 -0.3324  0.2117 -0.1261
10289TIP3    H152358   4.235   2.058  11.835 -1.0171 -0.1552 -0.2961
10289TIP3    H252359   4.129   2.162  11.865 -0.3869  0.3656  0.1619
10290TIP3   OH252360   2.440   2.725   2.496  0.1723 -0.0883  0.0315
10290TIP3    H152361   2.510   2.665   2.520 -1.5195 -1.7223  1.2319
10290TIP3    H252362   2.380   2.672   2.444 -1.1089  0.6924  0.6518
10291TIP3   OH252363   4.096   6.557  15.852  0.3322 -0.5231  0.1149
10291TIP3    H152364   4.032   6.495  15.888 -1.3605  1.3806  0.5883
10291TIP3    H252365   4.155   6.576  15.924 -0.6596  0.2558  0.7543
10292TIP3   OH252366   3.899   0.893  15.870 -0.2324 -0.2216 -0.0342
10292TIP3    H152367   3.921   0.803  15.849 -0.3077 -0.3140  0.2827
10292TIP3    H252368   3.803   0.896  15.866 -0.1875  0.1062 -1.1103
10293TIP3   OH252369   1.384   5.918   3.860  0.0839 -0.3327  0.1074
10293TIP3    H152370   1.322   5.905   3.788 -0.7755 -0.6523  0.8715
10293TIP3    H252371   1.364   5.847   3.921 -0.2537  0.7827  1.3494
10294TIP3   OH252372   0.154   3.249   3.552 -0.4510 -0.3019 -0.0030
10294TIP3    H152373   0.121   3.325   3.600 -0.1219 -1.0810  1.5254
10294TIP3    H252374   0.210   3.203   3.615  0.3509 -1.1445 -1.2816
10295TIP3   OH252375   5.238   6.625   4.487 -0.2050 -0.5705 -1.0732
10295TIP3    H152376   5.258   6.624   4.581 -1.0686  0.0792 -0.8697
10295TIP3    H252377   5.296   6.692   4.450 -1.5313  0.9164 -0.5775
10296TIP3   OH252378   3.981   5.645  16.025 -0.1998 -0.8181  0.0319
10296TIP3    H152379   3.925   5.720  16.003  2.0246  1.2951  1.1643
10296TIP3    H252380   3.941   5.608  16.104 -0.6753 -0.0711  0.1539
10297TIP3   OH252381   0.441   1.933   0.883 -0.1770  0.7497 -0.1727
10297TIP3    H152382   0.532   1.961   0.868  0.9352 -2.2935  0.2708
10297TIP3    H252383   0.419   1.969   0.969  1.2385  0.1853  0.4618
10298TIP3   OH252384   3.021   3.720  10.091  0.0927  0.7027  0.5483
10298TIP3    H152385   3.003   3.739  10.183  1.4100  0.2319  0.9203
10298TIP3    H252386   2.934   3.717  10.050 -0.4249  3.6588  1.1858
10299TIP3   OH252387   3.386   3.313   4.303 -0.4121  0.0331 -0.0472
10299TIP3    H152388   3.457   3.250   4.317  0.2518  0.4647 -1.3503
10299TIP3    H252389   3.329   3.301   4.379  0.6712 -0.8267  0.6725
10300TIP3   OH252390   0.989   3.173  12.845  0.2500  0.0970  0.0930
10300TIP3    H152391   1.003   3.267  12.851 -1.3870  0.4035 -0.3987
10300TIP3    H252392   0.897   3.161  12.867  0.8782 -1.6158  2.0539
10301TIP3   OH252393   3.389   3.727  11.960  0.4080 -0.2504  0.0127
10301TIP3    H152394   3.300   3.707  11.988 -0.5760  1.3698 -1.7884
10301TIP3    H252395   3.401   3.819  11.982  1.1635 -0.1122 -0.9553
10302TIP3   OH252396   1.404   0.620  15.593  0.3348 -0.4165  0.0888
10302TIP3    H152397   1.368   0.685  15.654  1.5048  0.3441  0.0011
10302TIP3    H252398   1.328   0.587  15.545 -0.4975 -0.3760  1.3244
10303TIP3   OH252399   3.701   6.419  15.654 -1.0239 -0.0456  0.2134
10303TIP3    H152400   3.661   6.390  15.736 -4.0029  0.4499 -0.9511
10303TIP3    H252401   3.655   6.369  15.587  0.1912  0.7675 -1.2751
10304TIP3   OH252402   5.484   4.267  13.586 -0.1575  0.6906 -0.8081
10304TIP3    H152403   5.506   4.324  13.511 -1.1711  1.0465 -0.8522
10304TIP3    H252404   5.560   4.273  13.644  0.0949  1.4425 -1.2043
10305TIP3   OH252405   1.676   5.901   0.670  0.3967 -0.1372  0.4020
10305TIP3    H152406   1.687   5.990   0.637 -0.2393 -0.1922  0.0100
10305TIP3    H252407   1.675   5.909   0.765 -0.7529  0.4330  0.3660
10306TIP3   OH252408   3.669   4.238  16.951  0.7432 -0.6372 -0.2695
10306TIP3    H152409   3.652   4.329  16.925 -0.7993 -1.3184 -1.8502
10306TIP3    H252410   3.632   4.186  16.880  2.9168 -2.5104 -0.1590
10307TIP3   OH252411   2.951   4.248   4.990  0.0130  0.2037  0.1949
10307TIP3    H152412   3.020   4.253   5.057  0.0227  0.5333  0.1626
10307TIP3    H252413   2.999   4.229   4.909 -0.1283 -1.6390  0.5035
10308TIP3   OH252414   1.212   0.948  14.412 -0.3568  0.1162 -0.1444
10308TIP3    H152415   1.175   0.860  14.411  0.8306 -0.4244  0.8225
10308TIP3    H252416   1.248   0.958  14.501  0.0009  1.3698 -0.4102
10309TIP3   OH252417   2.252   5.427   1.855 -0.9839  0.1799  0.3922
10309TIP3    H152418   2.244   5.355   1.792 -1.1421 -0.9526  1.6511
10309TIP3    H252419   2.304   5.493   1.809 -1.4683 -0.4044 -1.0721
10310TIP3   OH252420   5.040   1.288   2.285 -0.5115  0.4462  1.0899
10310TIP3    H152421   5.111   1.349   2.306 -0.0094 -0.0738  0.9067
10310TIP3    H252422   5.063   1.207   2.329 -0.0351 -0.2986 -0.4841
10311TIP3   OH252423   6.799   3.244  16.408  0.6204 -0.0474  0.2288
10311TIP3    H152424   6.734   3.175  16.399  0.7078 -0.1285  0.2106
10311TIP3    H252425   6.877   3.199  16.443  0.9501 -0.1195 -0.5796
10312TIP3   OH252426   5.815   2.909  11.602 -0.2569 -0.6042 -0.1407
10312TIP3    H152427   5.735   2.881  11.557 -0.6087 -0.6529  0.5027
10312TIP3    H252428   5.805   2.875  11.691 -0.2633  0.7885  0.4053
10313TIP3   OH252429   0.956   0.078  16.279 -0.0628  0.2039  0.1038
10313TIP3    H152430   0.884   0.092  16.340 -1.0893 -1.9938 -0.4929
10313TIP3    H252431   0.982  -0.014  16.292  1.0594  0.2727 -1.3236
10314TIP3   OH252432   6.356   2.154  17.036 -0.2490 -0.3861  0.0899
10314TIP3    H152433   6.373   2.221  16.970 -1.5948 -0.2933 -0.1982
10314TIP3    H252434   6.318   2.081  16.987 -0.4184 -0.6695  0.6371
10315TIP3   OH252435   4.925   2.554   0.978 -0.7357  0.3826 -0.0689
10315TIP3    H152436   4.907   2.591   1.064  2.6254  2.4510 -0.0518
10315TIP3    H252437   4.938   2.461   0.994 -0.1544  0.7315  1.7037
10316TIP3   OH252438   1.895   4.532  10.602 -0.2599 -0.3868  0.3338
10316TIP3    H152439   1.943   4.563  10.680 -0.6298 -1.1983  0.8956
10316TIP3    H252440   1.805   4.522  10.632 -0.3322 -1.0718 -0.1057
10317TIP3   OH252441   2.071   1.321  12.668  0.2430 -0.4474  0.0961
10317TIP3    H152442   2.145   1.367  12.628  0.6424 -1.1884 -0.0377
10317TIP3    H252443   2.024   1.389  12.718  0.8992  0.0664  0.0245
10318TIP3   OH252444   1.290   6.720  11.855 -0.2895  0.0330 -0.2228
10318TIP3    H152445   1.240   6.788  11.901 -1.2745 -0.8138  0.0094
10318TIP3    H252446   1.242   6.706  11.773 -1.0869 -1.5051  0.4459
10319TIP3   OH252447   1.958   6.366  13.269  0.3248  0.2790 -0.6249
10319TIP3    H152448   1.972   6.460  13.284  0.9411 -0.2614  3.1332
10319TIP3    H252449   2.045   6.327  13.275 -0.1313 -0.7227 -0.3626
10320TIP3   OH252450   4.768   5.581   0.297 -0.0852  0.7771 -0.6348
10320TIP3    H152451   4.835   5.516   0.275 -0.0272  0.7159 -0.2850
10320TIP3    H252452   4.817   5.663   0.308 -0.1249  0.8259 -0.8158
10321TIP3   OH252453   1.427   2.362  12.449 -0.2200 -0.0113  0.1832
10321TIP3    H152454   1.358   2.414  12.408  0.0328 -0.3995 -0.7678
10321TIP3    H252455   1.438   2.287  12.391  0.7478 -0.1433  0.5192
10322TIP3   OH252456   5.621   3.994  16.731 -0.1808  0.0721 -0.1926
10322TIP3    H152457   5.694   3.940  16.701  0.3603  0.0255  1.1102
10322TIP3    H252458   5.615   4.065  16.668 -0.2020 -0.9024 -1.3335
10323TIP3   OH252459   2.677   2.367   2.137 -0.1742 -0.0903  0.3951
10323TIP3    H152460   2.649   2.275   2.127  0.5065 -0.2120 -0.4867
10323TIP3    H252461   2.766   2.361   2.172  0.6321  0.1724 -1.5340
10324TIP3   OH252462   2.656   4.559   3.711 -0.0505 -0.0247 -0.2867
10324TIP3    H152463   2.690   4.551   3.622  1.8296 -1.0884  0.4622
10324TIP3    H252464   2.649   4.653   3.726  1.1245  0.2063 -1.0410
10325TIP3   OH252465   1.340   4.203  15.217 -0.0509  0.1720 -0.7035
10325TIP3    H152466   1.302   4.204  15.129 -1.1074  0.6330 -0.2492
10325TIP3    H252467   1.400   4.277  15.218  0.3097 -0.1084 -1.1807
10326TIP3   OH252468   3.629   6.716   4.330 -0.0637 -0.0039  0.0525
10326TIP3    H152469   3.679   6.744   4.407 -0.1558  3.1834 -0.9058
10326TIP3    H252470   3.695   6.678   4.271  0.7436  1.2350  0.1082
10327TIP3   OH252471   0.496   4.918  14.501 -0.4174 -0.7046  0.1797
10327TIP3    H152472   0.413   4.888  14.540 -0.5135 -0.1626  0.3893
10327TIP3    H252473   0.540   4.837  14.475  0.4646 -1.2389  3.0013
10328TIP3   OH252474   4.667   3.949  16.808 -0.9459  0.5395 -0.3357
10328TIP3    H152475   4.627   4.033  16.786  1.9334  1.8241 -1.0493
10328TIP3    H252476   4.653   3.894  16.731 -1.9233  0.6761 -0.2708
10329TIP3   OH252477   4.762   6.410   3.278 -0.0437  0.4576  0.2479
10329TIP3    H152478   4.838   6.410   3.219 -0.4688 -0.5835 -0.3247
10329TIP3    H252479   4.729   6.320   3.274  0.3012  0.1630  2.5795
10330TIP3   OH252480   3.118   0.703  16.702  0.7432  0.0649 -0.2604
10330TIP3    H152481   3.204   0.736  16.728  0.7370  0.6571 -0.9512
10330TIP3    H252482   3.070   0.782  16.676 -0.2933 -0.1519  0.8992
10331TIP3   OH252483   1.781   5.082  13.704 -0.3250 -0.1139  0.0824
10331TIP3    H152484   1.766   5.019  13.774 -0.5055  0.2194  0.3451
10331TIP3    H252485   1.795   5.028  13.626 -1.2860 -0.4741  0.1438
10332TIP3   OH252486   0.197   5.501   3.128 -0.0337 -0.2939 -0.1529
10332TIP3    H152487   0.171   5.589   3.155  0.9342  0.4464 -1.4941
10332TIP3    H252488   0.189   5.448   3.207 -0.1552  1.1121  0.8139
10333TIP3   OH252489   0.589   4.652  13.088  0.3486 -0.0035 -0.9695
10333TIP3    H152490   0.642   4.676  13.012  2.9053  1.0734  0.9757
10333TIP3    H252491   0.618   4.563  13.111 -0.2356 -0.2327 -1.1008
10334TIP3   OH252492   6.715   5.360   1.262 -0.1882 -0.0284  0.0769
10334TIP3    H152493   6.640   5.419   1.265  0.3511  0.7120 -0.7293
10334TIP3    H252494   6.697   5.295   1.331 -1.3174  0.4226  0.2260
10335TIP3   OH252495   5.352   1.664  11.971  0.0962  0.5864  0.2171
10335TIP3    H152496   5.260   1.654  11.945  0.0113  0.6563  0.4908
10335TIP3    H252497   5.401   1.635  11.894 -0.1354  2.3108 -0.6387
10336TIP3   OH252498   6.606   6.138   6.068  0.4923  0.7059 -0.1110
10336TIP3    H152499   6.608   6.111   5.976  0.0762  0.8774 -0.1738
10336TIP3    H252500   6.516   6.119   6.095  0.9273 -0.4424  0.5907
10337TIP3   OH252501   3.202   4.771  13.517 -0.1247 -0.1647  0.2733
10337TIP3    H152502   3.117   4.787  13.558 -0.0405 -0.0839  0.4198
10337TIP3    H252503   3.200   4.679  13.491 -0.1745 -0.2208  0.4747
10338TIP3   OH252504   6.716   1.572   1.607 -0.4221 -0.3331  0.0282
10338TIP3    H152505   6.799   1.528   1.620 -0.5649 -0.2603  1.3038
10338TIP3    H252506   6.727   1.658   1.648 -0.8344  0.0322 -0.5963
10339TIP3   OH252507   0.426   2.846   0.396 -0.1788  0.1434 -0.3177
10339TIP3    H152508   0.357   2.878   0.338  1.0927  0.7132 -1.5732
10339TIP3    H252509   0.493   2.915   0.394  1.0004 -0.9716 -0.1510
10340TIP3   OH252510   2.817   2.045   5.612 -0.0391 -0.2280 -0.2063
10340TIP3    H152511   2.873   2.035   5.689 -1.2734  1.2189  0.9301
10340TIP3    H252512   2.874   2.022   5.539  1.0385 -2.1212  1.1268
10341TIP3   OH252513   0.440   1.047   0.726  0.0929 -0.0588 -0.1440
10341TIP3    H152514   0.389   1.007   0.797 -1.8033 -0.6382 -1.7408
10341TIP3    H252515   0.454   1.137   0.754 -2.1872  0.2304  0.2267
10342TIP3   OH252516   5.854   6.157  11.768 -0.0663 -0.0795 -0.3915
10342TIP3    H152517   5.912   6.231  11.751 -0.2971  0.1003 -0.4035
10342TIP3    H252518   5.908   6.096  11.820  0.1956 -0.0087 -0.5780
10343TIP3   OH252519   4.311   1.364  13.523  0.2440 -0.4524  0.4328
10343TIP3    H152520   4.340   1.440  13.473  2.8470  0.7078  3.3581
10343TIP3    H252521   4.341   1.289  13.472  2.3444  0.6400 -0.0405
10344TIP3   OH252522   4.350   1.447   3.656  0.3272 -0.4679  0.5832
10344TIP3    H152523   4.392   1.434   3.571 -3.0064 -1.5962 -1.0762
10344TIP3    H252524   4.319   1.537   3.655  1.1843 -0.1459  1.1280
10345TIP3   OH252525   3.441   2.029   3.594  0.0256  0.4425  0.1572
10345TIP3    H152526   3.516   2.039   3.535  1.9690 -0.9182  2.2327
10345TIP3    H252527   3.371   1.997   3.538  2.2427 -2.4767 -1.2299
10346TIP3   OH252528   5.365   4.814   4.017  0.2050  0.6629 -0.4540
10346TIP3    H152529   5.372   4.883   3.950  2.3604  0.0172 -0.9833
10346TIP3    H252530   5.456   4.798   4.044 -0.2808 -1.5991  0.0410
10347TIP3   OH252531   3.998   4.134  14.984  0.2039 -0.3709 -0.0672
10347TIP3    H152532   4.048   4.180  15.051 -0.0633  0.6389 -0.5305
10347TIP3    H252533   3.952   4.065  15.031  0.9145 -0.4078  0.5892
10348TIP3   OH252534   4.762   4.255  15.225  0.4538 -0.3332  0.4766
10348TIP3    H152535   4.798   4.231  15.140  1.5434  0.4296  0.6959
10348TIP3    H252536   4.790   4.345  15.238 -0.3525 -0.1872  1.3137
10349TIP3   OH252537   1.435   4.355   4.812 -0.0465  0.1973  0.4834
10349TIP3    H152538   1.401   4.322   4.728 -0.2735  0.9119  0.2857
10349TIP3    H252539   1.367   4.415   4.842  0.0142 -0.0963  1.2081
10350TIP3   OH252540   0.949   3.164  13.447 -0.5582  0.1322  0.6823
10350TIP3    H152541   0.948   3.199  13.536  1.5210 -2.3918  1.8404
10350TIP3    H252542   1.041   3.142  13.432 -0.9409  0.0612 -1.9596
10351TIP3   OH252543   2.123   0.137  16.067 -0.1777 -0.6807  0.5477
10351TIP3    H152544   2.029   0.125  16.056  0.1439 -1.2287 -2.6178
10351TIP3    H252545   2.162   0.078  16.002  2.2566  1.0887  0.2619
10352TIP3   OH252546   0.822   2.081   3.214 -0.6553  0.6986  0.6651
10352TIP3    H152547   0.813   2.036   3.130 -0.7681 -1.1683  1.6256
10352TIP3    H252548   0.859   2.166   3.192  3.5171 -1.2927 -0.9204
10353TIP3   OH252549   6.273   4.489   0.771 -0.4851 -0.4821 -0.2789
10353TIP3    H152550   6.236   4.575   0.794 -0.0410 -0.5261  0.6111
10353TIP3    H252551   6.196   4.434   0.755 -0.7833 -0.1203 -0.1133
10354TIP3   OH252552   5.555   1.371   5.164 -0.3411  0.6937  0.4217
10354TIP3    H152553   5.578   1.414   5.082 -0.8115  0.9356  0.4086
10354TIP3    H252554   5.466   1.403   5.183 -1.0282 -0.9114  0.0035
10355TIP3   OH252555   2.834   0.756   1.100 -0.1748  0.1112  0.6083
10355TIP3    H152556   2.866   0.823   1.161 -0.8876  0.2228  0.8733
10355TIP3    H252557   2.782   0.805   1.036  0.8742  0.0450 -0.3317
10356TIP3   OH252558   6.535   5.189  17.155  0.1386  0.1474  0.0344
10356TIP3    H152559   6.452   5.213  17.114  0.2675  0.0696 -0.2732
10356TIP3    H252560   6.582   5.272  17.162  0.3393  0.0800 -0.4796
10357TIP3   OH252561   5.907   1.406   5.072 -0.0188  0.1622  0.3106
10357TIP3    H152562   5.887   1.332   5.014 -1.9807  1.0424 -0.2211
10357TIP3    H252563   5.972   1.372   5.133  1.0117 -1.2341 -1.4848
10358TIP3   OH252564   4.389   5.872  12.617 -0.1258 -0.4445  0.0723
10358TIP3    H152565   4.335   5.811  12.566 -0.3034  0.4391 -0.8289
10358TIP3    H252566   4.404   5.827  12.700  1.6818 -2.7236 -1.3717
10359TIP3   OH252567   0.843   6.627   6.508  0.1244  0.4734  0.5692
10359TIP3    H152568   0.892   6.555   6.548 -2.0357 -0.0312  2.5268
10359TIP3    H252569   0.832   6.691   6.579 -1.9688  0.5605  0.2204
10360TIP3   OH252570   0.040   4.353   6.656 -0.6250 -0.6003  0.0585
10360TIP3    H152571   0.061   4.414   6.727 -0.1066  0.1024 -0.6832
10360TIP3    H252572   0.072   4.269   6.687  0.4712 -0.1234  0.2694
10361TIP3   OH252573   3.460   2.888   1.433 -0.0240 -0.2177 -0.5327
10361TIP3    H152574   3.388   2.849   1.383 -1.8730  1.4501  0.6970
10361TIP3    H252575   3.520   2.815   1.448 -2.3471 -2.1768 -0.0321
10362TIP3   OH252576   6.421   6.070  16.337 -0.1737  0.5127  0.2539
10362TIP3    H152577   6.471   6.119  16.272  0.1109 -0.1657 -0.0449
10362TIP3    H252578   6.363   6.014  16.286 -2.6534  2.6184  0.5648
10363TIP3   OH252579   5.417   2.536  11.403  0.2346  0.2239 -0.1463
10363TIP3    H152580   5.457   2.532  11.316  0.1402  0.8017 -0.2202
10363TIP3    H252581   5.395   2.445  11.423  1.4110 -0.0886 -0.1808
10364TIP3   OH252582   4.927   2.772  14.621  0.1724 -0.4836 -0.3323
10364TIP3    H152583   4.976   2.690  14.615 -0.6578 -1.0198  0.0112
10364TIP3    H252584   4.897   2.789  14.532  0.9387 -0.1733 -0.5359
10365TIP3   OH252585   3.500   1.629   6.266  0.2725  0.5107  0.2476
10365TIP3    H152586   3.580   1.610   6.217  0.1706  0.2021  0.2020
10365TIP3    H252587   3.503   1.570   6.342 -0.8598 -0.9140 -0.7602
10366TIP3   OH252588   5.150   2.264  11.827  0.5669 -0.5398  0.6509
10366TIP3    H152589   5.109   2.241  11.744 -0.6374 -1.5306  1.4834
10366TIP3    H252590   5.242   2.239  11.816  0.7571  0.7094 -0.8683
10367TIP3   OH252591   2.343   3.483  10.785  0.7123  0.5935 -0.8209
10367TIP3    H152592   2.384   3.427  10.719 -0.1682  2.7483 -3.4038
10367TIP3    H252593   2.364   3.572  10.757 -2.8302  1.7188 -0.3790
10368TIP3   OH252594   1.116   1.058  14.192 -0.2057  0.3850  0.0061
10368TIP3    H152595   1.158   1.028  14.111 -1.2660  0.6473 -0.6508
10368TIP3    H252596   1.160   1.008  14.261  1.8923  1.3817 -0.5373
10369TIP3   OH252597   1.212   6.521  12.306 -0.0283  0.0442  0.3428
10369TIP3    H152598   1.190   6.494  12.217 -1.8036 -0.8608  1.0138
10369TIP3    H252599   1.277   6.590  12.294 -1.5052  1.1942 -1.7222
10370TIP3   OH252600   2.969   4.944   4.578 -0.2087 -0.3959 -0.2703
10370TIP3    H152601   2.965   5.020   4.521 -0.2660  0.4542  0.8271
10370TIP3    H252602   2.903   4.885   4.544 -0.5669  0.2972 -0.7999
10371TIP3   OH252603   1.536   5.374   3.192 -0.2257 -0.2126  0.3933
10371TIP3    H152604   1.533   5.440   3.123 -0.8112 -1.6095 -0.9738
10371TIP3    H252605   1.611   5.400   3.246  0.2671  0.9145 -0.7730
10372TIP3   OH252606   3.879   1.307  17.051  0.5479  0.5944 -0.0649
10372TIP3    H152607   3.866   1.255  17.131 -2.7976 -0.5541 -1.1673
10372TIP3    H252608   3.962   1.275  17.014 -0.1864 -2.3209  0.5654
10373TIP3   OH252609   2.305   1.748  13.907  0.2770  0.1573  0.2192
10373TIP3    H152610   2.245   1.761  13.980  0.5984  0.6277  0.4053
10373TIP3    H252611   2.392   1.754  13.946  0.5594 -3.8627  0.5845
10374TIP3   OH252612   6.234   0.373   1.675 -0.0298 -0.0169  0.0701
10374TIP3    H152613   6.151   0.415   1.653 -0.5501 -1.5186 -0.9840
10374TIP3    H252614   6.211   0.307   1.740  0.4193 -0.1744  0.0739
10375TIP3   OH252615   3.135   4.001  11.756  0.5446  0.1412  0.1358
10375TIP3    H152616   3.072   4.073  11.763  0.3998  0.1792 -1.3227
10375TIP3    H252617   3.129   3.956  11.840 -1.4140  0.1637  0.0465
10376TIP3   OH252618   1.371   3.507   3.390  0.4119  0.5045  0.3541
10376TIP3    H152619   1.310   3.572   3.355 -1.1504 -1.2292 -0.2644
10376TIP3    H252620   1.316   3.434   3.416  1.8887  0.3063  3.2367
10377TIP3   OH252621   6.071   1.001  12.757 -0.2999 -0.3695 -0.1929
10377TIP3    H152622   6.064   0.910  12.728 -0.4708 -0.8154  1.2015
10377TIP3    H252623   6.164   1.021  12.748 -0.4056 -0.3462 -1.4287
10378TIP3   OH252624   1.607   2.492  13.382  0.1408 -0.2467  0.1554
10378TIP3    H152625   1.687   2.500  13.329  0.1940 -0.2626  0.2323
10378TIP3    H252626   1.637   2.450  13.463  0.8557  3.1710  1.8700
10379TIP3   OH252627   6.114   6.296   4.049 -0.2942  0.1535 -0.2882
10379TIP3    H152628   6.051   6.299   4.121 -0.2970 -0.6427 -0.2503
10379TIP3    H252629   6.062   6.314   3.971 -0.0218  2.7400  0.0259
10380TIP3   OH252630   2.699   5.896  14.036 -0.3006 -0.4182  0.3052
10380TIP3    H152631   2.694   5.807  14.002 -1.1053 -0.6749  1.0794
10380TIP3    H252632   2.772   5.895  14.097 -1.5931 -1.1101  1.8948
10381TIP3   OH252633   4.065   6.044   4.979  0.5169  0.3573 -0.4015
10381TIP3    H152634   4.111   5.968   5.015 -0.3116 -0.1107 -0.3029
10381TIP3    H252635   3.988   6.053   5.035  1.5338  2.4168  0.7641
10382TIP3   OH252636   2.061   3.043   1.626  0.0774 -0.1323 -0.2971
10382TIP3    H152637   2.029   2.973   1.569  1.4694  0.0667 -1.3863
10382TIP3    H252638   2.156   3.031   1.628  0.3357  1.6386 -0.4141
10383TIP3   OH252639   0.240   3.010  12.966  0.4167 -0.4684 -0.4857
10383TIP3    H152640   0.175   3.052  13.021  0.2090  0.7990 -1.6477
10383TIP3    H252641   0.201   2.925  12.943  0.0325 -0.5375  0.3705
10384TIP3   OH252642   3.098   3.107  12.511  0.1607  0.7650 -0.9456
10384TIP3    H152643   3.131   3.093  12.600  4.9361  0.7626 -2.4615
10384TIP3    H252644   3.107   3.022  12.469  0.6685  1.3941 -2.1453
10385TIP3   OH252645   2.279   5.312  15.438 -0.5229  0.1671  0.5452
10385TIP3    H152646   2.302   5.343  15.351 -0.4306 -3.5260 -0.9161
10385TIP3    H252647   2.350   5.344  15.495  0.9334  0.3056 -1.2647
10386TIP3   OH252648   5.840   1.560   6.584 -0.1955 -0.7173 -0.5660
10386TIP3    H152649   5.799   1.637   6.623  1.5995 -0.3262  0.6548
10386TIP3    H252650   5.810   1.487   6.637 -0.4505 -0.6216 -0.5780
10387TIP3   OH252651   6.666   1.829   4.134  0.6842 -0.0218 -0.5406
10387TIP3    H152652   6.760   1.838   4.149  0.7547  1.3556 -1.6191
10387TIP3    H252653   6.639   1.914   4.098 -1.0504 -0.2565  0.1263
10388TIP3   OH252654   1.704   3.969   6.369  0.0516  0.0517 -0.2901
10388TIP3    H152655   1.659   3.891   6.401 -0.0201  0.7631  1.4314
10388TIP3    H252656   1.797   3.951   6.384 -0.0171  0.6022  0.8604
10389TIP3   OH252657   0.656   1.598   3.745 -0.6900 -0.0245 -0.3583
10389TIP3    H152658   0.635   1.588   3.838 -3.9335  1.7584 -0.7710
10389TIP3    H252659   0.675   1.692   3.735  0.8290 -0.3985 -1.3451
10390TIP3   OH252660   6.193   1.876  15.225 -0.4616  0.1618  0.0379
10390TIP3    H152661   6.264   1.836  15.175 -1.2549 -0.5313 -0.5796
10390TIP3    H252662   6.206   1.843  15.315  1.5440  2.1930  0.5913
10391TIP3   OH252663   5.757   1.200   1.410  0.0410 -0.1342  0.0874
10391TIP3    H152664   5.852   1.205   1.415  0.1615 -1.4229 -0.4693
10391TIP3    H252665   5.735   1.238   1.324  0.2444 -1.5726 -0.6303
10392TIP3   OH252666   3.887   0.094  11.653 -0.1262  0.1344 -0.0452
10392TIP3    H152667   3.978   0.081  11.627  0.5798  2.1736  1.1607
10392TIP3    H252668   3.845   0.132  11.576  0.0412 -0.7511 -0.5857
10393TIP3   OH252669   0.218   3.095   5.378  0.0359  0.0326  0.3567
10393TIP3    H152670   0.156   3.025   5.398  0.1018 -0.1377 -0.0137
10393TIP3    H252671   0.280   3.055   5.316  0.7141  0.1005  0.9798
10394TIP3   OH252672   3.960   5.927  14.521  0.1967 -0.3299 -0.1633
10394TIP3    H152673   3.976   5.834  14.505 -1.3471 -0.3725 -1.7358
10394TIP3    H252674   3.866   5.933  14.533  0.4374  0.8655  1.3731
10395TIP3   OH252675   0.960   1.278   2.333  0.0165 -0.0705 -0.3177
10395TIP3    H152676   0.943   1.340   2.262  1.2742  1.9075  0.9940
10395TIP3    H252677   1.054   1.283   2.348  0.0288 -1.7130  0.3978
10396TIP3   OH252678   0.445   4.274   2.057  0.5859  0.3365 -0.6610
10396TIP3    H152679   0.360   4.303   2.024  0.9268 -0.1032 -1.9869
10396TIP3    H252680   0.426   4.235   2.143 -0.4866  0.5843 -0.7785
10397TIP3   OH252681   5.971   5.048   4.204  0.1498 -0.2523 -0.0507
10397TIP3    H152682   5.880   5.052   4.233  0.3906  0.4506  0.6193
10397TIP3    H252683   5.985   5.128   4.154  0.4370 -0.2846 -0.0274
10398TIP3   OH252684   1.666   2.854  13.964 -0.1845  0.2344  0.1278
10398TIP3    H152685   1.575   2.839  13.938  0.1690 -0.9448 -0.4831
10398TIP3    H252686   1.703   2.904  13.891 -0.3956  0.9261  0.4871
10399TIP3   OH252687   0.157   0.147   5.583  0.1875  0.1927  0.1937
10399TIP3    H152688   0.093   0.080   5.606  0.9100  0.0969  2.0127
10399TIP3    H252689   0.114   0.229   5.606 -0.0662  0.2722 -0.5303
10400TIP3   OH252690   5.041   2.192   2.741 -0.1140  0.2685  0.2721
10400TIP3    H152691   5.060   2.139   2.664  0.9749  1.5346 -0.3529
10400TIP3    H252692   5.010   2.129   2.806  2.4217 -1.3655  0.0193
10401TIP3   OH252693   1.471   6.125   0.306 -0.4562  0.0630  0.8742
10401TIP3    H152694   1.553   6.171   0.325  0.3356 -0.9408  0.0213
10401TIP3    H252695   1.456   6.141   0.213 -1.0869  0.0019  0.9608
10402TIP3   OH252696   2.087   5.544   4.104 -0.1298  0.5457  0.1656
10402TIP3    H152697   2.143   5.470   4.082 -1.3550 -0.4821  0.3768
10402TIP3    H252698   2.020   5.507   4.161 -1.7689  1.4343 -1.1034
10403TIP3   OH252699   2.078   6.605   4.822  0.3414  0.4084  0.2817
10403TIP3    H152700   2.074   6.624   4.916  0.3030 -1.5988  0.7313
10403TIP3    H252701   2.167   6.571   4.808 -0.2223 -1.0381  0.0013
10404TIP3   OH252702   3.434   4.789   6.637 -0.4616 -0.1034 -0.1610
10404TIP3    H152703   3.528   4.794   6.617 -0.3020  0.9665  0.7507
10404TIP3    H252704   3.412   4.697   6.625  0.3346 -0.1090 -1.9510
10405TIP3   OH252705   4.197   0.664  15.287 -0.4655 -0.5077 -0.4906
10405TIP3    H152706   4.219   0.718  15.210  0.3549 -0.0191  0.0643
10405TIP3    H252707   4.169   0.728  15.353  0.0258 -0.8066  0.0116
10406TIP3   OH252708   5.934   6.412  16.117  0.1292  0.2978 -0.1246
10406TIP3    H152709   5.908   6.443  16.204  1.2244  0.7200  0.0725
10406TIP3    H252710   5.958   6.491  16.069  1.3356 -0.0742 -0.1763
10407TIP3   OH252711   4.031   4.435   3.235 -0.7150 -0.2980  0.3707
10407TIP3    H152712   4.103   4.372   3.244 -0.8769 -0.5596 -0.1297
10407TIP3    H252713   4.051   4.504   3.298  0.3840  0.0082 -0.2850
10408TIP3   OH252714   4.153   0.156  14.199  0.2306  0.2719  0.0315
10408TIP3    H152715   4.160   0.077  14.252  1.4470  0.6064  0.4173
10408TIP3    H252716   4.239   0.198  14.207 -0.1483  1.2562 -0.7556
10409TIP3   OH252717   1.091   6.678   6.230 -0.3041 -0.1347  0.3034
10409TIP3    H152718   1.006   6.702   6.266 -0.2207  0.4268  0.1252
10409TIP3    H252719   1.145   6.655   6.307  0.5012  2.9518  0.7806
10410TIP3   OH252720   3.418   6.803  15.112  0.3558  0.2467  0.2327
10410TIP3    H152721   3.444   6.888  15.149 -1.1531  0.5690  0.6098
10410TIP3    H252722   3.443   6.739  15.178 -2.6423  0.8442  2.1414
10411TIP3   OH252723   5.577   2.575  16.608 -0.2730  0.3024  0.6513
10411TIP3    H152724   5.516   2.547  16.676 -0.2782  0.8702  0.8850
10411TIP3    H252725   5.523   2.625  16.547 -0.0583  0.7416  0.8174
10412TIP3   OH252726   0.303   5.457  14.526  0.4666  0.5502 -0.1623
10412TIP3    H152727   0.224   5.509  14.510  0.4607  0.1149 -1.7120
10412TIP3    H252728   0.270   5.377  14.568  0.2618  1.0073  0.5563
10413TIP3   OH252729   2.837   1.367  12.655 -0.0958  0.0927 -0.3302
10413TIP3    H152730   2.808   1.295  12.711 -0.0458  0.4319  0.1404
10413TIP3    H252731   2.931   1.355  12.646 -0.2759 -0.7103 -1.4299
10414TIP3   OH252732   0.741   2.088  14.850  0.4873 -0.2412  0.3137
10414TIP3    H152733   0.651   2.067  14.826  0.1861  0.9152  0.3532
10414TIP3    H252734   0.795   2.028  14.798 -0.3197 -1.8677  1.2612
10415TIP3   OH252735   1.687   4.786  14.477  0.4261 -0.1933 -0.4662
10415TIP3    H152736   1.593   4.768  14.466 -0.0913 -0.0843  2.6763
10415TIP3    H252737   1.700   4.870  14.433 -1.3632  0.5447  0.2668
10416TIP3   OH252738   4.290   6.418   1.142 -0.9069  0.5459 -0.1732
10416TIP3    H152739   4.329   6.419   1.229 -1.4224  1.0802  0.0630
10416TIP3    H252740   4.305   6.507   1.108 -0.3737  0.2259 -0.7810
10417TIP3   OH252741   0.529   1.348  12.981  0.2325 -0.0287 -0.3481
10417TIP3    H152742   0.483   1.265  12.969 -2.2974  1.3953 -1.0966
10417TIP3    H252743   0.535   1.385  12.893  1.4648  0.5317 -0.0419
10418TIP3   OH252744   0.871   0.898   1.113  0.1991 -0.3756  0.2301
10418TIP3    H152745   0.863   0.949   1.032  0.2440 -2.3705 -1.1101
10418TIP3    H252746   0.944   0.938   1.160  1.1876 -0.1148 -1.4601
10419TIP3   OH252747   1.335   3.128  15.329  0.2004 -0.6148  0.7085
10419TIP3    H152748   1.372   3.215  15.318  1.0006 -1.0819 -0.5084
10419TIP3    H252749   1.246   3.135  15.294  0.2049 -0.2432  0.7700
10420TIP3   OH252750   3.574   0.759  13.185  0.3689  0.0732 -0.5396
10420TIP3    H152751   3.519   0.777  13.109  0.9790  1.5486 -0.6726
10420TIP3    H252752   3.618   0.677  13.165  1.3275  0.9575 -2.2711
10421TIP3   OH252753   0.693   3.425   2.354  0.1285 -0.0495 -0.2681
10421TIP3    H152754   0.779   3.393   2.380 -0.6591 -3.7202 -1.5453
10421TIP3    H252755   0.632   3.364   2.394 -1.6314  0.2537 -2.3425
10422TIP3   OH252756   5.319   4.627  11.524 -0.2536  0.0284 -0.1384
10422TIP3    H152757   5.242   4.670  11.562  0.9476  0.6881  1.6586
10422TIP3    H252758   5.289   4.596  11.438 -2.3257  0.8261  0.2411
10423TIP3   OH252759   0.772   1.779  15.690  0.0210  0.8934  0.0012
10423TIP3    H152760   0.695   1.815  15.734  0.2031  1.1812  0.0884
10423TIP3    H252761   0.737   1.724  15.620 -0.2792 -0.1741  0.9712
10424TIP3   OH252762   5.777   5.802  10.796  0.3533 -0.2298 -0.0037
10424TIP3    H152763   5.822   5.723  10.764  1.2924  0.1763  0.2766
10424TIP3    H252764   5.684   5.779  10.794  0.4318 -0.5990 -2.0015
10425TIP3   OH252765   3.940   5.310  16.906  0.5501 -0.1225 -0.3507
10425TIP3    H152766   3.986   5.292  16.988  1.2562  0.0470 -0.6998
10425TIP3    H252767   3.972   5.396  16.878 -2.4691  1.6550  1.0911
10426TIP3   OH252768   5.852   4.651  15.427  0.1541  0.6930 -0.6658
10426TIP3    H152769   5.852   4.652  15.331 -1.0268 -1.9232 -0.7622
10426TIP3    H252770   5.866   4.743  15.451 -0.5632  1.6038 -3.3264
10427TIP3   OH252771   3.670   3.005  11.732  0.5557  0.5358 -0.1690
10427TIP3    H152772   3.607   2.985  11.802 -2.9857  3.6496 -2.1173
10427TIP3    H252773   3.742   3.050  11.777  0.0480 -0.5280  1.8240
10428TIP3   OH252774   1.888   5.838   4.811  0.0359 -0.4036  0.0941
10428TIP3    H152775   1.872   5.885   4.729 -0.1150  0.7717  0.7626
10428TIP3    H252776   1.910   5.907   4.874 -0.4021 -1.2183  1.1765
10429TIP3   OH252777   5.870   3.527   4.149 -0.1136  0.3277  0.0795
10429TIP3    H152778   5.876   3.532   4.054 -0.6845  0.3720  0.0417
10429TIP3    H252779   5.902   3.439   4.170  1.5826  0.8827  0.0031
10430TIP3   OH252780   0.301   6.254   5.471 -0.3687 -0.4043 -0.3586
10430TIP3    H152781   0.286   6.253   5.377 -4.3578  1.7028  0.0264
10430TIP3    H252782   0.337   6.341   5.489 -1.8823  0.1375  0.2132
10431TIP3   OH252783   1.812   2.943   1.977 -0.9158  0.6249  0.0419
10431TIP3    H152784   1.773   2.946   2.065 -2.1593  4.6683 -0.4750
10431TIP3    H252785   1.842   3.032   1.961  1.8146 -0.5995 -2.6533
10432TIP3   OH252786   1.101   3.960  12.441 -0.7914  1.0735  0.2890
10432TIP3    H152787   1.037   3.927  12.378 -0.6006 -0.0732  0.6743
10432TIP3    H252788   1.126   3.883  12.492 -0.1831  1.7923  1.0929
10433TIP3   OH252789   2.087   3.022   0.754  0.4509  0.0655 -0.5736
10433TIP3    H152790   2.103   3.087   0.823  0.1837 -0.5578  0.0814
10433TIP3    H252791   2.143   3.050   0.682  1.0066  0.5234  0.0218
10434TIP3   OH252792   3.152   6.242  15.117 -0.2698 -0.2826  0.2235
10434TIP3    H152793   3.078   6.255  15.176  0.0027  0.8865  0.3352
10434TIP3    H252794   3.210   6.316  15.135  0.0524 -0.1649 -1.1526
10435TIP3   OH252795   6.782   1.691   2.458  0.2817 -0.0939  0.6032
10435TIP3    H152796   6.705   1.721   2.506  1.1890  2.5477  0.5877
10435TIP3    H252797   6.752   1.677   2.368 -0.0221  1.9821  0.3405
10436TIP3   OH252798   5.434   6.397   0.791 -0.1139 -0.5873 -1.2089
10436TIP3    H152799   5.392   6.410   0.876 -0.6144  0.8112 -1.6370
10436TIP3    H252800   5.464   6.307   0.792 -0.0131 -0.5561  0.4935
10437TIP3   OH252801   4.458   4.752   4.589  0.2196 -0.6256 -0.3156
10437TIP3    H152802   4.388   4.743   4.654  1.3334 -0.1074  1.0117
10437TIP3    H252803   4.430   4.826   4.535 -1.2772 -1.7887 -1.1976
10438TIP3   OH252804   0.779   0.788  12.125 -0.0709  0.0210  0.2282
10438TIP3    H152805   0.735   0.801  12.210  0.2110 -3.5704  1.0909
10438TIP3    H252806   0.720   0.827  12.061 -3.2438 -2.0356  1.6261
10439TIP3   OH252807   0.013   0.711   0.959  0.4858  0.3188  0.2174
10439TIP3    H152808   0.099   0.722   1.001  0.3388  0.8965  0.3860
10439TIP3    H252809   0.029   0.651   0.887  0.5375 -1.5565  1.7082
10440TIP3   OH252810   2.857   6.156  12.741 -0.6791  0.1253  0.1660
10440TIP3    H152811   2.851   6.178  12.834  0.8471  1.9104 -0.0983
10440TIP3    H252812   2.772   6.180  12.705 -0.9177  0.4323  0.9146
10441TIP3   OH252813   6.368   0.972  16.718 -0.3901  0.0767  0.4474
10441TIP3    H152814   6.459   0.991  16.741 -0.0303 -2.4784  1.4247
10441TIP3    H252815   6.319   0.979  16.800 -0.6314 -0.8402  0.3935
10442TIP3   OH252816   1.244   4.336  11.371 -0.0932  0.1308  0.7631
10442TIP3    H152817   1.299   4.291  11.434 -0.6869 -0.3249  0.9592
10442TIP3    H252818   1.172   4.372  11.423 -0.3673  0.1033  0.4063
10443TIP3   OH252819   4.422   5.591  13.801  0.2244  0.0534 -0.9699
10443TIP3    H152820   4.359   5.663  13.807 -2.9082 -2.4737  0.0358
10443TIP3    H252821   4.410   5.556  13.713 -0.9194 -1.2281 -0.3624
10444TIP3   OH252822   3.810   5.481  14.363  0.1801 -0.5339 -0.0120
10444TIP3    H152823   3.878   5.419  14.338  0.3538  0.7080 -2.9871
10444TIP3    H252824   3.740   5.426  14.399  1.8354 -2.0202  1.1277
10445TIP3   OH252825   4.693   3.308   2.860 -0.2029  0.1292  0.0333
10445TIP3    H152826   4.679   3.401   2.880  0.6923  0.2922 -0.0824
10445TIP3    H252827   4.787   3.295   2.869  0.0804 -0.1201 -2.6499
10446TIP3   OH252828   6.378   0.629   2.349  0.3053  0.0673 -0.1061
10446TIP3    H152829   6.369   0.549   2.401 -1.4298 -1.0155 -1.8830
10446TIP3    H252830   6.471   0.636   2.332  0.8895  0.2768  2.7629
10447TIP3   OH252831   2.541   4.814  14.605 -0.3074 -0.1397  0.1762
10447TIP3    H152832   2.559   4.907  14.595 -1.8461  0.0903 -0.9494
10447TIP3    H252833   2.534   4.801  14.699  0.3481  0.7883  0.3676
10448TIP3   OH252834   2.977   2.697  13.746 -0.0179 -0.3394 -0.3034
10448TIP3    H152835   2.904   2.716  13.805 -0.0685  1.0060 -0.7791
10448TIP3    H252836   3.048   2.754  13.776  0.9132 -1.7066  0.2178
10449TIP3   OH252837   6.820   3.075  11.166  0.0461 -0.9954  0.5944
10449TIP3    H152838   6.871   3.084  11.085  0.5113  1.1689  1.0441
10449TIP3    H252839   6.880   3.034  11.228  1.4203  1.6127  1.1476
10450TIP3   OH252840   0.963   4.535  10.631  0.2114  0.4078 -0.0291
10450TIP3    H152841   1.006   4.467  10.581 -1.0488  0.5505 -1.3560
10450TIP3    H252842   0.942   4.603  10.567 -1.0645  0.7844  0.7430
10451TIP3   OH252843   1.416   2.255   3.730  0.5966 -0.0625  0.3291
10451TIP3    H152844   1.491   2.201   3.756  0.9113  1.0032  1.7738
10451TIP3    H252845   1.351   2.239   3.799  0.7921  1.5617  0.9259
10452TIP3   OH252846   4.939   2.547   1.602 -0.6017 -0.1421  0.2739
10452TIP3    H152847   4.845   2.561   1.610 -0.4075  0.5803  1.4360
10452TIP3    H252848   4.947   2.455   1.575 -1.6383 -0.1428 -0.0672
10453TIP3   OH252849   4.518   3.292   4.113 -0.0106 -0.5022  0.1605
10453TIP3    H152850   4.473   3.216   4.149 -0.6340 -0.0706  0.3125
10453TIP3    H252851   4.451   3.361   4.111  0.3275 -0.1841 -0.7295
10454TIP3   OH252852   0.192   0.456   5.870  0.0624  0.2361 -0.3424
10454TIP3    H152853   0.157   0.540   5.900 -0.4306  0.1902 -0.7786
10454TIP3    H252854   0.182   0.398   5.945  0.1942  0.5061 -0.1129
10455TIP3   OH252855   4.679   4.286   0.934 -0.4305 -0.3773  0.4789
10455TIP3    H152856   4.698   4.333   0.852 -0.0436  1.8130  1.7283
10455TIP3    H252857   4.759   4.295   0.986 -1.4394  0.3126  1.9696
10456TIP3   OH252858   0.948   0.353  14.829  0.3126  0.2049 -0.1990
10456TIP3    H152859   0.868   0.333  14.877  1.9251 -1.0160  2.1931
10456TIP3    H252860   0.984   0.267  14.806  0.8668  0.7391 -1.3951
10457TIP3   OH252861   5.162   6.364   4.512 -0.0224 -0.7746 -0.4414
10457TIP3    H152862   5.193   6.451   4.486 -0.3809  0.3787  2.5399
10457TIP3    H252863   5.069   6.377   4.534  0.1403 -1.6454  0.9145
10458TIP3   OH252864   0.449   6.776  15.733  0.3984  0.7456 -0.3239
10458TIP3    H152865   0.513   6.835  15.772  1.6662 -1.0506  0.4690
10458TIP3    H252866   0.445   6.702  15.793 -0.0071 -0.6444 -1.9745
10459TIP3   OH252867   4.055   6.347  11.779 -0.2852  0.3683  0.1928
10459TIP3    H152868   4.101   6.368  11.698  0.5804 -0.2522  0.5141
10459TIP3    H252869   4.096   6.266  11.810 -1.9402 -0.5090  0.2107
10460TIP3   OH252870   1.995   4.751  15.697 -0.3741 -0.3186 -0.6873
10460TIP3    H152871   1.911   4.737  15.654 -0.8363  0.6813 -0.1443
10460TIP3    H252872   2.031   4.829  15.654  0.0060 -0.3913 -0.5078
10461TIP3   OH252873   3.362   5.786   6.413  0.1698  0.0254 -0.3067
10461TIP3    H152874   3.312   5.733   6.476 -0.4891  2.7328  1.6315
10461TIP3    H252875   3.295   5.827   6.359  0.5904  0.0140 -0.8392
10462TIP3   OH252876   3.208   6.558   4.991  0.4516  0.1682  0.2863
10462TIP3    H152877   3.283   6.544   5.048 -0.3239 -0.8191  1.0832
10462TIP3    H252878   3.229   6.511   4.910  0.1386 -1.2325  0.9995
10463TIP3   OH252879   2.186   1.236  16.267  0.4695 -0.2905 -0.0051
10463TIP3    H152880   2.216   1.321  16.299  1.0383  0.0522 -1.3861
10463TIP3    H252881   2.109   1.217  16.321  2.0021 -0.3114  2.3425
10464TIP3   OH252882   2.059   0.612   4.389 -0.0565 -0.3193 -0.2371
10464TIP3    H152883   1.975   0.571   4.370  0.2713 -1.4797  0.7073
10464TIP3    H252884   2.123   0.556   4.344  0.3530 -0.5204  0.5857
10465TIP3   OH252885   5.071   4.497   0.729 -0.0211  0.0497 -0.0200
10465TIP3    H152886   4.991   4.550   0.721 -0.0524 -0.2448 -2.2691
10465TIP3    H252887   5.066   4.459   0.817 -0.9142  2.2775  0.9562
10466TIP3   OH252888   3.884   4.857  16.987 -0.1118 -0.3252  0.3220
10466TIP3    H152889   3.891   4.790  17.055 -0.5611  0.2474  0.9438
10466TIP3    H252890   3.953   4.919  17.008  0.5248 -0.7530 -0.4520
10467TIP3   OH252891   2.617   5.572   4.775  0.8980 -0.5881  0.3100
10467TIP3    H152892   2.664   5.601   4.853 -0.3626  1.8688  0.2762
10467TIP3    H252893   2.527   5.561   4.804  0.2830  0.9626 -0.8510
10468TIP3   OH252894   2.686   5.114   4.374  0.0010 -0.5921 -0.3452
10468TIP3    H152895   2.679   5.122   4.469 -1.2974 -1.3111 -0.3598
10468TIP3    H252896   2.779   5.098   4.358  0.3934  0.4856  0.7129
10469TIP3   OH252897   1.657   5.278   1.758 -0.9910  0.1447 -0.0199
10469TIP3    H152898   1.718   5.344   1.789 -1.8912  0.7573  0.4950
10469TIP3    H252899   1.639   5.303   1.667 -1.0727  0.4181  0.0698
10470TIP3   OH252900   3.365   2.725   3.850  0.0946 -0.1293 -0.6032
10470TIP3    H152901   3.315   2.668   3.910 -1.9559  1.9016 -0.2504
10470TIP3    H252902   3.410   2.787   3.908  1.3293 -0.5781 -1.0413
10471TIP3   OH252903   3.603   4.132   4.593 -0.0806 -0.5717 -0.6276
10471TIP3    H152904   3.512   4.162   4.586  0.9808  2.5597 -2.8435
10471TIP3    H252905   3.627   4.106   4.504  1.5880 -0.0914 -0.3516
10472TIP3   OH252906   2.883   6.618  14.156  0.0525  0.3518  0.6781
10472TIP3    H152907   2.919   6.560  14.089 -0.7399  2.1574 -1.4451
10472TIP3    H252908   2.931   6.700  14.144 -0.7709  1.0053  1.7154
10473TIP3   OH252909   5.084   0.942   6.235 -0.0580 -0.2614 -0.1576
10473TIP3    H152910   5.014   0.879   6.216 -0.9780  0.8542 -0.5821
10473TIP3    H252911   5.052   0.991   6.311 -0.2525  0.9755 -1.0130
10474TIP3   OH252912   3.273   6.454  11.213 -0.2327 -0.2582  0.1676
10474TIP3    H152913   3.285   6.510  11.137  0.3964 -2.5527 -1.5107
10474TIP3    H252914   3.353   6.465  11.264 -0.8060  1.5627  0.7550
10475TIP3   OH252915   4.632   0.743  12.942 -0.5718 -0.1752  0.6064
10475TIP3    H152916   4.576   0.767  12.868 -0.9068 -0.9196  0.6159
10475TIP3    H252917   4.645   0.825  12.990 -3.5158 -0.3620  1.9044
10476TIP3   OH252918   2.573   6.300  12.209  0.3487 -0.1881  0.0174
10476TIP3    H152919   2.553   6.237  12.140  0.8460 -0.3802  0.0425
10476TIP3    H252920   2.668   6.294  12.219  0.1377 -1.1584  1.6709
10477TIP3   OH252921   3.671   5.002   0.750  0.3446  0.3220  0.5001
10477TIP3    H152922   3.765   5.019   0.751  0.5888 -0.9056 -0.1389
10477TIP3    H252923   3.660   4.921   0.800 -0.3334  0.2798  0.2938
10478TIP3   OH252924   2.456   0.761   0.858 -0.5284 -0.1592 -0.1683
10478TIP3    H152925   2.375   0.811   0.854 -0.7545 -0.2169  2.2362
10478TIP3    H252926   2.455   0.707   0.779 -2.2759  0.6392 -0.7395
10479TIP3   OH252927   4.509   2.161  15.693  0.3076 -0.0206  0.0641
10479TIP3    H152928   4.416   2.143  15.676  0.6646 -1.5793 -0.3651
10479TIP3    H252929   4.517   2.159  15.788 -0.2144  0.8745  0.1470
10480TIP3   OH252930   6.769   3.676  10.707 -0.1411  0.5090  0.6601
10480TIP3    H152931   6.707   3.727  10.759 -0.6444  1.0773 -0.4764
10480TIP3    H252932   6.715   3.632  10.641  0.7456  1.8810 -1.0475
10481TIP3   OH252933   2.692   6.579   4.570  0.0383 -0.0632  0.4587
10481TIP3    H152934   2.716   6.672   4.574 -1.5175  0.3680  0.6262
10481TIP3    H252935   2.668   6.558   4.660  2.0205 -1.1315  0.7791
10482TIP3   OH252936   4.367   4.432   0.286 -0.9860 -0.4336 -0.4220
10482TIP3    H152937   4.402   4.478   0.210  0.5965  2.0668  1.6541
10482TIP3    H252938   4.407   4.345   0.281  1.1948  0.5296 -1.1491
10483TIP3   OH252939   3.955   1.986   3.853  0.9603  0.1565 -0.3122
10483TIP3    H152940   3.998   2.064   3.889  2.1216 -0.6480  0.1196
10483TIP3    H252941   4.026   1.922   3.844  0.0396 -0.8390 -0.7041
10484TIP3   OH252942   5.834   4.012  11.510 -0.5296  0.0562  0.8096
10484TIP3    H152943   5.845   3.922  11.481 -1.9633  0.8906 -2.9823
10484TIP3    H252944   5.915   4.056  11.482 -1.2566  0.5534 -0.6312
10485TIP3   OH252945   3.975   2.904  10.543  0.0245 -0.4711 -0.5744
10485TIP3    H152946   4.050   2.911  10.484 -1.0245 -1.0708 -2.0361
10485TIP3    H252947   3.960   2.994  10.573  0.8851 -0.2354 -0.8074
10486TIP3   OH252948   3.249   5.759   2.168 -0.1757 -0.0637 -0.3940
10486TIP3    H152949   3.341   5.769   2.142  0.0076 -1.6057 -0.4076
10486TIP3    H252950   3.200   5.805   2.100  0.6284  2.4458  0.5944
10487TIP3   OH252951   0.032   4.037   3.297 -0.6264 -0.0569  0.3151
10487TIP3    H152952   0.024   4.126   3.332  1.0205 -0.1221  0.9740
10487TIP3    H252953   0.124   4.014   3.312 -0.6475 -1.2986 -1.2287
10488TIP3   OH252954   4.904   2.313  13.850  0.3124  0.1238 -0.0996
10488TIP3    H152955   4.969   2.244  13.867 -0.3487 -0.0964  1.7792
10488TIP3    H252956   4.828   2.287  13.901 -1.3040  0.3937 -2.2359
10489TIP3   OH252957   6.114   0.677  15.909  0.1368 -0.4482  0.4671
10489TIP3    H152958   6.205   0.648  15.903  0.5936  0.8611  0.5978
10489TIP3    H252959   6.116   0.767  15.875 -1.3514 -0.8362 -0.7357
10490TIP3   OH252960   4.147   3.217  11.518 -0.9628 -0.4309  0.1114
10490TIP3    H152961   4.091   3.157  11.468  0.4472 -1.1723 -0.6508
10490TIP3    H252962   4.149   3.297  11.466 -1.9631 -0.0894  0.5717
10491TIP3   OH252963   4.319   0.754   4.032 -0.0742 -0.4879  0.4432
10491TIP3    H152964   4.358   0.821   4.088 -1.5031  0.5068  0.3300
10491TIP3    H252965   4.298   0.682   4.091 -0.2338 -0.0467  0.9386
10492TIP3   OH252966   4.641   1.154   5.023 -0.3914 -0.1149  0.1581
10492TIP3    H152967   4.646   1.165   5.118 -3.3927  0.9603  0.3218
10492TIP3    H252968   4.673   1.236   4.987 -0.3318 -0.0710  0.3127
10493TIP3   OH252969   6.162   0.270  15.957 -0.2896  0.4016  0.6566
10493TIP3    H152970   6.191   0.292  15.868 -2.0452  0.6995  0.1128
10493TIP3    H252971   6.238   0.227  15.997 -0.5782 -3.4873 -2.3170
10494TIP3   OH252972   2.016   2.140   4.280  0.1830 -0.2114 -0.0191
10494TIP3    H152973   2.071   2.214   4.305 -0.1912  0.2436 -0.5247
10494TIP3    H252974   2.008   2.088   4.360  0.3438  0.3594  0.3739
10495TIP3   OH252975   6.740   4.410   2.735  0.1287  0.0676  0.2950
10495TIP3    H152976   6.714   4.489   2.784 -4.7399 -0.6756 -0.6461
10495TIP3    H252977   6.724   4.432   2.643  2.0712 -1.0018 -0.3695
10496TIP3   OH252978   0.888   4.624   3.344 -0.0336 -0.3882  0.3154
10496TIP3    H152979   0.899   4.627   3.249  0.6452 -1.0277  0.3697
10496TIP3    H252980   0.892   4.716   3.371  3.0181 -0.3491  0.0588
10497TIP3   OH252981   0.880   1.839  17.079 -0.3105  0.1288 -0.7599
10497TIP3    H152982   0.887   1.799  16.992 -2.6780 -0.7591 -0.6272
10497TIP3    H252983   0.862   1.931  17.062  0.5246  0.2262 -1.1620
10498TIP3   OH252984   0.387   3.192  13.765  0.0356 -0.1861 -0.3350
10498TIP3    H152985   0.296   3.161  13.774  0.6164 -1.2729  3.0266
10498TIP3    H252986   0.388   3.277  13.808  0.3261  0.5850 -1.8077
10499TIP3   OH252987   2.255   2.936  11.928  0.1153  0.1439 -0.4618
10499TIP3    H152988   2.350   2.935  11.913  0.0715 -0.2610 -0.7137
10499TIP3    H252989   2.243   2.997  12.001  0.7036 -0.8569  0.5053
10500TIP3   OH252990   1.351   1.850  11.295 -0.3742 -0.2467 -0.2310
10500TIP3    H152991   1.295   1.928  11.302  0.1853  0.4765 -2.9068
10500TIP3    H252992   1.426   1.869  11.351 -0.9164  0.4897  0.2713
10501TIP3   OH252993   5.147   6.286  17.109  0.6421  0.3916  0.3634
10501TIP3    H152994   5.099   6.328  17.038  0.6852  0.8388  0.5968
10501TIP3    H252995   5.124   6.336  17.187  1.7667  0.8441  0.4231
10502TIP3   OH252996   1.025   3.807  12.186  0.0958  0.3250 -0.2918
10502TIP3    H152997   0.935   3.820  12.217 -1.0080  0.1877 -3.1056
10502TIP3    H252998   1.016   3.794  12.092  2.9369 -1.5255 -0.4221
10503TIP3   OH252999   2.256   2.345   1.374 -0.0292 -0.2276 -0.4293
10503TIP3    H153000   2.254   2.386   1.461 -0.6287 -0.9024 -0.1129
10503TIP3    H253001   2.317   2.398   1.324 -1.7559  1.8526 -0.4505
10504TIP3   OH253002   1.656   0.338   0.241  0.6606  0.0037  0.0915
10504TIP3    H153003   1.571   0.326   0.198  0.0505 -0.1289  1.2861
10504TIP3    H253004   1.720   0.328   0.171 -0.3245  0.5342 -0.9164
10505TIP3   OH253005   1.307   0.326   6.445 -0.3130  0.0928 -0.1462
10505TIP3    H153006   1.331   0.249   6.393 -1.2730 -1.9584  2.2553
10505TIP3    H253007   1.388   0.377   6.451  0.4131 -0.8237 -1.5472
10506TIP3   OH253008   6.004   2.615  15.854 -0.1177  0.7759  0.6207
10506TIP3    H153009   5.942   2.583  15.920 -1.4871 -1.0658 -1.4429
10506TIP3    H253010   6.084   2.563  15.869 -0.0073  1.1831  1.5186
10507TIP3   OH253011   5.469   3.908  11.090  0.3347  0.0282 -0.0457
10507TIP3    H153012   5.488   3.944  11.003 -1.0527  0.1313 -0.3250
10507TIP3    H253013   5.487   3.814  11.081 -0.0648 -0.0067 -0.5326
10508TIP3   OH253014   4.065   6.605   4.136  0.0704 -0.0547 -0.0581
10508TIP3    H153015   4.012   6.577   4.211 -1.1627  1.2641 -0.3990
10508TIP3    H253016   4.034   6.550   4.064  1.5855 -1.6537  0.4555
10509TIP3   OH253017   6.408   1.122  11.197  0.2274  0.1356 -0.4187
10509TIP3    H153018   6.348   1.152  11.128  0.2130  1.7284  0.2581
10509TIP3    H253019   6.436   1.202  11.241  0.0002 -0.8716  1.6405
10510TIP3   OH253020   0.318   1.869  14.745  0.6633 -0.6704  0.3449
10510TIP3    H153021   0.385   1.937  14.735  2.1665 -2.2442 -0.9677
10510TIP3    H253022   0.320   1.847  14.838 -0.9017  2.0133  1.1170
10511TIP3   OH253023   0.638   6.382   4.795  0.2059  0.1967  0.1260
10511TIP3    H153024   0.719   6.386   4.845  1.2879  0.5301 -1.5899
10511TIP3    H253025   0.655   6.321   4.724 -0.6714  1.0716 -0.8842
10512TIP3   OH253026   2.168   0.631   5.224 -0.1384  0.2613 -0.5198
10512TIP3    H153027   2.248   0.609   5.272 -0.6872 -0.8708 -0.0775
10512TIP3    H253028   2.135   0.546   5.193 -0.0633  0.9203 -2.5090
10513TIP3   OH253029   4.426   4.041   1.507 -0.3858  0.1292  0.0678
10513TIP3    H153030   4.394   3.957   1.539 -1.3996  0.6533  0.4785
10513TIP3    H253031   4.427   4.098   1.584 -0.9908  0.8552 -0.4323
10514TIP3   OH253032   1.792   4.212  17.003  0.4481 -0.0576 -0.0235
10514TIP3    H153033   1.862   4.233  16.941 -0.2198 -0.6624 -1.0070
10514TIP3    H253034   1.822   4.132  17.046  1.2439  0.7563  0.9823
10515TIP3   OH253035   5.945   6.319   3.246  1.1382 -0.5602 -0.1937
10515TIP3    H153036   5.905   6.274   3.171  1.6875 -2.4194  0.5803
10515TIP3    H253037   6.014   6.373   3.208  0.0085  0.2293 -1.2158
10516TIP3   OH253038   4.640   3.994  15.281 -0.0065 -0.3180 -0.1761
10516TIP3    H153039   4.711   3.963  15.337 -1.6120  0.1793  2.2592
10516TIP3    H253040   4.656   4.088  15.272 -0.7602 -0.0498  1.0746
10517TIP3   OH253041   0.667   5.062   1.639 -0.5855 -0.6115 -0.2202
10517TIP3    H153042   0.575   5.082   1.661 -1.3070 -3.1766 -0.6163
10517TIP3    H253043   0.669   4.967   1.630  2.3114 -0.6968  0.5001
10518TIP3   OH253044   0.822   1.838  15.285 -0.0847  0.0106 -0.0339
10518TIP3    H153045   0.837   1.782  15.209  0.9231 -0.9464  0.8593
10518TIP3    H253046   0.880   1.805  15.353 -0.5733  1.1872  1.0084
10519TIP3   OH253047   4.725   0.621  13.880  0.6898 -0.4745  0.0264
10519TIP3    H153048   4.798   0.586  13.930  0.3428 -0.0571  0.8370
10519TIP3    H253049   4.652   0.562  13.900  1.0187 -1.4785 -1.5494
10520TIP3   OH253050   4.838   0.309  11.701  0.0236 -0.6214  0.0303
10520TIP3    H153051   4.924   0.309  11.657  0.2904 -1.9660  0.4944
10520TIP3    H253052   4.850   0.364  11.778  0.3422 -0.4374 -0.1498
10521TIP3   OH253053   4.681   5.869   6.239 -0.4122 -0.7124  0.7750
10521TIP3    H153054   4.619   5.935   6.208 -1.0536 -1.3252  0.7378
10521TIP3    H253055   4.735   5.848   6.163  0.3475  0.3584  0.9907
10522TIP3   OH253056   3.793   3.867  16.011 -0.2032  0.4398  0.4937
10522TIP3    H153057   3.871   3.921  16.006 -0.6349  0.9691 -1.1414
10522TIP3    H253058   3.786   3.843  16.104  1.5364  0.8732  0.7652
10523TIP3   OH253059   2.690   3.946   2.805  0.8027 -0.1963  0.4020
10523TIP3    H153060   2.686   4.031   2.761  0.0132 -0.4815 -0.0987
10523TIP3    H253061   2.625   3.952   2.875  1.1819 -0.1772  0.7563
10524TIP3   OH253062   6.077   1.846   0.037  0.1273 -0.0947  0.0658
10524TIP3    H153063   6.061   1.905   0.111 -0.5246 -0.4188  0.1901
10524TIP3    H253064   6.014   1.872  -0.029  0.2841 -0.2186 -0.1337
10525TIP3   OH253065   3.995   0.601  11.650 -0.4057  0.3255 -0.1028
10525TIP3    H153066   4.084   0.579  11.680 -0.7427 -0.5212  0.2980
10525TIP3    H253067   3.971   0.529  11.591 -1.1180  0.1559  0.3854
10526TIP3   OH253068   5.339   4.743  11.886 -0.0251 -0.4209 -0.1284
10526TIP3    H153069   5.296   4.706  11.809 -0.1909 -0.2811 -0.1041
10526TIP3    H253070   5.295   4.827  11.900 -2.4101 -1.8723  2.1354
10527TIP3   OH253071   5.803   0.760  15.148  0.4701 -0.1643 -0.2279
10527TIP3    H153072   5.872   0.807  15.101  0.3150  0.8879  0.5351
10527TIP3    H253073   5.815   0.668  15.124  0.2753  0.3338 -2.4398
10528TIP3   OH253074   5.398   6.539  13.674  0.8990 -0.0593 -0.4249
10528TIP3    H153075   5.372   6.448  13.661  0.7726 -0.1367  0.3383
10528TIP3    H253076   5.428   6.543  13.765  0.1630  0.8368 -0.2021
10529TIP3   OH253077   6.837   6.400  12.971 -0.0583  0.1294 -0.4270
10529TIP3    H153078   6.902   6.404  13.041 -0.2181  0.6807 -0.3093
10529TIP3    H253079   6.754   6.387  13.016 -0.0204 -0.7107 -0.5846
10530TIP3   OH253080   2.152   4.979   1.215 -0.1461  0.3036 -0.0407
10530TIP3    H153081   2.084   4.954   1.153 -2.5345  1.7281  1.8449
10530TIP3    H253082   2.155   5.075   1.210 -1.0446  0.5406  2.5543
10531TIP3   OH253083   6.433   2.169  13.441 -0.5555 -0.3862  0.0897
10531TIP3    H153084   6.479   2.096  13.399  0.5285  0.6910 -0.6791
10531TIP3    H253085   6.420   2.232  13.370 -0.8282  0.4665  0.8828
10532TIP3   OH253086   0.996   5.875  12.400 -0.0789 -0.4947  0.2580
10532TIP3    H153087   0.907   5.841  12.392 -1.1194  2.1064 -0.1957
10532TIP3    H253088   1.052   5.797  12.404 -2.2464 -2.1919 -0.8055
10533TIP3   OH253089   4.283   6.043   4.787 -0.6193 -0.1587 -0.2066
10533TIP3    H153090   4.330   6.108   4.736  0.3896 -0.6538  0.0645
10533TIP3    H253091   4.297   6.070   4.878 -1.5096  0.1148 -0.1384
10534TIP3   OH253092   4.801   5.691   1.466 -0.3894 -0.4880 -0.1163
10534TIP3    H153093   4.751   5.696   1.548  1.0883 -1.9201  0.9385
10534TIP3    H253094   4.833   5.779   1.451  0.4407 -0.4722  1.6068
10535TIP3   OH253095   1.809   2.045  11.372  0.1021  0.0724 -0.3935
10535TIP3    H153096   1.855   2.031  11.455  0.3782  0.2695 -0.5090
10535TIP3    H253097   1.812   2.139  11.359 -3.1143  0.5078  1.1553
10536TIP3   OH253098   2.953   3.658   5.587  0.3412 -0.2447 -0.1217
10536TIP3    H153099   2.878   3.683   5.533  0.2320 -0.8272 -0.2474
10536TIP3    H253100   2.984   3.740   5.625 -0.3159  0.0098 -0.1301
10537TIP3   OH253101   5.464   5.203  10.913 -0.4999  0.0040  0.1323
10537TIP3    H153102   5.373   5.227  10.894 -1.4556 -0.7639  3.1789
10537TIP3    H253103   5.473   5.114  10.878 -0.7243  0.2779 -0.6461
10538TIP3   OH253104   5.412   0.864  11.596  0.3828 -0.4647 -0.1104
10538TIP3    H153105   5.503   0.832  11.601  0.5853 -0.0754 -1.0129
10538TIP3    H253106   5.407   0.933  11.661  0.3863 -1.2750  0.7750
10539TIP3   OH253107   6.131   1.871  13.203 -0.2793 -0.1394  0.6220
10539TIP3    H153108   6.047   1.916  13.211 -0.2545  1.4865 -4.5865
10539TIP3    H253109   6.119   1.810  13.130  2.7246 -0.5670  0.3418
10540TIP3   OH253110   0.281   0.593   6.533  0.0633 -0.5121 -0.3366
10540TIP3    H153111   0.245   0.558   6.614 -0.2049  0.5135 -0.0049
10540TIP3    H253112   0.373   0.565   6.534  0.3125  0.2975  0.7913
10541TIP3   OH253113   5.519   0.584   2.345  0.1752 -0.1050  0.3332
10541TIP3    H153114   5.551   0.622   2.427  2.4277  3.7751 -2.0420
10541TIP3    H253115   5.572   0.505   2.333  1.1465  0.2953  1.7470
10542TIP3   OH253116   5.761   0.596  13.448  0.1293 -0.5343  0.0561
10542TIP3    H153117   5.831   0.627  13.505  0.3235 -0.7964 -0.0350
10542TIP3    H253118   5.682   0.603  13.501 -0.4381  3.2748 -1.0146
10543TIP3   OH253119   0.269   2.951   0.978  0.5898  0.4636 -0.5058
10543TIP3    H153120   0.291   2.890   1.049  1.0368  0.0460 -0.9935
10543TIP3    H253121   0.315   2.916   0.902 -0.9213  0.1560 -1.3198
10544TIP3   OH253122   4.465   5.388   0.619 -0.2197  0.1734 -0.1061
10544TIP3    H153123   4.411   5.457   0.657 -1.1456 -0.3202 -0.4934
10544TIP3    H253124   4.474   5.413   0.527 -2.0028 -1.0665 -0.6629
10545TIP3   OH253125   6.736   5.369  16.293  0.1449 -0.0456  0.2236
10545TIP3    H153126   6.708   5.451  16.254  0.1916 -0.3072 -0.3603
10545TIP3    H253127   6.693   5.301  16.242 -2.0297 -0.3714  2.3180
10546TIP3   OH253128   0.201   2.074   0.764 -0.4718 -0.2651 -0.2085
10546TIP3    H153129   0.257   2.151   0.757 -2.1737  0.8575 -3.4199
10546TIP3    H253130   0.260   2.004   0.792  1.9431  1.4031 -0.8199
10547TIP3   OH253131   6.362   5.518   0.072 -0.3221  0.4975 -1.2691
10547TIP3    H153132   6.346   5.455   0.001 -0.4203  0.2715 -1.0479
10547TIP3    H253133   6.284   5.513   0.126  0.5493 -0.7595 -0.0613
10548TIP3   OH253134   0.872   3.870  16.574 -0.1893 -0.1066  0.2870
10548TIP3    H153135   0.842   3.891  16.662 -0.7534 -1.1969  0.3730
10548TIP3    H253136   0.808   3.808  16.540 -1.7218  2.4984 -2.0566
10549TIP3   OH253137   4.555   5.987  14.040 -0.1830  0.1196  0.2638
10549TIP3    H153138   4.567   5.945  13.955  2.0403  0.7147  0.2202
10549TIP3    H253139   4.637   6.033  14.056  1.3212 -3.3720  4.6168
10550TIP3   OH253140   3.021   4.743   5.642 -0.5351 -0.5607  0.5053
10550TIP3    H153141   3.075   4.796   5.701 -2.5080  0.1233  1.8010
10550TIP3    H253142   3.084   4.688   5.595  1.4383  1.4623  0.5752
10551TIP3   OH253143   6.634   3.522  11.550  0.5511  0.3022 -0.1632
10551TIP3    H153144   6.579   3.533  11.627 -1.6307 -1.4361 -1.3444
10551TIP3    H253145   6.585   3.565  11.480  0.6309 -1.2823 -1.2470
10552TIP3   OH253146   2.219   6.313  13.950 -0.7857  0.0575  0.0534
10552TIP3    H153147   2.192   6.222  13.964  1.9297 -0.7255  0.8737
10552TIP3    H253148   2.308   6.306  13.914 -0.1796  2.3940  0.9251
10553TIP3   OH253149   3.525   1.311  16.710  0.0041  0.1437 -0.7394
10553TIP3    H153150   3.493   1.240  16.766 -0.7165 -0.2127 -1.5748
10553TIP3    H253151   3.464   1.383  16.726  0.4292  0.4038 -0.2766
10554TIP3   OH253152   3.977   4.508   5.332  0.2085 -0.3452 -0.4402
10554TIP3    H153153   3.948   4.448   5.263 -1.4038 -0.0389 -0.0755
10554TIP3    H253154   3.898   4.555   5.357  0.8360 -0.1627  1.3338
10555TIP3   OH253155   2.892   2.638   4.784  0.3462 -0.2397  0.5413
10555TIP3    H153156   2.923   2.562   4.735  1.7619 -0.0659  1.1235
10555TIP3    H253157   2.926   2.713   4.736 -0.2015 -0.0029  0.5225
10556TIP3   OH253158   2.231   4.271   4.442 -0.2842 -0.6168 -0.4400
10556TIP3    H153159   2.153   4.301   4.396  0.6969 -0.5919 -2.2201
10556TIP3    H253160   2.229   4.316   4.526 -1.1425  0.9648 -1.2582
10557TIP3   OH253161   1.234   4.022   2.200 -0.2512 -0.4422 -0.0523
10557TIP3    H153162   1.172   4.042   2.130  0.4689  1.2280 -0.2706
10557TIP3    H253163   1.193   4.056   2.279 -0.3110 -0.7859  0.0661
10558TIP3   OH253164   1.982   5.963  14.907  0.1598  0.3592 -0.0778
10558TIP3    H153165   1.892   5.957  14.939 -0.2418  1.8446 -0.8387
10558TIP3    H253166   2.035   5.923  14.976 -0.9921  0.2936  0.7978
10559TIP3   OH253167   5.454   1.198   4.929 -0.1305  0.0237  0.1341
10559TIP3    H153168   5.512   1.223   5.001  1.9360 -1.3900 -0.9481
10559TIP3    H253169   5.490   1.116   4.896 -2.3530 -0.5540 -1.1010
10560TIP3   OH253170   2.885   0.342   0.232  0.5824  0.5264 -0.4008
10560TIP3    H153171   2.936   0.416   0.199 -0.2192  1.0168 -0.5533
10560TIP3    H253172   2.914   0.268   0.180  0.1987  1.0617 -1.4016
10561TIP3   OH253173   1.208   0.983  10.722 -0.9731  0.6889  0.6116
10561TIP3    H153174   1.147   0.963  10.793  0.4536 -1.3384  1.3547
10561TIP3    H253175   1.165   0.949  10.643 -0.7855 -0.8366  1.1445
10562TIP3   OH253176   2.335   4.108   1.721 -0.1227 -0.4795 -0.4751
10562TIP3    H153177   2.398   4.035   1.725 -0.3202 -0.6175  1.9277
10562TIP3    H253178   2.264   4.076   1.665  0.4178 -1.6081 -0.5422
10563TIP3   OH253179   0.979   1.202  15.296 -0.1461 -0.4112 -0.2176
10563TIP3    H153180   0.961   1.126  15.241 -0.7045 -0.0145 -0.6142
10563TIP3    H253181   1.068   1.190  15.327 -0.1628 -1.1272 -0.4282
10564TIP3   OH253182   4.583   1.382  15.582  0.0049  0.0888 -0.1396
10564TIP3    H153183   4.521   1.447  15.614 -0.3399  0.1852 -0.9816
10564TIP3    H253184   4.528   1.306  15.559  0.2277  0.0629 -0.5952
10565TIP3   OH253185   0.364   1.426   0.756 -0.1942  0.6024  0.1019
10565TIP3    H153186   0.453   1.443   0.724 -0.2905 -0.5831 -0.8798
10565TIP3    H253187   0.332   1.511   0.784  1.6625  0.8865  1.5828
10566TIP3   OH253188   3.653   6.699  15.672  0.0258  0.3667  0.0387
10566TIP3    H153189   3.589   6.715  15.602 -0.4726 -0.0457  0.3942
10566TIP3    H253190   3.694   6.616  15.647  0.5555  0.7282 -0.2885
10567TIP3   OH253191   0.101   1.449   1.664  0.4694  0.3318 -0.5173
10567TIP3    H153192   0.150   1.369   1.650 -0.5143 -0.0408 -2.1579
10567TIP3    H253193   0.136   1.486   1.745  1.2478 -1.5111  0.0241
10568TIP3   OH253194   6.707   1.492  10.933 -0.2680 -0.4063  0.4582
10568TIP3    H153195   6.760   1.562  10.970  1.5687 -0.7275 -1.4342
10568TIP3    H253196   6.737   1.413  10.978 -1.2771 -0.2325  1.4968
10569TIP3   OH253197   0.047   5.293   5.110 -0.3910 -0.3787  0.0797
10569TIP3    H153198   0.019   5.303   5.201 -1.6887  1.4158 -0.4586
10569TIP3    H253199  -0.027   5.249   5.067 -0.4897  0.2907 -0.4414
10570TIP3   OH253200   2.776   3.607  15.032 -0.5796 -0.2453 -0.3632
10570TIP3    H153201   2.709   3.591  15.098 -2.4584  2.2356 -1.4672
10570TIP3    H253202   2.858   3.587  15.075 -1.9056 -1.6275  1.6853
10571TIP3   OH253203   6.727   2.509  11.918 -0.1530  0.1190 -0.3014
10571TIP3    H153204   6.722   2.479  11.828  1.2132  0.2160 -0.4269
10571TIP3    H253205   6.700   2.434  11.971 -1.3205  0.1765 -0.7804
10572TIP3   OH253206   1.240   3.225  16.072  0.5169  0.3231  0.1268
10572TIP3    H153207   1.180   3.187  16.008 -0.2328  0.4527  0.7422
10572TIP3    H253208   1.227   3.319  16.064  0.3283  0.3325  0.5640
10573TIP3   OH253209   4.860   5.045   2.901  0.3122 -0.0996  0.2586
10573TIP3    H153210   4.793   4.989   2.940 -1.1884  2.0876  1.0175
10573TIP3    H253211   4.937   5.033   2.958 -0.0887 -1.0805  0.6166
10574TIP3   OH253212   1.693   2.632  15.848 -0.6614  0.0977  0.5267
10574TIP3    H153213   1.727   2.715  15.814 -0.0243 -0.4216 -0.1469
10574TIP3    H253214   1.769   2.574  15.852 -1.2495 -0.7377  0.0954
10575TIP3   OH253215   6.711   6.626  16.656 -0.1127  0.2532 -0.4756
10575TIP3    H153216   6.687   6.591  16.570 -1.7155 -0.0506  0.0530
10575TIP3    H253217   6.651   6.582  16.717  0.2936  1.2216  0.6632
10576TIP3   OH253218   1.218   3.497   4.950  0.0758 -0.1224  0.0320
10576TIP3    H153219   1.161   3.465   5.021 -2.6495  1.8067 -1.1162
10576TIP3    H253220   1.216   3.427   4.885  1.8307 -1.4973  1.3492
10577TIP3   OH253221   4.625   1.407  16.527  0.3620 -0.0740  0.9580
10577TIP3    H153222   4.719   1.393  16.524  0.8174  2.5849 -0.4036
10577TIP3    H253223   4.614   1.479  16.589 -0.7455 -0.1483  0.8682
10578TIP3   OH253224   1.398   6.024  13.236 -0.5175  0.1937  0.6335
10578TIP3    H153225   1.364   5.935  13.241  0.0815 -0.1616 -0.8773
10578TIP3    H253226   1.493   6.015  13.249 -0.5014  0.6639  0.8864
10579TIP3   OH253227   3.916   6.794  12.908  0.1120  0.4174 -0.2214
10579TIP3    H153228   3.931   6.843  12.827  1.5518  2.5540  1.2555
10579TIP3    H253229   3.961   6.844  12.976  0.7730 -2.4162  1.5995
10580TIP3   OH253230   0.384   6.375   0.586  0.1589 -0.4001  0.3945
10580TIP3    H153231   0.394   6.451   0.643  0.6638  0.7074 -1.1094
10580TIP3    H253232   0.377   6.412   0.498 -1.6949 -1.9888 -0.1859
10581TIP3   OH253233   0.568   1.247   4.278  0.1847 -0.4116  0.4786
10581TIP3    H153234   0.518   1.208   4.206 -0.7805  1.1827  0.2286
10581TIP3    H253235   0.636   1.183   4.298  0.1244 -1.1415 -1.4713
10582TIP3   OH253236   1.851   1.188  14.628 -0.0944 -0.1045  0.0485
10582TIP3    H153237   1.778   1.125  14.627  0.7963 -1.3478 -3.4551
10582TIP3    H253238   1.840   1.237  14.547  1.2486  1.9091  1.0244
10583TIP3   OH253239   3.365   5.448   1.281  0.1429 -0.6616 -0.5548
10583TIP3    H153240   3.307   5.372   1.292  0.6363 -1.1787 -1.3823
10583TIP3    H253241   3.375   5.457   1.186 -0.8765  1.2061 -0.5089
10584TIP3   OH253242   5.183   4.120  14.781  0.3417 -0.0971  0.4337
10584TIP3    H153243   5.235   4.071  14.845  2.2092  0.5226 -0.5402
10584TIP3    H253244   5.208   4.211  14.795 -1.6573  0.4249  0.9267
10585TIP3   OH253245   5.270   4.119   1.106 -0.0927  0.0244  0.4513
10585TIP3    H153246   5.316   4.202   1.098  0.2878 -0.2215  0.0943
10585TIP3    H253247   5.290   4.072   1.025 -1.1526  0.0066  0.1848
10586TIP3   OH253248   3.852   1.667  16.318 -0.0891  0.2853 -0.5222
10586TIP3    H153249   3.759   1.685  16.333 -0.2456 -0.1285 -0.9792
10586TIP3    H253250   3.878   1.613  16.393 -0.0028  1.0666  0.0337
10587TIP3   OH253251   5.341   4.011   2.871 -0.5846 -0.2565  0.2275
10587TIP3    H153252   5.307   4.096   2.896 -0.4765  0.3573 -1.5558
10587TIP3    H253253   5.266   3.952   2.878 -0.6394 -0.0455  1.5491
10588TIP3   OH253254   3.677   4.725   1.334 -0.2817 -0.2506 -0.0349
10588TIP3    H153255   3.721   4.688   1.410  1.1146  0.4628 -0.4637
10588TIP3    H253256   3.596   4.763   1.369  1.2110  1.7331  1.4798
10589TIP3   OH253257   0.448   3.361   3.544  0.4147 -0.4441 -0.1735
10589TIP3    H153258   0.434   3.343   3.637 -3.5885 -1.8511 -0.8497
10589TIP3    H253259   0.543   3.370   3.536  1.0641 -1.5088  3.8074
10590TIP3   OH253260   0.120   1.158   5.045  0.2432 -0.3363 -0.3853
10590TIP3    H153261   0.026   1.177   5.040  0.4639  1.1174  0.3096
10590TIP3    H253262   0.131   1.116   5.130  0.3484  0.5094  0.0363
10591TIP3   OH253263   4.261   3.222   3.429  0.0202 -0.4915  0.2986
10591TIP3    H153264   4.347   3.250   3.459  0.4348  0.0744 -1.3110
10591TIP3    H253265   4.276   3.139   3.385 -0.4175 -0.8416  0.7947
10592TIP3   OH253266   3.025   4.354   0.553  0.0280 -0.3123  0.0321
10592TIP3    H153267   2.960   4.311   0.609 -0.0823 -0.7518 -0.4214
10592TIP3    H253268   3.095   4.380   0.613  0.6024 -2.0851  0.1945
10593TIP3   OH253269   2.650   6.487   2.286  0.1293 -0.1247  0.2622
10593TIP3    H153270   2.564   6.476   2.325  0.9562 -0.4147  2.0837
10593TIP3    H253271   2.666   6.405   2.239 -0.3373 -0.3030  0.4176
10594TIP3   OH253272   1.388   1.866   2.159 -0.0332  0.0013  0.0615
10594TIP3    H153273   1.341   1.783   2.170  2.2005 -1.4599 -0.7284
10594TIP3    H253274   1.438   1.875   2.240 -1.8740  1.7911  1.1032
10595TIP3   OH253275   5.748   0.206  15.397 -0.0154  0.0097 -0.1134
10595TIP3    H153276   5.692   0.188  15.321  0.1495  1.1582 -0.5155
10595TIP3    H253277   5.700   0.169  15.471 -1.2711  0.8609 -0.4690
10596TIP3   OH253278   2.278   0.355   3.666 -0.5358  0.0997  0.0551
10596TIP3    H153279   2.303   0.443   3.693 -2.2460  0.2081  1.4902
10596TIP3    H253280   2.184   0.362   3.649 -0.2092 -0.8203 -2.6528
10597TIP3   OH253281   1.908   1.391   4.254 -0.1215  0.2185 -0.0409
10597TIP3    H153282   1.965   1.326   4.212  3.2933  0.7617  3.1583
10597TIP3    H253283   1.850   1.340   4.310 -1.1623 -0.2435 -1.4999
10598TIP3   OH253284   3.793   0.994   0.056  0.0212 -0.0508 -0.0243
10598TIP3    H153285   3.841   1.059   0.108  1.6562  0.2852 -1.8717
10598TIP3    H253286   3.841   0.912   0.071  0.0137 -0.1179 -0.3782
10599TIP3   OH253287   3.014   1.396   0.670  0.2814 -0.3269  0.0335
10599TIP3    H153288   3.001   1.490   0.657 -0.4722 -0.4518 -0.1223
10599TIP3    H253289   2.926   1.360   0.680  0.5037 -1.1726 -0.9311
10600TIP3   OH253290   5.683   1.810  12.967 -0.5309  0.2959  0.1320
10600TIP3    H153291   5.663   1.878  13.031  1.1065 -0.5249  1.5709
10600TIP3    H253292   5.763   1.840  12.924 -0.2861 -0.3011  0.1609
10601TIP3   OH253293   2.206   3.441   5.605 -0.8586 -0.3368 -0.1962
10601TIP3    H153294   2.180   3.531   5.625 -2.4029 -1.2387  2.4367
10601TIP3    H253295   2.123   3.393   5.600 -0.0770 -1.6112 -1.7822
10602TIP3   OH253296   1.513   6.556  16.543 -0.2751  0.2710 -0.2738
10602TIP3    H153297   1.553   6.469  16.532  0.0221  0.3623  0.0588
10602TIP3    H253298   1.442   6.558  16.479  1.3695  0.7975 -2.1968
10603TIP3   OH253299   1.009   0.431  14.164  0.5070 -0.4284 -0.1807
10603TIP3    H153300   1.086   0.420  14.219 -0.0116 -0.0409  0.6541
10603TIP3    H253301   0.949   0.362  14.193  0.4000 -0.5047 -0.5750
10604TIP3   OH253302   6.219   6.657   2.978 -0.6327 -0.0871 -0.1852
10604TIP3    H153303   6.229   6.734   3.034 -0.6131  0.3249 -0.7426
10604TIP3    H253304   6.215   6.583   3.038 -2.9715  0.5345  0.5188
10605TIP3   OH253305   4.637   0.238   4.444 -0.1298  0.0037 -0.0124
10605TIP3    H153306   4.615   0.328   4.420  2.0143  0.8769  1.1050
10605TIP3    H253307   4.593   0.224   4.528  1.0268  0.7006  0.7377
10606TIP3   OH253308   2.984   1.059   3.848  0.3470 -0.4574 -0.1914
10606TIP3    H153309   3.080   1.055   3.853  0.2839 -1.7080  0.8130
10606TIP3    H253310   2.959   1.109   3.926  0.2618  2.8572 -2.1966
10607TIP3   OH253311   0.257   1.131   0.259  0.2805  0.2381  0.6664
10607TIP3    H153312   0.217   1.135   0.346  0.2678 -4.6081  1.1597
10607TIP3    H253313   0.184   1.144   0.198  0.0857  2.4316  1.2506
10608TIP3   OH253314   3.807   5.554   3.958 -0.4089 -0.3294  0.1746
10608TIP3    H153315   3.883   5.496   3.960 -0.1484 -0.0180 -0.5655
10608TIP3    H253316   3.841   5.639   3.986 -0.0390  0.2835 -1.9291
10609TIP3   OH253317   2.656   3.643   1.478  0.3301 -0.5077  0.0996
10609TIP3    H153318   2.699   3.695   1.411  1.4552 -1.2227  0.2355
10609TIP3    H253319   2.716   3.647   1.553 -0.3403 -0.6849  0.6579
10610TIP3   OH253320   6.515   4.104   0.010  0.6032 -0.3369 -0.6557
10610TIP3    H153321   6.501   4.189   0.052  1.1189 -1.2595  1.5446
10610TIP3    H253322   6.594   4.116  -0.043  1.8623  0.0846  1.2151
10611TIP3   OH253323   3.592   1.322   0.351 -0.9744  0.1585 -0.5213
10611TIP3    H153324   3.533   1.386   0.390 -0.0992  0.7234 -0.0947
10611TIP3    H253325   3.556   1.237   0.377 -1.7253  0.4829 -0.4711
10612TIP3   OH253326   5.838   5.796  13.077  0.0556  0.4578 -0.3373
10612TIP3    H153327   5.869   5.771  13.164 -1.6098 -1.3971 -0.2075
10612TIP3    H253328   5.754   5.837  13.092 -0.4371 -0.2391 -1.0727
10613TIP3   OH253329   0.509   0.484  12.938  0.0610  0.1037 -0.2850
10613TIP3    H153330   0.516   0.448  12.850 -1.9011 -1.0605 -0.0341
10613TIP3    H253331   0.466   0.569  12.926 -0.8851 -0.3773 -0.4271
10614TIP3   OH253332   2.079   6.638  15.150  0.1839 -0.4935  0.2484
10614TIP3    H153333   2.098   6.582  15.224 -0.6755 -2.0821 -0.6913
10614TIP3    H253334   2.060   6.724  15.189 -1.1916 -1.5052  1.9579
10615TIP3   OH253335   5.503   6.147  11.714  0.3372 -0.3502  0.4341
10615TIP3    H153336   5.568   6.173  11.649 -1.1309  2.7230 -0.0275
10615TIP3    H253337   5.421   6.141  11.665 -0.3180 -0.7674  1.5377
10616TIP3   OH253338   5.850   4.836   2.594 -0.2495  0.4637  0.3522
10616TIP3    H153339   5.915   4.871   2.533 -0.1423  0.7588  0.6314
10616TIP3    H253340   5.867   4.883   2.676 -0.3859  0.0656  0.6110
10617TIP3   OH253341   2.312   3.574  10.326 -0.3927 -0.1091  0.3538
10617TIP3    H153342   2.385   3.597  10.383  2.4671  0.5606 -3.2460
10617TIP3    H253343   2.316   3.479  10.318 -0.9764 -0.2351  1.3729
10618TIP3   OH253344   0.364   3.949  13.325 -0.2563 -0.2931  0.1123
10618TIP3    H153345   0.306   3.902  13.265  2.4764 -1.6977 -1.6233
10618TIP3    H253346   0.358   3.901  13.407  0.1491 -1.8314 -0.7225
10619TIP3   OH253347   0.865   5.457   0.777 -0.0974  0.0720  0.6034
10619TIP3    H153348   0.871   5.361   0.777  0.1789  0.0907  0.1889
10619TIP3    H253349   0.946   5.487   0.736 -0.3323  0.4772  0.4265
10620TIP3   OH253350   3.762   1.914  11.986  0.0808 -0.0377 -0.2334
10620TIP3    H153351   3.754   2.009  11.999 -0.2512 -0.2804  1.7727
10620TIP3    H253352   3.723   1.898  11.901 -0.5145  1.5555 -0.3022
10621TIP3   OH253353   1.955   0.511  17.150 -0.3235 -0.3538 -0.1582
10621TIP3    H153354   2.003   0.592  17.131  0.7842 -0.8092  0.6268
10621TIP3    H253355   1.904   0.495  17.071  0.8335  0.1375 -1.0395
10622TIP3   OH253356   2.670   5.288   0.283 -0.2695  0.5381 -0.0932
10622TIP3    H153357   2.629   5.370   0.311  0.4649  0.9037 -0.0736
10622TIP3    H253358   2.633   5.221   0.340  0.9985  1.2200  1.5890
10623TIP3   OH253359   5.809   4.961  14.132 -0.4677  0.1796  0.3209
10623TIP3    H153360   5.741   4.933  14.071 -1.1006  1.0943  0.5902
10623TIP3    H253361   5.790   4.914  14.213 -0.3498 -0.0946  0.1939
10624TIP3   OH253362   5.826   0.147   0.281 -0.0566 -0.0788 -0.2475
10624TIP3    H153363   5.871   0.172   0.200  0.7536 -1.0593 -0.1181
10624TIP3    H253364   5.733   0.159   0.262  0.2053  2.5957 -0.3307
10625TIP3   OH253365   6.079   6.689  14.372 -0.2964  0.2334 -0.5268
10625TIP3    H153366   6.095   6.688  14.466 -0.6805 -1.8380 -0.4341
10625TIP3    H253367   6.052   6.599  14.351  1.0740  0.2768 -2.8299
10626TIP3   OH253368   0.273   1.132  11.246 -0.2821  0.4394 -0.7086
10626TIP3    H153369   0.308   1.144  11.158 -1.1402 -1.5429 -1.3568
10626TIP3    H253370   0.195   1.188  11.249 -0.3538  0.3689 -1.2615
10627TIP3   OH253371   1.731   2.478   0.308 -0.3845 -0.3168 -0.0725
10627TIP3    H153372   1.680   2.423   0.368  0.1503 -1.4324 -0.6089
10627TIP3    H253373   1.805   2.509   0.361 -0.4645 -0.4617  0.1254
10628TIP3   OH253374   1.382   3.428  14.242 -0.1005 -0.7932  0.1552
10628TIP3    H153375   1.392   3.354  14.301  1.2166 -2.1215 -1.6051
10628TIP3    H253376   1.421   3.398  14.160 -1.6398  1.0241 -1.3375
10629TIP3   OH253377   5.601   6.431  13.200  0.4809 -0.0960  0.2630
10629TIP3    H153378   5.511   6.410  13.224  0.8673 -0.2803  1.5940
10629TIP3    H253379   5.641   6.347  13.179  0.1723  0.0533 -1.0012
10630TIP3   OH253380   1.275   3.233   5.485  0.4144 -0.1786  0.0950
10630TIP3    H153381   1.245   3.232   5.576  2.4553 -2.1167  0.8400
10630TIP3    H253382   1.341   3.302   5.482 -0.3239  0.5271 -0.1849
10631TIP3   OH253383   0.558   1.253  15.293 -0.0981  0.0340 -0.3525
10631TIP3    H153384   0.628   1.294  15.344 -0.7614  1.5764 -0.6230
10631TIP3    H253385   0.587   1.260  15.202 -1.8237  3.4976 -0.8141
10632TIP3   OH253386   2.884   4.229  14.765  0.2323 -0.2241 -1.0585
10632TIP3    H153387   2.930   4.207  14.846  0.9763  0.7659 -1.1930
10632TIP3    H253388   2.867   4.144  14.723 -0.5255 -0.7697  0.3132
10633TIP3   OH253389   1.504   1.499   4.255  0.0089  0.1792 -0.0795
10633TIP3    H153390   1.583   1.488   4.308  0.0898 -1.6831 -0.5251
10633TIP3    H253391   1.485   1.411   4.221 -2.2233  0.5890 -0.0340
10634TIP3   OH253392   1.981   4.539   0.226 -0.0852  0.0186  0.0636
10634TIP3    H153393   1.960   4.526   0.133  0.4663 -0.4680 -0.0022
10634TIP3    H253394   2.040   4.614   0.227  0.1560 -0.1690 -0.0135
10635TIP3   OH253395   3.389   2.266  10.771 -0.3400  0.1876  0.5169
10635TIP3    H153396   3.312   2.311  10.737 -0.8561 -0.3199  0.9874
10635TIP3    H253397   3.353   2.195  10.825  0.4535 -0.3026  0.4164
10636TIP3   OH253398   0.619   5.006  16.617 -0.1171 -0.3559 -0.3252
10636TIP3    H153399   0.620   4.916  16.584  0.0934 -0.4388 -0.0984
10636TIP3    H253400   0.598   4.997  16.710 -0.9712 -0.1021 -0.4851
10637TIP3   OH253401   2.909   4.170  15.049  0.1639  0.0152  0.4040
10637TIP3    H153402   2.876   4.081  15.057 -1.0598  0.5140  1.1851
10637TIP3    H253403   2.874   4.216  15.125  2.6609  0.6227  1.2929
10638TIP3   OH253404   4.006   3.228   4.641  0.1292 -0.3061  0.3928
10638TIP3    H153405   3.931   3.216   4.583  1.6788 -2.0525 -1.3806
10638TIP3    H253406   4.049   3.143   4.644  2.4644  0.8019  0.7355
10639TIP3   OH253407   2.594   6.313   0.513  0.0331 -0.7304 -0.9004
10639TIP3    H153408   2.552   6.228   0.500 -1.6493  0.0991 -1.1191
10639TIP3    H253409   2.537   6.359   0.575  1.0672  0.1453 -0.5619
10640TIP3   OH253410   4.833   5.085  13.286 -0.4276  0.0781 -0.4813
10640TIP3    H153411   4.860   5.175  13.268 -1.3528  0.3572 -0.5554
10640TIP3    H253412   4.796   5.054  13.203  0.6921 -0.6869 -0.7144
10641TIP3   OH253413   3.897   6.588  17.011 -0.5647 -0.2868  0.6753
10641TIP3    H153414   3.925   6.545  17.092 -0.8210  0.3327  1.0965
10641TIP3    H253415   3.979   6.608  16.965 -0.4557 -2.0667  0.0150
10642TIP3   OH253416   1.468   3.378  13.151 -0.3725  0.0611  0.0685
10642TIP3    H153417   1.532   3.406  13.217 -0.6937  1.2572 -0.1010
10642TIP3    H253418   1.520   3.329  13.087 -0.0519 -1.1182  1.1761
10643TIP3   OH253419   2.456   1.393  11.966  0.3002 -0.1271  0.5276
10643TIP3    H153420   2.395   1.319  11.969 -1.4140  1.1117 -1.0229
10643TIP3    H253421   2.542   1.353  11.958 -0.3646 -1.9489  1.7949
10644TIP3   OH253422   2.597   6.063  12.987 -0.4328  0.0617 -0.3439
10644TIP3    H153423   2.510   6.035  13.016 -1.0761  2.7230  0.5638
10644TIP3    H253424   2.657   6.004  13.033 -1.6992 -0.3404  0.8781
10645TIP3   OH253425   6.133   3.459  15.366 -0.2387 -0.3095  0.3077
10645TIP3    H153426   6.146   3.443  15.272  0.0672  0.3595  0.2350
10645TIP3    H253427   6.204   3.412  15.409 -0.2192 -0.3890  0.1884
10646TIP3   OH253428   0.635   0.814  13.330 -0.1931  0.3247  0.3986
10646TIP3    H153429   0.683   0.748  13.379  0.3259  0.7303  0.4448
10646TIP3    H253430   0.703   0.868  13.290 -0.5016 -1.2796 -2.6077
10647TIP3   OH253431   6.315   2.188   1.238  0.2499 -0.6425  0.0735
10647TIP3    H153432   6.349   2.255   1.178 -0.0506 -0.0518  0.5544
10647TIP3    H253433   6.365   2.201   1.319  0.9680 -1.7237 -0.1734
10648TIP3   OH253434   5.354   4.420  14.405  0.2884  0.6521  0.1016
10648TIP3    H153435   5.345   4.438  14.499  0.1536  0.7081  0.0781
10648TIP3    H253436   5.272   4.379  14.380  0.0841  1.1752 -0.1139
10649TIP3   OH253437   6.520   3.705  12.158  0.3429 -0.0894 -0.4081
10649TIP3    H153438   6.615   3.714  12.147  0.2629 -0.3675 -1.3696
10649TIP3    H253439   6.488   3.795  12.158  0.7483  0.0991  1.4651
10650TIP3   OH253440   1.425   5.731  15.227 -0.0747  0.3580  0.0195
10650TIP3    H153441   1.394   5.732  15.318 -0.1052  2.5593  0.0361
10650TIP3    H253442   1.426   5.823  15.201  1.6483 -0.0721 -1.6460
10651TIP3   OH253443   5.904   5.620  11.001  0.0208 -0.0553  0.4570
10651TIP3    H153444   5.815   5.655  11.005 -0.5395 -1.0654 -1.5915
10651TIP3    H253445   5.927   5.626  10.908  1.9761 -0.1095  0.9085
10652TIP3   OH253446   5.148   4.391   5.605 -0.1488 -0.3443 -0.4401
10652TIP3    H153447   5.053   4.403   5.602 -0.0042  0.7795 -1.4735
10652TIP3    H253448   5.178   4.414   5.517  1.0043 -1.5724 -0.3980
10653TIP3   OH253449   0.511   4.731   5.882  0.4819 -0.4138  0.2984
10653TIP3    H153450   0.434   4.720   5.826 -1.1478  0.5739  2.2208
10653TIP3    H253451   0.500   4.665   5.951  0.7675  0.4557  1.1922
10654TIP3   OH253452   4.480   6.653  14.285 -0.0924 -0.6930 -0.6031
10654TIP3    H153453   4.506   6.706  14.210  1.0433 -0.0017  0.2493
10654TIP3    H253454   4.387   6.673  14.298  0.5242  1.9409  0.3238
10655TIP3   OH253455   5.421   0.918   3.353 -0.3456  1.1423 -0.0685
10655TIP3    H153456   5.335   0.957   3.333 -0.9826 -0.7013 -1.1436
10655TIP3    H253457   5.438   0.859   3.281  1.2990  0.5629  0.7475
10656TIP3   OH253458   0.635   1.447  14.698  0.3331  0.4676  0.2878
10656TIP3    H153459   0.639   1.532  14.742  0.3053  0.4336  0.3552
10656TIP3    H253460   0.726   1.419  14.692  0.4602  1.0637 -0.8161
10657TIP3   OH253461   5.945   5.009   2.801  0.1803 -0.2902 -0.6049
10657TIP3    H153462   5.929   5.102   2.786  0.5627 -0.2411 -0.7207
10657TIP3    H253463   6.029   5.007   2.848  0.5200 -0.6093 -1.2179
10658TIP3   OH253464   0.668   3.180  15.651  0.1567 -0.6809 -0.0476
10658TIP3    H153465   0.593   3.239  15.639  0.0742 -0.5497  0.9634
10658TIP3    H253466   0.740   3.223  15.605 -0.2007 -0.4100 -0.3632
10659TIP3   OH253467   6.694   3.379   0.730  0.2191 -0.1137 -0.4506
10659TIP3    H153468   6.659   3.296   0.761 -0.7829  0.5151  0.1708
10659TIP3    H253469   6.710   3.430   0.810 -0.8826  0.9412 -0.8614
10660TIP3   OH253470   6.447   3.558  14.817  0.0541 -0.5641  0.9751
10660TIP3    H153471   6.490   3.475  14.801  0.2949 -0.2102 -0.2885
10660TIP3    H253472   6.355   3.543  14.793  0.2126 -0.3188  0.1786
10661TIP3   OH253473   4.220   2.489  16.579  0.1765  0.1281  0.3081
10661TIP3    H153474   4.293   2.489  16.642  0.1077  1.5619  0.4106
10661TIP3    H253475   4.263   2.489  16.494  0.2989  0.8636  0.3666
10662TIP3   OH253476   2.320   6.195   3.765  0.3220  0.9535 -0.0352
10662TIP3    H153477   2.414   6.196   3.749  0.2441  1.4296 -0.4912
10662TIP3    H253478   2.300   6.283   3.795 -0.5263  2.0434 -3.3523
10663TIP3   OH253479   5.296   5.404  14.044  0.3318 -0.0167  0.1468
10663TIP3    H153480   5.373   5.353  14.071  1.5522  1.7384  0.1899
10663TIP3    H253481   5.315   5.430  13.953  0.8564  2.2208  0.8380
10664TIP3   OH253482   1.719   4.499  14.999 -0.1138  0.3528  0.0016
10664TIP3    H153483   1.737   4.560  14.927  0.3379  0.0999 -0.1048
10664TIP3    H253484   1.804   4.460  15.019 -0.9330 -3.1001 -2.4923
10665TIP3   OH253485   4.070   3.001   6.222 -0.0805 -0.8259 -0.2031
10665TIP3    H153486   4.160   3.019   6.198 -0.4407  0.4448 -0.6829
10665TIP3    H253487   4.021   3.079   6.194 -1.5452 -2.0403 -1.1839
10666TIP3   OH253488   0.368   5.364  13.005  0.2187 -0.3183  0.2584
10666TIP3    H153489   0.299   5.317  12.959 -0.4096  0.7191  0.1148
10666TIP3    H253490   0.371   5.450  12.963  0.1066  0.4101  1.7023
10667TIP3   OH253491   3.474   2.468   2.332 -0.4442  0.1802  0.0778
10667TIP3    H153492   3.438   2.541   2.281  0.4267  0.1348 -0.6487
10667TIP3    H253493   3.431   2.391   2.297 -0.9605  0.2945  0.4618
10668TIP3   OH253494   0.487   6.266  14.413  0.3051 -0.5991 -0.2291
10668TIP3    H153495   0.557   6.318  14.374 -1.1169  0.1600 -1.9454
10668TIP3    H253496   0.529   6.184  14.439  2.0791  0.3710  0.0983
10669TIP3   OH253497   3.837   4.865  14.210 -0.0015 -0.3517  0.1906
10669TIP3    H153498   3.837   4.769  14.209 -0.4787 -0.3636 -0.8533
10669TIP3    H253499   3.745   4.888  14.199  0.2369  0.2036 -0.7804
10670TIP3   OH253500   5.206   4.721   2.082  0.3752  0.7391 -0.3759
10670TIP3    H153501   5.239   4.810   2.077 -2.0100  1.6662 -0.8008
10670TIP3    H253502   5.182   4.709   2.174  0.0138  0.8156 -0.4577
10671TIP3   OH253503   6.159   2.814   3.424 -0.0758  0.0304 -0.1237
10671TIP3    H153504   6.080   2.808   3.369  0.0125  1.3507 -0.4232
10671TIP3    H253505   6.225   2.764   3.376 -0.1842  0.6113 -0.8914
10672TIP3   OH253506   4.534   5.613   5.906 -0.5407  0.4124  0.3597
10672TIP3    H153507   4.485   5.680   5.953 -2.1526 -1.3516  1.3321
10672TIP3    H253508   4.530   5.536   5.963  2.4192 -0.1734 -0.0626
10673TIP3   OH253509   0.858   3.236  14.262 -0.1513  0.1260  0.3661
10673TIP3    H153510   0.907   3.297  14.206  0.3030  0.0716  0.7013
10673TIP3    H253511   0.925   3.180  14.300 -0.6643 -1.5638 -1.0753
10674TIP3   OH253512   2.174   0.655  13.574  0.0453  0.2457 -0.3777
10674TIP3    H153513   2.180   0.589  13.644  0.1810 -0.4883 -1.0617
10674TIP3    H253514   2.123   0.612  13.505 -0.6949  1.2153 -0.4596
10675TIP3   OH253515   3.501   1.202   3.489 -0.0900 -0.6684  0.3798
10675TIP3    H153516   3.579   1.257   3.478 -1.8515  1.7492 -0.8522
10675TIP3    H253517   3.527   1.116   3.455  1.7638  0.2985 -0.8134
10676TIP3   OH253518   3.822   2.679   3.238 -0.5418  0.6880  0.6119
10676TIP3    H153519   3.812   2.745   3.306 -0.2156  1.6256 -0.2344
10676TIP3    H253520   3.886   2.617   3.275 -2.4072 -0.3520  2.2750
10677TIP3   OH253521   2.137   4.629   5.180  0.1612  0.4209  0.0222
10677TIP3    H153522   2.088   4.605   5.101  0.2135  1.7097 -0.4243
10677TIP3    H253523   2.229   4.624   5.152  0.1612  2.1938 -0.4488
10678TIP3   OH253524   6.429   3.894  16.867 -0.2141 -0.2892 -0.1391
10678TIP3    H153525   6.361   3.888  16.934  0.6551  0.9031  0.9192
10678TIP3    H253526   6.383   3.922  16.788 -1.3908 -2.5248 -0.3006
10679TIP3   OH253527   0.456   3.676   4.729 -0.3240 -0.2284  0.4636
10679TIP3    H153528   0.547   3.690   4.754 -0.4518 -0.7708  1.3002
10679TIP3    H253529   0.457   3.595   4.678 -0.2924 -0.0350  0.1539
10680TIP3   OH253530   1.402   6.323   5.035  0.4314 -0.1312  0.0499
10680TIP3    H153531   1.399   6.376   5.115 -0.4391  1.1716 -0.8223
10680TIP3    H253532   1.341   6.366   4.975  1.0343 -1.1160 -1.3118
10681TIP3   OH253533   0.031   6.677   6.083 -0.7985  0.1872 -0.1724
10681TIP3    H153534   0.052   6.749   6.023  1.4728  0.5882  0.9805
10681TIP3    H253535   0.073   6.702   6.166 -0.8704 -1.9686  0.5776
10682TIP3   OH253536   1.437   0.384  15.797 -0.0018 -0.6134 -0.3944
10682TIP3    H153537   1.390   0.417  15.873  2.1220 -1.7713  1.5137
10682TIP3    H253538   1.433   0.456  15.734 -2.1201  0.2444  0.6104
10683TIP3   OH253539   2.739   1.692  11.779  0.0892 -0.8266  0.0860
10683TIP3    H153540   2.823   1.738  11.788  0.4726 -1.7307  1.3939
10683TIP3    H253541   2.728   1.680  11.685  0.8469  0.3321 -0.1771
10684TIP3   OH253542   3.864   4.744   3.688 -0.1380 -0.3340  0.3538
10684TIP3    H153543   3.883   4.838   3.688 -0.6222 -0.2319  0.3604
10684TIP3    H253544   3.905   4.711   3.608 -2.0046  0.3177 -0.9273
10685TIP3   OH253545   3.705   2.809  11.201  0.1271  0.1840 -0.4159
10685TIP3    H153546   3.671   2.855  11.124 -0.0062  2.6069  0.9909
10685TIP3    H253547   3.665   2.722  11.197 -1.9777  1.1258 -1.6808
10686TIP3   OH253548   0.958   2.257  12.240  0.0379 -0.2727 -0.2517
10686TIP3    H153549   0.898   2.319  12.198 -1.1975 -1.0601  0.2896
10686TIP3    H253550   0.997   2.208  12.168  0.2117  0.4186 -0.6263
10687TIP3   OH253551   1.589   3.541   0.336 -0.0483 -0.1360  0.2554
10687TIP3    H153552   1.575   3.634   0.357 -2.1428 -0.6394  1.4710
10687TIP3    H253553   1.534   3.526   0.259  1.3556 -0.1088 -0.7892
10688TIP3   OH253554   1.028   1.514   1.905 -0.0010 -0.0242  0.0543
10688TIP3    H153555   1.090   1.569   1.856 -0.1960  0.7952  0.6959
10688TIP3    H253556   1.081   1.468   1.969 -0.1109  1.1289  1.0001
10689TIP3   OH253557   5.812   1.643  12.020 -0.5036  0.6871  0.5099
10689TIP3    H153558   5.791   1.568  11.964 -0.0067 -0.3826  1.7095
10689TIP3    H253559   5.731   1.660  12.068 -0.5452  0.7801  0.4079
10690TIP3   OH253560   3.810   1.131   5.076 -0.1973  0.9120 -0.0530
10690TIP3    H153561   3.737   1.088   5.120  1.7091 -0.8431  1.6036
10690TIP3    H253562   3.814   1.218   5.116  0.2938  0.0319  1.8791
10691TIP3   OH253563   0.194   1.797   0.546  0.4491  0.1668  0.3688
10691TIP3    H153564   0.117   1.766   0.498 -0.2035 -1.0857  2.1148
10691TIP3    H253565   0.213   1.726   0.608  1.9848  1.1870  1.1140
10692TIP3   OH253566   2.419   1.030   4.018 -0.4160  0.0784 -0.0405
10692TIP3    H153567   2.508   1.014   4.050 -0.4170 -0.3694 -0.2582
10692TIP3    H253568   2.401   0.956   3.960 -0.8827  0.2354 -0.0953
10693TIP3   OH253569   2.891   4.110   1.836  0.1487 -0.3693 -0.2715
10693TIP3    H153570   2.892   4.032   1.891  0.5318 -0.6723 -0.7026
10693TIP3    H253571   2.910   4.078   1.748  2.1571  0.4214 -0.1784
10694TIP3   OH253572   4.773   1.423  15.799  0.0419 -0.6764 -0.1535
10694TIP3    H153573   4.699   1.378  15.757 -1.6520  1.8611 -0.1602
10694TIP3    H253574   4.776   1.508  15.755  0.8696  0.5296  2.0876
10695TIP3   OH253575   1.194   6.677  16.681  0.4220  0.0674 -0.2224
10695TIP3    H153576   1.272   6.709  16.726  0.9549 -3.3403  1.6932
10695TIP3    H253577   1.219   6.591  16.648 -2.3473 -0.9874  0.0868
10696TIP3   OH253578   4.041   0.348  11.485  0.7705  0.2031 -0.0542
10696TIP3    H153579   3.946   0.333  11.488  0.9466 -1.1302 -0.5478
10696TIP3    H253580   4.062   0.346  11.392  1.4547 -0.7281  0.1064
10697TIP3   OH253581   0.430   5.911  14.969  0.1725  0.4504  0.5121
10697TIP3    H153582   0.424   5.971  15.042  0.1301  0.6041  0.3828
10697TIP3    H253583   0.509   5.937  14.922 -0.0729  0.6779  0.2185
10698TIP3   OH253584   5.818   3.335   3.229 -0.4347 -0.1747 -0.1206
10698TIP3    H153585   5.724   3.330   3.213 -0.3446  2.4961 -2.1269
10698TIP3    H253586   5.852   3.251   3.197 -2.0112 -0.7755 -0.2990
10699TIP3   OH253587   4.746   0.375  14.974  0.1660 -0.3196  1.0776
10699TIP3    H153588   4.749   0.471  14.968 -0.9198 -0.3346 -0.2198
10699TIP3    H253589   4.694   0.348  14.899  0.1552 -1.9223  1.6229
10700TIP3   OH253590   4.837   5.308   4.244  0.5411  0.0812 -0.0218
10700TIP3    H153591   4.834   5.400   4.217  1.2674 -0.6895 -3.1342
10700TIP3    H253592   4.916   5.302   4.297  1.0810  1.0873 -0.6558
10701TIP3   OH253593   5.989   1.512   5.758 -0.3482  0.6226 -0.1167
10701TIP3    H153594   5.916   1.494   5.699  1.0164  0.9871 -2.0187
10701TIP3    H253595   6.065   1.521   5.700  1.4965 -1.0917  1.8397
10702TIP3   OH253596   3.790   1.280   0.977  0.2341  0.0483 -0.8723
10702TIP3    H153597   3.850   1.262   1.049  1.3576 -0.6754 -1.9354
10702TIP3    H253598   3.763   1.371   0.990  0.0182 -0.2213  0.7107
10703TIP3   OH253599   2.467   0.902   4.936  0.3485  0.7773 -0.2675
10703TIP3    H153600   2.462   0.811   4.964  1.6506  0.6549 -0.3855
10703TIP3    H253601   2.389   0.915   4.882 -0.0188 -0.1626  0.0159
10704TIP3   OH253602   3.399   1.048  12.643  0.5663 -0.1325  0.2186
10704TIP3    H153603   3.361   0.985  12.582  0.6448 -2.8720  2.7855
10704TIP3    H253604   3.329   1.065  12.707  0.7613  1.9783 -0.0501
10705TIP3   OH253605   2.960   1.884  16.607  0.2726  0.0751  0.1535
10705TIP3    H153606   2.895   1.929  16.553  0.5449  1.6890  1.1148
10705TIP3    H253607   2.911   1.813  16.650 -0.4485  0.2054 -0.4233
10706TIP3   OH253608   3.326   2.218  14.921 -0.3728  0.3408  0.1633
10706TIP3    H153609   3.318   2.309  14.891 -0.5229 -0.1596 -1.4307
10706TIP3    H253610   3.418   2.197  14.908 -0.4398  0.1112  0.0655
10707TIP3   OH253611   4.028   5.854  10.188  0.5987 -0.3614 -0.0249
10707TIP3    H153612   4.000   5.921  10.127  0.9188 -0.7322 -0.5919
10707TIP3    H253613   4.115   5.882  10.216  0.4004 -0.1248  0.3711
10708TIP3   OH253614   0.526   4.256  14.053  0.3199 -0.1978  0.4859
10708TIP3    H153615   0.604   4.307  14.030  0.5098 -0.7505 -0.1401
10708TIP3    H253616   0.462   4.277  13.985  0.4037 -0.7909  0.2187
10709TIP3   OH253617   6.597   1.423  14.669 -0.3337 -0.3344  0.1365
10709TIP3    H153618   6.676   1.380  14.700  0.2697 -0.9185 -2.0010
10709TIP3    H253619   6.629   1.502  14.624 -0.9786 -0.3759 -0.4181
10710TIP3   OH253620   0.967   4.550   2.014  0.5565  0.0302  0.3122
10710TIP3    H153621   0.980   4.469   2.064 -2.3305 -0.6841  0.0863
10710TIP3    H253622   1.049   4.598   2.025  1.6541 -2.0399  2.0775
10711TIP3   OH253623   5.103   0.796  10.508  0.0256 -0.4904  0.2847
10711TIP3    H153624   5.155   0.824  10.433  0.5152 -0.0105  0.7909
10711TIP3    H253625   5.031   0.858  10.512 -1.0829 -1.6202 -0.8944
10712TIP3   OH253626   2.579   0.659  14.437  0.3813  0.1995  0.1723
10712TIP3    H153627   2.672   0.653  14.460  0.7731  0.9877 -1.1581
10712TIP3    H253628   2.567   0.749  14.408 -0.9009  0.2160  0.6895
10713TIP3   OH253629   3.337   0.272  13.871  0.1091 -0.6985  0.0161
10713TIP3    H153630   3.367   0.191  13.912 -0.2297 -0.2370  1.2243
10713TIP3    H253631   3.376   0.342  13.925 -0.6497 -0.0783 -0.2193
10714TIP3   OH253632   2.780   3.130  16.077 -0.5191 -0.1648 -0.0258
10714TIP3    H153633   2.802   3.038  16.063  0.0284 -0.0790  0.2530
10714TIP3    H253634   2.849   3.163  16.135 -0.9859  0.2942  0.2774
10715TIP3   OH253635   1.796   0.845  12.935 -0.1258  0.7883 -0.7389
10715TIP3    H153636   1.796   0.894  12.853  1.5280  1.3682 -0.4388
10715TIP3    H253637   1.817   0.911  13.002 -0.9760  0.2350  0.1066
10716TIP3   OH253638   0.981   0.273  12.090  0.1371  0.2320  0.3056
10716TIP3    H153639   1.016   0.361  12.099 -0.3110  0.4812 -0.3740
10716TIP3    H253640   1.035   0.220  12.148  1.2145  0.7269 -0.2279
10717TIP3   OH253641   0.464   0.843   4.813  0.4551  0.1350  0.0574
10717TIP3    H153642   0.375   0.874   4.831  0.4920 -0.2624  0.9985
10717TIP3    H253643   0.461   0.810   4.724 -0.0998  0.9953 -0.2540
10718TIP3   OH253644   1.545   4.557  13.324 -0.3773 -0.3513 -0.1983
10718TIP3    H153645   1.501   4.570  13.408  0.6732 -0.3777  0.3732
10718TIP3    H253646   1.485   4.503  13.274 -1.6363  0.8110  0.0111
10719TIP3   OH253647   0.329   5.195   4.040 -0.2126  0.3897  0.7130
10719TIP3    H153648   0.332   5.255   4.115 -0.7364  2.2747 -0.7200
10719TIP3    H253649   0.350   5.250   3.965 -4.2922 -0.3426 -1.1822
10720TIP3   OH253650   4.652   6.356  16.152  0.4195  0.3446  0.0964
10720TIP3    H153651   4.646   6.390  16.242  0.8460 -0.3490  0.3900
10720TIP3    H253652   4.572   6.304  16.141  1.6165 -1.8359  1.0508
10721TIP3   OH253653   2.478   4.957   4.264  0.1328  0.1463  0.2941
10721TIP3    H153654   2.519   4.878   4.230 -0.8855 -1.0979  1.7707
10721TIP3    H253655   2.548   5.021   4.270  1.0922 -0.8058 -0.4770
10722TIP3   OH253656   2.853   6.152  11.974  0.4007 -0.4698  0.4224
10722TIP3    H153657   2.844   6.211  12.049 -0.5435 -2.5354  2.0329
10722TIP3    H253658   2.770   6.103  11.972  1.4668 -2.3522 -0.2802
10723TIP3   OH253659   6.605   3.632   0.098 -0.1808 -0.1600  0.3811
10723TIP3    H153660   6.565   3.550   0.127  0.5941 -0.4642  0.6219
10723TIP3    H253661   6.603   3.627   0.002  1.0171 -1.0624  0.3723
10724TIP3   OH253662   0.642   4.969   2.003  0.4611  0.0605 -0.3165
10724TIP3    H153663   0.627   5.063   1.994  1.2205  0.5140  2.2674
10724TIP3    H253664   0.735   4.958   1.982  0.2188 -0.2368 -1.2608
10725TIP3   OH253665   3.412   0.878  12.977 -0.1324  0.8242 -0.1406
10725TIP3    H153666   3.332   0.928  12.963  0.1588  1.4000  0.2309
10725TIP3    H253667   3.471   0.908  12.908  0.3905  1.7379  0.6867
10726TIP3   OH253668   4.489   4.229  14.057 -0.7028  0.3334  0.3054
10726TIP3    H153669   4.489   4.248  14.151 -0.0365  1.3851  0.1052
10726TIP3    H253670   4.536   4.302  14.018 -0.9402 -0.1168 -0.8517
10727TIP3   OH253671   6.785   6.061   2.364 -0.2246 -0.0086  0.0770
10727TIP3    H153672   6.869   6.016   2.358 -0.7041 -1.0014  0.6403
10727TIP3    H253673   6.751   6.059   2.275  0.6586  1.0684 -0.3197
10728TIP3   OH253674   1.692   3.817   3.898 -0.0828  0.5049  0.6123
10728TIP3    H153675   1.762   3.879   3.919  0.7738  0.3989 -1.5954
10728TIP3    H253676   1.732   3.758   3.834 -1.7157 -0.5979  0.5645
10729TIP3   OH253677   1.570   6.724  13.023 -0.2954  0.3015 -0.0381
10729TIP3    H153678   1.557   6.738  13.117  0.4764 -0.0549  0.1278
10729TIP3    H253679   1.594   6.810  12.989  0.9785  0.1218  0.3706
10730TIP3   OH253680   5.994   5.980  12.921  0.2030 -0.3442 -0.1845
10730TIP3    H153681   5.942   5.938  12.989 -1.0436 -1.5015 -1.7435
10730TIP3    H253682   6.077   6.002  12.963 -0.1144 -1.9820  1.4206
10731TIP3   OH253683   6.257   6.526  11.837 -0.3216  0.0590 -0.0787
10731TIP3    H153684   6.223   6.437  11.831  1.2596 -0.5453 -0.8380
10731TIP3    H253685   6.244   6.563  11.749  2.9491 -1.0242 -1.1649
10732TIP3   OH253686   6.270   0.480   1.272  0.0401 -0.0837 -0.0706
10732TIP3    H153687   6.234   0.392   1.280 -1.0062  0.4188  1.1793
10732TIP3    H253688   6.218   0.532   1.333  1.0710  1.2692 -0.3100
10733TIP3   OH253689   5.096   4.449  13.364 -0.5846 -0.3242  0.2306
10733TIP3    H153690   5.151   4.393  13.418  2.0927 -0.9378 -2.7959
10733TIP3    H253691   5.043   4.388  13.313 -1.2580  0.1314  0.3727
10734TIP3   OH253692   3.783   5.876  10.995 -0.7860 -0.7676 -0.1045
10734TIP3    H153693   3.838   5.836  10.927 -1.0804 -0.5110 -0.4964
10734TIP3    H253694   3.705   5.820  10.998 -0.7975 -0.7461 -0.0193
10735TIP3   OH253695   0.807   0.592   0.138  0.4125 -0.1736  0.4476
10735TIP3    H153696   0.850   0.546   0.211 -1.3122  0.2509  1.8022
10735TIP3    H253697   0.732   0.636   0.178 -0.3716  0.4169 -1.5379
10736TIP3   OH253698   1.901   4.368  11.776 -0.0708  0.2422 -0.4072
10736TIP3    H153699   1.829   4.401  11.721 -0.7017  0.6276  0.6199
10736TIP3    H253700   1.972   4.430  11.762  0.1148 -0.1917 -1.5028
10737TIP3   OH253701   3.313   2.990   0.097 -0.1181  0.0332 -0.2523
10737TIP3    H153702   3.227   2.948   0.087  0.5715 -1.1135 -1.8522
10737TIP3    H253703   3.374   2.929   0.056  1.3390  1.3158 -0.0850
10738TIP3   OH253704   3.115   3.941   4.668  0.0520  0.5253  0.3130
10738TIP3    H153705   3.170   3.886   4.724  0.7726  1.4485  0.5254
10738TIP3    H253706   3.157   3.939   4.582 -0.9323 -0.7104 -0.1799
10739TIP3   OH253707   4.996   5.913  14.417  0.0441 -0.1847  0.2754
10739TIP3    H153708   5.054   5.989  14.425  0.2887 -0.4771  1.5220
10739TIP3    H253709   4.908   5.950  14.430  0.0064  0.1136 -0.7052
10740TIP3   OH253710   6.353   3.773   5.315  0.0806  0.2783 -0.4386
10740TIP3    H153711   6.386   3.684   5.300 -1.2932 -0.4200  0.4743
10740TIP3    H253712   6.265   3.760   5.348  0.0302  1.9909  0.1641
10741TIP3   OH253713   2.461   1.648   0.874  0.0572 -0.5549  0.4487
10741TIP3    H153714   2.547   1.649   0.918 -0.2121  2.0039  1.0883
10741TIP3    H253715   2.415   1.723   0.911 -1.1463  0.2633 -2.4627
10742TIP3   OH253716   3.509   1.181  14.118  0.1180 -0.5179 -0.5994
10742TIP3    H153717   3.521   1.139  14.203 -0.0279 -1.7771 -1.1740
10742TIP3    H253718   3.488   1.109  14.058 -0.1478  0.3832 -1.6321
10743TIP3   OH253719   3.945   3.734  16.806  0.6138  0.2032  0.3626
10743TIP3    H153720   3.856   3.762  16.789  0.2922 -0.9081  0.1150
10743TIP3    H253721   3.970   3.684  16.729  0.2069 -2.3545  1.7642
10744TIP3   OH253722   4.921   1.545  13.274  0.1098  0.5085  0.0637
10744TIP3    H153723   5.015   1.563  13.271 -0.0841  1.6846  0.3322
10744TIP3    H253724   4.887   1.580  13.192  0.0962 -1.2481 -0.7051
10745TIP3   OH253725   3.524   4.047   4.125 -0.6013  0.0126 -0.0797
10745TIP3    H153726   3.470   4.061   4.202 -0.2787 -2.3197  0.6603
10745TIP3    H253727   3.485   3.971   4.082  0.5910 -0.1665 -0.9148
10746TIP3   OH253728   3.402   2.809   5.612 -0.7166 -0.1937 -0.8080
10746TIP3    H153729   3.496   2.826   5.619 -0.6794 -0.9325  1.3135
10746TIP3    H253730   3.361   2.894   5.629 -0.4843  0.6226 -3.8551
10747TIP3   OH253731   4.763   1.445   5.149  0.2754 -0.3501  0.4741
10747TIP3    H153732   4.797   1.476   5.233  1.7449 -1.0811  0.1944
10747TIP3    H253733   4.834   1.391   5.114 -0.0061  0.5329 -1.5819
10748TIP3   OH253734   3.889   3.103   4.431  1.1071 -0.7591  0.7150
10748TIP3    H153735   3.839   3.048   4.492 -2.3129  2.3123  0.9963
10748TIP3    H253736   3.907   3.046   4.356 -1.2240 -2.5862  1.4384
10749TIP3   OH253737   4.933   2.565  14.934 -0.0891  0.4194 -0.2392
10749TIP3    H153738   4.938   2.509  15.012  0.3532 -0.4366 -0.8634
10749TIP3    H253739   5.023   2.566  14.900  0.2456  2.6810  0.5406
10750TIP3   OH253740   0.995   0.960   1.574  0.1688  0.5619 -0.1792
10750TIP3    H153741   0.969   0.931   1.661 -0.5997  0.4267 -0.4436
10750TIP3    H253742   0.922   1.015   1.544 -1.0481 -1.7663 -1.9126
10751TIP3   OH253743   0.772   3.506   0.200  0.9510  0.4427  0.0328
10751TIP3    H153744   0.795   3.584   0.150 -0.6314  2.0870  1.7053
10751TIP3    H253745   0.824   3.436   0.160 -1.0180  1.2751 -4.6809
10752TIP3   OH253746   2.774   0.240  11.758 -0.3500  0.6034  0.0424
10752TIP3    H153747   2.823   0.280  11.686 -0.3422 -0.9835 -0.8806
10752TIP3    H253748   2.755   0.151  11.727 -0.7115  0.0218  1.8353
10753TIP3   OH253749   4.510   0.379   1.721 -1.0001 -0.0623  0.0676
10753TIP3    H153750   4.436   0.420   1.765 -1.0558 -0.5560  0.4489
10753TIP3    H253751   4.470   0.325   1.653 -0.9018  0.9014 -0.7770
10754TIP3   OH253752   6.828   6.112  15.120  0.3683 -0.0801  0.5317
10754TIP3    H153753   6.834   6.182  15.184  0.2176  1.1478 -0.7528
10754TIP3    H253754   6.875   6.038  15.160  1.7656  1.1844  1.3114
10755TIP3   OH253755   6.157   6.264  11.557 -0.1773  0.6039  0.3463
10755TIP3    H153756   6.225   6.319  11.520  0.2708 -0.0833  0.1477
10755TIP3    H253757   6.196   6.177  11.564 -1.2939  0.0060 -0.5476
10756TIP3   OH253758   5.822   3.147  10.554 -0.3350  0.5758 -0.3427
10756TIP3    H153759   5.900   3.176  10.505  0.4541  2.0010  1.6112
10756TIP3    H253760   5.847   3.062  10.591 -0.3089  0.2976 -0.9835
10757TIP3   OH253761   2.405   6.338   1.683 -0.2219  0.3527 -0.2943
10757TIP3    H153762   2.458   6.401   1.635  1.2793 -0.8812 -0.3393
10757TIP3    H253763   2.320   6.339   1.639  0.4580  0.7721 -1.6523
10758TIP3   OH253764   4.201   4.445  13.028  0.8553 -0.4201  0.2046
10758TIP3    H153765   4.124   4.496  13.054  0.4576  1.8405 -4.2943
10758TIP3    H253766   4.275   4.499  13.054  0.5410  0.9288 -1.4890
10759TIP3   OH253767   3.235   6.581   2.106  0.5517 -0.1921  0.1532
10759TIP3    H153768   3.320   6.616   2.133 -0.3257  1.0613  1.4050
10759TIP3    H253769   3.241   6.578   2.010  1.9678 -0.0457  0.2091
10760TIP3   OH253770   0.228   2.313  11.676  0.1333 -0.2044 -0.0537
10760TIP3    H153771   0.260   2.275  11.757 -1.5129 -0.3748  0.5509
10760TIP3    H253772   0.261   2.403  11.676  2.4143 -0.9713 -0.5543
10761TIP3   OH253773   5.541   1.639  14.700  0.0379  0.1794  0.0990
10761TIP3    H153774   5.458   1.592  14.690  0.1403  0.2697 -1.4305
10761TIP3    H253775   5.515   1.730  14.717 -0.2135  0.3321 -0.9881
10762TIP3   OH253776   0.932   4.187  11.268 -0.6233  0.2309 -0.2670
10762TIP3    H153777   0.932   4.278  11.297  1.6328  0.0126  0.7137
10762TIP3    H253778   0.897   4.190  11.179 -0.5214  2.0687 -0.2920
10763TIP3   OH253779   5.264   4.307  13.008  0.4400 -0.6964 -0.1102
10763TIP3    H153780   5.266   4.230  13.065 -0.8787 -0.9986 -0.4423
10763TIP3    H253781   5.171   4.329  13.000  0.8373  1.5765  0.8040
10764TIP3   OH253782   4.652   4.060  16.032  0.2180 -0.3975 -0.2187
10764TIP3    H153783   4.687   4.001  16.099 -0.2512  0.0464  0.4367
10764TIP3    H253784   4.671   4.016  15.949  1.5197 -0.5879  0.1535
10765TIP3   OH253785   3.701   6.154   3.890  0.1005 -0.3306 -0.2494
10765TIP3    H153786   3.691   6.085   3.955  0.5050  1.4618  1.8323
10765TIP3    H253787   3.671   6.233   3.934  0.1947  0.9595 -2.3389
10766TIP3   OH253788   4.672   1.728   2.553  0.2687  0.4728  0.8797
10766TIP3    H153789   4.674   1.632   2.552  2.1761  0.4538 -0.7700
10766TIP3    H253790   4.593   1.751   2.504 -0.0582 -0.2637  1.0546
10767TIP3   OH253791   0.242   2.449   5.609  0.2191 -0.2782  0.1865
10767TIP3    H153792   0.288   2.454   5.525  0.9370  1.0755  0.6376
10767TIP3    H253793   0.155   2.484   5.591  0.6703  0.8932  0.1871
10768TIP3   OH253794   6.277   5.033   2.567 -0.4997  0.4427  0.2952
10768TIP3    H153795   6.355   4.989   2.534 -0.5073 -1.1661  2.2220
10768TIP3    H253796   6.294   5.126   2.553  2.5183  0.2854  2.0771
10769TIP3   OH253797   3.986   3.952   2.800 -0.0194  0.1923 -0.2458
10769TIP3    H153798   3.891   3.945   2.804 -0.0311  0.8051  0.7629
10769TIP3    H253799   4.018   3.864   2.817 -0.3951  0.0127 -0.4597
10770TIP3   OH253800   0.605   3.019   0.499  0.0185  0.6073  0.5419
10770TIP3    H153801   0.573   3.031   0.589  0.7279  3.1008  0.5107
10770TIP3    H253802   0.691   2.979   0.510 -0.8939 -1.4245  0.8125
10771TIP3   OH253803   0.557   4.078   1.874 -0.2679  0.4789 -0.6865
10771TIP3    H153804   0.523   4.158   1.916  0.4599  0.6955 -0.4949
10771TIP3    H253805   0.619   4.110   1.809  0.3849  0.0603 -0.2866
10772TIP3   OH253806   5.188   2.646  15.249  0.3654 -0.5634 -0.5148
10772TIP3    H153807   5.278   2.618  15.263  0.5328  0.4043  0.5891
10772TIP3    H253808   5.135   2.569  15.270  0.7617 -0.0222  3.1691
10773TIP3   OH253809   1.286   5.160   2.626  0.0189  0.2697 -0.3800
10773TIP3    H153810   1.278   5.209   2.708 -0.1529 -0.1307 -0.1564
10773TIP3    H253811   1.282   5.227   2.557  1.8591  0.8126 -0.0141
10774TIP3   OH253812   4.606   1.309  13.116  0.6404  0.1037 -0.3424
10774TIP3    H153813   4.618   1.344  13.205 -0.1072  0.3265 -0.3256
10774TIP3    H253814   4.511   1.309  13.103  0.4974 -2.7979  0.0058
10775TIP3   OH253815   3.050   6.356   3.877 -0.3044  0.4975  0.6249
10775TIP3    H153816   2.994   6.391   3.808 -0.9968 -0.9704  0.4144
10775TIP3    H253817   3.019   6.267   3.890  1.3377 -0.0162  1.2177
10776TIP3   OH253818   3.163   2.823  11.529 -0.1354 -0.4585  0.3548
10776TIP3    H153819   3.190   2.912  11.507  0.2605 -0.7034 -0.1650
10776TIP3    H253820   3.243   2.771  11.523 -0.0346 -0.5865  2.2004
10777TIP3   OH253821   1.250   1.144   2.592 -0.1518  0.1102 -0.1940
10777TIP3    H153822   1.239   1.053   2.564  0.7891 -0.6448  1.7437
10777TIP3    H253823   1.178   1.159   2.653 -0.0093  0.5197 -0.1274
10778TIP3   OH253824   2.577   3.018  12.305  0.0934 -0.3253 -0.1028
10778TIP3    H153825   2.639   2.965  12.255  0.4763  1.0593 -1.1331
10778TIP3    H253826   2.630   3.055  12.376  0.0323 -0.5644  0.0703
10779TIP3   OH253827   2.590   1.697   2.931  0.5341  0.5451 -0.1953
10779TIP3    H153828   2.590   1.640   2.855  0.5782 -0.3810  0.4798
10779TIP3    H253829   2.537   1.651   2.996  2.0411  0.3958  0.9830
10780TIP3   OH253830   5.928   1.086   2.814 -0.1260  0.2569  0.4031
10780TIP3    H153831   5.854   1.132   2.853 -2.0878 -2.1590 -0.1938
10780TIP3    H253832   5.992   1.079   2.885 -1.1251  1.0349  1.4164
10781TIP3   OH253833   5.901   5.709  15.718  0.1767  0.3125 -0.0130
10781TIP3    H153834   5.932   5.632  15.671 -1.5219  0.8170 -2.0562
10781TIP3    H253835   5.965   5.777  15.696  0.1432  0.1997 -0.4627
10782TIP3   OH253836   2.753   0.689   1.661 -0.2131 -0.0333 -0.0162
10782TIP3    H153837   2.703   0.634   1.601  0.8824 -2.0198  0.8195
10782TIP3    H253838   2.686   0.734   1.713 -1.2541 -2.8336  1.2841
10783TIP3   OH253839   6.321   2.509  13.005 -0.1580  0.0889  0.6646
10783TIP3    H153840   6.407   2.548  13.020  0.1286  0.0948 -0.8460
10783TIP3    H253841   6.268   2.579  12.967 -0.4960 -0.2041  0.5826
10784TIP3   OH253842   1.873   2.411   4.250 -0.3791  0.2828  0.1425
10784TIP3    H153843   1.880   2.466   4.329 -2.9836  2.3895 -0.9322
10784TIP3    H253844   1.870   2.321   4.284  1.4196  0.8966  2.1812
10785TIP3   OH253845   4.327   6.460   5.857  0.1606  0.3796  0.1074
10785TIP3    H153846   4.278   6.430   5.933 -1.4099  1.3302 -0.4857
10785TIP3    H253847   4.310   6.394   5.790  0.3144  0.3290  0.1163
10786TIP3   OH253848   4.703   0.253   0.993 -0.4461 -0.7490  0.4370
10786TIP3    H153849   4.634   0.317   1.013  0.0577 -0.5448  1.6071
10786TIP3    H253850   4.732   0.222   1.079  0.2607 -1.5466 -0.0769
10787TIP3   OH253851   6.232   5.135   3.837  0.0105  0.5028  0.0059
10787TIP3    H153852   6.317   5.092   3.822 -0.7368 -1.6435  1.3696
10787TIP3    H253853   6.231   5.153   3.931 -0.8851  0.8912 -0.0694
10788TIP3   OH253854   5.103   5.760  17.055  1.0043 -0.4689  0.0694
10788TIP3    H153855   5.106   5.707  17.134  1.4004 -1.5774 -0.6758
10788TIP3    H253856   5.015   5.797  17.054  1.7701  1.7320  2.3835
10789TIP3   OH253857   1.883   5.442  11.167  0.3579  0.3502 -0.1878
10789TIP3    H153858   1.909   5.529  11.137 -0.3581  0.7010  0.1850
10789TIP3    H253859   1.958   5.410  11.217 -0.1608  1.6470  1.5159
10790TIP3   OH253860   3.640   0.805  16.115  0.3575 -0.2132 -0.0838
10790TIP3    H153861   3.624   0.838  16.026 -1.0284 -1.5169 -0.3484
10790TIP3    H253862   3.578   0.852  16.170 -0.6177 -1.2632 -0.2429
10791TIP3   OH253863   3.670   4.358  15.198  0.0987  0.6189  0.6383
10791TIP3    H153864   3.601   4.413  15.236 -1.9937  0.8751 -2.9896
10791TIP3    H253865   3.712   4.414  15.133  1.0094 -0.7540 -0.0043
10792TIP3   OH253866   4.764   5.694   3.304 -0.1221  0.0339  0.0238
10792TIP3    H153867   4.783   5.770   3.358  0.1881 -0.0873  0.0890
10792TIP3    H253868   4.712   5.728   3.231 -0.8210  0.1421  0.5670
10793TIP3   OH253869   3.908   0.298   3.318  0.3045 -0.0943 -0.2348
10793TIP3    H153870   3.999   0.309   3.288  0.7952 -0.6690  0.9715
10793TIP3    H253871   3.864   0.257   3.244  1.1275 -0.1617 -0.7063
10794TIP3   OH253872   3.308   6.392   1.796  0.2254  0.3772 -0.2575
10794TIP3    H153873   3.337   6.311   1.839 -1.8870 -1.5590 -2.1938
10794TIP3    H253874   3.214   6.394   1.811  0.0766  1.8804 -1.2442
10795TIP3   OH253875   0.128   4.853   6.346 -0.3013 -0.1839 -0.8503
10795TIP3    H153876   0.132   4.841   6.441  3.1231 -2.0019 -1.0527
10795TIP3    H253877   0.039   4.828   6.323 -1.7927  1.9755  1.9768
10796TIP3   OH253878   2.440   3.834  15.456  0.2251 -0.1027  0.2715
10796TIP3    H153879   2.362   3.888  15.462 -0.7943 -1.3374 -1.0639
10796TIP3    H253880   2.435   3.775  15.531 -0.4604 -0.5604 -0.1214
10797TIP3   OH253881   3.377   3.178   0.342 -0.1067 -0.7390 -0.4095
10797TIP3    H153882   3.353   3.131   0.262 -0.8356 -1.5702  0.2754
10797TIP3    H253883   3.339   3.126   0.413  1.0748 -0.3821  0.5300
10798TIP3   OH253884   1.433   3.901   0.511 -0.2394 -0.2099 -0.0604
10798TIP3    H153885   1.441   3.871   0.602  1.4843  0.3818  0.0150
10798TIP3    H253886   1.420   3.820   0.461 -0.0021 -0.6626  0.5890
10799TIP3   OH253887   0.111   3.346   5.826  0.1871  0.3616  0.2122
10799TIP3    H153888   0.084   3.416   5.767 -0.3142 -0.7879 -0.9818
10799TIP3    H253889   0.206   3.357   5.835  0.2670  0.5618 -0.7994
10800TIP3   OH253890   1.547   0.526   4.359  0.1644  0.2454  0.5100
10800TIP3    H153891   1.509   0.492   4.278  0.3880 -0.5215  0.7178
10800TIP3    H253892   1.483   0.503   4.427  0.8430 -0.8060  0.8194
10801TIP3   OH253893   1.676   0.773  14.447 -0.4945 -0.0723 -0.0602
10801TIP3    H153894   1.744   0.840  14.452 -0.4303  0.0102 -1.5865
10801TIP3    H253895   1.714   0.704  14.393 -1.8164  0.2451 -1.4517
10802TIP3   OH253896   0.436   2.926  10.985  0.6430  0.1575 -0.3521
10802TIP3    H153897   0.406   2.977  10.910  0.8297  1.2601  0.2989
10802TIP3    H253898   0.493   2.986  11.033  0.4133 -0.4848  0.7510
10803TIP3   OH253899   1.621   6.398   3.593 -0.5598 -0.0986 -0.0610
10803TIP3    H153900   1.657   6.317   3.630 -1.6116 -1.4795 -1.9178
10803TIP3    H253901   1.601   6.376   3.502 -0.6145  2.3584 -0.7036
10804TIP3   OH253902   4.386   4.812   3.007  0.3780 -0.1897 -0.5981
10804TIP3    H153903   4.387   4.717   3.016 -0.7375 -0.1623 -0.0695
10804TIP3    H253904   4.369   4.827   2.914  0.2160 -0.5120 -0.6215
10805TIP3   OH253905   5.139   6.450   5.170  0.4076  0.2515  0.3855
10805TIP3    H153906   5.060   6.398   5.152  1.2531 -0.6217 -1.0507
10805TIP3    H253907   5.131   6.477   5.261 -0.7811 -1.1759  0.7309
10806TIP3   OH253908   6.423   0.234  12.986 -0.4811 -0.5565  0.7769
10806TIP3    H153909   6.381   0.150  13.007 -0.9722 -1.2330 -2.3213
10806TIP3    H253910   6.516   0.217  12.994 -0.4280 -2.2614 -2.0084
10807TIP3   OH253911   5.519   5.397  13.777  0.1599  0.3727  0.2256
10807TIP3    H153912   5.517   5.451  13.698  0.0065 -2.6242 -1.9952
10807TIP3    H253913   5.589   5.333  13.762 -0.3352 -0.7375  2.1973
10808TIP3   OH253914   3.283   6.231  14.094 -0.1206 -0.1060 -0.6675
10808TIP3    H153915   3.332   6.310  14.071 -0.2115 -0.3229 -1.6216
10808TIP3    H253916   3.239   6.254  14.176 -0.5922  1.0372 -1.2136
10809TIP3   OH253917   6.731   0.706   2.267  0.3269 -0.0405 -0.0335
10809TIP3    H153918   6.805   0.747   2.222  0.0309  0.2227 -0.2831
10809TIP3    H253919   6.673   0.678   2.197  0.7555 -1.3496  0.1047
10810TIP3   OH253920   3.882   6.331  15.964  0.3327 -0.4251  0.2547
10810TIP3    H153921   3.827   6.378  16.026 -0.1300  0.1257 -0.5517
10810TIP3    H253922   3.820   6.282  15.910  0.4109  1.6144 -1.8620
10811TIP3   OH253923   0.541   0.924  13.561 -0.3909 -0.3255  0.3294
10811TIP3    H153924   0.480   0.857  13.593 -0.0428 -0.9359 -0.2576
10811TIP3    H253925   0.557   0.900  13.470 -1.4194  1.4198 -0.3650
10812TIP3   OH253926   1.776   1.885  16.226 -0.3420  0.1052 -0.2875
10812TIP3    H153927   1.845   1.949  16.204  0.1675 -0.3133  0.0561
10812TIP3    H253928   1.726   1.928  16.296  2.6051 -1.4371  3.1189
10813TIP3   OH253929   5.878   5.521   5.918  0.3523 -0.4793  0.3039
10813TIP3    H153930   5.791   5.504   5.955 -0.1494  2.0072  0.4716
10813TIP3    H253931   5.862   5.585   5.848  2.1070  0.7482  0.9568
10814TIP3   OH253932   2.425   0.436   5.558 -0.5974  0.2163 -0.1083
10814TIP3    H153933   2.410   0.529   5.569 -2.1446  0.2509 -1.9562
10814TIP3    H253934   2.504   0.418   5.609  0.0638  2.6253 -0.1666
10815TIP3   OH253935   0.059   3.481   3.685 -0.3636  0.6841  0.5562
10815TIP3    H153936  -0.036   3.487   3.697 -0.2724  1.1722  1.0708
10815TIP3    H253937   0.093   3.460   3.772 -0.1623 -1.7245 -0.0285
10816TIP3   OH253938   3.815   3.709  12.790  0.3557  0.8047  0.0237
10816TIP3    H153939   3.763   3.730  12.867  2.8410  0.9093  1.8115
10816TIP3    H253940   3.819   3.790  12.740 -0.3487  1.0681  0.3875
10817TIP3   OH253941   2.038   2.100  12.794 -0.5241  0.2504 -0.2654
10817TIP3    H153942   2.054   2.109  12.700 -0.8866  2.6107 -0.1460
10817TIP3    H253943   2.059   2.008  12.813  1.9733  0.3393 -2.1556
10818TIP3   OH253944   1.670   0.762  15.401  0.2564 -0.4356  0.6994
10818TIP3    H153945   1.577   0.768  15.380  0.4398 -1.0796 -0.3792
10818TIP3    H253946   1.674   0.699  15.473 -0.0141 -1.9516 -0.5455
10819TIP3   OH253947   3.311   1.363   5.770  0.2479 -0.3105  0.6939
10819TIP3    H153948   3.335   1.405   5.852  0.1490 -0.6938  0.9218
10819TIP3    H253949   3.216   1.353   5.775  0.3851 -1.5730  1.1401
10820TIP3   OH253950   1.429   1.828   6.581  0.1263 -0.1559  0.5922
10820TIP3    H153951   1.512   1.861   6.616 -0.7908  1.5968  1.2068
10820TIP3    H253952   1.372   1.822   6.658 -1.1793  1.4352 -0.2064
10821TIP3   OH253953   4.542   2.316   4.258 -0.4599  0.8100 -0.2382
10821TIP3    H153954   4.637   2.303   4.253 -0.4996  0.4777 -0.1252
10821TIP3    H253955   4.532   2.407   4.286 -0.1643  0.6761  0.3302
10822TIP3   OH253956   0.752   3.254   5.610  0.6714 -0.2223  0.1590
10822TIP3    H153957   0.770   3.286   5.522  1.2220 -1.1820 -0.0766
10822TIP3    H253958   0.823   3.289   5.663  0.0687  0.7797  0.3403
10823TIP3   OH253959   5.373   1.812   1.258 -0.2316 -0.0492 -0.5189
10823TIP3    H153960   5.461   1.806   1.293 -0.5144 -0.1758  0.1800
10823TIP3    H253961   5.367   1.741   1.195 -0.0799 -0.5147 -0.0171
10824TIP3   OH253962   5.797   6.221  10.889  0.0607 -0.1504  0.1499
10824TIP3    H153963   5.817   6.219  10.795 -1.1463 -1.2620 -0.1165
10824TIP3    H253964   5.725   6.283  10.896 -1.9708 -2.3219 -0.1787
10825TIP3   OH253965   5.566   5.489   3.856  0.4206 -0.1056  0.1414
10825TIP3    H153966   5.577   5.541   3.935  0.2371  2.5833 -1.4977
10825TIP3    H253967   5.561   5.553   3.785 -2.5687 -2.2182 -1.7671
10826TIP3   OH253968   6.007   6.536  12.213 -0.4171  0.4309 -0.0972
10826TIP3    H153969   5.974   6.521  12.124 -0.2308 -2.3993  0.2040
10826TIP3    H253970   5.959   6.474  12.267 -0.2689  1.8501  1.7545
10827TIP3   OH253971   5.887   6.182  10.644 -0.0460  0.1227 -0.5251
10827TIP3    H153972   5.837   6.170  10.563  0.0245 -1.3798 -0.3771
10827TIP3    H253973   5.922   6.095  10.663  0.8108  0.6887  0.5606
10828TIP3   OH253974   3.478   0.015  13.897  0.0656  0.0488  0.2368
10828TIP3    H153975   3.519  -0.070  13.882 -0.7697 -0.4744  0.8381
10828TIP3    H253976   3.451   0.013  13.989  1.2422  1.5008  0.6513
10829TIP3   OH253977   6.268   0.870   2.737  0.3530 -0.1396 -0.1115
10829TIP3    H153978   6.216   0.808   2.687 -1.2266  0.1544  1.0828
10829TIP3    H253979   6.295   0.936   2.672  0.3240 -0.9712 -0.9926
10830TIP3   OH253980   2.672   5.033  16.889 -0.6385  0.1941  0.1217
10830TIP3    H153981   2.725   5.103  16.851  1.0706 -0.2742  1.5051
10830TIP3    H253982   2.708   4.953  16.853 -0.3587 -0.1368  1.0952
10831TIP3   OH253983   5.354   0.694   1.406 -0.7054 -0.1502 -0.3489
10831TIP3    H153984   5.346   0.659   1.494  0.9885 -1.4950 -0.6853
10831TIP3    H253985   5.390   0.622   1.354  0.8102  1.3916 -1.5552
10832TIP3   OH253986   5.565   6.494  11.275  0.4714 -0.3847 -0.0319
10832TIP3    H153987   5.548   6.588  11.284  1.8885  0.0121 -1.1287
10832TIP3    H253988   5.620   6.487  11.198 -1.3803 -2.3572 -1.3032
10833TIP3   OH253989   6.435   5.777  11.139  0.4369  0.0338  0.1907
10833TIP3    H153990   6.355   5.788  11.088 -0.8466  0.0188  2.0682
10833TIP3    H253991   6.506   5.789  11.077 -1.0131 -1.0230 -1.7717
10834TIP3   OH253992   2.047   0.381   3.953  0.1177  0.0361 -0.4566
10834TIP3    H153993   2.021   0.397   3.862 -0.6356 -1.1709 -0.4846
10834TIP3    H253994   2.068   0.468   3.987 -2.0093  0.8659 -1.0578
10835TIP3   OH253995   6.213   0.656   5.185 -0.0449  0.2613  0.1701
10835TIP3    H153996   6.131   0.633   5.227 -0.0615 -1.3837 -0.6952
10835TIP3    H253997   6.238   0.739   5.226 -1.4553  0.1357  1.3767
10836TIP3   OH253998   5.045   6.175  12.181  0.4221  0.3467  0.3764
10836TIP3    H153999   5.114   6.220  12.132 -1.0907  1.2954 -1.0213
10836TIP3    H254000   5.088   6.099  12.220  2.0849  0.4933 -1.0477
10837TIP3   OH254001   1.141   3.934   5.199 -0.3685  0.8137 -0.4441
10837TIP3    H154002   1.124   3.904   5.110 -0.0926 -0.7785  0.0107
10837TIP3    H254003   1.060   3.918   5.246 -0.6034  1.9059 -0.4516
10838TIP3   OH254004   4.446   3.651   5.495  0.3630  0.1166  0.5961
10838TIP3    H154005   4.399   3.713   5.440  1.2213  0.7167  0.5204
10838TIP3    H254006   4.422   3.674   5.585 -0.5165 -0.4379  0.5146
10839TIP3   OH254007   0.596   0.059  14.606 -0.0331 -0.8173  0.0806
10839TIP3    H154008   0.684   0.069  14.571  1.1900 -1.1431  2.8605
10839TIP3    H254009   0.604  -0.009  14.673 -2.3849 -0.7627  0.5005
10840TIP3   OH254010   3.257   6.599  12.713  0.0395  0.1547 -0.3599
10840TIP3    H154011   3.309   6.679  12.717 -1.0733  0.8676  0.4302
10840TIP3    H254012   3.184   6.621  12.654 -0.2329 -0.3042 -0.2003
10841TIP3   OH254013   4.082   4.916   5.163 -0.0235  0.1639  0.3241
10841TIP3    H154014   4.038   4.998   5.186 -1.7098 -0.4539 -0.5096
10841TIP3    H254015   4.032   4.882   5.088  1.1967 -1.1734  0.0608
10842TIP3   OH254016   4.514   1.312   5.273 -0.4971  0.2172  0.2239
10842TIP3    H154017   4.421   1.329   5.260 -0.1506  1.2459 -1.1887
10842TIP3    H254018   4.558   1.383   5.225  1.0115 -0.1452  1.0045
10843TIP3   OH254019   4.599   4.143  13.120  0.2226  0.4699  0.1353
10843TIP3    H154020   4.577   4.053  13.145 -0.7721  1.0414  1.3611
10843TIP3    H254021   4.694   4.140  13.105 -0.0221 -1.1403 -1.4755
10844TIP3   OH254022   1.283   2.429   3.283  0.4321  0.3527 -0.5293
10844TIP3    H154023   1.333   2.489   3.338  1.9388 -0.1696 -1.2646
10844TIP3    H254024   1.210   2.401   3.338  1.1897  0.8131  0.7475
10845TIP3   OH254025   6.827   1.883   1.262 -0.7386 -0.2146 -0.2011
10845TIP3    H154026   6.900   1.821   1.266  0.3567  0.9568 -1.2791
10845TIP3    H254027   6.827   1.913   1.171 -3.5142 -1.2554 -0.6397
10846TIP3   OH254028   4.053   3.100   1.489 -0.0377 -0.4229  0.0467
10846TIP3    H154029   4.084   3.060   1.408  2.2588 -0.8098  1.0451
10846TIP3    H254030   4.104   3.181   1.497  0.4055 -0.8172  1.5192
10847TIP3   OH254031   5.701   2.351   0.185  0.0053 -0.6343  0.0341
10847TIP3    H154032   5.679   2.286   0.118  1.6831  0.3412 -1.5813
10847TIP3    H254033   5.688   2.436   0.141 -0.8985  0.1161  1.6655
10848TIP3   OH254034   2.743   3.361  12.282  0.6647  0.0511  0.3932
10848TIP3    H154035   2.826   3.384  12.239  0.8268 -0.8482  0.1882
10848TIP3    H254036   2.766   3.288  12.340  0.2252  0.5282  1.1811
10849TIP3   OH254037   3.723   0.127   5.178 -0.2952  0.7800 -0.3724
10849TIP3    H154038   3.721   0.041   5.219  1.7866  0.8905  0.0678
10849TIP3    H254039   3.674   0.116   5.096  1.6846 -1.4039 -1.3688
10850TIP3   OH254040   0.854   3.636  16.159  0.3669  0.5244 -0.1004
10850TIP3    H154041   0.812   3.561  16.116  0.6594  0.2117  0.1551
10850TIP3    H254042   0.859   3.610  16.251  1.2245  0.5167 -0.1458
10851TIP3   OH254043   5.944   5.828   5.874  0.4919 -0.1099 -0.2756
10851TIP3    H154044   5.936   5.763   5.804  1.3156 -1.0261  0.4505
10851TIP3    H254045   6.028   5.870   5.859  0.3934  0.1262 -0.1835
10852TIP3   OH254046   1.174   6.530  16.944 -0.2917 -0.2469 -0.6469
10852TIP3    H154047   1.106   6.500  16.883 -1.0585 -2.4186  1.1273
10852TIP3    H254048   1.254   6.487  16.915 -0.8139 -1.8933  0.2660
10853TIP3   OH254049   4.550   6.081   1.582  0.2290  0.3625 -0.0269
10853TIP3    H154050   4.554   6.146   1.511  0.5368 -0.4413 -0.7753
10853TIP3    H254051   4.634   6.035   1.576 -0.2469 -0.5309  0.0582
10854TIP3   OH254052   0.947   1.008   5.811  0.3427  0.2700  0.5103
10854TIP3    H154053   0.877   1.046   5.865  0.5426  2.3832 -0.6075
10854TIP3    H254054   0.905   0.988   5.727  0.5367 -0.9125  0.6709
10855TIP3   OH254055   6.129   1.362   0.116 -0.0434 -0.3259 -0.1328
10855TIP3    H154056   6.124   1.445   0.070 -0.9623 -1.2408 -1.7869
10855TIP3    H254057   6.042   1.323   0.105  0.1299 -1.1784  1.2642
10856TIP3   OH254058   3.100   2.641  15.090  0.5288  0.1992  0.5540
10856TIP3    H154059   3.088   2.720  15.038 -1.6534 -0.8428 -0.6498
10856TIP3    H254060   3.118   2.673  15.178  0.7807  2.0263 -0.1278
10857TIP3   OH254061   6.431   2.485   2.895 -0.2800 -0.3360  0.2847
10857TIP3    H154062   6.429   2.564   2.949  0.5060  0.4950 -0.8470
10857TIP3    H254063   6.521   2.456   2.899 -0.4596 -0.8990  0.2911
10858TIP3   OH254064   4.386   0.247   6.555 -0.1300 -0.4430  0.1143
10858TIP3    H154065   4.326   0.294   6.498  1.7104  1.7845 -0.1051
10858TIP3    H254066   4.348   0.159   6.562 -1.7571 -0.0409 -2.4326
10859TIP3   OH254067   3.981   1.141   3.751 -0.2699 -0.5659 -0.1022
10859TIP3    H154068   4.008   1.129   3.660 -0.6414 -2.7386  0.0273
10859TIP3    H254069   4.008   1.230   3.772 -2.1196  0.8423 -2.9959
10860TIP3   OH254070   0.346   2.052  16.702  0.5552  0.0649 -0.6506
10860TIP3    H154071   0.400   2.111  16.756  0.8075 -1.9750  1.4699
10860TIP3    H254072   0.302   1.996  16.765 -1.9126 -0.1913 -2.4842
10861TIP3   OH254073   4.002   4.474  13.671 -0.4399  0.1660 -0.2731
10861TIP3    H154074   4.072   4.471  13.606 -0.7164  0.4901 -0.5916
10861TIP3    H254075   3.994   4.567  13.694 -0.3032  0.0487  0.2758
10862TIP3   OH254076   3.064   1.218  10.939 -0.1328  0.5854  0.4358
10862TIP3    H154077   3.091   1.263  11.019 -0.8434  0.1121  0.9587
10862TIP3    H254078   3.146   1.194  10.896  0.2973  3.0028 -0.2700
10863TIP3   OH254079   0.359   3.033  11.237 -0.0652 -0.4868  0.1862
10863TIP3    H154080   0.451   3.012  11.255 -0.0317  0.5305  1.3773
10863TIP3    H254081   0.350   3.021  11.142  1.9043  1.5682 -0.3478
10864TIP3   OH254082   5.850   0.490  15.072 -0.1846  0.6037  0.0035
10864TIP3    H154083   5.911   0.435  15.122 -1.1309  0.6467  1.2659
10864TIP3    H254084   5.773   0.435  15.060 -0.4125  1.0078 -0.3853
10865TIP3   OH254085   5.054   5.738  15.438  0.1874  0.4731 -0.0313
10865TIP3    H154086   5.114   5.770  15.505  0.7659  0.9348 -0.7469
10865TIP3    H254087   5.069   5.643  15.436 -0.3073  0.3700  0.9292
10866TIP3   OH254088   6.681   3.288  13.168  0.0941 -0.0347 -0.4024
10866TIP3    H154089   6.613   3.280  13.235 -0.0429  1.4247 -0.3258
10866TIP3    H254090   6.746   3.221  13.191 -0.2254  0.0602  0.8498
10867TIP3   OH254091   1.311   1.647   5.030  0.1270 -0.2265  0.3277
10867TIP3    H154092   1.318   1.704   5.106 -3.0827  1.0001 -0.1460
10867TIP3    H254093   1.220   1.617   5.031  0.8045 -2.6359 -1.3681
10868TIP3   OH254094   6.716   1.476  16.480  0.3697 -0.0835  0.4164
10868TIP3    H154095   6.648   1.501  16.542 -0.0253 -0.7493  0.2547
10868TIP3    H254096   6.780   1.547  16.485  1.3872 -1.0710  3.0951
10869TIP3   OH254097   0.068   2.466  16.091  0.3847 -0.2769 -0.2322
10869TIP3    H154098   0.109   2.546  16.057  2.3662 -0.0833  2.3104
10869TIP3    H254099   0.075   2.403  16.019 -0.8153  1.6388 -2.1407
10870TIP3   OH254100   4.559   4.305  14.309 -0.0629 -0.4462 -0.0870
10870TIP3    H154101   4.500   4.242  14.351 -0.1924 -0.0154  0.3749
10870TIP3    H254102   4.645   4.264  14.314  0.2347  0.3363  2.1444
10871TIP3   OH254103   0.296   5.480  16.995  0.2164 -0.3072  0.1412
10871TIP3    H154104   0.368   5.541  16.978 -0.4666  0.9044  1.3310
10871TIP3    H254105   0.305   5.413  16.928  2.8902 -0.6213  0.6880
10872TIP3   OH254106   0.257   6.540  14.361 -0.4967 -0.2993 -0.1654
10872TIP3    H154107   0.343   6.553  14.402 -0.0824 -0.3050 -1.0169
10872TIP3    H254108   0.241   6.446  14.369 -0.8059 -0.1808  0.7257
10873TIP3   OH254109   5.851   4.122  16.194  0.2079  0.5738 -0.8362
10873TIP3    H154110   5.929   4.137  16.140 -0.2200  0.4390 -1.5041
10873TIP3    H254111   5.780   4.163  16.145 -0.4343 -0.8218 -1.1087
10874TIP3   OH254112   0.193   6.078  11.371 -0.0182 -0.4067 -0.4959
10874TIP3    H154113   0.199   5.996  11.321 -1.1020 -0.7905 -0.0162
10874TIP3    H254114   0.191   6.050  11.462 -1.9875  0.0206 -0.3659
10875TIP3   OH254115   3.496   3.602   1.392  0.2897 -0.1877  0.2147
10875TIP3    H154116   3.442   3.523   1.395  0.1342 -0.0609  0.9317
10875TIP3    H254117   3.434   3.672   1.369 -0.0507  0.1009  1.8732
10876TIP3   OH254118   0.100   6.032  13.559  0.2595 -0.5891 -0.1186
10876TIP3    H154119   0.102   5.954  13.614  0.6627  0.4154  1.3534
10876TIP3    H254120   0.181   6.079  13.580 -0.4045  0.6739 -0.2653
10877TIP3   OH254121   3.584   3.250  11.225 -0.2563  0.5222  0.3813
10877TIP3    H154122   3.629   3.233  11.142  0.2414  0.2900  0.6936
10877TIP3    H254123   3.633   3.200  11.290 -1.3487 -0.2355  0.6414
10878TIP3   OH254124   4.156   6.238  13.408 -0.2281  0.5992 -0.0321
10878TIP3    H154125   4.085   6.283  13.362 -1.4425 -2.2775 -1.2081
10878TIP3    H254126   4.198   6.185  13.340 -0.2582 -1.6132  1.5844
10879TIP3   OH254127   2.354   5.985   4.742 -0.0864 -0.1221 -0.1101
10879TIP3    H154128   2.322   6.027   4.662 -2.1430  2.1089  1.7181
10879TIP3    H254129   2.341   5.892   4.728 -2.0222  0.3322 -1.7720
10880TIP3   OH254130   4.995   6.372   5.868  0.2379  0.1412 -0.3263
10880TIP3    H154131   4.975   6.458   5.830  1.8096  0.1580 -1.2047
10880TIP3    H254132   4.986   6.384   5.962  0.8721  1.4040 -0.4105
10881TIP3   OH254133   0.681   5.232   1.986  0.5701  0.4756  0.0208
10881TIP3    H154134   0.642   5.283   2.057  1.0952  1.5992 -0.4755
10881TIP3    H254135   0.773   5.221   2.012  0.4134 -0.4093  0.2221
10882TIP3   OH254136   3.665   5.134  12.518  0.0043  0.2381  0.7342
10882TIP3    H154137   3.704   5.196  12.456  0.0080  1.8227  2.2593
10882TIP3    H254138   3.722   5.058  12.514  1.7481  1.4853  0.9810
10883TIP3   OH254139   2.322   4.477   5.728  0.6753 -0.0371  0.5411
10883TIP3    H154140   2.340   4.412   5.796  1.0391 -0.2841  0.2165
10883TIP3    H254141   2.387   4.546   5.744  0.4026  0.1679  0.7785
10884TIP3   OH254142   3.832   2.892  15.108  0.3576  0.1097  0.2245
10884TIP3    H154143   3.879   2.971  15.082  0.0417 -0.0595 -0.8927
10884TIP3    H254144   3.806   2.851  15.026  1.0308 -1.4838  0.7538
10885TIP3   OH254145   0.528   6.668  14.104 -0.5117 -0.4135  0.6957
10885TIP3    H154146   0.550   6.731  14.036 -1.4711 -2.3330 -1.5415
10885TIP3    H254147   0.433   6.674  14.114 -0.6541 -1.5651  0.2855
10886TIP3   OH254148   1.388   2.742   0.485 -0.0727  0.1188 -0.3467
10886TIP3    H154149   1.410   2.820   0.434 -1.6607 -0.1258 -1.4758
10886TIP3    H254150   1.364   2.676   0.419 -0.6635 -0.6982  0.6551
10887TIP3   OH254151   3.848   2.901  12.151 -0.0015  0.1261  0.3192
10887TIP3    H154152   3.865   2.815  12.189 -0.5664 -0.4747 -0.7555
10887TIP3    H254153   3.855   2.888  12.057 -1.5723  0.8978  0.0588
10888TIP3   OH254154   2.965   2.418   4.635  0.0513  0.5493 -0.5004
10888TIP3    H154155   3.034   2.470   4.593 -0.5945  0.3868 -1.8110
10888TIP3    H254156   2.900   2.404   4.566 -0.8251 -0.1497  0.4361
10889TIP3   OH254157   5.737   3.959   3.746 -0.1174  0.2695  0.6572
10889TIP3    H154158   5.752   3.902   3.821  0.9138 -1.0832 -0.5225
10889TIP3    H254159   5.825   3.980   3.714 -0.4654  2.4027  0.9272
10890TIP3   OH254160   0.337   2.654   5.027 -0.4816  0.5194 -0.2442
10890TIP3    H154161   0.402   2.610   4.971  0.4657 -0.2268  1.3528
10890TIP3    H254162   0.344   2.747   5.003  1.2445  0.4657 -0.0896
10891TIP3   OH254163   4.140   2.032  15.283 -0.1174 -0.3656  0.2712
10891TIP3    H154164   4.045   2.032  15.273  0.1259 -0.8073 -5.2685
10891TIP3    H254165   4.162   1.943  15.309 -1.1520 -0.3639  1.2050
10892TIP3   OH254166   1.696   1.495   3.393 -0.3811  0.0603  0.0119
10892TIP3    H154167   1.712   1.407   3.360 -1.7979 -1.0664  2.0922
10892TIP3    H254168   1.782   1.527   3.419 -0.1455 -2.1824  2.4568
10893TIP3   OH254169   5.041   5.661   3.262  0.0020 -0.0896 -0.0011
10893TIP3    H154170   5.052   5.649   3.356 -0.0123  0.5073  0.0833
10893TIP3    H254171   4.946   5.658   3.248  0.0333 -0.8293 -0.0947
10894TIP3   OH254172   2.410   1.729   4.157 -0.0533 -0.0014 -0.4718
10894TIP3    H154173   2.463   1.651   4.171  0.3621  0.2030 -0.8802
10894TIP3    H254174   2.445   1.793   4.219 -0.7651 -0.3068  0.2657
10895TIP3   OH254175   3.728   4.228   3.432  0.0845 -0.3652 -0.7405
10895TIP3    H154176   3.772   4.177   3.363 -1.0047 -0.0177 -1.7245
10895TIP3    H254177   3.647   4.180   3.450  0.6474 -0.7913  0.7717
10896TIP3   OH254178   4.331   6.333   0.063  0.5454 -0.0534 -0.4278
10896TIP3    H154179   4.282   6.389   0.003  0.9189 -0.9447 -1.5980
10896TIP3    H254180   4.384   6.394   0.115 -0.0815  0.7609 -0.7148
10897TIP3   OH254181   4.387   6.276   4.404 -0.3669 -0.3711  0.2092
10897TIP3    H154182   4.344   6.226   4.473 -0.9116 -0.4329 -0.1727
10897TIP3    H254183   4.316   6.322   4.359 -0.0552 -0.5693 -0.5011
10898TIP3   OH254184   4.341   4.860   5.109 -0.2540 -0.1036 -0.3826
10898TIP3    H154185   4.343   4.850   5.014  1.1897  0.3011 -0.4281
10898TIP3    H254186   4.257   4.903   5.127 -1.5176 -2.0676 -1.2212
10899TIP3   OH254187   2.486   2.084  13.276 -0.3988 -0.0688  0.4211
10899TIP3    H154188   2.565   2.124  13.313 -0.1579 -1.7302  1.8452
10899TIP3    H254189   2.513   2.056  13.188  0.1157  0.7299  0.3125
10900TIP3   OH254190   3.809   2.259  13.274 -0.6987  0.3468 -0.1875
10900TIP3    H154191   3.831   2.177  13.319 -0.1032  0.0905 -0.9283
10900TIP3    H254192   3.725   2.284  13.311 -1.7271 -1.4929 -1.1414
10901TIP3   OH254193   5.717   1.933  16.782  0.5435 -0.5316 -0.7561
10901TIP3    H154194   5.737   2.010  16.728 -1.7452  0.4349 -0.3361
10901TIP3    H254195   5.650   1.886  16.732  1.9351 -2.3645 -1.0327
10902TIP3   OH254196   4.065   4.878   2.932 -0.4051 -0.8137  0.2024
10902TIP3    H154197   4.158   4.868   2.911 -0.7742  0.8010 -2.6823
10902TIP3    H254198   4.019   4.837   2.859 -1.8874  2.4560 -0.8828
10903TIP3   OH254199   2.085   1.153   3.350  0.2722 -0.4434 -0.2228
10903TIP3    H154200   2.170   1.178   3.314 -0.0395 -1.5704 -1.8322
10903TIP3    H254201   2.093   1.060   3.368 -0.1954 -0.2778  0.9683
10904TIP3   OH254202   6.310   4.966  13.311  0.3821 -0.6903 -0.0038
10904TIP3    H154203   6.392   5.014  13.317  0.2140 -0.4315  0.2491
10904TIP3    H254204   6.324   4.903  13.240 -0.1720  1.3081 -2.0051
10905TIP3   OH254205   5.211   5.291   4.770 -0.0974 -0.7805 -0.1999
10905TIP3    H154206   5.249   5.347   4.702  0.7404  2.7997  2.8456
10905TIP3    H254207   5.116   5.298   4.756 -0.0174  1.4759  0.0029
10906TIP3   OH254208   5.115   3.090  16.670 -0.0006  0.0883 -0.1145
10906TIP3    H154209   5.128   3.163  16.732  0.7329 -0.8850  0.9223
10906TIP3    H254210   5.138   3.127  16.585 -1.0824  1.4802  0.1670
10907TIP3   OH254211   6.020   5.206   1.921  0.2714  0.0138 -0.6920
10907TIP3    H154212   6.026   5.264   1.997 -1.4365  1.1072 -1.3409
10907TIP3    H254213   5.998   5.264   1.848 -0.9983 -1.3550 -1.4618
10908TIP3   OH254214   4.810   3.623  13.525 -0.4208  0.4251 -0.3226
10908TIP3    H154215   4.805   3.695  13.588 -2.0755  2.1403 -2.2555
10908TIP3    H254216   4.891   3.639  13.477  0.5702 -0.5808  0.9589
10909TIP3   OH254217   1.020   5.137   2.403  0.4995  0.4645 -0.3222
10909TIP3    H154218   1.074   5.058   2.405  1.6679  0.9627 -4.0465
10909TIP3    H254219   1.083   5.209   2.403 -0.4420  1.3152  0.5574
10910TIP3   OH254220   6.580   3.205  14.181 -0.6356 -0.2876 -0.0747
10910TIP3    H154221   6.553   3.292  14.150 -0.9547 -0.4491 -0.2584
10910TIP3    H254222   6.498   3.163  14.208 -0.4973 -0.5754 -0.0987
10911TIP3   OH254223   6.057   2.752  16.270  0.3033 -0.7224  0.2781
10911TIP3    H154224   6.152   2.756  16.266  0.3966 -2.0795  0.6484
10911TIP3    H254225   6.038   2.668  16.311 -1.0733 -1.5314 -1.8436
10912TIP3   OH254226   6.777   4.998  14.833 -1.0187 -0.2550 -0.0616
10912TIP3    H154227   6.760   5.009  14.739  1.6133 -2.1546 -0.8689
10912TIP3    H254228   6.738   4.913  14.854  1.1384 -1.3553 -0.2828
10913TIP3   OH254229   0.121   4.338  16.495 -0.1290  0.1345 -0.1513
10913TIP3    H154230   0.144   4.313  16.585  0.3331  0.8460 -0.0576
10913TIP3    H254231   0.190   4.299  16.441  0.2647  0.6848 -0.0640
10914TIP3   OH254232   4.694   3.043   4.325 -0.7317  0.1913 -0.0982
10914TIP3    H154233   4.682   3.034   4.231  0.3201  2.1934 -0.4890
10914TIP3    H254234   4.744   3.124   4.335  0.0159 -0.4640  2.1341
10915TIP3   OH254235   1.874   2.143   2.482 -0.1029  0.2409  0.0432
10915TIP3    H154236   1.945   2.083   2.457  1.7771  2.2439  0.2437
10915TIP3    H254237   1.854   2.119   2.573  1.2557  0.4142  0.4237
10916TIP3   OH254238   5.471   4.544   3.306 -0.1327 -0.3758  0.0074
10916TIP3    H154239   5.549   4.565   3.358  0.7629 -1.6520 -0.7614
10916TIP3    H254240   5.488   4.585   3.221  0.0432 -1.2611 -0.3926
10917TIP3   OH254241   3.571   0.991   4.565  0.6245  0.0600 -0.1813
10917TIP3    H154242   3.530   0.964   4.648  1.6340 -0.8875  0.0375
10917TIP3    H254243   3.624   1.067   4.589  0.4752  0.1294 -0.0684
10918TIP3   OH254244   4.955   1.103   2.606  0.2207 -0.1442  0.7310
10918TIP3    H154245   4.902   1.169   2.652  0.5590 -0.7779  2.0956
10918TIP3    H254246   4.895   1.064   2.543  0.5168  2.8015 -1.5712
10919TIP3   OH254247   6.701   0.703  17.023 -0.0312 -0.3433  0.2536
10919TIP3    H154248   6.712   0.615  17.059  0.6145  0.2251  1.5164
10919TIP3    H254249   6.618   0.734  17.059 -0.0148 -0.2487  0.2122
10920TIP3   OH254250   0.819   1.665   3.505  0.3592  0.4075 -0.5085
10920TIP3    H154251   0.894   1.720   3.526 -0.3626  1.0455  0.4912
10920TIP3    H254252   0.752   1.691   3.567  0.2777 -2.2520  0.6809
10921TIP3   OH254253   3.068   5.134   1.013 -0.1352 -0.4133 -0.6450
10921TIP3    H154254   3.015   5.067   0.971 -0.3790 -0.5356 -0.1445
10921TIP3    H254255   3.112   5.179   0.941  1.7284 -2.5055 -0.9020
10922TIP3   OH254256   3.967   0.830   0.470 -0.6084 -0.5915 -0.0771
10922TIP3    H154257   3.983   0.920   0.441 -1.5814  0.4077  2.2918
10922TIP3    H254258   3.918   0.791   0.398  0.5518  0.4666 -1.5122
10923TIP3   OH254259   6.720   5.702   3.705  0.8274  0.5189 -0.6586
10923TIP3    H154260   6.665   5.752   3.645  1.1290 -0.8977 -2.2018
10923TIP3    H254261   6.659   5.659   3.764  0.3739  0.1914 -1.3598
10924TIP3   OH254262   1.230   3.293   3.114 -0.0558 -0.2925 -0.2520
10924TIP3    H154263   1.270   3.301   3.028 -1.8448 -1.4918 -1.2678
10924TIP3    H254264   1.208   3.383   3.139  1.9343  0.2319 -0.2804
10925TIP3   OH254265   0.901   1.960   2.376 -0.6307  0.9334 -0.3948
10925TIP3    H154266   0.821   2.008   2.400 -0.4243  0.0604  2.3824
10925TIP3    H254267   0.940   1.935   2.459  2.7000  1.4644 -1.6278
10926TIP3   OH254268   6.433   5.866   0.329  0.4254 -0.7330 -0.1959
10926TIP3    H154269   6.519   5.874   0.370  0.3348 -0.0332 -0.1356
10926TIP3    H254270   6.445   5.903   0.241  0.3663 -1.2981 -0.4440
10927TIP3   OH254271   4.997   2.605   2.948  0.2686 -0.0345 -0.1509
10927TIP3    H154272   5.056   2.557   2.890 -0.8058 -0.8849 -0.5830
10927TIP3    H254273   5.006   2.696   2.921  1.1283 -0.1940 -0.4304
10928TIP3   OH254274   5.962   2.481   0.330  0.2884  0.6193 -0.4329
10928TIP3    H154275   6.015   2.510   0.257 -0.1630  1.4168 -0.4557
10928TIP3    H254276   5.932   2.561   0.372 -1.3809  0.2318 -0.7800
10929TIP3   OH254277   2.908   0.004   2.677 -0.2439  0.1135 -0.1662
10929TIP3    H154278   2.992  -0.032   2.704 -0.3820 -0.9229 -1.0552
10929TIP3    H254279   2.881  -0.051   2.603 -1.5829  0.5870 -0.0521
10930TIP3   OH254280   2.221   0.764   5.512 -0.4135 -0.5628  0.1133
10930TIP3    H154281   2.198   0.846   5.556 -0.4295 -0.5338  0.0511
10930TIP3    H254282   2.296   0.730   5.562  0.0538 -0.1489 -0.2905
10931TIP3   OH254283   2.114   5.346   5.888  0.3827 -0.4218  0.1264
10931TIP3    H154284   2.182   5.280   5.899 -0.8598 -1.7023  0.3571
10931TIP3    H254285   2.060   5.339   5.966  0.1172  0.7690  0.0776
10932TIP3   OH254286   2.857   1.250   0.948 -0.5812 -0.0445  0.3677
10932TIP3    H154287   2.888   1.295   1.027 -1.4862 -0.3913  0.9419
10932TIP3    H254288   2.762   1.245   0.959 -0.6517 -0.6952 -0.4303
10933TIP3   OH254289   6.833   0.894   4.330 -0.7865  0.0280  0.4685
10933TIP3    H154290   6.855   0.952   4.257  0.4853  0.0621  0.8508
10933TIP3    H254291   6.831   0.806   4.291 -1.5023  0.1877  0.1298
10934TIP3   OH254292   2.086   4.403   3.720 -0.2660  0.2202 -0.1603
10934TIP3    H154293   2.155   4.345   3.688  0.1467  1.7883 -2.3048
10934TIP3    H254294   2.050   4.444   3.641 -1.3386  1.9884  1.1665
10935TIP3   OH254295   5.455   4.943   3.785 -0.0351 -0.0826  0.3910
10935TIP3    H154296   5.481   4.864   3.737  0.3110  0.4586 -0.3430
10935TIP3    H254297   5.536   4.994   3.792 -0.6878  1.2992 -1.2759
10936TIP3   OH254298   4.508   0.650   5.959 -0.2489  0.3362  0.0963
10936TIP3    H154299   4.449   0.621   6.028 -0.4801 -0.4914 -0.4410
10936TIP3    H254300   4.571   0.707   6.004  0.5717 -1.4337  1.3050
10937TIP3   OH254301   0.898   0.113   5.126 -0.4125 -0.0820  0.0147
10937TIP3    H154302   0.988   0.083   5.109 -0.3920  0.5030 -0.9629
10937TIP3    H254303   0.843   0.041   5.095 -0.3175  0.2713 -1.0334
10938TIP3   OH254304   0.339   2.106   2.220 -0.6799 -0.1454 -0.3119
10938TIP3    H154305   0.258   2.131   2.264  0.1952  0.8556  0.8060
10938TIP3    H254306   0.318   2.023   2.177 -2.1754 -0.1133  0.2825
10939TIP3   OH254307   2.860   0.273   5.164  0.1908 -0.6676  0.0687
10939TIP3    H154308   2.924   0.343   5.165 -0.6355  0.1393 -0.8066
10939TIP3    H254309   2.891   0.210   5.228  2.0963 -0.5275 -0.6689
10940TIP3   OH254310   0.259   2.412  16.891 -0.5159 -0.0457  0.3310
10940TIP3    H154311   0.297   2.385  16.808  0.0359 -0.5742  0.7385
10940TIP3    H254312   0.307   2.361  16.957 -0.6510  0.6653  1.0015
10941TIP3   OH254313   0.221   2.291   3.414  0.3115  0.7344 -0.2613
10941TIP3    H154314   0.133   2.278   3.450  1.2900  1.3678  2.6395
10941TIP3    H254315   0.262   2.205   3.422  0.1866  0.5997 -0.9987
10942TIP3   OH254316   1.606   0.217  15.129 -0.2849 -0.5612  0.3543
10942TIP3    H154317   1.566   0.301  15.110  0.8366 -0.3657 -1.4247
10942TIP3    H254318   1.657   0.232  15.208 -0.6110  0.2495  0.4172
10943TIP3   OH254319   2.161   0.248  16.577  0.2506 -0.6635  0.2332
10943TIP3    H154320   2.240   0.201  16.549  0.4146 -0.9872  1.2149
10943TIP3    H254321   2.115   0.268  16.495  1.7779  0.3029 -0.4383
10944TIP3   OH254322   2.926   5.967  16.840 -0.2096 -0.1614 -0.5995
10944TIP3    H154323   2.959   6.032  16.902 -1.5842 -0.5507  0.6088
10944TIP3    H254324   2.877   5.905  16.894 -2.4469  0.1040 -2.1496
10945TIP3   OH254325   4.415   2.024   2.924 -0.2279 -0.0093  0.4529
10945TIP3    H154326   4.478   2.095   2.939  0.7202 -1.2706  3.2225
10945TIP3    H254327   4.466   1.955   2.883 -0.3876 -0.1809  0.5445
10946TIP3   OH254328   4.691   6.338  11.994 -0.1034  0.5097  0.3236
10946TIP3    H154329   4.633   6.332  12.069 -0.6306  0.1747 -0.1025
10946TIP3    H254330   4.633   6.330  11.918  0.4737  0.3874 -0.1111
10947TIP3   OH254331   6.732   2.543  13.966 -0.0821 -0.2614  0.4259
10947TIP3    H154332   6.795   2.471  13.956  0.0791 -0.2192  1.0530
10947TIP3    H254333   6.646   2.501  13.962 -0.0056 -0.3687 -0.0889
10948TIP3   OH254334   5.302   5.838   5.185 -0.5806 -0.4294 -0.1418
10948TIP3    H154335   5.249   5.807   5.111 -0.8816  0.3888 -0.2845
10948TIP3    H254336   5.287   5.774   5.254 -0.0081 -1.4068 -0.8979
10949TIP3   OH254337   5.083   2.094  13.934  0.0232 -0.2547  0.2052
10949TIP3    H154338   5.147   2.058  13.872 -0.4831 -0.3306 -0.2750
10949TIP3    H254339   5.132   2.102  14.016  0.9860  0.7704 -0.4406
10950TIP3   OH254340   2.168   4.794   2.147 -0.3738 -0.2846 -0.1801
10950TIP3    H154341   2.234   4.850   2.105  0.8401 -0.5485  1.2822
10950TIP3    H254342   2.163   4.826   2.237 -2.0132 -0.5097 -0.1662
10951TIP3   OH254343   6.441   0.683   0.440  0.6670  0.1145 -0.0923
10951TIP3    H154344   6.506   0.620   0.410  0.0822 -0.6546  0.2148
10951TIP3    H254345   6.472   0.767   0.407  1.4172 -0.3421 -0.5831
10952TIP3   OH254346   3.344   4.092  14.596  0.6527 -0.4642 -0.0450
10952TIP3    H154347   3.406   4.118  14.664 -1.5969  1.2956  1.4784
10952TIP3    H254348   3.282   4.165  14.592 -2.4014 -2.9086 -0.1339
10953TIP3   OH254349   5.127   5.245  15.188  0.2596 -0.4162  0.4927
10953TIP3    H154350   5.057   5.230  15.125  1.3625 -2.1112 -0.4247
10953TIP3    H254351   5.203   5.269  15.134  0.8455 -0.4277  1.2924
10954TIP3   OH254352   1.883   5.247  15.683  0.5203 -0.1768  0.5573
10954TIP3    H154353   1.936   5.170  15.661 -1.3271 -1.7663  1.4212
10954TIP3    H254354   1.889   5.303  15.605  4.1024  0.1946  0.9080
10955TIP3   OH254355   0.098   3.893   5.371  0.2697 -0.1048  0.7313
10955TIP3    H154356   0.032   3.884   5.440 -2.2625  1.5382 -1.2607
10955TIP3    H254357   0.098   3.808   5.327 -0.8039 -0.0477  0.5788
10956TIP3   OH254358   6.354   5.115  12.722  0.1785  0.3012  0.0094
10956TIP3    H154359   6.271   5.161  12.732  0.4735  0.9184 -0.3525
10956TIP3    H254360   6.418   5.184  12.705  0.9077 -0.0868  1.0624
10957TIP3   OH254361   4.668   6.794  14.972 -0.0365  1.0250 -0.0833
10957TIP3    H154362   4.752   6.830  14.945  0.8595 -0.6644  0.3235
10957TIP3    H254363   4.646   6.842  15.052  0.1809  1.9487 -0.5637
10958TIP3   OH254364   2.505   6.788  10.350 -0.1572 -0.8153  0.0527
10958TIP3    H154365   2.533   6.721  10.288  1.3408  1.6119 -2.0972
10958TIP3    H254366   2.579   6.798  10.410  0.0728 -0.4174 -0.2844
10959TIP3   OH254367   1.974   2.103   6.128  0.0623  0.4501  0.7566
10959TIP3    H154368   1.983   2.040   6.199  0.6644 -0.4744 -0.1031
10959TIP3    H254369   2.052   2.158   6.135 -0.4318  1.0797  1.4700
10960TIP3   OH254370   2.571   6.554   3.864  0.0451 -0.0823 -0.0108
10960TIP3    H154371   2.625   6.591   3.934 -1.7802  0.7761  1.0321
10960TIP3    H254372   2.482   6.555   3.900 -0.9295  0.1316 -2.2473
10961TIP3   OH254373   4.418   1.164  15.555  0.3144 -0.0697  0.5751
10961TIP3    H154374   4.328   1.165  15.586  0.3954  0.5750  0.8183
10961TIP3    H254375   4.453   1.080  15.583  0.2926  0.3718  1.9823
10962TIP3   OH254376   0.580   4.955  15.922  0.2063 -0.5505  0.3202
10962TIP3    H154377   0.649   5.004  15.876 -1.5583  1.1418 -0.6550
10962TIP3    H254378   0.537   4.904  15.854  1.2256 -2.5836  1.1337
10963TIP3   OH254379   6.738   3.279   4.692 -0.4190  0.1458  0.9662
10963TIP3    H154380   6.717   3.362   4.734  1.9816 -0.0660  2.7752
10963TIP3    H254381   6.743   3.216   4.764  1.0913 -0.8438  0.0494
10964TIP3   OH254382   2.830   6.233  10.681 -0.0923  0.5818  0.5438
10964TIP3    H154383   2.883   6.308  10.654 -0.4038  0.1947 -1.2676
10964TIP3    H254384   2.869   6.158  10.637  0.4012 -0.4203  2.5784
10965TIP3   OH254385   2.725   6.117   5.237 -0.1075  0.1845 -0.2139
10965TIP3    H154386   2.659   6.184   5.253 -0.3777 -0.1191 -0.0573
10965TIP3    H254387   2.797   6.164   5.193 -0.7879  0.3399 -1.1874
10966TIP3   OH254388   4.952   3.477  12.413  0.4603  0.2039  0.1495
10966TIP3    H154389   4.890   3.534  12.367  0.4343  0.7191  0.8084
10966TIP3    H254390   4.896   3.418  12.463  0.4701  1.0947  1.2671
10967TIP3   OH254391   1.538   3.360  12.174 -0.1420  0.0035  0.2782
10967TIP3    H154392   1.542   3.302  12.098  0.2163 -0.0228  0.3167
10967TIP3    H254393   1.573   3.443  12.143  0.1663 -0.0573  0.4609
10968TIP3   OH254394   5.435   6.515   3.103  0.4062  0.0061  0.0864
10968TIP3    H154395   5.406   6.599   3.138 -0.6013 -0.6549  0.9211
10968TIP3    H254396   5.480   6.536   3.022 -1.0773  1.2452 -0.4544
10969TIP3   OH254397   2.466   1.610  16.949 -0.2963 -0.0177 -0.5544
10969TIP3    H154398   2.470   1.631  17.043  0.0082 -0.3394 -0.4970
10969TIP3    H254399   2.509   1.684  16.906 -0.8531  0.3622 -0.4782
10970TIP3   OH254400   1.612   5.698   3.823  0.1863  0.3591 -0.2836
10970TIP3    H154401   1.529   5.678   3.780  1.1851 -1.6511 -1.4014
10970TIP3    H254402   1.599   5.668   3.914 -0.4620  0.5266 -0.3118
10971TIP3   OH254403   2.208   6.332  16.493  0.0091  0.3197 -0.6582
10971TIP3    H154404   2.173   6.256  16.539  1.5648 -0.9569 -1.5012
10971TIP3    H254405   2.222   6.397  16.563  1.3056 -1.1896  0.5806
10972TIP3   OH254406   4.406   6.731  11.474 -0.5191  0.3328 -0.5976
10972TIP3    H154407   4.424   6.642  11.443  2.8442  1.2145 -1.6088
10972TIP3    H254408   4.311   6.733  11.488 -0.8418 -3.1066 -1.3601
10973TIP3   OH254409   2.722   4.903  12.996  0.5367  0.2740  0.6327
10973TIP3    H154410   2.650   4.948  13.040  1.0145  0.5489  1.1481
10973TIP3    H254411   2.724   4.816  13.037 -0.2588 -0.1664 -0.2254
10974TIP3   OH254412   6.145   4.539  13.478  0.0135  0.8438 -0.0291
10974TIP3    H154413   6.226   4.523  13.430  0.4184  1.6332  0.3660
10974TIP3    H254414   6.138   4.635  13.481 -0.4834  0.7894  0.6734
10975TIP3   OH254415   3.050   1.865   1.654 -0.1839 -0.3486  0.2134
10975TIP3    H154416   3.121   1.846   1.715 -0.0244  0.2567  0.2230
10975TIP3    H254417   2.987   1.793   1.666  0.7060 -1.2185 -0.2348
10976TIP3   OH254418   3.658   4.461   0.190 -1.0601 -0.1743 -0.0584
10976TIP3    H154419   3.670   4.553   0.165  1.8280 -0.5276 -0.3000
10976TIP3    H254420   3.563   4.451   0.199 -1.5846  2.3734 -1.6793
10977TIP3   OH254421   2.538   2.956  15.355  0.0305 -0.0410  0.0381
10977TIP3    H154422   2.594   3.026  15.387  0.9056 -0.4453 -0.5530
10977TIP3    H254423   2.565   2.879  15.404  0.1196 -0.2780 -0.3760
10978TIP3   OH254424   5.936   6.269  15.401 -0.3379  0.1063 -0.2388
10978TIP3    H154425   5.855   6.223  15.379  0.4248 -1.2274 -0.4321
10978TIP3    H254426   5.999   6.239  15.334  0.3789  0.9164  0.0486
10979TIP3   OH254427   1.968   5.156  11.575 -0.0469 -0.1250  0.0525
10979TIP3    H154428   1.945   5.063  11.574  1.0641 -0.4360  1.2967
10979TIP3    H254429   2.016   5.169  11.493  0.7739 -0.9346  0.3853
10980TIP3   OH254430   1.231   5.170   0.665 -1.1669 -0.4868  0.3668
10980TIP3    H154431   1.239   5.261   0.692  1.0183 -0.5442  0.1176
10980TIP3    H254432   1.264   5.120   0.740  2.9525 -0.7412 -1.3929
10981TIP3   OH254433   1.914   3.557  10.978 -0.1589 -0.1286  0.5272
10981TIP3    H154434   1.883   3.484  10.924  0.8686  1.0732 -1.8050
10981TIP3    H254435   1.836   3.612  10.990 -0.6175 -0.8885  1.1327
10982TIP3   OH254436   4.251   6.203  14.025  0.7426  0.3979 -0.6947
10982TIP3    H154437   4.345   6.221  14.021  0.6949  1.2378  1.0598
10982TIP3    H254438   4.243   6.126  14.081  0.3568  0.7873 -0.1965
10983TIP3   OH254439   4.310   4.312   3.805  0.6470  0.1577  0.6176
10983TIP3    H154440   4.248   4.362   3.858  0.5797  0.6245  0.1140
10983TIP3    H254441   4.380   4.374   3.785  1.0939 -0.2597  0.8671
10984TIP3   OH254442   4.155   0.272  10.967 -0.7548  0.0144 -0.2398
10984TIP3    H154443   4.074   0.322  10.978  0.0478  1.3016 -0.0149
10984TIP3    H254444   4.141   0.219  10.889 -1.2597  1.3306 -1.0563
10985TIP3   OH254445   2.912   4.621  12.222  0.0662  0.1271  0.0971
10985TIP3    H154446   2.955   4.596  12.303  0.4241  0.0351 -0.1189
10985TIP3    H254447   2.888   4.713  12.235 -0.9342 -0.2060  0.7516
10986TIP3   OH254448   3.153   1.201  15.464  0.2310 -0.4759 -0.1151
10986TIP3    H154449   3.184   1.135  15.526  1.3109 -0.9409 -1.1180
10986TIP3    H254450   3.231   1.250  15.439 -0.5879  1.4107  0.8102
10987TIP3   OH254451   0.784   4.764  13.379 -0.2858 -0.2199 -0.2803
10987TIP3    H154452   0.692   4.739  13.383 -0.2537 -0.2875  3.6352
10987TIP3    H254453   0.823   4.701  13.318 -2.5258 -1.1110 -0.8920
10988TIP3   OH254454   5.463   2.989  11.308  0.1494  0.5202  1.0438
10988TIP3    H154455   5.379   2.950  11.282  0.6022  0.9162 -1.2243
10988TIP3    H254456   5.443   3.038  11.387 -2.0462  1.5138 -0.0267
10989TIP3   OH254457   6.178   5.955   4.861 -1.0049  0.2658  0.2185
10989TIP3    H154458   6.115   5.917   4.800  0.3383  1.3738 -1.9864
10989TIP3    H254459   6.264   5.935   4.823 -0.1420  1.7976  1.2586
10990TIP3   OH254460   4.971   4.325  12.409 -0.1595 -0.7021  0.5556
10990TIP3    H154461   5.027   4.294  12.338  0.2334  0.5149  0.3062
10990TIP3    H254462   4.883   4.302  12.381  0.1367 -1.8514  0.5336
10991TIP3   OH254463   1.357   4.970   3.243 -0.4993  0.4222 -0.1423
10991TIP3    H154464   1.437   4.919   3.231  0.6003  2.1445 -0.5292
10991TIP3    H254465   1.320   4.939   3.325  2.0587  1.4304  1.4895
10992TIP3   OH254466   1.196   2.331   2.721  0.7605  0.2922 -0.9371
10992TIP3    H154467   1.239   2.400   2.671  1.5375 -0.4197 -1.2839
10992TIP3    H254468   1.106   2.361   2.733  0.8228  0.9016 -1.9534
10993TIP3   OH254469   5.717   6.636   4.856  0.5016  0.6555  0.2011
10993TIP3    H154470   5.745   6.683   4.777  1.3606 -1.6785 -0.9827
10993TIP3    H254471   5.798   6.602   4.893 -0.0619  0.3558  1.1809
10994TIP3   OH254472   0.120   3.515   4.561 -0.4366 -0.2202  0.2330
10994TIP3    H154473   0.113   3.591   4.619  0.5349 -0.8456  1.1957
10994TIP3    H254474   0.048   3.457   4.589 -0.9686  0.1833 -0.2774
10995TIP3   OH254475   4.032   4.249  15.861  0.0287 -0.4286 -0.4159
10995TIP3    H154476   4.011   4.295  15.780 -3.0103 -1.8057 -0.5079
10995TIP3    H254477   4.084   4.174  15.834  2.7135  1.2922 -0.5199
10996TIP3   OH254478   1.169   5.308   1.269  0.3134 -0.0581 -0.4577
10996TIP3    H154479   1.082   5.329   1.304  0.4184 -2.9418  1.9213
10996TIP3    H254480   1.154   5.290   1.177 -1.6546 -0.6204 -0.0754
10997TIP3   OH254481   0.384   5.866  13.247 -0.0667  0.1367 -0.4267
10997TIP3    H154482   0.350   5.955  13.249  3.5843  1.7159 -0.5369
10997TIP3    H254483   0.306   5.810  13.246 -2.5203  3.2940 -1.2007
10998TIP3   OH254484   2.432   2.264  16.497 -0.5278 -0.4273 -0.7617
10998TIP3    H154485   2.478   2.181  16.492  1.0050  0.3810 -0.5619
10998TIP3    H254486   2.464   2.314  16.423 -0.4094  0.4767 -0.1205
10999TIP3   OH254487   6.270   3.606  12.415 -0.1290 -0.0670 -0.1101
10999TIP3    H154488   6.314   3.563  12.342 -3.2951  0.9169 -2.8392
10999TIP3    H254489   6.260   3.538  12.481  0.0223 -1.9658 -1.9576
11000TIP3   OH254490   3.169   5.847  14.929  0.1088  0.0593  0.6182
11000TIP3    H154491   3.225   5.924  14.930  1.1225 -0.6697  1.1134
11000TIP3    H254492   3.197   5.798  14.851  0.4776 -0.5278  1.1163
11001TIP3   OH254493   1.282   0.773   2.253  0.6096  0.5108  0.6363
11001TIP3    H154494   1.326   0.856   2.270  0.9544  0.4944 -0.1392
11001TIP3    H254495   1.326   0.709   2.310  1.6928  0.4648 -0.2431
11002TIP3   OH254496   3.203   3.789  16.685  0.3179  0.4104 -0.0757
11002TIP3    H154497   3.263   3.731  16.732  0.3215 -0.4835 -1.1362
11002TIP3    H254498   3.116   3.766  16.717  0.2553 -0.7017 -0.9984
11003TIP3   OH254499   3.417   2.639   3.382  0.1528 -0.3828  0.3404
11003TIP3    H154500   3.468   2.718   3.394  2.3794 -1.7111  0.0810
11003TIP3    H254501   3.433   2.588   3.461  1.2212 -1.8523 -0.7732
11004TIP3   OH254502   1.093   5.601  11.238  0.4446 -0.0799 -0.8287
11004TIP3    H154503   1.149   5.535  11.280 -1.6604 -1.2718  0.2449
11004TIP3    H254504   1.035   5.630  11.308 -0.3967  1.0023 -1.9426
11005TIP3   OH254505   4.593   0.437  12.692 -0.2268  0.3194  0.1257
11005TIP3    H154506   4.562   0.364  12.746  1.5549  0.4519  1.4127
11005TIP3    H254507   4.512   0.478  12.660 -1.4148  0.1896  2.6769
11006TIP3   OH254508   3.148   2.927  16.104 -0.0847 -0.2768  0.0214
11006TIP3    H154509   3.233   2.970  16.094  0.5691 -1.7386 -1.1274
11006TIP3    H254510   3.160   2.867  16.178  0.3116 -1.3937 -0.9218
11007TIP3   OH254511   5.572   5.346  10.562 -0.3390 -0.2502  0.5341
11007TIP3    H154512   5.664   5.366  10.579 -0.2535 -0.2213  0.0441
11007TIP3    H254513   5.572   5.255  10.532 -0.4956 -0.3227  0.7524
11008TIP3   OH254514   0.029   6.309   2.027 -0.6169  0.1347 -0.3051
11008TIP3    H154515  -0.036   6.272   2.088 -0.0174 -0.1569  0.1724
11008TIP3    H254516   0.091   6.238   2.014  1.0514  1.1968  1.3080
11009TIP3   OH254517   1.912   1.622  11.058 -0.1633 -0.1339  0.0635
11009TIP3    H154518   2.007   1.623  11.045 -0.3535 -1.4859 -1.7209
11009TIP3    H254519   1.886   1.713  11.046  0.6751 -0.0730 -1.5505
11010TIP3   OH254520   1.955   0.826  14.571  0.3330 -0.1460 -0.0581
11010TIP3    H154521   1.994   0.898  14.620  2.3416 -1.2182  0.0023
11010TIP3    H254522   1.940   0.758  14.637  0.9563 -0.7724 -0.5570
11011TIP3   OH254523   0.804   5.819  16.825  0.9536  0.2564 -0.0010
11011TIP3    H154524   0.768   5.741  16.782  2.3245  0.0127 -0.7847
11011TIP3    H254525   0.805   5.798  16.918  0.4602 -0.3022 -0.1185
11012TIP3   OH254526   0.038   6.301   2.428 -0.4194 -0.4870  0.0730
11012TIP3    H154527   0.006   6.227   2.377  0.1377 -0.6851  0.0083
11012TIP3    H254528  -0.038   6.327   2.481 -1.2287  0.1893 -1.3638
11013TIP3   OH254529   0.570   5.138  14.719  0.0340  0.4707 -0.5993
11013TIP3    H154530   0.633   5.128  14.648  0.6208  0.1203 -0.0516
11013TIP3    H254531   0.497   5.082  14.694 -0.0728  0.8970 -1.2565
11014TIP3   OH254532   5.415   1.256  13.065 -0.1977  0.2253 -0.1472
11014TIP3    H154533   5.423   1.340  13.020  2.6834 -0.2579 -0.7648
11014TIP3    H254534   5.445   1.191  13.001  1.3574 -0.7870  1.4864
11015TIP3   OH254535   1.684   0.814  13.717  0.3374  0.5161 -0.0439
11015TIP3    H154536   1.758   0.875  13.717 -0.6279  1.7370 -0.8881
11015TIP3    H254537   1.692   0.767  13.634  0.0616  0.8027 -0.2365
11016TIP3   OH254538   6.721   0.218   4.021 -0.2033 -0.3701 -0.4534
11016TIP3    H154539   6.792   0.243   4.080  2.1199 -1.8329 -2.4780
11016TIP3    H254540   6.662   0.165   4.075  2.4994 -2.7704  0.3506
11017TIP3   OH254541   5.165   2.968  11.662 -0.8755 -0.2698  0.0493
11017TIP3    H154542   5.086   2.942  11.616 -1.1948 -0.1392  0.5177
11017TIP3    H254543   5.138   3.043  11.715 -0.1981  0.4142 -0.5524
11018TIP3   OH254544   4.859   6.365   5.186 -0.2899 -0.1048 -0.0517
11018TIP3    H154545   4.809   6.412   5.119  1.1513  0.0456 -1.0784
11018TIP3    H254546   4.793   6.320   5.238 -1.5163  0.5498 -0.9841
11019TIP3   OH254547   6.426   4.241  13.287  0.3201 -0.6564  0.3070
11019TIP3    H154548   6.362   4.230  13.216 -1.2142 -1.4577  1.7444
11019TIP3    H254549   6.497   4.182  13.264 -0.3141 -1.1685 -0.4026
11020TIP3   OH254550   5.846   1.538  11.410 -0.2756  0.6791 -0.2835
11020TIP3    H154551   5.781   1.510  11.346 -0.0427  1.3308 -0.8174
11020TIP3    H254552   5.803   1.608  11.459  0.0502  1.1841 -0.7075
11021TIP3   OH254553   1.966   1.587   4.825  0.4345 -0.1358  0.0522
11021TIP3    H154554   2.004   1.644   4.893  0.8509  0.4642 -0.6678
11021TIP3    H254555   1.881   1.561   4.861  1.2613 -1.0500  1.4556
11022TIP3   OH254556   0.222   2.638   3.688 -0.5596 -0.3505  0.6053
11022TIP3    H154557   0.164   2.678   3.623 -1.4762 -1.6810  0.5888
11022TIP3    H254558   0.177   2.650   3.771  0.4631  1.0565  1.0062
11023TIP3   OH254559   3.090   3.308  15.267  0.1394  0.2244 -0.1263
11023TIP3    H154560   3.138   3.228  15.249 -0.9926 -1.2070  2.6123
11023TIP3    H254561   3.154   3.366  15.310  0.6305  0.3238 -0.9717
11024TIP3   OH254562   5.402   0.251   4.848 -0.1920 -0.2878  0.0578
11024TIP3    H154563   5.418   0.165   4.809 -0.6737 -0.4536  0.2188
11024TIP3    H254564   5.320   0.280   4.807  0.2528  0.3397 -0.4132
11025TIP3   OH254565   4.737   6.106   4.224  0.2198 -0.0722 -0.4927
11025TIP3    H154566   4.706   6.161   4.153 -1.1664 -0.5816 -0.3195
11025TIP3    H254567   4.714   6.153   4.304  1.2633  0.2332 -0.3537
11026TIP3   OH254568   6.286   0.789   3.760 -0.1673 -0.2491  0.4091
11026TIP3    H154569   6.232   0.755   3.831 -0.7878  1.0446  0.5889
11026TIP3    H254570   6.231   0.855   3.718  0.5197 -0.3750 -0.7253
11027TIP3   OH254571   2.194   6.186  12.175  0.7783  0.3579 -0.5100
11027TIP3    H154572   2.165   6.117  12.116  1.7748  1.2452 -2.1308
11027TIP3    H254573   2.142   6.262  12.149 -0.4735  0.2111  1.4066
11028TIP3   OH254574   3.829   0.184  16.620  0.8378 -0.2605  0.3760
11028TIP3    H154575   3.777   0.237  16.680 -2.0026  0.2406 -2.2652
11028TIP3    H254576   3.841   0.239  16.543  0.2041 -2.4097 -1.3768
11029TIP3   OH254577   5.393   0.871  13.378 -0.0026  0.3178  0.0606
11029TIP3    H154578   5.376   0.963  13.355 -0.0463  0.7841  1.8364
11029TIP3    H254579   5.342   0.857  13.458 -0.2007 -1.3446 -0.3417
11030TIP3   OH254580   6.127   1.166  13.332 -0.1699 -0.1468  0.3394
11030TIP3    H154581   6.134   1.261  13.331  0.5455 -0.1913  0.6541
11030TIP3    H254582   6.146   1.139  13.242  1.1156 -0.0822  0.5769
11031TIP3   OH254583   3.215   4.903   0.903  0.2209 -0.1970 -0.0628
11031TIP3    H154584   3.211   4.999   0.902  1.6355 -0.1207 -0.1989
11031TIP3    H254585   3.296   4.883   0.950 -0.3366 -1.3493  0.4547
11032TIP3   OH254586   3.161   0.381   4.467  0.3578  0.2217  0.1448
11032TIP3    H154587   3.167   0.473   4.492  1.2548  0.0005  0.7876
11032TIP3    H254588   3.094   0.345   4.526 -1.0656  0.7535 -1.0766
11033TIP3   OH254589   6.837   5.911  17.096 -0.0412  0.0243 -0.7312
11033TIP3    H154590   6.906   5.892  17.159 -1.6439 -0.7096  0.8798
11033TIP3    H254591   6.843   6.005  17.082  0.3075  0.2259  0.6012
11034TIP3   OH254592   3.333   6.609   1.580 -0.1397 -0.3523  0.1060
11034TIP3    H154593   3.381   6.527   1.569  2.7624  1.3039 -0.6866
11034TIP3    H254594   3.316   6.615   1.674  3.0660 -0.1793  0.7871
11035TIP3   OH254595   2.725   0.909   3.458 -0.1674  0.1647  0.1615
11035TIP3    H154596   2.819   0.894   3.466  0.2113  1.4901 -1.2558
11035TIP3    H254597   2.703   0.965   3.532  0.5225  1.2203 -0.4064
11036TIP3   OH254598   4.316   2.951  13.511 -0.7488  0.3094 -0.3521
11036TIP3    H154599   4.264   2.886  13.463  1.4830 -1.3840 -0.6623
11036TIP3    H254600   4.328   3.023  13.449 -2.0848  0.4008 -0.5168
11037TIP3   OH254601   6.645   6.101  16.808  0.3718  0.1562 -0.0736
11037TIP3    H154602   6.599   6.081  16.726 -2.5945  1.1437  1.1952
11037TIP3    H254603   6.702   6.174  16.787 -0.8909  0.8756 -1.1367
11038TIP3   OH254604   5.134   0.937   2.306 -0.1525  0.0678 -0.1862
11038TIP3    H154605   5.077   0.860   2.310  0.9891 -1.0489 -2.9577
11038TIP3    H254606   5.221   0.903   2.326  0.2596  0.7548 -0.7736
11039TIP3   OH254607   6.704   1.358   5.109 -0.1282 -0.3704  0.4982
11039TIP3    H154608   6.653   1.422   5.060  0.9430 -1.8223 -2.7965
11039TIP3    H254609   6.767   1.410   5.159 -1.1045  1.2111  0.1318
11040TIP3   OH254610   2.626   3.680   4.928 -0.7882 -0.1489  0.2200
11040TIP3    H154611   2.541   3.684   4.971 -0.3161 -1.4349  1.3511
11040TIP3    H254612   2.690   3.682   4.999  0.1765  1.0517 -0.6143
11041TIP3   OH254613   5.717   6.385  12.877 -0.0439  0.2817  0.1222
11041TIP3    H154614   5.691   6.330  12.803 -1.5884 -0.2182  0.9975
11041TIP3    H254615   5.713   6.327  12.953 -1.6119  1.5094  1.0505
11042TIP3   OH254616   2.958   3.306   2.923 -0.1062  0.0007  0.3368
11042TIP3    H154617   2.948   3.264   2.837  1.6001 -1.0707  0.6054
11042TIP3    H254618   2.871   3.303   2.962 -1.3358  2.0435 -1.9772
11043TIP3   OH254619   0.275   3.741  14.909  0.6674 -0.6022 -0.2590
11043TIP3    H154620   0.285   3.659  14.861 -0.3726 -0.7954 -0.1736
11043TIP3    H254621   0.212   3.792  14.857 -1.4691 -1.3139  1.4548
11044TIP3   OH254622   0.820   3.511   3.857  0.0633  0.3800  0.2063
11044TIP3    H154623   0.913   3.518   3.835  0.2602 -1.2152  0.3737
11044TIP3    H254624   0.775   3.508   3.773  0.5431 -2.6212 -0.0488
11045TIP3   OH254625   0.134   2.121   5.928  0.1746  0.2922  0.4483
11045TIP3    H154626   0.157   2.095   6.017 -0.3549 -0.5592  0.3516
11045TIP3    H254627   0.074   2.052   5.898 -1.9970  2.0563  0.4669
11046TIP3   OH254628   2.436   1.309  12.251 -0.3501 -0.8293 -0.1459
11046TIP3    H154629   2.341   1.300  12.239 -0.5616 -0.3473  1.0061
11046TIP3    H254630   2.454   1.401  12.229 -0.3337 -0.6256  0.7056
11047TIP3   OH254631   2.509   5.703  15.735 -0.2603 -0.3484  0.0476
11047TIP3    H154632   2.437   5.740  15.683  0.6913 -1.6095 -2.2854
11047TIP3    H254633   2.588   5.737  15.693  0.5604 -0.6041  1.3428
11048TIP3   OH254634   3.748   1.249  14.252  0.3177  0.4376  0.3731
11048TIP3    H154635   3.689   1.223  14.181  1.2812 -3.0784  0.6656
11048TIP3    H254636   3.835   1.224  14.221  1.2937  2.5559  1.2401
11049TIP3   OH254637   3.149   6.293   3.266 -0.3535  0.4357 -0.3354
11049TIP3    H154638   3.147   6.329   3.354 -2.8144  2.0115 -0.9097
11049TIP3    H254639   3.075   6.232   3.264  0.5242 -0.6413 -0.9374
11050TIP3   OH254640   0.350   0.985  14.591 -0.2600  0.0064 -0.4402
11050TIP3    H154641   0.438   0.952  14.576 -0.4084 -0.2412 -0.7848
11050TIP3    H254642   0.358   1.042  14.668  0.4065  0.8304 -1.0918
11051TIP3   OH254643   3.593   5.762   4.322  0.0349  0.1900  0.0836
11051TIP3    H154644   3.527   5.720   4.268 -0.8966 -0.2323  1.4923
11051TIP3    H254645   3.661   5.695   4.333 -0.0553  0.0737 -0.0609
11052TIP3   OH254646   1.706   2.418  13.652  0.2513 -0.5168 -0.0163
11052TIP3    H154647   1.793   2.380  13.639  0.1564 -0.2146 -1.7588
11052TIP3    H254648   1.712   2.463  13.736  1.6903 -0.7547  0.0338
11053TIP3   OH254649   2.990   3.382  14.857  0.3992 -0.3640  0.1557
11053TIP3    H154650   3.036   3.303  14.884  2.9827  0.5239 -1.2767
11053TIP3    H254651   3.045   3.454  14.886 -1.3093  0.9200  0.4107
11054TIP3   OH254652   4.820   1.916  11.657 -0.1647  0.4120  1.2803
11054TIP3    H154653   4.776   1.989  11.614 -0.1971 -0.9761 -1.1955
11054TIP3    H254654   4.753   1.849  11.667  0.8843 -1.1075 -1.0500
11055TIP3   OH254655   6.068   2.031   4.216 -0.2604 -0.7316 -0.0188
11055TIP3    H154656   6.017   2.001   4.291 -0.0112 -0.8872  0.0905
11055TIP3    H254657   6.132   1.962   4.201 -1.5873 -1.6770 -1.6726
11056TIP3   OH254658   4.479   3.393   0.178  0.1637  0.3264 -0.5115
11056TIP3    H154659   4.492   3.335   0.253 -0.6445 -1.6147 -1.8046
11056TIP3    H254660   4.517   3.346   0.104 -1.3226  0.9971 -1.7713
11057TIP3   OH254661   1.445   1.065   1.946  0.5701 -0.3448  0.7422
11057TIP3    H154662   1.531   1.026   1.929  2.0421  1.8501  2.4871
11057TIP3    H254663   1.394   0.995   1.986  1.0183 -2.1071 -1.6215
11058TIP3   OH254664   1.852   5.916  13.874  0.1310  0.3026  0.1894
11058TIP3    H154665   1.840   6.004  13.839 -0.0001  0.0167 -0.5202
11058TIP3    H254666   1.932   5.884  13.831 -0.8415 -0.6000 -1.0415
11059TIP3   OH254667   5.843   4.779  11.913  0.6797 -0.0278 -0.2223
11059TIP3    H154668   5.790   4.704  11.940  0.1227 -1.2245 -4.0558
11059TIP3    H254669   5.783   4.853  11.913 -0.1304 -0.6664 -1.1986
11060TIP3   OH254670   3.842   0.228  11.322  0.1534 -0.4582 -0.1978
11060TIP3    H154671   3.755   0.253  11.291 -0.4451  0.4421  2.0345
11060TIP3    H254672   3.841   0.132  11.319 -0.3715 -0.4334 -1.5286
11061TIP3   OH254673   2.015   2.241   1.208  0.0459 -0.1909 -0.1433
11061TIP3    H154674   2.078   2.251   1.280  1.1819 -0.4861 -1.0621
11061TIP3    H254675   1.969   2.159   1.228  0.6060 -0.4571  0.0601
11062TIP3   OH254676   1.850   6.080  11.042 -0.0760 -0.1510  0.4909
11062TIP3    H154677   1.775   6.023  11.063  0.4967 -0.6971  1.1065
11062TIP3    H254678   1.926   6.029  11.068  0.5099  0.4815  0.0473
11063TIP3   OH254679   4.203   2.910   0.190  0.1137 -0.3043 -0.4818
11063TIP3    H154680   4.223   2.995   0.152  0.6920  0.6092  1.6939
11063TIP3    H254681   4.241   2.847   0.130  1.2134  1.0495 -1.2605
11064TIP3   OH254682   4.201   5.466   4.421  0.1595  0.0996 -0.2812
11064TIP3    H154683   4.202   5.551   4.377 -2.5390  0.1625 -0.3922
11064TIP3    H254684   4.149   5.481   4.500  1.4075 -1.0037  0.8076
11065TIP3   OH254685   5.141   1.248   0.704 -0.1539  0.1552 -0.3966
11065TIP3    H154686   5.223   1.240   0.656 -0.2716  1.2471 -0.8131
11065TIP3    H254687   5.074   1.256   0.636 -0.4795  0.3458 -0.0564
11066TIP3   OH254688   6.677   1.264  11.076 -0.0463 -0.0907  0.2658
11066TIP3    H154689   6.691   1.194  11.013  0.3087  0.1743  0.0474
11066TIP3    H254690   6.655   1.219  11.158  3.4913 -0.6721  1.0587
11067TIP3   OH254691   5.768   1.409  13.908  0.0319  0.1701 -0.5343
11067TIP3    H154692   5.712   1.467  13.959 -1.3122 -1.9029  0.5007
11067TIP3    H254693   5.775   1.329  13.961  0.6336 -1.1621 -2.4846
11068TIP3   OH254694   2.818   0.588   4.317 -0.1857 -0.5530  0.4811
11068TIP3    H154695   2.845   0.640   4.242  2.0617 -0.9443  0.9461
11068TIP3    H254696   2.772   0.513   4.280 -0.3589 -0.0128 -0.4051
11069TIP3   OH254697   6.758   1.306   2.456 -0.5777  0.8781  0.7286
11069TIP3    H154698   6.722   1.232   2.504  0.0792 -1.1021 -1.6336
11069TIP3    H254699   6.823   1.344   2.515  1.0250 -2.1450  1.0699
11070TIP3   OH254700   2.294   2.645   3.782  0.1520 -0.0055 -0.3903
11070TIP3    H154701   2.340   2.561   3.785 -0.0015 -0.1800 -1.9140
11070TIP3    H254702   2.358   2.706   3.746 -0.1874  0.1998 -0.6529
11071TIP3   OH254703   6.376   2.169   5.285  0.2175  0.1735 -0.2668
11071TIP3    H154704   6.375   2.264   5.273  2.1342  0.1845 -0.6031
11071TIP3    H254705   6.414   2.135   5.203 -2.4977 -1.0947 -1.1348
11072TIP3   OH254706   3.514   4.993  11.968  0.0531  0.1517  0.2866
11072TIP3    H154707   3.451   5.059  11.939  1.0695  0.3842 -1.5867
11072TIP3    H254708   3.471   4.910  11.949  0.1321  0.3087 -0.6409
11073TIP3   OH254709   2.081   3.736   2.455 -0.3939 -0.1011  0.5433
11073TIP3    H154710   2.064   3.644   2.475 -0.1606  0.0413  1.4425
11073TIP3    H254711   1.994   3.775   2.448 -0.5460 -0.6582 -1.2938
11074TIP3   OH254712   0.994   2.077  14.096  0.4131  0.1820  0.1163
11074TIP3    H154713   1.074   2.129  14.102 -0.6158  1.7146  1.2664
11074TIP3    H254714   0.950   2.109  14.018  1.0733 -0.9585 -0.7600
11075TIP3   OH254715   4.652   3.400   4.934 -0.0786 -0.2664  0.1678
11075TIP3    H154716   4.642   3.305   4.939 -0.2480 -0.2858 -0.5491
11075TIP3    H254717   4.718   3.414   4.866  1.1707  0.0696  1.3895
11076TIP3   OH254718   6.065   3.127   3.891 -0.1920  0.4495 -0.1947
11076TIP3    H154719   6.072   3.093   3.802  0.0755  1.0355 -0.4026
11076TIP3    H254720   6.062   3.222   3.880 -0.2159  0.5210  0.4189
11077TIP3   OH254721   0.607   6.223  14.952 -0.0311  0.5344  0.5976
11077TIP3    H154722   0.524   6.240  14.908 -0.4277  0.8044  1.4286
11077TIP3    H254723   0.668   6.203  14.881 -0.2447  2.5723 -0.2349
11078TIP3   OH254724   5.064   2.299  15.918 -0.6199  0.4826 -0.0737
11078TIP3    H154725   5.051   2.229  15.854 -0.1759 -0.4553  0.8271
11078TIP3    H254726   5.076   2.254  16.002  1.1770  1.5350  0.3181
11079TIP3   OH254727   6.150   5.811   4.344  0.0357 -0.0347 -0.6556
11079TIP3    H154728   6.145   5.892   4.293 -1.8402  0.1905 -0.1891
11079TIP3    H254729   6.157   5.741   4.279 -0.7528  0.3579 -1.1741
11080TIP3   OH254730   5.962   5.879   0.746 -0.1623 -0.7771 -0.4497
11080TIP3    H154731   6.021   5.939   0.700 -2.3697  1.2880 -0.7689
11080TIP3    H254732   5.952   5.805   0.687  2.4741 -1.4857 -0.1376
11081TIP3   OH254733   2.183   4.623  17.134 -0.0257 -0.7547 -0.7163
11081TIP3    H154734   2.186   4.530  17.114 -3.1513 -0.6989 -1.9646
11081TIP3    H254735   2.173   4.665  17.048  0.9602  0.7298 -0.1392
11082TIP3   OH254736   0.525   3.317  14.882 -0.1698 -0.3155  0.0783
11082TIP3    H154737   0.520   3.230  14.842  0.4166 -1.1935  1.7917
11082TIP3    H254738   0.458   3.368  14.838  0.5826 -1.1158 -2.1388
11083TIP3   OH254739   4.172   1.729  10.761  0.2704 -0.0011 -0.0467
11083TIP3    H154740   4.123   1.787  10.702 -0.1735 -0.0388  0.2822
11083TIP3    H254741   4.125   1.646  10.759  0.7393 -0.2669 -0.2875
11084TIP3   OH254742   6.366   4.174  13.633 -0.3030 -0.1180  0.2345
11084TIP3    H154743   6.445   4.119  13.635  0.0994  0.4472  0.2376
11084TIP3    H254744   6.390   4.253  13.682 -0.4370  0.6162 -0.8268
11085TIP3   OH254745   1.982   3.495   6.005  0.1597  0.0996  0.6142
11085TIP3    H154746   1.995   3.401   5.994  1.0060  0.1153  1.3319
11085TIP3    H254747   1.966   3.527   5.916 -3.2690 -1.1188  0.6712
11086TIP3   OH254748   2.645   3.248  16.975 -0.0229  0.0712  0.3692
11086TIP3    H154749   2.653   3.278  16.885 -0.8592  0.3380  0.3737
11086TIP3    H254750   2.596   3.166  16.969 -2.1842  1.2493  0.7252
11087TIP3   OH254751   2.365   1.381  16.641  0.2575 -0.0946  0.2719
11087TIP3    H154752   2.269   1.382  16.651  0.2357 -1.5274  0.3767
11087TIP3    H254753   2.382   1.436  16.564 -0.4576  1.9563  1.4816
11088TIP3   OH254754   0.081   5.068   6.185 -0.2097  0.2991 -0.4688
11088TIP3    H154755   0.101   4.993   6.240  0.6424  0.1002 -1.0322
11088TIP3    H254756  -0.012   5.085   6.200 -0.6076 -1.3597 -0.9492
11089TIP3   OH254757   2.998   6.782   6.091  0.1794 -0.1390  0.4389
11089TIP3    H154758   3.087   6.796   6.124  1.3811  0.2443 -2.6684
11089TIP3    H254759   2.941   6.809   6.163  2.5177 -1.1692  2.8506
11090TIP3   OH254760   3.302   1.582   5.594 -0.0838  0.2923  0.3427
11090TIP3    H154761   3.256   1.535   5.664 -0.1548  0.3857  0.3590
11090TIP3    H254762   3.393   1.587   5.624  0.0072 -0.1844  0.1588
11091TIP3   OH254763   6.474   1.538  14.329 -0.8414  0.3458 -0.3473
11091TIP3    H154764   6.418   1.506  14.401  0.5235  1.8358  1.4785
11091TIP3    H254765   6.474   1.466  14.266 -4.8437  0.2678 -0.5556
11092TIP3   OH254766   6.632   1.901  12.346  0.4363  0.2331  0.2445
11092TIP3    H154767   6.680   1.978  12.314 -0.1933  0.1996 -0.8584
11092TIP3    H254768   6.699   1.848  12.389  0.9345  1.2619  0.7860
11093TIP3   OH254769   6.505   4.316   1.847  0.0644 -0.3612 -0.3153
11093TIP3    H154770   6.498   4.307   1.942  1.0986 -0.2297 -0.2184
11093TIP3    H254771   6.478   4.230   1.813  4.7778 -2.4299  0.3659
11094TIP3   OH254772   6.767   3.050  15.668  0.6993  0.2838  0.0746
11094TIP3    H154773   6.836   3.034  15.733  0.1160  0.4612  0.7434
11094TIP3    H254774   6.713   3.120  15.706 -0.5497 -0.6699  0.1095
11095TIP3   OH254775   4.969   5.874  12.804  0.0802  0.0043  0.0805
11095TIP3    H154776   4.974   5.779  12.817 -0.8536 -0.2158 -1.0089
11095TIP3    H254777   4.928   5.907  12.883  0.5774 -0.4769  0.5478
11096TIP3   OH254778   3.900   6.055  15.591  0.0266 -0.7898  0.0484
11096TIP3    H154779   3.881   5.963  15.607 -0.5679 -0.4257  1.5046
11096TIP3    H254780   3.993   6.057  15.569  0.0145 -1.7387 -0.0969
11097TIP3   OH254781   4.851   6.682  13.046 -0.1802 -0.0319  0.0153
11097TIP3    H154782   4.847   6.755  13.107 -0.0174  0.6135 -0.7263
11097TIP3    H254783   4.937   6.690  13.005 -0.0384 -0.8242  0.1430
11098TIP3   OH254784   2.364   6.377   2.996 -0.5001  0.1826  0.1466
11098TIP3    H154785   2.371   6.470   3.020  1.1461  0.0863  0.1166
11098TIP3    H254786   2.425   6.333   3.055 -0.7078 -0.7961 -0.3572
11099TIP3   OH254787   3.239   6.429   4.759  0.2192 -0.4440  0.2089
11099TIP3    H154788   3.208   6.510   4.719 -0.7034  0.4019  2.4618
11099TIP3    H254789   3.323   6.412   4.717  0.3485  1.5721 -0.4667
11100TIP3   OH254790   4.124   2.439  17.020  0.2372 -0.2873  0.0903
11100TIP3    H154791   4.212   2.473  17.005  0.5790 -1.0714  0.2789
11100TIP3    H254792   4.072   2.516  17.042  0.2537  0.6001 -2.5830
11101TIP3   OH254793   5.761   5.854  13.874 -0.5969  0.3432  0.7693
11101TIP3    H154794   5.763   5.880  13.782 -1.0918  0.6089  0.8263
11101TIP3    H254795   5.853   5.848  13.900 -0.4203 -1.2220 -0.1460
11102TIP3   OH254796   2.591   4.783   2.801 -0.2786 -0.2862 -0.3855
11102TIP3    H154797   2.597   4.825   2.715  3.4644 -0.5934 -0.4418
11102TIP3    H254798   2.666   4.724   2.804  0.9139  1.0964  3.7627
11103TIP3   OH254799   0.208   4.295  11.607 -0.2850  0.7603  0.3825
11103TIP3    H154800   0.258   4.368  11.643  1.6025 -0.4275  0.3191
11103TIP3    H254801   0.205   4.313  11.513  0.4521  0.6234  0.3243
11104TIP3   OH254802   3.628   4.789   0.943  0.5036  0.2348  0.1271
11104TIP3    H154803   3.584   4.757   1.022  0.4246 -1.0297 -0.4024
11104TIP3    H254804   3.566   4.770   0.872  0.5896  1.3265 -0.2564
11105TIP3   OH254805   0.588   6.666  16.092 -0.6772  0.1540 -0.1113
11105TIP3    H154806   0.625   6.659  16.003 -2.6875 -1.5948 -0.9027
11105TIP3    H254807   0.572   6.760  16.104  0.1621  0.4891 -1.3709
11106TIP3   OH254808   5.302   0.926   3.887 -0.0011 -0.3923 -0.6523
11106TIP3    H154809   5.230   0.869   3.860 -0.9173  1.3641 -2.1330
11106TIP3    H254810   5.381   0.882   3.857 -0.7418 -0.5558 -2.4574
11107TIP3   OH254811   4.634   5.671   0.868 -0.2068  0.4401 -0.1734
11107TIP3    H154812   4.659   5.637   0.782 -0.1074  0.8376 -0.3037
11107TIP3    H254813   4.596   5.596   0.913 -0.4374  0.2779 -0.6334
11108TIP3   OH254814   5.523   6.052  16.373  0.0957 -0.3389 -0.2539
11108TIP3    H154815   5.455   6.120  16.381 -1.8432 -1.9909 -1.8024
11108TIP3    H254816   5.568   6.054  16.458 -0.3165  2.3753 -0.0015
11109TIP3   OH254817   5.882   1.930  14.607 -0.5389 -0.3804  0.4402
11109TIP3    H154818   5.925   1.848  14.633 -2.3137 -1.6086 -0.2271
11109TIP3    H254819   5.929   1.998  14.654  0.9014 -1.8038  1.1720
11110TIP3   OH254820   0.781   0.272  15.127 -0.6040 -0.2556  0.0766
11110TIP3    H154821   0.853   0.209  15.129 -1.2841 -1.0646  2.1769
11110TIP3    H254822   0.717   0.237  15.189 -2.7227  0.5667 -1.5347
11111TIP3   OH254823   1.122   5.701  10.690 -0.0779 -0.4494 -0.0049
11111TIP3    H154824   1.039   5.739  10.659  0.2891 -0.6958 -1.3622
11111TIP3    H254825   1.100   5.610  10.711 -0.2172 -0.4349 -0.0817
11112TIP3   OH254826   6.336   5.397  13.118  0.0042 -0.2758  0.4141
11112TIP3    H154827   6.286   5.457  13.063  2.4532  1.1229 -0.4799
11112TIP3    H254828   6.308   5.417  13.207 -0.5885  0.8970 -0.0106
11113TIP3   OH254829   6.426   0.534   2.627  0.4663 -0.0610 -0.1484
11113TIP3    H154830   6.481   0.456   2.623 -0.3685 -0.7055  0.6735
11113TIP3    H254831   6.484   0.602   2.662  1.2780 -0.2170 -1.1482
11114TIP3   OH254832   2.233   3.661   0.368 -0.1931  0.5246 -0.4218
11114TIP3    H154833   2.167   3.696   0.308  0.3462 -0.8483 -1.9158
11114TIP3    H254834   2.313   3.710   0.347  0.2010 -0.5121 -1.4784
11115TIP3   OH254835   5.889   0.975  13.736  0.1443 -0.3165  0.4884
11115TIP3    H154836   5.852   1.032  13.669  0.0093  2.8867  3.0468
11115TIP3    H254837   5.813   0.948  13.789  0.5759 -0.0906  1.2378
11116TIP3   OH254838   5.646   0.185   5.131 -0.4041  0.3497 -0.2004
11116TIP3    H154839   5.577   0.160   5.192  2.0465 -0.2480  2.5807
11116TIP3    H254840   5.685   0.102   5.104 -0.3275  0.6969 -1.1966
11117TIP3   OH254841   5.850   5.359   3.586 -0.6501 -0.1699  0.1217
11117TIP3    H154842   5.935   5.332   3.551 -0.4959  0.3912  0.0615
11117TIP3    H254843   5.815   5.419   3.520 -1.2125 -0.6000  0.0207
11118TIP3   OH254844   2.242   4.709  11.126 -0.5063  0.1410  0.5176
11118TIP3    H154845   2.159   4.684  11.085 -0.0297  0.0549 -0.4284
11118TIP3    H254846   2.296   4.739  11.053 -0.1013  1.2985  1.2709
11119TIP3   OH254847   0.845   0.766  14.456  0.4038 -0.1381  0.0644
11119TIP3    H154848   0.780   0.725  14.398 -0.0259 -1.8753  1.6550
11119TIP3    H254849   0.807   0.851  14.478 -0.6584 -0.5255 -0.1797
11120TIP3   OH254850   5.859   2.703   2.509 -0.7813 -0.2677 -0.1729
11120TIP3    H154851   5.950   2.686   2.485 -0.9974  1.0327 -2.0663
11120TIP3    H254852   5.819   2.616   2.514  0.1859 -0.7648 -0.8532
11121TIP3   OH254853   3.657   4.368   5.958 -0.6778  0.8155 -0.3536
11121TIP3    H154854   3.620   4.355   6.044  0.5216  1.2673  0.2593
11121TIP3    H254855   3.648   4.462   5.941  0.5106  1.0078 -0.0143
11122TIP3   OH254856   1.101   1.960  14.659  0.1919  0.2744  0.1705
11122TIP3    H154857   1.156   1.883  14.646 -1.2611 -0.6518 -0.7644
11122TIP3    H254858   1.100   2.004  14.574 -1.3683 -0.3523 -0.1790
11123TIP3   OH254859   5.619   3.134  16.014 -0.1051  0.1239  0.3028
11123TIP3    H154860   5.630   3.154  15.921 -1.3586  0.6676  0.2469
11123TIP3    H254861   5.624   3.038  16.018 -1.0332  0.0229 -0.4883
11124TIP3   OH254862   5.551   3.427  15.479  0.1789 -0.7095 -0.6091
11124TIP3    H154863   5.584   3.388  15.398  0.4254 -0.4098 -0.6522
11124TIP3    H254864   5.530   3.517  15.456  2.1659 -0.0116  0.1331
11125TIP3   OH254865   1.192   1.316   1.670  0.0892  0.2735 -0.2668
11125TIP3    H154866   1.132   1.281   1.736  2.0609 -0.6347  1.1520
11125TIP3    H254867   1.273   1.266   1.682  1.7189  2.5549 -0.9181
11126TIP3   OH254868   5.942   6.251   5.610 -0.4361 -0.3168  0.2923
11126TIP3    H154869   5.914   6.165   5.642 -0.7542 -1.0075 -1.6436
11126TIP3    H254870   6.035   6.256   5.633 -0.5649 -0.9085  0.9699
11127TIP3   OH254871   3.809   1.758  10.644  0.0075  0.1187  0.3413
11127TIP3    H154872   3.878   1.824  10.646  1.7160 -1.5830  2.2503
11127TIP3    H254873   3.838   1.694  10.580  0.0442 -0.4127  0.8749
11128TIP3   OH254874   1.882   2.291  14.475  0.2300  0.0800  0.2166
11128TIP3    H154875   1.893   2.280  14.380 -0.5749  0.6445  0.0434
11128TIP3    H254876   1.904   2.382  14.491  1.8917 -0.3921  0.8371
11129TIP3   OH254877   5.643   1.032  10.704 -0.6995  0.5365 -0.3401
11129TIP3    H154878   5.676   0.944  10.717 -0.8952  0.4845 -0.1819
11129TIP3    H254879   5.568   1.039  10.764  1.3542  1.9597  2.3003
11130TIP3   OH254880   6.379   4.990   4.528  0.2753 -0.3734  0.0355
11130TIP3    H154881   6.383   4.895   4.541  0.8084 -0.4603 -0.7039
11130TIP3    H254882   6.288   5.007   4.504  0.2812 -0.7600 -0.2687
11131TIP3   OH254883   0.630   1.833  10.197 -0.3218 -0.1433 -0.0281
11131TIP3    H154884   0.551   1.876  10.229 -0.5454 -0.1154 -0.6169
11131TIP3    H254885   0.701   1.891  10.225 -0.6281  0.7051 -0.9433
11132TIP3   OH254886   3.794   2.576  10.828  0.3413 -0.0160 -0.7943
11132TIP3    H154887   3.803   2.621  10.745  1.8220 -2.4439 -2.0629
11132TIP3    H254888   3.853   2.622  10.887 -0.5174  1.5603 -1.0994
11133TIP3   OH254889   2.199   2.131   0.517 -0.1074  0.1359  0.4881
11133TIP3    H154890   2.238   2.205   0.470  1.1455 -0.3572  0.6843
11133TIP3    H254891   2.255   2.120   0.594 -2.7411  1.5966  2.7279
11134TIP3   OH254892   4.690   0.632  10.657 -0.2064  0.1191  0.0604
11134TIP3    H154893   4.711   0.546  10.621 -1.5772 -0.3761  0.3858
11134TIP3    H254894   4.707   0.623  10.751  0.8936  0.6223 -0.0736
11135TIP3   OH254895   6.463   4.227   6.391 -0.0825  0.1275 -0.5435
11135TIP3    H154896   6.461   4.222   6.487 -1.6761  1.1783 -0.4894
11135TIP3    H254897   6.395   4.290   6.369 -0.4570 -0.8651 -2.4280
11136TIP3   OH254898   2.996   1.196   4.917  0.5365 -0.1640 -0.0803
11136TIP3    H154899   2.993   1.142   4.996 -2.0164 -0.4031 -0.2690
11136TIP3    H254900   3.086   1.229   4.914  1.5525 -2.5745  1.2633
11137TIP3   OH254901   0.623   5.275  12.911  0.3862 -0.5497 -0.0403
11137TIP3    H154902   0.654   5.346  12.854  0.2194 -0.4528 -0.0146
11137TIP3    H254903   0.546   5.313  12.955  1.5629  0.0276  1.6394
11138TIP3   OH254904   1.909   5.964  13.304 -0.0638  0.2567  0.7734
11138TIP3    H154905   1.919   5.978  13.210 -2.0239 -1.4977  0.2207
11138TIP3    H254906   1.977   5.899  13.326  0.2190  0.4622  0.5078
11139TIP3   OH254907   0.422   5.080   5.353 -0.0129  0.0014 -0.6577
11139TIP3    H154908   0.450   5.055   5.265 -0.3165 -0.0578 -0.7361
11139TIP3    H254909   0.471   5.161   5.370 -0.9406  0.7609 -1.4158
11140TIP3   OH254910   3.754   2.123  15.709  0.3627  0.8615  0.1037
11140TIP3    H154911   3.763   2.210  15.671 -0.4365  1.5184  1.3423
11140TIP3    H254912   3.753   2.138  15.803 -1.0940 -0.3463  0.3188
11141TIP3   OH254913   3.783   4.282   4.861  0.4956 -0.0431  0.0823
11141TIP3    H154914   3.861   4.324   4.824  0.1463  0.0903 -0.5258
11141TIP3    H254915   3.790   4.191   4.835  0.1974  0.0716 -0.4121
11142TIP3   OH254916   6.696   5.635  16.257 -0.1524 -0.1409 -0.4865
11142TIP3    H154917   6.657   5.706  16.206 -0.3177  0.0513 -0.0966
11142TIP3    H254918   6.779   5.671  16.289  0.4740 -0.6341 -1.5272
11143TIP3   OH254919   5.626   3.265   4.052 -0.8988  0.3052  0.4012
11143TIP3    H154920   5.605   3.352   4.019  0.0401  1.7925  3.3590
11143TIP3    H254921   5.601   3.268   4.145 -0.1789 -2.3587  0.7713
11144TIP3   OH254922   0.286   6.354  11.950  0.0461  0.1180 -0.2657
11144TIP3    H154923   0.231   6.423  11.913 -0.2078 -1.0828 -2.3312
11144TIP3    H254924   0.285   6.285  11.883  2.5798 -0.7172  0.4608
11145TIP3   OH254925   0.613   5.472  12.396  0.1494 -0.0945  0.3140
11145TIP3    H154926   0.677   5.406  12.424  0.0690 -0.6800 -0.7905
11145TIP3    H254927   0.589   5.445  12.307 -1.3166  0.3531  0.5453
11146TIP3   OH254928   4.528   4.452   0.672  0.2483 -0.2635 -0.3943
11146TIP3    H154929   4.610   4.415   0.639  0.2566 -0.8817  0.3066
11146TIP3    H254930   4.463   4.384   0.656  0.4695 -1.0855  1.8996
11147TIP3   OH254931   2.294   1.511  12.715 -0.3246 -0.2153  0.6907
11147TIP3    H154932   2.290   1.566  12.794  0.2654  0.4700  0.2488
11147TIP3    H254933   2.387   1.501  12.697 -0.3770 -2.0806  1.2397
11148TIP3   OH254934   3.466   1.726   3.770  0.3638 -0.0312 -0.5579
11148TIP3    H154935   3.459   1.771   3.686  0.3589  0.8326 -0.1121
11148TIP3    H254936   3.404   1.773   3.827  2.6215  1.4682  0.7975
11149TIP3   OH254937   0.814   0.545  16.795  0.4216 -0.1817 -0.0355
11149TIP3    H154938   0.763   0.600  16.736  0.2737 -0.6458 -0.3459
11149TIP3    H254939   0.900   0.537  16.752  1.3086  1.8006  1.1761
11150TIP3   OH254940   2.180   4.005   4.977 -0.0642  0.1844 -0.4361
11150TIP3    H154941   2.200   3.926   5.027  0.1628  0.5156  0.0084
11150TIP3    H254942   2.245   4.006   4.907 -1.3757 -1.1280 -1.7399
11151TIP3   OH254943   3.878   0.515  11.146 -0.1620 -0.2659 -0.5619
11151TIP3    H154944   3.887   0.431  11.190  4.7219  0.6503  0.7424
11151TIP3    H254945   3.839   0.573  11.212  2.1758 -0.1749  0.8330
11152TIP3   OH254946   3.370   3.525   6.212 -0.4408  0.5108  0.2943
11152TIP3    H154947   3.401   3.609   6.178  2.1124 -0.3100  0.3865
11152TIP3    H254948   3.294   3.504   6.158  0.7109  1.4414 -1.8080
11153TIP3   OH254949   4.203   1.302   5.409 -0.9804  0.1797 -0.0770
11153TIP3    H154950   4.264   1.312   5.482  1.2347 -1.3086 -1.6276
11153TIP3    H254951   4.211   1.384   5.360 -0.4037  0.0911 -0.1378
11154TIP3   OH254952   2.147   2.406  13.852  0.0525  0.4736  0.7556
11154TIP3    H154953   2.188   2.345  13.791 -0.9463 -1.4022  1.8294
11154TIP3    H254954   2.063   2.364  13.873 -0.3007  1.8259  2.2019
11155TIP3   OH254955   5.488   2.575  16.172  0.6797 -0.2195 -0.1644
11155TIP3    H154956   5.412   2.591  16.116  0.8648  3.3372  0.3288
11155TIP3    H254957   5.459   2.507  16.233 -1.2062 -0.7000 -1.5044
11156TIP3   OH254958   5.327   1.443  14.624 -0.9409 -0.1562  0.2242
11156TIP3    H154959   5.272   1.385  14.571 -3.1079  0.3978  1.6942
11156TIP3    H254960   5.285   1.529  14.616 -0.0505  0.3753  1.1009
11157TIP3   OH254961   2.086   3.252   1.376 -0.4620  0.0303  0.7180
11157TIP3    H154962   2.118   3.300   1.300 -0.8339 -0.8500 -0.0009
11157TIP3    H254963   1.997   3.285   1.390 -0.1138  0.7772  1.2880
11158TIP3   OH254964   1.935   2.555   4.491  0.0246  0.1801 -0.3820
11158TIP3    H154965   1.971   2.644   4.502 -0.2906  0.3406 -0.6521
11158TIP3    H254966   1.923   2.524   4.581 -0.5632  0.6971 -0.2703
11159TIP3   OH254967   4.520   2.849  10.789  0.0438 -0.9078  0.2489
11159TIP3    H154968   4.470   2.885  10.862 -1.5013 -0.6072 -0.8991
11159TIP3    H254969   4.611   2.871  10.809 -0.3528 -0.6551  1.9594
11160TIP3   OH254970   1.178   4.888   2.254  0.0688 -0.2187 -0.0458
11160TIP3    H154971   1.271   4.909   2.254  0.1004 -0.3475 -0.5561
11160TIP3    H254972   1.169   4.818   2.189 -0.1722 -1.1483  0.9608
11161TIP3   OH254973   4.165   3.941   0.409 -0.7565  0.0249 -0.3665
11161TIP3    H154974   4.213   3.989   0.477 -1.9671  0.8560 -0.0559
11161TIP3    H254975   4.229   3.926   0.339  0.3513 -0.2922  0.6727
11162TIP3   OH254976   5.769   4.988   3.546  0.0739  0.2579  0.2104
11162TIP3    H154977   5.774   4.907   3.597  0.4595  0.7258  0.9254
11162TIP3    H254978   5.729   5.052   3.606 -3.0288 -0.1017 -1.2306
11163TIP3   OH254979   4.383   6.720  15.102 -0.2794  0.1919 -0.4555
11163TIP3    H154980   4.412   6.758  15.185 -1.3445 -0.1090  0.0774
11163TIP3    H254981   4.441   6.645  15.087  1.2320  1.4253 -1.0411
11164TIP3   OH254982   5.913   3.285  13.213 -0.2552 -0.2116  0.2163
11164TIP3    H154983   5.918   3.191  13.199 -1.8140 -0.1787 -0.8726
11164TIP3    H254984   6.000   3.310  13.242 -0.1676 -2.1765  1.8625
11165TIP3   OH254985   4.204   6.623   1.569  0.4177  0.2431  0.2035
11165TIP3    H154986   4.280   6.673   1.540  0.7688 -0.3808  0.0151
11165TIP3    H254987   4.136   6.642   1.504  0.3980  0.8409  0.4009
11166TIP3   OH254988   3.001   5.986   0.503 -0.6551 -0.2346  0.1534
11166TIP3    H154989   2.990   6.067   0.554 -2.7528 -0.2134 -0.2470
11166TIP3    H254990   3.028   5.921   0.568  0.8423  0.6826  0.5274
11167TIP3   OH254991   3.405   6.166   4.622  0.4345 -0.4659 -0.2121
11167TIP3    H154992   3.367   6.085   4.590  1.9080 -0.1179 -3.1660
11167TIP3    H254993   3.454   6.139   4.700 -2.7574 -1.4812  1.6301
11168TIP3   OH254994   4.815   2.950  13.811 -0.3332 -0.4985 -0.5822
11168TIP3    H154995   4.769   2.886  13.866  0.8791 -0.9220 -0.0369
11168TIP3    H254996   4.888   2.902  13.773 -1.1809 -0.2335 -2.6825
11169TIP3   OH254997   0.061   6.250  15.991 -0.4094  0.2852  0.4199
11169TIP3    H154998   0.145   6.229  15.950 -0.2715  0.0242  0.8277
11169TIP3    H254999   0.073   6.226  16.083 -0.8760  0.4032  0.5120
11170TIP3   OH255000   5.618   1.339  10.895  0.2061 -0.2322 -0.3854
11170TIP3    H155001   5.643   1.428  10.920  0.4346 -0.6552  0.9842
11170TIP3    H255002   5.586   1.347  10.805  0.8090  1.1191 -0.4991
11171TIP3   OH255003   6.101   3.573   4.414  0.0431 -0.6291 -0.0033
11171TIP3    H155004   6.034   3.640   4.400 -1.4515 -2.0651  0.0442
11171TIP3    H255005   6.168   3.593   4.348 -0.5851  0.6114 -0.3079
11172TIP3   OH255006   3.779   0.643  11.378 -0.4635 -0.1477  0.1007
11172TIP3    H155007   3.703   0.695  11.405  0.5923  1.2316  0.5129
11172TIP3    H255008   3.849   0.707  11.367  0.6556 -1.3973 -0.2592
11173TIP3   OH255009   0.102   2.576  13.400  0.0420  0.1579  0.0477
11173TIP3    H155010   0.193   2.561  13.375  0.5057  3.8026 -0.9325
11173TIP3    H255011   0.102   2.570  13.496  0.7035 -2.2300 -0.0245
11174TIP3   OH255012   4.940   0.703  15.833 -0.1019 -0.0855  0.3777
11174TIP3    H155013   4.926   0.741  15.746 -0.2179 -0.2770  0.3110
11174TIP3    H255014   5.028   0.666  15.830  0.6210  1.5196  0.9416
11175TIP3   OH255015   2.087   1.058  14.755 -0.3142  0.3196  0.4006
11175TIP3    H155016   2.179   1.081  14.762 -0.0575 -0.0028 -1.4487
11175TIP3    H255017   2.047   1.132  14.709 -0.9631  0.3877  1.0523
11176TIP3   OH255018   5.990   2.509   3.004  0.5567 -0.0437  0.2902
11176TIP3    H155019   6.061   2.462   2.961 -0.2406  1.0910 -2.5278
11176TIP3    H255020   6.016   2.601   2.998  0.4208  0.2006  2.4558
11177TIP3   OH255021   3.130   3.937   1.686 -0.4410 -0.8407 -0.4285
11177TIP3    H155022   3.077   3.946   1.607  0.1401 -0.7254 -0.8073
11177TIP3    H255023   3.204   3.882   1.660  1.0336  1.1537 -0.6251
11178TIP3   OH255024   4.599   4.638   3.168  0.0051  0.0639 -0.0873
11178TIP3    H155025   4.595   4.707   3.235  0.0104 -0.3306  0.3243
11178TIP3    H255026   4.631   4.561   3.215  0.9289  0.0299 -0.7573
11179TIP3   OH255027   0.749   4.150   2.885 -0.2709 -0.7279 -0.4039
11179TIP3    H155028   0.734   4.162   2.979  3.8290  0.6515  0.2986
11179TIP3    H255029   0.701   4.222   2.844  0.0814  0.3277  0.9601
11180TIP3   OH255030   3.555   4.177  11.439 -0.0618 -0.0717 -0.1693
11180TIP3    H155031   3.548   4.134  11.354  0.2180 -0.1383 -0.1580
11180TIP3    H255032   3.471   4.221  11.451 -0.9743 -1.8776  0.4893
11181TIP3   OH255033   3.572   2.499  13.303  0.5675  0.3075 -0.0199
11181TIP3    H155034   3.556   2.586  13.339  0.5367 -0.2474  1.3475
11181TIP3    H255035   3.523   2.498  13.220 -1.4170  0.7742  1.0878
11182TIP3   OH255036   5.913   3.080  14.198 -0.0863  0.4189 -0.0199
11182TIP3    H155037   5.955   3.035  14.124  0.2946  0.6520  0.0489
11182TIP3    H255038   5.987   3.112  14.250 -0.3524  1.1363 -0.0761
11183TIP3   OH255039   6.496   5.268  15.660 -0.1715 -0.7285  0.2470
11183TIP3    H155040   6.506   5.339  15.597 -3.5059 -0.4828 -0.1657
11183TIP3    H255041   6.500   5.188  15.608 -0.6714 -0.6235  0.0409
11184TIP3   OH255042   5.264   1.191   1.391 -0.3106  0.4192 -0.0305
11184TIP3    H155043   5.311   1.227   1.466  0.5839 -1.8320  0.5892
11184TIP3    H255044   5.206   1.125   1.429 -0.6221 -0.0131 -1.2210
11185TIP3   OH255045   4.692   3.651  14.538 -0.0732  0.2301  0.1907
11185TIP3    H155046   4.648   3.660  14.623 -2.1426  0.2682 -0.8331
11185TIP3    H255047   4.743   3.732  14.529  3.1224 -1.2257  2.8894
11186TIP3   OH255048   1.005   4.144   3.639  0.1144 -0.2080 -0.4905
11186TIP3    H155049   0.920   4.121   3.678 -0.1236 -0.6977 -1.2679
11186TIP3    H255050   0.990   4.228   3.597  0.3632  0.3073  0.4137
11187TIP3   OH255051   3.903   1.650   3.718  0.4408 -0.1839  0.1220
11187TIP3    H155052   3.848   1.573   3.705  1.5610 -0.8290 -1.0746
11187TIP3    H255053   3.850   1.722   3.684 -0.5048 -0.4532  0.9790
11188TIP3   OH255054   2.178   0.336  14.657  0.2137 -0.5549  0.0409
11188TIP3    H155055   2.262   0.356  14.698 -1.2847  2.1914  2.1796
11188TIP3    H255056   2.139   0.270  14.715  0.4450 -1.0318 -0.3418
11189TIP3   OH255057   2.967   3.199   0.998 -0.1636  0.7401  0.3440
11189TIP3    H155058   2.909   3.247   0.938  0.9856  0.9911 -0.6067
11189TIP3    H255059   2.941   3.107   0.988 -0.0244  0.7830 -0.5224
11190TIP3   OH255060   1.882   2.491   1.505 -0.2095 -0.0710 -0.1776
11190TIP3    H155061   1.846   2.572   1.542 -2.0075 -0.7515 -0.3009
11190TIP3    H255062   1.938   2.520   1.433 -2.3344  1.0788 -1.4985
11191TIP3   OH255063   4.386   3.052  16.812 -0.1357  0.1097  0.4678
11191TIP3    H155064   4.480   3.073  16.804  0.3768 -2.2694 -0.7315
11191TIP3    H255065   4.378   3.012  16.899 -0.5647  2.3842  1.5512
11192TIP3   OH255066   2.157   5.661  14.802  0.3420 -0.0866 -0.1868
11192TIP3    H155067   2.220   5.598  14.837 -1.3008 -2.9521 -1.9615
11192TIP3    H255068   2.080   5.653  14.859 -0.1373 -0.2374 -0.8437
11193TIP3   OH255069   4.264   5.234   1.210  0.3138  0.3106 -0.1548
11193TIP3    H155070   4.330   5.293   1.173 -1.0165  1.1047 -1.3486
11193TIP3    H255071   4.273   5.154   1.158 -1.9223  1.6108 -2.7575
11194TIP3   OH255072   2.229   6.464   3.317  0.1845  0.0999 -0.4910
11194TIP3    H155073   2.203   6.397   3.379 -0.8050  1.1789  0.2986
11194TIP3    H255074   2.156   6.470   3.255  0.0372  0.7973 -0.2534
11195TIP3   OH255075   6.455   6.656  12.700  0.7434  0.0785  0.1446
11195TIP3    H155076   6.531   6.713  12.687 -0.5314  1.8342  0.1349
11195TIP3    H255077   6.391   6.711  12.745 -0.3772 -1.5036  0.5574
11196TIP3   OH255078   5.645   1.448  12.329  0.2512  0.3248  0.5463
11196TIP3    H155079   5.563   1.418  12.289  0.6215  1.3708 -1.0953
11196TIP3    H255080   5.653   1.396  12.409 -1.2525 -0.8596 -0.0200
11197TIP3   OH255081   2.015   0.479   1.566 -0.3150  0.2626 -0.1176
11197TIP3    H155082   2.043   0.395   1.601 -0.3705  0.1778 -0.2727
11197TIP3    H255083   2.096   0.529   1.556 -0.2515  0.1327 -0.2668
11198TIP3   OH255084   4.539   4.163   0.671 -0.2516 -0.5334 -0.3915
11198TIP3    H155085   4.517   4.119   0.753 -0.9241 -0.6759 -0.6451
11198TIP3    H255086   4.456   4.167   0.622  0.0271  0.0394 -0.8313
11199TIP3   OH255087   1.921   0.793   0.332 -0.3209 -0.2103  0.4802
11199TIP3    H155088   2.010   0.824   0.316 -0.0418 -1.9475 -1.8712
11199TIP3    H255089   1.864   0.861   0.297  0.1094  0.2874  0.7447
11200TIP3   OH255090   0.978   5.449  12.880  0.6826 -0.2474 -0.6642
11200TIP3    H155091   0.901   5.435  12.825  1.5357  1.0021 -2.2683
11200TIP3    H255092   1.052   5.441  12.820  1.8321 -1.2030  0.7960
11201TIP3   OH255093   2.991   6.009   3.447 -0.0469  0.5336  0.0635
11201TIP3    H155094   3.065   6.032   3.503  0.9065 -0.0753 -0.8942
11201TIP3    H255095   2.935   5.955   3.503  0.2172  1.0095  0.8072
11202TIP3   OH255096   3.407   2.691   3.091  0.0441 -0.1286 -0.0145
11202TIP3    H155097   3.412   2.646   3.175  0.9474  1.2379  0.7137
11202TIP3    H255098   3.473   2.647   3.037 -0.5902 -1.0595 -0.0371
11203TIP3   OH255099   0.691   4.853  11.134  0.5825 -0.2761 -0.0676
11203TIP3    H155100   0.759   4.911  11.101  0.2515 -0.6700 -1.5008
11203TIP3    H255101   0.617   4.865  11.074  0.4127 -1.9418 -0.2417
11204TIP3   OH255102   1.551   1.400   0.386  1.0716  0.2902 -0.7787
11204TIP3    H155103   1.589   1.424   0.471  0.7798 -1.3457 -0.1440
11204TIP3    H255104   1.623   1.358   0.339  0.7786 -0.4092 -0.6207
11205TIP3   OH255105   4.474   6.623   1.965 -0.4829  0.2617 -0.1070
11205TIP3    H155106   4.394   6.651   2.010 -0.1353  1.7518 -0.3595
11205TIP3    H255107   4.446   6.552   1.907 -1.5723  0.6100 -0.0269
11206TIP3   OH255108   0.262   0.550   2.504 -0.2087 -0.2810 -0.2749
11206TIP3    H155109   0.334   0.488   2.493  0.7012  0.8997 -1.2598
11206TIP3    H255110   0.257   0.564   2.599 -0.2680 -1.6356 -0.0609
11207TIP3   OH255111   3.401   5.965  15.023 -0.2529  0.3703  0.1706
11207TIP3    H155112   3.449   5.889  15.055 -0.5851 -0.1933 -0.6483
11207TIP3    H255113   3.466   6.016  14.973 -0.6912 -0.9511 -1.8792
11208TIP3   OH255114   2.321   5.274  13.772  0.0452 -0.5260  0.8116
11208TIP3    H155115   2.410   5.308  13.783  0.5128 -1.6778  0.7447
11208TIP3    H255116   2.283   5.276  13.860  0.3671 -0.6414  0.9540
11209TIP3   OH255117   3.662   5.627   0.717 -0.1952 -0.1610 -0.3075
11209TIP3    H155118   3.679   5.693   0.649 -2.1539 -0.1149 -0.8233
11209TIP3    H255119   3.589   5.663   0.767 -0.2840 -1.2532  0.3819
11210TIP3   OH255120   5.700   2.793  16.731 -0.0974  0.1273 -0.1617
11210TIP3    H155121   5.715   2.878  16.689 -1.0582  0.1595 -0.4771
11210TIP3    H255122   5.655   2.741  16.664  1.7365 -1.1286 -0.4756
11211TIP3   OH255123   3.218   6.756   1.807 -0.5873  0.2719 -0.1213
11211TIP3    H155124   3.138   6.801   1.836 -0.5832  0.0949  0.1655
11211TIP3    H255125   3.285   6.824   1.808 -0.5769  0.2534  0.3327
11212TIP3   OH255126   0.029   2.903   5.722 -0.0411 -0.5609 -0.1273
11212TIP3    H155127   0.033   2.987   5.768 -2.3691 -0.4233 -0.0446
11212TIP3    H255128   0.081   2.844   5.776  2.1789  0.9245 -0.5145
11213TIP3   OH255129   3.421   2.222  16.518  0.1557  0.0034 -0.4356
11213TIP3    H155130   3.444   2.157  16.452 -0.6486 -0.9626  0.2032
11213TIP3    H255131   3.438   2.307  16.476  1.9450 -0.6162 -1.0167
11214TIP3   OH255132   1.468   5.083  16.444 -0.0708  0.8606  0.4130
11214TIP3    H155133   1.522   5.057  16.519  1.2883  0.6728 -0.5840
11214TIP3    H255134   1.386   5.036  16.455  0.3467  0.3428  1.4410
11215TIP3   OH255135   2.801   5.270  15.813  0.1781  0.1202  0.0664
11215TIP3    H155136   2.780   5.347  15.865  1.7266 -0.5381  1.7480
11215TIP3    H255137   2.869   5.300  15.753  1.2156 -0.0644  1.1329
11216TIP3   OH255138   3.473   1.360   4.696 -0.3467  0.4463  0.0611
11216TIP3    H155139   3.441   1.428   4.755  1.1365  1.5328 -0.3465
11216TIP3    H255140   3.401   1.296   4.693 -1.4332  1.5545  1.1069
11217TIP3   OH255141   3.303   3.565   4.616  0.6800  0.2493 -0.0612
11217TIP3    H155142   3.317   3.473   4.636  0.9871  0.4924  0.9107
11217TIP3    H255143   3.225   3.567   4.561 -0.7222 -0.4226  1.8170
11218TIP3   OH255144   0.603   4.595  10.993 -0.2284  0.4129 -0.0093
11218TIP3    H155145   0.691   4.620  10.965  0.1288 -0.3340  0.4059
11218TIP3    H255146   0.607   4.500  11.002 -1.5015  0.1925 -1.3846
11219TIP3   OH255147   4.696   3.737  11.427 -0.3676 -0.4621  0.3864
11219TIP3    H155148   4.770   3.707  11.374 -0.4386 -1.8287  1.0140
11219TIP3    H255149   4.729   3.733  11.517 -1.2005 -1.1263  0.6740
11220TIP3   OH255150   1.613   2.218   5.847 -0.2843  1.0254  0.5456
11220TIP3    H155151   1.632   2.309   5.824  2.6004  0.4581  0.2010
11220TIP3    H255152   1.695   2.186   5.884 -1.5633 -1.1528  1.6702
11221TIP3   OH255153   3.104   6.022  11.302  0.4582  0.1638  0.0667
11221TIP3    H155154   3.131   6.112  11.284  0.2086  0.3697  0.6813
11221TIP3    H255155   3.186   5.975  11.318  0.5251  0.5974  1.0987
11222TIP3   OH255156   3.190   1.830   2.455  0.2288  0.3819 -0.2073
11222TIP3    H155157   3.283   1.851   2.442  0.2875  1.8537  2.0822
11222TIP3    H255158   3.187   1.734   2.451  2.2028  0.1780  1.4441
11223TIP3   OH255159   2.188   6.717  13.365  0.5383  0.3120  0.1244
11223TIP3    H155160   2.210   6.755  13.451  1.8232 -1.0129  0.4173
11223TIP3    H255161   2.233   6.633  13.364 -0.7061 -0.3790 -1.2668
11224TIP3   OH255162   0.952   4.694  11.768  0.0945 -0.1022  0.8155
11224TIP3    H155163   0.914   4.760  11.827 -1.4813 -0.2906  0.0863
11224TIP3    H255164   0.884   4.681  11.702  1.3971 -0.6506 -0.4565
11225TIP3   OH255165   4.614   3.480   1.527  0.1316  0.2713 -0.0708
11225TIP3    H155166   4.606   3.567   1.489  0.7791  0.6541  0.6361
11225TIP3    H255167   4.708   3.468   1.538 -0.0375  0.2630  1.5883
11226TIP3   OH255168   0.104   2.148  13.527 -0.2363  0.2488 -0.7062
11226TIP3    H155169   0.044   2.223  13.526  0.0717  0.5089 -0.0993
11226TIP3    H255170   0.190   2.186  13.509 -0.1853 -0.0675 -1.1495
11227TIP3   OH255171   6.257   0.401   3.547  0.4419  0.5286  0.8315
11227TIP3    H155172   6.287   0.379   3.635  1.4751  2.3545  0.9895
11227TIP3    H255173   6.316   0.355   3.488 -0.2477 -0.6928  1.0591
11228TIP3   OH255174   3.741   3.201  13.774 -0.4087  0.4631 -0.5092
11228TIP3    H155175   3.697   3.120  13.747  1.3835 -0.3253 -1.1783
11228TIP3    H255176   3.817   3.172  13.824  0.0034  1.7458 -0.3578
11229TIP3   OH255177   6.481   4.327   0.142 -0.6833 -0.4864  0.0906
11229TIP3    H155178   6.445   4.394   0.084  0.6019 -0.1605 -0.3666
11229TIP3    H255179   6.449   4.351   0.229 -0.0559  0.8784 -0.0230
11230TIP3   OH255180   4.095   0.374   2.237 -0.1260 -0.1774  0.4378
11230TIP3    H155181   4.168   0.345   2.183 -0.0686 -1.0723  0.9727
11230TIP3    H255182   4.041   0.427   2.179  2.6797  3.5274  0.8078
11231TIP3   OH255183   4.263   4.662  17.036 -0.5170 -0.1788 -0.1196
11231TIP3    H155184   4.218   4.635  16.955 -0.6969  1.0155 -0.4313
11231TIP3    H255185   4.230   4.750  17.053  1.9382  0.8857 -0.5317
11232TIP3   OH255186   4.640   5.577   1.916 -0.2061 -0.6345  0.9334
11232TIP3    H155187   4.551   5.571   1.952 -0.8505  1.6518 -0.0424
11232TIP3    H255188   4.696   5.586   1.993 -1.1083  0.1244  1.5386
11233TIP3   OH255189   1.702   2.531   3.757 -0.4107 -0.0283  0.1793
11233TIP3    H155190   1.692   2.483   3.839 -0.6735 -1.4052 -0.6309
11233TIP3    H255191   1.713   2.623   3.784  0.4002 -0.5596  1.7793
11234TIP3   OH255192   1.817   4.415   0.029  0.6294  0.9169  0.6551
11234TIP3    H155193   1.804   4.328  -0.008  1.7292  0.6181  0.9450
11234TIP3    H255194   1.737   4.433   0.078  1.0474 -0.6248  1.9679
11235TIP3   OH255195   0.344   3.827  11.547 -0.2909 -0.4110  0.0338
11235TIP3    H155196   0.365   3.741  11.509 -3.1130 -0.4728 -1.7100
11235TIP3    H255197   0.265   3.811  11.600 -3.0545  1.4939 -3.1101
11236TIP3   OH255198   6.799   0.695  12.053 -0.0964 -0.2846 -0.0430
11236TIP3    H155199   6.854   0.648  12.116 -2.0010  0.5956  2.4227
11236TIP3    H255200   6.819   0.787  12.068 -1.8507  0.0228  0.5972
11237TIP3   OH255201   0.842   4.874  16.490 -0.3680 -0.0605 -0.2008
11237TIP3    H155202   0.854   4.969  16.486 -0.0805 -0.1214 -1.1482
11237TIP3    H255203   0.841   4.846  16.398  1.6182 -1.2224  0.0798
11238TIP3   OH255204   6.728   1.437   5.458  0.2000 -0.3921 -0.1773
11238TIP3    H155205   6.806   1.420   5.511 -0.2930 -0.2537  0.6039
11238TIP3    H255206   6.761   1.477   5.378  0.9570 -0.6382  0.0079
11239TIP3   OH255207   2.701   5.483  16.015 -0.0507 -0.1717  0.0160
11239TIP3    H155208   2.607   5.469  16.006 -0.7242  2.1830  2.0121
11239TIP3    H255209   2.723   5.447  16.101  0.2650  1.4747  0.6767
11240TIP3   OH255210   0.581   5.363  16.846 -0.0526 -0.0983  0.1327
11240TIP3    H155211   0.594   5.315  16.764 -1.1233  0.8982 -0.6589
11240TIP3    H255212   0.631   5.444  16.835 -1.5996  0.8438 -0.3096
11241TIP3   OH255213   5.042   5.461  14.654  0.2304  0.0589  0.2086
11241TIP3    H155214   5.002   5.540  14.618  0.6331  0.8970  1.5112
11241TIP3    H255215   5.122   5.492  14.696 -0.4794 -0.7227  2.3010
11242TIP3   OH255216   0.674   0.267   5.682 -0.2042 -0.4002 -0.5046
11242TIP3    H155217   0.641   0.215   5.608 -0.5240 -2.6758  1.1361
11242TIP3    H255218   0.758   0.229   5.704 -0.2638  0.0129  0.5207
11243TIP3   OH255219   1.595   5.520  16.466 -0.3034  0.1860  0.1926
11243TIP3    H155220   1.560   5.491  16.551 -0.2571 -0.8713 -0.1362
11243TIP3    H255221   1.567   5.453  16.404  0.1149  0.6758 -0.5476
11244TIP3   OH255222   3.930   5.004   3.733  0.0151 -0.1651 -0.1163
11244TIP3    H155223   3.975   4.984   3.815 -0.3464  0.5481  0.2608
11244TIP3    H255224   3.996   5.047   3.679  0.4042 -1.0980 -0.4137
11245TIP3   OH255225   0.863   5.240   4.368  0.4561  0.2279 -0.1025
11245TIP3    H155226   0.875   5.149   4.340  0.5009  0.7749 -1.9852
11245TIP3    H255227   0.778   5.239   4.414  0.7908 -0.8783  0.5325
11246TIP3   OH255228   0.494   1.841  15.629 -0.2466 -0.1624 -0.3937
11246TIP3    H155229   0.435   1.789  15.574 -2.3665 -0.0277  1.6160
11246TIP3    H255230   0.538   1.900  15.567 -1.0971 -1.2901 -2.1609
11247TIP3   OH255231   5.195   1.742  14.560 -0.3525 -0.1630 -0.5872
11247TIP3    H155232   5.136   1.668  14.550  0.9674 -1.4561  0.7409
11247TIP3    H255233   5.174   1.800  14.487 -2.1154 -1.3427 -1.0705
11248TIP3   OH255234   5.339   5.469  11.109  0.4380  0.4537 -0.2127
11248TIP3    H155235   5.407   5.423  11.158 -0.1539 -1.0167 -0.6859
11248TIP3    H255236   5.261   5.464  11.165  0.5771  1.6464  0.0946
11249TIP3   OH255237   6.642   5.673   5.923 -0.5250 -0.2131 -0.3777
11249TIP3    H155238   6.596   5.665   6.007  0.6359  2.3143  0.5901
11249TIP3    H255239   6.693   5.592   5.917 -1.7076 -1.0783  0.6319
11250TIP3   OH255240   2.600   5.745  11.072 -0.2104 -0.1793 -0.0866
11250TIP3    H155241   2.653   5.682  11.022 -1.4419 -2.2215  1.0675
11250TIP3    H255242   2.659   5.819  11.084  0.6862 -0.2191 -3.1433
11251TIP3   OH255243   2.523   5.156   0.717 -0.8060  0.1374 -0.4848
11251TIP3    H155244   2.512   5.061   0.710 -0.9320  0.0617  0.4887
11251TIP3    H255245   2.439   5.187   0.753 -0.2383  0.4197  0.6350
11252TIP3   OH255246   0.602   0.095  13.589  0.1256  0.0365  0.7722
11252TIP3    H155247   0.647   0.155  13.529  0.0738 -1.3763 -0.7541
11252TIP3    H255248   0.668   0.029  13.610 -0.1240  0.0477  1.6060
11253TIP3   OH255249   3.361   1.656   0.215  0.7922 -0.0084 -0.0476
11253TIP3    H155250   3.284   1.621   0.172  0.1866  0.6021  0.5067
11253TIP3    H255251   3.355   1.623   0.305  2.8814 -2.6174 -0.7243
11254TIP3   OH255252   4.263   1.031   1.826  0.6559  0.2924 -0.5362
11254TIP3    H155253   4.235   1.118   1.795 -0.4218  0.8179  1.7259
11254TIP3    H255254   4.358   1.036   1.828  0.6405  1.1497 -1.1592
11255TIP3   OH255255   0.770   1.448  16.503 -0.2857 -0.1561  0.8138
11255TIP3    H155256   0.768   1.522  16.563  0.2675 -0.1416  0.8172
11255TIP3    H255257   0.679   1.439  16.473 -0.3540  0.5356  0.7936
11256TIP3   OH255258   3.010   4.840  16.485  0.1089 -0.1120 -0.5423
11256TIP3    H155259   3.027   4.767  16.426  0.9643  2.2199 -3.5056
11256TIP3    H255260   3.095   4.882  16.496 -0.3597  0.4779  1.0323
11257TIP3   OH255261   4.270   3.869   0.963 -0.0874 -0.7519 -0.1151
11257TIP3    H155262   4.354   3.869   0.917 -0.7548 -0.4652 -1.3477
11257TIP3    H255263   4.287   3.922   1.042  0.0850  2.0835 -1.9123
11258TIP3   OH255264   0.753   0.210  12.343 -0.0518 -0.0851  0.8221
11258TIP3    H155265   0.845   0.185  12.339  0.0522 -0.5283  3.6601
11258TIP3    H255266   0.707   0.137  12.301  0.6995 -2.0108  3.1016
11259TIP3   OH255267   3.664   0.118  11.867 -0.0149  0.6380 -0.5557
11259TIP3    H155268   3.724   0.113  11.793 -1.4938 -2.1521 -1.7161
11259TIP3    H255269   3.712   0.078  11.940  0.8477  1.9063 -0.3922
11260TIP3   OH255270   2.289   6.807   5.970 -0.2722  0.2328  0.3982
11260TIP3    H155271   2.275   6.714   5.983 -1.6333  0.7468  3.8131
11260TIP3    H255272   2.380   6.814   5.941  0.7186 -2.1040  2.5360
11261TIP3   OH255273   3.110   0.621   4.617 -0.5421  0.1043  0.2924
11261TIP3    H155274   3.110   0.693   4.680  0.4513 -1.3768  2.0909
11261TIP3    H255275   3.026   0.629   4.572 -0.1371  2.8107 -0.1223
11262TIP3   OH255276   0.299   6.133  13.198 -0.0985 -0.2949 -0.4293
11262TIP3    H155277   0.328   6.204  13.141 -1.4930  1.2828  0.7353
11262TIP3    H255278   0.218   6.165  13.238 -0.0260 -1.9794  1.2322
11263TIP3   OH255279   4.093   6.522   2.783 -0.0466 -0.1827  0.1331
11263TIP3    H155280   4.008   6.498   2.820  0.5358 -1.6033  0.5944
11263TIP3    H255281   4.118   6.447   2.729  1.2735 -0.1030  0.6238
11264TIP3   OH255282   5.514   5.763   2.318  0.1779 -0.7899  0.1235
11264TIP3    H155283   5.557   5.821   2.256 -0.3865  0.8723  1.2143
11264TIP3    H255284   5.585   5.721   2.366  0.5924 -0.5967 -0.3190
11265TIP3   OH255285   4.442   4.689  14.093  0.0738 -0.2368  0.4075
11265TIP3    H155286   4.427   4.724  14.005 -1.3116 -0.2365  0.6178
11265TIP3    H255287   4.357   4.694  14.135  1.0063  1.0490  2.2351
11266TIP3   OH255288   0.713   0.963   0.638 -0.2007  0.2905  0.1641
11266TIP3    H155289   0.635   0.976   0.692  0.5673  2.1601  0.9331
11266TIP3    H255290   0.735   1.051   0.608  1.2594 -0.2886 -0.5320
11267TIP3   OH255291   0.191   4.970   3.374 -0.0365 -0.2961 -0.3421
11267TIP3    H155292   0.136   4.959   3.296  0.7745 -1.1235 -0.8180
11267TIP3    H255293   0.277   4.939   3.347  0.3441 -0.2657  0.7882
11268TIP3   OH255294   6.485   2.757   1.130 -0.0836  0.4044  0.2462
11268TIP3    H155295   6.479   2.816   1.205 -0.3322  1.8605 -0.8668
11268TIP3    H255296   6.530   2.808   1.063  0.9529 -1.1775 -0.3245
11269TIP3   OH255297   3.281   1.600   5.297 -0.2983  0.0794 -0.3039
11269TIP3    H155298   3.335   1.537   5.249  1.6416  2.0414 -0.8146
11269TIP3    H255299   3.309   1.591   5.388 -0.0684  0.1617 -0.3666
11270TIP3   OH255300   3.081   6.307  12.677  0.4344  0.1835 -0.0334
11270TIP3    H155301   3.074   6.382  12.737  1.5387  0.1166  0.1903
11270TIP3    H255302   3.008   6.251  12.703  0.7672  0.2498  1.1414
11271TIP3   OH255303   4.447   3.944  15.092  0.0716  0.1801 -0.6235
11271TIP3    H155304   4.442   3.849  15.099 -1.6645  0.2835  0.1395
11271TIP3    H255305   4.501   3.971  15.166 -0.2392 -0.1576 -0.2692
11272TIP3   OH255306   4.104   1.519  16.285 -0.1946  0.2464 -0.1008
11272TIP3    H155307   4.022   1.506  16.237  0.0305 -0.6292 -0.2701
11272TIP3    H255308   4.133   1.431  16.307  0.4428  0.5737  0.4093
11273TIP3   OH255309   3.947   6.418  13.414  0.0662  0.0242 -0.0518
11273TIP3    H155310   3.950   6.417  13.510 -1.1872  0.6184  0.0175
11273TIP3    H255311   3.863   6.377  13.392  0.3432 -0.1065 -0.8867
11274TIP3   OH255312   6.359   0.050  15.639  0.0932 -0.3763 -0.5936
11274TIP3    H155313   6.276   0.027  15.597  0.2583 -1.3088 -0.4395
11274TIP3    H255314   6.346   0.029  15.732  0.5554 -0.7205 -0.6009
11275TIP3   OH255315   1.221   5.997  15.978 -0.0329  0.3924 -0.1171
11275TIP3    H155316   1.173   5.991  16.060  0.3764 -1.4132  0.0265
11275TIP3    H255317   1.212   6.089  15.952  0.9556  1.3777  2.6266
11276TIP3   OH255318   2.895   5.496   4.139 -0.0698 -0.2651 -0.1216
11276TIP3    H155319   2.828   5.428   4.146  0.6136 -1.2020 -2.0984
11276TIP3    H255320   2.849   5.572   4.104 -0.0715 -1.0134 -1.8096
11277TIP3   OH255321   6.358   3.511  13.896 -0.1161 -0.3293 -0.0528
11277TIP3    H155322   6.262   3.506  13.887 -0.2970  0.8697  0.9607
11277TIP3    H255323   6.387   3.420  13.890 -1.5049 -0.9258  1.4356
11278TIP3   OH255324   2.803   2.495  15.290  0.0881 -0.3314  0.4872
11278TIP3    H155325   2.840   2.484  15.377  0.4821  0.3316  0.4081
11278TIP3    H255326   2.804   2.589  15.275  0.9905 -0.4919 -0.6468
11279TIP3   OH255327   3.591   6.785   1.186 -0.3242  0.1207 -0.3634
11279TIP3    H155328   3.528   6.822   1.125 -0.3712  0.6575  0.0004
11279TIP3    H255329   3.549   6.793   1.272  0.3590  0.7843 -0.0784
11280TIP3   OH255330   0.407   4.935   4.160 -0.2516 -0.3429  0.0137
11280TIP3    H155331   0.379   5.024   4.138  0.5088  0.3745  1.7223
11280TIP3    H255332   0.360   4.915   4.241  1.7842 -0.2696  1.3068
11281TIP3   OH255333   2.813   2.767  11.299  0.2290  0.2766  0.0031
11281TIP3    H155334   2.845   2.721  11.377 -0.1198 -1.1409 -0.6508
11281TIP3    H255335   2.838   2.710  11.227 -1.8591  0.1931 -0.7003
11282TIP3   OH255336   6.743   0.928  14.885 -0.0506 -0.1870 -0.3861
11282TIP3    H155337   6.658   0.886  14.890  0.5426 -1.2683  1.7656
11282TIP3    H255338   6.737   1.004  14.942  0.7834 -1.0363  0.8907
11283TIP3   OH255339   6.133   2.617   2.560 -0.3848  0.7839  0.3680
11283TIP3    H155340   6.198   2.637   2.492  1.3624 -1.8995  1.0870
11283TIP3    H255341   6.185   2.591   2.636 -2.3205  2.1128  2.2651
11284TIP3   OH255342   6.183   5.209  15.935 -0.6119 -0.0747 -0.3407
11284TIP3    H155343   6.243   5.135  15.927  0.4454  0.8591 -1.3720
11284TIP3    H255344   6.180   5.248  15.848 -1.0361  1.1708  0.2055
11285TIP3   OH255345   5.581   6.344  17.157 -0.4048  0.2071  0.0831
11285TIP3    H155346   5.581   6.311  17.247 -2.6141 -0.3990 -0.0915
11285TIP3    H255347   5.543   6.273  17.105 -0.8523  1.2264 -1.0459
11286TIP3   OH255348   4.974   2.434  12.829 -0.6029 -0.7839 -0.4039
11286TIP3    H155349   4.885   2.467  12.817 -0.7269 -0.4692  1.2046
11286TIP3    H255350   5.011   2.488  12.898  0.0447 -2.3851  0.5670
11287TIP3   OH255351   1.012   3.560   4.097 -0.1157  0.1912 -0.4306
11287TIP3    H155352   1.050   3.473   4.099  0.6725  0.5263  0.0603
11287TIP3    H255353   0.949   3.558   4.025 -0.8740 -1.0827  0.2477
11288TIP3   OH255354   4.664   5.039  15.244 -0.3970  0.0978 -0.0127
11288TIP3    H155355   4.711   5.082  15.172  1.5464  2.4135  2.4363
11288TIP3    H255356   4.575   5.075  15.238 -0.2157  0.4179 -1.1081
11289TIP3   OH255357   5.497   4.672   3.068  0.4819 -0.2186  0.5415
11289TIP3    H155358   5.460   4.685   2.981  0.8855  1.8777  0.6229
11289TIP3    H255359   5.472   4.750   3.116 -2.9230 -2.8280  3.6029
11290TIP3   OH255360   5.778   6.150  14.336  0.3950 -0.3388 -0.4340
11290TIP3    H155361   5.781   6.194  14.251 -0.2968  3.1664  1.1525
11290TIP3    H255362   5.856   6.094  14.337  0.1974 -0.8242 -3.4552
11291TIP3   OH255363   6.206   4.960  11.673  0.0503 -0.0086 -0.7894
11291TIP3    H155364   6.157   4.914  11.605 -0.9402 -0.4667  0.1892
11291TIP3    H255365   6.173   4.922  11.755  2.4641 -0.7203 -0.0824
11292TIP3   OH255366   1.610   1.672  14.827 -0.1079 -0.5131 -0.7560
11292TIP3    H155367   1.596   1.726  14.905 -0.3565 -0.8378 -0.5732
11292TIP3    H255368   1.688   1.710  14.786 -1.0223  0.8165 -1.3448
11293TIP3   OH255369   2.930   6.597  14.460  0.1136  0.1778 -0.6000
11293TIP3    H155370   2.982   6.517  14.452  0.4523  0.3580 -0.2294
11293TIP3    H255371   2.857   6.584  14.399  0.1121 -0.4517 -0.4755
11294TIP3   OH255372   4.257   2.624  12.546  0.2335 -0.1446  0.1546
11294TIP3    H155373   4.290   2.603  12.634 -1.5840 -1.8543  0.4979
11294TIP3    H255374   4.162   2.620  12.555  0.0171 -0.8818 -2.0204
11295TIP3   OH255375   1.890   6.337  15.083 -0.5038  0.4541 -1.0477
11295TIP3    H155376   1.799   6.348  15.056  0.2886  1.5669 -3.6039
11295TIP3    H255377   1.916   6.423  15.116 -0.0861  0.4821 -1.4281
11296TIP3   OH255378   3.314   2.039   0.021 -0.3815 -0.7413 -0.5138
11296TIP3    H155379   3.367   1.960   0.035 -1.5317 -1.1704  2.0973
11296TIP3    H255380   3.240   2.009  -0.031 -0.0115 -0.9902 -0.9083
11297TIP3   OH255381   0.417   4.316  12.985  0.1131 -0.0444  0.6540
11297TIP3    H155382   0.507   4.342  13.004 -0.1016  0.6519  0.7358
11297TIP3    H255383   0.419   4.220  12.984  1.6671 -0.1405 -3.0404
11298TIP3   OH255384   0.800   3.973   4.456  0.8508  0.5157  0.1202
11298TIP3    H155385   0.850   3.920   4.518 -0.4623 -1.4699 -0.4527
11298TIP3    H255386   0.820   3.935   4.370 -1.6236 -0.3858 -0.1202
11299TIP3   OH255387   0.664   3.897  13.602 -0.4760 -0.5012  0.6358
11299TIP3    H155388   0.639   3.990  13.597  0.1712 -0.3202  0.7880
11299TIP3    H255389   0.647   3.872  13.693  0.6407 -0.1643  0.9442
11300TIP3   OH255390   0.737   3.721   4.274 -0.0064  0.1015 -0.1395
11300TIP3    H155391   0.658   3.757   4.313  0.4231  0.6981  0.2031
11300TIP3    H255392   0.714   3.631   4.251 -0.7933  0.2889 -0.0944
11301TIP3   OH255393   3.592   3.398   5.615 -0.9323 -0.2141 -0.3147
11301TIP3    H155394   3.630   3.431   5.696 -1.7780 -1.0396  0.4432
11301TIP3    H255395   3.598   3.472   5.553  1.8777 -0.3101 -0.2670
11302TIP3   OH255396   3.729   5.966   2.853 -0.2683  0.5457 -0.7992
11302TIP3    H155397   3.745   5.889   2.797  2.3890  1.7652 -1.8509
11302TIP3    H255398   3.717   5.929   2.941 -0.6314 -1.1416 -1.4999
11303TIP3   OH255399   2.108   3.764   5.142 -0.1172  0.2383  0.3748
11303TIP3    H155400   2.021   3.802   5.152 -0.2508 -0.1611  0.7505
11303TIP3    H255401   2.156   3.795   5.219  0.0577  0.4264  0.1884
11304TIP3   OH255402   3.604   1.739  16.490 -0.0977  0.3743  0.0476
11304TIP3    H155403   3.515   1.771  16.473 -1.3540 -2.6806  0.3311
11304TIP3    H255404   3.640   1.803  16.552 -2.7904  0.7187  1.4287
11305TIP3   OH255405   2.906   4.241   4.544  0.0974 -0.2236 -0.6693
11305TIP3    H155406   2.905   4.246   4.449  0.6395 -1.6031 -0.7642
11305TIP3    H255407   2.856   4.162   4.565 -0.9229  0.6271  0.2594
11306TIP3   OH255408   5.013   4.073   1.022  0.3170  0.3524  0.6421
11306TIP3    H155409   5.105   4.075   1.050  0.6060 -1.4221 -0.0023
11306TIP3    H255410   4.989   4.164   1.012  2.2009  0.8602  0.2647
11307TIP3   OH255411   6.531   0.250   4.385 -0.2436 -0.2579 -0.4445
11307TIP3    H155412   6.583   0.210   4.455 -2.1951  0.1588  1.3385
11307TIP3    H255413   6.536   0.188   4.313  1.8213 -0.7208  0.0180
11308TIP3   OH255414   2.871   6.290   0.106 -0.0292  0.0797  0.0647
11308TIP3    H155415   2.821   6.342   0.169 -0.6133  0.7569 -0.9235
11308TIP3    H255416   2.962   6.314   0.121  0.1221 -1.5760  2.2712
11309TIP3   OH255417   3.977   5.679  11.961  0.3286 -0.5002 -0.2751
11309TIP3    H155418   4.032   5.614  12.006  0.3418  0.2671  0.8689
11309TIP3    H255419   3.894   5.635  11.946  0.9930 -1.4290 -1.3347
11310TIP3   OH255420   2.700   2.096   1.841  0.0210  0.5443  0.6308
11310TIP3    H155421   2.726   2.013   1.801  1.2909  1.3192 -0.2083
11310TIP3    H255422   2.703   2.079   1.935  0.1962 -0.3751  0.4708
11311TIP3   OH255423   3.614   0.079   5.550  0.4418  0.3171 -0.3610
11311TIP3    H155424   3.577   0.125   5.625  0.3412 -0.2709 -0.0449
11311TIP3    H255425   3.693   0.128   5.529  0.5526  0.3987  0.2253
11312TIP3   OH255426   4.598   4.923   6.144 -0.3336 -0.3885  0.4792
11312TIP3    H155427   4.606   5.016   6.167 -1.1930 -0.4240  0.9909
11312TIP3    H255428   4.672   4.906   6.086 -0.9136  0.9462 -0.7076
11313TIP3   OH255429   1.762   4.735   5.169 -0.1991  0.4260 -0.2730
11313TIP3    H155430   1.691   4.681   5.134  0.4876  0.1472 -1.2728
11313TIP3    H255431   1.739   4.749   5.261 -1.5021  0.2696 -0.5627
11314TIP3   OH255432   1.610   4.691  11.624 -0.2371 -0.1934  0.8341
11314TIP3    H155433   1.547   4.761  11.608  0.1538  0.2422  1.1808
11314TIP3    H255434   1.561   4.610  11.609 -0.7349  0.1533  0.5955
11315TIP3   OH255435   4.246   2.735  10.987  0.1555 -0.1013 -0.3847
11315TIP3    H155436   4.237   2.810  10.929  1.6180 -0.5120 -1.1844
11315TIP3    H255437   4.301   2.673  10.939  1.1430 -0.6065  1.2922
11316TIP3   OH255438   1.739   0.726  16.844  0.1255  0.0522  0.5483
11316TIP3    H155439   1.647   0.746  16.858  0.0588 -0.2096  0.4917
11316TIP3    H255440   1.758   0.656  16.906  0.6229  0.9713  1.4724
11317TIP3   OH255441   4.400   0.951  15.343  0.3405  0.1821 -0.7948
11317TIP3    H155442   4.321   0.953  15.397  1.2518 -1.4306  0.7126
11317TIP3    H255443   4.391   1.026  15.284 -2.2224  0.1341 -0.5825
11318TIP3   OH255444   0.011   2.765   1.067  0.1997 -0.1199  0.5796
11318TIP3    H155445   0.053   2.848   1.092 -1.9190  0.9333  0.9008
11318TIP3    H255446  -0.080   2.789   1.049 -1.0394 -2.6689  2.6974
11319TIP3   OH255447   4.823   3.477  13.876  0.3559  0.3199  0.6674
11319TIP3    H155448   4.798   3.387  13.858  2.1648 -0.0475 -0.2998
11319TIP3    H255449   4.849   3.477  13.968 -0.3429  0.0452  0.8711
11320TIP3   OH255450   0.957   2.194   6.220  0.0141 -0.4671  0.0732
11320TIP3    H155451   1.010   2.147   6.155  0.5194 -0.6269  0.5940
11320TIP3    H255452   1.017   2.211   6.293 -0.3076  0.5197  0.1213
11321TIP3   OH255453   1.371   3.105  16.465 -0.2429  0.1717  0.5496
11321TIP3    H155454   1.334   3.041  16.526  0.0056  0.3382  0.8812
11321TIP3    H255455   1.394   3.054  16.388 -0.2622 -0.1005  0.7232
11322TIP3   OH255456   6.772   1.775  14.886 -0.2450 -0.1858  0.8987
11322TIP3    H155457   6.819   1.780  14.803 -1.7090  1.6720  0.0999
11322TIP3    H255458   6.682   1.756  14.861 -0.5317 -0.5449  2.1505
11323TIP3   OH255459   5.986   2.970   0.088 -0.4265  0.5108 -0.0269
11323TIP3    H155460   5.969   2.922   0.169  1.6341  0.8740  0.6779
11323TIP3    H255461   6.061   2.926   0.049 -0.0466  1.6576 -0.6300
11324TIP3   OH255462   6.748   6.739  15.344  0.2510  0.4898 -1.0190
11324TIP3    H155463   6.708   6.781  15.420  0.6417  1.1102 -1.1478
11324TIP3    H255464   6.678   6.739  15.278 -0.4141 -0.9606 -0.3597
11325TIP3   OH255465   6.417   1.071   4.082 -0.2985  0.4009  0.1360
11325TIP3    H155466   6.402   1.052   4.175  2.4263 -0.8927  0.4314
11325TIP3    H255467   6.364   1.148   4.064 -2.3469 -0.3798  2.2640
11326TIP3   OH255468   5.819   2.675  11.372  0.3058  0.3037 -0.1871
11326TIP3    H155469   5.738   2.727  11.381  0.2571  0.2088 -0.0797
11326TIP3    H255470   5.886   2.740  11.353  0.2090  0.3871 -0.2478
11327TIP3   OH255471   0.799   5.691   4.754  0.1611  0.2511 -0.3111
11327TIP3    H155472   0.860   5.665   4.824  1.0253 -0.1775 -1.1967
11327TIP3    H255473   0.726   5.733   4.800  0.3376 -0.7236  0.9038
11328TIP3   OH255474   3.290   5.116  16.762  0.4147  0.5070  0.4427
11328TIP3    H155475   3.270   5.208  16.777 -0.7717  0.2958  0.2603
11328TIP3    H255476   3.383   5.115  16.739 -0.2479  2.0695 -2.8249
11329TIP3   OH255477   5.962   4.349  11.488  0.1094 -0.4176  0.3868
11329TIP3    H155478   5.890   4.301  11.448 -0.4664  1.4035 -0.8633
11329TIP3    H255479   6.027   4.358  11.419 -0.3694  1.7045  0.1380
11330TIP3   OH255480   3.554   4.879  14.149  0.1264 -0.5950  0.0239
11330TIP3    H155481   3.500   4.864  14.227 -1.0848 -0.7067 -0.8138
11330TIP3    H255482   3.523   4.962  14.114 -0.4065 -1.2657 -1.1684
11331TIP3   OH255483   2.515   3.949  12.055 -0.7545 -0.9477  0.1040
11331TIP3    H155484   2.559   3.897  11.988 -0.5137  0.9177 -1.2977
11331TIP3    H255485   2.423   3.947  12.030 -0.9952 -2.0219  1.0200
11332TIP3   OH255486   3.371   3.150  14.396  0.1539  0.0673  0.2858
11332TIP3    H155487   3.374   3.057  14.376  0.1056  0.1766 -0.2586
11332TIP3    H255488   3.429   3.190  14.331  0.4597  0.3772  0.7482
11333TIP3   OH255489   3.124   0.693   4.026 -0.2163  0.5704 -0.1733
11333TIP3    H155490   3.111   0.624   4.091  0.4769 -0.0928 -0.7144
11333TIP3    H255491   3.041   0.741   4.025 -1.0753 -0.8318 -0.4257
11334TIP3   OH255492   3.077   4.033   0.675 -0.0595 -0.1699 -0.0455
11334TIP3    H155493   3.081   3.990   0.589 -0.5482 -1.3562  0.5058
11334TIP3    H255494   3.095   4.125   0.656 -0.9799 -0.2670 -1.5371
11335TIP3   OH255495   5.337   1.558   4.141  0.6955  0.3988  0.6956
11335TIP3    H155496   5.251   1.537   4.105  0.3257  2.3326  0.3234
11335TIP3    H255497   5.358   1.485   4.199 -0.9754 -0.3384  0.4222
11336TIP3   OH255498   3.696   1.243   5.906 -0.3904 -0.6009 -0.2222
11336TIP3    H155499   3.741   1.295   5.840  0.5154 -0.5751  0.4018
11336TIP3    H255500   3.733   1.156   5.898 -1.3082 -0.9640 -0.6964
11337TIP3   OH255501   6.469   2.969  15.873  0.2119  0.1178  0.0988
11337TIP3    H155502   6.513   2.930  15.949 -0.4963 -1.2231 -0.1714
11337TIP3    H255503   6.530   3.038  15.845  0.7114  0.3369  1.5768
11338TIP3   OH255504   2.967   4.115  11.017 -0.6982  0.2122 -0.4908
11338TIP3    H155505   3.026   4.040  11.023 -0.3356  0.3638 -1.7975
11338TIP3    H255506   2.984   4.151  10.930 -0.3837  2.2211  0.3573
11339TIP3   OH255507   0.255   1.953  15.291  0.5666 -0.1335  0.1545
11339TIP3    H155508   0.222   2.018  15.354 -2.9669 -1.0020 -0.5869
11339TIP3    H255509   0.340   1.987  15.265 -0.1636  3.0607  1.4191
11340TIP3   OH255510   1.161   0.032  12.202 -0.2067 -0.4115  0.4756
11340TIP3    H155511   1.149   0.044  12.108  0.1294  0.5525  0.5425
11340TIP3    H255512   1.219  -0.044  12.209 -1.4613 -1.4576 -0.0202
11341TIP3   OH255513   5.213   3.543   1.483  0.5326  0.3706 -0.2979
11341TIP3    H155514   5.302   3.509   1.467  0.5918  0.3184  0.1259
11341TIP3    H255515   5.155   3.470   1.460  0.5295  0.8051 -1.7364
11342TIP3   OH255516   6.103   1.876  16.132  0.8010 -0.2673 -0.0878
11342TIP3    H155517   6.149   1.897  16.050  0.6592 -1.3450 -0.4639
11342TIP3    H255518   6.090   1.781  16.128  1.1876 -0.4006  1.4009
11343TIP3   OH255519   5.264   4.152   2.048  0.5204  0.5458 -0.2201
11343TIP3    H155520   5.209   4.187   2.118 -1.4363  0.9973 -1.8599
11343TIP3    H255521   5.287   4.064   2.077  1.0953  1.2636  1.6464
11344TIP3   OH255522   4.781   0.411   5.860  1.0049 -0.0436  0.0569
11344TIP3    H155523   4.735   0.473   5.804  1.6232  0.7969  0.4661
11344TIP3    H255524   4.715   0.383   5.924  1.1215  1.3880  0.8356
11345TIP3   OH255525   0.368   3.860   0.052  0.1381  0.4425 -0.2125
11345TIP3    H155526   0.407   3.792   0.107 -0.6253  0.5266  0.4380
11345TIP3    H255527   0.292   3.819   0.011 -0.5135  0.9809  0.4261
11346TIP3   OH255528   0.547   2.667  13.632  0.6820 -0.1796  0.4123
11346TIP3    H155529   0.493   2.587  13.632  2.0536 -1.1293  0.5805
11346TIP3    H255530   0.626   2.643  13.679  0.7087  1.6115  1.3665
11347TIP3   OH255531   2.641   5.324  16.520 -0.0293 -0.4547 -0.0833
11347TIP3    H155532   2.699   5.310  16.595 -0.5496  2.0581  0.8904
11347TIP3    H255533   2.615   5.415  16.527 -2.0892 -0.8198 -1.9565
11348TIP3   OH255534   3.436   1.734  12.622 -0.3595  0.1708  0.9360
11348TIP3    H155535   3.355   1.756  12.668  0.0813 -0.1337  1.8919
11348TIP3    H255536   3.464   1.651  12.660  0.7648  0.6157  1.1427
11349TIP3   OH255537   5.577   3.428   4.884  0.6314  0.8711 -0.1729
11349TIP3    H155538   5.518   3.474   4.824 -0.8858  1.4945  1.6716
11349TIP3    H255539   5.534   3.343   4.899  1.6829  0.1739 -0.9440
11350TIP3   OH255540   2.919   6.572  13.790  0.6986 -0.2705 -0.4974
11350TIP3    H155541   2.994   6.631  13.798 -0.8529  2.6500 -4.1995
11350TIP3    H255542   2.951   6.501  13.733  1.0600  0.1750 -0.8616
11351TIP3   OH255543   0.861   1.035   0.898 -0.1811 -0.4633 -0.0802
11351TIP3    H155544   0.821   1.014   0.814 -0.0848 -1.7250  0.1682
11351TIP3    H255545   0.908   1.116   0.883 -1.5970  0.2655 -0.7797
11352TIP3   OH255546   2.712   1.605   5.078  0.3766 -0.1672  0.6700
11352TIP3    H155547   2.724   1.513   5.056  0.1670 -0.1960  0.6684
11352TIP3    H255548   2.730   1.609   5.172  1.8647  0.0669  0.3940
11353TIP3   OH255549   5.797   1.860   0.216 -0.0094  0.6311  0.4649
11353TIP3    H155550   5.807   1.937   0.272  1.7855  0.6762  0.1697
11353TIP3    H255551   5.804   1.895   0.127  0.0370  0.2313  0.3114
11354TIP3   OH255552   6.236   5.685  12.649  0.4280 -0.0197 -0.5942
11354TIP3    H155553   6.270   5.647  12.568 -0.4004 -0.6114 -0.6825
11354TIP3    H255554   6.313   5.707  12.700  1.0382  2.0713 -2.2974
11355TIP3   OH255555   5.056   4.761   4.213 -0.2056  0.0230 -0.2332
11355TIP3    H155556   4.973   4.735   4.253 -0.8307  1.7325 -0.3426
11355TIP3    H255557   5.064   4.703   4.136 -0.5594 -1.1141  0.5532
11356TIP3   OH255558   3.570   1.611  13.670 -0.0094  0.0007 -0.9345
11356TIP3    H155559   3.515   1.647  13.600 -0.4548 -2.1903 -1.7689
11356TIP3    H255560   3.659   1.638  13.647 -0.0855 -1.0711 -2.6614
11357TIP3   OH255561   0.458   1.703   0.739 -0.0283 -0.1410 -0.1939
11357TIP3    H155562   0.444   1.775   0.800  0.3704  0.4307 -0.7750
11357TIP3    H255563   0.514   1.739   0.671 -0.6381 -0.7129 -1.0190
11358TIP3   OH255564   1.076   1.160  12.988 -0.5285  0.2644  0.3887
11358TIP3    H155565   1.079   1.111  13.070  0.7421  0.1520  0.2993
11358TIP3    H255566   0.984   1.157  12.962 -0.8774 -0.0485  1.5912
11359TIP3   OH255567   0.370   2.981  14.857 -0.2247 -0.0730 -0.3203
11359TIP3    H155568   0.286   3.019  14.832  0.5429  0.6532 -1.8729
11359TIP3    H255569   0.383   2.909  14.796 -0.8191 -1.8123  1.4716
11360TIP3   OH255570   4.865   2.851   1.833 -0.2797 -0.0654  0.0540
11360TIP3    H155571   4.941   2.877   1.886  0.3170 -2.4110  0.4724
11360TIP3    H255572   4.845   2.928   1.780  2.2048  0.7418  0.1601
11361TIP3   OH255573   6.571   4.585  12.206 -0.0001  0.2719 -0.4196
11361TIP3    H155574   6.618   4.580  12.123 -0.0487 -1.1952 -0.3730
11361TIP3    H255575   6.621   4.530  12.266 -0.6185  0.3742  0.2056
11362TIP3   OH255576   0.039   4.187   1.000  0.0635  0.3236 -0.5228
11362TIP3    H155577  -0.035   4.247   0.995  0.2357  0.6387  0.3582
11362TIP3    H255578   0.116   4.242   0.985  0.1131 -0.0381 -1.6352
11363TIP3   OH255579   3.559   4.591  11.226 -0.1068  0.2116 -0.4012
11363TIP3    H155580   3.585   4.556  11.311 -0.6628  1.3287  0.2691
11363TIP3    H255581   3.464   4.575  11.222  0.1025 -0.9047 -1.3605
11364TIP3   OH255582   0.632   3.080  14.677 -0.6526 -0.1076 -0.2822
11364TIP3    H155583   0.671   3.063  14.592 -0.8036  0.8209 -0.5535
11364TIP3    H255584   0.591   2.998  14.703  1.0735 -0.9884 -0.1980
11365TIP3   OH255585   0.057   5.854  15.184  0.1151  0.3043  0.6071
11365TIP3    H155586   0.009   5.785  15.229 -0.9632  1.3115  1.0542
11365TIP3    H255587   0.149   5.828  15.191 -0.1986 -0.5851  1.5931
11366TIP3   OH255588   3.970   3.786   0.336  0.6046  0.4364 -0.4334
11366TIP3    H155589   4.024   3.852   0.379 -1.1163  1.2642  0.5700
11366TIP3    H255590   4.030   3.739   0.279  2.0837  2.2093 -0.4101
11367TIP3   OH255591   5.307   4.201   4.175 -0.8555  0.7314  0.1040
11367TIP3    H155592   5.287   4.129   4.235 -0.9665 -0.1288 -0.9344
11367TIP3    H255593   5.265   4.277   4.214  0.7430  0.6398  2.1545
11368TIP3   OH255594   6.484   0.636   1.330  0.1207 -0.1848 -0.0496
11368TIP3    H155595   6.410   0.576   1.327  1.4695 -1.9571  0.2158
11368TIP3    H255596   6.511   0.645   1.238  2.0623 -2.9461  0.1017
11369TIP3   OH255597   2.981   2.008   5.396  0.4650 -0.0339 -0.2074
11369TIP3    H155598   3.047   2.047   5.452  0.8279 -2.9081  1.5420
11369TIP3    H255599   3.018   1.925   5.368  0.1628  1.0475 -4.6120
11370TIP3   OH255600   1.211   4.612   2.659  0.2227 -1.0541  0.1002
11370TIP3    H155601   1.282   4.675   2.641 -1.1286  0.9251  1.2406
11370TIP3    H255602   1.219   4.594   2.753 -0.4612 -1.2219  0.1306
11371TIP3   OH255603   4.239   0.188   4.706  0.0859  0.5523 -0.5604
11371TIP3    H155604   4.227   0.221   4.618 -1.8956  1.9013  0.1481
11371TIP3    H255605   4.204   0.257   4.763  0.8707 -0.4729  1.2526
11372TIP3   OH255606   0.013   6.736  14.296 -0.6184 -0.1091  0.5808
11372TIP3    H155607  -0.082   6.729  14.287 -0.5557  0.2369 -0.5657
11372TIP3    H255608   0.047   6.665  14.242 -0.2134  1.0743 -0.7821
11373TIP3   OH255609   5.032   1.803  11.230 -0.0624 -0.1530  0.1269
11373TIP3    H155610   5.055   1.711  11.213  1.1728  0.1355  0.1591
11373TIP3    H255611   4.951   1.817  11.180 -0.8792 -1.5610  1.0100
11374TIP3   OH255612   5.073   6.171   3.669 -0.3157  0.2876 -0.3835
11374TIP3    H155613   5.067   6.141   3.578 -0.0284 -1.2135  0.0595
11374TIP3    H255614   5.153   6.130   3.702 -0.4626  0.7521  0.5719
11375TIP3   OH255615   4.369   3.941   0.165  0.4546 -0.3833 -0.0341
11375TIP3    H155616   4.388   3.851   0.138 -1.1229 -0.2373 -1.9059
11375TIP3    H255617   4.370   3.991   0.083  0.0756  1.0579  0.8064
11376TIP3   OH255618   5.328   2.357   3.161  0.5997  0.3557  0.0844
11376TIP3    H155619   5.317   2.380   3.253 -0.4732 -0.9847  0.3162
11376TIP3    H255620   5.415   2.391   3.138  0.8713  0.7327  1.5641
11377TIP3   OH255621   1.381   4.192  13.274 -0.4858 -0.0682  0.2709
11377TIP3    H155622   1.383   4.122  13.209  1.0718  0.1791  0.0099
11377TIP3    H255623   1.387   4.273  13.223  1.4842  0.1108  0.6936
11378TIP3   OH255624   5.026   3.934   0.010  0.1769 -0.4526 -0.1827
11378TIP3    H155625   5.033   3.841   0.032  1.5643 -1.1651 -3.0783
11378TIP3    H255626   4.938   3.943  -0.026  0.2640 -0.8244 -0.5004
11379TIP3   OH255627   1.398   0.805   5.307 -0.1809 -0.5215  0.1863
11379TIP3    H155628   1.323   0.806   5.367  0.4653 -0.1286  0.9919
11379TIP3    H255629   1.402   0.893   5.272 -0.2144 -0.5999 -0.0168
11380TIP3   OH255630   6.382   4.105  12.284  0.4142 -0.0995 -0.4635
11380TIP3    H155631   6.434   4.053  12.223  1.9240  0.1175  0.5667
11380TIP3    H255632   6.392   4.195  12.255  1.2789  0.0232  0.1600
11381TIP3   OH255633   5.849   1.053  10.998 -0.4768 -0.8915 -0.4739
11381TIP3    H155634   5.928   1.047  11.052 -0.6449  1.2058  0.0985
11381TIP3    H255635   5.879   1.085  10.913 -0.8167  2.1336  0.4020
11382TIP3   OH255636   3.630   1.337  11.644 -0.4917  0.0132 -0.0817
11382TIP3    H155637   3.565   1.302  11.583 -1.5890 -0.4457  1.2989
11382TIP3    H255638   3.687   1.392  11.590 -1.0206 -0.8992 -1.6178
11383TIP3   OH255639   5.674   1.489  11.198 -0.0320 -0.5615 -0.0113
11383TIP3    H155640   5.707   1.529  11.118  0.5092 -1.8698 -0.4630
11383TIP3    H255641   5.597   1.542  11.222 -1.2382 -1.1587 -2.3226
11384TIP3   OH255642   6.080   4.646   1.570 -0.1322 -0.0774  0.2574
11384TIP3    H155643   6.149   4.692   1.619 -0.0142 -1.5386  1.5424
11384TIP3    H255644   6.004   4.704   1.576  0.6723  1.0806 -0.3002
11385TIP3   OH255645   4.866   0.262   0.392  0.1063  0.1278 -0.5215
11385TIP3    H155646   4.815   0.336   0.424 -0.9658 -1.1955  0.9760
11385TIP3    H255647   4.802   0.202   0.354  1.0432  0.2816 -2.4922
11386TIP3   OH255648   5.787   6.622  13.668  0.5974  0.2977 -0.8615
11386TIP3    H155649   5.761   6.596  13.579  1.0995 -1.0770 -0.6294
11386TIP3    H255650   5.858   6.684  13.655  1.0861 -0.3660 -1.4201
11387TIP3   OH255651   2.307   1.062  16.113 -0.3221  0.3177  0.3839
11387TIP3    H155652   2.247   1.121  16.159 -0.8172 -0.5011  0.8064
11387TIP3    H255653   2.307   1.093  16.022  0.2770  1.6353  0.8122
11388TIP3   OH255654   0.862   0.858   4.025 -0.3100  0.0567 -0.0221
11388TIP3    H155655   0.793   0.871   4.091 -0.8676 -1.2610 -0.3066
11388TIP3    H255656   0.814   0.844   3.943  0.3833  2.6307 -0.9542
11389TIP3   OH255657   0.353   6.313  12.277  0.6636  0.1493 -0.0668
11389TIP3    H155658   0.265   6.345  12.260  0.7873 -0.3129 -1.7171
11389TIP3    H255659   0.397   6.317  12.192  1.5997 -1.5367  0.2921
11390TIP3   OH255660   4.526   1.065  16.048 -0.7344  0.5149 -0.3042
11390TIP3    H155661   4.567   1.021  16.122  1.4972  0.4202 -1.5025
11390TIP3    H255662   4.454   1.007  16.023 -0.2612 -0.4796  0.5554
11391TIP3   OH255663   4.942   5.444   2.402  0.1695 -0.6331  0.0137
11391TIP3    H155664   5.028   5.421   2.436 -0.0082 -0.8996  0.2845
11391TIP3    H255665   4.885   5.448   2.479 -0.3779 -1.8971 -0.3111
11392TIP3   OH255666   0.220   5.505  16.176 -0.4044 -0.1712  0.1144
11392TIP3    H155667   0.242   5.417  16.146  1.2805  0.6716 -1.2956
11392TIP3    H255668   0.196   5.553  16.097  0.9982  1.2527  0.5025
11393TIP3   OH255669   2.340   4.345  13.160 -0.3680  0.3699  0.0056
11393TIP3    H155670   2.435   4.332  13.164 -0.6995 -2.4236  1.3977
11393TIP3    H255671   2.305   4.258  13.139 -2.5600  1.8190 -2.9804
11394TIP3   OH255672   2.962   2.792  11.941 -0.4740  0.3881 -0.1012
11394TIP3    H155673   3.057   2.783  11.946 -0.6711 -1.4578  2.2850
11394TIP3    H255674   2.938   2.750  11.859  0.6717 -0.7823  0.1240
11395TIP3   OH255675   3.097   2.980   2.897  0.1998 -0.1603 -0.3403
11395TIP3    H155676   3.017   2.929   2.910  1.2213 -1.5270  0.9401
11395TIP3    H255677   3.126   3.002   2.985  1.1695  0.4077 -0.7889
11396TIP3   OH255678   6.429   5.004   0.357  0.5441  0.0714 -0.0216
11396TIP3    H155679   6.362   4.965   0.300  0.9356  0.5571 -0.8333
11396TIP3    H255680   6.442   5.092   0.321 -0.2378  0.9295  1.6981
11397TIP3   OH255681   2.299   0.477  16.347  0.0029  0.0098  0.4013
11397TIP3    H155682   2.343   0.478  16.261  2.3500 -1.8207  1.4628
11397TIP3    H255683   2.244   0.399  16.344 -0.9517  0.6733  0.1400
11398TIP3   OH255684   4.868   1.379  13.675  0.0642 -0.1837  0.7632
11398TIP3    H155685   4.919   1.454  13.705 -0.1175  0.7720 -1.1877
11398TIP3    H255686   4.782   1.393  13.714 -0.1276  0.9592  0.0033
11399TIP3   OH255687   1.493   1.632   0.143 -0.0765  0.7095 -0.2968
11399TIP3    H155688   1.529   1.712   0.105 -0.8317  1.7799  1.1025
11399TIP3    H255689   1.453   1.586   0.070  1.9025  0.7195 -1.4382
11400TIP3   OH255690   2.525   1.252   5.328 -0.0835 -0.1274 -0.1223
11400TIP3    H155691   2.487   1.171   5.363  0.0500 -0.1109  0.0638
11400TIP3    H255692   2.475   1.270   5.249  1.1154 -1.4245 -1.2363
11401TIP3   OH255693   6.303   4.439  16.460 -0.0272 -0.4091 -0.3514
11401TIP3    H155694   6.326   4.424  16.368  0.9168  1.4747 -0.4552
11401TIP3    H255695   6.222   4.490  16.456 -0.3575 -0.8954 -0.0927
11402TIP3   OH255696   1.376   6.449   5.290  0.5840  0.4188  0.6098
11402TIP3    H155697   1.356   6.538   5.261 -0.5067  0.9192  2.6737
11402TIP3    H255698   1.375   6.455   5.385  3.0347 -1.3001  0.8297
11403TIP3   OH255699   0.443   1.357   5.340 -0.0192 -0.6412 -0.3007
11403TIP3    H155700   0.488   1.364   5.424  1.7370  1.8183 -1.3020
11403TIP3    H255701   0.481   1.280   5.298  4.1528  1.6796 -1.3912
11404TIP3   OH255702   5.242   3.886   2.115 -0.4483  0.2499  0.1800
11404TIP3    H155703   5.149   3.909   2.106 -0.3980  0.0799 -0.9215
11404TIP3    H255704   5.244   3.792   2.097 -0.2708 -0.0789  1.8163
11405TIP3   OH255705   5.486   4.001   3.293 -1.0645  0.2716  0.2430
11405TIP3    H155706   5.441   3.917   3.295  0.3199 -0.5038 -0.1738
11405TIP3    H255707   5.541   4.001   3.371 -1.5682  1.1006  0.6108
11406TIP3   OH255708   0.460   0.844   0.512  0.8610 -0.4429 -0.2645
11406TIP3    H155709   0.481   0.915   0.573 -0.3664  0.7186 -1.1223
11406TIP3    H255710   0.390   0.795   0.556 -1.0914  1.2835 -1.2593
11407TIP3   OH255711   0.983   4.387   3.450  0.0572  0.2560  0.5691
11407TIP3    H155712   0.952   4.472   3.421 -0.3932 -0.1141 -0.0461
11407TIP3    H255713   1.044   4.358   3.382  0.7405  0.3826  1.1106
11408TIP3   OH255714   4.623   5.299   5.017 -0.3656 -0.7978 -0.2558
11408TIP3    H155715   4.601   5.298   4.924  0.6786  0.4018 -0.5474
11408TIP3    H255716   4.538   5.304   5.062 -0.8712 -1.2234 -1.1427
11409TIP3   OH255717   6.354   1.737   1.687 -0.0608 -0.1599  0.6664
11409TIP3    H155718   6.299   1.771   1.616 -2.8990 -1.4404  2.0731
11409TIP3    H255719   6.366   1.811   1.745 -0.6475  0.0692  0.5095
11410TIP3   OH255720   4.139   4.720  13.975 -0.3425  0.3588  0.3513
11410TIP3    H155721   4.076   4.792  13.980 -0.4960  0.2494  0.0255
11410TIP3    H255722   4.087   4.641  13.992 -0.4116  0.2127 -0.5096
11411TIP3   OH255723   4.439   0.110   2.125 -0.3351  0.2731 -0.3837
11411TIP3    H155724   4.436   0.027   2.174  2.8572  0.2699  0.0465
11411TIP3    H255725   4.427   0.177   2.192 -1.2924  0.2199 -0.4841
11412TIP3   OH255726   1.694   2.701  10.999 -0.0670 -0.9002  0.1131
11412TIP3    H155727   1.731   2.685  10.912  1.6254  0.5847  0.5091
11412TIP3    H255728   1.728   2.628  11.053  3.1015  0.7637  0.6352
11413TIP3   OH255729   1.315   0.077   0.922 -0.0337 -0.3833 -0.2635
11413TIP3    H155730   1.348   0.146   0.980  1.0882 -2.6926  2.0432
11413TIP3    H255731   1.393   0.048   0.875 -0.2656 -0.8837 -0.3371
11414TIP3   OH255732   0.762   0.155  16.439  0.5356  0.5650  0.1480
11414TIP3    H155733   0.775   0.191  16.526  0.5447 -0.8824  0.7701
11414TIP3    H255734   0.685   0.099  16.447  1.3465 -0.6737 -0.4119
11415TIP3   OH255735   2.827   6.253   4.557  0.4024  0.0111  0.0325
11415TIP3    H155736   2.843   6.280   4.647  3.2483 -0.4420 -0.2596
11415TIP3    H255737   2.865   6.323   4.504 -0.7373  0.0005 -0.8392
11416TIP3   OH255738   3.272   2.005   1.949  0.0195  0.3873  0.0916
11416TIP3    H155739   3.332   2.045   1.886  2.2109 -2.4421  0.1813
11416TIP3    H255740   3.322   1.934   1.989 -2.5516 -0.4081  2.2324
11417TIP3   OH255741   1.993   1.375  14.166 -0.2009 -0.3910  0.3336
11417TIP3    H155742   2.038   1.427  14.099 -0.8562  0.1746  0.3317
11417TIP3    H255743   1.904   1.365  14.133 -0.8818  0.9384  1.6881
11418TIP3   OH255744   6.154   4.579   1.322 -0.0549 -0.2914  0.1876
11418TIP3    H155745   6.069   4.548   1.290 -0.7164  1.9781 -0.4272
11418TIP3    H255746   6.135   4.616   1.409 -0.2402  2.2489 -0.8441
11419TIP3   OH255747   6.145   6.028   0.263  0.3524  0.1636  0.7426
11419TIP3    H155748   6.139   5.980   0.180  0.9735  1.1599  0.0948
11419TIP3    H255749   6.239   6.044   0.275  0.2099  0.6234  1.2919
11420TIP3   OH255750   0.804   4.846   6.167  0.2595  0.3118  0.0187
11420TIP3    H155751   0.824   4.862   6.075 -2.7315 -0.3210 -0.8637
11420TIP3    H255752   0.841   4.759   6.185 -0.1034 -0.0545 -0.9553
11421TIP3   OH255753   5.707   5.954  12.834  0.1240 -0.5650  0.1733
11421TIP3    H155754   5.715   6.020  12.902  1.5765  0.4987 -0.9719
11421TIP3    H255755   5.789   5.904  12.839  0.6518  0.0839 -1.3022
11422TIP3   OH255756   6.742   4.446   1.819  0.2644 -0.0714 -0.2964
11422TIP3    H155757   6.803   4.377   1.793  0.7032  0.1741  0.0769
11422TIP3    H255758   6.661   4.399   1.841  0.0888 -0.3343 -1.4690
11423TIP3   OH255759   3.466   3.966  14.945  0.4567 -0.3710 -0.2481
11423TIP3    H155760   3.407   4.008  15.007 -0.9614 -1.9701 -0.4437
11423TIP3    H255761   3.494   4.036  14.887 -2.3703  0.2681 -1.0045
11424TIP3   OH255762   2.157   1.518  11.897  0.3285  0.1322 -0.3609
11424TIP3    H155763   2.076   1.543  11.941  0.1403  1.0995 -1.2044
11424TIP3    H255764   2.131   1.450  11.835  0.8775 -2.4900  2.0914
11425TIP3   OH255765   6.013   2.286  13.859 -0.2541  0.5074  0.0116
11425TIP3    H155766   6.067   2.261  13.784 -0.6050  1.1583 -0.4694
11425TIP3    H255767   6.016   2.381  13.861 -3.0088  0.7369 -1.3207
11426TIP3   OH255768   3.104   0.204   3.977 -0.6491  0.3917 -0.7581
11426TIP3    H155769   3.128   0.234   4.065 -0.0900 -1.7272 -0.1150
11426TIP3    H255770   3.073   0.282   3.932 -0.9018  1.5489  1.3125
11427TIP3   OH255771   2.255   4.104   2.555  0.3438 -0.0473 -0.1878
11427TIP3    H155772   2.200   4.093   2.477  0.1475 -0.4836  0.0129
11427TIP3    H255773   2.244   4.196   2.578 -0.6107 -0.2109  0.0738
11428TIP3   OH255774   1.474   0.915  15.177  0.5983 -0.2870  0.8008
11428TIP3    H155775   1.509   0.869  15.101 -0.2850  0.2287  0.0605
11428TIP3    H255776   1.524   0.996  15.182 -0.0227  0.1487  0.1376
11429TIP3   OH255777   6.314   1.924  13.969 -0.5313  0.1191 -0.2756
11429TIP3    H155778   6.229   1.938  13.929  0.0402  0.6197 -1.3477
11429TIP3    H255779   6.345   1.841  13.933 -0.8264 -0.3753  0.5912
11430TIP3   OH255780   6.010   6.567   1.988  0.1927  0.2798  0.6866
11430TIP3    H155781   5.941   6.573   2.054 -0.1949 -3.4614  0.8178
11430TIP3    H255782   5.965   6.580   1.905  0.1237  1.8303  0.9321
11431TIP3   OH255783   3.809   2.322   5.161  0.5053 -0.2545 -0.1305
11431TIP3    H155784   3.734   2.381   5.165  0.4861 -0.2288 -0.7558
11431TIP3    H255785   3.848   2.326   5.249 -0.6709 -0.8624  0.4433
11432TIP3   OH255786   4.811   2.711  15.245  0.3220  0.0387  0.7316
11432TIP3    H155787   4.821   2.773  15.173  1.2345 -0.2771  0.5707
11432TIP3    H255788   4.809   2.765  15.324  1.7128  0.2559  0.6403
11433TIP3   OH255789   0.039   1.238  13.872 -0.0803 -0.0488 -0.1065
11433TIP3    H155790   0.066   1.312  13.816  1.0471 -0.4817 -0.1673
11433TIP3    H255791   0.103   1.238  13.943 -0.7461 -0.2880  0.4923
11434TIP3   OH255792   2.560   1.748  11.988  0.7052  0.0609  0.0166
11434TIP3    H155793   2.617   1.814  12.028 -1.5398  2.1650  0.0181
11434TIP3    H255794   2.603   1.725  11.906  2.3145  0.3459  0.7449
11435TIP3   OH255795   0.973   2.665  13.708  0.4560 -0.2701 -0.1033
11435TIP3    H155796   0.976   2.584  13.657  0.2131  0.2349 -0.9391
11435TIP3    H255797   0.969   2.735  13.642  0.5593  0.4206  0.6038
11436TIP3   OH255798   4.227   1.643   1.321 -0.4087 -0.0601  0.0491
11436TIP3    H155799   4.266   1.730   1.315 -1.9789  0.6467 -0.8039
11436TIP3    H255800   4.184   1.631   1.236  0.7477 -2.1731 -0.2863
11437TIP3   OH255801   5.434   5.617  16.072 -0.0996 -0.2272  0.0151
11437TIP3    H155802   5.374   5.563  16.123  0.6545 -1.1837 -0.0957
11437TIP3    H255803   5.459   5.562  15.998  1.5381 -0.1430  0.4752
11438TIP3   OH255804   5.024   6.146   2.542 -0.0841 -0.1386 -0.4586
11438TIP3    H155805   4.960   6.075   2.547 -0.2067 -0.0652 -0.8901
11438TIP3    H255806   5.107   6.102   2.521 -0.3944 -0.0660 -2.0033
11439TIP3   OH255807   6.611   0.400  14.745 -0.6149 -0.8592 -0.5437
11439TIP3    H155808   6.624   0.311  14.779 -1.4598 -0.5942  0.5468
11439TIP3    H255809   6.516   0.406  14.732 -0.7005  0.2276  0.4473
11440TIP3   OH255810   2.748   3.867   0.705  0.2488  0.2567  0.7285
11440TIP3    H155811   2.703   3.939   0.749  0.8687  1.3894 -0.4428
11440TIP3    H255812   2.745   3.889   0.612  2.2047 -0.2041  0.5101
11441TIP3   OH255813   0.344   0.926   0.947 -0.2077 -0.0793  0.1054
11441TIP3    H155814   0.349   0.832   0.931 -0.6010 -0.3261  1.3014
11441TIP3    H255815   0.271   0.936   1.009  0.9261  0.8203  1.3425
11442TIP3   OH255816   3.281   0.674   1.420 -0.5270  0.0480 -0.1510
11442TIP3    H155817   3.224   0.613   1.466  0.1134  1.2371  2.4340
11442TIP3    H255818   3.290   0.638   1.332 -3.3725 -1.3747  0.0375
11443TIP3   OH255819   0.940   5.997  11.825 -0.1665 -0.1257 -0.0530
11443TIP3    H155820   0.978   5.952  11.901  1.2139  1.7800  0.4489
11443TIP3    H255821   0.951   5.935  11.753 -2.1482 -2.3031  1.3168
11444TIP3   OH255822   6.042   2.714  11.088  0.3811 -0.3613 -0.2658
11444TIP3    H155823   6.084   2.741  11.006 -0.9048  0.0969 -0.8055
11444TIP3    H255824   5.960   2.763  11.089 -1.4186 -3.1473 -0.5749
11445TIP3   OH255825   4.876   1.945  14.445 -0.3696 -0.2149 -0.3969
11445TIP3    H155826   4.799   1.976  14.398  0.6026  1.6888 -0.8374
11445TIP3    H255827   4.843   1.920  14.531 -1.4030  1.1692 -0.3561
11446TIP3   OH255828   6.685   3.460   2.643  0.2868 -0.7480  0.0840
11446TIP3    H155829   6.621   3.482   2.711  0.8833  0.4714  0.2625
11446TIP3    H255830   6.761   3.428   2.691  0.9073  0.6090  0.0516
11447TIP3   OH255831   5.225   2.498   5.377 -0.4508 -0.2497  0.1800
11447TIP3    H155832   5.155   2.446   5.337  0.3190  0.0691 -1.7221
11447TIP3    H255833   5.190   2.587   5.379 -0.5708 -0.3029  0.3850
11448TIP3   OH255834   3.741   5.838   1.002  0.7227 -0.1619 -0.1344
11448TIP3    H155835   3.756   5.881   1.086  0.1994  0.4140 -0.3275
11448TIP3    H255836   3.703   5.907   0.946 -2.2598 -1.3833  0.2128
11449TIP3   OH255837   1.343   4.537   5.832 -0.0117  0.7664 -0.0889
11449TIP3    H155838   1.333   4.448   5.798  0.0585  1.5469 -2.3288
11449TIP3    H255839   1.434   4.542   5.860 -0.2975 -0.1678  1.0945
11450TIP3   OH255840   0.859   4.411   1.186  0.1618 -0.1532  0.0892
11450TIP3    H155841   0.793   4.479   1.169  0.8876  0.5501 -0.0079
11450TIP3    H255842   0.836   4.376   1.272  1.5466  2.4132  1.6370
11451TIP3   OH255843   4.061   5.605   5.324  0.0064 -0.0328  0.0706
11451TIP3    H155844   4.148   5.627   5.291  0.1908 -1.2291 -0.3160
11451TIP3    H255845   4.039   5.523   5.279 -1.3044  0.2248  0.1967
11452TIP3   OH255846   6.723   3.455  13.890  0.3521 -0.4122  0.7902
11452TIP3    H155847   6.751   3.413  13.971  3.2985 -0.4326 -0.1253
11452TIP3    H255848   6.768   3.539  13.889 -0.2135 -0.0967 -0.4950
11453TIP3   OH255849   0.178   1.038   5.264 -0.0048  0.1255 -0.1324
11453TIP3    H155850   0.212   1.074   5.346 -1.9178  2.0420 -0.0895
11453TIP3    H255851   0.115   0.972   5.291 -1.2176  1.3078  0.0123
11454TIP3   OH255852   3.041   1.573   4.712 -0.1726  0.7363  0.3608
11454TIP3    H155853   3.068   1.526   4.633  1.4655  2.9411 -0.4893
11454TIP3    H255854   3.028   1.504   4.778 -1.0281 -1.1195 -1.6289
11455TIP3   OH255855   4.897   4.454   3.963 -0.1497  0.4128  0.1730
11455TIP3    H155856   4.844   4.486   4.037 -0.4405 -1.2270  0.7227
11455TIP3    H255857   4.978   4.505   3.968  0.1334 -0.1343  2.0968
11456TIP3   OH255858   5.813   2.593   3.230 -0.9027 -0.3480 -0.5585
11456TIP3    H155859   5.811   2.522   3.294 -0.8295  0.8567  0.8279
11456TIP3    H255860   5.893   2.578   3.179  0.2609 -0.1129  1.1161
11457TIP3   OH255861   5.496   2.763  13.807  0.0098  0.7835  0.1944
11457TIP3    H155862   5.499   2.675  13.770 -0.3014  0.6101  0.5802
11457TIP3    H255863   5.409   2.796  13.785 -0.7006  0.1687  1.9111
11458TIP3   OH255864   1.709   4.419   6.159 -0.2979 -0.4315 -0.7125
11458TIP3    H155865   1.672   4.506   6.169  2.9059  0.8119  1.7021
11458TIP3    H255866   1.717   4.385   6.248  1.1395 -2.0080 -1.3863
11459TIP3   OH255867   0.217   5.056  16.246 -0.6572 -0.4002  0.0876
11459TIP3    H155868   0.280   5.066  16.317 -1.5364  0.7726  0.7308
11459TIP3    H255869   0.267   5.074  16.167  0.2138 -1.2343  0.4220
11460TIP3   OH255870   2.312   5.905   2.450  0.0357  0.5834 -0.1031
11460TIP3    H155871   2.405   5.880   2.453 -0.1228 -0.2491 -1.3511
11460TIP3    H255872   2.266   5.828   2.484 -0.2002  1.0088  0.5471
11461TIP3   OH255873   1.569   3.455   6.226  0.5526  0.4482 -0.0588
11461TIP3    H155874   1.659   3.450   6.259  0.4011 -1.1140  0.1927
11461TIP3    H255875   1.577   3.488   6.137  1.3729  0.3394 -0.0269
11462TIP3   OH255876   3.160   3.968   5.582  0.2000 -0.6375  0.4142
11462TIP3    H155877   3.106   4.039   5.617 -1.6759 -1.1730 -1.2111
11462TIP3    H255878   3.237   3.966   5.639 -0.5333  1.5035  1.5880
11463TIP3   OH255879   6.155   1.135   1.687 -0.3904 -0.0259  0.3275
11463TIP3    H155880   6.233   1.158   1.738  1.6123 -2.0632 -1.5600
11463TIP3    H255881   6.082   1.154   1.745  1.5497  1.1271  2.5643
11464TIP3   OH255882   6.399   0.434   5.502 -0.5945 -0.2185  0.0886
11464TIP3    H155883   6.317   0.408   5.461 -0.0467 -1.3769 -0.3265
11464TIP3    H255884   6.453   0.355   5.500  0.8301  0.7327 -0.3811
11465TIP3   OH255885   1.921   2.178  15.787  0.4576  0.2414 -0.3251
11465TIP3    H155886   1.851   2.141  15.840  1.8939 -1.4176  0.5020
11465TIP3    H255887   1.889   2.264  15.762 -1.0766  0.2951  1.6038
11466TIP3   OH255888   0.333   5.177  13.567 -0.1299 -0.0247  0.2168
11466TIP3    H155889   0.320   5.252  13.625  1.4121  0.3647  0.0896
11466TIP3    H255890   0.266   5.187  13.499 -0.4274  0.8114  0.6249
11467TIP3   OH255891   3.111   4.297   2.703  0.1685  0.2584  0.8341
11467TIP3    H155892   3.065   4.225   2.660  1.2871 -1.5356  2.4413
11467TIP3    H255893   3.042   4.347   2.746 -0.6125 -0.0324 -0.0431
11468TIP3   OH255894   3.721   2.586  16.732  0.0409  0.6016 -0.3280
11468TIP3    H155895   3.792   2.529  16.763 -0.6979 -1.2430 -1.8341
11468TIP3    H255896   3.651   2.575  16.796  0.4817  1.1449  0.2682
11469TIP3   OH255897   3.091   1.779   4.142 -0.3392 -0.2532  0.2488
11469TIP3    H155898   3.009   1.824   4.121 -0.8045 -0.7011  1.0540
11469TIP3    H255899   3.065   1.688   4.155  0.1601 -0.2626  1.2608
11470TIP3   OH255900   4.236   0.719  12.014 -0.8356 -0.2453 -0.0624
11470TIP3    H155901   4.244   0.624  12.020  0.3558 -0.1013  1.3004
11470TIP3    H255902   4.200   0.745  12.099 -2.2814  0.4520 -0.8532
11471TIP3   OH255903   2.815   4.681   5.377 -0.1077 -0.3862  0.3482
11471TIP3    H155904   2.727   4.713   5.355  0.5544  1.4159  0.1066
11471TIP3    H255905   2.835   4.723   5.460  0.6817 -0.4526  0.2000
11472TIP3   OH255906   6.446   2.678  14.716  0.0761  0.6120  0.4290
11472TIP3    H155907   6.416   2.609  14.657  0.5029 -1.4097  2.4170
11472TIP3    H255908   6.533   2.701  14.683 -0.7705  1.4994 -1.2755
11473TIP3   OH255909   6.082   1.039  16.087 -0.7288 -0.2924  0.0028
11473TIP3    H155910   6.135   0.992  16.152 -0.1217  1.2219  0.6574
11473TIP3    H255911   5.996   0.997  16.092 -0.9501  0.2734  2.4268
11474TIP3   OH255912   1.497   2.009  10.841 -0.0778 -0.3910 -0.2187
11474TIP3    H155913   1.551   1.936  10.811  1.9340  0.2386  1.5635
11474TIP3    H255914   1.422   1.967  10.884  0.5021 -1.3978 -0.1522
11475TIP3   OH255915   2.677   2.492   4.489  0.6201 -0.2584  0.0279
11475TIP3    H155916   2.678   2.587   4.504  2.8139 -0.2255  0.0145
11475TIP3    H255917   2.659   2.455   4.576  0.3924  0.1588  0.1633
11476TIP3   OH255918   3.817   5.291   5.866  0.8017 -0.0431  0.3957
11476TIP3    H155919   3.822   5.211   5.917 -0.9075  0.3413  1.2783
11476TIP3    H255920   3.824   5.263   5.775 -2.4689 -1.6270  0.4863
11477TIP3   OH255921   6.427   1.286   3.526 -0.1271  0.1849 -0.0452
11477TIP3    H155922   6.499   1.224   3.514 -0.3244  0.2893 -2.2403
11477TIP3    H255923   6.349   1.231   3.532 -0.3937  0.1236 -2.7410
11478TIP3   OH255924   4.744   6.673   2.017 -0.1025 -0.7142 -0.6312
11478TIP3    H155925   4.659   6.631   2.004 -0.1036 -1.1686  0.6677
11478TIP3    H255926   4.743   6.702   2.108  1.2471 -1.0002 -0.4984
11479TIP3   OH255927   2.561   4.770   0.355 -0.2454 -0.0781 -0.2618
11479TIP3    H155928   2.552   4.696   0.294 -0.5591  0.3356 -0.7280
11479TIP3    H255929   2.474   4.778   0.394 -0.0654 -0.2914  0.1858
11480TIP3   OH255930   1.250   3.758   1.018  0.4596 -0.1610 -0.5304
11480TIP3    H155931   1.191   3.687   0.990  1.0043 -1.3524  1.1743
11480TIP3    H255932   1.191   3.827   1.048 -0.0773 -0.6242 -0.4986
11481TIP3   OH255933   6.784   3.177   5.145  0.1011 -0.3353 -0.0145
11481TIP3    H155934   6.761   3.087   5.123  0.8213 -0.6735  0.5749
11481TIP3    H255935   6.732   3.231   5.085 -1.4442 -1.0890  0.5966
11482TIP3   OH255936   3.954   3.205  12.262  0.0010  0.1066 -0.1112
11482TIP3    H155937   4.015   3.271  12.293 -0.5825 -0.0114  1.3411
11482TIP3    H255938   4.010   3.136  12.226  0.6995  0.2173  0.7550
11483TIP3   OH255939   4.806   1.659  12.216 -0.3365 -0.3756 -0.2575
11483TIP3    H155940   4.869   1.614  12.160  0.1797  0.1924 -0.1517
11483TIP3    H255941   4.853   1.674  12.298  0.0115  1.5648 -0.7580
11484TIP3   OH255942   2.156   3.164   0.510  0.4354  0.4720  0.0947
11484TIP3    H155943   2.234   3.214   0.534  3.1010 -2.2960 -2.1685
11484TIP3    H255944   2.118   3.213   0.436  0.9347  0.9953  0.1792
11485TIP3   OH255945   0.598   2.064   1.282 -0.0852 -0.5742  0.0707
11485TIP3    H155946   0.533   2.118   1.238  1.0137  0.7445 -0.0158
11485TIP3    H255947   0.633   2.008   1.213 -0.6184 -0.7820 -0.0354
11486TIP3   OH255948   1.842   6.646   2.619  0.5015 -0.3665 -0.2356
11486TIP3    H155949   1.935   6.631   2.604  0.7769  0.9638  0.0571
11486TIP3    H255950   1.812   6.567   2.664  1.2146 -1.3159 -1.3574
11487TIP3   OH255951   6.079   5.642   4.120 -0.0923  0.1198 -0.5724
11487TIP3    H155952   6.047   5.574   4.179 -0.4248 -0.4325 -1.3772
11487TIP3    H255953   6.076   5.603   4.033  1.0046  0.6980 -0.8986
11488TIP3   OH255954   4.751   5.628   0.626 -0.6658  0.1958  0.5514
11488TIP3    H155955   4.827   5.685   0.622 -1.6616  1.4814 -1.2226
11488TIP3    H255956   4.752   5.581   0.542 -1.2669 -0.5399  0.9429
11489TIP3   OH255957   6.133   1.490   6.610  0.2833 -0.4638 -0.2178
11489TIP3    H155958   6.198   1.536   6.663 -0.3609  0.6507 -0.3569
11489TIP3    H255959   6.053   1.493   6.662  0.0844 -0.9364 -0.4848
11490TIP3   OH255960   2.185   6.414   1.203 -0.4096  0.5994 -0.0368
11490TIP3    H155961   2.272   6.449   1.218  0.4192 -1.1072 -0.5918
11490TIP3    H255962   2.140   6.480   1.150  1.1814  0.6919 -1.3381
11491TIP3   OH255963   5.238   1.654  16.792 -0.4703  0.2626 -0.1461
11491TIP3    H155964   5.163   1.618  16.840 -1.2622  1.8480 -0.1484
11491TIP3    H255965   5.260   1.586  16.728 -0.9793 -0.8325  0.8170
11492TIP3   OH255966   3.654   4.032   3.850 -0.1152  0.0252  0.0810
11492TIP3    H155967   3.633   4.000   3.937 -0.9178 -2.6681 -0.9914
11492TIP3    H255968   3.575   4.077   3.820 -0.5172 -0.6662  0.0833
11493TIP3   OH255969   6.544   4.012   5.846  0.1781  0.3447 -0.2177
11493TIP3    H155970   6.493   4.030   5.767 -1.4534 -0.5847  0.5660
11493TIP3    H255971   6.524   4.086   5.904 -0.3418 -0.0495  0.1117
11494TIP3   OH255972   3.110   0.982   1.522 -0.2324  0.0003 -0.0801
11494TIP3    H155973   3.192   0.945   1.491 -0.3963 -0.6316  0.2269
11494TIP3    H255974   3.136   1.059   1.572  0.0830  0.5715 -1.0979
11495TIP3   OH255975   4.496   4.381  11.395 -0.7156  0.1093 -0.2333
11495TIP3    H155976   4.472   4.350  11.308  2.9537 -0.4788 -1.1851
11495TIP3    H255977   4.537   4.467  11.380 -1.1866  0.6026  1.1044
11496TIP3   OH255978   3.910   3.962   3.947 -0.2448 -0.3013 -0.4609
11496TIP3    H155979   3.829   4.013   3.940 -0.2577 -0.4284 -1.3791
11496TIP3    H255980   3.932   3.939   3.857  1.0875  0.1411 -0.2682
11497TIP3   OH255981   5.054   6.409   3.406  0.1906  0.1034 -0.7056
11497TIP3    H155982   4.977   6.396   3.461  0.2584  3.1529  0.2945
11497TIP3    H255983   5.022   6.457   3.329  0.6438 -1.2347 -1.7726
11498TIP3   OH255984   3.167   1.015   1.193 -0.5070  0.7116 -0.3189
11498TIP3    H155985   3.196   1.028   1.283  0.1707 -1.3676 -0.1841
11498TIP3    H255986   3.074   0.994   1.201 -0.0250 -1.4646  0.1492
11499TIP3   OH255987   3.291   5.608  12.934  0.4309  0.2621 -0.0665
11499TIP3    H155988   3.331   5.539  12.986  0.4045  0.8441  0.7487
11499TIP3    H255989   3.198   5.605  12.957  0.1495 -0.4272 -1.1957
11500TIP3   OH255990   1.724   2.044   0.775 -0.2746  0.0223  0.7301
11500TIP3    H155991   1.710   2.060   0.868  2.8762 -0.7452  1.4695
11500TIP3    H255992   1.798   2.100   0.752  0.2054 -1.1751 -0.8282
11501TIP3   OH255993   5.385   5.864   0.613 -0.0976  0.3048  0.1168
11501TIP3    H155994   5.398   5.955   0.587 -1.3009  1.1584  2.3201
11501TIP3    H255995   5.307   5.865   0.668 -0.2206 -2.1011  0.0971
11502TIP3   OH255996   0.064   1.923  10.387 -0.3287 -0.4613 -0.3513
11502TIP3    H155997   0.077   2.017  10.401 -0.2912 -0.4033 -0.7742
11502TIP3    H255998   0.083   1.884  10.473  0.1547 -0.1317 -0.3000
11503TIP3   OH255999   0.587   3.839  16.788 -0.3605  0.1226 -0.0864
11503TIP3    H156000   0.525   3.890  16.842  0.8876  0.5524  1.0034
11503TIP3    H256001   0.673   3.867  16.819  0.5431  1.9787 -3.7301
11504TIP3   OH256002   4.449   2.957  10.231  0.0343  0.4073 -0.3764
11504TIP3    H156003   4.429   2.874  10.188  0.3355 -0.4245  1.0391
11504TIP3    H256004   4.365   2.986  10.268  0.4684 -0.8264  1.7160
11505TIP3   OH256005   1.517   5.732  13.646 -0.2294 -0.4875 -0.0248
11505TIP3    H156006   1.572   5.808  13.662 -0.1570 -0.3137 -1.0586
11505TIP3    H256007   1.549   5.666  13.708  0.5907 -0.1222 -0.0548
11506TIP3   OH256008   1.165   5.892   1.295  0.1943  0.3031  0.1218
11506TIP3    H156009   1.076   5.893   1.330 -0.2680  0.7277 -1.0241
11506TIP3    H256010   1.197   5.804   1.314  0.4012  0.8311  2.5866
11507TIP3   OH256011   6.583   2.905   3.578 -0.1708 -0.0961  0.0511
11507TIP3    H156012   6.614   2.818   3.603  2.2980  0.1404 -1.8104
11507TIP3    H256013   6.660   2.962   3.590 -1.3333  1.5886 -0.0679
11508TIP3   OH256014   6.771   5.446   1.601 -0.5516 -0.2940 -0.5837
11508TIP3    H156015   6.764   5.406   1.688 -1.2440 -1.3344 -1.1098
11508TIP3    H256016   6.751   5.376   1.540  0.4621  0.2934 -1.6253
11509TIP3   OH256017   4.087   4.750  12.880  0.0928 -0.0293  0.0519
11509TIP3    H156018   4.019   4.817  12.866 -0.6095 -0.5467  0.8490
11509TIP3    H256019   4.130   4.778  12.961 -0.6274 -0.8632  0.7394
11510TIP3   OH256020   3.457   5.134   2.962  0.2872  0.3861  0.5588
11510TIP3    H156021   3.512   5.136   2.884  0.7978  1.2781  0.9349
11510TIP3    H256022   3.497   5.197   3.022 -0.9117  0.7536  0.9977
11511TIP3   OH256023   6.182   0.787   4.602 -0.3127  0.0072  0.9354
11511TIP3    H156024   6.243   0.779   4.528 -2.1602  1.1747 -0.8201
11511TIP3    H256025   6.238   0.786   4.679  1.9659  1.2495 -0.5890
11512TIP3   OH256026   2.944   4.407  16.243  0.1582 -0.3433 -0.0804
11512TIP3    H156027   2.859   4.382  16.207 -0.4487 -0.6481  1.5162
11512TIP3    H256028   2.925   4.476  16.305  0.8219 -1.5971  1.5952
11513TIP3   OH256029   3.189   6.778   0.232 -0.0184  0.0793 -0.1973
11513TIP3    H156030   3.248   6.772   0.156  1.5158 -0.1106  0.9582
11513TIP3    H256031   3.109   6.735   0.204  0.9613 -1.0997 -1.3015
11514TIP3   OH256032   1.024   0.741   4.364  0.3635  0.0454 -0.2096
11514TIP3    H156033   1.058   0.806   4.303  1.9215 -0.3830  0.1739
11514TIP3    H256034   1.036   0.657   4.319  0.7203 -0.1948  0.3267
11515TIP3   OH256035   1.196   0.439   3.345 -0.2636 -0.2513 -0.0715
11515TIP3    H156036   1.194   0.430   3.441 -0.0004  1.2562  0.0859
11515TIP3    H256037   1.110   0.406   3.317 -0.7455  0.2525  0.7684
11516TIP3   OH256038   0.149   1.288  13.144 -0.5074 -0.3434  0.0755
11516TIP3    H156039   0.112   1.219  13.199  0.9703 -1.1370  0.1218
11516TIP3    H256040   0.202   1.340  13.204 -0.7062  0.1644 -0.1842
11517TIP3   OH256041   6.697   3.151  12.594  0.3028  0.6346 -0.7046
11517TIP3    H156042   6.620   3.204  12.617 -1.9214 -2.0388 -1.3671
11517TIP3    H256043   6.699   3.083  12.662  0.6993 -0.6106 -1.9269
11518TIP3   OH256044   0.218   6.417  11.693 -0.7277 -0.0531  0.2425
11518TIP3    H156045   0.291   6.356  11.686  0.6178  1.6059 -0.7532
11518TIP3    H256046   0.252   6.491  11.743 -2.1202  0.2031  0.8620
11519TIP3   OH256047   4.856   1.058  15.015 -0.7576 -0.8578 -0.3181
11519TIP3    H156048   4.777   1.086  15.063 -0.2113  0.6400 -0.2282
11519TIP3    H256049   4.920   1.040  15.084 -0.2577  0.4028 -0.4264
11520TIP3   OH256050   0.638   3.573   5.710  0.0824 -0.1061  0.5065
11520TIP3    H156051   0.591   3.495   5.740  0.2054 -0.7282 -0.8709
11520TIP3    H256052   0.712   3.538   5.661  0.0050  0.8788 -0.3272
11521TIP3   OH256053   5.527   0.897  15.011  0.1568  0.2833 -0.0981
11521TIP3    H156054   5.546   0.917  15.103  1.9780  1.0714 -0.5790
11521TIP3    H256055   5.610   0.916  14.966 -0.0093 -2.1283 -1.6126
11522TIP3   OH256056   6.264   6.159  12.622 -0.0226  0.7086 -0.3484
11522TIP3    H156057   6.344   6.118  12.590  0.2557  1.0579 -0.1105
11522TIP3    H256058   6.207   6.085  12.645 -0.2652  0.4558 -1.7033
11523TIP3   OH256059   1.615   1.009   6.645 -0.2090  0.7322  0.3578
11523TIP3    H156060   1.695   0.957   6.641 -0.1744  0.7732  0.5120
11523TIP3    H256061   1.622   1.071   6.573 -0.4654  0.2136 -0.1204
11524TIP3   OH256062   4.565   4.723   0.955  0.3371 -0.0091  0.0745
11524TIP3    H156063   4.567   4.773   0.873  1.1386 -1.4901 -0.8554
11524TIP3    H256064   4.540   4.787   1.021 -1.4600  1.0045 -1.4802
11525TIP3   OH256065   6.307   3.129  15.257  0.1926  0.0291 -1.0502
11525TIP3    H156066   6.336   3.049  15.300  1.8449 -0.6719 -3.3146
11525TIP3    H256067   6.323   3.198  15.322  1.7917 -1.0637 -0.2091
11526TIP3   OH256068   3.265   2.002   0.569  0.3588  0.1295  0.3056
11526TIP3    H156069   3.191   2.060   0.553  1.5925  1.3769 -1.2036
11526TIP3    H256070   3.295   1.975   0.482  1.7418 -0.2175  0.8511
11527TIP3   OH256071   6.153   6.483   3.194 -0.1313  0.0977 -0.3200
11527TIP3    H156072   6.236   6.494   3.239 -0.7437 -0.3247  0.9726
11527TIP3    H256073   6.092   6.538   3.244 -0.6043  0.5055 -1.3245
11528TIP3   OH256074   4.684   3.107   2.603 -0.8482 -0.2607 -0.0207
11528TIP3    H156075   4.779   3.118   2.595 -0.9893  0.5843 -0.6859
11528TIP3    H256076   4.651   3.123   2.515 -1.7959  1.6003  0.6203
11529TIP3   OH256077   4.354   5.524   0.014  0.0384 -0.0591  0.3382
11529TIP3    H156078   4.396   5.474  -0.056 -1.4664  0.3465 -0.9183
11529TIP3    H256079   4.330   5.459   0.080  0.6854 -0.5748  0.0668
11530TIP3   OH256080   6.485   6.270   3.450  0.2096  0.3645 -0.3466
11530TIP3    H156081   6.534   6.208   3.504  1.1645  3.3924  2.6036
11530TIP3    H256082   6.394   6.257   3.475  0.5218  0.8520  1.1533
11531TIP3   OH256083   6.363   3.950   4.314  0.2570  0.5748  0.2061
11531TIP3    H156084   6.422   3.875   4.303  0.5945  0.7962  0.4850
11531TIP3    H256085   6.394   3.992   4.394 -0.4806  0.5074  0.5348
11532TIP3   OH256086   3.635   2.372  11.281  0.7491 -0.0057  0.0128
11532TIP3    H156087   3.547   2.410  11.283  0.3290 -0.9622  0.8135
11532TIP3    H256088   3.675   2.406  11.201 -0.3716  0.4060 -0.3819
11533TIP3   OH256089   5.186   1.819   6.137 -0.1906  0.2084 -0.1887
11533TIP3    H156090   5.252   1.797   6.072  0.7036  0.0348  0.7503
11533TIP3    H256091   5.224   1.791   6.220 -0.9564  1.1724  0.5106
11534TIP3   OH256092   1.895   6.719  15.975 -0.0937 -0.0297  0.2035
11534TIP3    H156093   1.899   6.792  16.037 -1.2279 -0.2383  0.5451
11534TIP3    H256094   1.965   6.660  16.003  0.7220  0.8356  0.0262
11535TIP3   OH256095   5.843   4.722   3.708  0.1048 -0.3901  0.0530
11535TIP3    H156096   5.923   4.680   3.676 -0.8760 -2.4072  0.0477
11535TIP3    H256097   5.820   4.673   3.787 -0.1198  1.4039  1.1640
11536TIP3   OH256098   5.665   1.087   5.754  0.0722  0.2108 -0.7206
11536TIP3    H156099   5.704   1.175   5.749 -1.4170  0.8613 -1.7536
11536TIP3    H256100   5.630   1.072   5.666  0.2575 -1.4223 -0.5412
11537TIP3   OH256101   5.454   2.345  16.845 -0.9043 -0.3267 -0.4961
11537TIP3    H156102   5.387   2.411  16.829 -0.1953  0.1697 -1.5382
11537TIP3    H256103   5.486   2.364  16.933 -0.5567  0.8814 -0.8607
11538TIP3   OH256104   1.778   3.367   0.424 -0.0538  0.3264  0.2169
11538TIP3    H156105   1.771   3.412   0.507 -1.1003 -0.9275  0.8468
11538TIP3    H256106   1.728   3.420   0.363 -1.8391 -0.2642  1.0943
11539TIP3   OH256107   5.265   3.873  12.987  0.4790  0.5434  0.0745
11539TIP3    H156108   5.171   3.864  12.976  0.4415  1.9868 -1.1223
11539TIP3    H256109   5.276   3.924  13.067  0.1912  1.2511 -0.3317
11540TIP3   OH256110   1.581   6.787  13.285  0.1942  0.1931  0.0238
11540TIP3    H156111   1.674   6.787  13.308  0.8212  1.6360 -2.2082
11540TIP3    H256112   1.561   6.878  13.265 -1.7066 -0.1128  0.3978
11541TIP3   OH256113   6.310   4.387  16.114  0.5385 -0.1388  0.0197
11541TIP3    H156114   6.222   4.360  16.089  1.1539 -0.3675 -2.1357
11541TIP3    H256115   6.357   4.305  16.129  0.5149 -0.0351  0.6577
11542TIP3   OH256116   0.261   0.006  14.186 -0.3955 -0.0055  0.0065
11542TIP3    H156117   0.200  -0.065  14.208  0.9261 -0.9063  0.9579
11542TIP3    H256118   0.290   0.039  14.270  2.3862 -1.3914 -0.2941
11543TIP3   OH256119   5.527   0.722  14.098  0.5231 -0.3127 -0.1256
11543TIP3    H156120   5.618   0.716  14.127  0.2869  0.3710  0.8128
11543TIP3    H256121   5.532   0.763  14.011  1.0751  0.2989  0.1911
11544TIP3   OH256122   3.475   5.419  11.382 -0.1324  0.2271  0.0624
11544TIP3    H156123   3.380   5.424  11.381 -0.2415 -1.5069 -0.2907
11544TIP3    H256124   3.501   5.437  11.291 -0.1581  0.1023  0.0307
11545TIP3   OH256125   6.174   2.175  13.065 -0.2012  0.6965  0.4457
11545TIP3    H156126   6.079   2.174  13.056 -0.2539 -1.2025  0.7555
11545TIP3    H256127   6.207   2.131  12.987  0.4933  1.7995  0.0774
11546TIP3   OH256128   1.334   1.537  12.144 -0.0366 -0.0877  0.6650
11546TIP3    H156129   1.282   1.490  12.209 -0.9063  0.4624  0.3822
11546TIP3    H256130   1.424   1.507  12.159 -0.4071 -0.9304  1.2643
11547TIP3   OH256131   3.705   5.582   1.099 -0.3934 -0.2590  0.3429
11547TIP3    H156132   3.767   5.532   1.047  0.8191  0.3468  1.1753
11547TIP3    H256133   3.685   5.659   1.046 -1.3195 -0.9970 -0.4071
11548TIP3   OH256134   5.666   0.414  15.923 -0.0252  0.6194 -0.7601
11548TIP3    H156135   5.755   0.448  15.928  0.0131  0.3231  1.0306
11548TIP3    H256136   5.664   0.341  15.984 -1.2306 -0.0290 -1.5316
11549TIP3   OH256137   3.269   0.716  15.791  0.0898 -0.9736  0.6767
11549TIP3    H156138   3.228   0.772  15.857 -1.8468 -2.3779  0.7415
11549TIP3    H256139   3.306   0.643  15.841  0.8001 -0.8086  0.4057
11550TIP3   OH256140   0.335   5.660  15.942  0.1705  0.3766  0.0631
11550TIP3    H156141   0.355   5.641  15.850 -0.4962 -1.0645  0.1907
11550TIP3    H256142   0.411   5.628  15.990 -1.0922 -2.5983  0.3109
11551TIP3   OH256143   4.835   6.806   4.017 -0.2305  0.1446 -0.2949
11551TIP3    H156144   4.887   6.868   4.067  0.2407 -0.2148 -0.3331
11551TIP3    H256145   4.810   6.739   4.081  0.4523 -0.3659 -0.5511
11552TIP3   OH256146   3.198   2.868  13.811 -0.3332  0.2189 -0.1517
11552TIP3    H156147   3.186   2.963  13.807  0.5023  0.3849  0.9451
11552TIP3    H256148   3.263   2.849  13.743 -0.0151  0.5193  0.0672
11553TIP3   OH256149   4.491   5.788   0.059 -0.1413  0.3216  0.2340
11553TIP3    H156150   4.451   5.868   0.025 -1.4744 -0.1581  0.6292
11553TIP3    H256151   4.428   5.719   0.038  0.7111 -0.5387  0.4343
11554TIP3   OH256152   5.534   1.112   5.515 -0.1530  0.2481 -0.0737
11554TIP3    H156153   5.495   1.199   5.517  0.2950  0.4583 -0.3628
11554TIP3    H256154   5.592   1.113   5.439  1.5882  0.4503  1.2069
11555TIP3   OH256155   2.129   3.204  14.895 -0.1220 -0.3587  0.2020
11555TIP3    H156156   2.185   3.266  14.942 -2.4439  1.7378  0.4058
11555TIP3    H256157   2.159   3.209  14.804  2.1896 -1.8962  0.7988
11556TIP3   OH256158   4.159   0.986   4.644  0.1732  0.1671 -0.2494
11556TIP3    H156159   4.145   1.069   4.599 -0.7464 -0.4340 -1.1165
11556TIP3    H256160   4.111   0.922   4.592  0.0202 -0.7512  0.9655
11557TIP3   OH256161   2.007   3.322  11.551  0.3226 -0.2768 -0.2135
11557TIP3    H156162   1.973   3.369  11.475 -1.3779 -0.9241  0.1151
11557TIP3    H256163   1.990   3.379  11.625 -2.3108 -1.5615  0.2732
11558TIP3   OH256164   4.509   5.258  12.626  0.2416 -0.1043  0.1761
11558TIP3    H156165   4.482   5.206  12.550 -0.8830 -0.1159  0.5689
11558TIP3    H256166   4.443   5.327  12.632  3.0892  3.1060 -1.9292
11559TIP3   OH256167   2.702   1.073   3.735 -0.3161 -0.0998 -1.1832
11559TIP3    H156168   2.797   1.081   3.732 -0.3004 -0.5635 -2.0135
11559TIP3    H256169   2.670   1.145   3.680 -0.4515  0.1340 -0.8020
11560TIP3   OH256170   5.764   4.225  11.343 -0.2232  0.2192  0.3754
11560TIP3    H156171   5.730   4.157  11.402 -1.1366  0.7366  0.4766
11560TIP3    H256172   5.691   4.242  11.283  0.8011 -0.5168 -1.1192
11561TIP3   OH256173   5.124   3.071  14.867 -0.4251  0.0171  0.0077
11561TIP3    H156174   5.147   2.979  14.855 -3.2429 -0.8247  0.5836
11561TIP3    H256175   5.082   3.096  14.784  0.7434  0.9875 -0.3336
11562TIP3   OH256176   2.630   3.265   4.558 -0.1185  0.0311 -0.0456
11562TIP3    H156177   2.619   3.350   4.600  1.1857 -0.3597  1.1679
11562TIP3    H256178   2.706   3.275   4.501 -0.6402 -0.0169 -0.7575
11563TIP3   OH256179   5.248   2.917   2.149  0.3482 -0.4274 -0.2012
11563TIP3    H156180   5.293   2.959   2.223  1.8810 -1.9235 -0.1953
11563TIP3    H256181   5.173   2.873   2.189  0.8780 -0.8031  0.4188
11564TIP3   OH256182   0.015   3.263   0.273 -0.2423  0.0659 -0.1175
11564TIP3    H156183  -0.064   3.268   0.326  1.0562  0.9119  1.8540
11564TIP3    H256184   0.034   3.354   0.249  0.4212 -0.0508 -0.0664
11565TIP3   OH256185   6.555   1.975  11.299  0.0252  0.5606  0.2954
11565TIP3    H156186   6.636   1.939  11.335 -0.4398 -0.5069  0.3302
11565TIP3    H256187   6.485   1.926  11.343 -0.6227  1.1261 -0.0831
11566TIP3   OH256188   5.893   5.395  12.323 -0.3363 -0.6755 -0.0183
11566TIP3    H156189   5.936   5.337  12.386 -1.4440 -1.4388  0.0559
11566TIP3    H256190   5.963   5.420  12.262  0.2963 -1.5502  0.3261
11567TIP3   OH256191   4.317   2.728   1.474 -0.2361 -0.3773 -0.4803
11567TIP3    H156192   4.294   2.695   1.387 -0.8123 -0.5531 -0.2658
11567TIP3    H256193   4.383   2.795   1.458 -0.4416 -0.3118 -1.0663
11568TIP3   OH256194   5.380   0.303   5.368 -0.4128 -0.2449 -0.0847
11568TIP3    H156195   5.364   0.301   5.274 -1.7429  0.5648  0.0927
11568TIP3    H256196   5.301   0.267   5.407 -0.9325  1.6960  0.7841
11569TIP3   OH256197   1.582   1.823  17.149 -0.0819 -0.4174 -0.2670
11569TIP3    H156198   1.546   1.891  17.092 -1.3559 -0.8928 -0.0739
11569TIP3    H256199   1.672   1.851  17.167 -0.7918  1.6269  0.4292
11570TIP3   OH256200   6.238   6.547  12.561  0.5619  0.2207  0.2483
11570TIP3    H156201   6.306   6.586  12.615  1.9334 -1.0149 -0.5231
11570TIP3    H256202   6.285   6.505  12.489 -1.0609 -0.1089 -0.6728
11571TIP3   OH256203   2.651   3.608  14.805 -0.2574 -0.0166  0.4755
11571TIP3    H156204   2.693   3.596  14.890 -0.3083  2.3566  0.9099
11571TIP3    H256205   2.701   3.678  14.763 -0.5507 -0.7929 -1.2462
11572TIP3   OH256206   2.642   0.216  13.137 -0.1029  0.0707  0.5181
11572TIP3    H156207   2.709   0.266  13.183 -0.2030  0.7184 -0.0316
11572TIP3    H256208   2.559   0.249  13.173 -0.1644  0.1714  0.2816
11573TIP3   OH256209   2.584   3.463  12.521 -0.3719 -0.3447 -0.7268
11573TIP3    H156210   2.666   3.454  12.472  0.1387 -0.2561  0.0923
11573TIP3    H256211   2.586   3.553  12.554 -0.6042 -0.4763 -0.3520
11574TIP3   OH256212   0.791   4.854   1.343  0.0031 -0.2701  0.1551
11574TIP3    H156213   0.760   4.776   1.296  1.5273 -0.1892 -1.0703
11574TIP3    H256214   0.882   4.834   1.364  0.3706  1.1088 -0.0477
11575TIP3   OH256215   3.810   3.030   3.568  0.4220 -0.1572 -0.3263
11575TIP3    H156216   3.766   3.093   3.625 -0.8475 -1.7692  0.5779
11575TIP3    H256217   3.900   3.027   3.601  0.3005  0.5952  0.1142
11576TIP3   OH256218   6.640   5.163   0.522  0.1827 -0.2131 -0.3272
11576TIP3    H156219   6.715   5.156   0.464  0.7633 -1.3870  0.5169
11576TIP3    H256220   6.569   5.120   0.475  0.6942 -1.3204 -0.1147
11577TIP3   OH256221   0.296   0.148   2.080 -0.3905 -0.2142  0.3130
11577TIP3    H156222   0.332   0.229   2.042 -0.2145  0.4495  1.8034
11577TIP3    H256223   0.284   0.090   2.006  3.1753 -0.2520 -0.4231
11578TIP3   OH256224   1.113   1.478  11.172 -0.0704  0.2736  0.2101
11578TIP3    H156225   1.198   1.517  11.154  0.7260 -1.3206  0.3511
11578TIP3    H256226   1.061   1.549  11.209  1.0541  1.3799 -0.2861
11579TIP3   OH256227   2.865   4.267  13.589  0.2489 -0.0502 -0.0174
11579TIP3    H156228   2.835   4.179  13.569  1.0787 -0.8706  2.0311
11579TIP3    H256229   2.898   4.261  13.679 -1.1105  2.7173  0.7852
11580TIP3   OH256230   6.207   4.613   3.955  0.2919  0.2891  0.3445
11580TIP3    H156231   6.274   4.552   3.985 -0.0856 -0.2771  0.0383
11580TIP3    H256232   6.231   4.696   3.996  1.3101  0.1515  0.0507
11581TIP3   OH256233   3.178   1.340  11.183  0.1838  0.2302 -0.0509
11581TIP3    H156234   3.099   1.364  11.134 -0.8707  1.1728  1.9874
11581TIP3    H256235   3.188   1.410  11.247  2.4274 -0.1406  0.0611
11582TIP3   OH256236   0.379   2.261   2.498 -0.5819 -0.3407  0.4032
11582TIP3    H156237   0.359   2.168   2.504 -0.9667 -0.2472  0.5884
11582TIP3    H256238   0.316   2.296   2.436  0.2294 -0.3911 -0.4684
11583TIP3   OH256239   4.703   0.370  10.821  0.0415 -0.1312 -0.2267
11583TIP3    H156240   4.652   0.429  10.877 -0.1361  0.2127 -0.7399
11583TIP3    H256241   4.655   0.370  10.738 -0.3001 -1.4829 -0.0475
11584TIP3   OH256242   1.719   3.067  13.129 -0.0129 -0.2747  0.0021
11584TIP3    H156243   1.625   3.056  13.144  0.3702 -0.5606  2.7602
11584TIP3    H256244   1.741   3.000  13.064 -1.4333 -1.3468  0.5787
11585TIP3   OH256245   2.234   2.396  13.365  0.0264  0.3763 -0.2522
11585TIP3    H156246   2.276   2.419  13.447  1.5986  1.2678 -1.2516
11585TIP3    H256247   2.306   2.392  13.302 -1.1887  0.1899 -1.6813
11586TIP3   OH256248   3.187   5.845  11.954 -0.2006  0.1103  0.2421
11586TIP3    H156249   3.136   5.904  11.900 -0.8091 -0.1652  0.5115
11586TIP3    H256250   3.221   5.780  11.893  1.0693  1.1198 -0.1745
11587TIP3   OH256251   0.239   4.848  16.611  0.1853 -0.4199  0.4241
11587TIP3    H156252   0.195   4.792  16.547 -1.5572  0.6463  0.6092
11587TIP3    H256253   0.192   4.830  16.693  1.8437 -1.1595  1.2653
11588TIP3   OH256254   5.954   5.154   3.130 -0.0290  0.8850 -0.4309
11588TIP3    H156255   5.965   5.158   3.225 -1.7130  0.1681 -0.1680
11588TIP3    H256256   6.029   5.202   3.095  1.6640 -0.4390  1.1828
11589TIP3   OH256257   2.992   4.866  12.673  0.1724 -0.6195 -0.1467
11589TIP3    H156258   3.052   4.846  12.602  1.7087  3.0886 -0.1070
11589TIP3    H256259   3.048   4.873  12.751 -0.4103  1.7045  0.1251
11590TIP3   OH256260   6.827   2.783  13.236 -0.2575  0.3919 -0.5381
11590TIP3    H156261   6.871   2.704  13.266 -3.1359 -0.9639  0.5634
11590TIP3    H256262   6.771   2.809  13.310  0.3460  3.3245 -0.9805
11591TIP3   OH256263   6.086   4.463  11.944 -0.0718  0.3433  0.9093
11591TIP3    H156264   6.086   4.368  11.951 -1.0746  0.3286  0.7634
11591TIP3    H256265   6.080   4.495  12.034 -0.3378  0.2619  0.9209
11592TIP3   OH256266   1.961   2.227   4.703  0.4526 -0.4719  0.3586
11592TIP3    H156267   1.998   2.173   4.633  1.0990  0.4593 -0.0353
11592TIP3    H256268   2.034   2.243   4.763  0.5643  0.9177 -0.1298
11593TIP3   OH256269   4.317   2.094  15.973  0.3180 -0.1030 -0.7158
11593TIP3    H156270   4.309   2.015  15.920  0.7929 -1.4208  1.0871
11593TIP3    H256271   4.411   2.109  15.981  0.2379  0.5366 -0.8606
11594TIP3   OH256272   4.662   5.597   5.580 -0.4113  0.2893 -0.1518
11594TIP3    H156273   4.673   5.531   5.649 -0.1698  0.4788 -0.0044
11594TIP3    H256274   4.749   5.606   5.542 -0.1317  1.4344  0.6787
11595TIP3   OH256275   1.756   0.208   0.467  0.2026  0.2810  0.1510
11595TIP3    H156276   1.850   0.194   0.452 -0.1070 -2.2564  0.2224
11595TIP3    H256277   1.719   0.217   0.379  0.3804  0.4563  0.0916
11596TIP3   OH256278   2.240   6.111  12.557  0.4072  0.1535 -0.0867
11596TIP3    H156279   2.191   6.031  12.535 -0.4937  0.8863 -0.8446
11596TIP3    H256280   2.318   6.107  12.502  0.5355 -0.3609  0.1262
11597TIP3   OH256281   5.562   0.574  15.713  0.3551  0.0815 -0.2405
11597TIP3    H156282   5.625   0.633  15.671  0.6478  0.6309  0.9271
11597TIP3    H256283   5.610   0.536  15.786 -0.1193 -0.9190 -0.4365
11598TIP3   OH256284   5.073   5.627   1.146  0.3522 -0.9667 -0.4192
11598TIP3    H156285   5.151   5.658   1.192 -0.4294 -2.3010  1.9780
11598TIP3    H256286   5.061   5.689   1.074  1.1223  1.8542  1.7261
11599TIP3   OH256287   5.183   6.583  16.145 -0.1560 -0.3067  0.3262
11599TIP3    H156288   5.184   6.488  16.149  1.6173 -0.3699 -0.6208
11599TIP3    H256289   5.183   6.603  16.052  3.9421  0.4916  0.3091
11600TIP3   OH256290   4.099   1.077  13.498  0.3956  0.2967  0.3089
11600TIP3    H156291   4.175   1.086  13.555  0.5106  1.1507  0.0339
11600TIP3    H256292   4.075   0.985  13.504  2.3605 -0.3519 -0.7471
11601TIP3   OH256293   5.492   4.861  13.461 -0.2462 -0.1154  0.1235
11601TIP3    H156294   5.458   4.794  13.519 -2.5739  0.8876  0.0360
11601TIP3    H256295   5.510   4.815  13.379  1.1050 -1.1402  0.9428
11602TIP3   OH256296   0.003   0.742   5.007 -0.0146  0.1548 -1.0278
11602TIP3    H156297  -0.002   0.814   5.070 -0.7416  0.0701 -0.9904
11602TIP3    H256298  -0.051   0.673   5.043 -0.1412 -0.0349 -1.5645
11603TIP3   OH256299   3.134   4.716  15.055 -0.7179 -0.3143  0.3436
11603TIP3    H156300   3.141   4.783  14.988  0.4241 -0.7736 -0.0249
11603TIP3    H256301   3.063   4.745  15.112 -0.3062  1.1417  0.1359
11604TIP3   OH256302   5.327   4.053   5.083  0.1054  0.3691  0.8221
11604TIP3    H156303   5.373   4.021   5.160  0.7571  1.0070  0.7094
11604TIP3    H256304   5.360   3.999   5.011 -1.8725 -1.5019  1.2243
11605TIP3   OH256305   6.573   3.410   1.372 -0.3308 -0.5169  0.0927
11605TIP3    H156306   6.658   3.379   1.404 -0.4567 -2.4809 -1.2950
11605TIP3    H256307   6.594   3.484   1.315  0.3290 -0.2263  0.6915
11606TIP3   OH256308   1.572   3.130  10.604  0.0586 -0.4461 -0.1887
11606TIP3    H156309   1.588   3.043  10.641 -0.8466 -0.7603 -0.5177
11606TIP3    H256310   1.524   3.176  10.672 -2.2256 -1.2525 -1.1619
11607TIP3   OH256311   3.457   6.296   5.996  0.3373 -0.4095 -0.5148
11607TIP3    H156312   3.456   6.267   5.905  1.8107  0.4506 -0.8326
11607TIP3    H256313   3.536   6.350   6.004 -0.8574  1.2533  0.7544
11608TIP3   OH256314   2.482   3.082  13.007 -0.3175 -0.2690 -0.0261
11608TIP3    H156315   2.491   3.176  13.025  1.6802 -0.1954 -1.0676
11608TIP3    H256316   2.479   3.041  13.094 -1.7033  0.7635  0.4417
11609TIP3   OH256317   0.087   6.617  17.152 -0.1821 -0.1713 -0.4021
11609TIP3    H156318   0.062   6.547  17.092 -0.2080 -0.6784  0.1987
11609TIP3    H256319   0.158   6.662  17.107  1.0645 -1.6881 -0.0216
11610TIP3   OH256320   1.848   4.441   4.650 -0.2348  0.1542  0.0023
11610TIP3    H156321   1.814   4.463   4.736 -0.3725 -0.9674  0.2537
11610TIP3    H256322   1.943   4.437   4.661 -0.2024  0.6557 -0.0637
11611TIP3   OH256323   0.555   2.393   5.138 -0.4647  0.2921 -0.2386
11611TIP3    H156324   0.578   2.333   5.209  0.9898  1.2114  0.1022
11611TIP3    H256325   0.483   2.349   5.092 -0.6679 -0.8423  1.1013
11612TIP3   OH256326   0.467   1.086   5.212  0.1928 -0.6830 -0.4356
11612TIP3    H156327   0.385   1.044   5.241 -0.8158  1.7693  0.5591
11612TIP3    H256328   0.536   1.032   5.249 -0.9977 -1.9865 -0.0189
11613TIP3   OH256329   6.561   3.483   4.311  0.4803 -0.3619  0.3769
11613TIP3    H156330   6.629   3.416   4.313  0.2902 -0.5425  0.9779
11613TIP3    H256331   6.531   3.490   4.401  0.7693  0.8167  0.3936
11614TIP3   OH256332   2.232   3.315   6.112 -0.0785 -0.1705 -0.3017
11614TIP3    H156333   2.289   3.245   6.078 -1.3719 -0.6861 -1.5356
11614TIP3    H256334   2.163   3.269   6.160  0.0978  0.3941  0.5087
11615TIP3   OH256335   5.649   1.234  12.524 -0.3897 -0.3532 -0.1732
11615TIP3    H156336   5.656   1.141  12.500  1.0825  0.6336 -4.4879
11615TIP3    H256337   5.709   1.244  12.598 -0.1092 -2.6715  0.0115
11616TIP3   OH256338   4.459   5.488  14.330 -0.4454 -0.2098  0.0446
11616TIP3    H156339   4.489   5.400  14.353  3.0412  0.8255  0.0143
11616TIP3    H256340   4.429   5.479  14.239  0.8519 -1.2138 -0.3274
11617TIP3   OH256341   4.960   6.499   2.250  0.9855 -0.3382  0.3427
11617TIP3    H156342   5.000   6.582   2.271 -1.5127  0.7445  1.2215
11617TIP3    H256343   4.944   6.457   2.334  1.2118 -1.2054 -0.0303
11618TIP3   OH256344   6.259   3.741  13.483 -0.2372 -0.1348  0.1012
11618TIP3    H156345   6.287   3.819  13.530 -1.1555 -0.4409  1.1887
11618TIP3    H256346   6.298   3.668  13.532  1.2666 -0.3686 -1.3488
11619TIP3   OH256347   4.578   4.838  14.848  0.0414 -0.5622  1.0684
11619TIP3    H156348   4.484   4.833  14.861 -0.1510  0.3780  0.1377
11619TIP3    H256349   4.593   4.798  14.763  0.5647 -1.2650  1.4832
11620TIP3   OH256350   2.461   0.693   5.653 -0.4855  0.1491 -0.1734
11620TIP3    H156351   2.533   0.643   5.691  0.0709 -0.5894 -2.0645
11620TIP3    H256352   2.480   0.784   5.675  1.9415  0.1719 -1.8953
11621TIP3   OH256353   3.379   4.856   2.732  0.4869  0.1240 -0.2214
11621TIP3    H156354   3.449   4.836   2.670 -0.3152  0.5084 -1.2918
11621TIP3    H256355   3.333   4.773   2.743 -0.8990  0.5589 -2.1659
11622TIP3   OH256356   5.286   2.193   3.679  0.3491 -0.2270 -0.1100
11622TIP3    H156357   5.206   2.200   3.627  0.4260  0.8021 -0.1104
11622TIP3    H256358   5.341   2.265   3.648  1.3561 -1.0390 -0.2405
11623TIP3   OH256359   4.087   5.343   3.270  0.3614  0.1155 -0.5248
11623TIP3    H156360   4.090   5.255   3.310  0.2581  0.5091  0.3869
11623TIP3    H256361   3.993   5.361   3.260  0.3582  0.4012 -0.0410
11624TIP3   OH256362   3.418   6.834  11.832  0.1462  0.7516 -0.3176
11624TIP3    H156363   3.504   6.871  11.852 -0.5314  3.0128 -1.3283
11624TIP3    H256364   3.381   6.812  11.918  2.3535 -1.9934  0.0922
11625TIP3   OH256365   3.930   6.702  13.571  0.5291 -0.7322  0.2586
11625TIP3    H156366   3.936   6.771  13.505  1.9089 -1.6984 -0.7002
11625TIP3    H256367   3.844   6.662  13.557 -0.5815  1.1929  1.2991
11626TIP3   OH256368   5.731   6.073   1.085  0.3099  0.1354 -0.3959
11626TIP3    H156369   5.715   6.104   0.996  0.7182  0.1756 -0.4559
11626TIP3    H256370   5.775   5.988   1.074  0.2243  0.0690 -0.2326
11627TIP3   OH256371   4.789   0.650  14.354  0.0492  0.0400  0.0311
11627TIP3    H156372   4.875   0.623  14.385  0.9587 -0.5428 -2.7599
11627TIP3    H256373   4.761   0.580  14.296 -2.3595  0.2285  0.8277
11628TIP3   OH256374   5.832   1.981  17.133  0.2450 -0.3612 -0.4451
11628TIP3    H156375   5.850   2.074  17.147  0.4143 -0.6344  1.5031
11628TIP3    H256376   5.774   1.979  17.057 -1.0905  1.5054  0.4243
11629TIP3   OH256377   1.136   5.330  15.421 -0.0555 -0.4272 -0.0427
11629TIP3    H156378   1.063   5.365  15.473 -0.5595  0.7804 -1.4576
11629TIP3    H256379   1.094   5.300  15.340  0.6946 -2.3002  0.2220
11630TIP3   OH256380   4.877   5.182  16.540 -0.5183 -0.6282  0.7452
11630TIP3    H156381   4.816   5.239  16.586 -1.8444 -1.3500 -0.0596
11630TIP3    H256382   4.822   5.111  16.505  0.3120  0.0748 -2.2792
11631TIP3   OH256383   4.098   2.821  16.930  0.0065  0.1714 -0.3865
11631TIP3    H156384   4.097   2.916  16.938  1.9069  0.1612  0.8182
11631TIP3    H256385   4.144   2.791  17.009 -1.9357 -1.8783  0.0757
11632TIP3   OH256386   3.154   0.070  12.658  0.3227 -0.1288  0.2618
11632TIP3    H156387   3.155   0.136  12.727  2.3847 -1.0345  1.1618
11632TIP3    H256388   3.093   0.004  12.690  2.5342 -1.3813  2.1356
11633TIP3   OH256389   4.023   0.388  16.890 -0.0465 -0.5294 -0.5630
11633TIP3    H156390   4.033   0.452  16.961 -0.0401 -1.0097 -0.1308
11633TIP3    H256391   3.938   0.409  16.851 -0.1623 -0.4210 -0.2547
11634TIP3   OH256392   5.318   1.797   1.563 -0.1605  0.2655  0.6908
11634TIP3    H156393   5.223   1.799   1.576 -0.1833  1.8149  0.5236
11634TIP3    H256394   5.330   1.824   1.472  0.4756  1.8799  1.2121
11635TIP3   OH256395   3.220   2.626   2.475  0.2505  0.0421 -0.4990
11635TIP3    H156396   3.206   2.576   2.395  0.8093 -1.3473  0.2265
11635TIP3    H256397   3.270   2.566   2.532 -0.0700  1.0079  0.8487
11636TIP3   OH256398   6.153   2.089   4.951 -0.4723 -0.3501 -0.2965
11636TIP3    H156399   6.104   2.166   4.923 -0.6846  0.3212  1.6930
11636TIP3    H256400   6.087   2.022   4.967 -0.3909 -0.5946 -0.9554
11637TIP3   OH256401   3.347   2.763  13.602 -0.1152 -0.1013  0.2353
11637TIP3    H156402   3.386   2.787  13.518  0.3337 -0.4651  0.3370
11637TIP3    H256403   3.268   2.713  13.578 -1.6448  2.2953  0.0067
11638TIP3   OH256404   5.785   3.559  14.514 -0.3678 -0.1755  0.3266
11638TIP3    H156405   5.732   3.598  14.444 -0.5000  0.4104  0.7440
11638TIP3    H256406   5.722   3.533  14.581 -0.1543  0.3119  0.7252
11639TIP3   OH256407   1.999   0.944   2.206  0.2646  0.1357  0.5070
11639TIP3    H156408   2.006   0.996   2.286  1.2943 -0.7381  1.0131
11639TIP3    H256409   2.063   0.983   2.146 -0.0112  0.3571  0.3540
11640TIP3   OH256410   0.685   6.249   6.311 -0.1893 -0.0087 -0.3196
11640TIP3    H156411   0.727   6.256   6.225 -1.6996 -1.9078 -1.2790
11640TIP3    H256412   0.729   6.175   6.353 -0.8974 -0.4319 -0.3239
11641TIP3   OH256413   6.601   0.512   1.555 -0.4786 -0.5952 -0.0454
11641TIP3    H156414   6.530   0.453   1.581 -0.5221 -0.6149 -0.2068
11641TIP3    H256415   6.576   0.543   1.468  0.0071 -1.0817 -0.3713
11642TIP3   OH256416   3.721   4.178   0.954  0.5075  0.3809 -0.3189
11642TIP3    H156417   3.667   4.112   0.911  1.0167  0.2770 -0.8082
11642TIP3    H256418   3.658   4.235   0.999  0.1034 -2.2013  2.7932
11643TIP3   OH256419   4.850   3.077  15.230 -0.2632 -0.1045  0.5404
11643TIP3    H156420   4.850   3.159  15.180  1.7535  0.7347  1.7892
11643TIP3    H256421   4.830   3.009  15.165 -0.7762  1.2428 -0.7593
11644TIP3   OH256422   5.275   3.335   5.441  0.3388 -0.2996  0.0666
11644TIP3    H156423   5.228   3.348   5.523 -0.1130  1.1509 -0.4019
11644TIP3    H256424   5.208   3.306   5.379 -0.0286  1.9413 -0.6469
11645TIP3   OH256425   0.330   6.085   2.026 -0.2573 -0.2224 -0.1265
11645TIP3    H156426   0.372   6.111   2.107  1.2398 -0.3859 -0.8195
11645TIP3    H256427   0.377   6.007   1.998  0.8292  1.1118 -2.3058
11646TIP3   OH256428   6.764   3.915  15.460 -0.3376 -0.6406  0.7343
11646TIP3    H156429   6.673   3.939  15.441 -0.3913 -0.6391  1.0025
11646TIP3    H256430   6.759   3.854  15.533 -0.1345 -0.7788  0.6326
11647TIP3   OH256431   5.524   3.287   0.853  0.5697  0.0749 -0.4320
11647TIP3    H156432   5.483   3.310   0.937  0.5635 -0.0903 -0.3891
11647TIP3    H256433   5.606   3.245   0.878  0.0298 -1.0471 -0.4711
11648TIP3   OH256434   1.517   6.075   3.262 -0.5544  0.1012 -0.7062
11648TIP3    H156435   1.508   6.033   3.347 -1.4675 -0.0084 -0.8454
11648TIP3    H256436   1.428   6.095   3.235 -0.2110  0.9992 -1.2147
11649TIP3   OH256437   2.222   2.727   3.478  0.5465  0.5861 -0.5296
11649TIP3    H156438   2.167   2.650   3.493 -1.5078  1.5306 -2.5973
11649TIP3    H256439   2.233   2.767   3.565 -1.6701  0.0849  0.0320
11650TIP3   OH256440   6.817   1.920  16.981  0.0388  0.0150 -0.2783
11650TIP3    H156441   6.758   1.903  17.054  0.8288  1.3978  0.7175
11650TIP3    H256442   6.782   2.000  16.940  2.2233  2.0571  1.5414
11651TIP3   OH256443   4.752   5.669  14.217  0.0341  0.2890 -0.1974
11651TIP3    H156444   4.701   5.736  14.262 -0.2517 -0.9766  1.4774
11651TIP3    H256445   4.741   5.688  14.124  1.0485  3.3148  0.2186
11652TIP3   OH256446   3.977   6.268  12.044  0.2404 -0.2094 -0.0865
11652TIP3    H156447   3.935   6.187  12.070  0.1388 -1.0945 -2.6950
11652TIP3    H256448   3.905   6.325  12.016  0.4052  0.2979  0.5056
11653TIP3   OH256449   6.238   0.831  16.275  0.2219 -0.1705  1.0449
11653TIP3    H156450   6.283   0.748  16.261 -1.5729 -1.1056  0.3941
11653TIP3    H256451   6.307   0.897  16.277  1.7189 -1.6869  1.7618
11654TIP3   OH256452   0.106   5.690  13.199  0.4667 -0.7351 -0.0080
11654TIP3    H156453   0.131   5.598  13.200 -0.4075 -0.9796  0.1053
11654TIP3    H256454   0.060   5.701  13.115  0.8326 -0.3258 -0.1610
11655TIP3   OH256455   1.070   0.952  11.406  0.1019 -0.1362  0.1178
11655TIP3    H156456   1.007   0.886  11.379 -1.1136  1.1263 -0.2509
11655TIP3    H256457   1.155   0.911  11.395 -0.6170 -1.5807 -0.2114
11656TIP3   OH256458   1.523   6.017  12.026 -0.5725 -0.7483  0.7480
11656TIP3    H156459   1.546   5.942  11.971 -1.2464  0.3104 -1.0504
11656TIP3    H256460   1.436   6.043  11.996  0.4768  2.0288 -0.1310
11657TIP3   OH256461   1.463   3.168  14.365  0.0183  0.4194 -0.0695
11657TIP3    H156462   1.516   3.217  14.427  0.3179  0.3573 -0.2747
11657TIP3    H256463   1.526   3.127  14.306 -0.2611  0.4375 -0.3850
11658TIP3   OH256464   3.179   4.087  14.312 -0.4128  0.2866  0.2549
11658TIP3    H156465   3.190   3.993  14.297  2.4633  0.6347 -0.4049
11658TIP3    H256466   3.161   4.095  14.405  0.3387 -0.8810  0.5119
11659TIP3   OH256467   4.130   2.372  11.455  0.3288 -0.8829  0.2863
11659TIP3    H156468   4.068   2.444  11.442  1.9395  0.6180  0.6358
11659TIP3    H256469   4.117   2.316  11.379 -0.3689  0.2163 -0.4347
11660TIP3   OH256470   1.565   1.694   5.435  0.8557  0.1177 -0.0063
11660TIP3    H156471   1.600   1.716   5.522 -0.7273 -0.4088  0.8111
11660TIP3    H256472   1.538   1.778   5.398 -0.1618  0.1878  0.8234
11661TIP3   OH256473   2.321   3.428  13.017 -0.0209  0.1104 -0.2476
11661TIP3    H156474   2.286   3.352  13.064  2.1997 -1.3976 -0.8775
11661TIP3    H256475   2.347   3.489  13.086 -3.5117  1.2288  0.2429
11662TIP3   OH256476   3.195   0.708  12.970 -0.2313  0.1260 -0.1788
11662TIP3    H156477   3.277   0.754  12.990 -1.2601  1.7875  0.4267
11662TIP3    H256478   3.161   0.753  12.892  0.9445 -2.6342 -2.4453
11663TIP3   OH256479   5.270   5.865  16.595 -0.5431  0.1263  0.6014
11663TIP3    H156480   5.219   5.931  16.548 -0.3863 -0.5914 -0.6080
11663TIP3    H256481   5.360   5.897  16.592 -0.5928  0.2846  0.7777
11664TIP3   OH256482   0.443   2.215   6.092  0.5677  0.6613 -0.2460
11664TIP3    H156483   0.354   2.194   6.120  1.0624 -2.3478 -0.6115
11664TIP3    H256484   0.489   2.131   6.095  3.1993  1.9931 -0.8331
11665TIP3   OH256485   4.910   5.700  14.548  0.4127  0.2214 -0.9266
11665TIP3    H156486   4.928   5.756  14.622  2.5616  0.5578 -1.6184
11665TIP3    H256487   4.918   5.757  14.471 -0.2617 -0.4254 -1.5008
11666TIP3   OH256488   2.069   3.864  16.718  0.1417 -1.0341 -0.7979
11666TIP3    H156489   2.074   3.924  16.792  0.4636 -1.8674 -0.1208
11666TIP3    H256490   2.095   3.917  16.642 -1.9122  0.2978 -0.6256
11667TIP3   OH256491   0.196   0.962   3.272 -0.0150  0.7231 -0.0328
11667TIP3    H156492   0.252   0.902   3.223 -0.1019 -0.0050  0.7363
11667TIP3    H256493   0.113   0.915   3.280  0.7811 -0.4071  3.0979
11668TIP3   OH256494   2.858   5.817   5.629 -0.9267 -0.2027  0.1429
11668TIP3    H156495   2.945   5.857   5.635 -1.4620  1.1993 -0.9614
11668TIP3    H256496   2.840   5.814   5.535 -2.7707  1.1406  0.4065
11669TIP3   OH256497   5.373   4.072  17.067  0.3856  0.8185 -0.3692
11669TIP3    H156498   5.429   4.141  17.030 -1.1982  3.3643  1.6229
11669TIP3    H256499   5.323   4.040  16.992  0.9565  2.0947 -1.3412
11670TIP3   OH256500   0.115   4.701   6.082  0.0247 -0.4153 -0.1546
11670TIP3    H156501   0.189   4.695   6.143 -0.2730 -0.6100  0.1902
11670TIP3    H256502   0.040   4.669   6.132 -0.5380  0.9551 -0.0984
11671TIP3   OH256503   4.844   1.537  14.205  0.1132 -0.1813  0.3104
11671TIP3    H156504   4.844   1.627  14.236 -0.5725  0.2449 -0.8541
11671TIP3    H256505   4.866   1.544  14.112  1.7900 -1.3775  0.5902
11672TIP3   OH256506   5.067   5.128  14.206  0.0157 -0.2415 -0.3583
11672TIP3    H156507   5.033   5.109  14.118 -0.1582 -2.2950  0.0957
11672TIP3    H256508   4.990   5.141  14.260  0.1121  0.5749 -0.4079
11673TIP3   OH256509   5.243   5.379   1.790 -0.4824 -0.2278  0.1325
11673TIP3    H156510   5.289   5.323   1.852 -3.4800 -0.9888  1.8668
11673TIP3    H256511   5.264   5.341   1.704  0.7662 -1.4943  0.9432
11674TIP3   OH256512   2.631   4.798  12.163 -0.5911 -0.0949 -0.6130
11674TIP3    H156513   2.588   4.713  12.151 -0.2494 -0.2421 -0.8115
11674TIP3    H256514   2.563   4.854  12.201 -0.4323 -0.8336  0.8286
11675TIP3   OH256515   1.107   5.049   2.902 -0.0513 -0.1195 -0.4534
11675TIP3    H156516   1.053   5.077   2.828  1.0971  2.0046 -0.5470
11675TIP3    H256517   1.197   5.069   2.876  0.3739  0.9792  1.5917
11676TIP3   OH256518   4.007   3.667   5.604  0.3376  0.0527  0.6569
11676TIP3    H156519   4.087   3.619   5.624  0.0229 -1.4870 -1.4261
11676TIP3    H256520   4.034   3.759   5.599  1.7284 -0.3128  1.0123
11677TIP3   OH256521   3.446   2.435  13.010 -0.0809 -0.1959  0.6327
11677TIP3    H156522   3.402   2.393  12.937  1.7783 -0.5228 -0.3578
11677TIP3    H256523   3.408   2.523  13.013 -1.1737 -0.6381  0.1905
11678TIP3   OH256524   3.964   5.127   2.965  0.2183  0.5726  0.1919
11678TIP3    H156525   4.013   5.045   2.957 -1.5327 -0.3340 -3.9119
11678TIP3    H256526   3.880   5.100   3.003  0.4733  0.9176  1.0128
11679TIP3   OH256527   0.613   0.449  14.951 -0.2835 -0.0662  0.0758
11679TIP3    H156528   0.633   0.384  15.019  1.4619 -2.2414 -2.3103
11679TIP3    H256529   0.558   0.403  14.888  2.6793 -0.1413 -2.7569
11680TIP3   OH256530   1.435   1.022   2.261  0.2801  0.4755 -0.2496
11680TIP3    H156531   1.443   1.039   2.355 -0.5190 -0.6120  0.0314
11680TIP3    H256532   1.523   1.038   2.226  0.2710  2.2545  0.4382
11681TIP3   OH256533   6.624   2.777   0.570 -0.6289  0.1474 -0.0502
11681TIP3    H156534   6.660   2.734   0.493  1.2919  0.1647  0.7618
11681TIP3    H256535   6.654   2.724   0.644  0.2949  1.8272  0.8549
11682TIP3   OH256536   4.054   2.177  14.099  0.0201 -0.3495  0.4938
11682TIP3    H156537   4.149   2.179  14.088  0.0217 -1.1180  0.2546
11682TIP3    H256538   4.033   2.257  14.146  0.7232  0.0865  0.0822
11683TIP3   OH256539   1.930   5.858  16.566  0.8798  0.1444 -0.2516
11683TIP3    H156540   1.989   5.885  16.496  0.9059 -3.1438 -1.6865
11683TIP3    H256541   1.855   5.819  16.520 -0.0886 -0.2540  1.5571
11684TIP3   OH256542   6.247   2.167   3.027  0.3547  0.0612  0.2852
11684TIP3    H156543   6.169   2.191   3.077 -0.6045 -2.5505  0.1985
11684TIP3    H256544   6.301   2.118   3.089  0.7739 -0.2571 -0.3249
11685TIP3   OH256545   1.027   6.302   4.288  0.4541  0.0952  0.0277
11685TIP3    H156546   1.091   6.264   4.348  0.0853 -0.0446  0.3357
11685TIP3    H256547   1.067   6.294   4.201  0.7585 -0.1851  0.1945
11686TIP3   OH256548   0.879   6.372   2.119 -0.2688  0.3791  0.1979
11686TIP3    H156549   0.879   6.281   2.150  2.0030  0.6572  1.2361
11686TIP3    H256550   0.903   6.424   2.195  0.1358  1.6847 -0.7710
11687TIP3   OH256551   0.548   0.241   5.124 -0.2322  0.0775  0.1861
11687TIP3    H156552   0.553   0.335   5.141  0.7468 -0.2390  1.9340
11687TIP3    H256553   0.610   0.225   5.053  0.3816  0.6210  0.5892
11688TIP3   OH256554   4.677   0.207  14.352  0.0611 -0.0537 -0.1931
11688TIP3    H156555   4.727   0.133  14.316  0.4713  0.9430 -1.7899
11688TIP3    H256556   4.713   0.220  14.440  0.2772 -1.4569 -0.0502
11689TIP3   OH256557   1.880   6.440   4.353  0.0818  0.4183  0.0870
11689TIP3    H156558   1.886   6.532   4.377 -0.2664  0.3674  0.3799
11689TIP3    H256559   1.808   6.406   4.407 -1.5244  0.5787 -1.8527
11690TIP3   OH256560   3.675   6.447   4.071 -0.6008 -0.0670 -0.1194
11690TIP3    H156561   3.750   6.462   4.013 -0.5360  3.0844  0.6195
11690TIP3    H256562   3.701   6.371   4.124  0.6010 -1.1229 -2.1036
11691TIP3   OH256563   6.354   6.011  14.485  0.0386 -0.5460 -0.6335
11691TIP3    H156564   6.327   5.968  14.404 -1.6638 -0.4384 -0.1676
11691TIP3    H256565   6.396   6.092  14.457  0.9914 -1.3017 -1.4388
11692TIP3   OH256566   3.739   6.695   1.502 -0.4413 -0.7637  0.2971
11692TIP3    H156567   3.663   6.659   1.457 -0.6560 -1.1323  0.9491
11692TIP3    H256568   3.814   6.648   1.466 -0.4307  0.0637 -0.8385
11693TIP3   OH256569   3.423   1.462   4.450 -0.1352  0.5680  0.1474
11693TIP3    H156570   3.468   1.433   4.530  0.5744 -1.1906 -0.8343
11693TIP3    H256571   3.491   1.508   4.400 -0.6554  1.9385  0.6355
11694TIP3   OH256572   0.415   1.987  10.315 -0.0670  0.2202  0.5128
11694TIP3    H156573   0.404   1.994  10.410  0.8282 -1.2324  0.7567
11694TIP3    H256574   0.377   2.068  10.281  0.0785  1.0302  2.1422
11695TIP3   OH256575   1.065   3.529   3.712  0.7370  0.0277 -0.4235
11695TIP3    H156576   1.043   3.547   3.620 -1.0563  1.2361  0.1987
11695TIP3    H256577   1.119   3.604   3.738 -3.6185  3.0496  1.0761
11696TIP3   OH256578   0.510   1.563  15.864 -0.2631 -0.2994 -0.2146
11696TIP3    H156579   0.577   1.511  15.821  0.2031  0.4231 -0.3757
11696TIP3    H256580   0.498   1.640  15.808  0.8998  1.0460  1.2643
11697TIP3   OH256581   3.245   6.429  13.439 -0.5923  0.4052 -0.0937
11697TIP3    H156582   3.331   6.418  13.481 -0.7778 -0.9619 -0.0287
11697TIP3    H256583   3.257   6.502  13.379  0.8683 -0.2783 -0.6796
11698TIP3   OH256584   5.582   2.260   2.804  0.0415 -0.4558  0.7871
11698TIP3    H156585   5.572   2.203   2.881 -1.4920 -0.8141  0.3552
11698TIP3    H256586   5.507   2.239   2.749  0.1233  1.1198  0.0279
11699TIP3   OH256587   0.364   0.497  13.797  0.0507  0.4894  0.1527
11699TIP3    H156588   0.353   0.451  13.880  0.5697  0.8403  0.4206
11699TIP3    H256589   0.365   0.428  13.731 -1.7087  0.2962  0.2876
11700TIP3   OH256590   1.859   3.440  11.261 -0.2912  0.6900 -0.2524
11700TIP3    H156591   1.953   3.434  11.249 -0.6414 -0.1588 -3.7574
11700TIP3    H256592   1.836   3.529  11.234 -0.7725 -0.3256 -3.7857
11701TIP3   OH256593   5.773   2.310  11.339 -0.4440  0.0049 -0.4388
11701TIP3    H156594   5.743   2.399  11.321 -1.9164 -0.6022 -1.2087
11701TIP3    H256595   5.847   2.320  11.399 -0.6597  1.7237 -0.4275
11702TIP3   OH256596   4.671   2.577  15.566 -0.7491 -0.0309 -0.4584
11702TIP3    H156597   4.677   2.539  15.478  0.8147 -0.0401 -0.3724
11702TIP3    H256598   4.711   2.663  15.558 -0.6337 -0.0157  0.2482
11703TIP3   OH256599   4.003   0.141  12.710 -0.6579 -0.1755 -0.1180
11703TIP3    H156600   4.036   0.199  12.778  0.3932 -0.5820 -0.2580
11703TIP3    H256601   4.080   0.095  12.678 -0.9448  0.7308 -2.3023
11704TIP3   OH256602   1.007   4.347  10.816  0.1743 -0.3741  0.2612
11704TIP3    H156603   0.980   4.408  10.748 -0.1030 -0.4480  0.3020
11704TIP3    H256604   1.094   4.376  10.842  0.6350 -0.8557 -0.7127
11705TIP3   OH256605   6.438   6.011   4.810 -0.3959  0.2712 -0.2921
11705TIP3    H156606   6.455   5.931   4.859  2.6652 -0.4008 -2.2016
11705TIP3    H256607   6.478   6.081   4.862 -1.7355  0.4071  0.6166
11706TIP3   OH256608   2.790   1.267  10.854  0.1197  0.6716  0.2648
11706TIP3    H156609   2.881   1.280  10.880  0.2490  1.4279 -0.5217
11706TIP3    H256610   2.784   1.304  10.766 -1.3030  2.0722  0.8919
11707TIP3   OH256611   0.226   6.655  15.599  0.0394 -0.2756 -0.2400
11707TIP3    H156612   0.192   6.597  15.667  1.7253 -0.4286  0.5212
11707TIP3    H256613   0.317   6.670  15.624  2.0149 -3.3671 -4.3513
11708TIP3   OH256614   2.667   6.591   0.785 -0.0237 -0.4026  0.8567
11708TIP3    H156615   2.747   6.641   0.800 -0.3796  0.3666  0.2184
11708TIP3    H256616   2.650   6.600   0.692  0.5615 -2.7142  0.4523
11709TIP3   OH256617   2.849   0.512  14.972 -0.0466 -0.6199 -0.0371
11709TIP3    H156618   2.936   0.542  14.945 -0.6968 -0.5746 -2.1976
11709TIP3    H256619   2.803   0.593  14.997  0.1077 -0.4907 -0.1669
11710TIP3   OH256620   1.808   4.902  11.630  0.4294 -0.3436  0.6403
11710TIP3    H156621   1.714   4.918  11.633  0.6506  1.0072  0.6388
11710TIP3    H256622   1.816   4.807  11.641 -0.9220 -0.4686  0.6941
11711TIP3   OH256623   4.085   3.484  13.243  0.5904  0.2370  0.2885
11711TIP3    H156624   4.124   3.400  13.218  2.3640  0.8934  0.6760
11711TIP3    H256625   4.072   3.530  13.160 -2.1855 -1.0614 -0.1320
11712TIP3   OH256626   1.717   0.678   0.883  0.1246  0.0837 -0.6102
11712TIP3    H156627   1.738   0.586   0.867  0.5634  0.4470 -2.3524
11712TIP3    H256628   1.694   0.713   0.797 -2.1001  1.1262  0.3119
11713TIP3   OH256629   1.081   0.313  13.920 -0.1996  0.4485 -0.4206
11713TIP3    H156630   1.041   0.381  13.973 -0.6348  0.4674 -0.7632
11713TIP3    H256631   1.010   0.281  13.864  0.3481  0.7659 -1.3297
11714TIP3   OH256632   5.171   3.333  12.939 -0.3583  0.4016 -0.2887
11714TIP3    H156633   5.149   3.408  12.885  1.5904  0.8479 -0.5124
11714TIP3    H256634   5.249   3.359  12.987  0.7100 -1.6534 -0.7904
11715TIP3   OH256635   2.345   0.196   6.931  0.4436  0.4589 -0.0027
11715TIP3    H156636   2.361   0.283   6.894  1.0983  0.2359 -0.2450
11715TIP3    H256637   2.411   0.140   6.891  0.9039  0.1258  1.1812
11716TIP3   OH256638   1.966   4.829   4.074  0.2243 -0.6387  0.5245
11716TIP3    H156639   2.020   4.768   4.125  0.2776 -0.6176  0.4937
11716TIP3    H256640   1.915   4.773   4.016  1.2071 -0.5914 -0.4104
11717TIP3   OH256641   4.442   5.540   1.041 -0.2900 -0.0456  0.3409
11717TIP3    H156642   4.431   5.447   1.023  0.2464 -0.0100 -0.2056
11717TIP3    H256643   4.355   5.577   1.030 -1.0269 -0.8400  2.8678
11718TIP3   OH256644   5.273   0.836  16.842 -0.0576 -0.0545  0.0851
11718TIP3    H156645   5.283   0.763  16.904 -0.5694  0.3024  0.6041
11718TIP3    H256646   5.336   0.901  16.872  0.1528 -0.1398 -0.1688
11719TIP3   OH256647   5.260   0.380  15.097 -0.1583 -0.1038  0.0087
11719TIP3    H156648   5.328   0.334  15.147  0.3429  0.0640 -0.5061
11719TIP3    H256649   5.178   0.357  15.142  0.3102  0.3657  1.1461
11720TIP3   OH256650   0.362   5.686  14.815 -0.0079  0.0246  0.5473
11720TIP3    H156651   0.368   5.756  14.880 -1.5611  0.9872 -0.2743
11720TIP3    H256652   0.415   5.716  14.742  1.9553 -1.1779  1.3830
11721TIP3   OH256653   1.786   0.091  13.487  0.4066  0.5423 -0.4264
11721TIP3    H156654   1.732   0.170  13.486 -0.9966 -0.3980 -0.7042
11721TIP3    H256655   1.823   0.088  13.576 -1.0096  0.5398  0.1826
11722TIP3   OH256656   5.523   4.426  13.331  0.0132 -0.2783 -0.7370
11722TIP3    H156657   5.487   4.441  13.243  0.0496 -0.4288 -0.7777
11722TIP3    H256658   5.506   4.508  13.378 -2.0498 -0.9845 -0.1717
11723TIP3   OH256659   3.548   0.459  14.013  0.1906  0.0523 -0.6621
11723TIP3    H156660   3.564   0.553  14.004  0.0543 -0.0963 -3.0675
11723TIP3    H256661   3.626   0.417  13.976  0.2940 -0.8225  0.4708
11724TIP3   OH256662   0.821   3.187   6.119  0.4347 -0.2952 -0.1005
11724TIP3    H156663   0.858   3.243   6.187 -0.5835  0.5960 -0.2455
11724TIP3    H256664   0.878   3.200   6.044  0.2067  0.6024 -0.1390
11725TIP3   OH256665   0.509   1.045   1.787  0.2790  0.2373 -0.1390
11725TIP3    H156666   0.424   1.002   1.797  0.4319 -0.0752 -0.1778
11725TIP3    H256667   0.520   1.053   1.692  0.9845 -1.1282 -0.2068
11726TIP3   OH256668   0.458   0.031   1.658 -0.5771  0.0991 -0.4661
11726TIP3    H156669   0.439   0.117   1.621  1.3131  0.0726 -1.6293
11726TIP3    H256670   0.430  -0.031   1.591 -0.4214 -0.1155 -0.3356
11727TIP3   OH256671   4.849   3.742   4.341  0.2051 -0.2873 -0.4152
11727TIP3    H156672   4.845   3.676   4.272 -0.8586 -1.3863  0.6357
11727TIP3    H256673   4.798   3.815   4.307 -1.2385 -1.2424 -0.4189
11728TIP3   OH256674   0.381   2.584  11.624 -0.2351  0.0019 -0.3914
11728TIP3    H156675   0.450   2.518  11.626 -0.3753 -0.1715 -1.2241
11728TIP3    H256676   0.409   2.648  11.559  1.1325  2.1596  2.1088
11729TIP3   OH256677   1.977   4.942  14.047  0.1195  0.0238 -0.3591
11729TIP3    H156678   1.959   4.876  14.114  0.8591  0.8193  0.6720
11729TIP3    H256679   2.072   4.954  14.051 -0.0312  1.3450 -0.3115
11730TIP3   OH256680   1.576   1.350  11.530 -0.8130  0.1106 -0.5784
11730TIP3    H156681   1.541   1.438  11.522 -0.4884  0.3170  0.2565
11730TIP3    H256682   1.662   1.361  11.570 -1.1863 -0.6578  0.4873
11731TIP3   OH256683   2.742   3.687  16.002  0.0384  0.4537  0.7334
11731TIP3    H156684   2.717   3.595  15.994  2.0409 -0.0744 -0.3276
11731TIP3    H256685   2.809   3.688  16.071  1.5157  0.7167 -0.6425
11732TIP3   OH256686   0.408   5.017  15.162 -0.4579 -0.1429 -0.2583
11732TIP3    H156687   0.424   5.085  15.097 -0.7721  0.0941 -0.0897
11732TIP3    H256688   0.485   4.960  15.157 -0.5337 -0.1900 -0.9109
11733TIP3   OH256689   2.221   6.465   0.409 -0.1550  0.1748  0.5165
11733TIP3    H156690   2.184   6.553   0.403  0.0255  0.1860 -0.7566
11733TIP3    H256691   2.145   6.408   0.419 -0.2975  0.4427  0.9807
11734TIP3   OH256692   4.596   2.953  13.103  0.2502  0.1186  0.1761
11734TIP3    H156693   4.587   3.021  13.036 -1.5037 -0.1341  0.1173
11734TIP3    H256694   4.685   2.966  13.138  0.7347  1.0522 -1.3058
11735TIP3   OH256695   4.788   0.045  16.320  0.4271  0.0104 -0.4496
11735TIP3    H156696   4.720   0.097  16.277 -0.0486 -0.2476 -0.0315
11735TIP3    H256697   4.844   0.015  16.249 -0.8954 -1.2117 -1.0387
11736TIP3   OH256698   1.717   2.666   5.193 -0.1882 -0.1080  0.0158
11736TIP3    H156699   1.802   2.707   5.208  0.1166 -0.8202  0.3263
11736TIP3    H256700   1.673   2.723   5.130  0.4436  0.3724 -0.0030
11737TIP3   OH256701   2.124   1.927  13.799  0.5935 -0.2811 -0.5413
11737TIP3    H156702   2.192   1.873  13.840 -0.2442 -1.5871 -0.8106
11737TIP3    H256703   2.063   1.946  13.871  0.5792 -0.2057 -0.5740
11738TIP3   OH256704   1.265   6.539   2.991 -0.3570  0.6511 -0.1818
11738TIP3    H156705   1.196   6.569   2.931 -0.3967 -0.4220 -0.6933
11738TIP3    H256706   1.313   6.619   3.013 -0.0486  1.0298 -2.0104
11739TIP3   OH256707   1.633   6.834   0.552 -0.3459  0.3172 -0.1127
11739TIP3    H156708   1.553   6.844   0.500 -0.7633  0.5602  0.5632
11739TIP3    H256709   1.688   6.908   0.525 -0.5204  0.3846 -0.2857
11740TIP3   OH256710   1.019   5.966   3.412 -0.2907  0.2131 -0.5457
11740TIP3    H156711   1.028   6.015   3.494 -0.1606 -1.4269  0.4713
11740TIP3    H256712   0.943   5.910   3.426  1.4328 -2.2405 -0.3273
11741TIP3   OH256713   4.517   4.672  10.777  0.2195  0.1850 -1.1978
11741TIP3    H156714   4.612   4.660  10.771  0.5399  1.2770  0.7511
11741TIP3    H256715   4.487   4.670  10.687  2.4641  2.3947 -2.1050
11742TIP3   OH256716   1.737   2.941   5.338  0.5328 -0.4084 -0.3172
11742TIP3    H156717   1.689   2.871   5.383  1.3568 -1.5286 -1.1324
11742TIP3    H256718   1.702   2.940   5.249 -0.7725  1.4953  0.1120
11743TIP3   OH256719   6.277   3.529   1.116 -0.0938 -0.2097  0.4060
11743TIP3    H156720   6.246   3.449   1.075  0.3027 -1.1692  1.9143
11743TIP3    H256721   6.286   3.591   1.044  1.7172 -2.1718 -1.1635
11744TIP3   OH256722   3.536   6.756  14.451  0.9683  0.7958  0.0587
11744TIP3    H156723   3.453   6.709  14.456  1.1209  0.5651  0.4174
11744TIP3    H256724   3.512   6.844  14.421  0.5225  0.9243  0.7703
11745TIP3   OH256725   6.584   0.640  11.519  0.6903 -0.3442 -0.1842
11745TIP3    H156726   6.488   0.647  11.513  0.7273  0.8940  0.3599
11745TIP3    H256727   6.613   0.627  11.429  0.1782  1.8637 -0.7249
11746TIP3   OH256728   4.932   4.862  11.401  0.9970 -0.4428  0.0787
11746TIP3    H156729   4.948   4.768  11.394  0.2401 -0.8641  2.8244
11746TIP3    H256730   4.850   4.869  11.450  1.4569  1.6475  0.6636
11747TIP3   OH256731   2.107   3.774  13.066 -0.1939  0.1035  0.2399
11747TIP3    H156732   2.124   3.783  13.160  2.0312  0.6375 -0.1665
11747TIP3    H256733   2.175   3.714  13.035 -0.5983  0.3280 -1.1282
11748TIP3   OH256734   5.079   5.527   0.537  0.0001 -0.0837 -0.1068
11748TIP3    H156735   5.080   5.572   0.621 -0.3679  0.8821 -0.6057
11748TIP3    H256736   5.154   5.564   0.489 -0.8530  0.7080 -0.8712
11749TIP3   OH256737   1.301   0.099   5.361 -0.1868  0.4615 -0.4254
11749TIP3    H156738   1.290   0.147   5.279  1.2026  1.2715 -0.1704
11749TIP3    H256739   1.213   0.093   5.398 -0.5475  1.8272 -1.0168
11750TIP3   OH256740   2.112   3.001   3.169  0.0676  0.5663 -0.2331
11750TIP3    H156741   2.189   3.055   3.187  0.5726 -0.3073  0.3216
11750TIP3    H256742   2.072   3.040   3.092  1.0043  1.1081 -0.4533
11751TIP3   OH256743   4.052   1.985  12.495  0.3630  0.5001 -0.0583
11751TIP3    H156744   4.060   2.074  12.460  0.4594  0.7296  0.5430
11751TIP3    H256745   4.060   1.928  12.418  1.5352  0.9644 -0.3044
11752TIP3   OH256746   2.381   5.848  16.539 -0.5826 -0.3622 -0.0756
11752TIP3    H156747   2.360   5.812  16.625 -1.6107  1.1973  0.3680
11752TIP3    H256748   2.429   5.929  16.558 -1.0926  0.1609 -0.9486
11753TIP3   OH256749   2.464   1.419   0.710  0.2218 -0.0212 -0.6475
11753TIP3    H156750   2.447   1.495   0.766 -0.0840  0.4969 -1.4251
11753TIP3    H256751   2.397   1.424   0.642  0.6158 -0.6121 -1.0861
11754TIP3   OH256752   4.288   2.309   4.187 -0.4208 -0.3503  0.1165
11754TIP3    H156753   4.231   2.241   4.224 -1.3507 -0.0969 -0.8240
11754TIP3    H256754   4.377   2.280   4.209 -0.8338 -1.5347  0.2892
11755TIP3   OH256755   5.330   2.565  16.746  0.0225  0.5824  0.1677
11755TIP3    H156756   5.302   2.538  16.659  0.4980 -0.6911  0.3964
11755TIP3    H256757   5.275   2.641  16.766 -0.7778  0.2833 -0.8265
11756TIP3   OH256758   6.289   1.398  13.104 -0.1933  0.1919  0.5373
11756TIP3    H156759   6.351   1.465  13.133 -1.3327  1.5757 -0.0994
11756TIP3    H256760   6.341   1.317  13.100  1.8746  1.4977 -1.0703
11757TIP3   OH256761   0.672   5.926  14.851 -0.4557  0.3317 -0.4156
11757TIP3    H156762   0.716   5.844  14.831  1.2262  0.7787  1.1867
11757TIP3    H256763   0.735   5.994  14.826 -0.2597  0.9972  1.6505
11758TIP3   OH256764   5.370   4.411   5.774  0.2371  0.3597 -0.1252
11758TIP3    H156765   5.285   4.418   5.730  0.2100  1.2794  0.0452
11758TIP3    H256766   5.371   4.484   5.835  0.3878 -0.7506  1.2341
11759TIP3   OH256767   5.589   5.862   4.340  0.0072  0.3087 -0.1969
11759TIP3    H156768   5.673   5.819   4.357  0.1457  0.4581 -0.5008
11759TIP3    H256769   5.577   5.921   4.415  1.9266  2.9981 -1.8010
11760TIP3   OH256770   5.336   3.959   0.152  0.3644  0.6412 -0.1828
11760TIP3    H156771   5.325   4.019   0.079  0.8763  2.1174  0.8987
11760TIP3    H256772   5.398   4.003   0.210  0.3849 -0.7282  0.8854
11761TIP3   OH256773   3.801   4.557   4.433 -0.2623 -0.1122  0.0938
11761TIP3    H156774   3.739   4.537   4.503  1.5441 -2.6204  1.0841
11761TIP3    H256775   3.828   4.472   4.399  1.3286  0.9586 -1.4911
11762TIP3   OH256776   1.945   2.148  10.605  0.0831  0.6242 -0.3265
11762TIP3    H156777   1.878   2.146  10.537 -0.2707  1.8506 -0.0339
11762TIP3    H256778   2.014   2.204  10.570  0.9660 -0.5911 -0.6073
11763TIP3   OH256779   3.069   5.939  13.106  0.0530  0.3369  0.5402
11763TIP3    H156780   3.142   5.990  13.070  1.1095  0.0036  2.1197
11763TIP3    H256781   3.030   5.896  13.030  2.1487 -0.3089 -0.2240
11764TIP3   OH256782   5.115   3.420   0.693  0.5990  0.1439 -0.0619
11764TIP3    H156783   5.162   3.461   0.622  2.8553 -0.1409  1.1877
11764TIP3    H256784   5.122   3.481   0.766 -0.2430 -0.2959  0.4103
11765TIP3   OH256785   5.581   1.526   4.502  0.1572  0.2391 -0.1390
11765TIP3    H156786   5.605   1.601   4.448  0.9392 -0.7555 -1.2420
11765TIP3    H256787   5.492   1.504   4.474  0.1959  0.3234 -0.3335
11766TIP3   OH256788   6.757   4.902  12.889  0.0194 -0.1686 -0.3071
11766TIP3    H156789   6.836   4.895  12.942 -0.6793 -0.5231  0.7069
11766TIP3    H256790   6.787   4.885  12.799  0.9327 -1.1980  0.1774
11767TIP3   OH256791   4.690   0.118   5.233 -0.5314  0.3127  0.3208
11767TIP3    H156792   4.776   0.111   5.192 -0.8478  1.0057 -0.5087
11767TIP3    H256793   4.708   0.129   5.326  0.2492 -0.2417  0.2403
11768TIP3   OH256794   3.732   3.280   3.701 -0.7180  0.4283 -0.4929
11768TIP3    H156795   3.643   3.303   3.728 -0.7511 -1.0692  0.8466
11768TIP3    H256796   3.772   3.244   3.780  0.1450 -1.5208 -1.7500
11769TIP3   OH256797   3.905   2.964  10.950  0.2363  0.0787  0.4542
11769TIP3    H156798   3.931   2.874  10.929  0.7719 -0.0717  1.7173
11769TIP3    H256799   3.810   2.958  10.964  0.1293 -0.1158 -0.2908
11770TIP3   OH256800   3.935   6.526   3.630  0.3257 -0.3128  0.1768
11770TIP3    H156801   3.871   6.595   3.610  0.6112 -0.4220 -1.1842
11770TIP3    H256802   3.894   6.445   3.599  0.9478 -0.4340 -0.3444
11771TIP3   OH256803   0.016   0.722  13.982 -0.2720 -0.4575  0.2734
11771TIP3    H156804  -0.033   0.788  14.032 -0.6256  0.4912 -1.2385
11771TIP3    H256805  -0.046   0.650  13.971 -0.0059 -0.9147  1.6302
11772TIP3   OH256806   3.833   4.701   5.544 -0.5765  0.5090  0.0003
11772TIP3    H156807   3.768   4.695   5.474 -0.4534  1.0234 -0.1634
11772TIP3    H256808   3.916   4.712   5.498 -0.2458 -1.0323  0.1828
11773TIP3   OH256809   0.027   2.309  11.006  0.0267 -0.1604  0.4499
11773TIP3    H156810   0.119   2.312  11.033  0.0578  0.3244  0.2932
11773TIP3    H256811   0.004   2.400  10.987  0.4331 -0.6001 -2.6144
11774TIP3   OH256812   0.922   5.626   5.221 -0.5508 -0.4774 -0.2620
11774TIP3    H156813   0.839   5.619   5.174 -0.3745 -2.7508 -0.3605
11774TIP3    H256814   0.959   5.538   5.216  1.0063  0.0370  1.3609
11775TIP3   OH256815   2.520   0.502  12.305 -0.2183 -0.3042  0.4765
11775TIP3    H156816   2.514   0.597  12.295  1.2315 -0.2155  0.1946
11775TIP3    H256817   2.430   0.471  12.301 -0.5510  0.7556 -2.5292
11776TIP3   OH256818   0.084   2.364   0.920  0.0549  0.4283  0.1895
11776TIP3    H156819   0.125   2.308   0.854 -0.3036  0.2132  0.1469
11776TIP3    H256820   0.056   2.441   0.871 -0.0221  0.3625  0.1291
11777TIP3   OH256821   0.598   5.275   3.919  0.3753 -0.1497  0.7832
11777TIP3    H156822   0.655   5.334   3.968  1.1325 -0.3363  0.1492
11777TIP3    H256823   0.634   5.188   3.936  0.3166 -0.2638  0.3269
11778TIP3   OH256824   3.749   2.803  15.361 -0.2586  1.3799 -0.4204
11778TIP3    H156825   3.764   2.842  15.275  1.0849 -0.4511 -1.1018
11778TIP3    H256826   3.831   2.757  15.380 -0.4877  1.8509  1.9175
11779TIP3   OH256827   5.049   2.859  14.358  0.4941 -0.0746  0.2271
11779TIP3    H156828   5.116   2.808  14.313  1.1227  1.3262 -0.5037
11779TIP3    H256829   5.096   2.903  14.429 -0.1337 -0.8795  1.1563
11780TIP3   OH256830   6.542   4.239  10.798 -0.3511 -0.3650 -0.3581
11780TIP3    H156831   6.446   4.242  10.801 -0.3478  0.7432 -0.7183
11780TIP3    H256832   6.564   4.150  10.824 -1.4006 -0.1068  1.6549
11781TIP3   OH256833   1.074   5.158  13.260  0.7868 -0.6220 -0.2229
11781TIP3    H156834   1.106   5.213  13.331  0.8136 -1.0556  0.1062
11781TIP3    H256835   1.073   5.069  13.297 -0.9511 -0.6052 -0.1697
11782TIP3   OH256836   4.967   3.226   1.952  0.1981  0.1454  0.7325
11782TIP3    H156837   5.009   3.142   1.937  1.7297  0.8038  1.0875
11782TIP3    H256838   4.924   3.247   1.869  2.4261  0.4245 -0.4331
11783TIP3   OH256839   2.951   3.542  12.748  0.7513 -0.3156 -0.4436
11783TIP3    H156840   2.860   3.571  12.738  1.1068  1.2841  0.5985
11783TIP3    H256841   2.983   3.531  12.659  0.1159  1.0535 -0.8516
11784TIP3   OH256842   2.287   4.372   6.535  0.1042 -0.2250 -0.0142
11784TIP3    H156843   2.300   4.464   6.559  0.5592 -0.1052 -0.7216
11784TIP3    H256844   2.315   4.323   6.613 -0.0377  0.2231  0.3248
11785TIP3   OH256845   5.034   5.247  14.862  0.3771 -0.4104 -0.1206
11785TIP3    H156846   5.120   5.220  14.831  1.2351 -0.0373  1.7771
11785TIP3    H256847   5.005   5.313  14.799  1.5510 -0.4285 -0.6989
11786TIP3   OH256848   1.878   3.270  11.952 -0.0742 -0.6633 -0.3103
11786TIP3    H156849   1.899   3.335  12.018 -0.4450 -1.4517  0.6055
11786TIP3    H256850   1.893   3.315  11.868  0.7622  0.2229  0.2961
11787TIP3   OH256851   2.719   5.319   2.147  0.0047  0.6141  0.3788
11787TIP3    H156852   2.683   5.252   2.089 -1.3470 -0.0030  1.8609
11787TIP3    H256853   2.686   5.402   2.111 -0.3161  0.2898 -0.0833
11788TIP3   OH256854   0.527   4.393   2.866  0.3736 -0.5035  0.0133
11788TIP3    H156855   0.455   4.341   2.830  0.4623  0.5581 -1.8054
11788TIP3    H256856   0.548   4.455   2.797  2.3238 -0.0788  0.9372
11789TIP3   OH256857   5.629   0.262  14.578 -0.2484  0.0916 -0.5523
11789TIP3    H156858   5.693   0.214  14.526 -0.7185 -0.4931 -0.6035
11789TIP3    H256859   5.549   0.260  14.526 -0.8771 -0.9584  0.4018
11790TIP3   OH256860   2.373   0.474  16.854 -0.7713  0.4582 -0.3055
11790TIP3    H156861   2.376   0.526  16.934 -0.8302 -2.4383  1.7294
11790TIP3    H256862   2.298   0.416  16.866  0.2273 -1.2093 -1.6474
11791TIP3   OH256863   6.449   2.050   2.172 -0.0054  0.0335  0.1332
11791TIP3    H156864   6.423   1.978   2.115  1.5810  0.2920 -0.9806
11791TIP3    H256865   6.445   2.013   2.260 -0.8024 -0.9038 -0.2727
11792TIP3   OH256866   2.888   3.017  14.613  0.5416 -0.3198  0.3942
11792TIP3    H156867   2.945   2.945  14.586  0.5696  0.0631 -0.5964
11792TIP3    H256868   2.926   3.095  14.572 -0.7127 -0.0632 -0.3258
11793TIP3   OH256869   5.055   0.421   4.397  0.0719 -0.2444  0.4031
11793TIP3    H156870   5.081   0.468   4.476 -0.2928 -1.3347  1.1906
11793TIP3    H256871   4.996   0.352   4.428  0.6340 -1.2630 -0.7188
11794TIP3   OH256872   0.206   1.245  15.728 -0.3406  0.6640 -0.1389
11794TIP3    H156873   0.183   1.320  15.674 -4.2496  1.5898  2.3329
11794TIP3    H256874   0.165   1.170  15.684  0.5456  0.5800 -0.8278
11795TIP3   OH256875   1.609   3.197  11.947 -0.0372 -0.3089  0.1854
11795TIP3    H156876   1.593   3.169  11.857 -0.0645 -0.1888  0.1526
11795TIP3    H256877   1.694   3.241  11.943  0.9515 -2.0992  0.6047
11796TIP3   OH256878   0.733   3.435  15.257 -0.0196 -0.5534  0.5590
11796TIP3    H156879   0.797   3.506  15.264 -0.3250 -0.2675  0.4697
11796TIP3    H256880   0.762   3.385  15.180  0.3581 -0.6926  0.7896
11797TIP3   OH256881   2.513   6.300  15.551  0.0708 -0.8414 -0.3781
11797TIP3    H156882   2.522   6.335  15.462 -0.3372  0.2359 -0.0198
11797TIP3    H256883   2.458   6.223  15.542 -1.6620  0.3996 -0.8311
11798TIP3   OH256884   1.175   5.093   6.468 -0.5620 -0.1711 -0.5034
11798TIP3    H156885   1.127   5.057   6.393 -0.7367 -1.3338  0.1409
11798TIP3    H256886   1.147   5.039   6.542 -1.1255  1.5555  0.5974
11799TIP3   OH256887   4.837   0.584   1.552  0.1907 -0.2289 -0.2132
11799TIP3    H156888   4.754   0.611   1.592  0.3037 -0.2752  0.0494
11799TIP3    H256889   4.862   0.659   1.497  0.3491  0.0854  0.2788
11800TIP3   OH256890   2.664   6.782  13.596  0.5214  0.3960  0.4892
11800TIP3    H156891   2.585   6.810  13.551  0.0355 -1.5270  0.0292
11800TIP3    H256892   2.724   6.757  13.526  1.4933  1.6386  0.8422
11801TIP3   OH256893   4.898   1.479   4.146  0.2107 -0.3419 -0.3202
11801TIP3    H156894   4.870   1.549   4.205 -0.7083 -1.7410  0.9554
11801TIP3    H256895   4.818   1.431   4.125  1.1638 -2.7078  1.1208
11802TIP3   OH256896   5.644   1.794   1.389 -0.0548  0.3281  0.3919
11802TIP3    H156897   5.723   1.846   1.377  0.0071 -0.2041 -2.3714
11802TIP3    H256898   5.620   1.806   1.480  1.2025  3.3618  0.4388
11803TIP3   OH256899   5.231   2.529  16.045  0.5773 -0.4069 -0.4890
11803TIP3    H156900   5.171   2.538  16.119  0.3920  0.4699 -0.7215
11803TIP3    H256901   5.201   2.451  15.999  1.3519 -1.5870  0.9208
11804TIP3   OH256902   4.795   4.046  13.960  0.4546  0.1384  0.1862
11804TIP3    H156903   4.825   4.107  14.028 -0.2393  0.6803  0.0175
11804TIP3    H256904   4.859   4.057  13.889  1.1693 -0.4132  0.7238
11805TIP3   OH256905   3.410   4.693   1.073  0.2387  0.0127  0.8662
11805TIP3    H156906   3.411   4.606   1.113  3.3575 -0.3261  0.3115
11805TIP3    H256907   3.370   4.679   0.987 -0.4525 -0.5903  1.2725
11806TIP3   OH256908   6.820   0.760   1.280 -0.2581 -0.3313  0.3553
11806TIP3    H156909   6.805   0.831   1.342 -0.6659  0.6822 -0.8541
11806TIP3    H256910   6.737   0.750   1.234  0.7339  0.8438 -1.8835
11807TIP3   OH256911   2.877   4.146  11.797  0.6129 -0.2671 -0.1502
11807TIP3    H156912   2.825   4.195  11.861  1.1266 -1.9992  1.7005
11807TIP3    H256913   2.813   4.092  11.751  0.5084 -0.7553  0.5640
11808TIP3   OH256914   4.415   5.504   4.088 -0.2905 -0.2670  0.1120
11808TIP3    H156915   4.451   5.544   4.009 -0.5042 -0.7747 -0.2456
11808TIP3    H256916   4.357   5.571   4.124  1.5169  0.8606  1.0981
11809TIP3   OH256917   1.732   1.401  14.106  0.2200 -0.0468 -0.0880
11809TIP3    H156918   1.694   1.484  14.134  0.2431  0.2201 -0.8140
11809TIP3    H256919   1.680   1.375  14.030 -0.8595 -1.5510  1.1038
11810TIP3   OH256920   3.980   2.116  11.379 -0.3517  0.2110 -0.2598
11810TIP3    H156921   3.913   2.151  11.438  0.8156  1.2841  0.4992
11810TIP3    H256922   3.937   2.043  11.334 -1.6888  0.1900  0.9639
11811TIP3   OH256923   3.580   0.637   5.308 -0.4781  0.1136  0.0735
11811TIP3    H156924   3.556   0.544   5.311 -1.0900  0.2733  0.1671
11811TIP3    H256925   3.501   0.683   5.335 -0.0235  0.6421  0.5147
11812TIP3   OH256926   2.293   5.723   4.159 -0.1375  0.2389  0.8073
11812TIP3    H156927   2.356   5.720   4.087 -0.7573  1.5065  0.1775
11812TIP3    H256928   2.219   5.670   4.129  0.7733 -1.6485  1.7434
11813TIP3   OH256929   3.641   1.950  16.103  0.3228 -0.3163 -0.3864
11813TIP3    H156930   3.643   1.855  16.103 -1.2151 -0.3679 -1.3531
11813TIP3    H256931   3.552   1.973  16.079  0.7718  1.3794 -0.5638
11814TIP3   OH256932   5.736   4.969   2.094  0.3747  0.6517 -0.1785
11814TIP3    H156933   5.645   4.975   2.124  0.5955 -0.2874  0.7747
11814TIP3    H256934   5.755   5.055   2.056 -1.1936  0.5658 -1.2616
11815TIP3   OH256935   0.838   3.913  15.212 -0.2831  0.1775  0.3808
11815TIP3    H156936   0.785   3.888  15.137  0.1907 -1.4103  0.5291
11815TIP3    H256937   0.908   3.968  15.176  1.0491 -2.0939 -0.7268
11816TIP3   OH256938   0.031   5.264   4.772  0.1239  0.2469 -0.0143
11816TIP3    H156939  -0.018   5.197   4.821 -0.3419  1.2921  1.0168
11816TIP3    H256940   0.026   5.342   4.828  0.5160  1.1885 -1.2479
11817TIP3   OH256941   6.671   6.073  15.963  0.3641 -0.8702  0.0186
11817TIP3    H156942   6.752   6.120  15.985 -0.8521  1.5361 -0.2478
11817TIP3    H256943   6.659   6.011  16.034  2.3604 -1.2120  0.1309
11818TIP3   OH256944   1.598   6.683   4.172  0.1195  0.5329  0.5355
11818TIP3    H156945   1.544   6.762   4.169  0.3524  0.7753  1.9580
11818TIP3    H256946   1.584   6.648   4.260  1.1485 -0.2094  0.4196
11819TIP3   OH256947   3.873   6.692  16.780  0.0660  0.7877 -0.2730
11819TIP3    H156948   3.833   6.646  16.854 -0.3273  0.0283 -0.9426
11819TIP3    H256949   3.926   6.626  16.737 -1.6959  0.4859 -2.1420
11820TIP3   OH256950   3.823   1.101  13.556  0.1508  0.3562  0.2465
11820TIP3    H156951   3.835   1.034  13.623  2.8381 -0.5193 -0.9629
11820TIP3    H256952   3.909   1.110  13.516 -0.1712  4.3011  0.0634
11821TIP3   OH256953   2.256   5.650   0.370  0.0998 -0.3925  0.0723
11821TIP3    H156954   2.170   5.659   0.413  0.0050 -1.3161  0.1108
11821TIP3    H256955   2.236   5.606   0.287  0.6284 -1.4385  0.4874
11822TIP3   OH256956   1.875   3.611   4.755  0.6048 -0.5031 -0.1630
11822TIP3    H156957   1.780   3.602   4.742  0.1741  1.9980  0.5670
11822TIP3    H256958   1.900   3.536   4.808 -1.1908 -0.6497  0.5538
11823TIP3   OH256959   0.638   2.969   2.793  0.3660  0.1775 -0.4311
11823TIP3    H156960   0.625   3.064   2.802 -0.4147 -0.0933  2.0359
11823TIP3    H256961   0.710   2.949   2.853  0.8381 -0.7375 -1.2814
11824TIP3   OH256962   6.192   2.229   0.395 -0.3822  0.1063  0.3688
11824TIP3    H156963   6.112   2.265   0.356 -0.7310 -0.5886  0.4297
11824TIP3    H256964   6.257   2.298   0.384 -0.8880  0.5273 -0.0343
11825TIP3   OH256965   1.818   0.623   1.726 -0.3009  0.3219 -0.0326
11825TIP3    H156966   1.859   0.556   1.671  0.8318  2.2204 -1.6829
11825TIP3    H256967   1.724   0.612   1.711 -0.1822 -1.3196  0.3043
11826TIP3   OH256968   3.019   6.591   0.738 -0.0010  0.0826 -0.0805
11826TIP3    H156969   3.022   6.600   0.833 -3.6142 -1.0377  0.2868
11826TIP3    H256970   3.094   6.535   0.717  0.0048 -0.9508  2.3420
11827TIP3   OH256971   1.080   4.609   4.238 -0.2149  0.3033  0.2707
11827TIP3    H156972   1.008   4.563   4.194 -0.7696  0.8727  0.5566
11827TIP3    H256973   1.134   4.643   4.167 -0.8478  0.8201  0.0203
11828TIP3   OH256974   6.039   2.770   3.093 -0.7141  0.4576  0.3732
11828TIP3    H156975   6.123   2.812   3.111 -1.2982  0.9927  2.0607
11828TIP3    H256976   6.011   2.808   3.010  0.1764  1.1483  0.3663
11829TIP3   OH256977   1.552   4.510  12.693  0.3539  0.3168 -0.1379
11829TIP3    H156978   1.631   4.506  12.639  0.5273  1.7398 -0.0225
11829TIP3    H256979   1.511   4.593  12.668 -1.1140 -0.3950 -0.1954
11830TIP3   OH256980   3.432   2.111  13.311 -0.3299 -0.1798  0.4180
11830TIP3    H156981   3.467   2.138  13.226  2.1362  1.1809  1.7517
11830TIP3    H256982   3.479   2.031  13.333  0.2810  0.3815  1.2075
11831TIP3   OH256983   5.287   2.756  11.236 -0.2674 -0.2291 -0.0522
11831TIP3    H156984   5.211   2.758  11.294  1.7755  0.3922  2.8236
11831TIP3    H256985   5.329   2.673  11.254  0.6706  0.1740 -0.3139
11832TIP3   OH256986   3.534   0.120   2.460  0.4913 -0.3445  0.4266
11832TIP3    H156987   3.583   0.199   2.482  1.2139 -0.0426 -2.0494
11832TIP3    H256988   3.582   0.049   2.503  0.6134  0.3700  1.5265
11833TIP3   OH256989   2.321   2.472   0.979 -0.3544  0.1308 -0.5257
11833TIP3    H156990   2.280   2.388   0.998 -1.2632  0.8782  0.9721
11833TIP3    H256991   2.383   2.453   0.908 -0.8244 -1.7011 -0.4900
11834TIP3   OH256992   2.615   6.561  14.078 -0.1543  0.4345 -0.0596
11834TIP3    H156993   2.617   6.593  13.988 -1.4556 -0.2709 -0.3537
11834TIP3    H256994   2.695   6.596  14.117  1.3112 -0.6246 -1.9404
11835TIP3   OH256995   3.454   4.967  16.270 -0.2697  0.0575  0.2013
11835TIP3    H156996   3.372   5.000  16.234 -0.5536  0.5118  1.2323
11835TIP3    H256997   3.431   4.883  16.310 -0.5072  0.7586  1.5761
11836TIP3   OH256998   2.537   0.129   0.282  0.1653  0.0887  0.5800
11836TIP3    H156999   2.493   0.052   0.316  1.5776 -0.7729  0.5564
11836TIP3    H257000   2.517   0.198   0.345 -0.1660 -0.5899  1.2350
11837TIP3   OH257001   1.839   5.814  11.593  0.5556 -1.1840 -0.2500
11837TIP3    H157002   1.865   5.722  11.602 -1.5676 -2.0287 -1.6868
11837TIP3    H257003   1.882   5.843  11.513 -1.9916 -2.3352 -2.1830
11838TIP3   OH257004   2.384   1.345   2.285 -0.1137  0.1437  0.9815
11838TIP3    H157005   2.368   1.306   2.200 -2.3846 -0.4875  1.6496
11838TIP3    H257006   2.382   1.440   2.269 -0.6586  0.0307  0.3600
11839TIP3   OH257007   4.053   3.747   1.049 -0.0796 -0.4866 -0.3533
11839TIP3    H157008   4.131   3.790   1.014  0.0649  0.0934  0.6428
11839TIP3    H257009   4.034   3.676   0.987  0.3370  0.3147 -1.4230
11840TIP3   OH257010   5.414   1.087  11.773  0.3280  0.1092  0.3029
11840TIP3    H157011   5.416   1.130  11.859  1.1171  1.9028 -0.5646
11840TIP3    H257012   5.322   1.066  11.760  0.4125 -1.9844  2.3814
11841TIP3   OH257013   5.031   4.924  15.564 -0.3724 -0.6296 -0.0161
11841TIP3    H157014   4.958   4.881  15.609 -0.3624 -0.0950  0.5405
11841TIP3    H257015   4.995   4.952  15.480 -0.3280 -1.8516 -0.4655
11842TIP3   OH257016   6.061   1.295   3.827 -0.7470 -0.3275 -0.4959
11842TIP3    H157017   6.025   1.345   3.754 -0.8852  1.1356  0.5153
11842TIP3    H257018   5.985   1.278   3.884 -0.4157 -0.2220 -0.0148
11843TIP3   OH257019   5.840   3.028   2.063  0.2480 -0.1287  0.2339
11843TIP3    H157020   5.818   3.016   2.156 -0.4310 -1.5678 -0.0890
11843TIP3    H257021   5.826   2.942   2.024  0.6016  0.4455 -1.2041
11844TIP3   OH257022   6.538   3.895   2.236 -0.4392  0.1004 -0.1597
11844TIP3    H157023   6.490   3.915   2.316 -1.8496  2.2523 -1.4450
11844TIP3    H257024   6.619   3.946   2.243 -0.2326 -0.2577  0.1583
11845TIP3   OH257025   4.931   1.278  14.357 -0.3207 -0.0613  0.3605
11845TIP3    H157026   4.838   1.257  14.367 -0.3111 -1.2011 -1.5882
11845TIP3    H257027   4.931   1.372  14.337 -1.2893 -0.4328 -1.7243
11846TIP3   OH257028   2.723   4.549   6.161  0.4020 -0.4891  0.4154
11846TIP3    H157029   2.690   4.637   6.180  0.1826 -0.7408  1.2639
11846TIP3    H257030   2.781   4.561   6.086 -2.1465 -0.1254 -1.6517
11847TIP3   OH257031   3.801   5.790  13.375  0.0017  0.1573  0.1203
11847TIP3    H157032   3.806   5.869  13.428  0.0070 -0.1607  0.5927
11847TIP3    H257033   3.708   5.781  13.353  0.1339  0.8320 -0.7543
11848TIP3   OH257034   0.477   1.041  12.562 -0.2240  0.5365  0.3567
11848TIP3    H157035   0.456   0.952  12.590  1.7736 -0.7754 -1.9753
11848TIP3    H257036   0.448   1.046  12.471  1.7851  1.4369 -0.2874
11849TIP3   OH257037   6.317   0.850   5.538  0.3629  0.0864 -0.0125
11849TIP3    H157038   6.400   0.842   5.585  0.1787  0.3787  0.3641
11849TIP3    H257039   6.337   0.822   5.449  0.4957 -1.4480  0.4709
11850TIP3   OH257040   2.948   4.172  16.591 -0.0780 -0.1140 -0.0066
11850TIP3    H157041   3.017   4.146  16.653  1.4326 -1.3399 -2.0786
11850TIP3    H257042   2.993   4.175  16.506 -2.2638  0.6165 -1.1956
11851TIP3   OH257043   1.779   5.453   5.917 -0.3748 -0.0951  0.9184
11851TIP3    H157044   1.828   5.453   5.835 -1.3542 -0.8809  0.3084
11851TIP3    H257045   1.846   5.450   5.985  0.6105  3.1857  0.3091
11852TIP3   OH257046   6.183   3.820  12.565 -0.4639  0.4724  0.0415
11852TIP3    H157047   6.155   3.875  12.492  1.7942  0.0749 -1.2313
11852TIP3    H257048   6.238   3.753  12.524 -0.0589 -0.4547  1.9940
11853TIP3   OH257049   0.258   5.970  16.345  0.6569  0.1252 -0.6079
11853TIP3    H157050   0.345   5.997  16.314  0.4153  1.5616 -0.0889
11853TIP3    H257051   0.198   6.034  16.307 -0.2716 -1.1754 -1.4073
11854TIP3   OH257052   3.144   1.947  12.376  0.1782  0.2516  0.6461
11854TIP3    H157053   3.171   2.033  12.344 -0.2820 -0.2910 -1.3157
11854TIP3    H257054   3.220   1.913  12.423  1.2857  0.6473 -0.8161
11855TIP3   OH257055   0.120   6.555  15.358  0.0021  0.1797 -0.1005
11855TIP3    H157056   0.171   6.576  15.435 -0.8103  0.8782  0.2612
11855TIP3    H257057   0.045   6.614  15.361  0.8893  1.5872 -2.4210
11856TIP3   OH257058   4.020   2.128  14.404  1.0336 -0.0225 -0.7841
11856TIP3    H157059   4.071   2.058  14.362 -1.7174 -3.1681  0.6178
11856TIP3    H257060   3.940   2.134  14.352 -0.3553 -0.6321  1.1343
11857TIP3   OH257061   2.183   1.465   2.891  0.1772  0.3335 -0.6818
11857TIP3    H157062   2.161   1.429   2.977 -0.5522 -0.6592 -1.2648
11857TIP3    H257063   2.129   1.544   2.883  1.3669  1.2994  0.3678
11858TIP3   OH257064   4.795   2.276  14.396  0.2783 -0.4130  0.6653
11858TIP3    H157065   4.773   2.323  14.316  3.3177 -0.2875 -0.2488
11858TIP3    H257066   4.793   2.342  14.465 -1.7728 -0.3951  0.6295
11859TIP3   OH257067   1.812   1.740  12.711 -0.2239  0.0482 -0.3982
11859TIP3    H157068   1.718   1.721  12.712 -0.2027 -0.1997  1.7375
11859TIP3    H257069   1.853   1.658  12.683 -0.5715 -0.4978  0.6270
11860TIP3   OH257070   4.456   4.247   2.029  0.1409 -0.1736  0.1761
11860TIP3    H157071   4.443   4.327   2.080 -2.0118  0.0212 -0.5930
11860TIP3    H257072   4.379   4.193   2.048  1.1092 -1.7014 -0.0200
11861TIP3   OH257073   1.521   4.742   4.529 -0.0019  0.4305 -0.2185
11861TIP3    H157074   1.544   4.699   4.447 -1.2143 -1.8396  0.5377
11861TIP3    H257075   1.430   4.718   4.544 -0.4823  2.6247  0.7307
11862TIP3   OH257076   4.818   3.093  14.081  0.1471 -0.5086  0.1621
11862TIP3    H157077   4.838   3.117  13.990  1.5060 -0.5980  0.4213
11862TIP3    H257078   4.850   3.004  14.090 -3.1945 -1.9162 -0.2482
11863TIP3   OH257079   4.808   6.609  11.379 -0.4268  0.0777 -0.1270
11863TIP3    H157080   4.867   6.615  11.453 -0.4489  0.3417 -0.1306
11863TIP3    H257081   4.838   6.677  11.318 -0.0893 -0.4706 -0.5874
11864TIP3   OH257082   0.542   2.461  16.270 -0.1170  0.4037 -0.2111
11864TIP3    H157083   0.483   2.465  16.195  0.4757  0.6959 -0.6715
11864TIP3    H257084   0.586   2.377  16.262 -0.7513  0.0014  0.3610
11865TIP3   OH257085   0.479   4.721   1.438  0.1813  0.0034 -0.0070
11865TIP3    H157086   0.388   4.693   1.425  0.2108  0.1277 -0.5139
11865TIP3    H257087   0.489   4.796   1.380  0.5529  0.1098  0.1925
11866TIP3   OH257088   2.824   2.569   3.113  0.1193 -0.2884  0.0240
11866TIP3    H157089   2.897   2.509   3.097  0.9396  0.1587  1.7481
11866TIP3    H257090   2.769   2.563   3.035  1.7743 -0.9715 -1.1433
11867TIP3   OH257091   1.471   3.762  16.102 -0.4704  0.3430  0.2027
11867TIP3    H157092   1.437   3.767  16.013 -1.9465 -2.2964  0.5267
11867TIP3    H257093   1.487   3.854  16.127 -0.7012  1.1891 -2.4623
11868TIP3   OH257094   4.798   0.375   3.524 -0.5750 -0.1471  0.6065
11868TIP3    H157095   4.767   0.425   3.599 -1.5396  0.5418 -0.2204
11868TIP3    H257096   4.874   0.326   3.557 -1.7072 -0.8288  2.3281
11869TIP3   OH257097   3.669   4.287   2.935  0.9067  0.0122  0.1982
11869TIP3    H157098   3.620   4.226   2.990  0.8490  1.2610  1.5883
11869TIP3    H257099   3.665   4.370   2.982  1.8697  0.8478 -1.1305
11870TIP3   OH257100   1.438   3.266  13.422 -0.6775  0.0408  0.1351
11870TIP3    H157101   1.450   3.281  13.328  0.6981  3.1556  0.6877
11870TIP3    H257102   1.482   3.340  13.464 -1.2024 -1.2750  3.2710
11871TIP3   OH257103   0.276   5.098   6.413 -0.4171 -0.5556  0.0252
11871TIP3    H157104   0.193   5.052   6.397  0.3420 -1.2485 -2.3031
11871TIP3    H257105   0.339   5.028   6.432 -0.3290 -0.0242  1.9401
11872TIP3   OH257106   0.229   3.266  11.395  0.0183  0.3048 -0.3950
11872TIP3    H157107   0.264   3.226  11.474 -0.8235 -0.9888 -0.6552
11872TIP3    H257108   0.272   3.220  11.323 -0.8931 -0.0843 -0.7007
11873TIP3   OH257109   0.333   0.914   3.943 -0.7450  0.1993 -0.1665
11873TIP3    H157110   0.417   0.879   3.913 -1.5040 -0.5206 -1.5542
11873TIP3    H257111   0.303   0.852   4.009 -0.6076 -0.0418 -0.3283
11874TIP3   OH257112   5.811   3.511   4.715  0.6282 -0.3311 -0.1933
11874TIP3    H157113   5.837   3.600   4.739  1.5993 -1.0821  1.8262
11874TIP3    H257114   5.771   3.476   4.795  0.0901 -1.6374 -1.0081
11875TIP3   OH257115   6.362   3.103  11.716 -0.2219  0.1909  0.5090
11875TIP3    H157116   6.430   3.145  11.664 -0.3875  0.4605  0.5105
11875TIP3    H257117   6.407   3.032  11.761 -0.6343 -2.0798 -2.3594
11876TIP3   OH257118   6.423   2.152   5.003 -0.0929 -0.1420 -0.3144
11876TIP3    H157119   6.334   2.115   5.006  0.1389 -0.6525  0.9574
11876TIP3    H257120   6.414   2.230   4.948 -1.1651 -0.6012 -0.8344
11877TIP3   OH257121   1.152   2.469  12.344 -0.2957 -0.1344 -0.0631
11877TIP3    H157122   1.102   2.527  12.401  1.0500 -0.4381  1.5017
11877TIP3    H257123   1.088   2.407  12.311 -1.2352  0.4801  0.5593
11878TIP3   OH257124   3.519   3.764  16.555  0.1813 -0.1801 -0.4767
11878TIP3    H157125   3.572   3.687  16.576  1.6533  0.7784 -0.5287
11878TIP3    H257126   3.431   3.730  16.545  0.3794 -1.5245  1.7238
11879TIP3   OH257127   2.522   1.572  15.985 -0.4741 -0.3940  0.0570
11879TIP3    H157128   2.430   1.576  16.012 -0.6270 -2.4899  0.0366
11879TIP3    H257129   2.518   1.563  15.890 -0.1929  0.5594 -0.0497
11880TIP3   OH257130   6.832   2.662   5.296  0.5551  0.0494 -0.1370
11880TIP3    H157131   6.865   2.749   5.272 -1.6199  0.2658 -2.9233
11880TIP3    H257132   6.740   2.678   5.318 -0.1978 -1.6192 -1.7854
11881TIP3   OH257133   5.049   6.766  14.751 -0.1942 -0.0485  0.4436
11881TIP3    H157134   5.143   6.783  14.745  0.0118 -1.3315 -0.2860
11881TIP3    H257135   5.040   6.673  14.730 -1.5660 -0.1057  1.1520
11882TIP3   OH257136   6.725   6.580  14.784  0.0890  0.3648 -0.0722
11882TIP3    H157137   6.766   6.631  14.714  2.0347 -1.3746 -0.2609
11882TIP3    H257138   6.699   6.498  14.743  1.6871 -0.8853  1.2919
11883TIP3   OH257139   2.375   5.436   4.035  0.3926 -0.1966  0.4369
11883TIP3    H157140   2.300   5.403   3.985  1.3169 -0.5554 -0.7679
11883TIP3    H257141   2.398   5.365   4.094  2.3135 -1.8485 -2.0666
11884TIP3   OH257142   0.472   4.644  10.757  0.5596  0.0497  0.3784
11884TIP3    H157143   0.554   4.666  10.714  0.1033 -0.0990 -0.5887
11884TIP3    H257144   0.491   4.654  10.851  1.3918  0.9577  0.1316
11885TIP3   OH257145   6.130   2.702  15.557  1.0354  0.2519 -0.2250
11885TIP3    H157146   6.117   2.767  15.487 -1.2770  2.0842  1.7357
11885TIP3    H257147   6.165   2.752  15.630 -0.3207 -0.7702  1.1761
11886TIP3   OH257148   2.323   5.768  13.055 -0.2202  0.5898  0.4721
11886TIP3    H157149   2.372   5.740  13.132  0.0223 -1.0284 -0.2365
11886TIP3    H257150   2.295   5.858  13.076 -0.1670  0.1999  2.4297
11887TIP3   OH257151   4.918   5.835   2.622  0.3561  0.2153 -0.0849
11887TIP3    H157152   4.855   5.804   2.557 -0.8737 -0.5110  1.3873
11887TIP3    H257153   4.997   5.784   2.605 -0.0439 -0.1760 -0.8209
11888TIP3   OH257154   4.430   5.551   1.446  0.4116 -0.2050  0.6795
11888TIP3    H157155   4.493   5.571   1.377  0.3786  0.1325  0.7441
11888TIP3    H257156   4.389   5.469   1.418 -0.6198  0.6512 -0.4412
11889TIP3   OH257157   4.165   6.066   1.446  0.2517 -0.6051  0.2073
11889TIP3    H157158   4.191   5.978   1.419 -0.2358 -0.5818 -0.3628
11889TIP3    H257159   4.176   6.066   1.541 -0.6638 -1.5991  0.3336
11890TIP3   OH257160   5.837   2.524   2.772  0.5727  0.3623 -0.1804
11890TIP3    H157161   5.850   2.514   2.866 -0.2646 -3.5667 -0.2913
11890TIP3    H257162   5.911   2.477   2.732 -1.8721 -3.0569 -1.1824
11891TIP3   OH257163   6.271   3.602   6.007 -0.1427 -0.6688  0.2098
11891TIP3    H157164   6.354   3.640   5.980 -0.7873  0.3836 -0.3342
11891TIP3    H257165   6.231   3.668   6.063 -0.7555 -1.0334  0.2151
11892TIP3   OH257166   4.888   5.401  15.534 -0.4512  0.2150 -0.0469
11892TIP3    H157167   4.943   5.327  15.562  0.4172  0.6962 -0.4231
11892TIP3    H257168   4.951   5.469  15.510 -1.2056  0.5282 -1.2303
11893TIP3   OH257169   0.649   5.797  13.937 -0.2197  0.1234 -0.2811
11893TIP3    H157170   0.635   5.703  13.948  0.4905  0.2285  1.9135
11893TIP3    H257171   0.592   5.821  13.864 -0.4592 -1.9901 -0.8444
11894TIP3   OH257172   5.798   1.900   4.068 -0.1293 -0.2526 -0.6679
11894TIP3    H157173   5.827   1.909   4.158  2.9501 -0.0993 -1.5349
11894TIP3    H257174   5.786   1.806   4.056  1.8835 -0.5655 -0.6609
11895TIP3   OH257175   6.722   1.464  11.678 -0.7337 -0.7820 -0.4050
11895TIP3    H157176   6.695   1.549  11.712  1.0341 -0.9275  1.5806
11895TIP3    H257177   6.646   1.432  11.630 -1.3567  2.0168 -1.5002
11896TIP3   OH257178   5.513   5.696  10.760 -0.0292 -0.2254  0.2820
11896TIP3    H157179   5.504   5.747  10.680  0.9031 -1.8162 -0.8795
11896TIP3    H257180   5.454   5.621  10.748 -0.9937  0.2405  1.7425
11897TIP3   OH257181   0.383   3.247   5.769 -0.0208 -0.6961  0.1361
11897TIP3    H157182   0.389   3.156   5.799  2.1420 -0.8582 -0.6449
11897TIP3    H257183   0.458   3.291   5.808 -0.4378  0.5045 -0.3560
11898TIP3   OH257184   4.011   3.247  14.431 -0.0461 -0.1518  0.1988
11898TIP3    H157185   4.100   3.215  14.417 -0.2712 -0.3818 -0.8275
11898TIP3    H257186   3.958   3.199  14.367 -0.4563  1.9800 -1.1821
11899TIP3   OH257187   5.890   3.068   3.224  0.4792  0.1064  0.1460
11899TIP3    H157188   5.976   3.098   3.252  0.2177  1.5924 -0.5312
11899TIP3    H257189   5.876   2.986   3.272  2.8679 -0.9681 -0.8077
11900TIP3   OH257190   4.866   5.341   5.393 -0.2917 -0.6387 -0.1759
11900TIP3    H157191   4.954   5.374   5.411 -0.2166  0.0057 -1.5999
11900TIP3    H257192   4.857   5.347   5.298 -1.7427 -1.0483 -0.0869
11901TIP3   OH257193   1.746   6.030   2.360  0.1637 -0.4915 -0.1929
11901TIP3    H157194   1.718   6.059   2.447 -3.2918 -2.9605 -0.2888
11901TIP3    H257195   1.841   6.026   2.366  0.2888  2.5318  2.3593
11902TIP3   OH257196   3.176   6.619  11.429  0.2808  0.0737  0.4031
11902TIP3    H157197   3.213   6.540  11.388 -0.4492 -0.4450  0.7200
11902TIP3    H257198   3.249   6.657  11.478  0.9415  0.2306 -0.6740
11903TIP3   OH257199   0.848   1.199  15.627 -0.6661  0.1063  0.1326
11903TIP3    H157200   0.938   1.191  15.659 -0.2092  1.4470 -0.7060
11903TIP3    H257201   0.809   1.113  15.642  0.2857 -0.0761  1.8968
11904TIP3   OH257202   4.615   0.679   2.159  0.4735 -0.4979 -0.3843
11904TIP3    H157203   4.647   0.725   2.237  0.7905 -0.3186 -0.6170
11904TIP3    H257204   4.532   0.641   2.187  0.1093  0.3636 -0.2338
11905TIP3   OH257205   0.158   2.451   5.136 -0.0425 -0.1142 -0.1953
11905TIP3    H157206   0.241   2.481   5.171  1.3467  0.5959 -3.7173
11905TIP3    H257207   0.097   2.523   5.154  0.3718 -0.0890  1.2552
11906TIP3   OH257208   2.296   0.919  15.675  0.1196  0.3373 -0.6305
11906TIP3    H157209   2.232   0.914  15.604 -1.3609 -0.3590  0.6904
11906TIP3    H257210   2.278   0.842  15.728  1.2827  0.7731  0.4290
11907TIP3   OH257211   2.702   4.416  11.533  0.8089 -0.2822 -0.0365
11907TIP3    H157212   2.661   4.392  11.450 -0.0969 -0.7591  0.5400
11907TIP3    H257213   2.750   4.338  11.560 -1.1853 -1.1348  1.2539
11908TIP3   OH257214   6.628   0.290   5.553  0.1964 -0.3724  0.0931
11908TIP3    H157215   6.658   0.202   5.528 -0.2502 -0.3507 -0.5538
11908TIP3    H257216   6.674   0.309   5.634 -0.4525 -1.6072  0.7798
11909TIP3   OH257217   2.923   3.260  12.768 -0.5348  0.1491  0.0106
11909TIP3    H157218   2.901   3.352  12.778  2.6005  1.0149  0.0042
11909TIP3    H257219   3.018   3.256  12.782 -0.6081 -3.1470  0.4319
11910TIP3   OH257220   1.192   1.750   5.418  0.2728  0.0045  0.3122
11910TIP3    H157221   1.123   1.804   5.379  0.9376  2.4180  2.2329
11910TIP3    H257222   1.257   1.741   5.349 -0.4624  0.5587 -0.4737
11911TIP3   OH257223   1.273   6.497  11.179 -0.6620 -0.0683  0.0118
11911TIP3    H157224   1.244   6.552  11.107  0.2407  0.5187  0.0782
11911TIP3    H257225   1.277   6.409  11.142 -1.7300 -0.0385 -0.2057
11912TIP3   OH257226   3.763   5.232   1.057 -0.1561 -0.3889  0.0656
11912TIP3    H157227   3.797   5.271   0.977  0.2115  0.1208  0.4730
11912TIP3    H257228   3.833   5.174   1.087 -0.3350 -0.6593 -0.0309
11913TIP3   OH257229   1.651   1.818  12.924  0.4988  0.0829 -0.0402
11913TIP3    H157230   1.706   1.811  13.002 -0.6018  1.6196  0.9326
11913TIP3    H257231   1.713   1.813  12.851  1.5572 -1.3787  0.9033
11914TIP3   OH257232   0.036   1.424  15.292 -0.2848 -0.4568 -0.1039
11914TIP3    H157233   0.072   1.335  15.285 -2.6422 -1.4463 -0.5402
11914TIP3    H257234   0.045   1.460  15.204 -0.8270 -0.8944 -0.3410
11915TIP3   OH257235   4.989   5.019   4.103  0.3572  0.2441 -0.3839
11915TIP3    H157236   5.056   5.074   4.143  0.5713 -0.1457 -0.2058
11915TIP3    H257237   5.004   4.932   4.138  0.7413 -0.1721 -1.5333
11916TIP3   OH257238   2.713   2.729  12.713  0.2105  0.4108 -0.0232
11916TIP3    H157239   2.658   2.769  12.781  1.5963  3.6872 -0.6546
11916TIP3    H257240   2.651   2.699  12.647 -0.9812  0.4323  1.0412
11917TIP3   OH257241   4.330   1.372  13.037 -0.2184  0.0028 -0.5104
11917TIP3    H157242   4.302   1.374  13.128 -0.6532 -0.0069 -0.6438
11917TIP3    H257243   4.262   1.419  12.989 -0.0966 -0.1655 -0.8554
11918TIP3   OH257244   4.329   3.175  12.382  0.4543  0.2363 -0.0412
11918TIP3    H157245   4.241   3.211  12.390  0.3685  0.0666 -0.1843
11918TIP3    H257246   4.316   3.080  12.391  0.9932  0.3682  2.8974
11919TIP3   OH257247   5.007   0.059  14.507  0.5421 -0.5805  0.4001
11919TIP3    H157248   5.042   0.025  14.589 -1.1680 -0.3851  1.2450
11919TIP3    H257249   4.945  -0.007  14.477 -0.4566  0.3175  0.4121
11920TIP3   OH257250   0.990   5.814  15.022 -0.5221  0.4045  0.4037
11920TIP3    H157251   0.898   5.843  15.025 -0.8233 -0.5683  1.1150
11920TIP3    H257252   1.021   5.824  15.112 -0.5966 -1.2794  0.6505
11921TIP3   OH257253   4.938   1.282  13.390 -0.9249 -0.3040 -0.7084
11921TIP3    H157254   4.913   1.320  13.474  0.6673  0.2458 -0.4495
11921TIP3    H257255   4.920   1.350  13.325  0.1802  0.2344 -0.4756
11922TIP3   OH257256   3.540   0.282  11.543  0.6019  0.3834  0.3419
11922TIP3    H157257   3.622   0.235  11.532  0.6728  0.3881  0.8247
11922TIP3    H257258   3.535   0.339  11.466 -0.1510 -1.3624 -0.9729
11923TIP3   OH257259   4.253   5.216  14.479 -0.1554  0.0516  0.1645
11923TIP3    H157260   4.237   5.276  14.552 -0.9522 -0.7966  0.7200
11923TIP3    H257261   4.173   5.163  14.474 -0.7622  1.0613 -2.3151
11924TIP3   OH257262   3.828   5.347  11.165  0.1515 -0.5121  0.2457
11924TIP3    H157263   3.823   5.257  11.134 -2.3494 -0.6137  0.7013
11924TIP3    H257264   3.874   5.341  11.249  0.6839 -1.2386 -0.0923
11925TIP3   OH257265   3.876   0.796   3.889 -0.3510 -0.1126  0.2517
11925TIP3    H157266   3.793   0.830   3.924 -1.0572 -0.2673 -1.1968
11925TIP3    H257267   3.850   0.746   3.811  1.0640 -0.5870  0.0650
11926TIP3   OH257268   3.349   4.316   4.891  0.2453 -0.0635  0.1271
11926TIP3    H157269   3.441   4.300   4.913  0.5090  0.0145 -0.8528
11926TIP3    H257270   3.327   4.396   4.938 -0.1220 -1.4561  2.4711
11927TIP3   OH257271   3.714   2.160  15.973  0.0227 -0.6056  0.0794
11927TIP3    H157272   3.717   2.073  16.011  1.3714 -1.0352 -0.9229
11927TIP3    H257273   3.745   2.218  16.043 -0.8975 -0.9140  0.7530
11928TIP3   OH257274   4.366   0.651  14.224  0.6499 -0.1066  0.1914
11928TIP3    H157275   4.286   0.623  14.269  1.5651  1.5724  3.2048
11928TIP3    H257276   4.426   0.674  14.296  3.1325  0.5800 -1.9639
11929TIP3   OH257277   5.705   1.211   4.241 -0.0227  0.1387 -0.1728
11929TIP3    H157278   5.702   1.174   4.329 -0.8904  0.7586  0.0640
11929TIP3    H257279   5.685   1.136   4.184  0.0911 -0.1678  0.1843
11930TIP3   OH257280   1.386   6.575   1.238  0.3924 -0.8336  0.3143
11930TIP3    H157281   1.382   6.660   1.283  1.0722 -1.1044  0.9092
11930TIP3    H257282   1.358   6.512   1.305 -0.6170 -1.0399 -0.2799
11931TIP3   OH257283   1.042   1.800  10.918  0.3483 -0.3376  0.2954
11931TIP3    H157284   0.973   1.785  10.982 -0.4449  0.0001 -0.4594
11931TIP3    H257285   1.020   1.741  10.845  1.0795 -0.5166  0.2099
11932TIP3   OH257286   6.063   1.695   6.426 -0.1323 -0.2005 -0.0093
11932TIP3    H157287   6.090   1.614   6.471 -0.3178  0.0567  0.5766
11932TIP3    H257288   5.969   1.701   6.445  0.0200  0.5274  0.5575
11933TIP3   OH257289   6.723   4.710  16.799  0.2915 -0.2295  0.2135
11933TIP3    H157290   6.689   4.660  16.725 -0.4847 -0.2221  0.5620
11933TIP3    H257291   6.706   4.802  16.776 -0.8048 -0.2685  0.8041
11934TIP3   OH257292   6.530   6.819   4.769 -0.2256 -0.2457  0.1703
11934TIP3    H157293   6.439   6.818   4.737 -0.2277 -1.2861  0.1575
11934TIP3    H257294   6.574   6.883   4.714 -0.8901  0.0577 -0.0183
11935TIP3   OH257295   4.328   2.474  16.291  0.3045  0.1711 -0.0006
11935TIP3    H157296   4.314   2.381  16.309 -0.6864  0.3007 -0.0266
11935TIP3    H257297   4.323   2.481  16.195 -1.7677  0.5323  0.0788
11936TIP3   OH257298   3.211   5.415  11.171 -0.3023  0.3316 -0.2960
11936TIP3    H157299   3.198   5.509  11.159 -0.3277  0.1480 -2.0511
11936TIP3    H257300   3.122   5.379  11.174 -0.2910  0.3296 -0.0065
11937TIP3   OH257301   3.384   3.485  12.381  0.3474 -0.1272  0.0689
11937TIP3    H157302   3.353   3.446  12.462  0.4768 -0.9483 -0.2649
11937TIP3    H257303   3.317   3.549  12.357 -1.3147 -2.0921 -0.8164
11938TIP3   OH257304   0.485   6.571  14.529  0.5547  0.4028 -0.2781
11938TIP3    H157305   0.539   6.624  14.588  0.6643 -1.0455  0.9997
11938TIP3    H257306   0.515   6.481  14.545 -1.5431 -0.3308 -0.2813
11939TIP3   OH257307   4.540   2.621   1.066  0.1399 -0.0763  0.1536
11939TIP3    H157308   4.608   2.624   1.134 -0.0339 -2.4885  0.5171
11939TIP3    H257309   4.553   2.536   1.024 -1.3588  0.3169 -1.1578
11940TIP3   OH257310   1.205   2.062   5.428  0.3808  0.4064 -0.0365
11940TIP3    H157311   1.133   2.011   5.391  1.6247 -1.6176  0.1929
11940TIP3    H257312   1.261   1.997   5.470  1.9676  2.0066  0.4284
11941TIP3   OH257313   5.740   2.187   4.394 -0.0418  0.5977 -0.6224
11941TIP3    H157314   5.688   2.240   4.333 -0.4629  3.2884  1.8381
11941TIP3    H257315   5.773   2.250   4.458  3.5248 -1.4985 -0.1315
11942TIP3   OH257316   0.695   2.112   1.549 -0.0438  0.4862  0.0461
11942TIP3    H157317   0.771   2.054   1.554 -1.4324 -1.3774  0.8611
11942TIP3    H257318   0.650   2.088   1.468 -0.7965  0.1603  0.5397
11943TIP3   OH257319   3.131   5.683   5.594 -0.0092 -0.0372 -0.2435
11943TIP3    H157320   3.127   5.597   5.553  0.1572 -0.1223 -0.0840
11943TIP3    H257321   3.164   5.666   5.683 -0.3192  0.1486 -0.0909
11944TIP3   OH257322   6.444   3.711  15.919 -0.2808 -0.3834 -0.1006
11944TIP3    H157323   6.479   3.797  15.899  0.4970 -0.8327 -0.7500
11944TIP3    H257324   6.463   3.659  15.841  0.2406 -1.4215  0.6895
11945TIP3   OH257325   6.074   4.637   6.605  0.1561  0.2932  0.3890
11945TIP3    H157326   6.056   4.557   6.556  0.8746  0.0001  0.5865
11945TIP3    H257327   6.154   4.672   6.566  2.0994 -1.1645  2.7184
11946TIP3   OH257328   3.982   6.009   3.081  0.1728  0.4429 -0.0197
11946TIP3    H157329   4.014   5.991   3.169  0.6093 -1.1202 -0.4611
11946TIP3    H257330   3.968   6.104   3.078  1.0151  0.6246  1.4243
11947TIP3   OH257331   4.327   3.677  13.274 -0.5106 -0.0133 -0.5712
11947TIP3    H157332   4.295   3.677  13.364  1.1668 -0.5978  0.0748
11947TIP3    H257333   4.248   3.673  13.220 -1.5220 -0.9311  0.8972
11948TIP3   OH257334   4.788   5.755  15.991 -0.0600 -0.6832 -0.1405
11948TIP3    H157335   4.879   5.761  15.964 -0.5108 -2.4326 -2.3144
11948TIP3    H257336   4.792   5.731  16.084  1.6549  0.1122  0.0163
11949TIP3   OH257337   2.554   3.585   5.214  0.5925 -0.0824  0.5586
11949TIP3    H157338   2.513   3.584   5.301 -1.5217 -0.5192 -0.3583
11949TIP3    H257339   2.483   3.611   5.155  1.7531 -0.6024 -1.1416
11950TIP3   OH257340   4.239   6.460  13.205 -0.2964  0.3890  0.0425
11950TIP3    H157341   4.253   6.425  13.294  0.2615  2.1645  0.7046
11950TIP3    H257342   4.183   6.537  13.219 -2.4846 -0.8357 -1.4891
11951TIP3   OH257343   6.137   2.623  12.374 -0.4541  0.1569  0.2480
11951TIP3    H157344   6.179   2.569  12.308 -1.9771 -1.8838  0.8565
11951TIP3    H257345   6.098   2.696  12.325 -1.1774 -1.0784 -1.0758
11952TIP3   OH257346   5.424   1.550  16.441 -0.2559 -0.0409  0.3061
11952TIP3    H157347   5.364   1.531  16.369 -0.3042  1.3599 -0.0536
11952TIP3    H257348   5.487   1.478  16.439  1.0331  0.9945 -2.5760
11953TIP3   OH257349   2.191   0.404  15.999  0.2025  0.6187 -0.3343
11953TIP3    H157350   2.165   0.313  16.011 -0.8966  0.9275 -0.2895
11953TIP3    H257351   2.140   0.453  16.064  0.0150  1.3832 -1.0359
11954TIP3   OH257352   5.168   4.563  15.079 -0.3877  0.3070 -0.2423
11954TIP3    H157353   5.108   4.637  15.073 -0.8315 -0.0395 -0.1024
11954TIP3    H257354   5.177   4.546  15.172 -0.1903  0.2609 -0.2686
11955TIP3   OH257355   4.987   1.417  14.837  0.3467 -0.6369 -0.0733
11955TIP3    H157356   4.989   1.457  14.749  0.7839 -1.1933 -0.3239
11955TIP3    H257357   4.894   1.410  14.858  0.2112 -1.0904 -0.7753
11956TIP3   OH257358   6.817   4.607  10.481 -0.4392 -0.1651  0.8644
11956TIP3    H157359   6.727   4.581  10.499 -1.3025  1.6408 -0.4256
11956TIP3    H257360   6.840   4.668  10.551 -0.6484  0.2027  0.6219
11957TIP3   OH257361   2.495   5.568   1.302  0.0944  0.0360 -0.1300
11957TIP3    H157362   2.435   5.578   1.376 -0.8261  1.5509 -1.0324
11957TIP3    H257363   2.580   5.592   1.338 -0.1873 -0.0777  0.6523
11958TIP3   OH257364   3.076   1.960  12.082  0.1464 -0.1476 -0.0426
11958TIP3    H157365   3.035   2.036  12.124  0.6090  0.4415 -0.6415
11958TIP3    H257366   3.109   1.907  12.155 -2.4453 -1.1236  0.5281
11959TIP3   OH257367   4.048   0.260  16.238  0.0589  0.1805  0.3558
11959TIP3    H157368   4.039   0.269  16.333  0.1778 -1.7151  0.5901
11959TIP3    H257369   4.001   0.334  16.202 -3.2620 -1.0164  1.8151
11960TIP3   OH257370   1.142   3.220  11.400  0.1263 -0.3305 -0.2531
11960TIP3    H157371   1.145   3.176  11.485 -0.9077 -0.6167 -0.3621
11960TIP3    H257372   1.051   3.248  11.390  0.3030 -0.0402 -1.1390
11961TIP3   OH257373   2.813   6.310  16.591 -0.2817  0.4722  0.3045
11961TIP3    H157374   2.872   6.329  16.664 -1.7920  2.1774  1.1737
11961TIP3    H257375   2.726   6.313  16.631 -1.0243 -0.9314 -1.1322
11962TIP3   OH257376   6.546   4.515  11.235 -0.0141  0.6727 -0.7629
11962TIP3    H157377   6.615   4.574  11.206  1.0129  0.0891  0.4052
11962TIP3    H257378   6.567   4.431  11.195  1.9519 -0.3957  2.1523
11963TIP3   OH257379   5.313   5.465   1.238  0.0089 -0.2636  0.2966
11963TIP3    H157380   5.356   5.550   1.250 -0.2001 -0.1851  0.4985
11963TIP3    H257381   5.237   5.468   1.296 -1.4704  0.4160 -1.5754
11964TIP3   OH257382   6.227   6.521   0.402  0.1966 -0.1443 -0.5844
11964TIP3    H157383   6.288   6.489   0.469 -1.1109  2.1368  1.9015
11964TIP3    H257384   6.182   6.443   0.371  0.6860 -1.2919  1.4295
11965TIP3   OH257385   2.129   0.327  16.914 -0.0927 -0.7186 -0.3481
11965TIP3    H157386   2.151   0.254  16.856  0.7827 -0.6039 -0.1788
11965TIP3    H257387   2.038   0.346  16.895  0.2075 -0.5869 -1.8101
11966TIP3   OH257388   4.856   0.166   1.212  0.0610  0.6228  0.2359
11966TIP3    H157389   4.883   0.161   1.303  0.0408 -1.6826  0.1645
11966TIP3    H257390   4.938   0.168   1.162  0.0696  1.6162  0.2647
11967TIP3   OH257391   3.862   0.008  16.272  0.6432  0.7878 -0.0775
11967TIP3    H157392   3.796  -0.009  16.339  0.8296 -0.1488 -0.1284
11967TIP3    H257393   3.862   0.104  16.263 -1.1663  0.7824 -0.5485
11968TIP3   OH257394   1.341   1.464  14.150  0.3649 -0.7307 -0.2642
11968TIP3    H157395   1.417   1.519  14.166 -0.1449 -0.2835  0.7190
11968TIP3    H257396   1.334   1.408  14.228 -0.6926 -0.2941 -0.0198
11969TIP3   OH257397   1.420   0.372   1.990  0.3445  0.8760  0.1302
11969TIP3    H157398   1.473   0.405   1.918  0.9168  2.4403  1.2322
11969TIP3    H257399   1.341   0.426   1.988  0.3757  0.9427  0.7000
11970TIP3   OH257400   5.635   5.471  12.361 -0.6659  0.0301 -0.4667
11970TIP3    H157401   5.590   5.388  12.376 -1.3826  0.4421 -0.2806
11970TIP3    H257402   5.724   5.446  12.337 -0.5219 -0.7683  0.7955
11971TIP3   OH257403   0.003   4.691  11.659 -0.1956  0.3791 -0.1359
11971TIP3    H157404   0.018   4.693  11.564  0.8064 -0.4577 -0.0138
11971TIP3    H257405  -0.081   4.648  11.669 -0.1681  0.2011 -0.6420
11972TIP3   OH257406   4.764   1.125  15.531 -0.2916  0.2728 -0.5903
11972TIP3    H157407   4.794   1.199  15.479 -2.5429  2.9759  1.6484
11972TIP3    H257408   4.710   1.164  15.600 -3.2138 -3.5897 -0.3577
11973TIP3   OH257409   4.066   4.362  12.623  0.1067 -0.6093 -0.4091
11973TIP3    H157410   4.010   4.438  12.640 -0.7167 -1.1821 -0.4739
11973TIP3    H257411   4.005   4.295  12.589  0.8301 -1.2595 -0.4421
11974TIP3   OH257412   1.298   3.611  14.696 -0.7279  0.3790  0.4676
11974TIP3    H157413   1.302   3.689  14.752 -0.7926  0.0684  0.9156
11974TIP3    H257414   1.349   3.546  14.744  1.1206  0.7417 -0.8974
11975TIP3   OH257415   6.763   5.807  12.477  0.4598  0.5523 -0.1648
11975TIP3    H157416   6.751   5.879  12.539  2.3901 -0.2124  1.1813
11975TIP3    H257417   6.721   5.732  12.520  1.4151  0.1236  0.0388
11976TIP3   OH257418   6.192   4.273   0.392  0.0128 -0.2070  0.6230
11976TIP3    H157419   6.126   4.242   0.454  1.1369 -3.0536  0.5657
11976TIP3    H257420   6.171   4.227   0.310  1.2077 -0.0418  0.2106
11977TIP3   OH257421   2.420   5.607   1.614 -0.6868  0.5790 -0.5202
11977TIP3    H157422   2.445   5.519   1.640 -0.0782  0.6033 -0.9860
11977TIP3    H257423   2.405   5.654   1.696  1.0666  0.6309 -0.2004
11978TIP3   OH257424   0.452   5.259   3.664  0.0677 -0.2397  0.2634
11978TIP3    H157425   0.517   5.242   3.732 -0.1577  0.7598  0.7413
11978TIP3    H257426   0.372   5.280   3.711  0.2570  1.8939 -0.2373
11979TIP3   OH257427   1.702   0.111  16.308 -0.0456 -0.4981  0.2427
11979TIP3    H157428   1.667   0.048  16.372  0.8046  0.8487  2.1459
11979TIP3    H257429   1.684   0.197  16.347  1.2614  0.3541 -0.9383
11980TIP3   OH257430   0.621   5.199  13.974  0.4538  0.5486 -0.2509
11980TIP3    H157431   0.715   5.181  13.973  0.2510 -0.7472  0.9268
11980TIP3    H257432   0.588   5.158  13.894  0.7374 -0.0187 -0.0855
11981TIP3   OH257433   0.977   4.795  15.709 -0.1287  0.3835  0.3549
11981TIP3    H157434   0.926   4.821  15.786  0.6730  0.3664  0.9022
11981TIP3    H257435   0.916   4.804  15.636 -0.5954  1.4106  0.8481
11982TIP3   OH257436   5.726   6.484   1.448 -0.5483 -0.2247 -0.2382
11982TIP3    H157437   5.819   6.463   1.456 -0.5298 -0.3847 -0.8333
11982TIP3    H257438   5.725   6.576   1.423 -0.5549 -0.1916 -0.1180
11983TIP3   OH257439   2.211   4.147   5.863 -0.2359 -0.2035 -0.6571
11983TIP3    H157440   2.292   4.110   5.899 -0.4987 -0.9140 -0.7860
11983TIP3    H257441   2.198   4.228   5.912  0.8987  0.2488 -1.0707
11984TIP3   OH257442   1.151   1.164   2.879  0.4456 -0.1367  0.3577
11984TIP3    H157443   1.216   1.180   2.947 -1.0332  0.7175  1.6229
11984TIP3    H257444   1.115   1.078   2.900  0.1607  0.0185  0.5008
11985TIP3   OH257445   6.812   2.332  14.709  0.7624  0.5615  0.0880
11985TIP3    H157446   6.752   2.359  14.779  0.0781  1.3856 -0.7982
11985TIP3    H257447   6.761   2.270  14.656  0.7268  1.1461 -0.5789
11986TIP3   OH257448   0.305   5.332   2.883  0.0058 -0.3743  0.1379
11986TIP3    H157449   0.258   5.334   2.966  2.4971  0.1240  1.6051
11986TIP3    H257450   0.238   5.305   2.819 -1.8138 -1.4550  2.3591
11987TIP3   OH257451   6.815   4.674  14.860 -0.1656 -0.2196  0.2520
11987TIP3    H157452   6.744   4.727  14.895  0.5109  0.5796  0.4597
11987TIP3    H257453   6.797   4.667  14.767  0.3762  1.4702 -0.0247
11988TIP3   OH257454   3.083   4.551   1.974  0.0678  0.2829 -0.2321
11988TIP3    H157455   3.010   4.489   1.973  0.3611 -0.0632 -0.5701
11988TIP3    H257456   3.074   4.600   1.892  0.4023  0.0162 -0.4292
11989TIP3   OH257457   1.881   5.089  12.599  0.5682  0.2558  0.0881
11989TIP3    H157458   1.919   5.012  12.641 -0.1463  0.4814  1.2099
11989TIP3    H257459   1.799   5.057  12.561  0.8684  0.2086 -0.5366
11990TIP3   OH257460   3.942   4.606  12.692 -0.3032 -0.0408  0.3812
11990TIP3    H157461   3.861   4.641  12.730 -0.6381  2.2770 -2.1360
11990TIP3    H257462   4.012   4.648  12.742 -0.7276  3.0248 -1.3627
11991TIP3   OH257463   0.019   3.618   5.545  0.2648  0.0491 -0.2439
11991TIP3    H157464   0.015   3.549   5.480  0.1912  0.7618 -1.0154
11991TIP3    H257465   0.101   3.664   5.527  0.3707  0.1032  0.3325
11992TIP3   OH257466   0.971   5.639   1.129 -0.1714  0.3052 -0.5079
11992TIP3    H157467   0.894   5.591   1.099 -0.1761 -0.3014  0.4224
11992TIP3    H257468   0.973   5.624   1.223  0.6819  0.9092 -0.4188
11993TIP3   OH257469   5.647   2.338   0.826 -0.2626 -0.2083  0.3247
11993TIP3    H157470   5.559   2.377   0.824  0.0660  0.5620  0.4564
11993TIP3    H257471   5.632   2.244   0.816 -1.0798 -0.0482 -0.0490
11994TIP3   OH257472   5.227   2.081   1.857  0.0057  0.0180 -1.1260
11994TIP3    H157473   5.225   2.010   1.921  0.3912  0.4578 -0.6138
11994TIP3    H257474   5.315   2.119   1.867 -0.2467  0.6534 -1.2949
11995TIP3   OH257475   6.584   3.696  16.493  0.4586 -0.6643 -0.1084
11995TIP3    H157476   6.531   3.753  16.437 -0.5221 -0.7936  0.6578
11995TIP3    H257477   6.647   3.655  16.433  0.6649  0.5987 -0.8072
11996TIP3   OH257478   2.637   4.025  11.770 -0.4555  0.4460  0.3461
11996TIP3    H157479   2.642   3.937  11.807  1.1722  0.2766 -0.1884
11996TIP3    H257480   2.552   4.058  11.798 -0.9683 -1.1738  0.8157
11997TIP3   OH257481   4.752   2.206   5.083  0.0680 -0.5054 -0.2234
11997TIP3    H157482   4.836   2.223   5.039  0.2202  0.7317  0.4889
11997TIP3    H257483   4.777   2.186   5.173 -0.2923 -2.2356 -0.4786
11998TIP3   OH257484   4.713   0.128  13.692  0.1822  0.1011  0.1101
11998TIP3    H157485   4.794   0.101  13.736 -0.2277  0.2857  1.0001
11998TIP3    H257486   4.738   0.140  13.600  1.2802  0.6591  0.4646
11999TIP3   OH257487   6.804   1.273   6.810  0.1780  0.2173 -0.0516
11999TIP3    H157488   6.890   1.271   6.853  0.8391  2.7346 -1.0599
11999TIP3    H257489   6.824   1.298   6.720 -1.4379 -1.9531 -1.0873
12000TIP3   OH257490   4.639   0.429  14.709  0.1087 -0.1151  0.0535
12000TIP3    H157491   4.671   0.519  14.713  0.6650 -0.2829 -0.5064
12000TIP3    H257492   4.714   0.378  14.678 -0.4784 -0.6258 -0.5569
12001TIP3   OH257493   6.008   4.648  14.045  0.1679  0.3147 -0.3060
12001TIP3    H157494   6.096   4.638  14.007 -0.5144 -0.5524 -1.7471
12001TIP3    H257495   5.963   4.567  14.021  0.0817 -1.0553  3.6801
12002TIP3   OH257496   6.016   6.109   1.812  0.4836 -0.1182  1.0484
12002TIP3    H157497   6.029   6.050   1.738 -1.5111 -1.8638  2.0126
12002TIP3    H257498   5.982   6.189   1.772 -2.1407 -1.5806  0.1208
12003TIP3   OH257499   3.439   5.638   5.395 -0.0922 -0.6873  0.2073
12003TIP3    H157500   3.365   5.580   5.414 -0.8815  0.3469  0.3957
12003TIP3    H257501   3.496   5.630   5.472 -0.8141 -0.2868  0.8011
12004TIP3   OH257502   4.126   2.517   3.502 -0.5017 -0.2674 -0.6411
12004TIP3    H157503   4.174   2.486   3.579  1.2894 -1.3245 -2.1299
12004TIP3    H257504   4.092   2.602   3.529  1.7751  0.3102  0.6953
12005TIP3   OH257505   1.638   3.546   2.412 -0.0277  0.2640 -0.2238
12005TIP3    H157506   1.657   3.616   2.350  1.4452 -0.3351 -0.5119
12005TIP3    H257507   1.616   3.590   2.493  0.5395  1.0669 -0.4967
12006TIP3   OH257508   6.062   2.829  12.635 -0.6381 -0.2162 -0.1124
12006TIP3    H157509   5.972   2.835  12.665 -0.5638  0.1630  0.0514
12006TIP3    H257510   6.060   2.767  12.562 -1.1155  0.1576 -0.4214
12007TIP3   OH257511   4.613   4.274  13.366 -0.5639 -0.2650  0.1385
12007TIP3    H157512   4.580   4.196  13.321 -1.6852  0.6868 -0.7689
12007TIP3    H257513   4.618   4.249  13.458 -1.1788 -1.3295 -0.1044
12008TIP3   OH257514   0.061   3.160  15.431  0.5610  0.4036 -0.1688
12008TIP3    H157515   0.012   3.124  15.505 -0.9721 -1.2962 -1.9121
12008TIP3    H257516  -0.002   3.217  15.387  1.1665  0.6867 -0.6830
12009TIP3   OH257517   5.283   6.764  14.028  0.2739  0.3175 -0.1349
12009TIP3    H157518   5.254   6.787  14.116 -0.9863  0.4469 -0.5735
12009TIP3    H257519   5.302   6.848  13.986 -0.4659  0.3471 -0.4269
12010TIP3   OH257520   1.914   6.761  11.656 -0.7482  0.4886 -0.4493
12010TIP3    H157521   1.980   6.734  11.592 -0.5835  0.7587 -0.3960
12010TIP3    H257522   1.840   6.790  11.603 -0.6175  0.6983 -0.5158
12011TIP3   OH257523   6.455   6.146   1.515  0.7030  0.2596  0.1320
12011TIP3    H157524   6.527   6.203   1.541  0.6211  1.4270 -2.0197
12011TIP3    H257525   6.495   6.060   1.506  1.5425  0.6266  0.2396
12012TIP3   OH257526   5.159   0.143   5.300  0.4869  0.3793 -0.0932
12012TIP3    H157527   5.098   0.201   5.345  0.6591 -0.3018  1.0536
12012TIP3    H257528   5.158   0.062   5.352  0.8131 -0.3837 -1.2291
12013TIP3   OH257529   4.464   6.733   5.860 -0.3537  0.1397  0.2666
12013TIP3    H157530   4.427   6.644   5.861 -0.2102  0.0842  1.1254
12013TIP3    H257531   4.413   6.781   5.925 -1.8058  1.2731 -1.6081
12014TIP3   OH257532   4.847   1.320   2.774  0.0840 -0.2022 -0.1198
12014TIP3    H157533   4.905   1.327   2.850 -0.5246 -1.0907  0.4384
12014TIP3    H257534   4.850   1.407   2.734 -2.6289  1.6381  3.1634
12015TIP3   OH257535   4.704   6.583   5.757 -0.3048  0.2079 -0.0059
12015TIP3    H157536   4.672   6.673   5.751 -0.2905  0.2251  0.1736
12015TIP3    H257537   4.722   6.570   5.850  1.1936  0.5473 -0.2161
12016TIP3   OH257538   2.322   1.117  15.856 -0.0215  0.4930 -0.2435
12016TIP3    H157539   2.327   1.041  15.799 -0.9603 -0.0900  0.4271
12016TIP3    H257540   2.290   1.188  15.800 -1.4814 -0.2101 -0.3338
12017TIP3   OH257541   5.999   5.249  11.627 -0.5474  0.1599  0.2782
12017TIP3    H157542   6.092   5.230  11.632 -0.9698 -2.3378 -0.0163
12017TIP3    H257543   5.962   5.213  11.708 -1.8640 -3.7470 -1.8057
12018TIP3   OH257544   3.794   1.981   0.078  0.1379 -0.1218  0.1201
12018TIP3    H157545   3.776   2.069   0.109  1.8016  0.3865 -0.2619
12018TIP3    H257546   3.767   1.981  -0.013  0.3717  0.0802  0.0506
12019TIP3   OH257547   2.965   0.323  15.149 -0.1757  0.3253  0.2256
12019TIP3    H157548   2.951   0.265  15.074 -1.9525 -0.6998  1.2824
12019TIP3    H257549   2.941   0.410  15.117  0.0402  0.0679 -0.6618
12020TIP3   OH257550   1.918   4.483   0.495 -0.7158  0.0121  0.7460
12020TIP3    H157551   1.959   4.561   0.531 -2.1210  0.6858  0.9502
12020TIP3    H257552   1.929   4.492   0.400 -1.0749  0.5759  0.7572
12021TIP3   OH257553   5.117   1.549  13.613 -0.2841 -0.8001  0.4008
12021TIP3    H157554   5.189   1.504  13.657  0.7643  1.7624  1.4912
12021TIP3    H257555   5.145   1.555  13.521 -0.5151 -2.4009  0.1965
12022TIP3   OH257556   2.534   5.095   4.947 -0.1568  0.7332 -0.2670
12022TIP3    H157557   2.465   5.139   4.897 -1.8835  1.3493  2.4272
12022TIP3    H257558   2.495   5.080   5.033  2.6280 -0.2123  0.9478
12023TIP3   OH257559   1.969   4.714   1.939  0.2804 -0.4655  0.1600
12023TIP3    H157560   1.910   4.697   2.012 -0.7718 -0.3553 -0.6467
12023TIP3    H257561   2.047   4.753   1.979 -1.6029  2.8613  0.9462
12024TIP3   OH257562   6.404   5.419   0.967  0.0963 -0.3514  0.3633
12024TIP3    H157563   6.441   5.405   0.880  1.2764 -0.3657  0.8425
12024TIP3    H257564   6.359   5.503   0.961  0.2740 -0.2918 -0.2276
12025TIP3   OH257565   6.805   4.744   2.584 -0.2133  0.3776 -0.4469
12025TIP3    H157566   6.852   4.776   2.507 -0.8874 -1.8796 -1.8661
12025TIP3    H257567   6.873   4.737   2.651  0.7165  0.8385 -1.3023
12026TIP3   OH257568   6.594   2.193  14.546 -0.1629 -0.0136  0.4146
12026TIP3    H157569   6.608   2.099  14.538  1.5019  0.0012  2.2651
12026TIP3    H257570   6.524   2.213  14.484  1.6286 -1.8942 -2.4701
12027TIP3   OH257571   0.544   0.343   3.729  0.2173  0.0233 -0.2591
12027TIP3    H157572   0.451   0.349   3.750  0.4352  2.0444  0.3790
12027TIP3    H257573   0.563   0.424   3.682  1.8304  0.0395  0.3507
12028TIP3   OH257574   2.326   0.109   2.971 -0.1580 -0.3212 -0.0721
12028TIP3    H157575   2.356   0.025   2.938 -1.8872 -0.4577 -1.4280
12028TIP3    H257576   2.252   0.088   3.028  1.1149  0.1219  1.8370
12029TIP3   OH257577   6.404   5.277  13.471 -0.2993  0.0532 -0.3771
12029TIP3    H157578   6.354   5.199  13.495  0.7367 -1.1009 -1.7807
12029TIP3    H257579   6.454   5.250  13.394  0.5020  1.9550 -0.5658
12030TIP3   OH257580   4.083   5.532  12.303 -0.5071 -0.2091 -0.2805
12030TIP3    H157581   4.086   5.479  12.224  0.2005 -0.1174 -0.3237
12030TIP3    H257582   4.068   5.470  12.374 -0.9179 -0.3189 -0.4644
12031TIP3   OH257583   5.317   6.005   1.019 -0.1071  0.2486  0.0224
12031TIP3    H157584   5.364   5.922   1.026 -0.6406  0.0384  1.3195
12031TIP3    H257585   5.225   5.981   1.020 -0.3501  0.6171 -2.9978
12032TIP3   OH257586   6.819   5.519   2.817  0.4130  0.0222 -0.9706
12032TIP3    H157587   6.823   5.429   2.849  1.3200  0.1545 -0.6968
12032TIP3    H257588   6.780   5.568   2.889  0.8247  0.0131 -0.7383
12033TIP3   OH257589   4.337   3.964  11.651 -0.3213  0.0300 -0.5165
12033TIP3    H157590   4.378   3.959  11.564  0.0405 -0.5075 -0.3182
12033TIP3    H257591   4.376   3.892  11.701  1.5039  1.9055  0.9423
12034TIP3   OH257592   2.717   2.824  15.852 -0.2954  0.5054 -0.2806
12034TIP3    H157593   2.757   2.854  15.934 -0.2266  0.3958 -0.2744
12034TIP3    H257594   2.623   2.838  15.864 -0.2210  1.1787 -0.4647
12035TIP3   OH257595   1.952   4.055  12.921 -0.2341 -0.7329  0.2051
12035TIP3    H157596   2.009   4.087  12.851 -0.7888 -0.2421 -0.0297
12035TIP3    H257597   1.976   3.963  12.930 -1.0499 -1.1652 -1.5527
12036TIP3   OH257598   6.597   1.302   0.942 -0.0763 -1.2794 -1.4220
12036TIP3    H157599   6.557   1.246   0.875 -0.4786 -1.8834 -0.6886
12036TIP3    H257600   6.567   1.391   0.920  0.8237 -1.2928 -2.7750
12037TIP3   OH257601   2.782   4.624  15.115  0.0511  0.2159 -0.4265
12037TIP3    H157602   2.701   4.574  15.110 -0.2296  0.7979 -2.2520
12037TIP3    H257603   2.817   4.623  15.026  2.2906 -0.3655  0.3921
12038TIP3   OH257604   4.539   1.816  15.562  0.0786  0.2771 -0.5388
12038TIP3    H157605   4.545   1.775  15.476 -1.2450  1.0100 -1.0072
12038TIP3    H257606   4.585   1.900  15.552  0.5843  0.0306 -0.3072
12039TIP3   OH257607   0.511   1.545   2.407  0.3250  0.5748  0.2155
12039TIP3    H157608   0.474   1.536   2.319  0.5466  0.8081  0.0962
12039TIP3    H257609   0.531   1.638   2.416  1.5418  0.3634 -0.0077
12040TIP3   OH257610   5.345   4.900   4.309 -0.4555  0.4091  0.2797
12040TIP3    H157611   5.315   4.810   4.315 -1.2285  0.7087  1.0865
12040TIP3    H257612   5.334   4.923   4.216 -1.0230 -0.0595  0.2299
12041TIP3   OH257613   4.812   3.310  15.086  0.5547  0.2401  0.0653
12041TIP3    H157614   4.807   3.300  14.991  0.6799  0.7221  0.0035
12041TIP3    H257615   4.848   3.398  15.098  3.1859 -0.8356  0.5412
12042TIP3   OH257616   0.884   6.276  16.547 -0.0973  0.0072  0.4951
12042TIP3    H157617   0.857   6.195  16.591 -0.6689 -0.6875 -1.0367
12042TIP3    H257618   0.952   6.247  16.485 -0.9164  0.5275 -0.6844
12043TIP3   OH257619   6.390   4.597   4.599  0.2514 -0.0731  0.2367
12043TIP3    H157620   6.314   4.582   4.543  0.5053  0.9244 -0.4168
12043TIP3    H257621   6.423   4.509   4.620 -1.9537 -0.6033  1.8296
12044TIP3   OH257622   0.516   0.402  15.223  0.1687  0.2741 -0.0288
12044TIP3    H157623   0.459   0.354  15.284  1.2539  0.2636  1.0245
12044TIP3    H257624   0.459   0.426  15.150 -0.7232 -1.4021  0.0744
12045TIP3   OH257625   0.269   6.006  15.640  0.8330 -0.4523 -0.2731
12045TIP3    H157626   0.219   5.944  15.587  1.0480 -1.7523  0.9910
12045TIP3    H257627   0.257   5.976  15.730  0.6430  1.5701  0.4400
12046TIP3   OH257628   5.324   3.859   5.998 -0.3479  0.7021  0.4704
12046TIP3    H157629   5.307   3.796   5.928  0.3852  0.6933  0.2847
12046TIP3    H257630   5.414   3.840   6.025 -0.6515  0.6444  1.4812
12047TIP3   OH257631   3.776   4.661  12.049 -0.1466 -0.0375 -0.0287
12047TIP3    H157632   3.767   4.718  11.973 -1.1650  1.3249  1.0805
12047TIP3    H257633   3.715   4.589  12.032  0.1906 -0.1602 -0.8184
12048TIP3   OH257634   0.616   4.077   1.003 -0.3433 -0.0126  0.2770
12048TIP3    H157635   0.586   4.038   1.085  0.5821 -0.2916  0.4959
12048TIP3    H257636   0.584   4.018   0.935 -1.6706  0.5669  0.3799
12049TIP3   OH257637   4.563   6.625  12.758 -0.1913  0.1227  0.2820
12049TIP3    H157638   4.573   6.585  12.672 -2.5413 -2.0266  0.8884
12049TIP3    H257639   4.611   6.567  12.818 -1.8916 -0.7124  0.8966
12050TIP3   OH257640   1.046   6.263   1.912  0.0568 -0.0670 -0.0243
12050TIP3    H157641   1.062   6.175   1.943 -0.9857 -0.3899 -0.3676
12050TIP3    H257642   0.977   6.297   1.969 -0.4132  0.0690 -0.6572
12051TIP3   OH257643   0.227   6.769   3.719  1.0240  0.0968 -0.2948
12051TIP3    H157644   0.259   6.717   3.646 -0.4536 -0.5444 -0.5171
12051TIP3    H257645   0.276   6.738   3.795  0.1108 -1.7318 -0.4037
12052TIP3   OH257646   4.477   0.089   4.089  0.1626 -0.0054 -0.0611
12052TIP3    H157647   4.456   0.055   4.002 -0.6436  1.3022 -0.3938
12052TIP3    H257648   4.393   0.094   4.134  0.3968  0.6310  0.3161
12053TIP3   OH257649   3.769   2.276  11.502  0.2475  0.0578 -0.4290
12053TIP3    H157650   3.726   2.308  11.423  0.2382  0.0062 -0.4451
12053TIP3    H257651   3.698   2.244  11.557  0.3721 -1.9192 -1.3066
12054TIP3   OH257652   0.904   2.506   5.123 -0.5056 -0.0095  0.0740
12054TIP3    H157653   0.866   2.419   5.108  1.3750 -0.7459 -0.7085
12054TIP3    H257654   0.943   2.500   5.211  1.2916 -0.6595 -0.7138
12055TIP3   OH257655   5.743   1.648   5.594 -0.3830  0.4429  0.0329
12055TIP3    H157656   5.723   1.742   5.588 -1.4398  0.4289  2.2686
12055TIP3    H257657   5.735   1.628   5.687  1.6845 -1.4979 -0.1043
12056TIP3   OH257658   2.886   0.941   4.412  0.0721  0.4183  0.5255
12056TIP3    H157659   2.904   0.916   4.502  1.1362  0.3963  0.3116
12056TIP3    H257660   2.962   0.911   4.362 -0.4261  0.5747 -0.3566
12057TIP3   OH257661   1.952   6.713   1.367 -0.1192  0.3199  0.1352
12057TIP3    H157662   2.020   6.757   1.317 -0.5735  0.4163 -0.4078
12057TIP3    H257663   1.871   6.759   1.344 -0.2068  0.9745  1.6822
12058TIP3   OH257664   6.410   1.351  16.767  0.0689 -0.2737 -0.1709
12058TIP3    H157665   6.404   1.272  16.713 -2.8544  1.1512 -2.2202
12058TIP3    H257666   6.456   1.414  16.712  1.7313 -0.2721  1.1600
12059TIP3   OH257667   4.117   4.777   0.445 -1.0002  0.2012  0.1614
12059TIP3    H157668   4.199   4.769   0.397 -0.2963  1.0070  1.1922
12059TIP3    H257669   4.091   4.869   0.434 -1.5657  0.0514  0.1768
12060TIP3   OH257670   5.110   6.796   6.359  0.3166 -0.9223 -0.1815
12060TIP3    H157671   5.159   6.732   6.307  2.0000  0.4114 -0.3216
12060TIP3    H257672   5.132   6.881   6.319 -1.4340 -0.1947  0.3261
12061TIP3   OH257673   3.493   0.894   3.807  0.0053 -0.1680 -0.0883
12061TIP3    H157674   3.577   0.855   3.781 -0.5843 -2.7192  1.4895
12061TIP3    H257675   3.453   0.829   3.864 -1.1823  2.7748  2.7322
12062TIP3   OH257676   4.921   4.448   2.049 -0.6587  0.3825  0.8394
12062TIP3    H157677   4.901   4.362   2.085  1.0179  0.1926  1.4002
12062TIP3    H257678   4.945   4.431   1.957 -2.1548  0.5138  0.4012
12063TIP3   OH257679   1.214   1.729   0.351  0.4223  0.3246  0.2264
12063TIP3    H157680   1.143   1.687   0.400  1.4163 -0.7403  0.7901
12063TIP3    H257681   1.174   1.753   0.268 -0.4488 -0.8343  0.2780
12064TIP3   OH257682   3.014   0.638   3.506  0.1431  0.0920  0.4277
12064TIP3    H157683   3.074   0.653   3.579 -0.5108  2.0027  0.6256
12064TIP3    H257684   3.067   0.653   3.427  0.6782 -1.3100  0.4987
12065TIP3   OH257685   4.857   3.083   0.023 -0.0052 -0.3209 -0.3313
12065TIP3    H157686   4.899   3.048  -0.055  2.1912  2.7047 -0.6636
12065TIP3    H257687   4.930   3.102   0.083 -1.3571  0.4398  1.1425
12066TIP3   OH257688   6.664   2.188   2.086 -0.6153 -0.1760 -0.7258
12066TIP3    H157689   6.584   2.139   2.107  0.4798 -1.0934  1.6759
12066TIP3    H257690   6.681   2.241   2.164  1.4128 -0.4197 -0.9545
12067TIP3   OH257691   5.587   3.044   5.407  0.2184 -0.4114  0.3928
12067TIP3    H157692   5.667   3.063   5.358  0.0419  1.5643  0.8027
12067TIP3    H257693   5.562   2.956   5.378  0.9922  0.0440 -1.8566
12068TIP3   OH257694   2.476   2.870   4.926  0.6593 -0.2319  0.1089
12068TIP3    H157695   2.489   2.957   4.888 -0.7186  0.1104  0.3326
12068TIP3    H257696   2.534   2.812   4.877  2.3429  0.9687  0.6024
12069TIP3   OH257697   4.627   1.241   3.663  0.0008  0.0908  0.1130
12069TIP3    H157698   4.605   1.307   3.598 -0.2314  0.6156  0.7146
12069TIP3    H257699   4.556   1.245   3.727  0.3113 -0.2940  0.4932
12070TIP3   OH257700   5.961   5.791  16.837  0.2637  0.7081 -0.7395
12070TIP3    H157701   6.041   5.749  16.805  0.4312  1.4480 -1.3277
12070TIP3    H257702   5.905   5.798  16.759  0.0090  1.0516 -0.5287
12071TIP3   OH257703   2.741   5.064  15.538 -0.0320  0.0701 -0.2137
12071TIP3    H157704   2.829   5.096  15.559 -0.0737  1.1878 -1.6242
12071TIP3    H257705   2.684   5.138  15.558 -0.2986  0.4220 -2.0930
12072TIP3   OH257706   3.308   1.391  15.356 -0.0406 -0.6272  0.0708
12072TIP3    H157707   3.398   1.419  15.339 -0.7527  0.4645 -2.2289
12072TIP3    H257708   3.262   1.402  15.273 -2.6593  0.2240  1.4944
12073TIP3   OH257709   6.666   6.506  13.777 -0.0407 -0.3499  0.0215
12073TIP3    H157710   6.693   6.486  13.867 -0.8166  0.0078  0.3435
12073TIP3    H257711   6.587   6.560  13.787 -0.9754 -1.5022 -0.8757
12074TIP3   OH257712   2.595   3.095  11.510  0.3281  0.2954  0.3637
12074TIP3    H157713   2.581   3.023  11.448  1.6117  0.8625 -0.6427
12074TIP3    H257714   2.673   3.070  11.559 -1.4731 -0.8273  2.8521
12075TIP3   OH257715   6.643   2.511   1.584  0.1048 -0.1415 -0.6034
12075TIP3    H157716   6.577   2.579   1.571 -1.7026 -1.8781 -1.0578
12075TIP3    H257717   6.706   2.526   1.514 -1.6416 -0.4127 -2.3392
12076TIP3   OH257718   6.197   6.315  14.935  0.7202 -0.0949 -0.9826
12076TIP3    H157719   6.205   6.299  14.841  1.1967  1.5357 -1.2543
12076TIP3    H257720   6.288   6.319  14.966  0.5673 -0.8607 -0.3833
12077TIP3   OH257721   3.550   6.150   1.247  0.0786 -0.1804 -0.1512
12077TIP3    H157722   3.539   6.206   1.170 -0.1060 -1.6385 -1.2162
12077TIP3    H257723   3.644   6.130   1.250  0.0882 -0.1176  0.0212
12078TIP3   OH257724   5.288   6.174   4.642 -0.5261  0.0834 -0.3769
12078TIP3    H157725   5.311   6.203   4.730 -1.2650  0.2731 -0.2427
12078TIP3    H257726   5.229   6.241   4.609 -1.4717 -0.7578 -0.4358
12079TIP3   OH257727   6.684   6.101   2.119  0.2377  0.0451  0.1173
12079TIP3    H157728   6.613   6.164   2.115 -0.1430 -0.3828  0.0545
12079TIP3    H257729   6.704   6.081   2.027 -1.0028 -1.4223  0.1220
12080TIP3   OH257730   3.469   2.345  12.362  0.3266  0.3694 -0.4960
12080TIP3    H157731   3.542   2.332  12.301  0.4338  0.8490 -0.4723
12080TIP3    H257732   3.505   2.399  12.432 -0.3488  1.5804 -1.0588
12081TIP3   OH257733   6.347   2.827   3.673  0.2303 -0.4226  0.0275
12081TIP3    H157734   6.424   2.864   3.630  0.1678 -0.9022 -0.5086
12081TIP3    H257735   6.274   2.853   3.618  0.1114 -0.7664  0.0223
12082TIP3   OH257736   3.586   3.362   1.958 -0.2834 -0.2083 -0.4995
12082TIP3    H157737   3.627   3.278   1.937  1.5926  0.8809 -1.4895
12082TIP3    H257738   3.529   3.343   2.032 -0.5483 -2.5027 -1.2137
12083TIP3   OH257739   3.464   4.251  13.144 -0.2130 -0.4249 -0.2693
12083TIP3    H157740   3.418   4.326  13.105 -2.0069 -0.6709  1.2451
12083TIP3    H257741   3.461   4.268  13.238  2.4802 -0.7025 -0.0694
12084TIP3   OH257742   2.048   4.105  11.464 -0.9329  0.2586 -0.2089
12084TIP3    H157743   2.052   4.031  11.404 -2.9944  1.0338 -1.4374
12084TIP3    H257744   2.023   4.179  11.408  3.9636  2.7299  0.3281
12085TIP3   OH257745   2.459   2.567   0.003 -0.1645 -0.2522  0.2568
12085TIP3    H157746   2.387   2.515  -0.033 -0.3713 -1.0536  1.7543
12085TIP3    H257747   2.497   2.512   0.071 -0.4668  1.5875  2.0128
12086TIP3   OH257748   6.031   0.690  12.782 -0.3573 -0.2555  0.3564
12086TIP3    H157749   6.024   0.672  12.875 -0.2032 -1.1835  0.1977
12086TIP3    H257750   6.123   0.674  12.761 -0.5121 -0.6023 -0.0688
12087TIP3   OH257751   5.051   2.184  16.163  0.3142 -0.2570 -0.1196
12087TIP3    H157752   4.980   2.142  16.211 -1.1496  1.3373 -0.8077
12087TIP3    H257753   5.130   2.162  16.213 -0.8934 -0.3430  1.8507
12088TIP3   OH257754   6.063   1.589  17.125 -0.1497  0.0615  0.7883
12088TIP3    H157755   6.101   1.565  17.040  0.0001 -0.9951  1.1434
12088TIP3    H257756   6.087   1.681  17.136  2.4523 -0.5609  1.0515
12089TIP3   OH257757   2.970   3.823  14.907  0.1339  0.5173  1.0243
12089TIP3    H157758   2.910   3.824  14.833 -0.3775  0.9124  1.4354
12089TIP3    H257759   3.038   3.886  14.885  1.6884 -1.5253 -0.4568
12090TIP3   OH257760   6.502   0.879   3.878 -0.0118 -0.0864  0.0052
12090TIP3    H157761   6.475   0.946   3.941 -0.4508  1.1145 -1.4128
12090TIP3    H257762   6.421   0.854   3.834  0.2468 -1.1373  0.1016
12091TIP3   OH257763   2.855   2.150   0.194  0.3288  0.5446 -0.1208
12091TIP3    H157764   2.848   2.161   0.099  0.4232  0.1091 -0.1808
12091TIP3    H257765   2.807   2.070   0.213 -0.7409  1.2715  0.3646
12092TIP3   OH257766   3.797   2.735  11.650  0.1494 -0.4247 -0.7928
12092TIP3    H157767   3.754   2.809  11.606  0.8900 -0.5280 -1.7258
12092TIP3    H257768   3.809   2.765  11.740 -1.8621 -0.3951 -0.4907
12093TIP3   OH257769   0.204   5.712   2.816  0.7284 -0.0894  0.5429
12093TIP3    H157770   0.247   5.729   2.900 -0.5279 -1.6636  1.5751
12093TIP3    H257771   0.137   5.647   2.837 -2.7610  2.7567 -0.7363
12094TIP3   OH257772   4.120   5.946   2.844 -0.2557 -0.3615  0.2720
12094TIP3    H157773   4.071   5.975   2.921  0.3209  1.5581 -0.0434
12094TIP3    H257774   4.070   5.980   2.770  0.6640  0.2100 -0.1015
12095TIP3   OH257775   1.713   2.090  15.600  0.3594 -0.4497  1.1372
12095TIP3    H157776   1.756   2.169  15.632  0.0675 -0.1694  0.8324
12095TIP3    H257777   1.769   2.059  15.529 -1.3722  1.4885 -1.2120
12096TIP3   OH257778   0.135   1.334   5.336 -0.1122  0.3846 -0.6692
12096TIP3    H157779   0.225   1.307   5.313  0.3749  1.2162  0.1935
12096TIP3    H257780   0.125   1.307   5.427 -1.4160 -1.3539 -1.2738
12097TIP3   OH257781   2.906   6.765  16.187  0.5022  0.4074 -0.3518
12097TIP3    H157782   2.903   6.766  16.091 -1.3919 -0.4734 -0.3565
12097TIP3    H257783   2.845   6.695  16.211  2.2372 -0.5868  1.4780
12098TIP3   OH257784   1.962   0.182   4.547  0.7629  0.2986 -0.1762
12098TIP3    H157785   1.877   0.146   4.520  0.1693  0.9916  0.6746
12098TIP3    H257786   2.012   0.106   4.577  0.1529 -0.0269  0.0380
12099TIP3   OH257787   6.657   1.306   0.480 -0.1487  0.1823  0.0797
12099TIP3    H157788   6.731   1.325   0.423  1.9101 -2.8241  1.4553
12099TIP3    H257789   6.667   1.365   0.554 -0.0700  0.8839 -0.4862
12100TIP3   OH257790   4.739   5.633  16.231  0.0031  0.0050  0.4022
12100TIP3    H157791   4.767   5.630  16.323 -1.2157 -2.0370  0.7470
12100TIP3    H257792   4.644   5.627  16.234 -0.1774  1.4543 -0.9735
12101TIP3   OH257793   5.987   2.026   1.038 -0.7565  0.9148 -0.0107
12101TIP3    H157794   5.892   2.024   1.033 -0.8672  3.2029  0.2149
12101TIP3    H257795   6.015   2.071   0.958  0.2186 -0.3289 -0.4195
12102TIP3   OH257796   0.735   6.776   1.930 -0.2988 -0.1268  0.4702
12102TIP3    H157797   0.718   6.830   1.853  0.6207  1.2088  1.1679
12102TIP3    H257798   0.655   6.781   1.981  0.5266  2.5845  1.6611
12103TIP3   OH257799   1.082   2.987   4.468  0.5154 -0.0173  0.2553
12103TIP3    H157800   1.009   2.928   4.451  1.6200 -1.8708  1.4941
12103TIP3    H257801   1.042   3.073   4.483 -1.3373 -0.8604  0.3847
12104TIP3   OH257802   4.893   2.422  11.400 -0.0979  0.4555 -0.2038
12104TIP3    H157803   4.914   2.417  11.306 -0.1014  1.2686 -0.2525
12104TIP3    H257804   4.799   2.404  11.404  0.1451 -0.9478 -0.2067
12105TIP3   OH257805   5.106   6.647  11.231 -0.4421  0.1311 -0.1908
12105TIP3    H157806   5.027   6.629  11.180 -0.4801  1.2492 -0.5569
12105TIP3    H257807   5.170   6.675  11.165 -0.1120  0.3956  0.2431
12106TIP3   OH257808   5.340   3.146  15.645 -0.0674 -0.3533 -0.2601
12106TIP3    H157809   5.345   3.133  15.550 -1.2548 -1.1350 -0.2370
12106TIP3    H257810   5.290   3.226  15.655  0.1970 -0.1818 -0.2846
12107TIP3   OH257811   4.336   2.074  10.484  0.2416 -0.3140 -0.2722
12107TIP3    H157812   4.301   2.124  10.411  0.6731  0.5688  0.1212
12107TIP3    H257813   4.287   2.104  10.560  2.5477  1.8382  0.5186
12108TIP3   OH257814   1.859   0.180   0.052 -0.7464  0.3305 -0.2332
12108TIP3    H157815   1.812   0.152  -0.027 -0.1533  1.0046 -0.8287
12108TIP3    H257816   1.933   0.230   0.020  0.7639 -1.2304  0.6745
12109TIP3   OH257817   0.426   4.091  11.627  0.2974 -0.8862 -0.2164
12109TIP3    H157818   0.395   4.003  11.605 -1.2819 -0.0915 -1.4364
12109TIP3    H257819   0.389   4.147  11.558 -1.0743  1.1343  1.9864
12110TIP3   OH257820   5.677   1.545  16.804 -0.2816  0.1482 -0.2615
12110TIP3    H157821   5.722   1.621  16.841 -1.3487  1.6246 -1.8527
12110TIP3    H257822   5.744   1.478  16.798  0.3361  0.3644  2.6906
12111TIP3   OH257823   4.524   4.007  12.843  0.5902 -0.6219 -0.0419
12111TIP3    H157824   4.496   4.095  12.870  1.7987  0.4465 -2.0699
12111TIP3    H257825   4.617   4.017  12.822  0.4045 -2.0386 -1.7109
12112TIP3   OH257826   4.039   4.104   0.644 -0.1023  0.6647  0.0714
12112TIP3    H157827   3.995   4.181   0.607 -0.5586  0.7278  0.7239
12112TIP3    H257828   4.014   4.032   0.586  0.5696  1.0541 -0.7179
12113TIP3   OH257829   2.404   3.428  12.321  0.3489  0.1811 -0.6689
12113TIP3    H157830   2.438   3.452  12.407 -0.5373 -1.3156  0.1315
12113TIP3    H257831   2.483   3.415  12.267  1.0211 -1.0737  0.5524
12114TIP3   OH257832   3.418   0.180  16.215 -0.1898  0.2977 -1.2666
12114TIP3    H157833   3.347   0.116  16.226 -0.4060  0.4704 -1.6104
12114TIP3    H257834   3.490   0.146  16.268 -0.4250 -0.0454 -1.1609
12115TIP3   OH257835   6.096   3.424   2.153 -0.0439  0.5925 -0.4632
12115TIP3    H157836   6.158   3.355   2.131 -0.1095  0.4993 -0.3555
12115TIP3    H257837   6.015   3.378   2.175 -0.2153  0.7204 -0.8117
12116TIP3   OH257838   1.718   1.014   1.907  0.3126 -0.1787 -0.2887
12116TIP3    H157839   1.721   1.092   1.852 -0.2921 -0.4629 -0.7382
12116TIP3    H257840   1.749   0.944   1.850  0.4909 -0.3315 -0.0048
12117TIP3   OH257841   2.056   3.059  13.678 -0.7180 -0.0446 -0.1006
12117TIP3    H157842   2.071   3.153  13.673  0.5665 -0.2884 -2.0576
12117TIP3    H257843   2.055   3.030  13.587  0.7934 -2.1581  0.4711
12118TIP3   OH257844   0.435   0.011   4.043  0.0203  0.4962  0.0840
12118TIP3    H157845   0.408  -0.073   4.007  0.4238  0.6302 -0.5436
12118TIP3    H257846   0.371   0.030   4.112  0.0842 -0.4497  0.4121
12119TIP3   OH257847   6.432   1.579   0.085 -0.0371  0.2460  0.2837
12119TIP3    H157848   6.408   1.668   0.061  0.8627  0.1201 -1.2112
12119TIP3    H257849   6.417   1.528   0.005  1.1900 -0.5989  0.5688
12120TIP3   OH257850   3.540   4.069  14.401  0.6074 -0.3516 -0.3984
12120TIP3    H157851   3.585   4.135  14.454  1.2561 -0.9453 -0.1882
12120TIP3    H257852   3.450   4.069  14.433  0.7000  0.1489 -0.1309
12121TIP3   OH257853   4.864   3.930  15.415  0.3206 -0.6204  0.0523
12121TIP3    H157854   4.882   3.837  15.397  0.8654 -0.4355 -0.4010
12121TIP3    H257855   4.829   3.931  15.504  0.2565 -1.2670  0.0438
12122TIP3   OH257856   4.449   2.888   0.481 -0.1466  0.8044 -0.0142
12122TIP3    H157857   4.464   2.839   0.562  0.1995 -0.7377 -0.9700
12122TIP3    H257858   4.506   2.847   0.417 -0.4786  1.9387 -1.0863
12123TIP3   OH257859   1.780   5.012   2.134  0.2273  0.0083  0.4593
12123TIP3    H157860   1.758   4.979   2.047  2.5087  0.2267 -0.2716
12123TIP3    H257861   1.801   5.105   2.120  1.4924 -0.1677  1.0416
12124TIP3   OH257862   5.088   3.262  14.543  0.2154 -0.2068 -0.2873
12124TIP3    H157863   5.055   3.288  14.457 -2.6995 -2.2995  0.0488
12124TIP3    H257864   5.073   3.339  14.598  1.3396  0.8591 -1.4046
12125TIP3   OH257865   4.570   4.926   1.148 -0.2837  0.5582 -0.5045
12125TIP3    H157866   4.477   4.907   1.161 -0.4739  1.2440 -0.8309
12125TIP3    H257867   4.614   4.883   1.222 -0.9566  1.0665  0.2124
12126TIP3   OH257868   1.676   3.536   2.897  0.0928 -0.2455  0.4897
12126TIP3    H157869   1.648   3.623   2.926  0.1924 -0.3376  0.8706
12126TIP3    H257870   1.718   3.498   2.974 -0.4483 -0.8478  0.5009
12127TIP3   OH257871   5.885   6.734   4.668 -0.2240 -0.2723 -0.2569
12127TIP3    H157872   5.930   6.657   4.703 -1.2266 -0.2600  1.1583
12127TIP3    H257873   5.952   6.803   4.671 -0.1625 -0.3497  1.4438
12128TIP3   OH257874   4.424   1.490  12.642 -0.3735  0.3961 -0.6280
12128TIP3    H157875   4.466   1.404  12.639 -0.5512  0.2687  0.1550
12128TIP3    H257876   4.353   1.484  12.578 -2.2242 -1.0852  1.4050
12129TIP3   OH257877   2.968   4.321  14.390  0.4191  0.3929 -0.6775
12129TIP3    H157878   2.985   4.405  14.346 -0.7854  0.4362 -1.1052
12129TIP3    H257879   2.991   4.255  14.325  2.2636  0.3370 -0.0180
12130TIP3   OH257880   1.189   1.169  16.058 -0.3890 -0.1313  0.1573
12130TIP3    H157881   1.158   1.258  16.041  0.7499  0.1194 -0.7510
12130TIP3    H257882   1.136   1.115  16.000  0.2295  0.1951 -0.7405
12131TIP3   OH257883   5.654   5.133   5.115  0.0575 -0.6875  0.1898
12131TIP3    H157884   5.604   5.185   5.052  2.7258  1.2894 -0.4964
12131TIP3    H257885   5.627   5.167   5.201  0.6604  0.8486 -0.1939
12132TIP3   OH257886   2.680   4.984   1.807 -0.0404 -0.5682 -0.1900
12132TIP3    H157887   2.616   5.002   1.738 -0.1026 -1.1754 -0.2998
12132TIP3    H257888   2.738   4.918   1.769  1.0569  0.4316 -0.3263
12133TIP3   OH257889   3.306   6.191   0.062  0.3288  0.3426 -0.1355
12133TIP3    H157890   3.359   6.221  -0.012 -1.5085 -1.9397 -2.5883
12133TIP3    H257891   3.252   6.266   0.086  0.6033  1.0041 -1.5130
12134TIP3   OH257892   4.143   1.703   3.326 -0.2400  0.5511  0.5852
12134TIP3    H157893   4.173   1.755   3.252  1.5815 -0.9804  0.1562
12134TIP3    H257894   4.077   1.644   3.290  1.0327 -0.5722 -0.0209
12135TIP3   OH257895   1.866   6.217  10.811 -0.1901  0.3792 -0.1674
12135TIP3    H157896   1.785   6.185  10.771 -0.2687  1.2540 -0.7465
12135TIP3    H257897   1.884   6.156  10.882 -0.1076 -1.1800 -1.4690
12136TIP3   OH257898   0.917   2.281  16.196 -0.5365  0.1716 -0.1084
12136TIP3    H157899   0.832   2.248  16.224 -0.9216  0.1595 -1.2337
12136TIP3    H257900   0.974   2.203  16.195 -1.1291 -0.2703 -1.5927
12137TIP3   OH257901   0.909   0.316   5.311  0.0631  0.3299  0.2248
12137TIP3    H157902   0.912   0.254   5.239  0.1650  0.6328 -0.0361
12137TIP3    H257903   0.945   0.397   5.274  1.3512  0.1317  0.9682
12138TIP3   OH257904   6.039   4.647  12.714 -0.4003 -0.1305  0.4047
12138TIP3    H157905   6.080   4.730  12.739  0.9929 -0.2167 -1.4345
12138TIP3    H257906   6.112   4.585  12.705 -1.1148 -0.8158 -0.9823
12139TIP3   OH257907   3.527   0.395  13.586 -0.0216  0.2856 -0.2406
12139TIP3    H157908   3.440   0.380  13.624  0.9075  0.0460  1.9320
12139TIP3    H257909   3.563   0.307  13.576  0.1770  0.4118 -0.6178
12140TIP3   OH257910   4.630   3.216   4.643  0.3903  0.1748  0.4943
12140TIP3    H157911   4.602   3.124   4.639 -0.7488  0.5060  0.3677
12140TIP3    H257912   4.684   3.228   4.565  0.7623 -0.4491  0.6468
12141TIP3   OH257913   1.631   0.273  11.372  0.2003  0.3370  0.0375
12141TIP3    H157914   1.693   0.344  11.388 -0.7744  0.8488  1.9117
12141TIP3    H257915   1.649   0.244  11.283  3.4265  0.1359  0.6556
12142TIP3   OH257916   6.337   0.756  11.946 -0.4323  0.3695  0.1143
12142TIP3    H157917   6.263   0.781  11.890  0.5999  1.0138 -1.0211
12142TIP3    H257918   6.414   0.781  11.895  0.5608  0.7291  1.7246
12143TIP3   OH257919   3.761   3.343   5.890  0.8741  0.1878  0.4456
12143TIP3    H157920   3.765   3.251   5.914 -0.0436 -0.5177 -1.8936
12143TIP3    H257921   3.774   3.390   5.973  1.1229 -2.0104  1.7163
12144TIP3   OH257922   3.658   6.310   0.656 -0.6106  0.1328 -0.2305
12144TIP3    H157923   3.640   6.394   0.697 -0.5846  0.2272 -0.4092
12144TIP3    H257924   3.746   6.287   0.686  0.5781  1.5278 -2.3819
12145TIP3   OH257925   6.184   2.984  14.321 -0.3005  0.3334  0.5541
12145TIP3    H157926   6.265   2.934  14.320  0.0473  0.8517  1.6692
12145TIP3    H257927   6.200   3.058  14.263 -0.6179 -0.4909 -0.6408
12146TIP3   OH257928   3.624   5.036  15.118  0.1953  0.1732  0.1363
12146TIP3    H157929   3.655   4.962  15.171 -0.3255 -0.3263 -0.2396
12146TIP3    H257930   3.624   5.111  15.177 -0.6838 -0.4367  0.9320
12147TIP3   OH257931   5.770   3.707   5.105  0.1789 -0.2323  0.5304
12147TIP3    H157932   5.786   3.710   5.199 -0.5660 -0.2148  0.6632
12147TIP3    H257933   5.780   3.615   5.081 -2.0744 -0.6943  1.0974
12148TIP3   OH257934   1.640   4.963  11.021 -0.4130  0.2447  0.1896
12148TIP3    H157935   1.637   5.002  11.109  0.8028  0.9487 -0.0504
12148TIP3    H257936   1.603   5.031  10.964 -1.0589 -0.1505  0.1293
12149TIP3   OH257937   5.855   2.609  14.423 -0.2848  0.1058 -0.0917
12149TIP3    H157938   5.910   2.541  14.383  0.7667 -1.2850  3.3142
12149TIP3    H257939   5.906   2.689  14.413 -0.0692 -0.1757 -1.4524
12150TIP3   OH257940   3.417   2.361  16.981 -0.2654 -0.7761 -0.2015
12150TIP3    H157941   3.470   2.284  17.006  0.5410  0.1622  1.0965
12150TIP3    H257942   3.332   2.325  16.959 -0.7810 -1.8642  3.0196
12151TIP3   OH257943   2.139   5.915   4.536 -0.1020 -0.1408 -0.2091
12151TIP3    H157944   2.123   5.995   4.486  0.7303  1.2913  1.6544
12151TIP3    H257945   2.061   5.905   4.591  0.2714  0.0896  0.3836
12152TIP3   OH257946   3.398   0.705  13.441  0.0332  0.2483 -0.5788
12152TIP3    H157947   3.462   0.721  13.371  2.0916 -2.3088  0.5397
12152TIP3    H257948   3.449   0.713  13.522 -1.7853  0.9225  0.5632
12153TIP3   OH257949   6.115   3.516   6.271  0.1432 -0.1101 -0.3068
12153TIP3    H157950   6.058   3.537   6.344 -0.1999 -0.3928 -0.4920
12153TIP3    H257951   6.134   3.600   6.230  0.9861  0.1553  0.5714
12154TIP3   OH257952   3.740   1.305   3.183 -0.0434 -0.1771 -0.0221
12154TIP3    H157953   3.665   1.259   3.145 -0.7849  0.2895  0.8161
12154TIP3    H257954   3.786   1.238   3.233  0.0947 -0.4701 -0.5461
12155TIP3   OH257955   4.026   3.010   0.657  0.3680 -0.2269 -0.4257
12155TIP3    H157956   4.061   2.940   0.601  1.6228 -1.1440  1.4022
12155TIP3    H257957   4.103   3.049   0.697 -0.3576  1.9843 -1.0795
12156TIP3   OH257958   5.587   4.709   5.874 -0.6556 -0.3801 -0.0469
12156TIP3    H157959   5.615   4.666   5.954  2.5226 -2.9029 -2.2456
12156TIP3    H257960   5.649   4.780   5.861 -0.3767 -0.7549 -0.8489
12157TIP3   OH257961   0.685   1.938   5.467  0.0584 -1.0870 -0.3634
12157TIP3    H157962   0.601   1.940   5.512  0.8460 -1.6249  1.2033
12157TIP3    H257963   0.725   1.856   5.494  1.1803 -0.7443 -0.9031
12158TIP3   OH257964   6.311   2.455   1.450  0.5886 -0.0904 -0.2667
12158TIP3    H157965   6.395   2.498   1.466  0.6827 -0.6328  0.7345
12158TIP3    H257966   6.264   2.461   1.533 -0.0290 -0.5339 -0.5749
12159TIP3   OH257967   3.915   3.095  13.944 -0.1269  0.5942  0.1409
12159TIP3    H157968   3.928   3.003  13.921  1.2277  1.0314 -0.9765
12159TIP3    H257969   3.898   3.094  14.038  0.5553 -0.7374  0.2792
12160TIP3   OH257970   0.196   1.230  14.959 -0.9120  0.0595 -0.4174
12160TIP3    H157971   0.209   1.206  15.051 -0.9158 -0.0977 -0.4584
12160TIP3    H257972   0.233   1.318  14.952  0.9196 -0.6937 -0.7348
12161TIP3   OH257973   5.678   4.655   1.934  0.5604 -0.4245  0.5489
12161TIP3    H157974   5.697   4.715   2.005  1.5500 -0.0421 -0.0151
12161TIP3    H257975   5.764   4.628   1.901  0.1284 -1.2379  0.0386
12162TIP3   OH257976   1.285   4.800  14.955 -0.2791  0.0040 -0.7701
12162TIP3    H157977   1.261   4.712  14.982 -0.6495 -0.1115 -1.4567
12162TIP3    H257978   1.303   4.792  14.861  0.7513  0.4376 -0.6292
12163TIP3   OH257979   2.240   3.849   2.046 -0.3258  0.1331  0.2643
12163TIP3    H157980   2.324   3.891   2.029  0.4794 -0.2863  2.8089
12163TIP3    H257981   2.186   3.917   2.086 -0.3924 -0.1942  0.7395
12164TIP3   OH257982   4.484   3.165  14.784 -0.4755 -0.0383 -0.4138
12164TIP3    H157983   4.393   3.155  14.812 -0.7283 -0.0559 -1.2092
12164TIP3    H257984   4.511   3.249  14.819 -0.8773  0.0723 -0.3619
12165TIP3   OH257985   2.430   2.968  12.615 -0.0483  0.6598  0.3316
12165TIP3    H157986   2.462   2.898  12.559 -0.1607  1.1874 -0.4009
12165TIP3    H257987   2.385   3.028  12.556 -0.0823  1.2781  0.9698
12166TIP3   OH257988   5.651   3.456   0.415  0.2920  0.2742 -0.5310
12166TIP3    H157989   5.736   3.433   0.452 -0.5127 -1.4337  0.4142
12166TIP3    H257990   5.593   3.463   0.492 -0.4860  1.0741 -1.1761
12167TIP3   OH257991   1.987   2.842  15.389  0.0356  0.5672 -0.0480
12167TIP3    H157992   1.967   2.749  15.403 -0.5634  0.8427  1.0147
12167TIP3    H257993   2.061   2.841  15.328  0.3460 -0.6247  0.3075
12168TIP3   OH257994   2.722   1.718  15.123  0.2117  0.0803  0.0692
12168TIP3    H157995   2.690   1.633  15.153  0.2674 -0.1814 -0.6000
12168TIP3    H257996   2.647   1.757  15.079  0.2609  0.2775  0.1586
12169TIP3   OH257997   3.558   0.227   3.977  0.7429 -0.0192 -0.1146
12169TIP3    H157998   3.472   0.216   3.936 -0.7865 -4.6389  3.4049
12169TIP3    H257999   3.617   0.176   3.922 -0.6341 -3.4848  1.2968
12170TIP3   OH258000   3.443   4.468   3.223  0.3717  0.2705  0.2358
12170TIP3    H158001   3.497   4.498   3.150 -1.6548  2.2603 -0.5564
12170TIP3    H258002   3.493   4.491   3.301  1.1974  0.9317 -0.4700
12171TIP3   OH258003   3.891   6.284   3.126  0.4478 -0.1265 -0.6253
12171TIP3    H158004   3.834   6.306   3.053 -0.6502  0.5961  0.4093
12171TIP3    H258005   3.833   6.246   3.192  1.5845 -1.7978 -0.5303
12172TIP3   OH258006   3.026   6.120  15.450  1.0511 -0.4084  0.4866
12172TIP3    H158007   3.096   6.084  15.395  1.2618 -0.5341  0.8332
12172TIP3    H258008   2.984   6.044  15.490  0.9412 -0.3158  0.5495
12173TIP3   OH258009   5.693   1.459   4.128 -0.1597 -0.2855  0.6676
12173TIP3    H158010   5.757   1.446   4.057 -0.0384 -0.5390  0.8210
12173TIP3    H258011   5.681   1.371   4.165  0.2759 -0.0491  1.3886
12174TIP3   OH258012   2.496   1.145  10.722  0.0483  0.1929  0.0728
12174TIP3    H158013   2.549   1.089  10.665 -0.2270 -1.8729  1.7160
12174TIP3    H258014   2.526   1.123  10.810 -0.0502  2.7403  0.8007
12175TIP3   OH258015   4.527   0.741   3.087  0.4289  0.1024  0.1752
12175TIP3    H158016   4.616   0.722   3.057 -0.2596  0.1872 -2.1032
12175TIP3    H258017   4.487   0.656   3.100  0.0612 -0.0030 -1.4246
12176TIP3   OH258018   0.118   1.813   4.737  0.1233 -0.1269  0.0949
12176TIP3    H158019   0.038   1.864   4.724  0.4663  0.0953 -1.2791
12176TIP3    H258020   0.103   1.766   4.819 -1.0401  0.6028  0.3266
12177TIP3   OH258021   0.504   6.225   0.269 -0.2665  0.1418  0.7113
12177TIP3    H158022   0.556   6.290   0.223 -1.1347  1.1119  1.0643
12177TIP3    H258023   0.558   6.200   0.344  0.0429  0.5131  0.6163
12178TIP3   OH258024   3.750   4.040  14.199 -0.0688  0.5756  0.7770
12178TIP3    H158025   3.737   4.017  14.291 -0.8129  2.2572  1.1256
12178TIP3    H258026   3.670   4.086  14.174 -0.8194 -1.6658 -1.3704
12179TIP3   OH258027   3.543   4.347   1.140 -0.3428  0.4628 -0.2527
12179TIP3    H158028   3.520   4.377   1.228 -0.2265 -0.8863  0.2752
12179TIP3    H258029   3.499   4.262   1.132 -0.7190  0.7735 -1.6843
12180TIP3   OH258030   1.773   2.850   5.646 -0.2677  0.3849 -0.3257
12180TIP3    H158031   1.687   2.835   5.606 -0.6466  2.1745 -0.2729
12180TIP3    H258032   1.780   2.782   5.714 -1.5449  0.0933 -0.4610
12181TIP3   OH258033   4.623   6.173   3.630  0.2510  0.0897 -0.1827
12181TIP3    H158034   4.553   6.118   3.663  0.5924 -0.0273  0.3633
12181TIP3    H258035   4.692   6.167   3.697 -0.0502  1.8861  0.3434
12182TIP3   OH258036   4.329   1.700  12.777 -0.5001 -0.3872  0.2409
12182TIP3    H158037   4.234   1.696  12.764 -0.8640 -1.2572  2.5912
12182TIP3    H258038   4.360   1.613  12.751  0.1678  0.7719 -3.2871
12183TIP3   OH258039   0.880   3.944   2.168  0.2480 -0.4454  0.0716
12183TIP3    H158040   0.942   3.872   2.180 -0.4990 -1.0290  0.6571
12183TIP3    H258041   0.846   3.932   2.080  0.3640 -0.6333  0.0511
12184TIP3   OH258042   5.282   4.638  12.535 -0.2747  0.3292  0.0587
12184TIP3    H158043   5.259   4.700  12.466 -0.4206 -1.0350 -1.1480
12184TIP3    H258044   5.371   4.662  12.560  1.1339 -1.2044 -2.9889
12185TIP3   OH258045   1.808   0.711  12.507  0.4811 -0.2403  0.8802
12185TIP3    H158046   1.850   0.653  12.443  0.3968  0.1298  0.4909
12185TIP3    H258047   1.724   0.669  12.525  0.3368 -0.1333  0.4516
12186TIP3   OH258048   4.197   2.079   0.124  0.5656  0.2915  0.1538
12186TIP3    H158049   4.108   2.111   0.105  0.7007  0.6358  0.0917
12186TIP3    H258050   4.254   2.137   0.075  0.8041 -0.2526 -0.2204
12187TIP3   OH258051   3.706   0.364  12.117 -0.3310 -0.0478  0.2611
12187TIP3    H158052   3.623   0.364  12.070 -0.2322  2.5351 -0.0374
12187TIP3    H258053   3.681   0.354  12.209 -0.7384 -1.8551 -0.0045
12188TIP3   OH258054   2.451   4.753   1.938  0.6306 -0.6629 -0.6149
12188TIP3    H158055   2.484   4.830   1.891 -0.1182 -0.4429 -0.7968
12188TIP3    H258056   2.504   4.681   1.906  0.6683 -0.3816 -1.2114
12189TIP3   OH258057   5.019   1.484  12.120 -0.1064  0.3365  0.2960
12189TIP3    H158058   5.105   1.449  12.146  0.4402  0.9565 -0.6075
12189TIP3    H258059   5.038   1.539  12.043 -0.9656  2.3342  1.4365
12190TIP3   OH258060   3.752   6.632  15.239 -0.2742 -0.1920  0.1976
12190TIP3    H158061   3.818   6.696  15.264 -0.9539  1.2354 -1.4211
12190TIP3    H258062   3.777   6.552  15.284  0.9862  1.0319  1.7783
12191TIP3   OH258063   5.093   4.037  11.565 -0.9376  0.8628  0.1206
12191TIP3    H158064   5.165   4.019  11.504 -1.3347  1.1928 -0.4574
12191TIP3    H258065   5.061   4.124  11.539 -0.4314  1.4881  1.4849
12192TIP3   OH258066   5.849   5.047   1.486  0.0874  0.0385  0.3417
12192TIP3    H158067   5.755   5.061   1.496 -0.1960 -0.7250 -1.0031
12192TIP3    H258068   5.858   4.954   1.467  1.2732 -0.2330  1.9720
12193TIP3   OH258069   5.128   0.826   1.245  0.3025  0.4993 -0.5139
12193TIP3    H158070   5.179   0.774   1.307  2.6746  1.1140 -1.8005
12193TIP3    H258071   5.109   0.907   1.291  1.2309  0.5762 -0.2441
12194TIP3   OH258072   1.484   5.775  14.792  0.4944  0.0630 -0.1062
12194TIP3    H158073   1.481   5.854  14.739 -0.9309 -0.7776 -1.3469
12194TIP3    H258074   1.393   5.753  14.808  0.8425  0.4099  2.9816
12195TIP3   OH258075   6.735   4.716   0.595 -0.0406  0.1089  0.1790
12195TIP3    H158076   6.707   4.802   0.628 -1.2353 -0.6688  1.2665
12195TIP3    H258077   6.667   4.691   0.533  1.1351  0.6269 -1.3815
12196TIP3   OH258078   4.035   4.465   2.968  0.1917  0.0873 -0.5802
12196TIP3    H158079   4.004   4.384   2.928  1.6278 -0.8521  0.1161
12196TIP3    H258080   4.012   4.457   3.060  1.3226 -0.0717 -0.2909
12197TIP3   OH258081   6.130   2.292   5.941 -0.3602 -0.1506  0.3564
12197TIP3    H158082   6.190   2.351   5.896  0.7049 -1.1547  0.4230
12197TIP3    H258083   6.171   2.275   6.025 -1.4268  0.2247  0.9825
12198TIP3   OH258084   4.658   0.036  16.877  0.5036 -0.1583 -0.4134
12198TIP3    H158085   4.608   0.116  16.859 -0.1091 -0.4058  0.1564
12198TIP3    H258086   4.592  -0.031  16.891  0.9812 -0.4195  0.6886
12199TIP3   OH258087   1.349   0.523   0.883 -0.3558 -0.3242  0.1633
12199TIP3    H158088   1.419   0.513   0.948  0.1777 -0.4341 -0.4289
12199TIP3    H258089   1.276   0.559   0.934  0.6210  1.3106  0.4883
12200TIP3   OH258090   6.330   4.690   6.507  0.8537 -0.4439 -0.6209
12200TIP3    H158091   6.331   4.785   6.495  0.6399 -0.3855 -0.1858
12200TIP3    H258092   6.397   4.674   6.574 -1.9199 -0.1487  2.4819
12201TIP3   OH258093   3.064   4.782   1.734 -0.0002 -0.0156  0.1874
12201TIP3    H158094   2.989   4.760   1.678  0.8634 -0.3848 -0.8672
12201TIP3    H258095   3.141   4.761   1.680  0.8633  0.9136  1.0142
12202TIP3   OH258096   5.621   2.859  13.042 -0.8422 -0.0532 -0.4705
12202TIP3    H158097   5.629   2.927  12.974 -2.2036  0.5823 -0.0314
12202TIP3    H258098   5.527   2.848  13.054 -0.7163  0.9349  2.3414
12203TIP3   OH258099   2.280   2.823   4.008  0.3403  0.8514 -0.3134
12203TIP3    H158100   2.287   2.736   3.968 -0.9116 -0.1750  1.5529
12203TIP3    H258101   2.188   2.833   4.030  0.6974  2.0261  0.8276
12204TIP3   OH258102   3.221   1.568   3.288 -0.3596 -0.6865 -0.0969
12204TIP3    H158103   3.220   1.477   3.318  2.0525 -0.9092 -0.4995
12204TIP3    H258104   3.288   1.570   3.220 -1.0972  1.1961 -0.8208
12205TIP3   OH258105   6.655   4.771   5.624 -0.4473  0.2261  0.2783
12205TIP3    H158106   6.580   4.766   5.564  0.4166 -1.3842 -0.7111
12205TIP3    H258107   6.616   4.766   5.711 -1.6310  1.3947 -0.1463
12206TIP3   OH258108   2.936   2.562  16.426  0.3001  0.3596 -0.2229
12206TIP3    H158109   2.903   2.565  16.337 -0.9419 -1.5107  0.1149
12206TIP3    H258110   2.968   2.472  16.437 -0.6948  0.1800  1.5681
12207TIP3   OH258111   2.645   3.411  15.991  0.0983  0.1684  0.3475
12207TIP3    H158112   2.712   3.370  16.045  1.2573 -0.1818 -1.2808
12207TIP3    H258113   2.588   3.339  15.964  1.1388 -0.1458 -1.1140
12208TIP3   OH258114   0.912   0.062   0.633 -0.0037 -0.1899  0.3533
12208TIP3    H158115   0.820   0.087   0.646 -0.1743 -1.4158  1.9039
12208TIP3    H258116   0.932   0.089   0.544 -1.8831  0.0833 -0.0331
12209TIP3   OH258117   1.277   2.684   5.475 -0.0932 -0.2936  0.3432
12209TIP3    H158118   1.234   2.671   5.390 -0.3132  0.5760  0.3179
12209TIP3    H258119   1.284   2.595   5.511  0.5821 -0.7611 -0.8570
12210TIP3   OH258120   2.553   5.542   0.037 -0.6895 -0.4856 -0.1137
12210TIP3    H158121   2.553   5.580   0.125  0.1597  1.9115 -1.0559
12210TIP3    H258122   2.635   5.492   0.032 -0.1157  0.4175  0.0696
12211TIP3   OH258123   4.110   5.805  16.741  0.1881 -0.0181 -0.2109
12211TIP3    H158124   4.020   5.809  16.707  0.4940  1.2541 -0.9213
12211TIP3    H258125   4.164   5.790  16.664  0.6509 -0.0201  0.1111
12212TIP3   OH258126   0.942   2.152  16.565 -0.3043 -0.2209  0.6934
12212TIP3    H158127   1.016   2.182  16.511 -1.7072  1.2079 -0.5726
12212TIP3    H258128   0.873   2.134  16.502 -1.0975 -1.3901  1.8569
12213TIP3   OH258129   1.828   3.326   1.859 -0.0910  0.4518 -0.0461
12213TIP3    H158130   1.903   3.266   1.864  0.6007  1.3683  1.0587
12213TIP3    H258131   1.859   3.399   1.805  0.7966  2.0933  2.4967
12214TIP3   OH258132   5.987   0.286  15.269 -0.3465 -0.3441 -0.1879
12214TIP3    H158133   5.905   0.247  15.296 -1.9041 -0.0944 -3.9672
12214TIP3    H258134   6.046   0.212  15.256 -0.8773 -0.7802 -0.1461
12215TIP3   OH258135   6.306   0.265   6.646  0.2604  0.1197  0.3184
12215TIP3    H158136   6.254   0.338   6.615 -0.8292  0.3227  2.4538
12215TIP3    H258137   6.313   0.207   6.570 -0.9779  1.2491 -0.7106
12216TIP3   OH258138   1.130   2.203  15.129 -0.1066  0.2450 -0.2795
12216TIP3    H158139   1.202   2.238  15.182  0.7970  0.5547 -1.6747
12216TIP3    H258140   1.094   2.132  15.183  2.2212 -0.9488 -0.1602
12217TIP3   OH258141   0.671   2.726   1.612 -0.4499 -0.0723 -0.3523
12217TIP3    H158142   0.653   2.720   1.705  0.0694  2.2191 -0.0351
12217TIP3    H258143   0.761   2.694   1.603 -0.4274 -0.0956 -0.0403
12218TIP3   OH258144   3.616   0.455   4.968 -0.0810  0.6456  0.1255
12218TIP3    H158145   3.670   0.432   5.044 -1.0712  1.0507  0.9730
12218TIP3    H258146   3.641   0.391   4.901  0.5241  0.0178  0.9276
12219TIP3   OH258147   6.337   0.438   5.039 -0.3935  0.6273  0.3087
12219TIP3    H158148   6.261   0.429   4.981 -0.0088  0.5901 -0.1935
12219TIP3    H258149   6.317   0.514   5.094 -1.2049  0.0652  0.8107
12220TIP3   OH258150   1.098   5.179  14.891  0.2276  0.8489 -0.0023
12220TIP3    H158151   1.006   5.172  14.915  0.5304  1.1561  1.3062
12220TIP3    H258152   1.110   5.113  14.823 -0.3613 -1.1378  1.7210
12221TIP3   OH258153   5.760   4.368   2.654  1.1855 -0.3403  0.1997
12221TIP3    H158154   5.725   4.295   2.704  0.8100  0.1606  0.6866
12221TIP3    H258155   5.790   4.329   2.572 -0.0338 -0.8831 -0.0131
12222TIP3   OH258156   4.116   2.582   5.721  0.4909 -0.2007  0.2196
12222TIP3    H158157   4.193   2.578   5.664  0.9672 -0.7071  0.8735
12222TIP3    H258158   4.141   2.530   5.798 -0.0411  0.6726  1.0046
12223TIP3   OH258159   5.173   5.150  16.173  0.5345 -0.2651  0.9316
12223TIP3    H158160   5.147   5.224  16.229  0.2320 -0.4911  1.0944
12223TIP3    H258161   5.157   5.072  16.227  0.7710 -0.4538  0.7304
12224TIP3   OH258162   2.885   3.366  11.539  0.4937 -0.1591  0.1972
12224TIP3    H158163   2.869   3.357  11.445  0.1919  1.7598  0.0195
12224TIP3    H258164   2.917   3.280  11.566  1.4726 -0.5161 -1.8451
12225TIP3   OH258165   0.086   3.690  13.945 -0.2831  0.1524 -0.2862
12225TIP3    H158166   0.147   3.654  14.010 -0.2659  3.2746  1.6608
12225TIP3    H258167   0.143   3.728  13.878 -0.0730  1.0116  0.3450
12226TIP3   OH258168   5.962   6.514   5.157 -0.3433 -0.0010 -0.5272
12226TIP3    H158169   5.911   6.595   5.162  1.2214  0.9600  2.3741
12226TIP3    H258170   5.978   6.490   5.248  1.8215 -1.8895 -1.3034
12227TIP3   OH258171   5.884   1.245  17.044 -0.4339 -0.3224  0.1796
12227TIP3    H158172   5.854   1.180  16.980  0.5767 -0.4629 -0.1833
12227TIP3    H258173   5.866   1.205  17.129 -0.0934 -0.9589 -0.0405
12228TIP3   OH258174   1.682   5.008   3.663 -0.5823  0.0368 -0.5245
12228TIP3    H158175   1.633   4.936   3.622  1.0795 -0.6632 -1.3567
12228TIP3    H258176   1.730   5.048   3.592 -1.7770  2.3099 -0.1475
12229TIP3   OH258177   1.234   5.909   0.163  0.3202 -0.1764  0.3911
12229TIP3    H158178   1.240   5.814   0.166  0.6938 -0.2066 -0.9237
12229TIP3    H258179   1.232   5.931   0.070  1.0394  1.1472  0.6561
12230TIP3   OH258180   0.848   1.994  12.818 -0.3146 -0.3288 -0.0598
12230TIP3    H158181   0.904   2.071  12.834 -0.2914  0.1053 -1.9172
12230TIP3    H258182   0.776   2.004  12.879 -0.1656  1.0415 -0.0605
12231TIP3   OH258183   6.349   1.715   0.947  0.2056 -0.3029 -0.7452
12231TIP3    H158184   6.261   1.677   0.945 -0.0209  0.0990  0.5228
12231TIP3    H258185   6.333   1.810   0.952  0.6605 -0.2777  0.6942
12232TIP3   OH258186   1.764   0.070   1.931  0.2109  0.1699  0.6058
12232TIP3    H158187   1.740   0.075   2.023  0.8044 -0.3429  0.7918
12232TIP3    H258188   1.848   0.025   1.930 -0.1557 -0.5394 -0.2362
12233TIP3   OH258189   0.202   2.571   1.646 -0.3614 -0.0436 -0.1300
12233TIP3    H158190   0.157   2.602   1.724  3.0041  2.0721  1.1877
12233TIP3    H258191   0.195   2.643   1.583  1.5642  0.6452  0.3559
12234TIP3   OH258192   1.122   0.587   1.232  0.0657  0.3792 -0.1991
12234TIP3    H158193   1.178   0.510   1.229  0.7305  0.8540 -0.0493
12234TIP3    H258194   1.143   0.635   1.152  0.1556  0.7546  0.0478
12235TIP3   OH258195   3.286   6.254  13.807  0.1527  0.0442 -0.2877
12235TIP3    H158196   3.329   6.175  13.838  1.1161  1.0011  0.8816
12235TIP3    H258197   3.195   6.227  13.793  0.3597 -1.1517  0.5027
12236TIP3   OH258198   5.862   3.679  15.191 -0.1751 -0.4885 -0.1524
12236TIP3    H158199   5.937   3.721  15.233  0.7423  0.3510 -2.4894
12236TIP3    H258200   5.852   3.596  15.237  1.6389 -0.2381  0.7804
12237TIP3   OH258201   1.479   2.004   5.741  0.3660 -0.2380  0.4697
12237TIP3    H158202   1.522   2.080   5.778  1.6980 -0.6548 -0.1706
12237TIP3    H258203   1.468   1.943   5.814  0.3264  0.1030  0.7491
12238TIP3   OH258204   2.387   2.152   2.792 -0.1937 -0.4066  0.5511
12238TIP3    H158205   2.333   2.221   2.753  2.4864  1.3381 -0.3276
12238TIP3    H258206   2.396   2.087   2.722  1.6943  1.0298 -0.6314
12239TIP3   OH258207   2.753   5.108  16.008  0.2584 -0.5558  0.0959
12239TIP3    H158208   2.663   5.076  16.007 -0.4666  1.3837 -0.0791
12239TIP3    H258209   2.760   5.165  15.932  1.8585 -1.2013 -0.2795
12240TIP3   OH258210   1.996   3.982  12.389 -0.7646  0.1471 -0.3430
12240TIP3    H158211   2.036   3.953  12.307  0.6428  0.2967  0.2534
12240TIP3    H258212   2.015   3.910  12.450  1.2425  1.4919  0.7116
12241TIP3   OH258213   0.162   3.299  16.696 -0.2445  0.4133 -0.1068
12241TIP3    H158214   0.253   3.280  16.669 -0.0402  0.6611  0.4049
12241TIP3    H258215   0.162   3.392  16.717  0.0424 -0.0928  2.4413
12242TIP3   OH258216   5.190   4.094   1.766  0.0235 -0.1281  0.3416
12242TIP3    H158217   5.282   4.088   1.742 -0.3514  1.4709 -1.8582
12242TIP3    H258218   5.190   4.124   1.857  1.6110 -1.9664  1.0146
12243TIP3   OH258219   4.988   0.534   2.867  0.3393 -0.3483  0.1644
12243TIP3    H158220   4.959   0.457   2.916 -0.0373  0.5269  1.3555
12243TIP3    H258221   4.922   0.546   2.799  1.2283 -1.9848 -1.0674
12244TIP3   OH258222   6.461   1.538   3.658  0.1114  0.1652 -0.3951
12244TIP3    H158223   6.448   1.465   3.598 -2.1435  0.8175 -0.7811
12244TIP3    H258224   6.526   1.506   3.721  0.2477 -1.6280 -1.3836
12245TIP3   OH258225   2.912   1.235   4.371 -0.8305 -0.2790 -0.3142
12245TIP3    H158226   2.993   1.214   4.419 -0.7771  0.8155  0.1096
12245TIP3    H258227   2.865   1.152   4.366 -0.4692 -0.5839  0.9575
12246TIP3   OH258228   0.964   6.524  14.000  0.2302  0.5943  0.6375
12246TIP3    H158229   0.993   6.460  14.066  0.1516 -0.0437  0.0641
12246TIP3    H258230   0.909   6.474  13.941  1.0575  0.9361 -0.4601
12247TIP3   OH258231   2.873   3.421   3.926  0.0478  0.6000  0.6635
12247TIP3    H158232   2.877   3.491   3.992 -2.7351  0.3433  1.2082
12247TIP3    H258233   2.793   3.373   3.947  0.9899 -1.7368 -0.7496
12248TIP3   OH258234   3.935   2.210   2.937 -0.3898  0.0220  0.3523
12248TIP3    H158235   4.021   2.176   2.914 -0.3224  0.0356  0.5838
12248TIP3    H258236   3.952   2.299   2.969 -0.5942  0.3802 -0.5064
12249TIP3   OH258237   2.899   6.406   3.457  0.1436 -0.1975 -0.5436
12249TIP3    H158238   2.840   6.403   3.532  0.8035 -1.8963 -0.0409
12249TIP3    H258239   2.985   6.386   3.494  0.6820  0.1563 -1.5736
12250TIP3   OH258240   3.395   0.660   6.217  0.4256  0.0239 -0.1736
12250TIP3    H158241   3.355   0.737   6.258 -0.1326 -1.0811  1.4378
12250TIP3    H258242   3.369   0.586   6.272  2.1428 -1.1566 -0.8354
12251TIP3   OH258243   5.098   2.986  13.348 -0.4450  0.5226 -0.4256
12251TIP3    H158244   5.130   3.076  13.333 -0.2690  0.5114 -0.1277
12251TIP3    H258245   5.061   2.989  13.436 -0.1819  0.2316 -0.3036
12252TIP3   OH258246   2.962   4.569  14.517 -0.1831 -0.1070 -0.0333
12252TIP3    H158247   2.934   4.478  14.516 -1.0955  0.1525  0.3895
12252TIP3    H258248   3.052   4.567  14.486 -0.4355 -1.0643 -0.7564
12253TIP3   OH258249   2.074   0.572  13.843 -0.4973  0.4635  0.8178
12253TIP3    H158250   2.139   0.502  13.837  1.8679  2.3297  2.4214
12253TIP3    H258251   2.019   0.548  13.918 -0.0869  0.0383  0.9881
12254TIP3   OH258252   1.341   3.395   4.671 -0.0770  0.1191  0.0305
12254TIP3    H158253   1.283   3.445   4.614  2.0426  1.7418 -0.8317
12254TIP3    H258254   1.363   3.317   4.620 -0.2046  0.3055 -0.3151
12255TIP3   OH258255   5.034   2.143   6.343 -0.4737  0.4968  0.6452
12255TIP3    H158256   5.083   2.221   6.316 -1.5585  0.7655 -0.6442
12255TIP3    H258257   4.943   2.164   6.322 -0.6693 -1.5560 -0.8445
12256TIP3   OH258258   3.237   2.411  12.212 -0.1804 -0.0267  0.5285
12256TIP3    H158259   3.277   2.351  12.275  1.5941  0.4250 -0.0830
12256TIP3    H258260   3.217   2.490  12.262  1.1520  0.3049  0.5858
12257TIP3   OH258261   2.414   6.702   2.877  0.5357 -0.1308 -0.7730
12257TIP3    H158262   2.462   6.716   2.796  1.0333  0.7935 -0.3327
12257TIP3    H258263   2.482   6.676   2.940  0.0608 -1.5400 -0.8067
12258TIP3   OH258264   5.123   5.624  13.106  0.5961  0.0786  0.1180
12258TIP3    H158265   5.058   5.654  13.169 -1.3881 -0.9330 -1.3362
12258TIP3    H258266   5.184   5.571  13.158 -0.4779 -0.0320  1.3162
12259TIP3   OH258267   5.167   5.414   5.405 -0.5537 -0.4022  0.5891
12259TIP3    H158268   5.154   5.348   5.473 -1.5515 -0.6943  0.1405
12259TIP3    H258269   5.196   5.364   5.328 -0.5176 -0.2183  0.4827
12260TIP3   OH258270   5.684   2.890   4.321  0.4298  0.0790  0.0349
12260TIP3    H158271   5.656   2.799   4.328 -0.7281  0.3671 -0.6645
12260TIP3    H258272   5.780   2.886   4.318  0.4508 -1.0153  1.2847
12261TIP3   OH258273   5.345   1.319   4.263  0.0510 -0.0165 -0.1252
12261TIP3    H158274   5.314   1.230   4.244  0.8939 -0.2149 -0.6289
12261TIP3    H258275   5.344   1.325   4.359 -2.4529  0.3372 -0.1210
12262TIP3   OH258276   6.276   6.239   3.787 -0.5746 -0.2165  0.5768
12262TIP3    H158277   6.234   6.325   3.782 -2.2059 -0.9952  0.0889
12262TIP3    H258278   6.370   6.258   3.781 -0.9390  1.4398 -1.1463
12263TIP3   OH258279   0.755   6.107   5.270 -0.4412 -0.7046 -0.7085
12263TIP3    H158280   0.660   6.096   5.269 -0.5851  0.3644 -0.0897
12263TIP3    H258281   0.785   6.044   5.336 -1.1530  1.6271  2.0264
12264TIP3   OH258282   4.452   2.603  16.732 -0.6355  0.0988  0.5514
12264TIP3    H158283   4.534   2.572  16.694 -0.4625  1.4641 -0.2541
12264TIP3    H258284   4.458   2.698  16.728 -2.5877  0.2417 -0.2602
12265TIP3   OH258285   1.859   5.802  12.025  0.3967  0.7473 -0.3041
12265TIP3    H158286   1.816   5.820  11.941  1.9393  0.2704 -1.2326
12265TIP3    H258287   1.788   5.801  12.089 -1.4652 -2.8598 -2.1447
12266TIP3   OH258288   5.283   1.660   0.609 -0.1950  0.6325 -1.0364
12266TIP3    H158289   5.279   1.651   0.514  0.0147  0.0282 -0.9898
12266TIP3    H258290   5.354   1.602   0.636 -1.2346 -0.3597 -0.3605
12267TIP3   OH258291   6.178   2.460   2.792 -0.5566 -0.0232  0.1369
12267TIP3    H158292   6.263   2.486   2.829 -0.4936  0.4062 -0.2965
12267TIP3    H258293   6.195   2.373   2.755  0.4030  1.0485 -2.1540
12268TIP3   OH258294   5.168   0.962  15.869 -0.3109 -0.0570 -0.1995
12268TIP3    H158295   5.098   1.019  15.899 -0.3445  1.0953 -2.2754
12268TIP3    H258296   5.135   0.923  15.788  0.0447 -2.4347  0.7036
12269TIP3   OH258297   0.098   4.822  12.339 -0.4310 -0.0271 -0.5751
12269TIP3    H158298   0.030   4.824  12.272 -0.8085  0.5773 -0.1813
12269TIP3    H258299   0.057   4.777  12.413 -0.4913  0.5479 -0.2505
12270TIP3   OH258300   5.862   1.215  14.099  0.2007 -0.2641 -0.3168
12270TIP3    H158301   5.819   1.244  14.180  1.5811 -0.5600  0.5556
12270TIP3    H258302   5.946   1.260  14.100  0.6287 -1.0388 -1.1030
12271TIP3   OH258303   5.522   5.118   0.505  0.2752 -0.1263 -0.2769
12271TIP3    H158304   5.483   5.032   0.492 -0.4117  0.2211 -0.5469
12271TIP3    H258305   5.500   5.141   0.595  0.6054 -0.2953 -0.1476
12272TIP3   OH258306   2.945   5.860  16.341 -0.2951  0.3779  0.4339
12272TIP3    H158307   2.897   5.923  16.287 -2.6536 -0.6602  1.2008
12272TIP3    H258308   3.036   5.866  16.309 -0.5108  3.6873  0.1199
12273TIP3   OH258309   1.273   0.753   4.565  0.1883  0.4108 -0.3894
12273TIP3    H158310   1.300   0.664   4.588  0.1756  0.2928 -0.8143
12273TIP3    H258311   1.181   0.745   4.541 -0.2676  0.8310  1.1359
12274TIP3   OH258312   3.100   2.077   2.434 -0.0302 -0.0358 -0.1250
12274TIP3    H158313   3.004   2.076   2.428 -0.1424 -0.3478  1.3360
12274TIP3    H258314   3.124   1.985   2.444  0.4881 -0.0253 -1.2037
12275TIP3   OH258315   3.776   5.497  13.923 -0.2379 -0.4936  0.6675
12275TIP3    H158316   3.690   5.524  13.892  0.1534 -0.2161 -0.2109
12275TIP3    H258317   3.836   5.562  13.887  0.4182 -1.1018  0.6350
12276TIP3   OH258318   1.679   1.326   4.044 -0.3365 -0.3113  0.6731
12276TIP3    H158319   1.697   1.324   3.949 -0.6528  2.1939  0.5013
12276TIP3    H258320   1.745   1.385   4.079 -1.3928  0.2750  1.7294
12277TIP3   OH258321   4.319   3.544  12.506 -0.1653 -0.5433 -0.1558
12277TIP3    H158322   4.365   3.615  12.461 -0.6931 -0.9992 -1.4649
12277TIP3    H258323   4.270   3.587  12.576 -0.8105  0.4514 -1.1830
12278TIP3   OH258324   1.950   3.460  11.792 -0.7632 -0.2379  0.4216
12278TIP3    H158325   2.011   3.490  11.858 -0.5153 -1.9013  0.9931
12278TIP3    H258326   1.904   3.540  11.763 -0.9150  0.5349  2.6119
12279TIP3   OH258327   2.769   6.139  13.910 -0.5641 -0.3686 -0.1566
12279TIP3    H158328   2.747   6.215  13.965  1.8428 -1.3159  2.3579
12279TIP3    H258329   2.735   6.064  13.958  0.2318 -1.1288 -0.7519
12280TIP3   OH258330   2.644   5.881  11.895  0.4639  0.2874 -0.2359
12280TIP3    H158331   2.713   5.852  11.955  0.2184 -0.3182 -0.2372
12280TIP3    H258332   2.604   5.800  11.863 -2.0727  0.5795  1.8726
12281TIP3   OH258333   6.596   3.223   1.702  0.2062 -0.1856  0.3334
12281TIP3    H158334   6.524   3.253   1.647  0.6011 -1.2894 -0.8322
12281TIP3    H258335   6.553   3.177   1.774 -0.2675 -0.0530  0.1425
12282TIP3   OH258336   3.288   0.179   1.795 -0.0335  0.2930  0.4474
12282TIP3    H158337   3.223   0.239   1.831  0.4609  0.3820  1.2023
12282TIP3    H258338   3.372   0.214   1.822  0.2372 -1.2740  1.8031
12283TIP3   OH258339   2.021   0.541  15.582 -0.1564 -0.5441 -0.1636
12283TIP3    H158340   2.114   0.543  15.560 -0.0210  0.5050  0.4597
12283TIP3    H258341   1.976   0.566  15.501  0.1059 -0.8507 -0.4059
12284TIP3   OH258342   1.686   1.405  16.095 -0.2943  0.2453 -0.2890
12284TIP3    H158343   1.777   1.385  16.070 -0.4169 -0.6926 -0.0329
12284TIP3    H258344   1.691   1.489  16.139  0.2311  0.9434 -1.6301
12285TIP3   OH258345   6.509   0.247   5.160  0.5258  0.0341  0.5602
12285TIP3    H158346   6.446   0.191   5.205  0.9603  0.8006  2.1999
12285TIP3    H258347   6.456   0.303   5.104 -0.2994  0.8002  2.0508
12286TIP3   OH258348   6.057   2.680   0.926  0.4724 -0.4886 -0.1076
12286TIP3    H158349   6.096   2.745   0.867  0.7949 -2.2893 -1.9893
12286TIP3    H258350   6.077   2.713   1.014  1.0193  1.6890 -0.9778
12287TIP3   OH258351   2.467   6.396   0.044  0.0383 -0.5266 -0.3303
12287TIP3    H158352   2.484   6.329   0.110  0.3786  0.6800  0.8806
12287TIP3    H258353   2.540   6.458   0.054 -1.6223  1.4164  0.5178
12288TIP3   OH258354   0.514   3.661   2.021  0.1986  0.2881  0.1372
12288TIP3    H158355   0.572   3.650   2.097  0.8633  2.0770 -0.0710
12288TIP3    H258356   0.449   3.726   2.049  1.0974  1.7998 -1.1357
12289TIP3   OH258357   3.975   4.541   2.518 -0.0865 -0.4943  0.3658
12289TIP3    H158358   4.041   4.493   2.469 -1.6958 -1.5355 -0.8796
12289TIP3    H258359   3.958   4.619   2.465 -0.9297 -0.9947 -0.1152
12290TIP3   OH258360   4.801   2.833  15.476 -0.1548  0.9447  0.3107
12290TIP3    H158361   4.896   2.832  15.484 -0.2141  1.4072  1.1855
12290TIP3    H258362   4.775   2.918  15.510 -0.7644  1.5278 -1.4819
12291TIP3   OH258363   6.810   1.140   2.895 -0.6452  0.4310  0.0873
12291TIP3    H158364   6.806   1.091   2.813 -0.6314  1.2114 -0.3897
12291TIP3    H258365   6.894   1.187   2.891  0.8757 -1.8662  1.9299
12292TIP3   OH258366   3.814   4.282   4.353 -0.9710 -0.0923 -0.1900
12292TIP3    H158367   3.864   4.209   4.389 -1.9145 -0.9802 -0.6507
12292TIP3    H258368   3.785   4.252   4.267 -0.2747  1.3188 -0.9572
12293TIP3   OH258369   4.282   3.354  13.757  0.4766 -0.7677 -0.2886
12293TIP3    H158370   4.262   3.446  13.775  0.2191 -0.9254  0.2612
12293TIP3    H258371   4.347   3.356  13.686 -1.4916 -0.2326 -2.1881
12294TIP3   OH258372   4.463   5.012  14.608  0.3959 -0.1057 -0.2560
12294TIP3    H158373   4.513   5.087  14.639  0.1279  0.0892 -0.2859
12294TIP3    H258374   4.394   5.001  14.674 -1.7993  1.9408 -2.0011
12295TIP3   OH258375   1.873   0.664   5.355  0.2867 -0.1902  0.0690
12295TIP3    H158376   1.899   0.738   5.301 -4.5313  2.6113  0.9796
12295TIP3    H258377   1.779   0.657   5.342 -0.4364 -2.3117  4.5319
12296TIP3   OH258378   5.779   2.997   2.758 -0.6158  0.5636  0.0183
12296TIP3    H158379   5.835   3.072   2.777  0.0378  0.5552 -1.6588
12296TIP3    H258380   5.734   3.020   2.677  2.6712 -2.2995 -3.0178
12297TIP3   OH258381   5.108   0.030  12.714 -0.2956  0.3710  0.3598
12297TIP3    H158382   5.019   0.052  12.687 -0.0639  1.3354  0.3210
12297TIP3    H258383   5.159   0.033  12.632  0.2353  2.3755  0.7159
12298TIP3   OH258384   5.658   1.951  16.468  0.0574  0.4058 -0.4207
12298TIP3    H158385   5.624   2.014  16.532  0.2258  0.7397 -0.6613
12298TIP3    H258386   5.734   1.994  16.430  0.1105  0.0985 -0.6623
12299TIP3   OH258387   3.734   4.208  14.556 -0.3870 -0.0274  0.1192
12299TIP3    H158388   3.825   4.179  14.564 -1.0082 -2.6063 -1.1835
12299TIP3    H258389   3.698   4.200  14.645 -0.3272 -2.8455 -0.0327
12300TIP3   OH258390   4.967   4.951  16.285  0.7258 -0.0063 -0.1329
12300TIP3    H158391   4.880   4.980  16.259 -0.3551 -2.7865  0.0629
12300TIP3    H258392   4.992   4.887  16.219  1.9835 -0.2982  0.5915
12301TIP3   OH258393   1.912   6.690   4.481 -0.0889  0.2555  0.0494
12301TIP3    H158394   1.870   6.658   4.562  0.9893 -0.4231  0.3602
12301TIP3    H258395   1.979   6.750   4.512  0.3891 -0.0777 -0.3328
12302TIP3   OH258396   0.861   4.734   5.879 -0.0856  0.0446 -0.1990
12302TIP3    H158397   0.806   4.727   5.801 -1.4583  1.3918  0.5894
12302TIP3    H258398   0.946   4.702   5.852 -0.8681 -0.6817 -1.9013
12303TIP3   OH258399   0.725   3.402   0.488  0.1974 -0.3889 -0.3597
12303TIP3    H158400   0.729   3.382   0.395  1.1704 -0.8389 -0.2352
12303TIP3    H258401   0.743   3.496   0.494 -1.2435 -0.0568 -0.7058
12304TIP3   OH258402   1.515   6.753  12.564 -0.2321 -0.2999 -0.0692
12304TIP3    H158403   1.574   6.698  12.616  1.5062  0.5231 -1.0801
12304TIP3    H258404   1.570   6.825  12.533 -0.8143 -1.2645 -3.9211
12305TIP3   OH258405   1.182   5.791  16.735  0.3831  0.7160 -0.3136
12305TIP3    H158406   1.171   5.699  16.709  0.7099 -0.1330  2.2484
12305TIP3    H258407   1.277   5.804  16.737  0.3421  1.0305 -0.4103
12306TIP3   OH258408   4.162   5.743   3.188  0.2954 -0.6423 -0.4700
12306TIP3    H158409   4.222   5.807   3.151  2.1336 -2.7772 -1.3511
12306TIP3    H258410   4.185   5.740   3.281  0.0938  0.0707 -0.3944
12307TIP3   OH258411   3.818   3.924   1.463 -0.6030 -0.7587  0.5247
12307TIP3    H158412   3.903   3.880   1.458  0.1583  0.6211  0.9561
12307TIP3    H258413   3.839   4.017   1.464 -2.1686 -0.3774 -0.0388
12308TIP3   OH258414   6.683   0.132  15.187 -0.0621 -0.3432 -0.7635
12308TIP3    H158415   6.623   0.194  15.147  0.3778  0.3066 -0.4364
12308TIP3    H258416   6.695   0.165  15.276  0.1598 -0.9117 -0.5788
12309TIP3   OH258417   1.096   5.031  12.856 -0.2313  0.4413 -0.1492
12309TIP3    H158418   1.048   5.040  12.938  1.3258  2.4733  0.6277
12309TIP3    H258419   1.048   5.086  12.794  0.3256  1.4329  0.2792
12310TIP3   OH258420   6.166   5.844  13.216  0.0733  0.1131  0.1296
12310TIP3    H158421   6.250   5.886  13.199  0.1791 -0.5451 -1.1359
12310TIP3    H258422   6.145   5.866  13.306  0.5353  2.1405 -0.2156
12311TIP3   OH258423   0.615   2.064   2.385 -0.2505 -0.3512  0.5849
12311TIP3    H158424   0.570   2.145   2.359 -0.1082  0.1133  1.7385
12311TIP3    H258425   0.625   2.071   2.480 -0.0771 -1.6525  0.6822
12312TIP3   OH258426   4.329   2.793  15.291 -0.6974  0.1074  0.0328
12312TIP3    H158427   4.404   2.743  15.260  0.8069  2.1098  0.2007
12312TIP3    H258428   4.368   2.866  15.340 -2.7512  1.3452 -0.0537
12313TIP3   OH258429   2.171   4.634   4.125  0.3536 -0.1735 -0.5661
12313TIP3    H158430   2.253   4.626   4.174 -0.2242 -1.8538  0.2223
12313TIP3    H258431   2.142   4.543   4.113 -2.4496  0.3873  1.0607
12314TIP3   OH258432   5.092   6.473  12.999  0.0700  0.3022  0.4870
12314TIP3    H158433   5.133   6.559  12.991 -1.8969  1.3558  1.0134
12314TIP3    H258434   5.056   6.472  13.088 -2.7402  0.2942 -0.5586
12315TIP3   OH258435   1.658   1.634  16.260  0.4966 -0.5118 -0.1767
12315TIP3    H158436   1.646   1.641  16.354 -1.2334 -1.9561 -0.2270
12315TIP3    H258437   1.694   1.718  16.233 -0.4928  0.5108  1.5579
12316TIP3   OH258438   3.630   3.834  13.862 -0.0963 -0.0263 -0.5247
12316TIP3    H158439   3.679   3.799  13.788 -0.2168  0.3898 -0.8014
12316TIP3    H258440   3.696   3.870  13.921 -0.0681  0.4914 -0.8741
12317TIP3   OH258441   0.626   1.800   2.396  0.5686 -0.0394  0.8057
12317TIP3    H158442   0.665   1.784   2.482  1.7260  1.2060  0.5416
12317TIP3    H258443   0.622   1.895   2.389 -2.3276 -0.0762  0.6949
12318TIP3   OH258444   1.180   5.330  11.918  0.1546  0.4883  0.4093
12318TIP3    H158445   1.110   5.363  11.861  0.1312  0.7129  0.5652
12318TIP3    H258446   1.218   5.257  11.870 -1.7783 -1.2428  1.3374
12319TIP3   OH258447   5.932   4.567   3.183 -0.2873  0.2064  0.3893
12319TIP3    H158448   5.983   4.639   3.144 -0.4631 -0.1634 -0.5544
12319TIP3    H258449   5.845   4.576   3.144 -0.5745  0.0433  0.9913
12320TIP3   OH258450   5.680   3.060   5.878  0.7453  0.8302 -0.4575
12320TIP3    H158451   5.657   3.004   5.952 -1.4619 -0.5325 -2.0246
12320TIP3    H258452   5.657   3.148   5.906  1.1825  0.5346  0.9114
12321TIP3   OH258453   2.467   4.567   0.118 -0.2157  0.2235 -0.3671
12321TIP3    H158454   2.531   4.591   0.051 -0.2939 -0.3033 -0.6356
12321TIP3    H258455   2.395   4.628   0.104 -0.4716 -0.2325 -1.1336
12322TIP3   OH258456   2.252   0.659  15.831  0.1532  0.0457 -0.0618
12322TIP3    H158457   2.175   0.614  15.865 -0.4948  1.4395  0.3791
12322TIP3    H258458   2.286   0.600  15.764 -1.0776 -0.7840  0.0058
12323TIP3   OH258459   3.818   6.520  13.971 -0.6613  1.0021 -0.1240
12323TIP3    H158460   3.878   6.453  14.005 -0.5056  1.5626  0.7397
12323TIP3    H258461   3.866   6.602  13.981 -1.9931  1.6228  1.7174
12324TIP3   OH258462   5.332   3.939  16.744 -0.0670 -0.6714 -0.4247
12324TIP3    H158463   5.311   4.013  16.686  1.6435  0.9738  0.9352
12324TIP3    H258464   5.427   3.929  16.737 -0.1258 -2.0239  0.2965
12325TIP3   OH258465   6.489   4.859  13.005  0.5595 -0.2724  0.4402
12325TIP3    H158466   6.581   4.861  12.979  0.2556  0.7830 -0.6525
12325TIP3    H258467   6.460   4.950  12.999 -0.5972 -0.6089  0.6085
12326TIP3   OH258468   0.100   1.219  16.622 -0.0161 -0.3864 -0.3991
12326TIP3    H158469   0.045   1.204  16.544  0.2965  0.7799 -0.8589
12326TIP3    H258470   0.067   1.156  16.686 -4.1051  2.2961  0.4842
12327TIP3   OH258471   3.540   0.889   0.872 -0.7218 -0.4726  0.1507
12327TIP3    H158472   3.479   0.834   0.921 -0.4997 -0.3690  0.5500
12327TIP3    H258473   3.579   0.946   0.939 -1.8198  0.9991 -0.4037
12328TIP3   OH258474   3.751   0.890   2.690  0.1965  0.1486 -0.4297
12328TIP3    H158475   3.798   0.974   2.690 -0.1394  0.3425  0.6010
12328TIP3    H258476   3.820   0.825   2.677  0.6732  0.4770  0.3728
12329TIP3   OH258477   2.324   2.504  14.392  0.1590  0.3458 -0.1203
12329TIP3    H158478   2.295   2.415  14.372 -0.9398  0.6515  0.0411
12329TIP3    H258479   2.337   2.545  14.306 -2.7432  1.0761 -0.3391
12330TIP3   OH258480   0.653   6.357  15.915  0.0541 -0.3143  0.1928
12330TIP3    H158481   0.621   6.286  15.860 -0.2633 -0.9903  1.2225
12330TIP3    H258482   0.686   6.314  15.994 -1.7493  0.7410  1.6230
12331TIP3   OH258483   0.288   2.063  14.514 -0.3459 -0.4991  0.6225
12331TIP3    H158484   0.194   2.052  14.522 -0.3641  0.2557  1.7175
12331TIP3    H258485   0.315   2.104  14.597  0.8899 -0.3920  0.1992
12332TIP3   OH258486   0.341   4.143  11.281  0.1000  0.6208  0.0905
12332TIP3    H158487   0.410   4.130  11.215  0.5717  2.2280  0.2359
12332TIP3    H258488   0.319   4.054  11.310  1.7882  0.0487 -0.2777
12333TIP3   OH258489   2.265   4.805   3.552 -0.5910  0.1038 -0.1712
12333TIP3    H158490   2.326   4.874   3.577 -1.6286  2.4994 -3.4816
12333TIP3    H258491   2.195   4.810   3.617 -0.7016  2.3731 -0.3827
12334TIP3   OH258492   3.598   0.781   1.326  0.0711 -0.0528  0.8666
12334TIP3    H158493   3.612   0.689   1.304  1.1756  0.3193 -0.1302
12334TIP3    H258494   3.687   0.816   1.338 -0.0552  1.6395 -2.1278
12335TIP3   OH258495   5.922   5.643   4.880 -0.1935 -0.2818  0.1914
12335TIP3    H158496   5.864   5.719   4.882  1.3462  0.9648 -0.4895
12335TIP3    H258497   5.965   5.648   4.794  2.8497  0.3903  1.6359
12336TIP3   OH258498   0.320   2.837   4.140  0.2765  0.0732  0.1241
12336TIP3    H158499   0.400   2.869   4.097 -0.0690  0.6911 -0.0697
12336TIP3    H258500   0.305   2.899   4.211  1.3608 -1.4512  1.7724
12337TIP3   OH258501   1.116   1.832   2.851  0.4967  0.4696 -0.0558
12337TIP3    H158502   1.148   1.751   2.811 -1.4764 -0.5007  0.1780
12337TIP3    H258503   1.049   1.802   2.913  1.7265  2.0955  2.1906
12338TIP3   OH258504   4.141   4.473   6.103 -0.1895  0.2357  0.2341
12338TIP3    H158505   4.046   4.480   6.113 -0.5265 -0.3550 -2.0117
12338TIP3    H258506   4.174   4.562   6.117 -1.0017  0.3590  1.4863
12339TIP3   OH258507   0.992   4.289   2.119  0.2668  0.1484 -0.9473
12339TIP3    H158508   1.083   4.291   2.147  0.3184 -0.2479 -1.0823
12339TIP3    H258509   0.944   4.263   2.198  0.2713  0.3236 -0.8853
12340TIP3   OH258510   5.545   1.834   2.049  0.3299 -0.1264  0.0732
12340TIP3    H158511   5.566   1.835   1.956 -1.1527 -0.9149 -0.2992
12340TIP3    H258512   5.569   1.746   2.079 -0.2204 -0.2482  0.1721
12341TIP3   OH258513   4.577   0.382  11.711  0.0124  0.1376  0.4325
12341TIP3    H158514   4.666   0.347  11.720  0.4584  1.0029 -0.3713
12341TIP3    H258515   4.540   0.333  11.637  0.5186  1.0761 -0.4761
12342TIP3   OH258516   6.481   2.319  11.363  0.0765 -0.0014  0.2516
12342TIP3    H158517   6.459   2.230  11.336  0.2993 -0.0572  0.2454
12342TIP3    H258518   6.574   2.313  11.387  0.7039  0.6843 -1.7589
12343TIP3   OH258519   3.503   1.796  11.141 -0.1477 -0.0427  0.0821
12343TIP3    H158520   3.579   1.848  11.116 -0.4480 -0.4175 -1.7930
12343TIP3    H258521   3.433   1.860  11.151 -0.1565  0.0849 -0.6972
12344TIP3   OH258522   2.880   2.266   4.236 -0.0410 -0.5344  0.4715
12344TIP3    H158523   2.812   2.238   4.297 -0.8168 -1.4962 -0.7843
12344TIP3    H258524   2.888   2.193   4.174 -2.6305  2.0680 -3.4003
12345TIP3   OH258525   3.629   3.115  14.494 -0.4407 -0.3930 -0.3839
12345TIP3    H158526   3.539   3.123  14.462 -0.3228 -1.8927 -1.1797
12345TIP3    H258527   3.683   3.114  14.415  0.1908 -0.4837  0.0402
12346TIP3   OH258528   0.011   0.442   6.303 -0.3534 -0.4237  0.3380
12346TIP3    H158529   0.016   0.536   6.320  1.4019 -0.4612  0.2100
12346TIP3    H258530  -0.013   0.404   6.388 -2.1806  0.1788  0.1438
12347TIP3   OH258531   5.994   3.817   3.451 -0.0133  0.0750 -0.0795
12347TIP3    H158532   5.984   3.724   3.432  0.4206  0.0782 -0.3235
12347TIP3    H258533   5.905   3.848   3.467 -0.1496 -0.4004  0.0874
12348TIP3   OH258534   0.584   3.869   2.874  0.1584  0.1656  0.1963
12348TIP3    H158535   0.602   3.960   2.848  0.8277  0.2062  0.7668
12348TIP3    H258536   0.536   3.832   2.800 -0.8894  1.2327  0.3032
12349TIP3   OH258537   4.296   6.183   1.027  0.0656 -0.2373  0.6632
12349TIP3    H158538   4.250   6.257   1.066  1.3246 -0.0406  1.8663
12349TIP3    H258539   4.388   6.211   1.021  0.5062 -1.5467  0.8076
12350TIP3   OH258540   3.870   3.510  12.377 -0.2690 -0.3418 -0.7736
12350TIP3    H158541   3.784   3.469  12.375 -0.3005 -0.4121  0.7841
12350TIP3    H258542   3.853   3.601  12.402  0.0656 -0.2382 -0.9208
12351TIP3   OH258543   3.790   1.103   4.214  0.4314 -0.1945  0.0345
12351TIP3    H158544   3.770   1.117   4.121  0.4677 -0.2781  0.0144
12351TIP3    H258545   3.705   1.087   4.255  0.4755 -0.6993 -0.0749
12352TIP3   OH258546   3.985   4.655  15.276  0.6156 -0.0264 -0.6241
12352TIP3    H158547   3.914   4.603  15.314  0.8603  0.2480  0.2505
12352TIP3    H258548   4.058   4.593  15.267  1.0186  0.2069  0.7435
12353TIP3   OH258549   6.282   5.119  11.322  0.7800  0.5926  0.1710
12353TIP3    H158550   6.209   5.181  11.321 -1.0604 -1.4278 -1.6994
12353TIP3    H258551   6.242   5.035  11.345  2.8051 -0.3531  0.4838
12354TIP3   OH258552   2.036   2.311  12.985  0.3391  0.1992 -0.1896
12354TIP3    H158553   1.965   2.358  12.941  0.2307 -0.4429 -0.7153
12354TIP3    H258554   2.076   2.258  12.916 -0.4472 -1.5712  0.6483
12355TIP3   OH258555   0.855   5.611  13.264 -0.3216 -0.7801 -0.1151
12355TIP3    H158556   0.835   5.647  13.178  0.8586 -1.1130 -0.5548
12355TIP3    H258557   0.785   5.548  13.281 -1.3563  0.3327 -0.1791
12356TIP3   OH258558   4.978   2.203  11.578 -0.8154  0.7142  0.0256
12356TIP3    H158559   5.024   2.146  11.516  0.4223  1.0524  0.5973
12356TIP3    H258560   4.940   2.272  11.522  2.1408  2.2818 -0.2808
12357TIP3   OH258561   2.753   6.788  13.239  0.3082 -0.1312  0.1647
12357TIP3    H158562   2.760   6.880  13.214 -1.1525  0.2309  0.9281
12357TIP3    H258563   2.683   6.753  13.184 -0.8899 -0.0872  1.5741
12358TIP3   OH258564   4.817   3.671  13.065  0.0355  0.0476  0.3857
12358TIP3    H158565   4.774   3.706  13.144 -0.1088 -0.6071  0.5999
12358TIP3    H258566   4.748   3.624  13.019  0.0538  0.6439 -0.2773
12359TIP3   OH258567   2.563   6.248   3.131 -0.2873 -0.3559  0.2687
12359TIP3    H158568   2.545   6.265   3.223 -2.4886 -0.5673 -0.0665
12359TIP3    H258569   2.636   6.187   3.131  3.0230  3.1756  1.6936
12360TIP3   OH258570   3.460   5.187  11.560 -0.9610 -0.0363 -0.2548
12360TIP3    H158571   3.466   5.261  11.500 -1.4287  1.4241  1.4001
12360TIP3    H258572   3.369   5.189  11.590 -0.4695 -0.0041  1.3295
12361TIP3   OH258573   1.776   1.490  11.260  0.1319  0.7045 -0.4738
12361TIP3    H158574   1.730   1.436  11.196 -1.5126  2.5951 -1.0203
12361TIP3    H258575   1.834   1.545  11.207 -0.6858  1.7523 -0.3274
12362TIP3   OH258576   2.003   1.509  15.815  0.5795 -0.2703  0.0483
12362TIP3    H158577   1.968   1.432  15.860 -0.8273  1.2465  1.7112
12362TIP3    H258578   1.957   1.510  15.731  0.1704 -0.9283  0.2582
12363TIP3   OH258579   2.157   6.601   2.888  0.3090  0.1589 -0.3401
12363TIP3    H158580   2.250   6.614   2.907  0.2968  1.2087 -0.9472
12363TIP3    H258581   2.153   6.589   2.794 -0.0338 -1.2799 -0.1584
12364TIP3   OH258582   3.477   5.251   5.624  0.2257  0.6251  0.2902
12364TIP3    H158583   3.456   5.305   5.700  1.0120 -0.4114  1.2797
12364TIP3    H258584   3.427   5.170   5.637 -0.3924  0.8165 -0.8040
12365TIP3   OH258585   2.432   6.554  16.998  0.1567  0.4653 -0.5472
12365TIP3    H158586   2.430   6.492  17.072 -1.1427  1.0413 -0.0696
12365TIP3    H258587   2.427   6.498  16.921 -1.1422 -0.0646 -0.1198
12366TIP3   OH258588   5.425   5.418   2.367  0.1185 -0.2923 -0.0008
12366TIP3    H158589   5.363   5.413   2.294  0.0786 -0.4965  0.0463
12366TIP3    H258590   5.374   5.390   2.444  0.2295 -0.3258  0.0618
12367TIP3   OH258591   2.249   3.353   3.133  0.8925 -0.0253  0.3128
12367TIP3    H158592   2.314   3.283   3.123 -1.4308 -1.9529 -3.3701
12367TIP3    H258593   2.185   3.318   3.195  0.1592 -0.8611 -0.8942
12368TIP3   OH258594   4.834   0.778  13.694 -0.2375  0.1982  0.6816
12368TIP3    H158595   4.881   0.849  13.736 -1.4777  0.8791  0.9731
12368TIP3    H258596   4.807   0.720  13.765 -0.1987  0.0304  0.5622
12369TIP3   OH258597   5.984   0.038   5.181  0.2457  0.1438 -0.2581
12369TIP3    H158598   5.977   0.077   5.269 -0.0096  1.3223 -0.7745
12369TIP3    H258599   5.898  -0.001   5.166  0.6914 -1.2131  0.5042
12370TIP3   OH258600   0.473   0.502   5.486 -0.3822  0.3679 -0.8591
12370TIP3    H158601   0.521   0.477   5.407 -1.4868 -0.0540 -1.4260
12370TIP3    H258602   0.474   0.423   5.540 -2.3179 -0.4141 -1.8603
12371TIP3   OH258603   5.942   3.748   0.002 -0.0346 -0.1638 -0.1712
12371TIP3    H158604   5.957   3.772  -0.090  0.8442  1.4920  0.3485
12371TIP3    H258605   5.854   3.712   0.004 -0.8521  1.6484 -1.3727
12372TIP3   OH258606   3.072   1.013  16.325 -0.7173 -0.2793 -0.1525
12372TIP3    H158607   2.984   1.018  16.286 -1.7028 -1.2075  1.8279
12372TIP3    H258608   3.067   0.940  16.385  1.3371 -0.0986  0.2784
12373TIP3   OH258609   4.911   2.664  11.944  0.2252  0.3222  0.4839
12373TIP3    H158610   4.970   2.597  11.980  1.1045  1.0028  0.3499
12373TIP3    H258611   4.907   2.731  12.012 -0.5977  0.1819  0.5851
12374TIP3   OH258612   1.451   2.100  12.309 -0.2356 -0.1938  0.1507
12374TIP3    H158613   1.443   2.101  12.213 -0.4874 -0.9592  0.1559
12374TIP3    H258614   1.377   2.047  12.339  0.8572 -1.5276  0.6395
12375TIP3   OH258615   1.493   1.884  15.743 -0.0521  0.8815 -0.5130
12375TIP3    H158616   1.567   1.842  15.787 -0.6297  0.1197 -0.2269
12375TIP3    H258617   1.416   1.839  15.779 -0.7390  2.4282  0.0598
12376TIP3   OH258618   5.144   3.631  13.159  0.3470  1.1082 -0.0214
12376TIP3    H158619   5.096   3.552  13.184 -0.6328  1.8580  0.5318
12376TIP3    H258620   5.222   3.598  13.114  0.5679 -0.1971  1.2488
12377TIP3   OH258621   5.122   0.515   1.121 -0.2347 -0.5308 -0.5263
12377TIP3    H158622   5.070   0.586   1.083  0.3914  0.3031  0.1531
12377TIP3    H258623   5.069   0.484   1.194  1.9496  3.2491  3.0427
12378TIP3   OH258624   1.690   2.426   4.016  0.0001 -0.3337  0.0603
12378TIP3    H158625   1.776   2.427   4.059 -0.0089 -1.2605  0.1068
12378TIP3    H258626   1.638   2.366   4.069  0.1315 -1.8962 -1.4987
12379TIP3   OH258627   4.137   0.512   1.913 -0.2955 -0.1600 -0.1169
12379TIP3    H158628   4.164   0.463   1.836  0.5375  0.4248 -0.2179
12379TIP3    H258629   4.115   0.599   1.880 -0.1123  0.0380  0.2743
12380TIP3   OH258630   4.548   6.581   3.313  0.3490  0.2903  0.6491
12380TIP3    H158631   4.573   6.581   3.405 -0.3013 -1.6067  0.8613
12380TIP3    H258632   4.622   6.540   3.268 -0.1912 -0.6497  0.6063
12381TIP3   OH258633   6.756   6.701   3.460 -0.4041 -0.1734  0.8476
12381TIP3    H158634   6.791   6.772   3.407 -0.3699 -1.3452 -0.7956
12381TIP3    H258635   6.676   6.737   3.499 -0.8601  0.5289 -0.6471
12382TIP3   OH258636   1.308   5.764   4.619  0.0846 -0.0108 -0.3708
12382TIP3    H158637   1.235   5.702   4.626 -1.6327  1.9221 -0.2012
12382TIP3    H258638   1.353   5.758   4.703 -0.9717  0.0450  0.2151
12383TIP3   OH258639   4.713   1.229  14.653  0.1355 -0.1359  0.6348
12383TIP3    H158640   4.796   1.184  14.666 -0.2775 -0.6289  1.6299
12383TIP3    H258641   4.669   1.224  14.737 -0.7111  0.5363  0.2528
12384TIP3   OH258642   4.659   3.689  12.704 -0.2093 -0.5972 -0.0021
12384TIP3    H158643   4.746   3.723  12.726 -0.0249 -0.9164 -0.2169
12384TIP3    H258644   4.639   3.728  12.620 -2.3537  3.2850  2.0480
12385TIP3   OH258645   4.396   2.214   4.820 -0.4091 -0.6804  0.0208
12385TIP3    H158646   4.458   2.284   4.840  0.4235 -1.6276  0.8804
12385TIP3    H258647   4.357   2.239   4.737  1.1147 -0.0433 -0.5290
12386TIP3   OH258648   4.622   6.291   4.863 -0.3239 -0.4094  0.7158
12386TIP3    H158649   4.562   6.281   4.789 -0.0274  0.1699  0.3954
12386TIP3    H258650   4.682   6.217   4.855  1.0759  0.8322 -0.9125
12387TIP3   OH258651   2.098   6.531  15.998  0.3290  0.1474  0.4038
12387TIP3    H158652   2.080   6.496  16.085 -0.1074 -2.0202 -0.4945
12387TIP3    H258653   2.094   6.455  15.940  1.5224  1.3731 -1.3980
12388TIP3   OH258654   0.730   3.697   0.468  0.1006  0.0913  0.7214
12388TIP3    H158655   0.707   3.776   0.516  1.2665  0.9873 -0.1604
12388TIP3    H258656   0.721   3.720   0.376 -0.0296 -0.9553  0.4533
12389TIP3   OH258657   0.447   2.772  17.011  0.1920 -1.0053  0.1039
12389TIP3    H158658   0.443   2.696  17.070  2.8383 -0.0636  1.6682
12389TIP3    H258659   0.526   2.757  16.958  0.8075  0.6123  0.4870
12390TIP3   OH258660   3.900   2.151  14.671  0.4876 -0.1224 -0.4262
12390TIP3    H158661   3.945   2.141  14.586 -1.5549  0.1934 -1.6045
12390TIP3    H258662   3.855   2.236  14.664  0.8906  0.2549  1.2923
12391TIP3   OH258663   6.640   5.711   3.332 -0.2514 -0.0833  0.1614
12391TIP3    H158664   6.715   5.691   3.277  0.2941  1.2703  0.3709
12391TIP3    H258665   6.595   5.628   3.342  2.7798 -1.6196  2.4241
12392TIP3   OH258666   2.967   4.811  11.571  0.2146  0.0227 -0.1276
12392TIP3    H158667   3.001   4.774  11.489 -0.2818  0.2601 -0.4449
12392TIP3    H258668   2.879   4.774  11.580  1.0675 -1.7526  1.4517
12393TIP3   OH258669   6.086   6.289   0.297 -0.6705 -0.1167 -0.2005
12393TIP3    H158670   6.001   6.267   0.260 -1.6237 -0.7496  2.1956
12393TIP3    H258671   6.142   6.213   0.278 -0.8087  0.0153 -1.1886
12394TIP3   OH258672   1.002   3.425  15.871 -0.6949  0.2760  0.3642
12394TIP3    H158673   1.060   3.445  15.797 -0.6466  0.9166  0.5680
12394TIP3    H258674   0.976   3.334  15.857 -0.6083  0.3592 -0.3916
12395TIP3   OH258675   0.430   2.348  13.741 -0.1594 -0.1061  0.5221
12395TIP3    H158676   0.352   2.382  13.697 -0.0479 -1.2063 -0.5709
12395TIP3    H258677   0.440   2.259  13.707 -0.5105 -1.3326  3.3438
12396TIP3   OH258678   4.304   6.135   2.686 -0.0150  0.2434  0.0008
12396TIP3    H158679   4.310   6.101   2.597 -0.1065 -2.1293  0.8354
12396TIP3    H258680   4.230   6.196   2.683 -0.6810 -0.5824 -1.3238
12397TIP3   OH258681   3.221   6.101  10.538  0.5139  0.1356  0.3039
12397TIP3    H158682   3.294   6.040  10.547  0.6621  0.3726  0.7199
12397TIP3    H258683   3.262   6.186  10.519  0.3456  0.2640  0.5079
12398TIP3   OH258684   0.478   2.684  12.971 -0.2845 -0.0451  0.1266
12398TIP3    H158685   0.432   2.690  13.055 -2.1056  0.4565 -0.8406
12398TIP3    H258686   0.571   2.677  12.995 -0.8879 -2.1362  2.2167
12399TIP3   OH258687   2.207   6.213  11.636  0.0328  0.0603  0.0501
12399TIP3    H158688   2.283   6.227  11.693 -0.2318  0.5404  0.2914
12399TIP3    H258689   2.132   6.242  11.688 -0.5529 -2.0674  0.4970
12400TIP3   OH258690   5.872   2.133  13.062  0.1219 -0.6872  0.0585
12400TIP3    H158691   5.877   2.070  13.133  0.3619  0.6421  1.2658
12400TIP3    H258692   5.789   2.179  13.076  0.4548 -0.0054 -0.1483
12401TIP3   OH258693   2.496   1.525   5.757  0.6426 -0.5914  0.5157
12401TIP3    H158694   2.424   1.461   5.752  0.6083 -0.6318  1.4024
12401TIP3    H258695   2.465   1.600   5.706  0.5752 -1.1755 -0.3189
12402TIP3   OH258696   6.095   5.240  13.527 -0.0444  0.6359 -0.0211
12402TIP3    H158697   6.117   5.158  13.484 -1.5508 -0.7171  1.6332
12402TIP3    H258698   6.020   5.274  13.477 -0.0200  0.5168 -0.1391
12403TIP3   OH258699   0.297   1.728  15.445 -0.0339 -0.1907 -0.4690
12403TIP3    H158700   0.265   1.790  15.378  1.6142 -0.2111 -1.3177
12403TIP3    H258701   0.336   1.657  15.394 -0.0348 -0.9243  0.5336
12404TIP3   OH258702   4.450   3.684  15.200  0.5576  0.6739  0.0074
12404TIP3    H158703   4.479   3.698  15.290 -1.2165  0.0170  0.7309
12404TIP3    H258704   4.478   3.595  15.179 -0.3834  0.2489  0.4989
12405TIP3   OH258705   0.098   1.906  16.319  0.1788  0.1103 -0.0115
12405TIP3    H158706   0.193   1.917  16.316  0.0776  0.9600 -0.3352
12405TIP3    H258707   0.064   1.995  16.319 -0.6091 -0.1774  0.7487
12406TIP3   OH258708   2.255   1.767   4.930  0.1127  0.2685  0.1247
12406TIP3    H158709   2.329   1.728   4.975 -0.2194 -1.5430 -0.8079
12406TIP3    H258710   2.178   1.738   4.979 -0.0995  0.4395 -0.1020
12407TIP3   OH258711   3.771   1.979   2.868 -0.3794  0.1226  0.0993
12407TIP3    H158712   3.814   2.061   2.891 -1.4061  1.3567 -2.0789
12407TIP3    H258713   3.836   1.911   2.885  0.2559  1.2594  2.6431
12408TIP3   OH258714   5.717   0.743   1.020  0.2063 -0.5416  0.3715
12408TIP3    H158715   5.715   0.647   1.021  1.8262 -0.6018  1.3450
12408TIP3    H258716   5.807   0.765   0.999 -0.0696  0.7811  0.4988
12409TIP3   OH258717   1.227   1.435   0.818  0.1299  0.0352  0.2647
12409TIP3    H158718   1.179   1.515   0.796  0.3210  0.7303  2.1962
12409TIP3    H258719   1.318   1.464   0.829  0.0623 -0.2292  1.8242
12410TIP3   OH258720   5.445   6.233  16.013 -0.2032  0.1234 -0.3699
12410TIP3    H158721   5.466   6.268  16.099  0.0479 -1.2791  0.1555
12410TIP3    H258722   5.474   6.301  15.952  2.9221 -0.3114  0.4726
12411TIP3   OH258723   1.547   4.484   1.362  0.1606 -0.8588 -0.2584
12411TIP3    H158724   1.592   4.429   1.298  0.3739  1.5898 -2.3665
12411TIP3    H258725   1.612   4.499   1.431  0.5182 -2.1534 -0.2986
12412TIP3   OH258726   1.391   1.152   4.746 -0.0693  0.5087 -0.6044
12412TIP3    H158727   1.304   1.114   4.737 -0.1698  0.8421 -1.0972
12412TIP3    H258728   1.424   1.159   4.656  0.8199 -0.4133 -0.3588
12413TIP3   OH258729   2.211   0.575  11.800  0.4141  0.0275 -0.0017
12413TIP3    H158730   2.137   0.603  11.855  0.8868  0.7917  0.2589
12413TIP3    H258731   2.268   0.652  11.796  1.6618 -0.8364  0.5629
12414TIP3   OH258732   3.760   4.998  11.304 -0.1824 -0.2412  0.1716
12414TIP3    H158733   3.823   5.027  11.370  1.1053  0.6708 -1.3986
12414TIP3    H258734   3.728   4.914  11.337  0.3146  0.2360  2.0034
12415TIP3   OH258735   4.084   4.172  15.505  0.5594  0.2005 -0.2939
12415TIP3    H158736   4.118   4.125  15.428  1.1060  0.1199 -0.0046
12415TIP3    H258737   3.990   4.182  15.486  0.3348 -1.3784 -0.1870
12416TIP3   OH258738   1.871   3.894   5.193 -0.2244  0.6503 -0.6739
12416TIP3    H158739   1.801   3.903   5.258  0.0864 -3.3718  0.5133
12416TIP3    H258740   1.826   3.877   5.110 -0.6897 -0.0514 -0.2881
12417TIP3   OH258741   1.233   6.647   1.659  0.4172 -0.2764  0.2534
12417TIP3    H158742   1.208   6.570   1.710 -1.0976  0.6831  1.0718
12417TIP3    H258743   1.300   6.690   1.713  2.0956 -1.5546 -0.7388
12418TIP3   OH258744   4.431   2.502  17.013 -0.1363  0.7365  0.2482
12418TIP3    H158745   4.422   2.476  16.921 -1.1656  0.7618  0.3215
12418TIP3    H258746   4.525   2.517  17.025  0.3800 -1.7987 -0.0913
12419TIP3   OH258747   6.629   4.026  12.788 -0.3048 -0.8908  0.0024
12419TIP3    H158748   6.533   4.030  12.782 -0.4640 -0.4803  2.0885
12419TIP3    H258749   6.649   3.932  12.785 -0.7369 -0.9687 -0.7187
12420TIP3   OH258750   1.543   2.614   1.953  0.7211  0.4592 -0.5160
12420TIP3    H158751   1.527   2.539   2.011 -1.9082  1.3594  0.0756
12420TIP3    H258752   1.571   2.575   1.871  1.7453 -1.0171  0.4841
12421TIP3   OH258753   5.909   1.226   1.817 -0.2944 -0.4804 -0.4105
12421TIP3    H158754   5.849   1.264   1.753  1.4694  1.0355 -1.2577
12421TIP3    H258755   5.939   1.301   1.868  1.9996 -0.9383 -0.9985
12422TIP3   OH258756   5.414   4.308  15.269 -0.1353 -0.6706  0.1561
12422TIP3    H158757   5.385   4.351  15.350  1.1993 -1.9648  1.3681
12422TIP3    H258758   5.333   4.276  15.229 -1.0169  1.5938 -0.0306
12423TIP3   OH258759   5.928   4.750  11.282  0.0329  0.2247 -0.3117
12423TIP3    H158760   5.922   4.698  11.362  0.5817 -2.6761 -2.0300
12423TIP3    H258761   5.844   4.796  11.277  0.5339  1.6780  2.5852
12424TIP3   OH258762   1.130   0.930  15.634 -0.1838  0.2245 -0.3328
12424TIP3    H158763   1.065   0.906  15.568  0.1920 -1.1515 -0.2308
12424TIP3    H258764   1.189   0.990  15.590  0.8151 -1.6584 -1.6831
12425TIP3   OH258765   4.620   6.580   6.096 -0.2513 -0.2252  0.7189
12425TIP3    H158766   4.591   6.496   6.060  1.5068 -0.2363 -0.9020
12425TIP3    H258767   4.690   6.557   6.157  1.0211  0.0527 -0.5778
12426TIP3   OH258768   1.242   1.792  15.784  0.3679  0.0384  0.2523
12426TIP3    H158769   1.227   1.874  15.831  0.3847  0.4865 -0.5155
12426TIP3    H258770   1.160   1.744  15.793  0.0474  0.5206 -0.0401
12427TIP3   OH258771   0.524   3.849  11.818 -0.5735 -0.6769  0.5035
12427TIP3    H158772   0.446   3.804  11.849  0.2326 -1.0330  2.1058
12427TIP3    H258773   0.596   3.790  11.839  0.1324 -0.4723 -1.1762
12428TIP3   OH258774   2.726   0.505  12.917 -0.6008  0.0531  0.5307
12428TIP3    H158775   2.779   0.466  12.986 -1.8241  0.5683  1.8109
12428TIP3    H258776   2.645   0.454  12.916 -0.5784  0.0122 -0.5754
12429TIP3   OH258777   4.847   4.278  12.119  0.2710  0.4869 -0.2963
12429TIP3    H158778   4.857   4.368  12.089 -2.5004  0.7744 -0.7085
12429TIP3    H258779   4.831   4.228  12.039  2.6271 -0.5882 -0.1625
12430TIP3   OH258780   5.723   6.495  14.790  0.0729  0.3673 -0.3464
12430TIP3    H158781   5.653   6.460  14.845  0.0827  0.5350 -0.2241
12430TIP3    H258782   5.741   6.426  14.727  2.2476 -1.1826  1.7869
12431TIP3   OH258783   1.183   4.342  12.528  0.1937 -0.0189 -0.3014
12431TIP3    H158784   1.210   4.258  12.490 -0.8041  0.0972 -1.3484
12431TIP3    H258785   1.191   4.404  12.455 -0.6623  0.4589  0.0005
12432TIP3   OH258786   4.953   6.806  13.598  0.2868 -0.0403  0.1170
12432TIP3    H158787   4.944   6.727  13.545 -1.2400  0.0905  0.1317
12432TIP3    H258788   4.996   6.778  13.678 -0.5724 -0.9268  0.2742
12433TIP3   OH258789   5.521   4.913  16.350 -1.1318 -0.0001  0.2819
12433TIP3    H158790   5.496   4.966  16.274  0.2330  1.7956  1.0032
12433TIP3    H258791   5.595   4.861  16.321 -1.7539 -0.6959 -0.1005
12434TIP3   OH258792   1.600   2.549  12.201 -0.3484 -0.5417 -0.2392
12434TIP3    H158793   1.659   2.588  12.266 -1.5734  1.2979 -0.1608
12434TIP3    H258794   1.651   2.551  12.119 -0.7516  2.5896 -0.5568
12435TIP3   OH258795   3.940   4.152   3.261  0.0378  1.0426 -0.4319
12435TIP3    H158796   3.954   4.234   3.214 -0.2771  1.4190  0.1294
12435TIP3    H258797   4.027   4.114   3.270 -0.0580  0.0482 -2.9377
12436TIP3   OH258798   3.176   5.341  12.281 -0.0057 -0.2768  0.4056
12436TIP3    H158799   3.182   5.367  12.373 -1.4001  0.4200  0.3410
12436TIP3    H258800   3.259   5.367  12.242  0.0531  0.7308  1.1726
12437TIP3   OH258801   3.738   1.964  12.257 -0.1194  0.5806  0.3505
12437TIP3    H158802   3.760   1.935  12.169 -0.2350 -0.2662  0.5823
12437TIP3    H258803   3.746   1.884  12.311 -0.9492  0.8734  0.9349
12438TIP3   OH258804   6.426   4.301  12.982  0.1366  0.0140 -0.3043
12438TIP3    H158805   6.471   4.351  13.049 -0.0979 -0.3034  0.0969
12438TIP3    H258806   6.376   4.235  13.031 -0.6376  0.2651 -0.7463
12439TIP3   OH258807   4.094   4.995  13.760 -0.0210 -0.1163  0.2001
12439TIP3    H158808   4.068   5.006  13.852 -1.3222 -0.0751 -0.1504
12439TIP3    H258809   4.175   5.045  13.752  1.1419 -1.6336  1.7620
12440TIP3   OH258810   6.411   1.906  13.166 -0.2013 -0.2104  0.1642
12440TIP3    H158811   6.425   1.885  13.074  0.9354 -1.6261  0.6290
12440TIP3    H258812   6.316   1.909  13.176 -0.4408 -3.0581 -0.4467
12441TIP3   OH258813   0.226   2.327  11.244 -0.2742  0.0867  0.0462
12441TIP3    H158814   0.173   2.247  11.248  0.9108 -0.7524 -0.3797
12441TIP3    H258815   0.228   2.359  11.334  0.1736 -1.0129  0.4431
12442TIP3   OH258816   5.582   0.713   6.167 -0.0129 -0.3495 -0.4496
12442TIP3    H158817   5.561   0.631   6.210  0.3548  0.6840  1.8473
12442TIP3    H258818   5.499   0.760   6.161  0.1832  0.2011  0.7737
12443TIP3   OH258819   6.725   1.529  13.852 -0.2372 -0.1001  0.0417
12443TIP3    H158820   6.813   1.561  13.834 -0.7873  0.7695 -1.2716
12443TIP3    H258821   6.735   1.473  13.929  1.3297  0.5641  0.3647
12444TIP3   OH258822   6.389   6.398   5.613 -0.0726 -0.2147  0.2277
12444TIP3    H158823   6.388   6.308   5.578  1.4504 -0.4132  0.6327
12444TIP3    H258824   6.362   6.452   5.539 -0.1335 -0.9282 -0.2877
12445TIP3   OH258825   4.270   3.201   0.058  0.3831 -0.0578 -0.2823
12445TIP3    H158826   4.251   3.246   0.140  0.6773 -0.1587 -0.1594
12445TIP3    H258827   4.184   3.178   0.023  0.2821 -1.6065  0.8676
12446TIP3   OH258828   4.998   1.942   2.095 -0.0295  0.0884 -0.6394
12446TIP3    H158829   5.068   1.877   2.108 -1.7580 -1.6962  0.2307
12446TIP3    H258830   4.970   1.929   2.004  0.7017  0.7877 -0.9810
12447TIP3   OH258831   5.126   3.488   0.052 -0.4565  0.2112  0.4512
12447TIP3    H158832   5.207   3.524   0.018 -1.0799  0.2082 -1.1463
12447TIP3    H258833   5.093   3.554   0.113  0.8999  0.0398  1.4079
12448TIP3   OH258834   0.967   0.903   2.647 -0.2231 -0.2099  0.4374
12448TIP3    H158835   0.928   0.989   2.664 -0.7079 -0.1422 -0.8962
12448TIP3    H258836   0.912   0.842   2.696  0.6466  0.3010  2.1020
12449TIP3   OH258837   0.366   6.164  16.887  0.2710  0.1648  0.5256
12449TIP3    H158838   0.401   6.191  16.972  1.2650 -0.2742  0.2588
12449TIP3    H258839   0.430   6.195  16.823 -0.3002  0.1919 -0.0509
12450TIP3   OH258840   0.546   3.830   3.206  0.0787 -0.4469  0.5327
12450TIP3    H158841   0.582   3.826   3.118 -0.8297 -1.4376  0.1864
12450TIP3    H258842   0.622   3.842   3.263  0.6385  0.4641 -0.3953
12451TIP3   OH258843   5.112   3.776   1.418  0.0862 -0.4751  0.3971
12451TIP3    H158844   5.089   3.768   1.326 -2.1969 -0.5924  0.9293
12451TIP3    H258845   5.141   3.689   1.444 -2.4011 -1.3299  0.5357
12452TIP3   OH258846   2.938   0.738  13.105  0.1394 -0.4585  0.7641
12452TIP3    H158847   3.032   0.733  13.087 -0.3007 -0.4132 -2.0350
12452TIP3    H258848   2.912   0.824  13.072 -1.2492 -1.4209 -0.8136
12453TIP3   OH258849   6.611   3.230   4.417  0.2818 -0.3635  0.3126
12453TIP3    H158850   6.682   3.177   4.380  2.0001  2.2835 -0.4235
12453TIP3    H258851   6.635   3.241   4.509  0.1161 -0.5400  0.3782
12454TIP3   OH258852   0.059   5.142   4.519 -0.2699 -0.2613  0.4334
12454TIP3    H158853   0.067   5.168   4.611  0.7740 -3.1639  1.2540
12454TIP3    H258854  -0.032   5.111   4.511 -0.5365  0.5288  0.3023
12455TIP3   OH258855   6.677   0.085   1.461  0.0792 -0.3057  0.5377
12455TIP3    H158856   6.645   0.008   1.413  0.2506 -0.4309  0.6259
12455TIP3    H258857   6.598   0.138   1.476  0.1186  0.0849 -0.5092
12456TIP3   OH258858   2.163   6.251  14.947 -0.4751  0.4904 -0.2640
12456TIP3    H158859   2.082   6.299  14.932 -1.7114 -1.6728 -0.9422
12456TIP3    H258860   2.200   6.239  14.859 -0.9356 -0.9645 -0.2890
12457TIP3   OH258861   4.632   1.989  11.309  0.0554  0.0395 -0.7064
12457TIP3    H158862   4.616   1.897  11.331 -0.6696  0.1445 -0.7762
12457TIP3    H258863   4.652   2.030  11.393 -1.1934  0.1308 -0.4329
12458TIP3   OH258864   3.346   1.815  15.358  0.2610 -0.2577 -0.1704
12458TIP3    H158865   3.388   1.776  15.434  0.1674  1.5391  0.8601
12458TIP3    H258866   3.272   1.757  15.338 -0.7497  0.1125  2.2025
12459TIP3   OH258867   0.654   1.742  16.709 -0.1247 -0.5126 -0.4595
12459TIP3    H158868   0.679   1.798  16.783 -2.0271  1.0355 -0.9044
12459TIP3    H258869   0.707   1.773  16.636 -1.1246  0.7239 -0.6880
12460TIP3   OH258870   2.119   1.921  11.487  0.2530  0.0466 -0.5241
12460TIP3    H158871   2.128   1.826  11.499  1.7177  0.3343  0.9969
12460TIP3    H258872   2.077   1.952  11.567 -0.5498  0.6511 -1.1687
12461TIP3   OH258873   0.554   2.949  16.154 -0.0606 -0.3075  0.1574
12461TIP3    H158874   0.579   2.869  16.199  0.0812 -0.3071  0.0830
12461TIP3    H258875   0.521   3.007  16.223  0.9218 -0.0053  0.3859
12462TIP3   OH258876   1.386   0.542   3.860 -0.3219 -0.2484 -0.1839
12462TIP3    H158877   1.480   0.526   3.846 -0.4311 -1.8384  0.5896
12462TIP3    H258878   1.380   0.573   3.950 -0.4860  0.6176 -0.4839
12463TIP3   OH258879   4.299   5.912   1.077 -0.3241  0.6472  0.3162
12463TIP3    H158880   4.279   6.001   1.050 -3.5456 -0.4916 -1.4774
12463TIP3    H258881   4.231   5.890   1.141 -0.7958 -1.1335 -0.7401
12464TIP3   OH258882   1.735   5.939  16.738 -0.3318  0.2627 -0.1649
12464TIP3    H158883   1.788   5.946  16.817 -0.5347 -1.7896  0.2262
12464TIP3    H258884   1.798   5.928  16.667 -0.1746  0.1656 -0.0100
12465TIP3   OH258885   0.574   2.172   3.351 -0.1375 -0.1458  0.5194
12465TIP3    H158886   0.619   2.224   3.418  1.8085 -0.5616 -0.3944
12465TIP3    H258887   0.645   2.134   3.299 -1.5725 -1.1747 -0.7600
12466TIP3   OH258888   3.427   4.918   6.080  0.1404 -0.2245  0.3455
12466TIP3    H158889   3.381   4.858   6.138 -0.3686 -0.8032 -0.6380
12466TIP3    H258890   3.484   4.969   6.138 -0.6631 -0.4997  1.3931
12467TIP3   OH258891   6.090   0.085  14.635  0.4635  0.6867  0.3451
12467TIP3    H158892   6.170   0.064  14.681  0.4551  2.5502  1.3173
12467TIP3    H258893   6.029   0.115  14.703 -0.5233  0.7761 -0.5353
12468TIP3   OH258894   6.625   1.566  16.103 -0.4794 -0.2136 -0.1677
12468TIP3    H158895   6.684   1.537  16.173 -0.5720 -0.3229 -0.1343
12468TIP3    H258896   6.634   1.499  16.035  0.4000  0.4353 -0.7078
12469TIP3   OH258897   3.620   4.784  13.280 -0.6743  0.0728 -0.5497
12469TIP3    H158898   3.603   4.711  13.220  2.4410 -1.4966  0.2325
12469TIP3    H258899   3.593   4.752  13.366 -4.0993  1.9111 -0.7551
12470TIP3   OH258900   5.201   4.060   2.617  0.2366 -0.0610 -0.1218
12470TIP3    H158901   5.238   4.028   2.699 -0.5947 -0.6575  0.0367
12470TIP3    H258902   5.276   4.090   2.566  0.6182  2.3528  1.6924
12471TIP3   OH258903   5.858   4.593   1.014  0.5483 -0.0989  0.2516
12471TIP3    H158904   5.784   4.547   0.974  1.8259 -2.2691  0.2153
12471TIP3    H258905   5.883   4.538   1.088  1.9284  0.7442  0.4451
12472TIP3   OH258906   5.299   2.559  13.365 -0.4180  0.4282  0.7343
12472TIP3    H158907   5.243   2.610  13.307  0.3311  0.6225  0.1762
12472TIP3    H258908   5.388   2.582  13.340 -0.0736 -0.3906  1.1547
12473TIP3   OH258909   6.499   4.530   5.182  0.2198 -0.1006 -0.6541
12473TIP3    H158910   6.526   4.609   5.134  1.6141 -0.1773 -0.0466
12473TIP3    H258911   6.558   4.526   5.257 -1.5465 -0.3008  0.7959
12474TIP3   OH258912   1.986   3.305   0.270 -0.4321  0.1188  0.0897
12474TIP3    H158913   1.901   3.328   0.308 -0.6698 -0.3005 -0.1817
12474TIP3    H258914   1.984   3.210   0.263 -1.5846  0.2582 -3.6663
12475TIP3   OH258915   2.300   3.606  16.451  0.2619  0.1877  0.1383
12475TIP3    H158916   2.385   3.565  16.432  0.2570  0.4793 -0.5415
12475TIP3    H258917   2.301   3.619  16.545  0.0040 -1.9788  0.5037
12476TIP3   OH258918   0.646   3.016  11.171 -0.1834  0.4097 -0.3309
12476TIP3    H158919   0.683   3.090  11.219  0.9741  1.2757 -2.4234
12476TIP3    H258920   0.721   2.962  11.148 -0.9633 -1.2218  0.7418
12477TIP3   OH258921   3.285   4.830  11.249  0.0050 -0.0352 -0.1077
12477TIP3    H158922   3.352   4.897  11.260  0.8796 -0.6774 -1.3054
12477TIP3    H258923   3.244   4.850  11.164  0.6593 -1.3133 -0.7495
12478TIP3   OH258924   3.225   3.826  13.184  0.1216 -0.5725 -0.0504
12478TIP3    H158925   3.204   3.873  13.103 -0.6622 -0.0481  0.4499
12478TIP3    H258926   3.302   3.872  13.218  0.4763 -0.8174 -0.5086
12479TIP3   OH258927   2.394   5.399  14.194 -0.5448  0.3205 -0.4791
12479TIP3    H158928   2.394   5.326  14.256  0.3837 -0.3409 -1.2433
12479TIP3    H258929   2.433   5.472  14.243  2.2975 -0.7892 -0.9049
12480TIP3   OH258930   4.662   3.131  16.752  0.3986 -1.1696  0.0532
12480TIP3    H158931   4.696   3.062  16.695  0.6947 -1.4883  0.6090
12480TIP3    H258932   4.740   3.178  16.782  0.7476 -3.5600  3.5020
12481TIP3   OH258933   2.124   2.075  14.952 -0.2125  0.4137 -0.2906
12481TIP3    H158934   2.173   2.000  14.984  0.2944  0.8035 -0.1409
12481TIP3    H258935   2.128   2.068  14.857  0.7528  0.8286 -0.2938
12482TIP3   OH258936   1.116   4.578   5.527  0.0121  0.1661 -0.2815
12482TIP3    H158937   1.077   4.568   5.440  0.5395  1.5583 -0.6903
12482TIP3    H258938   1.208   4.555   5.515 -0.0375 -0.2276  0.0525
12483TIP3   OH258939   0.291   3.887  12.594 -0.4103  0.2661  0.1047
12483TIP3    H158940   0.322   3.975  12.618 -0.6012 -0.0741  1.6638
12483TIP3    H258941   0.367   3.847  12.551  0.2295  0.6279  0.8614
12484TIP3   OH258942   2.400   5.547   2.655  0.1122 -0.3471 -0.9264
12484TIP3    H158943   2.342   5.600   2.600 -0.9996 -0.4831  0.0673
12484TIP3    H258944   2.368   5.457   2.643 -0.0573 -0.3946 -0.1934
12485TIP3   OH258945   3.268   6.177   0.355  0.1169  0.5825 -0.6656
12485TIP3    H158946   3.241   6.096   0.312 -0.5881  0.7638 -0.5756
12485TIP3    H258947   3.192   6.204   0.406  1.3625 -0.3534  1.8282
12486TIP3   OH258948   5.779   1.812   6.073 -0.1011  0.2042 -0.0985
12486TIP3    H158949   5.863   1.810   6.026 -1.5120  3.4940 -3.2943
12486TIP3    H258950   5.777   1.897   6.116 -1.4324 -0.1862  0.6686
12487TIP3   OH258951   1.721   6.792  12.218  0.4972 -0.4694 -0.0412
12487TIP3    H158952   1.677   6.781  12.134  0.1609  0.7625 -0.0391
12487TIP3    H258953   1.712   6.707  12.261  0.3698 -1.0032 -1.1015
12488TIP3   OH258954   4.244   2.791   2.908 -0.4968  0.4439  0.0278
12488TIP3    H158955   4.314   2.726   2.902  2.1498  2.9849  0.6121
12488TIP3    H258956   4.191   2.777   2.830  2.9309  0.6582 -2.6167
12489TIP3   OH258957   6.210   1.553   5.597  0.2788 -0.0847 -0.6772
12489TIP3    H158958   6.284   1.498   5.623 -0.5081 -1.6072 -1.5522
12489TIP3    H258959   6.252   1.630   5.558  1.4058  0.4495  1.4017
12490TIP3   OH258960   4.164   3.449  14.651  0.3115  0.3191 -0.4469
12490TIP3    H158961   4.225   3.503  14.701 -0.4120  1.8382 -1.1546
12490TIP3    H258962   4.220   3.396  14.594  1.0546 -0.0124  0.5645
12491TIP3   OH258963   2.228   0.701  12.732  0.2166 -0.3146  0.3116
12491TIP3    H158964   2.142   0.734  12.705  0.4191  1.1336  1.3174
12491TIP3    H258965   2.222   0.694  12.827  1.3726  0.3043  0.4403
12492TIP3   OH258966   1.551   5.316  14.898 -0.8776 -0.2531 -0.0196
12492TIP3    H158967   1.545   5.385  14.964 -0.1382 -0.8188  0.6668
12492TIP3    H258968   1.542   5.235  14.948  3.7945 -0.9284  0.1108
12493TIP3   OH258969   1.981   2.045   2.841  0.2273 -0.5108 -0.2292
12493TIP3    H158970   1.991   2.042   2.936 -0.3850 -0.5394 -0.1664
12493TIP3    H258971   1.899   2.091   2.826 -0.0123 -1.0884 -0.7298
12494TIP3   OH258972   6.075   0.123  13.143 -0.5387  0.0271 -0.3005
12494TIP3    H158973   6.145   0.084  13.090 -1.0055 -1.1470 -0.0797
12494TIP3    H258974   6.055   0.206  13.099  0.8215  0.2724 -0.5033
12495TIP3   OH258975   1.663   1.858   1.222  0.7358 -0.3606 -0.3074
12495TIP3    H158976   1.656   1.848   1.316  1.8482 -0.6560 -0.2394
12495TIP3    H258977   1.609   1.935   1.201  0.1396 -0.5527  0.4947
12496TIP3   OH258978   0.629   5.933  15.497  0.3540 -0.8930  0.0028
12496TIP3    H158979   0.549   5.939  15.444  0.4887  0.7141 -0.0548
12496TIP3    H258980   0.605   5.878  15.571 -1.4528  1.1514  1.0538
12497TIP3   OH258981   3.609   1.350   5.644 -0.5511  0.2175  0.1266
12497TIP3    H158982   3.532   1.314   5.688 -0.2720 -1.2530 -0.5270
12497TIP3    H258983   3.621   1.294   5.567 -0.1670  1.8063 -1.0315
12498TIP3   OH258984   1.190   5.381  15.057 -0.3523 -0.3587  0.7709
12498TIP3    H158985   1.192   5.312  14.990 -1.2858  0.3942 -0.0780
12498TIP3    H258986   1.252   5.352  15.124 -0.3571 -1.7696  0.1984
12499TIP3   OH258987   4.947   4.600  12.357 -0.3548 -0.1389 -0.1609
12499TIP3    H158988   4.974   4.510  12.375 -1.0947 -0.2458  0.4620
12499TIP3    H258989   4.927   4.600  12.263  0.6904 -0.3348 -0.3993
12500TIP3   OH258990   4.946   1.014   6.473 -0.3255  0.3353  0.5275
12500TIP3    H158991   4.891   0.935   6.467 -0.3350  0.4693 -1.6830
12500TIP3    H258992   4.892   1.083   6.435  0.9300  0.7002 -0.6574
12501TIP3   OH258993   4.925   4.416   6.400 -0.5081 -0.2607 -0.6020
12501TIP3    H158994   5.011   4.445   6.370 -0.1689 -1.8564 -1.2605
12501TIP3    H258995   4.875   4.401   6.319 -0.9691 -0.5780 -0.2665
12502TIP3   OH258996   4.458   2.816   4.226 -0.4097 -0.4979  0.0614
12502TIP3    H158997   4.381   2.785   4.179 -0.8446  0.7114 -0.0614
12502TIP3    H258998   4.476   2.748   4.291 -0.4289 -1.6957 -1.1470
12503TIP3   OH258999   3.918   2.277   5.412  0.1572 -0.3013  0.3498
12503TIP3    H159000   4.007   2.293   5.443  0.0714  0.0971  0.3917
12503TIP3    H259001   3.868   2.258   5.492 -0.2983  1.7783  0.6202
12504TIP3   OH259002   5.774   0.446   3.936 -0.3463  0.1131  0.3380
12504TIP3    H159003   5.810   0.514   3.879  0.4216 -0.3016  0.3179
12504TIP3    H259004   5.793   0.364   3.890  0.9469 -0.2825  1.5141
12505TIP3   OH259005   0.002   5.055   1.677  0.2844 -0.1629 -1.0218
12505TIP3    H159006  -0.064   4.988   1.694 -2.3970  2.4195 -0.5040
12505TIP3    H259007   0.044   5.026   1.595 -1.9916 -1.5792 -1.7868
12506TIP3   OH259008   2.674   0.802   5.366  0.0157 -0.5640 -0.0329
12506TIP3    H159009   2.581   0.819   5.382 -0.2662 -1.2227 -0.8853
12506TIP3    H259010   2.719   0.845   5.439 -0.9008  0.4275 -0.0230
12507TIP3   OH259011   6.337   2.619  17.086 -0.1405  0.7967 -0.6242
12507TIP3    H159012   6.379   2.544  17.043 -0.7611 -0.8121  1.4133
12507TIP3    H259013   6.392   2.694  17.063  0.4873 -0.2356 -2.7742
12508TIP3   OH259014   5.770   6.565  13.385  0.6147 -0.6177  0.0983
12508TIP3    H159015   5.814   6.623  13.323  0.2281 -1.5887 -1.1037
12508TIP3    H259016   5.736   6.493  13.332 -0.0859 -1.2659  1.3761
12509TIP3   OH259017   0.343   4.611   6.636  0.3741  0.0716 -0.4748
12509TIP3    H159018   0.435   4.633   6.628  0.1741  0.4914 -1.8525
12509TIP3    H259019   0.328   4.543   6.570 -0.0792 -0.7548  0.4551
12510TIP3   OH259020   4.546   1.600   1.619 -0.1144 -0.0557 -0.2336
12510TIP3    H159021   4.609   1.600   1.691  2.1298 -1.1520 -2.0672
12510TIP3    H259022   4.468   1.643   1.655  0.5341 -1.3952  3.0909
12511TIP3   OH259023   1.516   5.258  17.023  0.1103 -0.0332 -0.1337
12511TIP3    H159024   1.610   5.270  17.010  0.0123  0.2418 -0.6020
12511TIP3    H259025   1.504   5.163  17.025  0.4759 -0.0694  0.5199
12512TIP3   OH259026   6.136   4.834  13.617 -0.1737 -0.0665  0.1900
12512TIP3    H159027   6.059   4.831  13.672 -0.1968 -0.4431  0.1373
12512TIP3    H259028   6.102   4.847  13.528 -0.5045 -4.1705 -0.4770
12513TIP3   OH259029   4.187   5.430  15.493 -0.4709  0.3380  0.2657
12513TIP3    H159030   4.249   5.358  15.481 -0.2741  0.2745  1.5132
12513TIP3    H259031   4.119   5.394  15.549 -0.0145  1.2978  1.4862
12514TIP3   OH259032   6.550   0.190   6.784  0.2252  0.1565 -0.0860
12514TIP3    H159033   6.526   0.098   6.781  0.2513  0.1425  0.1870
12514TIP3    H259034   6.473   0.236   6.751  1.4816 -0.1870 -4.0852
12515TIP3   OH259035   5.891   0.464   5.904  0.2344 -0.4138  0.0635
12515TIP3    H159036   5.801   0.494   5.894  0.2981 -0.4316 -0.5938
12515TIP3    H259037   5.935   0.534   5.951 -0.1135 -0.3954  0.3694
12516TIP3   OH259038   2.204   5.823  15.996 -0.1589  0.1941  0.2542
12516TIP3    H159039   2.129   5.766  16.013  0.6663 -0.6256  1.2074
12516TIP3    H259040   2.278   5.764  15.985  0.1697  0.9199 -1.9847
12517TIP3   OH259041   4.085   1.952   1.211 -0.0453  0.8437  0.1702
12517TIP3    H159042   4.139   1.959   1.290  2.1213 -0.6982 -1.0680
12517TIP3    H259043   4.113   2.025   1.156  0.8836  0.0066 -0.4993
12518TIP3   OH259044   1.325   2.012  16.424  0.2357 -0.2162  0.1544
12518TIP3    H159045   1.284   1.927  16.408 -1.1951  0.6570 -1.0842
12518TIP3    H259046   1.401   2.012  16.367 -1.1366  0.2507 -1.7719
12519TIP3   OH259047   0.748   6.189   4.335  0.1647 -0.2002 -0.0408
12519TIP3    H159048   0.716   6.200   4.424  2.2140 -3.5950  1.2924
12519TIP3    H259049   0.750   6.278   4.299 -2.1795  1.0983  2.6933
12520TIP3   OH259050   1.485   3.351   1.413  0.3333 -0.6961 -0.0251
12520TIP3    H159051   1.538   3.420   1.453  0.2661  0.0113 -1.1037
12520TIP3    H259052   1.540   3.273   1.417  0.8920 -0.3015  0.1359
12521TIP3   OH259053   1.194   6.074   2.716  0.0552  0.2790 -0.3021
12521TIP3    H159054   1.129   6.033   2.773  1.6911 -0.3191  1.2152
12521TIP3    H259055   1.164   6.165   2.707  0.5957  0.9255  3.0372
12522TIP3   OH259056   5.287   0.228   0.412 -0.6862  0.4188  0.1425
12522TIP3    H159057   5.277   0.228   0.316  0.6799  1.1801 -0.0201
12522TIP3    H259058   5.202   0.259   0.444 -1.2043  0.0506 -0.8061
12523TIP3   OH259059   2.082   4.659   3.836  0.1737  0.1323  0.2512
12523TIP3    H159060   2.100   4.575   3.795  1.5611  0.2802  0.5105
12523TIP3    H259061   2.126   4.654   3.921 -1.3089  0.4323  1.0673
12524TIP3   OH259062   2.667   5.677  13.602  0.0609  0.1619  0.0503
12524TIP3    H159063   2.643   5.591  13.566  0.0072  0.4107 -0.5081
12524TIP3    H259064   2.761   5.683  13.587  0.2751 -0.2700  1.1001
12525TIP3   OH259065   5.117   3.548   6.021 -0.1993 -0.7068  0.4180
12525TIP3    H159066   5.053   3.530   6.090  0.9208 -2.2378  1.1210
12525TIP3    H259067   5.202   3.538   6.065  0.5406 -1.2415 -1.0796
12526TIP3   OH259068   0.915   5.707   4.506 -0.0895  0.0065  0.3634
12526TIP3    H159069   0.857   5.667   4.572 -0.1158  0.2521  0.4912
12526TIP3    H259070   0.993   5.653   4.508  0.3513  0.6422  1.3865
12527TIP3   OH259071   4.269   1.269  14.925  0.3928  0.1448 -0.3697
12527TIP3    H159072   4.343   1.229  14.879  0.6573  1.0990 -0.7886
12527TIP3    H259073   4.207   1.290  14.855 -0.3145 -0.6950 -0.0176
12528TIP3   OH259074   3.169   1.651  12.091  0.1847  0.2390 -0.0853
12528TIP3    H159075   3.170   1.567  12.045  2.2910  1.0611 -1.7392
12528TIP3    H259076   3.255   1.657  12.132  0.5912  2.1169 -1.1086
12529TIP3   OH259077   2.953   6.817   2.015 -0.2039 -0.4756  0.2968
12529TIP3    H159078   2.906   6.885   1.967  0.9350  0.5694  0.6082
12529TIP3    H259079   2.885   6.758   2.047 -1.2157  0.5499  0.0773
12530TIP3   OH259080   4.163   2.128   5.707 -0.1890 -0.0099  0.2492
12530TIP3    H159081   4.141   2.191   5.775  0.8585  0.1805  0.4334
12530TIP3    H259082   4.140   2.043   5.745  3.7399 -0.3242  2.4460
12531TIP3   OH259083   5.653   6.048   3.371 -0.0526  0.0002 -0.7302
12531TIP3    H159084   5.606   6.099   3.305 -0.2792  0.7179 -0.0267
12531TIP3    H259085   5.616   6.078   3.454 -0.5067 -1.6156 -0.3163
12532TIP3   OH259086   1.939   4.922   2.762 -0.2288 -0.2723  0.6259
12532TIP3    H159087   1.884   4.949   2.688  0.4628  1.9979  0.8725
12532TIP3    H259088   1.876   4.896   2.829 -0.8769 -2.0297 -0.5728
12533TIP3   OH259089   0.987   3.301   5.454 -0.3915  0.5975  0.6027
12533TIP3    H159090   1.073   3.276   5.487 -0.5784 -0.1376  0.5710
12533TIP3    H259091   1.000   3.316   5.361 -0.7986 -2.3927 -0.0509
12534TIP3   OH259092   3.701   6.425  16.949  0.1857  0.2009  0.6450
12534TIP3    H159093   3.746   6.345  16.921  0.8065  0.7995 -0.1161
12534TIP3    H259094   3.772   6.487  16.967 -0.2969  0.6672  0.9674
12535TIP3   OH259095   6.176   1.998   6.498 -0.0441 -0.3757 -0.4041
12535TIP3    H159096   6.109   2.057   6.533  0.7100 -0.0491  0.5563
12535TIP3    H259097   6.225   1.969   6.576  0.0880 -1.6601 -0.9434
12536TIP3   OH259098   5.147   0.670   2.096 -0.2072  0.3115 -0.5726
12536TIP3    H159099   5.104   0.673   2.181  2.0254 -0.0158  0.6567
12536TIP3    H259100   5.195   0.587   2.096  2.8682  1.9366 -0.4880
12537TIP3   OH259101   2.784   0.926  15.564 -0.0636  0.4364 -0.6780
12537TIP3    H159102   2.753   0.838  15.583 -3.2004  1.5455 -0.0997
12537TIP3    H259103   2.789   0.969  15.650  2.2272  0.6662 -0.8585
12538TIP3   OH259104   2.003   6.241  15.899 -0.0652  0.5712  0.0430
12538TIP3    H159105   2.051   6.203  15.972 -1.3210 -0.8522  0.1662
12538TIP3    H259106   2.042   6.201  15.821 -0.9521 -0.4943  0.1366
12539TIP3   OH259107   2.402   4.361   2.727 -0.0175 -0.3300  0.1900
12539TIP3    H159108   2.490   4.398   2.717 -0.8673  1.8580  0.4166
12539TIP3    H259109   2.417   4.275   2.766  2.0160 -0.0271  0.1845
12540TIP3   OH259110   5.733   1.769   0.838  0.2454 -0.6973 -0.1532
12540TIP3    H159111   5.749   1.680   0.807  2.7704 -0.5476  0.4696
12540TIP3    H259112   5.758   1.767   0.930  0.7351  0.7359 -0.2277
12541TIP3   OH259113   1.617   1.502   0.633 -0.0194 -0.4930 -0.2045
12541TIP3    H159114   1.679   1.560   0.677  0.5442 -0.5818 -0.8681
12541TIP3    H259115   1.544   1.494   0.695  0.5497 -0.2562  0.5150
12542TIP3   OH259116   6.409   3.373  16.947  0.1077  0.5220 -0.0759
12542TIP3    H159117   6.497   3.409  16.943  1.1873 -2.0030 -2.6098
12542TIP3    H259118   6.356   3.432  16.893  0.0286  2.3465  1.8893
12543TIP3   OH259119   1.047   1.938  11.319  0.3755  0.0050  0.0217
12543TIP3    H159120   0.989   2.006  11.284  0.2271  0.7181  1.5555
12543TIP3    H259121   1.110   1.986  11.372 -0.4525 -1.1157  2.1289
12544TIP3   OH259122   4.231   1.188  11.424 -0.1033 -0.2777  0.4997
12544TIP3    H159123   4.200   1.136  11.349 -1.5454 -1.6116  1.9510
12544TIP3    H259124   4.304   1.138  11.460 -1.0344 -0.9644  1.4725
12545TIP3   OH259125   1.746   5.164   0.525  0.1320  0.1517 -0.2428
12545TIP3    H159126   1.683   5.217   0.572  1.0731  1.4210 -0.3559
12545TIP3    H259127   1.694   5.116   0.460 -0.9960 -0.6079  1.1585
12546TIP3   OH259128   3.117   6.634   4.656  0.1282 -0.9378  0.2103
12546TIP3    H159129   3.061   6.583   4.597 -0.9332  1.7336 -1.2358
12546TIP3    H259130   3.063   6.708   4.684  1.3523 -0.9017  2.8401
12547TIP3   OH259131   5.841   2.194   2.778 -0.0222 -0.5877 -0.0177
12547TIP3    H159132   5.755   2.228   2.753  0.3894  0.5222  0.0533
12547TIP3    H259133   5.851   2.218   2.870  0.4381 -0.5472 -0.0765
12548TIP3   OH259134   0.172   2.281  16.629  0.1587  0.5341  0.5619
12548TIP3    H159135   0.221   2.201  16.649 -0.8473 -0.0879  0.6397
12548TIP3    H259136   0.186   2.294  16.535 -1.0965 -0.7723  0.1540
12549TIP3   OH259137   4.025   2.250   6.007  0.1250  0.1592  0.4354
12549TIP3    H159138   4.111   2.283   5.983 -0.0664 -1.6538 -3.3828
12549TIP3    H259139   3.963   2.305   5.958 -0.8839  0.5155  2.0126
12550TIP3   OH259140   3.302   4.710   6.199 -0.1830  0.4275  0.8114
12550TIP3    H159141   3.258   4.625   6.199  0.3412  0.1114 -0.6749
12550TIP3    H259142   3.244   4.767   6.249 -1.2743 -0.4620  0.6216
12551TIP3   OH259143   6.650   0.648  16.288 -0.7545 -0.1819  0.6262
12551TIP3    H159144   6.669   0.566  16.241  0.6557 -1.6091  3.4246
12551TIP3    H259145   6.583   0.624  16.352 -0.7152  1.0073  1.1373
12552TIP3   OH259146   5.408   1.623   1.027  0.4979 -0.2913 -0.4844
12552TIP3    H159147   5.443   1.672   0.952  1.8852 -2.0947 -1.0997
12552TIP3    H259148   5.352   1.556   0.987 -2.7552  1.6741  0.4257
12553TIP3   OH259149   1.974   2.896   1.398 -0.0807 -0.2169  0.3451
12553TIP3    H159150   1.906   2.908   1.332 -0.1606 -3.6173 -0.3381
12553TIP3    H259151   2.056   2.908   1.351 -0.0525  2.6151  0.9045
12554TIP3   OH259152   4.764   0.584  15.987  0.2425  0.3164 -0.0252
12554TIP3    H159153   4.696   0.649  15.969 -0.8346 -1.0564 -1.1772
12554TIP3    H259154   4.839   0.612  15.935 -0.5095  0.1718 -1.2032
12555TIP3   OH259155   5.100   3.534  12.787  0.4757 -0.6491 -0.4148
12555TIP3    H159156   5.139   3.543  12.700  1.9475  0.1575  0.3009
12555TIP3    H259157   5.069   3.622  12.808  0.6641 -0.7151  0.1363
12556TIP3   OH259158   6.326   4.239  16.658  0.1128  0.2314  0.8246
12556TIP3    H159159   6.395   4.173  16.648 -1.1057 -0.7178 -2.5924
12556TIP3    H259160   6.338   4.297  16.583 -2.4258  0.3357  0.4131
12557TIP3   OH259161   1.402   1.829  15.491 -0.1151  0.1362  0.4631
12557TIP3    H159162   1.443   1.822  15.577  0.0599  0.1764  0.3832
12557TIP3    H259163   1.343   1.904  15.498 -0.1709  0.0825  0.5750
12558TIP3   OH259164   5.665   4.193   3.897 -0.3693  0.3343  0.0462
12558TIP3    H159165   5.609   4.165   3.970  1.2164 -2.1772  0.4116
12558TIP3    H259166   5.674   4.114   3.842  0.7346  1.3958 -1.3804
12559TIP3   OH259167   4.999   2.963   6.051  0.1771  0.2789 -0.2943
12559TIP3    H159168   4.953   3.047   6.053  1.7300  1.1715 -0.6827
12559TIP3    H259169   4.958   2.913   6.122  0.5287  2.0864  1.2979
12560TIP3   OH259170   2.885   1.272   3.612 -0.3285  0.2766 -0.2019
12560TIP3    H159171   2.798   1.272   3.572  0.4248  1.6173 -2.0058
12560TIP3    H259172   2.943   1.243   3.541  0.6806 -1.0470  1.0914
12561TIP3   OH259173   5.239   0.274   0.138 -0.4632 -0.3455  0.1040
12561TIP3    H159174   5.151   0.308   0.155 -0.4208  0.6119 -1.3828
12561TIP3    H259175   5.241   0.260   0.043  1.0758 -0.1170  0.0748
12562TIP3   OH259176   2.986   1.400   1.146  0.1518  0.0883 -0.3042
12562TIP3    H159177   3.070   1.358   1.129  1.7852  2.5448  1.0961
12562TIP3    H259178   2.965   1.377   1.237  0.4394  1.1820  0.0603
12563TIP3   OH259179   3.362   4.717   5.395  0.3999 -0.2437  0.7424
12563TIP3    H159180   3.436   4.759   5.438  0.0822 -0.3254  1.3747
12563TIP3    H259181   3.312   4.677   5.466 -0.4821  0.1657  0.3690
12564TIP3   OH259182   3.127   5.647   3.385 -0.9041 -0.6294  0.0828
12564TIP3    H159183   3.035   5.641   3.409 -1.2098  1.4565 -0.3781
12564TIP3    H259184   3.126   5.672   3.293  0.1439 -0.6469  0.0557
12565TIP3   OH259185   5.298   2.257  14.837  0.1820 -0.1269 -0.1768
12565TIP3    H159186   5.260   2.203  14.767  0.2006  0.0931 -0.3598
12565TIP3    H259187   5.388   2.273  14.808 -0.0274  0.5715 -0.4616
12566TIP3   OH259188   4.075   1.297   2.174  0.1205  0.4114 -0.3466
12566TIP3    H159189   4.107   1.338   2.094 -0.3645  0.1784 -0.6679
12566TIP3    H259190   4.145   1.309   2.238  1.0103 -0.4522 -1.1338
12567TIP3   OH259191   3.530   2.593  16.952  0.1597  0.1701 -0.0321
12567TIP3    H159192   3.598   2.596  17.019 -0.7028  1.4226  0.8369
12567TIP3    H259193   3.479   2.514  16.972 -0.6663  1.0325  1.4146
12568TIP3   OH259194   1.824   4.516   5.474 -0.5608  0.1684  0.7653
12568TIP3    H159195   1.893   4.484   5.415 -0.3822 -0.1690  1.1541
12568TIP3    H259196   1.798   4.438   5.524  0.4172  0.7831  2.2849
12569TIP3   OH259197   3.542   6.338   9.927  0.5967  0.6115 -0.0808
12569TIP3    H159198   3.562   6.400   9.997  0.4413  0.6254 -0.0484
12569TIP3    H259199   3.457   6.366   9.894  0.9802  1.0166 -0.7363
12570TIP3   OH259200   4.904   3.533   1.588 -0.1185 -0.1308  0.2167
12570TIP3    H159201   4.952   3.615   1.592  0.8352 -0.5514 -1.5365
12570TIP3    H259202   4.959   3.469   1.634 -0.8837  0.1940  1.6247
12571TIP3   OH259203   1.448   3.947  15.289 -0.5529 -0.4057  0.2645
12571TIP3    H159204   1.504   3.941  15.212  0.8573  0.6181  1.1589
12571TIP3    H259205   1.417   4.037  15.290 -0.3047 -0.3193  1.0540
12572TIP3   OH259206   6.071   5.405   0.110  0.0739  0.4281  0.2706
12572TIP3    H159207   5.989   5.362   0.084 -0.9007  2.8890 -1.0336
12572TIP3    H259208   6.082   5.383   0.202 -0.9754 -1.5390 -0.0099
12573TIP3   OH259209   3.162   3.989  16.189 -0.3785 -0.5170 -0.2152
12573TIP3    H159210   3.078   3.980  16.146 -1.4862  1.6268  1.3198
12573TIP3    H259211   3.159   3.928  16.263 -1.9610  1.7175  1.6921
12574TIP3   OH259212   0.713   4.159  16.094 -0.3687 -0.5168  0.0775
12574TIP3    H159213   0.801   4.122  16.086 -0.6594 -1.6518  1.6904
12574TIP3    H259214   0.655   4.083  16.094 -1.4199  0.2334 -1.3803
12575TIP3   OH259215   5.220   2.932   0.770  0.3211  0.2075 -0.3205
12575TIP3    H159216   5.179   3.015   0.796  1.7004  0.9144 -0.2905
12575TIP3    H259217   5.303   2.958   0.730  1.7284 -1.2375  1.4890
12576TIP3   OH259218   6.097   1.603  16.102  0.0084 -0.3687  0.1263
12576TIP3    H159219   6.109   1.508  16.105  0.0192 -0.6587 -3.7870
12576TIP3    H259220   6.012   1.615  16.060 -0.2716  1.4115  1.0837
12577TIP3   OH259221   6.802   4.261  11.757 -0.2497  0.5692 -0.2915
12577TIP3    H159222   6.844   4.187  11.800  0.8121  1.2600 -0.0832
12577TIP3    H259223   6.873   4.303  11.708 -1.0058  0.9718 -1.0686
12578TIP3   OH259224   3.339   2.115  12.309  0.3385  0.0973 -0.2465
12578TIP3    H159225   3.393   2.042  12.281 -0.0923  0.1448 -1.2813
12578TIP3    H259226   3.394   2.192  12.296  0.2363  0.0929 -0.7435
12579TIP3   OH259227   0.481   4.710  16.658 -0.6291 -0.6348 -0.2650
12579TIP3    H159228   0.407   4.766  16.635  1.2325  1.4950 -1.5517
12579TIP3    H259229   0.518   4.750  16.737 -0.5912 -1.4156  0.1200
12580TIP3   OH259230   6.659   2.392   3.557 -0.5937  0.0093  0.1870
12580TIP3    H159231   6.582   2.342   3.529 -0.3109 -0.7104  0.6710
12580TIP3    H259232   6.732   2.330   3.549 -0.1331  0.5454  0.1727
12581TIP3   OH259233   6.236   2.690  12.075  0.6265 -0.1255 -0.3905
12581TIP3    H159234   6.188   2.639  12.010  2.3694 -2.2024 -0.1618
12581TIP3    H259235   6.170   2.746  12.115 -1.4556 -2.2046 -0.6888
12582TIP3   OH259236   2.980   1.378  12.107  0.1643  0.3258  0.1549
12582TIP3    H159237   3.043   1.354  12.175  1.4392  1.6953 -0.4931
12582TIP3    H259238   2.934   1.454  12.143  0.3229  0.5939 -0.2043
12583TIP3   OH259239   1.885   3.841  13.587  0.0676  0.1615  0.6894
12583TIP3    H159240   1.812   3.899  13.606  0.2571  0.3076  0.9703
12583TIP3    H259241   1.939   3.842  13.666 -0.3387 -1.0077  0.9921
12584TIP3   OH259242   5.865   2.057  15.302 -0.0636  0.0228  0.0163
12584TIP3    H159243   5.822   1.998  15.364 -1.1354 -0.5067 -1.1867
12584TIP3    H259244   5.950   2.076  15.343 -0.3527 -1.0447  1.2023
12585TIP3   OH259245   3.494   2.518  14.131 -0.0135 -0.3076 -0.3003
12585TIP3    H159246   3.454   2.558  14.053 -0.4596 -0.6974 -0.2722
12585TIP3    H259247   3.438   2.444  14.152  0.0810 -0.1779  0.4258
12586TIP3   OH259248   2.494   3.765   4.665  0.6994  0.4112  0.0463
12586TIP3    H159249   2.424   3.827   4.641  0.5713  0.9681  1.7449
12586TIP3    H259250   2.507   3.778   4.759  2.4533 -0.3583 -0.0470
12587TIP3   OH259251   3.431   2.634  12.159 -0.4396 -0.0973  0.4788
12587TIP3    H159252   3.487   2.621  12.236  0.9350 -0.1742 -0.4951
12587TIP3    H259253   3.360   2.571  12.170 -0.8284  0.5703  2.1543
12588TIP3   OH259254   5.719   2.022  11.350 -0.0559 -0.0861  0.4374
12588TIP3    H159255   5.779   1.979  11.411 -0.1565  0.6151  1.0379
12588TIP3    H259256   5.749   2.113  11.347  0.1784 -0.1835 -0.8473
12589TIP3   OH259257   6.477   4.406  13.758 -0.0128 -0.2871 -0.0169
12589TIP3    H159258   6.546   4.425  13.822 -0.2276  2.4859 -0.4975
12589TIP3    H259259   6.433   4.489  13.744 -1.1393 -1.1847 -2.4522
12590TIP3   OH259260   5.585   4.384   4.617 -0.0868 -0.6405  0.0459
12590TIP3    H159261   5.543   4.423   4.694 -1.0527 -1.3700 -0.0949
12590TIP3    H259262   5.516   4.382   4.551  0.6931 -0.1547 -0.8097
12591TIP3   OH259263   4.341   6.195   2.410  0.0643 -0.2982 -0.1970
12591TIP3    H159264   4.320   6.142   2.333  1.8020 -1.4684  0.0872
12591TIP3    H259265   4.289   6.275   2.399 -0.0212 -0.6061 -2.3703
12592TIP3   OH259266   1.575   2.754   5.489 -0.2392 -0.1015 -0.5714
12592TIP3    H159267   1.565   2.664   5.519  0.0732 -0.4309 -1.4326
12592TIP3    H259268   1.488   2.779   5.459 -0.5274  0.1902  0.4620
12593TIP3   OH259269   2.092   5.771   3.847 -0.1103  0.1606 -0.4015
12593TIP3    H159270   2.136   5.854   3.864  2.0298 -0.8064 -0.7498
12593TIP3    H259271   2.039   5.755   3.924  2.1186  0.2816  1.2638
12594TIP3   OH259272   6.777   0.525  14.384  0.0535 -0.4122  0.6328
12594TIP3    H159273   6.769   0.613  14.347 -1.2648 -1.3573 -1.5323
12594TIP3    H259274   6.861   0.526  14.430  0.1088  1.9316  0.6166
12595TIP3   OH259275   5.982   4.245  12.945 -0.6052  0.3677 -0.4112
12595TIP3    H159276   5.919   4.215  13.010  0.2528  2.6636  1.6244
12595TIP3    H259277   5.928   4.283  12.875 -1.5234  0.1574  0.1614
12596TIP3   OH259278   1.928   3.804   3.453 -0.0807  0.1575  0.5458
12596TIP3    H159279   2.003   3.813   3.394  0.2148  1.3135  1.0786
12596TIP3    H259280   1.853   3.794   3.395  0.2238  1.1410 -0.0486
12597TIP3   OH259281   2.249   4.460  11.899  0.0117 -0.1658  0.3199
12597TIP3    H159282   2.205   4.515  11.835 -1.2617 -1.2979  0.1801
12597TIP3    H259283   2.335   4.443  11.861  1.2001  3.1256  1.1761
12598TIP3   OH259284   4.597   6.592   0.400 -0.1211  0.1173 -0.0355
12598TIP3    H159285   4.644   6.665   0.440  0.3025 -0.0139 -0.2909
12598TIP3    H259286   4.602   6.523   0.466  1.0188 -0.2703 -0.4986
12599TIP3   OH259287   3.008   6.055   4.209 -0.1141 -0.3234  0.3750
12599TIP3    H159288   3.002   5.982   4.270 -2.7642 -0.1101  0.4834
12599TIP3    H259289   3.087   6.038   4.158  0.5654 -2.0296  1.9095
12600TIP3   OH259290   2.290   3.717  12.824 -0.0175 -0.0055  0.4477
12600TIP3    H159291   2.343   3.796  12.833 -0.0786  0.3217 -1.5610
12600TIP3    H259292   2.351   3.645  12.841  0.0716  0.4220  2.1520
12601TIP3   OH259293   6.204   5.701  15.014 -0.6673  0.5495 -0.1669
12601TIP3    H159294   6.127   5.645  15.004 -0.4108  0.3850 -1.3471
12601TIP3    H259295   6.245   5.671  15.096 -0.4954 -1.0416 -0.8091
12602TIP3   OH259296   3.413   2.082   4.089 -0.2045  0.2871  0.4456
12602TIP3    H159297   3.357   2.017   4.047  0.3021 -0.5379  1.0162
12602TIP3    H259298   3.470   2.114   4.018  1.3888 -1.8831  0.6622
12603TIP3   OH259299   1.849   5.674  14.359  0.2065 -0.2568 -0.0966
12603TIP3    H159300   1.781   5.693  14.295  0.1200 -0.4932 -0.0730
12603TIP3    H259301   1.810   5.699  14.443  0.8304  1.4273 -0.2734
12604TIP3   OH259302   0.569   6.671  12.560  0.2797  0.4134 -0.5825
12604TIP3    H159303   0.544   6.647  12.470 -1.9749  2.3346 -0.5731
12604TIP3    H259304   0.563   6.589  12.608 -1.5639 -0.1396 -1.6292
12605TIP3   OH259305   2.450   0.501  16.124 -0.1319 -0.2331  0.4280
12605TIP3    H159306   2.378   0.525  16.066  2.2806  0.5702 -2.4982
12605TIP3    H259307   2.459   0.406  16.115  0.3837 -0.0838 -0.8206
12606TIP3   OH259308   2.667   0.994   1.396 -0.0238  0.5687  0.1368
12606TIP3    H159309   2.596   0.957   1.448  0.2624  0.0218  0.1585
12606TIP3    H259310   2.624   1.046   1.329 -0.4155  0.8082  0.5704
12607TIP3   OH259311   6.705   5.500   5.605 -0.3629 -0.0434 -0.3565
12607TIP3    H159312   6.773   5.514   5.671 -0.4656 -0.7231 -0.0980
12607TIP3    H259313   6.705   5.405   5.591 -0.4899  0.0778 -1.1767
12608TIP3   OH259314   5.299   3.178   4.007  0.2204 -0.7570 -0.0619
12608TIP3    H159315   5.223   3.147   3.959  0.9601 -0.2559 -1.6230
12608TIP3    H259316   5.365   3.196   3.940  1.5544 -0.6962  1.1927
12609TIP3   OH259317   0.373   2.122   1.096  0.4183  0.0742  0.2366
12609TIP3    H159318   0.304   2.125   1.162 -0.9724  0.3719 -1.1867
12609TIP3    H259319   0.381   2.212   1.066  0.5153 -0.1866 -0.5307
12610TIP3   OH259320   4.083   3.168  14.724 -0.1963  0.0178  0.7193
12610TIP3    H159321   4.006   3.112  14.714 -0.3596  0.0254  1.7944
12610TIP3    H259322   4.066   3.243  14.667 -0.9900  0.0182  0.9409
12611TIP3   OH259323   6.681   0.477   4.353  0.0572  0.1037 -0.0584
12611TIP3    H159324   6.620   0.550   4.339 -0.2903  0.5661  3.0374
12611TIP3    H259325   6.625   0.401   4.367  0.3764 -0.3997 -1.3483
12612TIP3   OH259326   4.478   6.296  13.805 -0.0364 -0.4190  0.2684
12612TIP3    H159327   4.413   6.310  13.737  0.3754 -2.0397 -0.5098
12612TIP3    H259328   4.561   6.290  13.757  0.5384  0.4429  1.1293
12613TIP3   OH259329   2.326   2.087   2.224  0.8054  0.1721  0.3569
12613TIP3    H159330   2.249   2.143   2.221  0.5072 -0.0402  2.6830
12613TIP3    H259331   2.292   1.999   2.207  0.7339  0.2273  0.2070
12614TIP3   OH259332   0.382   6.786   2.916  0.0814 -0.0465 -0.2398
12614TIP3    H159333   0.438   6.724   2.870  0.2910 -0.2089  0.2231
12614TIP3    H259334   0.391   6.867   2.867  1.1534  0.0746  0.1201
12615TIP3   OH259335   5.012   5.938   5.555  0.2540  0.3955 -0.3850
12615TIP3    H159336   4.953   6.012   5.542 -0.4827 -0.0514  0.3847
12615TIP3    H259337   5.099   5.973   5.533 -0.3116  0.9551 -1.9036
12616TIP3   OH259338   5.457   0.692   3.750  0.5075  0.0319  0.7270
12616TIP3    H159339   5.396   0.674   3.822  0.0930 -0.7502  0.1902
12616TIP3    H259340   5.465   0.609   3.704 -1.2529  1.0944 -1.7034
12617TIP3   OH259341   6.407   2.001   5.744  0.1805 -0.6065  0.2973
12617TIP3    H159342   6.317   2.009   5.713  0.2360  1.1257  0.5234
12617TIP3    H259343   6.457   1.979   5.665  0.0086  1.7111 -0.5276
12618TIP3   OH259344   5.289   1.456  15.333  0.1806 -0.5200  0.3338
12618TIP3    H159345   5.310   1.433  15.423 -3.2166 -3.9844  0.4785
12618TIP3    H259346   5.289   1.372  15.286  1.4529  1.1058 -2.9074
12619TIP3   OH259347   5.714   3.843   3.404  0.1574  0.4072  0.1514
12619TIP3    H159348   5.699   3.902   3.331 -1.4989 -0.9173 -0.6326
12619TIP3    H259349   5.748   3.763   3.364 -2.7566 -1.1051  0.4840
12620TIP3   OH259350   5.322   4.138  16.568  0.5565 -0.7366  0.0834
12620TIP3    H159351   5.304   4.081  16.493 -0.8079  0.2423 -0.3759
12620TIP3    H259352   5.373   4.211  16.530 -2.0289  0.9229 -0.4407
12621TIP3   OH259353   1.942   3.526  13.641  0.4611 -0.6921 -0.0258
12621TIP3    H159354   1.923   3.437  13.610  0.0209 -0.8729  0.7329
12621TIP3    H259355   1.910   3.583  13.572 -0.9765 -1.0715  0.2970
12622TIP3   OH259356   3.652   2.360   4.374  0.0395  0.1959 -0.7384
12622TIP3    H159357   3.651   2.354   4.470  1.8143 -0.7420 -0.7262
12622TIP3    H259358   3.718   2.427   4.355 -0.7046  0.7814 -1.3105
12623TIP3   OH259359   1.149   3.307  14.837 -0.1692 -0.3387 -0.9650
12623TIP3    H159360   1.092   3.239  14.800  0.2214 -0.6454 -1.0149
12623TIP3    H259361   1.089   3.364  14.886 -0.5634 -0.4580 -1.2991
12624TIP3   OH259362   0.506   2.592   6.569  0.3890 -0.0969  0.0024
12624TIP3    H159363   0.577   2.531   6.591  0.9476 -0.2293 -1.9426
12624TIP3    H259364   0.448   2.590   6.645  1.2622 -1.7898  0.6837
12625TIP3   OH259365   4.085   3.841   3.073 -0.2317 -0.2564 -0.8329
12625TIP3    H159366   4.152   3.776   3.093 -0.5922 -0.1380  0.8909
12625TIP3    H259367   4.017   3.792   3.026 -0.7355 -1.2809  0.8939
12626TIP3   OH259368   2.400   0.118  12.026  0.1021 -0.1425  0.4504
12626TIP3    H159369   2.446   0.063  11.963  0.6219 -0.2876  0.9521
12626TIP3    H259370   2.337   0.168  11.974  1.8293  1.1750 -0.4853
12627TIP3   OH259371   6.456   0.293  11.666 -0.0919  0.1604 -0.1642
12627TIP3    H159372   6.406   0.214  11.685  0.3161 -0.1648 -0.4283
12627TIP3    H259373   6.428   0.356  11.733 -0.7806 -0.0415 -0.2504
12628TIP3   OH259374   5.331   4.369   3.595  0.0500 -0.1645 -0.3783
12628TIP3    H159375   5.334   4.329   3.508 -0.5716 -1.1607  0.0437
12628TIP3    H259376   5.360   4.301   3.655 -1.4671 -0.1771  0.4052
12629TIP3   OH259377   2.078   5.355   0.703 -0.2822 -0.3576 -0.4603
12629TIP3    H159378   1.997   5.390   0.666  0.7504  0.8270 -1.7641
12629TIP3    H259379   2.074   5.261   0.686 -1.1694 -0.2436 -0.9487
12630TIP3   OH259380   6.319   6.184  15.351  0.2934 -0.0470  0.0754
12630TIP3    H159381   6.272   6.188  15.268 -2.0626  3.3846  1.3332
12630TIP3    H259382   6.404   6.225  15.331  1.7161 -3.4053 -1.5000
12631TIP3   OH259383   4.157   3.618  13.714  0.1574  0.3110 -0.0764
12631TIP3    H159384   4.225   3.684  13.697  0.7762 -0.2670  0.0874
12631TIP3    H259385   4.127   3.590  13.627 -1.2636  1.9433 -0.1564
12632TIP3   OH259386   2.248   3.378   2.111  0.0017  0.4157  0.3018
12632TIP3    H159387   2.302   3.306   2.080 -1.0140  0.4694 -1.8167
12632TIP3    H259388   2.291   3.409   2.190  0.7836 -2.1203  0.9568
12633TIP3   OH259389   2.752   4.639  14.816  0.1287  0.2384 -0.4177
12633TIP3    H159390   2.658   4.639  14.832  0.1370 -0.1841 -0.3721
12633TIP3    H259391   2.764   4.577  14.743  0.5832 -1.1933  0.8284
12634TIP3   OH259392   3.069   4.575   4.084 -0.4337 -0.1922 -0.0018
12634TIP3    H159393   3.145   4.633   4.076 -0.2064 -0.5656 -0.6273
12634TIP3    H259394   3.100   4.501   4.135 -0.7743  0.2936  0.9576
12635TIP3   OH259395   6.250   4.079  14.967 -0.1481 -0.0741 -0.1862
12635TIP3    H159396   6.242   4.174  14.961 -0.4625 -0.1403 -0.9442
12635TIP3    H259397   6.292   4.064  15.052  1.1040  0.7957 -0.6222
12636TIP3   OH259398   5.066   2.483  15.669 -0.1287  0.1327 -0.2457
12636TIP3    H159399   5.067   2.408  15.609 -0.5057 -0.0500 -0.0285
12636TIP3    H259400   5.059   2.443  15.756 -0.6794  0.4344 -0.1510
12637TIP3   OH259401   0.782   4.243   4.438  0.4352  0.9464 -0.0970
12637TIP3    H159402   0.802   4.150   4.447 -0.9542  0.7245  1.1327
12637TIP3    H259403   0.686   4.246   4.437  0.4557  2.2954 -1.2150
12638TIP3   OH259404   1.658   3.693   1.298 -0.0288  0.0171  0.2407
12638TIP3    H159405   1.717   3.766   1.279  1.4528 -0.3695  2.8912
12638TIP3    H259406   1.680   3.627   1.232  2.1060  0.1320  0.7800
12639TIP3   OH259407   2.615   0.310   5.057 -0.4199  0.4999  0.6223
12639TIP3    H159408   2.611   0.390   5.004  0.9982  1.3802  1.7707
12639TIP3    H259409   2.698   0.316   5.103 -0.9086 -0.9978  1.7842
12640TIP3   OH259410   1.877   6.213   3.155 -0.3399  0.1895 -0.0553
12640TIP3    H159411   1.902   6.282   3.216 -1.8441  1.1191 -0.4381
12640TIP3    H259412   1.902   6.132   3.199  2.6198  0.9523 -0.1176
12641TIP3   OH259413   0.929   5.424   1.352 -0.2775 -0.3098 -0.4365
12641TIP3    H159414   0.924   5.477   1.431 -0.8967 -2.8635  1.3714
12641TIP3    H259415   0.838   5.403   1.331 -0.2145  1.3147 -2.6207
12642TIP3   OH259416   1.661   2.209  13.189 -0.0044  0.5618  0.2662
12642TIP3    H159417   1.724   2.191  13.259 -1.2171  0.8338  1.4699
12642TIP3    H259418   1.600   2.135  13.192 -1.6502  1.8811  1.3721
12643TIP3   OH259419   0.479   6.673   4.392 -0.1213 -0.5722 -0.3861
12643TIP3    H159420   0.573   6.659   4.377 -0.0709 -0.1302 -0.5059
12643TIP3    H259421   0.472   6.764   4.418 -0.4019 -0.9014  0.7491
12644TIP3   OH259422   2.272   1.058  14.051  0.4311 -0.9033  0.1087
12644TIP3    H159423   2.182   1.088  14.055  0.6161 -0.4350  1.0347
12644TIP3    H259424   2.266   0.966  14.029 -0.4335 -1.5853  2.7967
12645TIP3   OH259425   1.627   3.521  14.831 -0.1352  0.1274  0.6082
12645TIP3    H159426   1.558   3.455  14.842 -0.6919  0.6573  0.3517
12645TIP3    H259427   1.701   3.487  14.881  0.0913 -1.4112 -0.6836
12646TIP3   OH259428   0.773   6.052  15.903  0.0561 -0.8024  0.1374
12646TIP3    H159429   0.769   6.062  15.808 -1.9416 -0.3832  0.2207
12646TIP3    H259430   0.851   6.101  15.929 -0.4767  0.8065 -1.1160
12647TIP3   OH259431   2.358   4.286   0.722  0.2002  0.6216  0.3221
12647TIP3    H159432   2.320   4.291   0.810 -0.1938  0.0635  0.1899
12647TIP3    H259433   2.287   4.317   0.664  0.0684 -0.0681  0.1065
12648TIP3   OH259434   0.198   3.773  16.388  0.5014 -0.0765  0.2564
12648TIP3    H159435   0.212   3.681  16.410 -0.1434 -0.1578  0.3383
12648TIP3    H259436   0.280   3.800  16.346  0.7727 -0.6261  0.4220
12649TIP3   OH259437   4.244   3.405   1.078 -0.2536  0.4231 -0.8605
12649TIP3    H159438   4.225   3.441   1.165  0.0865  0.0435 -0.6189
12649TIP3    H259439   4.192   3.457   1.018 -2.2262 -0.7116 -0.2267
12650TIP3   OH259440   5.550   0.853   1.985  0.3573 -0.1013 -0.3111
12650TIP3    H159441   5.603   0.774   1.987 -1.6917 -1.6184 -1.3896
12650TIP3    H259442   5.607   0.920   1.946  2.6831 -0.5076  2.1519
12651TIP3   OH259443   5.995   3.035  15.166  0.8945 -0.4406  0.4026
12651TIP3    H159444   5.924   3.100  15.167  1.8802  0.6686  0.8444
12651TIP3    H259445   6.063   3.075  15.112  1.9071 -0.6657  1.4687
12652TIP3   OH259446   1.502   2.225   4.147  0.6400 -0.3151  0.2222
12652TIP3    H159447   1.523   2.132   4.139  1.8401 -0.0174 -0.3088
12652TIP3    H259448   1.514   2.245   4.240 -0.9492 -0.9706  0.6002
12653TIP3   OH259449   1.936   2.054   5.084 -0.4356 -0.3184 -0.3721
12653TIP3    H159450   1.898   2.014   5.162  1.7802 -1.9665 -0.0543
12653TIP3    H259451   1.865   2.052   5.019 -0.9828 -3.2226  0.1935
12654TIP3   OH259452   3.008   0.428  16.452 -0.5044 -0.0957  0.1963
12654TIP3    H159453   2.968   0.341  16.450 -0.7479 -0.0279  1.3438
12654TIP3    H259454   2.940   0.486  16.419 -0.6507 -0.2258  0.2694
12655TIP3   OH259455   4.800   6.113   0.788  0.4826  0.0354  0.0636
12655TIP3    H159456   4.840   6.191   0.750  1.1549 -1.2515 -1.9725
12655TIP3    H259457   4.865   6.044   0.777 -1.0153 -1.3645 -0.3742
12656TIP3   OH259458   1.204   1.709   1.709 -0.7456 -0.2000 -0.2009
12656TIP3    H159459   1.215   1.727   1.615 -0.0952  0.0124 -0.0923
12656TIP3    H259460   1.136   1.769   1.737 -0.1293  0.5710 -0.3068
12657TIP3   OH259461   6.719   6.083   2.920  0.4623 -0.3632 -0.1359
12657TIP3    H159462   6.789   6.071   2.855 -0.0075 -1.7276 -0.4161
12657TIP3    H259463   6.674   5.999   2.923 -0.2786  0.0491  1.1009
12658TIP3   OH259464   1.354   3.870   2.646 -0.3325 -0.5298  0.0196
12658TIP3    H159465   1.306   3.816   2.709 -1.7789  1.6699  0.9489
12658TIP3    H259466   1.307   3.857   2.564 -0.0404 -1.4536 -0.0044
12659TIP3   OH259467   4.623   6.164  12.886  0.4472 -0.3724  0.5184
12659TIP3    H159468   4.616   6.250  12.925 -2.5469  0.4687 -1.5886
12659TIP3    H259469   4.670   6.179  12.803  1.4500 -1.1213  0.9225
12660TIP3   OH259470   3.011   0.307  12.490 -0.4976 -0.8194 -0.2523
12660TIP3    H159471   3.002   0.212  12.478 -0.2165 -0.7319 -1.2803
12660TIP3    H259472   2.926   0.335  12.524 -0.9393 -1.3072 -0.9175
12661TIP3   OH259473   2.573   4.180  12.227 -0.1369  0.2338 -0.9823
12661TIP3    H159474   2.554   4.096  12.185 -2.9953  0.4893 -0.3899
12661TIP3    H259475   2.662   4.201  12.200 -0.1823 -1.8726 -3.0377
12662TIP3   OH259476   0.268   3.194   6.075  0.1761  0.0433  0.2152
12662TIP3    H159477   0.262   3.190   5.980  0.2821  0.3117  0.1940
12662TIP3    H259478   0.232   3.111   6.106 -1.0803  0.4889 -0.0011
12663TIP3   OH259479   2.772   1.779  10.940 -1.0019  0.5388 -0.0190
12663TIP3    H159480   2.844   1.735  10.895 -0.1830  1.3433  0.4726
12663TIP3    H259481   2.716   1.708  10.971 -2.0895 -0.0462 -2.9881
12664TIP3   OH259482   0.221   3.332  13.342  0.9579  0.3814  1.0151
12664TIP3    H159483   0.279   3.280  13.286 -1.4009  0.6843 -1.9645
12664TIP3    H259484   0.181   3.268  13.401  1.5105 -0.4503  0.5164
12665TIP3   OH259485   5.179   5.334   2.555  0.0322  0.0081  0.6272
12665TIP3    H159486   5.138   5.372   2.633  2.6583  2.8817  0.7898
12665TIP3    H259487   5.250   5.281   2.590  2.0234  2.3075  0.3361
12666TIP3   OH259488   2.262   2.265   3.664  0.1521 -0.3312 -0.4174
12666TIP3    H159489   2.198   2.329   3.633 -2.0379 -1.0915  2.2037
12666TIP3    H259490   2.315   2.314   3.727  2.3241  0.2837 -2.5383
12667TIP3   OH259491   3.763   3.787   6.156 -0.1764 -0.2790  0.1863
12667TIP3    H159492   3.675   3.762   6.126 -0.1985 -0.1193  0.1192
12667TIP3    H259493   3.761   3.882   6.161 -0.1369 -0.2981  0.5882
12668TIP3   OH259494   3.149   1.455   4.456 -0.3544  0.3492 -0.1110
12668TIP3    H159495   3.242   1.474   4.471 -1.1558  2.0389  3.7547
12668TIP3    H259496   3.144   1.359   4.460  1.0746  0.2814  1.1470
12669TIP3   OH259497   2.842   2.218   2.906 -0.5855  0.1828 -0.2166
12669TIP3    H159498   2.783   2.144   2.898 -2.3963  1.5909 -0.6021
12669TIP3    H259499   2.876   2.232   2.818 -0.2266 -0.1889 -0.1391
12670TIP3   OH259500   5.775   4.449  13.602  0.4882 -0.3819 -0.2022
12670TIP3    H159501   5.752   4.387  13.671 -0.3002  0.3836  0.2402
12670TIP3    H259502   5.870   4.445  13.596  0.7005  0.5811  1.9242
12671TIP3   OH259503   5.313   0.848   5.057  0.1759  0.3786 -0.2094
12671TIP3    H159504   5.383   0.829   4.994  0.9002 -0.2363  0.7517
12671TIP3    H259505   5.268   0.765   5.068 -0.5570  0.7155 -0.6340
12672TIP3   OH259506   4.512   1.326   4.251 -0.0396 -0.3783  0.5491
12672TIP3    H159507   4.483   1.345   4.340 -1.0754  0.7129  0.0132
12672TIP3    H259508   4.434   1.337   4.197  0.5894 -0.9176 -0.5221
12673TIP3   OH259509   4.611   1.094   4.339  0.4596 -0.0615  0.6179
12673TIP3    H159510   4.660   1.120   4.417 -1.3875  2.0746  1.1965
12673TIP3    H259511   4.581   1.176   4.301  1.0058 -1.0678 -2.2102
12674TIP3   OH259512   1.725   3.067   6.108 -0.3370  0.3401  0.1940
12674TIP3    H159513   1.738   3.152   6.066 -0.9585  0.4914  0.2964
12674TIP3    H259514   1.736   3.085   6.202 -5.0553  1.3771  0.8033
12675TIP3   OH259515   0.223   0.046   4.220 -0.4246 -0.2663  0.0459
12675TIP3    H159516   0.147   0.098   4.246 -0.2564  0.0230 -0.0279
12675TIP3    H259517   0.187  -0.037   4.190 -0.8520  0.4406 -1.4930
12676TIP3   OH259518   3.285   2.657  10.299 -0.0160  0.2747 -0.4676
12676TIP3    H159519   3.211   2.657  10.239 -1.5762  0.2263  1.3708
12676TIP3    H259520   3.269   2.583  10.357  0.8672  0.9585  0.7010
12677TIP3   OH259521   3.238   4.249  16.033  0.2899  0.4020 -0.4628
12677TIP3    H159522   3.252   4.219  15.943  0.4547  0.6024 -0.5038
12677TIP3    H259523   3.259   4.172  16.087 -0.7767 -0.0286 -0.6325
12678TIP3   OH259524   2.550   1.451  16.313  0.1391  0.6391 -0.3314
12678TIP3    H159525   2.600   1.378  16.349 -0.2063  0.3115 -0.5117
12678TIP3    H259526   2.593   1.471  16.230  0.2541  0.6641 -0.2671
12679TIP3   OH259527   6.724   3.953   2.596  0.0663  0.0275  0.5210
12679TIP3    H159528   6.679   3.939   2.679 -1.0646 -0.7520 -0.1962
12679TIP3    H259529   6.691   4.038   2.565 -1.2476 -0.7019 -0.1724
12680TIP3   OH259530   5.571   3.270   5.551  0.7308 -0.2396  0.6179
12680TIP3    H159531   5.490   3.303   5.512 -1.0641 -2.7905  1.9002
12680TIP3    H259532   5.586   3.187   5.506  1.9202 -0.4088  1.3110
12681TIP3   OH259533   4.929   2.925   0.296  0.0414 -0.5662 -0.6063
12681TIP3    H159534   4.871   2.998   0.312  0.8943 -0.1242  0.6178
12681TIP3    H259535   4.931   2.916   0.200  1.3319  2.1983 -0.9250
12682TIP3   OH259536   3.324   5.662   2.429 -0.0496  0.3354  0.7745
12682TIP3    H159537   3.314   5.694   2.339  2.3234  1.3091  0.7846
12682TIP3    H259538   3.299   5.736   2.484 -3.0243 -0.7385  1.0498
12683TIP3   OH259539   3.250   1.553  11.322 -0.0963 -0.4658  0.5648
12683TIP3    H159540   3.299   1.534  11.401  1.2277 -1.5243 -0.4565
12683TIP3    H259541   3.315   1.545  11.251 -1.4591 -0.6562 -0.7158
12684TIP3   OH259542   2.629   1.645   0.387  0.3087  0.2878  0.2790
12684TIP3    H159543   2.548   1.603   0.357  1.0848 -1.8681  0.9777
12684TIP3    H259544   2.639   1.722   0.331 -1.0025 -0.6980 -1.4061
12685TIP3   OH259545   2.839   6.277  12.219 -0.1069 -0.1748 -0.3622
12685TIP3    H159546   2.848   6.187  12.251  0.5287 -0.6588 -1.7789
12685TIP3    H259547   2.909   6.326  12.263 -0.3008 -0.4280  0.2343
12686TIP3   OH259548   4.580   4.585   2.427 -0.8843  0.8513 -0.1306
12686TIP3    H159549   4.592   4.618   2.338  0.1645  0.1545 -0.2743
12686TIP3    H259550   4.670   4.575   2.461 -1.0835 -2.0165 -0.1915
12687TIP3   OH259551   0.306   2.318   0.723  0.3956  0.0589 -0.2358
12687TIP3    H159552   0.390   2.304   0.679  1.0353  0.7873  0.7352
12687TIP3    H259553   0.265   2.388   0.672  0.2046 -0.5330 -0.9214
12688TIP3   OH259554   5.727   6.807   2.725  0.1647  0.3683  0.4075
12688TIP3    H159555   5.777   6.769   2.653 -1.7248 -1.8386  0.1091
12688TIP3    H259556   5.771   6.889   2.745  1.6472  0.3370 -2.2472
12689TIP3   OH259557   0.285   0.693   4.086 -0.2681  0.5035 -0.5148
12689TIP3    H159558   0.334   0.737   4.156 -0.5980  0.3132 -0.1627
12689TIP3    H259559   0.339   0.617   4.064  0.5606  1.3555 -1.4855
12690TIP3   OH259560   3.096   3.915   0.167 -0.7734 -0.1706  0.2934
12690TIP3    H159561   3.046   3.989   0.132  0.9369  0.3461 -1.2853
12690TIP3    H259562   3.143   3.881   0.091  0.7858 -0.9619  1.5610
12691TIP3   OH259563   0.526   0.650  15.895  0.0852  0.0972 -0.2883
12691TIP3    H159564   0.557   0.686  15.812 -1.6755  1.8750 -0.2665
12691TIP3    H259565   0.449   0.598  15.871  0.9517 -1.3854  0.0111
12692TIP3   OH259566   0.606   5.479   0.869  0.1349  0.4152  0.3423
12692TIP3    H159567   0.568   5.559   0.833  0.5077  1.6347  2.5039
12692TIP3    H259568   0.699   5.486   0.851  0.2885  0.9124  1.2786
12693TIP3   OH259569   6.153   0.860  11.099  0.0354  0.0771 -0.6506
12693TIP3    H159570   6.221   0.911  11.055 -0.0171 -0.0748 -0.9117
12693TIP3    H259571   6.192   0.774  11.111 -0.6819 -0.5202 -2.3019
12694TIP3   OH259572   0.470   5.423  14.818 -0.2109 -0.1591  0.1471
12694TIP3    H159573   0.466   5.421  14.722 -1.1093 -1.0730  0.1945
12694TIP3    H259574   0.447   5.513  14.841 -0.2586 -0.0061 -0.4720
12695TIP3   OH259575   5.202   6.703   1.004  0.4157  0.1415  0.2636
12695TIP3    H159576   5.241   6.615   0.997  1.7704  0.7897 -0.9331
12695TIP3    H259577   5.215   6.741   0.917 -0.8216  1.2656  0.5549
12696TIP3   OH259578   5.600   1.334  15.750  0.2160 -0.0288  0.0739
12696TIP3    H159579   5.624   1.356  15.840  0.1159  0.2586  0.0301
12696TIP3    H259580   5.618   1.240  15.743  1.6261  0.2231 -0.0558
12697TIP3   OH259581   6.310   0.894   1.825  0.2015  0.4065  0.3631
12697TIP3    H159582   6.327   0.946   1.747  0.7248  1.8686  1.4080
12697TIP3    H259583   6.217   0.871   1.820  0.3150  0.1744 -0.8481
12698TIP3   OH259584   2.135   1.263   1.133  0.5233  0.1195 -0.1580
12698TIP3    H159585   2.094   1.265   1.219 -0.2853  1.1311 -0.5482
12698TIP3    H259586   2.096   1.187   1.089  1.1386 -0.5650  0.4375
12699TIP3   OH259587   3.768   0.775  15.413 -0.1250  0.6648 -0.4641
12699TIP3    H159588   3.676   0.753  15.428  0.6947 -0.6325  4.4054
12699TIP3    H259589   3.767   0.869  15.394 -2.4404  1.5160  2.8675
12700TIP3   OH259590   0.866   5.231   3.678 -0.0883 -0.1030  0.1933
12700TIP3    H159591   0.834   5.141   3.675 -0.0838 -0.0886 -0.4819
12700TIP3    H259592   0.873   5.251   3.771  0.4312 -0.9781  0.3508
12701TIP3   OH259593   4.309   3.442  12.931 -0.1215  0.0563  0.3744
12701TIP3    H159594   4.253   3.520  12.935 -1.0588 -0.5815  0.0182
12701TIP3    H259595   4.397   3.476  12.912 -0.5330  1.0161  0.1529
12702TIP3   OH259596   0.062   4.302  13.785 -0.4269 -0.6272 -0.6193
12702TIP3    H159597   0.029   4.257  13.707  0.5566 -0.5910 -1.0638
12702TIP3    H259598   0.154   4.278  13.790 -0.7771 -1.8273  1.3747
12703TIP3   OH259599   3.695   2.700  17.130 -0.4976  0.4387  1.2111
12703TIP3    H159600   3.605   2.729  17.141 -0.0966  1.5420  1.8210
12703TIP3    H259601   3.714   2.648  17.208 -0.2674  1.1579  1.6437
12704TIP3   OH259602   0.113   4.485   1.600  0.5004  0.0316  0.2097
12704TIP3    H159603   0.019   4.481   1.615  0.6512 -0.7279  1.0861
12704TIP3    H259604   0.142   4.393   1.606  1.0793  0.0514 -1.6038
12705TIP3   OH259605   5.051   1.571  16.960  0.3089 -0.7518 -0.0985
12705TIP3    H159606   4.987   1.510  16.997  2.6453 -2.9548  0.6182
12705TIP3    H259607   5.050   1.645  17.020 -0.5925 -1.3651  0.6882
12706TIP3   OH259608   6.270   3.751   1.319  0.3952  0.3491 -0.5112
12706TIP3    H159609   6.178   3.730   1.305 -0.1521  2.2422 -0.1509
12706TIP3    H259610   6.290   3.815   1.250  1.8005 -0.9095 -1.3161
12707TIP3   OH259611   5.120   0.918   0.200  0.2806  0.2088 -0.1027
12707TIP3    H159612   5.145   0.923   0.292 -0.7992 -0.0448  0.2158
12707TIP3    H259613   5.203   0.926   0.152  0.9584 -0.5852  0.8971
12708TIP3   OH259614   4.181   1.097  16.736  0.2661  0.1169 -0.2664
12708TIP3    H159615   4.208   1.179  16.695  1.0277 -0.5231 -1.1213
12708TIP3    H259616   4.110   1.065  16.680 -0.4767  0.5065  0.4433
12709TIP3   OH259617   1.083   5.944  16.260 -0.1187  0.2031 -0.4231
12709TIP3    H159618   1.142   5.888  16.310  0.0981  2.0922  1.6343
12709TIP3    H259619   0.996   5.917  16.286 -0.0589 -0.2179 -0.6625
12710TIP3   OH259620   1.669   4.134  14.116  0.3952  0.4416  0.0691
12710TIP3    H159621   1.731   4.106  14.048  0.3321 -0.9215  0.5450
12710TIP3    H259622   1.724   4.157  14.191  0.4462  1.6592 -0.3162
12711TIP3   OH259623   5.226   0.629  14.160 -0.2032  0.1750  0.7030
12711TIP3    H159624   5.262   0.627  14.248 -0.0410  0.7520  0.6526
12711TIP3    H259625   5.216   0.722  14.140 -0.3329  0.0462  0.1534
12712TIP3   OH259626   1.585   4.914   1.629  0.0393  0.2874  0.1823
12712TIP3    H159627   1.639   4.927   1.551  0.3516 -1.2102  0.1126
12712TIP3    H259628   1.496   4.930   1.599  0.3005  1.5515 -0.0065
12713TIP3   OH259629   3.467   1.251  13.707  0.0733 -0.2765 -0.4727
12713TIP3    H159630   3.438   1.198  13.781 -1.7419  0.2186 -0.7945
12713TIP3    H259631   3.540   1.303  13.743 -0.4868 -0.3592  0.8455
12714TIP3   OH259632   2.095   2.020  10.338  0.4980 -0.0439 -0.0045
12714TIP3    H159633   2.181   2.017  10.380  0.2059 -1.5611  0.5468
12714TIP3    H259634   2.075   2.113  10.331  1.2751  0.2971  1.7755
12715TIP3   OH259635   3.982   2.669  11.064  0.2325 -0.1244  0.4051
12715TIP3    H159636   4.038   2.728  11.013  0.4805 -0.4495  0.2878
12715TIP3    H259637   4.038   2.593  11.081  0.0463 -0.1539  0.8934
12716TIP3   OH259638   1.358   1.842   5.222  0.2791  0.1484 -0.1152
12716TIP3    H159639   1.383   1.900   5.293  0.6392 -0.1288 -0.0115
12716TIP3    H259640   1.436   1.838   5.166  0.6005 -0.9662  0.3762
12717TIP3   OH259641   1.647   5.566   4.488  0.3719 -0.4443 -0.1232
12717TIP3    H159642   1.742   5.557   4.484  0.2433 -1.8483 -0.6632
12717TIP3    H259643   1.629   5.650   4.446  1.2543 -0.9910 -1.6587
12718TIP3   OH259644   4.185   3.008  12.869 -0.3174 -0.0901 -0.1175
12718TIP3    H159645   4.198   2.953  12.946 -0.0538 -0.4487 -0.4162
12718TIP3    H259646   4.254   2.980  12.808 -0.9825 -0.3221 -0.7706
12719TIP3   OH259647   1.974   4.239   6.171 -0.4353  0.0752 -0.2832
12719TIP3    H159648   2.010   4.177   6.234  0.2946 -0.0241 -0.7821
12719TIP3    H259649   1.977   4.324   6.216  1.5543  0.2806 -0.6995
12720TIP3   OH259650   0.524   5.635  14.578  0.1774  0.3485 -0.2866
12720TIP3    H159651   0.494   5.690  14.506  0.9689 -2.1002 -2.6135
12720TIP3    H259652   0.461   5.563  14.581  0.6646 -0.0513  0.9114
12721TIP3   OH259653   0.877   3.742  11.694 -0.0847  0.3220 -0.1975
12721TIP3    H159654   0.941   3.768  11.628 -0.7705 -0.1707 -1.0838
12721TIP3    H259655   0.795   3.782  11.665 -0.2907  0.5482  0.6566
12722TIP3   OH259656   1.900   2.621  11.284  0.3904  0.9957 -0.1570
12722TIP3    H159657   1.921   2.580  11.200 -0.4401 -0.8443  0.4702
12722TIP3    H259658   1.982   2.659  11.313  1.5872 -1.3289 -0.2510
12723TIP3   OH259659   0.226   5.911  15.881 -0.2670  0.3363 -0.3141
12723TIP3    H159660   0.264   5.972  15.945 -4.0366  0.2154  2.3930
12723TIP3    H259661   0.264   5.826  15.902 -1.2180  0.3603  1.6823
12724TIP3   OH259662   3.113   3.953  12.955 -0.0415  0.1109 -0.1142
12724TIP3    H159663   3.151   3.919  12.874  0.2808  0.7817 -0.2544
12724TIP3    H259664   3.111   4.048  12.942  0.4342  0.2569  0.8453
12725TIP3   OH259665   1.108   0.707  14.411  0.6156  0.5245  0.3470
12725TIP3    H159666   1.115   0.635  14.349  2.4865 -0.6789  1.8383
12725TIP3    H259667   1.017   0.707  14.439  0.3627 -0.5816 -0.4383
12726TIP3   OH259668   3.333   3.528   4.954 -0.0852  0.2484  0.7602
12726TIP3    H159669   3.334   3.594   4.885 -0.8923 -0.6798 -0.1618
12726TIP3    H259670   3.395   3.561   5.019 -0.5645  1.9686  0.3916
12727TIP3   OH259671   6.758   4.284   5.532 -0.1664  0.4279 -0.4226
12727TIP3    H159672   6.729   4.232   5.607 -0.1720  0.1334 -0.6236
12727TIP3    H259673   6.792   4.365   5.569 -1.3932  0.8580 -0.1782
12728TIP3   OH259674   6.021   5.370  15.159  0.2356  0.2754 -0.7110
12728TIP3    H159675   5.938   5.324  15.173  1.2209 -2.8456 -3.7980
12728TIP3    H259676   6.002   5.433  15.090  0.2531  0.0414 -0.9324
12729TIP3   OH259677   5.566   3.535  12.874  0.6947 -0.6043 -0.5590
12729TIP3    H159678   5.521   3.478  12.812  1.0907 -0.0829 -1.3558
12729TIP3    H259679   5.657   3.535  12.844  1.0683 -1.0022  0.5403
12730TIP3   OH259680   6.603   1.973  14.371  0.1819  0.5690  0.4485
12730TIP3    H159681   6.550   1.928  14.437  0.4791  0.9645  0.9685
12730TIP3    H259682   6.594   1.920  14.292  1.2245 -0.9196  1.2694
12731TIP3   OH259683   4.349   4.329  13.643  0.6265  0.5232  0.4789
12731TIP3    H159684   4.296   4.341  13.565 -0.2555 -0.0224  0.9887
12731TIP3    H259685   4.401   4.410  13.650  1.0978  0.3615 -0.9422
12732TIP3   OH259686   6.571   2.748   5.298 -0.9724 -0.0633 -0.1293
12732TIP3    H159687   6.496   2.789   5.255 -0.7817 -0.5693 -0.9624
12732TIP3    H259688   6.535   2.667   5.336 -0.8129 -0.4103 -0.7074
12733TIP3   OH259689   2.821   5.101   2.475 -0.3347  0.4104  0.1193
12733TIP3    H159690   2.781   5.186   2.462 -0.6436  0.4908  1.4732
12733TIP3    H259691   2.887   5.094   2.405 -0.8287  1.4174 -0.4602
12734TIP3   OH259692   2.485   1.803  16.417 -0.6907  0.2089 -0.3484
12734TIP3    H159693   2.468   1.885  16.371 -2.9611 -0.3133 -0.5564
12734TIP3    H259694   2.558   1.764  16.369  0.8343  2.3018  0.0991
12735TIP3   OH259695   3.002   1.786  11.859  0.5030 -0.1651  0.0952
12735TIP3    H159696   3.023   1.853  11.923  1.5610  1.0503 -1.4597
12735TIP3    H259697   3.051   1.709  11.888  0.7533  0.2788  0.8778
12736TIP3   OH259698   5.497   5.202  11.220  0.1229 -0.0223  0.3462
12736TIP3    H159699   5.485   5.221  11.127 -0.2896 -1.1335  0.1631
12736TIP3    H259700   5.532   5.284  11.256 -1.9727  1.2594 -0.3266
12737TIP3   OH259701   5.768   5.818  16.663 -0.3773 -0.0990 -0.4735
12737TIP3    H159702   5.695   5.825  16.724 -0.9664 -2.5000 -0.8165
12737TIP3    H259703   5.728   5.792  16.580  0.6350  1.0205 -1.3517
12738TIP3   OH259704   1.830   1.189  12.611  0.0779  0.3460 -0.5735
12738TIP3    H159705   1.914   1.218  12.647 -0.7022  2.6526 -0.4461
12738TIP3    H259706   1.841   1.194  12.516  0.1339  0.5092 -0.5586
12739TIP3   OH259707   1.643   5.308   3.800  0.1448 -0.1620 -0.0584
12739TIP3    H159708   1.621   5.215   3.789  1.4381 -0.4224 -0.6613
12739TIP3    H259709   1.633   5.325   3.893  2.3977 -1.6239  0.5400
12740TIP3   OH259710   0.287   4.701   5.713 -0.2782  0.2403  0.3241
12740TIP3    H159711   0.298   4.731   5.623 -1.0571  0.7423  0.3863
12740TIP3    H259712   0.195   4.719   5.733  0.0947  0.9344  1.5012
12741TIP3   OH259713   2.645   3.034   1.573 -0.5337  0.0145 -0.4729
12741TIP3    H159714   2.626   2.949   1.613  0.1735  0.2833  0.4563
12741TIP3    H259715   2.690   3.083   1.641  0.9040  0.4212 -1.6626
12742TIP3   OH259716   3.501   1.005  14.332 -0.0469 -0.4869 -0.6249
12742TIP3    H159717   3.522   0.927  14.281  1.5267  0.0589 -0.8456
12742TIP3    H259718   3.515   0.978  14.423  1.6839 -0.1392 -0.7667
12743TIP3   OH259719   0.953   0.384   4.719 -0.0152 -0.0902  0.1307
12743TIP3    H159720   0.890   0.339   4.776 -0.3896 -1.7242 -1.4951
12743TIP3    H259721   0.943   0.476   4.742 -0.3490 -0.6376  2.4983
12744TIP3   OH259722   2.207   4.705   0.226 -0.3430  0.7411 -0.1026
12744TIP3    H159723   2.213   4.800   0.214  1.6821  0.6611 -0.0100
12744TIP3    H259724   2.194   4.671   0.137  2.7334  0.9133 -0.7091
12745TIP3   OH259725   5.097   5.206   5.049 -0.5136  0.0371 -0.5623
12745TIP3    H159726   5.153   5.225   4.974 -1.7546  0.4294 -1.4286
12745TIP3    H259727   5.078   5.113   5.042  1.5499 -0.5516  0.8482
12746TIP3   OH259728   6.019   6.098   6.522 -0.0003  0.0967  0.5622
12746TIP3    H159729   6.054   6.187   6.510  0.4355 -0.1482 -0.0623
12746TIP3    H259730   5.952   6.108   6.589  2.2369  0.3287  2.9292
12747TIP3   OH259731   6.597   2.216  15.698 -0.1900 -0.7271  0.3219
12747TIP3    H159732   6.508   2.184  15.713  0.3553 -2.4571  0.1244
12747TIP3    H259733   6.651   2.137  15.701  1.6701  0.5315  2.7686
12748TIP3   OH259734   4.516   2.435   5.242  0.0164  0.0861 -0.0060
12748TIP3    H159735   4.602   2.473   5.255  0.0275  0.3838 -0.8409
12748TIP3    H259736   4.519   2.351   5.288  1.1271 -0.4057 -0.9158
12749TIP3   OH259737   1.265   2.930  12.572  0.3091 -0.5462  0.2920
12749TIP3    H159738   1.272   2.842  12.535  0.9236 -0.3830 -0.0077
12749TIP3    H259739   1.301   2.922  12.660 -1.7968 -1.0859  1.1600
12750TIP3   OH259740   3.282   4.349   4.123  0.4745 -0.3116 -0.2723
12750TIP3    H159741   3.336   4.420   4.088 -0.6690 -0.3976 -2.4006
12750TIP3    H259742   3.267   4.291   4.048 -1.0122 -1.2704  0.7074
12751TIP3   OH259743   1.144   6.593   5.349 -0.0103  0.1488  0.2077
12751TIP3    H159744   1.138   6.534   5.273  0.8671  0.0494  0.2094
12751TIP3    H259745   1.201   6.664   5.319  0.2245  0.1818  0.7265
12752TIP3   OH259746   0.180   1.845   5.332 -0.0627  1.0806  0.1806
12752TIP3    H159747   0.260   1.813   5.375 -1.2231  0.0658  1.6542
12752TIP3    H259748   0.114   1.847   5.401 -1.5252  1.1696 -1.1655
12753TIP3   OH259749   6.712   2.886  12.750  1.0434  0.2373  0.2568
12753TIP3    H159750   6.705   2.893  12.846  0.5787 -0.0663  0.2514
12753TIP3    H259751   6.638   2.831  12.725 -0.1902  2.1397 -0.5182
12754TIP3   OH259752   1.287   2.575  14.324 -0.1718 -0.4435 -0.6174
12754TIP3    H159753   1.369   2.608  14.361 -1.0832 -0.6540  1.7878
12754TIP3    H259754   1.289   2.481  14.342 -1.2812 -0.3208  0.2376
12755TIP3   OH259755   6.475   3.857  13.320  0.1252 -0.9053  0.0674
12755TIP3    H159756   6.512   3.807  13.393  2.1028  0.4832  0.1152
12755TIP3    H259757   6.480   3.798  13.245 -1.7438 -2.2825  0.9504
12756TIP3   OH259758   0.059   1.723   1.951  0.6381  0.1640 -0.3341
12756TIP3    H159759  -0.026   1.680   1.959  0.6893  0.4409  3.3296
12756TIP3    H259760   0.043   1.797   1.893 -1.8248  0.5243  0.6688
12757TIP3   OH259761   0.310   3.477  13.837 -0.1920 -0.3157  0.2195
12757TIP3    H159762   0.319   3.507  13.927 -1.2478 -1.0482  0.5908
12757TIP3    H259763   0.371   3.531  13.787 -1.0208  1.4792  1.0541
12758TIP3   OH259764   0.008   1.685   0.757  0.2847  0.4318  0.0023
12758TIP3    H159765  -0.024   1.706   0.670 -0.9239 -1.8351 -0.1743
12758TIP3    H259766   0.049   1.599   0.748 -0.1042  0.0235  1.7027
12759TIP3   OH259767   4.339   0.111   1.839 -0.0314  0.3235  0.4124
12759TIP3    H159768   4.407   0.083   1.901 -0.7818  0.4655  1.3280
12759TIP3    H259769   4.372   0.083   1.753  1.3162  0.6536  0.7937
12760TIP3   OH259770   3.875   4.655   0.404  0.3483 -0.4397 -0.0903
12760TIP3    H159771   3.960   4.684   0.436  0.4798  1.7023 -2.1100
12760TIP3    H259772   3.895   4.585   0.342  0.6274 -0.1603 -0.3204
12761TIP3   OH259773   6.500   4.723   4.181  0.2437 -0.1743 -0.3574
12761TIP3    H159774   6.444   4.662   4.230  0.2134  1.0139  1.1766
12761TIP3    H259775   6.450   4.805   4.179  1.1267  0.3705 -0.5936
12762TIP3   OH259776   3.151   0.460  14.466 -0.1219  0.0019 -0.0157
12762TIP3    H159777   3.211   0.480  14.538 -0.7391 -0.2192  0.5762
12762TIP3    H259778   3.104   0.542  14.450 -1.1907 -0.3755  1.0112
12763TIP3   OH259779   5.947   3.457   5.511  0.1490 -0.2250  0.4849
12763TIP3    H159780   5.888   3.471   5.438 -0.0799 -0.2343  0.6669
12763TIP3    H259781   5.900   3.396   5.568  0.0439  0.3067  0.9708
12764TIP3   OH259782   3.296   5.305  10.368  0.0806 -0.1873  0.1635
12764TIP3    H159783   3.223   5.358  10.334 -1.4862 -2.2967  0.0033
12764TIP3    H259784   3.370   5.365  10.371 -1.2210  1.6223 -1.3569
12765TIP3   OH259785   3.056   1.490   4.160 -0.1286  0.2608 -0.1182
12765TIP3    H159786   3.135   1.445   4.130 -0.4148  0.0810 -0.6124
12765TIP3    H259787   3.057   1.479   4.255 -1.1957 -2.5239 -0.3286
12766TIP3   OH259788   6.545   4.475  14.652 -0.5292  0.4179 -0.2160
12766TIP3    H159789   6.479   4.496  14.718 -2.2918  0.3808 -1.8596
12766TIP3    H259790   6.588   4.397  14.685  0.9869  2.1909  2.4236
12767TIP3   OH259791   5.053   6.426  10.473  0.1258  0.1284  0.1170
12767TIP3    H159792   4.989   6.371  10.429  1.7207 -0.7655 -1.1888
12767TIP3    H259793   5.116   6.365  10.510  1.1148  1.0109 -0.0589
12768TIP3   OH259794   1.719   3.853   2.845 -0.0221  0.3473 -0.0806
12768TIP3    H159795   1.807   3.835   2.879 -0.3105 -1.7144 -0.3360
12768TIP3    H259796   1.722   3.825   2.754 -0.6884  1.1912 -0.3742
12769TIP3   OH259797   2.051   2.686   5.168 -0.1024  0.4354  0.4035
12769TIP3    H159798   2.028   2.760   5.223  0.8863 -0.9584  2.8250
12769TIP3    H259799   2.120   2.640   5.216  1.4137 -0.4465 -2.3861
12770TIP3   OH259800   1.610   1.481   5.881  0.4086  0.3263  0.1590
12770TIP3    H159801   1.599   1.452   5.971  0.5482  0.8974  0.3612
12770TIP3    H259802   1.542   1.547   5.868  1.0991  1.0546  0.2003
12771TIP3   OH259803   6.560   5.199   5.414  0.1141 -0.4760 -0.0127
12771TIP3    H159804   6.633   5.175   5.472  1.5171  1.0797 -1.0468
12771TIP3    H259805   6.571   5.141   5.338  0.1695 -0.3653 -0.0892
12772TIP3   OH259806   1.052   3.116  15.168 -0.3405  0.1676  0.3491
12772TIP3    H159807   1.039   3.047  15.233  0.7959 -0.0827  0.3366
12772TIP3    H259808   0.995   3.092  15.095  0.8706 -1.3936 -0.1297
12773TIP3   OH259809   3.627   3.326   0.297  0.0721 -0.0197 -0.3762
12773TIP3    H159810   3.662   3.404   0.339  2.1974 -0.8056 -0.5817
12773TIP3    H259811   3.547   3.306   0.346 -0.0510  1.7715  0.2166
12774TIP3   OH259812   3.895   4.762   4.202 -0.0669 -0.0476  0.3828
12774TIP3    H159813   3.855   4.721   4.125  1.5274  1.0681 -1.1300
12774TIP3    H259814   3.987   4.735   4.198  0.4698  1.5997  0.7565
12775TIP3   OH259815   4.660   2.162  13.996 -0.0970 -0.0845 -0.0525
12775TIP3    H159816   4.672   2.216  14.074 -0.5219  0.2891 -0.2448
12775TIP3    H259817   4.662   2.072  14.029 -1.6179  0.0972  0.5868
12776TIP3   OH259818   6.378   0.193  17.099 -0.0015 -0.6478 -0.0497
12776TIP3    H159819   6.411   0.264  17.045  0.6074 -0.4751  0.5515
12776TIP3    H259820   6.415   0.114  17.060 -0.5982 -0.6448 -0.6549
12777TIP3   OH259821   0.193   0.614   1.699 -0.5189  0.3231  0.1583
12777TIP3    H159822   0.103   0.598   1.726 -0.0100 -0.2784  1.6456
12777TIP3    H259823   0.208   0.555   1.626 -0.7756 -0.9654  1.1159
12778TIP3   OH259824   5.004   1.871  16.494  0.5330  0.2699  0.2000
12778TIP3    H159825   4.946   1.895  16.422  0.9869 -0.0739 -0.2923
12778TIP3    H259826   4.952   1.813  16.549  0.2257  0.4288  0.0773
12779TIP3   OH259827   0.864   2.953   3.001 -0.1045  0.1390 -0.0593
12779TIP3    H159828   0.926   2.922   2.935  0.5703 -0.4281  0.8179
12779TIP3    H259829   0.915   3.012   3.056 -0.5610  0.3193  0.1732
12780TIP3   OH259830   4.517   2.117   4.543 -0.4981 -0.0579  0.3003
12780TIP3    H159831   4.454   2.177   4.501 -0.9132  0.0395  1.0477
12780TIP3    H259832   4.588   2.174   4.572 -0.5995 -0.0114  0.4582
12781TIP3   OH259833   6.569   6.051  12.181  0.0047  0.1390  0.3016
12781TIP3    H159834   6.623   5.973  12.192  0.6014  0.4722 -0.2227
12781TIP3    H259835   6.563   6.063  12.086  0.8761  1.3893  0.3918
12782TIP3   OH259836   5.657   4.213  14.588  0.2657  0.1629 -0.4347
12782TIP3    H159837   5.609   4.197  14.506  0.8335 -0.2324 -0.7029
12782TIP3    H259838   5.635   4.138  14.643  1.4687 -0.6484 -0.9985
12783TIP3   OH259839   1.182   5.879  17.047 -0.5821 -0.1146 -0.2107
12783TIP3    H159840   1.271   5.846  17.031 -1.2070 -2.6951  1.1136
12783TIP3    H259841   1.137   5.865  16.964 -0.0372  0.3234 -0.5945
12784TIP3   OH259842   3.641   3.975   1.274 -0.0683 -0.0036 -0.3298
12784TIP3    H159843   3.702   3.955   1.346 -1.1217  0.9906  0.8988
12784TIP3    H259844   3.697   4.011   1.205  1.0512 -1.4945 -0.2499
12785TIP3   OH259845   0.352   6.382  15.576  0.5563 -0.1342  0.2789
12785TIP3    H159846   0.268   6.341  15.556  0.6027 -0.3653  0.5563
12785TIP3    H259847   0.350   6.399  15.670  1.1781 -0.9860  0.4645
12786TIP3   OH259848   5.618   3.019   3.943  0.0774 -0.2182  0.1112
12786TIP3    H159849   5.639   3.111   3.953 -1.0792  0.0690  0.0582
12786TIP3    H259850   5.560   2.999   4.017 -0.9216 -0.4896 -0.7213
12787TIP3   OH259851   2.137   2.572  12.244 -0.0528  0.0326 -0.6342
12787TIP3    H159852   2.126   2.611  12.158 -0.3069 -0.1348 -0.6802
12787TIP3    H259853   2.212   2.513  12.234  0.3880  0.5736 -0.5391
12788TIP3   OH259854   5.574   6.405   4.910  0.1903 -0.3477 -0.1779
12788TIP3    H159855   5.603   6.495   4.900 -1.1084  0.2949  1.3412
12788TIP3    H259856   5.652   6.358   4.941  0.9442  0.1825 -1.2302
12789TIP3   OH259857   1.275   4.904   5.032  0.4548  0.5264 -0.7379
12789TIP3    H159858   1.203   4.937   5.086  0.1917 -0.0216 -0.7408
12789TIP3    H259859   1.352   4.950   5.064  0.3721 -0.1011  0.4048
12790TIP3   OH259860   5.054   4.740  10.243  0.4570 -0.5067 -0.6074
12790TIP3    H159861   5.049   4.684  10.320  0.3001 -0.8523 -0.8697
12790TIP3    H259862   5.101   4.818  10.273  0.9283 -0.8997 -0.3172
12791TIP3   OH259863   0.608   0.501   3.035  0.2091 -0.3650 -0.3449
12791TIP3    H159864   0.581   0.506   3.127  0.7030 -0.9430 -0.1629
12791TIP3    H259865   0.672   0.430   3.033 -0.2004 -0.7156 -1.2361
12792TIP3   OH259866   4.138   4.049  11.416 -0.0960  0.2113  0.3476
12792TIP3    H159867   4.204   4.047  11.486 -0.1034 -0.7436  0.3524
12792TIP3    H259868   4.181   4.096  11.344  0.4104  0.0587  0.5398
12793TIP3   OH259869   5.382   0.573   3.988 -0.1677 -0.9306 -0.3433
12793TIP3    H159870   5.300   0.554   4.033  1.5887 -1.1299  3.0447
12793TIP3    H259871   5.436   0.495   4.001  1.2968 -0.0185 -0.6537
12794TIP3   OH259872   1.407   6.389   2.049  0.3843 -0.3224 -0.2159
12794TIP3    H159873   1.414   6.472   2.095 -0.1192  0.3705 -1.3318
12794TIP3    H259874   1.454   6.326   2.104  1.9183  0.9621  0.0125
12795TIP3   OH259875   4.690   3.424  11.583  0.2009 -0.1232 -0.1925
12795TIP3    H159876   4.680   3.387  11.496  1.7884  0.3896 -0.6364
12795TIP3    H259877   4.605   3.461  11.604  0.2445  1.3216 -2.2886
12796TIP3   OH259878   4.011   3.786  14.927 -0.4528  0.7666  0.1700
12796TIP3    H159879   4.064   3.753  14.999 -0.6866 -2.0803 -0.8440
12796TIP3    H259880   3.921   3.779  14.958 -0.6454 -1.7006 -0.7521
12797TIP3   OH259881   0.816   5.378   2.517 -0.0015 -0.1498  0.3595
12797TIP3    H159882   0.803   5.468   2.547 -1.5874  0.1965 -1.1805
12797TIP3    H259883   0.783   5.378   2.427  0.8184 -2.0634  0.0213
12798TIP3   OH259884   4.508   0.460   1.041  0.4782 -0.0376  0.2821
12798TIP3    H159885   4.528   0.552   1.022 -0.6730  0.5148  1.5426
12798TIP3    H259886   4.414   0.452   1.024  0.1161 -0.3914  2.2171
12799TIP3   OH259887   1.182   2.349  11.265  0.6449  0.0488  0.5935
12799TIP3    H159888   1.277   2.362  11.255  0.8330 -0.3229  1.7286
12799TIP3    H259889   1.155   2.416  11.328 -0.0383  0.7622 -0.4259
12800TIP3   OH259890   4.195   5.130  16.548  0.4962 -0.0911 -0.2010
12800TIP3    H159891   4.247   5.051  16.555  0.1977 -0.3885 -1.1890
12800TIP3    H259892   4.110   5.101  16.515  0.1691  0.5606  0.0335
12801TIP3   OH259893   5.695   4.844  11.178  0.5411 -0.1506 -0.7211
12801TIP3    H159894   5.618   4.814  11.130  1.1687 -3.2040 -0.0381
12801TIP3    H259895   5.659   4.879  11.260 -0.1523 -1.5155 -0.4201
12802TIP3   OH259896   5.201   1.586  13.355 -0.2896 -0.2508  0.1575
12802TIP3    H159897   5.286   1.556  13.323 -0.9257 -1.1725 -0.7190
12802TIP3    H259898   5.189   1.672  13.315  0.3380  0.0058  0.5041
12803TIP3   OH259899   2.680   0.743   3.211 -0.4353 -0.1825 -0.1316
12803TIP3    H159900   2.735   0.673   3.245  0.6628 -0.3718 -2.1852
12803TIP3    H259901   2.684   0.811   3.279  0.0650 -1.2958  0.9933
12804TIP3   OH259902   2.475   5.753   5.269 -0.3172 -0.3304 -0.1524
12804TIP3    H159903   2.425   5.829   5.242 -1.5487 -0.9451  0.3231
12804TIP3    H259904   2.414   5.702   5.323  1.3451 -0.1973  2.0068
12805TIP3   OH259905   1.914   3.006  16.643  0.2046  0.1192  0.1378
12805TIP3    H159906   1.848   3.064  16.604 -0.1746  0.0254  0.6284
12805TIP3    H259907   1.959   2.967  16.568  0.8159  1.4353 -0.2027
12806TIP3   OH259908   1.713   3.620   6.017  0.7538 -0.8586  0.2040
12806TIP3    H159909   1.673   3.707   6.022  1.8897 -0.3532  0.8453
12806TIP3    H259910   1.781   3.621   6.084  1.7457 -1.7388 -0.7533
12807TIP3   OH259911   2.528   3.682   3.946 -0.9816  0.2175 -0.4075
12807TIP3    H159912   2.476   3.632   3.883  1.1937 -1.4538 -0.9842
12807TIP3    H259913   2.490   3.660   4.031 -0.6629 -1.7119 -0.7259
12808TIP3   OH259914   1.791   1.551   2.497  0.3911  0.6162  0.1254
12808TIP3    H159915   1.788   1.621   2.432  2.5049 -0.0907 -0.8461
12808TIP3    H259916   1.883   1.525   2.500 -0.1211 -1.3076  1.3284
12809TIP3   OH259917   1.325   0.639   2.497  0.1838  0.0191 -0.1431
12809TIP3    H159918   1.415   0.661   2.524 -0.5067  0.4886  1.9701
12809TIP3    H259919   1.279   0.723   2.499 -0.0639 -0.0199 -2.3993
12810TIP3   OH259920   6.504   6.322  14.261  0.4671  0.1268  0.1959
12810TIP3    H159921   6.422   6.369  14.269 -0.3275 -1.3352  0.9499
12810TIP3    H259922   6.555   6.347  14.338 -0.4557 -1.1577  1.2570
12811TIP3   OH259923   2.923   1.261   2.752  0.1363 -0.1858  0.4698
12811TIP3    H159924   2.909   1.203   2.827 -1.5106 -0.4858 -0.0452
12811TIP3    H259925   2.936   1.348   2.792 -1.1675 -0.2610  1.1022
12812TIP3   OH259926   1.758   6.283  14.481 -0.5328  0.1502  0.4020
12812TIP3    H159927   1.685   6.311  14.535  1.4711  1.5313  2.6106
12812TIP3    H259928   1.784   6.362  14.433  0.7583  0.2960  1.2701
12813TIP3   OH259929   2.049   5.047   1.750  0.3621 -0.3750  0.3411
12813TIP3    H159930   1.957   5.073   1.754  0.5783  0.2709  2.4127
12813TIP3    H259931   2.076   5.041   1.842  2.6855  0.5627 -0.2132
12814TIP3   OH259932   3.849   3.452   1.060 -0.0824 -0.1795 -0.5410
12814TIP3    H159933   3.850   3.546   1.081 -0.0032  0.0978 -1.7499
12814TIP3    H259934   3.770   3.419   1.103 -0.8433  0.7061 -1.2134
12815TIP3   OH259935   1.248   1.759  16.988 -0.6633 -0.1401 -0.1093
12815TIP3    H159936   1.201   1.785  17.067  1.1135 -0.0880  0.9876
12815TIP3    H259937   1.246   1.836  16.932  2.0832  1.5681  1.9017
12816TIP3   OH259938   5.122   3.966  15.905  0.0256  0.2289 -0.5889
12816TIP3    H159939   5.156   3.900  15.844  0.5727 -0.8557  0.8239
12816TIP3    H259940   5.181   4.040  15.895  1.5626 -0.8141  0.2394
12817TIP3   OH259941   5.588   3.013  16.605  0.5241  0.1014  0.3520
12817TIP3    H159942   5.529   2.937  16.606  0.7040 -0.0447 -0.0208
12817TIP3    H259943   5.574   3.052  16.519  1.3098 -0.2012  0.0804
12818TIP3   OH259944   2.934   5.503   2.290 -0.4415  0.5321  0.0517
12818TIP3    H159945   2.989   5.582   2.291  1.5835 -0.7514 -1.5209
12818TIP3    H259946   2.966   5.453   2.215 -0.2618 -2.7063  2.0791
12819TIP3   OH259947   5.338   4.008   4.396 -0.4821 -0.5077 -0.3986
12819TIP3    H159948   5.254   3.966   4.376 -1.2991  0.5673  0.6156
12819TIP3    H259949   5.348   3.997   4.490  0.0094  0.2601 -0.3549
12820TIP3   OH259950   0.937   2.651   1.628 -0.4867 -0.1864 -0.3995
12820TIP3    H159951   0.920   2.566   1.668  0.6275 -0.0919  0.3322
12820TIP3    H259952   0.989   2.632   1.551  0.9319 -0.0999  0.5083
12821TIP3   OH259953   2.695   1.008  11.809  0.5344 -0.6864 -1.1171
12821TIP3    H159954   2.755   1.056  11.752  0.7679 -0.4141 -0.6462
12821TIP3    H259955   2.728   0.918  11.809  1.7650 -0.2716  0.2069
12822TIP3   OH259956   6.431   2.362   3.196 -0.5139 -0.4524 -0.2216
12822TIP3    H159957   6.469   2.446   3.224 -0.0076 -1.0432  0.9346
12822TIP3    H259958   6.402   2.378   3.106  0.8956  0.5445 -0.5356
12823TIP3   OH259959   5.645   4.227   4.211 -0.5244  0.0308 -0.3375
12823TIP3    H159960   5.719   4.263   4.260 -3.1157  4.4455  0.8328
12823TIP3    H259961   5.640   4.135   4.240  1.7675  0.7882  3.0352
12824TIP3   OH259962   0.808   4.762  16.925  0.0999  0.4036 -0.1505
12824TIP3    H159963   0.749   4.770  16.850  0.6833  0.4248 -0.6165
12824TIP3    H259964   0.771   4.820  16.991 -2.2479 -1.9677  0.8013
12825TIP3   OH259965   2.351   0.654   4.344  0.4924 -0.2862  0.2763
12825TIP3    H159966   2.303   0.706   4.280 -0.7415  0.4631  1.7467
12825TIP3    H259967   2.325   0.563   4.326  0.6491 -0.1559 -0.6563
12826TIP3   OH259968   6.688   2.466   4.324  0.0292  0.0485 -0.3547
12826TIP3    H159969   6.622   2.535   4.327  0.1668  0.1935 -0.6483
12826TIP3    H259970   6.701   2.442   4.416 -0.7485 -0.2870 -0.3207
12827TIP3   OH259971   3.047   6.229  13.295  0.6175  0.0863  0.5994
12827TIP3    H159972   3.132   6.243  13.335  1.3631 -0.5442 -0.6980
12827TIP3    H259973   3.062   6.159  13.231 -0.5581  0.8672 -0.5857
12828TIP3   OH259974   6.018   2.591   4.533 -0.3279  0.0219  0.7714
12828TIP3    H159975   6.026   2.553   4.446  3.1467  1.3855  0.3337
12828TIP3    H259976   5.926   2.616   4.540 -0.6952  0.0268 -2.5708
12829TIP3   OH259977   1.887   4.202   5.877 -0.0238  0.1334  0.3163
12829TIP3    H159978   1.847   4.164   5.955 -1.4826  1.7271  0.3972
12829TIP3    H259979   1.980   4.184   5.886 -0.3038 -0.6489  1.8748
12830TIP3   OH259980   5.526   3.443   2.776 -0.1389 -0.0855 -0.4232
12830TIP3    H159981   5.605   3.483   2.740 -0.3957  1.2332  0.4002
12830TIP3    H259982   5.557   3.372   2.831  0.5033  0.5045 -0.0047
12831TIP3   OH259983   1.641   3.090   0.998  0.0099 -0.1582  0.0055
12831TIP3    H159984   1.599   3.004   1.004  0.1583 -0.1490  2.0933
12831TIP3    H259985   1.575   3.151   1.032  0.7977  0.1875  0.9602
12832TIP3   OH259986   4.365   1.285   4.746  0.7944 -0.1990 -0.3810
12832TIP3    H159987   4.282   1.259   4.707  0.3035  0.7453  0.0189
12832TIP3    H259988   4.341   1.337   4.822  1.7518  0.3688 -0.4500
12833TIP3   OH259989   3.399   0.737   1.645  1.2350 -0.5049  0.3874
12833TIP3    H159990   3.345   0.713   1.570  0.4840 -0.7113  0.9829
12833TIP3    H259991   3.471   0.673   1.646  0.8565 -0.9329  0.2579
12834TIP3   OH259992   3.239   3.132  16.895 -0.0469  0.1007 -0.2328
12834TIP3    H159993   3.209   3.059  16.949 -1.3764  0.2095 -0.7935
12834TIP3    H259994   3.289   3.090  16.824  0.0920 -0.1762  0.0228
12835TIP3   OH259995   5.699   1.028   1.082 -0.0690  0.2341  0.1434
12835TIP3    H159996   5.736   1.112   1.110  0.3089  0.7647 -1.7705
12835TIP3    H259997   5.772   0.967   1.086 -0.2121  0.1172  1.0312
12836TIP3   OH259998   4.417   1.639  16.645  0.1366  0.1870  0.1741
12836TIP3    H159999   4.397   1.643  16.739  2.8562  3.0530  0.8013
12836TIP3    H260000   4.334   1.662  16.602 -0.9558 -0.3531  1.8760
12837TIP3   OH260001   0.754   3.619   3.241 -0.1950 -0.0048  0.2770
12837TIP3    H160002   0.797   3.650   3.161 -0.3958  1.8866  0.8537
12837TIP3    H260003   0.806   3.655   3.312 -1.6908  0.8513  0.9944
12838TIP3   OH260004   3.918   6.581  16.191  0.0945 -0.5295 -0.4933
12838TIP3    H160005   3.877   6.665  16.211 -0.4762 -1.0321  0.5556
12838TIP3    H260006   4.008   6.603  16.167 -0.8150  0.6412 -3.1704
12839TIP3   OH260007   3.802   3.064  14.741  0.3858  0.3592 -0.1574
12839TIP3    H160008   3.733   3.100  14.685 -1.2567 -0.6527  1.1253
12839TIP3    H260009   3.765   3.067  14.830  1.9595 -0.3197  0.5633
12840TIP3   OH260010   5.939   0.579  11.589  0.7117  0.0788 -0.1895
12840TIP3    H160011   5.863   0.577  11.646  0.9686 -0.1735  0.1483
12840TIP3    H260012   5.947   0.670  11.562  0.1545  0.0653 -0.4131
12841TIP3   OH260013   0.434   6.812  12.035  0.2486 -0.0905 -0.2764
12841TIP3    H160014   0.382   6.867  12.095  0.7081  1.6154 -1.3659
12841TIP3    H260015   0.431   6.859  11.952 -0.1731 -2.2828 -1.5590
12842TIP3   OH260016   5.890   5.882  17.093 -0.6632 -0.0991 -0.3831
12842TIP3    H160017   5.907   5.863  17.001  1.3584 -1.6608  0.2336
12842TIP3    H260018   5.895   5.797  17.137  0.4165  0.8288  1.4378
12843TIP3   OH260019   5.568   3.795  12.980 -0.2776 -0.0388  0.0420
12843TIP3    H160020   5.477   3.817  12.958 -0.8837 -1.2974  1.1898
12843TIP3    H260021   5.583   3.710  12.939  0.8098  0.6847 -1.1535
12844TIP3   OH260022   5.612   1.093   4.511  0.4192  0.4333  0.2690
12844TIP3    H160023   5.521   1.068   4.527  0.5629  0.0441  0.4928
12844TIP3    H260024   5.625   1.172   4.563  0.8731 -0.8038  2.0930
12845TIP3   OH260025   0.233   5.685   5.412  0.1647 -0.0440  0.0882
12845TIP3    H160026   0.139   5.700   5.425  0.5918  2.8627  0.6466
12845TIP3    H260027   0.272   5.701   5.499  1.1659 -1.5113 -0.0654
12846TIP3   OH260028   5.170   4.934  17.144 -0.2750  0.2507 -0.5978
12846TIP3    H160029   5.206   4.983  17.218 -0.5982 -1.3013  0.6347
12846TIP3    H260030   5.228   4.956  17.071  0.1353  1.7122  0.1277
12847TIP3   OH260031   4.374   3.073  13.254 -0.1149  0.1630 -0.2388
12847TIP3    H160032   4.326   3.138  13.203  0.5415  0.8663  0.0234
12847TIP3    H260033   4.437   3.036  13.193  0.3978  0.7178 -0.0578
12848TIP3   OH260034   5.418   3.674  10.923 -0.3067 -0.8215  0.2271
12848TIP3    H160035   5.441   3.585  10.896  2.0754 -0.5925  1.2417
12848TIP3    H260036   5.435   3.728  10.846  2.3069 -0.7519  0.7465
12849TIP3   OH260037   2.115   0.398   1.874 -0.0419 -0.2847 -0.0138
12849TIP3    H160038   2.072   0.474   1.915  0.4045  2.0935 -3.4561
12849TIP3    H260039   2.208   0.413   1.888 -0.0178 -1.2890  0.9484
12850TIP3   OH260040   2.249   0.938   4.768 -0.0264 -0.0252 -0.0516
12850TIP3    H160041   2.176   0.900   4.816  0.6095 -2.1107 -0.6195
12850TIP3    H260042   2.242   0.900   4.680  2.1248 -0.8906  0.0841
12851TIP3   OH260043   0.301   1.553  16.053  0.8683  0.3730 -0.5769
12851TIP3    H160044   0.378   1.589  16.009 -0.1643  2.2800 -0.9164
12851TIP3    H260045   0.318   1.568  16.146  1.5282 -0.5556 -0.5285
12852TIP3   OH260046   5.659   5.176  12.661 -0.4633  0.5141 -0.3284
12852TIP3    H160047   5.569   5.143  12.654 -0.6874  0.7153  1.2044
12852TIP3    H260048   5.651   5.271  12.651 -0.8183  0.8314  2.2747
12853TIP3   OH260049   3.259   3.208  11.042 -0.1905 -0.9369 -0.3797
12853TIP3    H160050   3.237   3.202  10.949 -0.4726  0.4369 -0.4269
12853TIP3    H260051   3.314   3.132  11.058  1.2946 -0.3066 -2.0913
12854TIP3   OH260052   4.238   3.566   4.863 -0.4201  0.2145 -0.2458
12854TIP3    H160053   4.158   3.521   4.837 -1.3092 -0.1678  2.7849
12854TIP3    H260054   4.285   3.502   4.917  0.3533  1.5276  0.6923
12855TIP3   OH260055   3.611   3.317  12.652  0.3561 -0.5158  0.3550
12855TIP3    H160056   3.516   3.310  12.656  0.3355 -0.0474  0.8162
12855TIP3    H260057   3.627   3.402  12.611  0.5905 -1.5908 -1.9605
12856TIP3   OH260058   6.605   0.454   6.176 -0.2993  0.5599  0.2934
12856TIP3    H160059   6.689   0.436   6.218 -0.1008 -2.1411 -1.0452
12856TIP3    H260060   6.542   0.455   6.248  0.3495 -1.6200  0.9686
12857TIP3   OH260061   3.183   2.028  16.271  0.1381  0.1202  0.1532
12857TIP3    H160062   3.104   2.004  16.319  1.2692 -2.9221  0.7425
12857TIP3    H260063   3.153   2.086  16.201 -2.5609 -0.7281  0.5122
12858TIP3   OH260064   4.409   0.726   6.214 -0.3302 -0.3414 -0.3131
12858TIP3    H160065   4.503   0.733   6.231 -0.0466 -1.8556 -1.0653
12858TIP3    H260066   4.394   0.632   6.199 -1.3534  0.1818 -3.3725
12859TIP3   OH260067   3.214   3.167   2.528 -0.2603 -0.2991  0.3269
12859TIP3    H160068   3.143   3.193   2.470  1.9654  2.9551 -1.1814
12859TIP3    H260069   3.204   3.224   2.604  0.3843 -0.2794  0.3952
12860TIP3   OH260070   3.579   2.541  16.116 -0.6792 -0.1038 -0.2151
12860TIP3    H160071   3.606   2.451  16.134  2.3004  0.5010 -1.0289
12860TIP3    H260072   3.662   2.589  16.105 -2.1448  2.2226 -2.2485
12861TIP3   OH260073   0.476   3.843  16.320  0.0631  0.2734  0.0544
12861TIP3    H160074   0.562   3.867  16.286 -0.2724  0.7175 -0.5150
12861TIP3    H260075   0.485   3.752  16.347  0.3005 -0.1825 -1.4502
12862TIP3   OH260076   5.678   1.542  12.963 -0.0841 -0.3373 -0.2889
12862TIP3    H160077   5.693   1.621  12.911 -0.8205 -0.3872 -0.5913
12862TIP3    H260078   5.748   1.482  12.937  1.7282  0.8959  1.3955
12863TIP3   OH260079   6.094   6.652   6.117  0.6125 -0.3277  0.0653
12863TIP3    H160080   6.153   6.678   6.187 -0.6239  0.4410  0.8419
12863TIP3    H260081   6.072   6.560   6.136  1.6688 -0.6821 -0.3374
12864TIP3   OH260082   0.348   6.035   3.686  0.2877 -0.6701 -0.8671
12864TIP3    H160083   0.260   5.998   3.693 -0.0849  0.4891  3.0171
12864TIP3    H260084   0.335   6.122   3.649 -0.4625  0.0058  0.8818
12865TIP3   OH260085   2.914   3.149   5.805  0.4974 -0.2877 -0.0558
12865TIP3    H160086   2.910   3.216   5.737  0.9211  2.1106  2.1688
12865TIP3    H260087   3.004   3.152   5.837 -0.1017 -0.1586  1.7215
12866TIP3   OH260088   0.155   2.303   6.222 -0.4069  0.8059 -0.0364
12866TIP3    H160089   0.060   2.307   6.233 -0.3956 -0.0014  0.4490
12866TIP3    H260090   0.178   2.213   6.246  0.5735  1.2156  0.6070
12867TIP3   OH260091   3.492   3.751   6.084 -0.6006  0.0143  0.0454
12867TIP3    H160092   3.431   3.812   6.126  0.2337  0.5854  0.4697
12867TIP3    H260093   3.482   3.768   5.990 -2.1046 -0.9101  0.0106
12868TIP3   OH260094   5.612   2.218   2.435  0.1468 -0.1849 -0.1196
12868TIP3    H160095   5.537   2.186   2.485  0.7975  1.3450  1.9734
12868TIP3    H260096   5.619   2.157   2.361 -2.0758 -1.3806  0.5577
12869TIP3   OH260097   4.115   0.220  17.109  0.2173  0.1485  0.4006
12869TIP3    H160098   4.115   0.278  17.185 -0.3569  0.0839  0.4542
12869TIP3    H260099   4.028   0.230  17.071  0.6357  0.5066 -0.5039
12870TIP3   OH260100   3.129   3.674   1.867 -0.5311  0.4976 -0.2457
12870TIP3    H160101   3.143   3.730   1.791 -0.1289  2.6637  1.3162
12870TIP3    H260102   3.079   3.728   1.928 -0.3510 -0.9370  1.2640
12871TIP3   OH260103   6.702   5.585  13.428  0.3134 -0.1347  0.4831
12871TIP3    H160104   6.682   5.679  13.431  0.7668 -0.0310  3.3217
12871TIP3    H260105   6.663   5.550  13.509  1.8066 -2.0085  0.4499
12872TIP3   OH260106   3.900   4.506  14.846 -0.2505 -0.6430  0.3447
12872TIP3    H160107   3.872   4.536  14.759 -0.5594 -0.3518  0.5425
12872TIP3    H260108   3.993   4.529  14.850 -0.3880 -0.0689  0.3395
12873TIP3   OH260109   0.208   5.318  16.781  0.1634  0.5781 -0.8292
12873TIP3    H160110   0.217   5.260  16.705 -0.9615  2.0344 -2.1363
12873TIP3    H260111   0.153   5.389  16.750 -0.5021  1.1206  1.4534
12874TIP3   OH260112   6.049   5.832   5.054 -0.0312  0.0803 -0.5660
12874TIP3    H160113   6.124   5.855   4.999  2.0118 -2.0688  1.1174
12874TIP3    H260114   6.038   5.738   5.041 -1.0559 -0.0300  0.8734
12875TIP3   OH260115   2.404   4.720   5.418  0.1143  0.6223  0.2295
12875TIP3    H160116   2.467   4.785   5.450  0.8239  0.3751 -0.6343
12875TIP3    H260117   2.328   4.732   5.474 -0.2701  3.0696 -0.6976
12876TIP3   OH260118   1.049   4.726  14.035 -0.7572  0.2469 -0.1895
12876TIP3    H160119   1.125   4.776  14.066 -1.5866  0.3832  1.7547
12876TIP3    H260120   1.048   4.648  14.090 -0.7999 -0.8463 -1.6712
12877TIP3   OH260121   0.782   3.041   5.121 -0.4560 -0.5872  0.3370
12877TIP3    H160122   0.687   3.035   5.122 -0.4479 -0.6999  0.8376
12877TIP3    H260123   0.810   2.986   5.194  0.0204 -0.9740 -0.1284
12878TIP3   OH260124   5.319   4.873   0.786 -0.3572 -0.5539  0.2660
12878TIP3    H160125   5.268   4.807   0.738  0.9022 -0.2261 -1.6731
12878TIP3    H260126   5.372   4.822   0.848 -2.7094 -0.9133  2.1139
12879TIP3   OH260127   2.823   4.395  16.521  0.2912 -0.0053  0.1871
12879TIP3    H160128   2.740   4.363  16.486  0.2728 -1.7544  1.6565
12879TIP3    H260129   2.871   4.316  16.544  1.7737  1.0083  0.7073
12880TIP3   OH260130   4.730   0.356   2.358  0.0506  0.6025  0.4630
12880TIP3    H160131   4.805   0.403   2.394  0.6271 -0.8556  1.2010
12880TIP3    H260132   4.759   0.329   2.270  0.8422 -0.9003  1.1463
12881TIP3   OH260133   2.145   5.715   5.043  0.1474  0.3777  0.6756
12881TIP3    H160134   2.093   5.679   4.971  1.1970  0.5556 -0.1986
12881TIP3    H260135   2.163   5.805   5.016  0.9442  0.2976  0.9443
12882TIP3   OH260136   1.445   5.502   1.092  0.0807 -0.4590 -0.3159
12882TIP3    H160137   1.403   5.465   1.015  1.2024 -1.5426 -0.4314
12882TIP3    H260138   1.511   5.561   1.057  0.3076 -0.6300 -0.1745
12883TIP3   OH260139   0.111   2.728   0.416 -0.4655  0.1940 -0.2352
12883TIP3    H160140   0.153   2.782   0.349 -0.4425  0.8033  0.2576
12883TIP3    H260141   0.123   2.777   0.497 -1.7387  0.1623 -0.0068
12884TIP3   OH260142   6.018   3.765  14.360  0.3165 -0.1545 -0.1539
12884TIP3    H160143   5.972   3.803  14.285  0.3326  1.6668  0.7096
12884TIP3    H260144   6.111   3.783  14.342  0.4131 -0.7224 -0.2325
12885TIP3   OH260145   1.702   6.032  15.650  0.8218  0.4034 -0.5089
12885TIP3    H160146   1.708   6.127  15.641 -1.3547  0.6241 -0.2661
12885TIP3    H260147   1.755   6.011  15.726 -0.4523  1.7599  0.8301
12886TIP3   OH260148   4.548   2.986   1.973  0.1391  0.3417 -0.0406
12886TIP3    H160149   4.506   3.072   1.971 -0.0698  0.3286  1.9627
12886TIP3    H260150   4.535   2.951   1.885 -3.9798  0.4011  0.3453
12887TIP3   OH260151   6.650   2.130   2.812  0.0468 -0.1709  0.4951
12887TIP3    H160152   6.738   2.109   2.843  0.7683  0.6972 -0.8695
12887TIP3    H260153   6.636   2.220   2.839 -0.7032 -0.5058  1.2635
12888TIP3   OH260154   3.029   0.550  11.242 -0.1791 -0.0004 -0.0607
12888TIP3    H160155   3.095   0.491  11.279  0.4175  1.4682  1.3299
12888TIP3    H260156   3.012   0.613  11.312 -1.2837  1.0912 -1.2693
12889TIP3   OH260157   2.608   6.500  13.507 -0.0589 -0.4493 -0.6531
12889TIP3    H160158   2.693   6.536  13.481 -0.2663  0.2145 -0.4100
12889TIP3    H260159   2.623   6.405  13.511  0.6954 -0.3310 -0.5316
12890TIP3   OH260160   0.968   6.629   0.312  0.2708 -0.1430  0.3184
12890TIP3    H160161   0.978   6.580   0.230  0.1519 -0.4003  0.4540
12890TIP3    H260162   0.945   6.562   0.377 -1.7624  0.2963  0.1391
12891TIP3   OH260163   4.437   6.500  10.672 -0.3815 -0.5162 -0.8310
12891TIP3    H160164   4.368   6.552  10.713 -0.0233  0.9444 -2.0260
12891TIP3    H260165   4.416   6.410  10.696 -1.7407  0.0517  0.2272
12892TIP3   OH260166   1.964   1.809   2.127 -0.3534  0.1525  0.2475
12892TIP3    H160167   1.933   1.740   2.068  1.6868 -0.5116 -0.1606
12892TIP3    H260168   1.903   1.807   2.201 -1.5685 -0.6354 -0.7314
12893TIP3   OH260169   1.974   4.111  14.560 -0.2559  0.5262 -0.2927
12893TIP3    H160170   2.038   4.058  14.513 -1.5745  0.5379 -2.2368
12893TIP3    H260171   2.026   4.173  14.610  1.2561 -0.3389 -0.7351
12894TIP3   OH260172   3.777   2.321   4.120  0.0627 -0.0711  0.0460
12894TIP3    H160173   3.709   2.374   4.077 -1.2122 -2.1518 -0.6435
12894TIP3    H260174   3.729   2.272   4.187  0.7540 -1.9136 -0.7445
12895TIP3   OH260175   4.014   0.774   0.759 -0.1070 -0.5709 -0.4817
12895TIP3    H160176   3.998   0.833   0.685 -2.6795  0.6964  0.9509
12895TIP3    H260177   3.930   0.731   0.774  0.9177 -2.3471  0.4581
12896TIP3   OH260178   1.510   3.758  12.477 -0.4030 -0.1533  0.0523
12896TIP3    H160179   1.511   3.665  12.453  3.0846 -0.7016  1.7007
12896TIP3    H260180   1.579   3.797  12.423 -1.5018  1.4393 -0.2616
12897TIP3   OH260181   1.546   2.303   0.439 -0.1702 -0.0653 -0.2041
12897TIP3    H160182   1.498   2.290   0.357 -0.9144  0.0458  0.2051
12897TIP3    H260183   1.488   2.270   0.507 -0.1565  1.1081  0.4143
12898TIP3   OH260184   5.943   3.595   3.888 -0.5641 -0.3096 -0.3705
12898TIP3    H160185   5.904   3.610   3.802  0.4835  1.2271 -0.6159
12898TIP3    H260186   6.011   3.528   3.873 -0.2111  0.1398 -0.8005
12899TIP3   OH260187   6.273   1.194  14.683  0.5023  0.3655  0.2796
12899TIP3    H160188   6.223   1.116  14.659 -1.2900  1.0000  1.6975
12899TIP3    H260189   6.356   1.160  14.716 -0.1246 -0.9386  0.5990
12900TIP3   OH260190   3.283   1.379  16.423  0.0046 -0.0206 -0.3600
12900TIP3    H160191   3.336   1.456  16.400  1.2427 -1.0013 -0.9129
12900TIP3    H260192   3.201   1.391  16.376  0.5009  0.5797 -1.0994
12901TIP3   OH260193   1.186   5.985  12.234 -0.3324  0.3621 -0.3835
12901TIP3    H160194   1.242   6.042  12.287  0.9979 -1.7054  0.6034
12901TIP3    H260195   1.125   5.947  12.297 -0.2178 -0.3915 -0.7105
12902TIP3   OH260196   6.829   2.572   2.766 -0.1796  0.4094  0.1546
12902TIP3    H160197   6.898   2.600   2.825 -0.3485 -0.0097  0.5504
12902TIP3    H260198   6.790   2.654   2.735 -1.3242  0.6463  2.0658
12903TIP3   OH260199   6.625   4.799  15.439  0.2205  0.1888 -0.3239
12903TIP3    H160200   6.565   4.829  15.370 -2.8327 -1.1626  1.5240
12903TIP3    H260201   6.623   4.704  15.433 -2.2459 -0.1488  3.0509
12904TIP3   OH260202   1.433   1.187  14.698 -0.5266 -0.6463  0.2417
12904TIP3    H160203   1.377   1.109  14.694  1.0153 -1.8508  0.8369
12904TIP3    H260204   1.383   1.255  14.654 -2.8764 -1.3625  1.6096
12905TIP3   OH260205   4.521   2.411  12.149  0.1905 -0.3850 -0.1736
12905TIP3    H160206   4.478   2.425  12.064 -0.6124 -0.4313  0.2151
12905TIP3    H260207   4.563   2.326  12.140  0.3562 -0.2606 -0.6250
12906TIP3   OH260208   6.314   6.308  13.995  0.0077 -0.8467 -0.0170
12906TIP3    H160209   6.266   6.251  14.055 -2.1657 -1.5073 -2.2525
12906TIP3    H260210   6.368   6.248  13.943 -0.2156 -0.5793 -0.5601
12907TIP3   OH260211   5.145   4.917   1.175 -0.4573  0.6326 -0.5262
12907TIP3    H160212   5.071   4.945   1.121 -1.1089 -2.9255 -1.7140
12907TIP3    H260213   5.104   4.875   1.251  0.2268 -2.0704 -1.5659
12908TIP3   OH260214   3.980   5.584  15.748 -0.6538 -0.2725  0.3201
12908TIP3    H160215   3.957   5.575  15.840  1.1158 -1.4558  0.6957
12908TIP3    H260216   4.059   5.532  15.738  0.4001  1.5127 -1.4013
12909TIP3   OH260217   0.540   1.688   1.976 -0.0156  0.4913 -0.4969
12909TIP3    H160218   0.497   1.618   2.026  0.3875  1.8568  1.9349
12909TIP3    H260219   0.474   1.718   1.915 -0.9466 -0.5066 -0.0224
12910TIP3   OH260220   1.232   6.545  15.972  0.0161 -0.3609  0.5639
12910TIP3    H160221   1.231   6.563  15.878  0.4966 -1.0314  0.4167
12910TIP3    H260222   1.313   6.586  16.004  0.0855 -0.5206  0.5955
12911TIP3   OH260223   4.115   5.484  13.136 -0.5065  0.1189 -0.5650
12911TIP3    H160224   4.095   5.506  13.045 -0.9166 -0.6907 -0.6770
12911TIP3    H260225   4.210   5.483  13.141 -0.4778 -0.6462 -1.1907
12912TIP3   OH260226   1.168   0.240   0.619 -0.6534  0.2743  0.0113
12912TIP3    H160227   1.189   0.274   0.532 -0.0109 -1.3844 -0.5195
12912TIP3    H260228   1.253   0.233   0.664 -0.7624 -0.6668  0.0821
12913TIP3   OH260229   1.929   3.245  13.224 -0.2460 -0.7019 -1.1614
12913TIP3    H160230   1.908   3.330  13.185 -0.3018 -0.8005 -1.3510
12913TIP3    H260231   1.880   3.182  13.171  0.4164 -0.9221 -1.5229
12914TIP3   OH260232   3.176   4.018  12.552  0.5162  0.4076 -0.4064
12914TIP3    H160233   3.201   4.010  12.460 -0.5330 -0.3642 -0.6435
12914TIP3    H260234   3.187   3.931  12.588  0.5552  0.6201  0.1005
12915TIP3   OH260235   0.132   6.244  10.729  0.3115 -0.1224 -0.5310
12915TIP3    H160236   0.042   6.245  10.695 -0.1182  0.2208  0.5542
12915TIP3    H260237   0.179   6.307  10.674 -0.3860  0.5015 -0.4379
12916TIP3   OH260238   0.286   4.129  16.444  0.1262 -0.1595  0.2599
12916TIP3    H160239   0.318   4.159  16.529 -1.2426  1.0029  0.4050
12916TIP3    H260240   0.279   4.034  16.453  1.4414 -0.2116  0.9169
12917TIP3   OH260241   4.055   6.686   1.792 -0.3924 -0.0399  0.7980
12917TIP3    H160242   4.021   6.767   1.754 -1.8560 -0.3011  1.5032
12917TIP3    H260243   4.113   6.651   1.724 -1.2300  0.6255 -0.2965
12918TIP3   OH260244   5.125   3.671  10.876 -0.2768 -0.3079  0.0909
12918TIP3    H160245   5.029   3.674  10.879 -0.3020 -0.7817 -0.1100
12918TIP3    H260246   5.145   3.577  10.871  0.1432 -0.1365 -2.1083
12919TIP3   OH260247   1.992   3.232  16.990 -0.1556  0.2221 -0.0157
12919TIP3    H160248   1.956   3.314  17.024 -0.9235 -0.6876  1.4949
12919TIP3    H260249   2.057   3.205  17.056  1.2569  0.3962 -1.2928
12920TIP3   OH260250   3.892   0.730  12.389  0.2023 -0.5356  0.6728
12920TIP3    H160251   3.845   0.813  12.378  2.1667  0.5532  0.1652
12920TIP3    H260252   3.885   0.687  12.304 -0.0376 -0.4639  0.6556
12921TIP3   OH260253   3.708   0.499   1.482 -0.4899  0.2489 -0.4533
12921TIP3    H160254   3.710   0.410   1.515  1.4652 -0.2161 -1.6799
12921TIP3    H260255   3.677   0.552   1.556 -1.0080 -1.3246  0.4939
12922TIP3   OH260256   3.264   5.448  15.828 -0.4279  0.2114  0.4822
12922TIP3    H160257   3.211   5.368  15.831 -0.6496  0.2568 -1.1380
12922TIP3    H260258   3.229   5.496  15.753  1.2828  0.6993 -0.0357
12923TIP3   OH260259   2.810   0.637  16.467  0.1682 -0.0498  0.3155
12923TIP3    H160260   2.720   0.669  16.476 -0.3004 -1.3037  0.2286
12923TIP3    H260261   2.849   0.695  16.402 -0.7782  0.1141 -0.1220
12924TIP3   OH260262   0.344   2.855  13.513 -0.4349  0.2603 -0.2001
12924TIP3    H160263   0.358   2.835  13.421  0.7163  3.2237 -0.7743
12924TIP3    H260264   0.417   2.814  13.559 -0.2742 -0.0901 -0.7673
12925TIP3   OH260265   6.475   0.977   3.134 -0.4965  0.0667  0.2333
12925TIP3    H160266   6.446   0.905   3.078 -2.7011  0.9610  0.1105
12925TIP3    H260267   6.398   0.999   3.187  0.1297  2.2325  0.3468
12926TIP3   OH260268   2.850   3.560   3.486 -0.3630 -0.5511  0.0581
12926TIP3    H160269   2.840   3.480   3.434 -0.6776 -0.6449  0.2608
12926TIP3    H260270   2.928   3.544   3.539 -0.2901 -0.6288 -0.0711
12927TIP3   OH260271   6.380   1.388   2.108  0.2236 -0.1077  0.5492
12927TIP3    H160272   6.439   1.400   2.183 -0.6060  0.4829  1.1246
12927TIP3    H260273   6.354   1.477   2.084 -2.9001 -0.4159  2.3264
12928TIP3   OH260274   1.102   1.530  10.240 -0.5245  0.7262  0.0762
12928TIP3    H160275   1.188   1.513  10.200 -0.9426 -1.0455 -0.1726
12928TIP3    H260276   1.064   1.600  10.187  0.1734  0.5071 -0.7306
12929TIP3   OH260277   5.570   1.159   3.360 -0.0607 -0.3178  0.0318
12929TIP3    H160278   5.535   1.222   3.298  0.5397 -0.9954 -1.0452
12929TIP3    H260279   5.524   1.077   3.340 -0.6237 -0.3095  1.2083
12930TIP3   OH260280   3.242   5.853  13.306 -0.4445  0.1160  0.4293
12930TIP3    H160281   3.291   5.933  13.329  1.0545 -0.5769 -0.2524
12930TIP3    H260282   3.192   5.877  13.228  0.6120  0.1794 -0.2434
12931TIP3   OH260283   5.414   2.244  14.083  0.2238  0.3304  0.2075
12931TIP3    H160284   5.422   2.313  14.148  0.2980 -0.3123  0.8839
12931TIP3    H260285   5.329   2.204  14.101 -0.4855  1.1568 -1.0942
12932TIP3   OH260286   4.233   3.837  13.533  0.1590  0.1289 -0.1322
12932TIP3    H160287   4.237   3.927  13.501  1.8122 -0.0797 -0.6377
12932TIP3    H260288   4.140   3.819  13.545 -0.1231  2.7882  2.6047
12933TIP3   OH260289   6.083   3.220   5.585 -0.1822  0.0229  0.0700
12933TIP3    H160290   6.051   3.305   5.556 -0.5621 -0.0593  0.2384
12933TIP3    H260291   6.005   3.165   5.590 -0.1292  0.0241  1.2014
12934TIP3   OH260292   3.409   6.032  12.051 -0.0637 -0.3077  0.2816
12934TIP3    H160293   3.360   6.113  12.067 -1.0407 -0.5551 -1.2777
12934TIP3    H260294   3.343   5.970  12.019  0.7589 -1.5822  0.9850
12935TIP3   OH260295   6.366   0.474  15.162  0.3009  0.2256  0.6302
12935TIP3    H160296   6.275   0.454  15.139  1.1334 -2.2117 -0.9736
12935TIP3    H260297   6.372   0.569  15.155 -2.4997  0.6510  2.5256
12936TIP3   OH260298   4.926   2.827  16.487  0.2602 -0.3670 -0.4704
12936TIP3    H160299   4.885   2.744  16.461 -0.0454 -0.1122 -0.8149
12936TIP3    H260300   4.966   2.860  16.406  1.5918 -0.8469 -0.0490
12937TIP3   OH260301   1.388   5.302  15.491 -0.1541  0.6698  0.5952
12937TIP3    H160302   1.299   5.314  15.457  0.5743  0.7451 -1.4425
12937TIP3    H260303   1.437   5.267  15.416  2.0517  2.7398  0.9512
12938TIP3   OH260304   5.791   3.971   4.953 -0.2707 -0.1040 -0.2476
12938TIP3    H160305   5.836   3.910   5.012  0.3158  0.5809  0.0334
12938TIP3    H260306   5.837   4.054   4.965 -1.6981  0.6626  0.1427
12939TIP3   OH260307   4.592   1.278   2.826  0.0075 -0.6833 -0.0602
12939TIP3    H160308   4.684   1.293   2.805 -0.0662 -0.5313 -0.2757
12939TIP3    H260309   4.579   1.184   2.810  0.4352 -0.9745  1.1697
12940TIP3   OH260310   4.495   5.790  13.519 -0.0501  0.3870  0.0622
12940TIP3    H160311   4.522   5.768  13.430  0.8399 -4.4051  1.2374
12940TIP3    H260312   4.401   5.772  13.521 -0.2823  1.5113 -0.1079
12941TIP3   OH260313   0.346   0.898  16.114  0.0490  0.2271 -0.1213
12941TIP3    H160314   0.437   0.873  16.128 -0.1728 -0.9796 -0.6926
12941TIP3    H260315   0.342   0.926  16.023  0.1553  1.8204  0.3352
12942TIP3   OH260316   2.659   5.053  14.794  0.0681 -0.3680  0.2624
12942TIP3    H160317   2.737   5.108  14.792 -0.0626 -0.1483  0.9703
12942TIP3    H260318   2.686   4.976  14.843 -0.5108  0.2760  1.6314
12943TIP3   OH260319   0.337   5.108  16.613  0.0729 -0.3472 -0.2698
12943TIP3    H160320   0.404   5.097  16.546 -0.3160 -0.8794 -0.5797
12943TIP3    H260321   0.300   5.020  16.625  0.6382 -0.4185  1.1832
12944TIP3   OH260322   6.578   6.471   4.785 -0.4440 -0.3483 -0.4070
12944TIP3    H160323   6.589   6.391   4.837  0.5029  0.5068  0.7706
12944TIP3    H260324   6.633   6.536   4.829 -0.8349  0.8419 -1.6004
12945TIP3   OH260325   2.080   4.557  14.647 -0.1417 -0.8048 -0.4530
12945TIP3    H160326   2.123   4.509  14.576  0.0297 -0.5788 -0.5012
12945TIP3    H260327   2.114   4.646  14.640  1.2876 -1.1906  1.0487
12946TIP3   OH260328   1.509   0.396   2.241  0.6805 -0.1348  0.2949
12946TIP3    H160329   1.426   0.389   2.287  0.6509  0.8178  0.4126
12946TIP3    H260330   1.486   0.422   2.153  0.8647  0.4139  0.4049
12947TIP3   OH260331   0.520   2.439  11.267 -0.2347 -0.4774 -0.2380
12947TIP3    H160332   0.432   2.471  11.246 -0.0889 -0.3220 -0.6268
12947TIP3    H260333   0.566   2.517  11.297 -0.1067 -0.4708 -0.4474
12948TIP3   OH260334   1.989   3.766   4.357  0.0354  0.5915 -0.0788
12948TIP3    H160335   1.968   3.699   4.292 -1.2585 -1.1159  1.9590
12948TIP3    H260336   2.047   3.826   4.311  1.4456 -2.0169 -1.9794
12949TIP3   OH260337   1.537   2.590   3.142 -0.1440  1.5305 -0.3567
12949TIP3    H160338   1.458   2.627   3.181 -1.6026 -1.7580  0.1410
12949TIP3    H260339   1.591   2.563   3.217  0.1220  1.1874 -0.6645
12950TIP3   OH260340   3.907   3.964   4.883 -0.0987  0.1218  0.8450
12950TIP3    H160341   3.894   3.872   4.905  0.4787 -0.4201 -0.8947
12950TIP3    H260342   4.001   3.979   4.895 -0.1348  0.3935  0.8037
12951TIP3   OH260343   0.284   3.949   3.324 -0.2908 -0.1481 -0.0133
12951TIP3    H160344   0.279   3.968   3.417  1.5564 -1.7147  0.4739
12951TIP3    H260345   0.378   3.944   3.305 -0.6084 -1.8736 -1.4602
12952TIP3   OH260346   1.945   4.487  12.057 -0.2286  0.7339 -0.0186
12952TIP3    H160347   1.952   4.497  12.151 -0.0638 -0.1743  0.0760
12952TIP3    H260348   1.896   4.406  12.044  2.4129 -0.8714 -0.6706
12953TIP3   OH260349   0.129   1.639  15.836 -0.3076  0.7760  0.8057
12953TIP3    H160350   0.182   1.596  15.903  1.0315 -0.3435 -0.8957
12953TIP3    H260351   0.054   1.580  15.823 -0.7267  1.1432  1.4914
12954TIP3   OH260352   0.644   5.248  13.222 -0.0970  0.1424 -0.4365
12954TIP3    H160353   0.704   5.246  13.147  0.8170  3.6222 -0.0073
12954TIP3    H260354   0.676   5.179  13.280  1.1586 -0.5493 -1.8801
12955TIP3   OH260355   6.272   0.622  12.655 -0.1613 -0.4571 -0.6031
12955TIP3    H160356   6.277   0.594  12.563  2.4856 -1.1508 -0.3309
12955TIP3    H260357   6.292   0.544  12.705 -0.4716  0.1833  0.5474
12956TIP3   OH260358   0.717   6.628  15.852 -0.4328  0.1852 -0.1169
12956TIP3    H160359   0.701   6.541  15.888 -1.2080  0.4010  0.0744
12956TIP3    H260360   0.716   6.614  15.757 -0.0130 -0.1025 -0.0843
12957TIP3   OH260361   3.429   5.347  13.024  0.3437 -0.4190 -0.3752
12957TIP3    H160362   3.523   5.345  13.039  0.1140 -1.5657  1.1625
12957TIP3    H260363   3.410   5.269  12.972  0.1779 -0.5015 -0.1944
12958TIP3   OH260364   5.102   1.990   2.565  0.3173 -0.0372 -0.1393
12958TIP3    H160365   5.074   1.910   2.611  0.5576  1.7015  3.2978
12958TIP3    H260366   5.020   2.029   2.534 -0.2050  0.2644  1.5432
12959TIP3   OH260367   0.444   3.471   1.406 -0.1815 -0.4771  0.1631
12959TIP3    H160368   0.422   3.563   1.396  2.0227  0.3586  2.2530
12959TIP3    H260369   0.365   3.432   1.444 -1.2712  0.3964 -1.0883
12960TIP3   OH260370   5.914   4.224   3.985 -0.3726  0.2923  0.5574
12960TIP3    H160371   5.936   4.311   3.951 -3.2355  0.2546 -1.8225
12960TIP3    H260372   5.818   4.222   3.984 -0.4187 -2.5433  1.6140
12961TIP3   OH260373   1.054   1.431   4.065  0.3737  0.3493 -0.9310
12961TIP3    H160374   1.041   1.498   4.133 -0.2957  1.1750 -1.8425
12961TIP3    H260375   0.971   1.382   4.063  1.1391 -1.0688  0.2851
12962TIP3   OH260376   6.059   3.707  11.967  0.6407 -0.0407 -0.1318
12962TIP3    H160377   6.057   3.715  11.872  0.0572 -0.6796 -0.1898
12962TIP3    H260378   6.138   3.657  11.985  1.1860  0.7825 -0.2120
12963TIP3   OH260379   5.868   6.437  13.893  0.0134 -0.0016  0.0704
12963TIP3    H160380   5.845   6.481  13.811 -0.4025 -0.6288 -0.1520
12963TIP3    H260381   5.871   6.508  13.958  0.7442  0.5598 -0.5565
12964TIP3   OH260382   4.920   0.555  13.244  0.3422 -0.3134 -0.0022
12964TIP3    H160383   4.963   0.637  13.223 -0.5301 -0.0925 -0.9952
12964TIP3    H260384   4.939   0.541  13.337  0.9691  0.7097  0.0337
12965TIP3   OH260385   4.649   1.196  14.366 -0.6533  0.2832  0.3543
12965TIP3    H160386   4.591   1.135  14.321 -0.6799  0.5250  0.0575
12965TIP3    H260387   4.649   1.167  14.457  0.8949 -1.4098 -0.1221
12966TIP3   OH260388   4.149   1.822  14.760 -0.0295 -0.0106  0.1342
12966TIP3    H160389   4.161   1.916  14.747  1.0622  0.0032  1.0742
12966TIP3    H260390   4.060   1.813  14.793 -0.5200  0.5743 -1.0027
12967TIP3   OH260391   3.000   6.574   5.275  0.8026 -0.8412  0.2552
12967TIP3    H160392   3.059   6.629   5.224 -0.3232  0.3568  0.1960
12967TIP3    H260393   3.051   6.548   5.352  1.9232 -1.1922 -0.5812
12968TIP3   OH260394   4.283   2.317   1.939 -0.1614 -0.2659  0.4060
12968TIP3    H160395   4.318   2.388   1.991  0.1639 -1.5363  1.9990
12968TIP3    H260396   4.207   2.286   1.988 -1.1814 -0.1004 -0.9984
12969TIP3   OH260397   3.484   6.243   4.352 -0.3582  0.3559 -0.3933
12969TIP3    H160398   3.477   6.235   4.447  0.5154 -0.2651 -0.3584
12969TIP3    H260399   3.394   6.253   4.321 -0.6408  0.6717  0.5059
12970TIP3   OH260400   3.851   6.600  11.654 -0.4171 -0.1115 -0.0797
12970TIP3    H160401   3.869   6.656  11.730  0.2713 -0.4882  0.0449
12970TIP3    H260402   3.832   6.514  11.692 -0.0224 -0.3117 -0.3329
12971TIP3   OH260403   2.290   0.838   2.866  0.1638 -0.0404 -0.3595
12971TIP3    H160404   2.364   0.872   2.815  0.6214 -0.1285  0.2442
12971TIP3    H260405   2.275   0.751   2.831  0.9350 -0.3788  0.1177
12972TIP3   OH260406   6.642   0.384   0.482  0.6564  0.6488 -0.1391
12972TIP3    H160407   6.582   0.402   0.554 -1.3382 -0.1450 -1.5092
12972TIP3    H260408   6.712   0.448   0.492  0.2077  0.8630  2.2063
12973TIP3   OH260409   6.033   4.364  16.020  0.3763 -0.7618  0.2247
12973TIP3    H160410   6.028   4.330  15.931 -0.7667 -1.2676  0.4578
12973TIP3    H260411   5.954   4.416  16.030 -0.1527 -1.7217  1.3244
12974TIP3   OH260412   5.088   3.826   2.821 -0.3092  0.6142 -0.4943
12974TIP3    H160413   5.157   3.765   2.797  1.0173  2.0219 -0.4601
12974TIP3    H260414   5.050   3.790   2.901  0.5369 -0.0787 -0.3893
12975TIP3   OH260415   1.000   1.907   0.549 -0.0129 -0.0173 -0.0420
12975TIP3    H160416   1.090   1.931   0.572  1.6847 -3.2487 -2.3504
12975TIP3    H260417   0.984   1.953   0.466 -0.6187  0.7636  0.5022
12976TIP3   OH260418   0.154   4.143  14.442  0.0580 -0.4539 -0.2916
12976TIP3    H160419   0.191   4.173  14.358  0.7097  1.2956  0.5738
12976TIP3    H260420   0.229   4.143  14.502 -0.9670  1.4325  1.0717
12977TIP3   OH260421   6.622   0.738  12.267 -0.0022 -0.3904  0.0521
12977TIP3    H160422   6.669   0.744  12.183 -1.0070 -1.1623 -0.5852
12977TIP3    H260423   6.530   0.729  12.242 -0.3363 -0.3908  1.2520
12978TIP3   OH260424   2.655   0.674   2.040 -0.1374  0.0511 -0.2989
12978TIP3    H160425   2.641   0.614   2.113  2.4407  0.3268  0.4991
12978TIP3    H260426   2.590   0.647   1.974  0.8552 -3.6013  0.0115
12979TIP3   OH260427   3.905   1.060   3.235 -0.2246  0.1786  0.5362
12979TIP3    H160428   3.908   0.976   3.191 -0.7695  0.8126 -0.7817
12979TIP3    H260429   3.968   1.115   3.188  0.1459  0.5150  1.3915
12980TIP3   OH260430   0.699   4.394  13.087 -0.4778 -0.3372  1.0095
12980TIP3    H160431   0.742   4.360  13.166 -0.4539 -0.9421  0.7431
12980TIP3    H260432   0.768   4.400  13.022 -0.5791 -0.2407  0.9092
12981TIP3   OH260433   1.641   1.930  12.416 -0.2200 -0.0499 -0.4031
12981TIP3    H160434   1.568   1.989  12.399 -0.0084  0.5491  0.7055
12981TIP3    H260435   1.678   1.959  12.499 -0.7134 -2.3607  0.7084
12982TIP3   OH260436   6.307   4.455   6.384  0.1124  0.0407 -0.2630
12982TIP3    H160437   6.223   4.418   6.413  0.7987 -1.2966  0.1266
12982TIP3    H260438   6.314   4.537   6.432 -0.3878 -0.4658  0.7253
12983TIP3   OH260439   6.070   5.416   2.116  0.3290  0.4183  0.1653
12983TIP3    H160440   6.123   5.493   2.097 -0.3219  0.7921 -0.1932
12983TIP3    H260441   5.996   5.449   2.167  0.3233 -0.0561  0.4748
12984TIP3   OH260442   5.795   4.518  12.987  0.0018 -0.0490 -0.2139
12984TIP3    H160443   5.749   4.458  12.928  0.1244 -0.1499 -0.2062
12984TIP3    H260444   5.797   4.472  13.071 -2.0594  0.9624  0.4543
12985TIP3   OH260445   1.781   1.741   2.987  0.4308 -0.4395 -0.5796
12985TIP3    H160446   1.793   1.834   2.969  0.8404  0.0643  1.9328
12985TIP3    H260447   1.686   1.730   2.993  0.4085  0.0647  0.1325
12986TIP3   OH260448   2.138   1.698  11.261  0.3898 -0.7621 -0.1518
12986TIP3    H160449   2.063   1.753  11.239  1.1881  0.6661  0.5203
12986TIP3    H260450   2.128   1.681  11.355  1.5858  0.6209  0.2722
12987TIP3   OH260451   0.334   4.162   5.878  0.6244 -0.1666  0.3094
12987TIP3    H160452   0.251   4.128   5.844  1.5455 -0.6006 -1.6522
12987TIP3    H260453   0.336   4.253   5.848  0.6484 -0.0125  0.7724
12988TIP3   OH260454   3.415   3.491  15.750  0.0940  0.0952 -0.1004
12988TIP3    H160455   3.490   3.503  15.808 -0.5360  1.1751  0.5368
12988TIP3    H260456   3.422   3.561  15.686 -0.9419  0.9295  0.6439
12989TIP3   OH260457   6.472   0.216   1.291  0.2665  0.6088  0.2104
12989TIP3    H160458   6.455   0.228   1.384 -1.8271 -2.1005  0.2769
12989TIP3    H260459   6.392   0.177   1.256  2.2371 -1.8979 -1.9701
12990TIP3   OH260460   1.048   2.231   4.429  0.6443  0.2325  0.1248
12990TIP3    H160461   1.099   2.296   4.380 -0.7285  1.1524 -0.1529
12990TIP3    H260462   1.084   2.233   4.517  3.5844 -1.8966 -0.8801
12991TIP3   OH260463   6.033   0.921   4.821 -0.0344  0.3448 -0.0731
12991TIP3    H160464   6.041   0.904   4.728  1.7465  2.6457 -0.4078
12991TIP3    H260465   6.093   0.858   4.862  1.0284  0.9150 -0.7039
12992TIP3   OH260466   5.202   3.760  16.920 -0.4506 -0.0188 -0.4944
12992TIP3    H160467   5.248   3.812  16.855 -0.1076  0.7341  0.3321
12992TIP3    H260468   5.112   3.754  16.888 -0.2546  0.2325 -1.0897
12993TIP3   OH260469   0.111   0.448  13.470  0.2762  0.7182  0.3263
12993TIP3    H160470   0.116   0.358  13.439  1.2248  0.5683  0.8687
12993TIP3    H260471   0.101   0.500  13.391 -1.4058  0.0747  0.0779
12994TIP3   OH260472   3.091   3.372  12.346 -0.6052  0.6665 -0.0187
12994TIP3    H160473   3.108   3.288  12.388 -0.5821  0.3189 -0.7177
12994TIP3    H260474   3.151   3.375  12.272 -0.6292  1.2848 -0.0236
12995TIP3   OH260475   2.924   2.460   4.025 -0.2563 -0.3239  0.2536
12995TIP3    H160476   2.967   2.432   4.106 -1.0398 -0.8847  0.4915
12995TIP3    H260477   2.878   2.540   4.048 -0.1240 -0.2461  0.2481
12996TIP3   OH260478   3.288   3.605  12.994  0.1092 -0.4325 -0.3395
12996TIP3    H160479   3.293   3.677  13.057 -1.2992 -1.5446  1.1217
12996TIP3    H260480   3.372   3.560  13.002 -0.1232 -0.6640  0.8856
12997TIP3   OH260481   1.571   2.277   0.921  0.0076  0.3339 -0.0818
12997TIP3    H160482   1.602   2.298   0.833 -0.0992  1.7818  0.1928
12997TIP3    H260483   1.643   2.301   0.979  0.8095 -2.3184  0.1617
12998TIP3   OH260484   6.709   1.910   5.267  0.1509 -0.4235  0.3115
12998TIP3    H160485   6.680   1.951   5.186 -2.1567  0.6231  1.5429
12998TIP3    H260486   6.645   1.840   5.282 -1.5286  1.4684  2.7740
12999TIP3   OH260487   6.028   0.818  11.525  0.1306 -0.4714  0.0013
12999TIP3    H160488   6.059   0.879  11.458 -1.6484  0.5665  0.0590
12999TIP3    H260489   6.088   0.830  11.598 -0.7992  2.1088  0.4453
13000TIP3   OH260490   0.312   1.723   4.233 -0.0837  0.1155  0.0784
13000TIP3    H160491   0.329   1.666   4.158 -0.4383  0.5590 -0.3458
13000TIP3    H260492   0.335   1.670   4.309  0.7298 -0.1829 -0.3623
13001TIP3   OH260493   2.929   5.615   3.799 -0.3317 -0.2442  0.2017
13001TIP3    H160494   2.944   5.525   3.826 -1.0270  0.0788  1.8123
13001TIP3    H260495   2.841   5.636   3.832  0.2416  1.3464  0.8627
13002TIP3   OH260496   4.698   5.015  14.441  0.3613  0.2222  0.5056
13002TIP3    H160497   4.640   5.077  14.397  0.0454 -1.0980 -1.0111
13002TIP3    H260498   4.638   4.953  14.483  0.6825  0.0555  0.7170
13003TIP3   OH260499   0.613   2.260   4.603  0.5071 -0.3830  0.0464
13003TIP3    H160500   0.701   2.295   4.608  0.0034  0.8491  0.7050
13003TIP3    H260501   0.602   2.237   4.510  1.7112 -1.1422  0.0708
13004TIP3   OH260502   2.491   4.290  14.111 -0.2560  0.4752  0.5223
13004TIP3    H160503   2.550   4.237  14.057 -0.6710  0.7942 -0.2527
13004TIP3    H260504   2.549   4.336  14.171  0.2920  0.7688 -0.2138
13005TIP3   OH260505   6.025   3.574  12.941  0.3819  0.6685 -0.0056
13005TIP3    H160506   6.114   3.556  12.972  0.0488 -1.6933 -0.2527
13005TIP3    H260507   5.992   3.640  13.002  1.1766 -0.7999  2.1539
13006TIP3   OH260508   1.777   6.722  14.417 -0.1747  0.4156  0.3876
13006TIP3    H160509   1.801   6.757  14.331  1.2594  1.0603  1.0313
13006TIP3    H260510   1.762   6.800  14.471  1.1880  0.0514  1.3269
13007TIP3   OH260511   2.049   5.885  15.728  0.5299  0.0569 -0.0702
13007TIP3    H160512   2.052   5.829  15.806  1.6240 -0.7579 -0.6922
13007TIP3    H260513   2.066   5.827  15.655 -2.1273  0.4806 -1.1510
13008TIP3   OH260514   4.948   0.497  10.604  0.2465  0.2631  0.2567
13008TIP3    H160515   4.952   0.569  10.666  1.6852  0.3296  0.1192
13008TIP3    H260516   4.989   0.531  10.524 -1.4412  0.1370 -0.7201
13009TIP3   OH260517   1.650   6.127   2.937 -0.0526 -0.6680  0.1284
13009TIP3    H160518   1.733   6.176   2.938 -0.3377  0.0812 -2.6106
13009TIP3    H260519   1.583   6.194   2.951 -0.3047 -0.8298 -0.2937
13010TIP3   OH260520   0.007   1.012   3.839  0.3433  0.2699  0.6033
13010TIP3    H160521  -0.084   0.988   3.828  0.0645  1.6209 -0.2997
13010TIP3    H260522   0.026   1.069   3.764  1.8242  0.2826  0.9561
13011TIP3   OH260523   0.752   4.444   2.353 -0.3044  0.1574  0.0522
13011TIP3    H160524   0.688   4.432   2.283 -0.1023 -1.1331  0.0663
13011TIP3    H260525   0.786   4.533   2.340 -0.5221  0.0588 -1.2651
13012TIP3   OH260526   0.001   4.825   2.949  0.3162 -0.0320  0.4242
13012TIP3    H160527   0.093   4.819   2.926  0.5676  0.7741  1.1713
13012TIP3    H260528  -0.039   4.747   2.910  1.3236 -0.4279  0.1683
13013TIP3   OH260529   1.519   0.163   1.832  0.0407  0.1431 -0.1482
13013TIP3    H160530   1.604   0.156   1.876 -0.7508  1.0258  1.6227
13013TIP3    H260531   1.514   0.256   1.806 -0.1760 -0.0246 -0.7225
13014TIP3   OH260532   4.249   0.806  13.288  0.3085  0.2282  0.6903
13014TIP3    H160533   4.281   0.879  13.235  0.4446 -0.5259 -0.2914
13014TIP3    H260534   4.328   0.763  13.321  0.3208 -0.7237 -0.4866
13015TIP3   OH260535   4.195   4.515  14.645 -0.2180  0.3360 -0.1941
13015TIP3    H160536   4.171   4.443  14.704 -1.4373 -0.6320 -1.7855
13015TIP3    H260537   4.290   4.509  14.638 -0.2436 -0.7870  0.1271
13016TIP3   OH260538   3.190   5.911   6.255  0.1041  0.2905  0.5872
13016TIP3    H160539   3.160   5.863   6.178 -3.0304  2.2538  0.4363
13016TIP3    H260540   3.239   5.985   6.219 -0.4645  0.6330  0.5086
13017TIP3   OH260541   3.864   3.409   4.345  0.2578  0.6353  0.1381
13017TIP3    H160542   3.864   3.421   4.250 -2.0359 -0.4262 -0.0629
13017TIP3    H260543   3.897   3.320   4.358  0.0530  0.5794  0.2829
13018TIP3   OH260544   2.307   5.572   4.794 -0.2269  0.0892  0.7659
13018TIP3    H160545   2.309   5.618   4.710  0.1122 -0.2353  0.5958
13018TIP3    H260546   2.214   5.569   4.817 -0.3661 -0.1886  0.1973
13019TIP3   OH260547   2.693   0.881  14.682  0.4129 -0.1992  0.4687
13019TIP3    H160548   2.773   0.916  14.643  0.6491 -1.8190 -0.5927
13019TIP3    H260549   2.715   0.791  14.705 -1.0569 -0.6225  0.3123
13020TIP3   OH260550   2.466   3.028  14.196  0.0323 -0.3692  0.1522
13020TIP3    H160551   2.423   3.100  14.150 -0.9218 -0.4838  0.8451
13020TIP3    H260552   2.438   3.036  14.287 -1.5011 -2.6039 -0.0390
13021TIP3   OH260553   0.663   4.579   4.398 -0.0891  0.5604  0.4169
13021TIP3    H160554   0.627   4.551   4.482 -0.8629  2.7705  0.8921
13021TIP3    H260555   0.742   4.627   4.421  0.6176 -0.2618 -0.2683
13022TIP3   OH260556   3.078   2.509  12.680 -0.3363 -0.5488  0.3089
13022TIP3    H160557   3.093   2.588  12.733 -0.7435  0.5859 -1.1990
13022TIP3    H260558   2.997   2.472  12.715  0.7655 -1.3143  2.1726
13023TIP3   OH260559   4.094   6.728  15.383  0.0612  0.0676 -0.5569
13023TIP3    H160560   4.133   6.643  15.360  1.4336  0.0503  1.5811
13023TIP3    H260561   4.163   6.775  15.430 -0.8813  2.1516 -1.1366
13024TIP3   OH260562   6.837   4.175  12.726 -0.2224 -0.2271  0.3942
13024TIP3    H160563   6.879   4.119  12.792 -1.5365 -0.0053  1.4612
13024TIP3    H260564   6.752   4.133  12.711 -0.1583  0.0387 -0.7736
13025TIP3   OH260565   0.246   6.074   2.597 -0.5342 -0.2279 -0.4879
13025TIP3    H160566   0.253   6.165   2.627  2.1137 -0.6461  0.4695
13025TIP3    H260567   0.217   6.081   2.506 -1.8399  1.4652 -0.0059
13026TIP3   OH260568   4.010   2.923   3.822  0.6344  0.0287 -0.4194
13026TIP3    H160569   4.080   2.964   3.872 -0.6403 -0.1636  1.6415
13026TIP3    H260570   3.976   2.854   3.880 -0.4515 -0.6924 -1.8407
13027TIP3   OH260571   0.016   3.091   1.660  0.0608 -0.1867 -0.1408
13027TIP3    H160572   0.093   3.055   1.703 -1.3799 -2.3989  0.7232
13027TIP3    H260573  -0.017   3.157   1.722  0.7898  0.2430 -0.1865
13028TIP3   OH260574   6.511   3.999   2.957 -0.3990 -0.1456  0.6903
13028TIP3    H160575   6.439   3.961   3.007 -0.1131  0.3933  1.5417
13028TIP3    H260576   6.554   3.925   2.915 -1.9218 -0.3941 -0.4738
13029TIP3   OH260577   4.909   3.403  15.996 -0.1071  0.1748 -0.5018
13029TIP3    H160578   4.965   3.378  16.069  0.3951 -0.0002 -0.9439
13029TIP3    H260579   4.969   3.430  15.927 -0.5320 -0.5128 -1.1644
13030TIP3   OH260580   6.103   1.299  12.457  0.0053  0.0678  0.7913
13030TIP3    H160581   6.168   1.241  12.417  0.3400 -0.0331  1.4774
13030TIP3    H260582   6.062   1.343  12.382  1.0659  0.3545  0.3546
13031TIP3   OH260583   2.737   6.102   5.588  0.3435 -0.0127 -0.2733
13031TIP3    H160584   2.785   6.026   5.619  1.0399  0.5201 -0.0315
13031TIP3    H260585   2.801   6.154   5.540  0.5164  1.6168  1.5962
13032TIP3   OH260586   2.306   6.326   0.636 -0.4686 -1.0670 -0.0950
13032TIP3    H160587   2.291   6.369   0.552  1.4017 -0.2860 -0.0761
13032TIP3    H260588   2.267   6.385   0.701  1.2901  0.2414 -0.1465
13033TIP3   OH260589   4.631   6.444  11.112  0.5584  0.2048 -0.6180
13033TIP3    H160590   4.625   6.383  11.038  1.9232 -1.6409  0.7064
13033TIP3    H260591   4.654   6.388  11.186 -2.2316  1.7311  1.5730
13034TIP3   OH260592   1.147   1.252  15.000 -0.3382  0.3101  0.5691
13034TIP3    H160593   1.203   1.294  15.066 -0.2335  1.3848 -0.1762
13034TIP3    H260594   1.138   1.162  15.030  1.4909  0.1954  0.9145
13035TIP3   OH260595   2.481   0.502  13.049 -0.3273 -0.3317  0.5195
13035TIP3    H160596   2.448   0.437  13.111 -0.6249  0.7289  1.5174
13035TIP3    H260597   2.403   0.543  13.012 -0.1447 -0.6323 -0.2201
13036TIP3   OH260598   4.675   6.234   4.475 -0.8379 -0.5053  0.0971
13036TIP3    H160599   4.647   6.158   4.526  0.4901 -1.1858 -0.1594
13036TIP3    H260600   4.594   6.266   4.433 -1.5582 -1.2260  0.9004
13037TIP3   OH260601   2.781   2.437  11.098  0.1721 -0.1847  0.0169
13037TIP3    H160602   2.869   2.473  11.112  0.0546 -0.1878  0.8597
13037TIP3    H260603   2.755   2.405  11.185 -0.6370 -0.2291 -0.2364
13038TIP3   OH260604   5.974   0.602   4.682 -0.2765 -0.2849 -0.0987
13038TIP3    H160605   6.026   0.674   4.645 -0.2033 -0.6337 -0.6827
13038TIP3    H260606   5.920   0.572   4.609 -1.8610  0.5502  0.6945
13039TIP3   OH260607   0.809   5.716  15.697 -0.0931  0.4460 -0.3244
13039TIP3    H160608   0.872   5.775  15.739 -0.1990  1.4532 -1.5381
13039TIP3    H260609   0.850   5.693  15.614 -0.0905 -1.1786  0.0934
13040TIP3   OH260610   2.870   5.314   4.678 -0.0908  0.2276 -0.2138
13040TIP3    H160611   2.837   5.383   4.620  1.7623  1.0734 -0.3391
13040TIP3    H260612   2.813   5.239   4.660 -1.5975  1.4314 -0.7351
13041TIP3   OH260613   1.944   4.806   1.107  0.4184  0.3816 -0.0202
13041TIP3    H160614   1.967   4.736   1.169  0.6009  2.0087  1.8545
13041TIP3    H260615   1.854   4.830   1.130  0.0225  0.1756 -1.2616
13042TIP3   OH260616   2.824   0.177  13.692 -0.0188 -0.3277 -0.4301
13042TIP3    H160617   2.780   0.095  13.671 -0.1814 -1.0390  2.3290
13042TIP3    H260618   2.907   0.150  13.732 -0.0848  0.8152  0.5336
13043TIP3   OH260619   1.609   2.232  17.057  0.1012  0.0403  0.1797
13043TIP3    H160620   1.691   2.232  17.008 -1.0311  1.4582 -1.9067
13043TIP3    H260621   1.556   2.164  17.015  0.5103 -1.6342  2.2178
13044TIP3   OH260622   3.086   3.588  15.614  0.1690  0.2083 -0.3316
13044TIP3    H160623   3.158   3.552  15.666  1.4985  3.3251  0.2299
13044TIP3    H260624   3.034   3.512  15.590  3.5474 -2.2528 -0.6714
13045TIP3   OH260625   3.930   0.345   5.122  0.0799 -0.7023 -0.0715
13045TIP3    H160626   3.879   0.266   5.143 -1.8384 -0.5196 -3.3235
13045TIP3    H260627   3.887   0.414   5.172 -0.4858 -1.1579  0.0907
13046TIP3   OH260628   4.140   2.054   4.559 -0.0011  0.1323  0.4169
13046TIP3    H160629   4.047   2.064   4.539 -0.1015  1.2746  1.3626
13046TIP3    H260630   4.152   1.959   4.569 -1.0931 -0.0208  0.4065
13047TIP3   OH260631   0.484   5.578   2.901 -1.2059 -0.2303 -0.0296
13047TIP3    H160632   0.525   5.512   2.957 -1.8000 -0.3531  0.2759
13047TIP3    H260633   0.419   5.530   2.850 -2.2182  0.2238  0.7764
13048TIP3   OH260634   1.449   1.996   2.688  0.4271  0.0818 -0.1937
13048TIP3    H160635   1.356   2.014   2.675  0.4663  0.6943  0.3538
13048TIP3    H260636   1.482   2.072   2.737  1.5817  0.7315 -1.8732
13049TIP3   OH260637   1.648   3.353  15.949 -0.0659 -0.6478 -0.4661
13049TIP3    H160638   1.742   3.335  15.942 -0.1247 -0.7304 -1.1012
13049TIP3    H260639   1.635   3.378  16.041  0.4082 -1.5904 -0.1324
13050TIP3   OH260640   5.674   5.238   6.613  0.1583 -0.8677 -0.1231
13050TIP3    H160641   5.625   5.158   6.632  1.8801 -1.5386  1.7191
13050TIP3    H260642   5.652   5.297   6.685 -1.3364  0.5297 -1.6180
13051TIP3   OH260643   1.439   6.437   4.089  0.0549 -0.2866 -0.1564
13051TIP3    H160644   1.533   6.452   4.073  0.8426 -2.3063  1.9740
13051TIP3    H260645   1.423   6.350   4.054 -0.8850 -0.2082  0.0700
13052TIP3   OH260646   1.963   1.610   1.134  0.5076  0.8581  0.6840
13052TIP3    H160647   2.010   1.551   1.074 -0.0942  0.1695  0.8709
13052TIP3    H260648   1.959   1.693   1.088  2.4875  1.1489  0.9236
13053TIP3   OH260649   6.269   2.916  13.174  0.1936 -0.1242  0.0709
13053TIP3    H160650   6.198   2.873  13.127  0.1683 -1.7516  1.4766
13053TIP3    H260651   6.227   2.952  13.252  0.6112  0.4984  0.0143
13054TIP3   OH260652   4.850   3.905  14.690 -0.3293  0.1003  0.5035
13054TIP3    H160653   4.772   3.949  14.725 -2.0812 -1.7215 -0.8568
13054TIP3    H260654   4.898   3.974  14.643 -2.2163  0.9078 -0.3499
13055TIP3   OH260655   0.430   4.247   3.603 -0.0384 -0.6606  0.5266
13055TIP3    H160656   0.493   4.175   3.603  0.4465 -0.2468  0.2516
13055TIP3    H260657   0.483   4.324   3.583 -0.4504 -0.1335  1.4445
13056TIP3   OH260658   5.707   1.863  11.895  0.1315 -0.8598  0.4617
13056TIP3    H160659   5.787   1.810  11.895 -0.1637 -1.3397 -0.9590
13056TIP3    H260660   5.650   1.821  11.959  0.7229 -0.9465  0.9446
13057TIP3   OH260661   0.332   0.536  16.359  0.3004 -0.2936  0.3324
13057TIP3    H160662   0.378   0.478  16.420 -0.5341 -1.0574  0.2439
13057TIP3    H260663   0.327   0.620  16.406  1.9477 -0.1054  0.2607
13058TIP3   OH260664   2.096   0.284   3.297  0.7531  0.0266 -0.4941
13058TIP3    H160665   2.170   0.319   3.249 -0.4134  1.3682 -1.3991
13058TIP3    H260666   2.031   0.354   3.297 -0.7593 -1.2951 -0.2733
13059TIP3   OH260667   4.122   0.694  12.526 -0.3681  0.0230  0.3376
13059TIP3    H160668   4.079   0.692  12.612 -0.7711 -2.1829  0.1322
13059TIP3    H260669   4.056   0.732  12.468 -0.5862  0.2932  0.7527
13060TIP3   OH260670   5.555   3.766   4.936 -0.0033 -0.1133 -0.1506
13060TIP3    H160671   5.607   3.768   4.856  1.0687  0.5525  0.5408
13060TIP3    H260672   5.610   3.719   4.999 -1.7395 -2.6692 -0.3730
13061TIP3   OH260673   3.440   2.005   4.507 -0.0792  0.0120  0.7573
13061TIP3    H160674   3.439   2.083   4.451 -2.2588  0.2809  1.0737
13061TIP3    H260675   3.434   1.932   4.445 -0.8167  0.2320  0.5576
13062TIP3   OH260676   6.438   4.768   0.501 -0.0672 -0.7357 -0.0544
13062TIP3    H160677   6.465   4.699   0.440  0.1729 -0.4289 -0.3028
13062TIP3    H260678   6.454   4.850   0.453 -3.2129 -0.5365 -1.0091
13063TIP3   OH260679   6.383   4.197  12.717 -0.1091 -0.0651  0.4427
13063TIP3    H160680   6.354   4.120  12.766  1.7164 -0.4247  1.0244
13063TIP3    H260681   6.374   4.270  12.778  1.3470 -0.3770  1.0643
13064TIP3   OH260682   5.994   0.929   4.286 -0.0271 -0.0745 -0.1799
13064TIP3    H160683   5.993   0.964   4.197 -0.0643 -1.6459 -0.8252
13064TIP3    H260684   6.082   0.893   4.297  0.9085  2.3899  1.4087
13065TIP3   OH260685   4.630   1.990   4.842 -0.1941  0.5951 -0.0736
13065TIP3    H160686   4.634   2.041   4.923 -0.7387  0.0930  0.2732
13065TIP3    H260687   4.586   2.048   4.779  1.7581  1.6615 -0.5444
13066TIP3   OH260688   6.802   5.461  11.494  0.1139  0.0570 -0.0273
13066TIP3    H160689   6.770   5.436  11.407  0.2813  3.5370 -1.2508
13066TIP3    H260690   6.877   5.518  11.476  1.2857 -0.5515  2.5100
13067TIP3   OH260691   1.005   5.913   4.704  0.0410 -0.1086 -0.1382
13067TIP3    H160692   0.977   5.833   4.661  1.1874  0.0604 -1.2685
13067TIP3    H260693   1.080   5.887   4.757  1.2383  0.3973 -1.5121
13068TIP3   OH260694   6.180   0.539  13.153  0.4669 -0.0331  0.0519
13068TIP3    H160695   6.147   0.629  13.163 -1.1102 -0.7257  1.5135
13068TIP3    H260696   6.244   0.529  13.224  0.3510 -0.1825  0.1360
13069TIP3   OH260697   0.248   6.812  14.806 -0.0811 -0.0191 -0.5417
13069TIP3    H160698   0.222   6.889  14.756 -0.3778  0.3350  0.1330
13069TIP3    H260699   0.194   6.816  14.886  0.7215 -0.3004  0.0320
13070TIP3   OH260700   5.285   5.494  14.762 -0.2054  0.7048  0.4426
13070TIP3    H160701   5.313   5.556  14.694  0.3922  1.1831  1.1153
13070TIP3    H260702   5.266   5.549  14.838 -1.1700  0.2024  0.5776
13071TIP3   OH260703   1.129   0.566  12.585  0.0928 -0.3375 -0.0115
13071TIP3    H160704   1.041   0.532  12.566  0.0378  0.2382 -0.8030
13071TIP3    H260705   1.175   0.492  12.625 -1.0733 -0.3503  1.4007
13072TIP3   OH260706   4.021   2.764   5.134 -0.1766  0.2248 -0.2385
13072TIP3    H160707   4.044   2.695   5.071 -0.9390  0.8132 -1.1908
13072TIP3    H260708   4.030   2.845   5.085 -3.0081  0.5772 -0.3644
13073TIP3   OH260709   5.611   2.550  11.603  0.6169  0.2044 -0.3873
13073TIP3    H160710   5.544   2.531  11.537  2.6349 -1.2542 -2.1563
13073TIP3    H260711   5.640   2.639  11.583 -0.1041  0.4784 -0.2305
13074TIP3   OH260712   6.579   2.629  13.158  0.2431 -0.7300  0.9032
13074TIP3    H160713   6.533   2.642  13.241  1.2292  1.3525  1.1712
13074TIP3    H260714   6.629   2.709  13.145 -0.1508 -0.8507 -1.8998
13075TIP3   OH260715   6.568   1.200   5.256 -0.0547  0.2309  0.3536
13075TIP3    H160716   6.610   1.114   5.262  0.4326  0.5549  2.4813
13075TIP3    H260717   6.635   1.257   5.219 -0.1076 -0.1259 -0.3039
13076TIP3   OH260718   0.622   5.537  13.138 -0.1213 -0.0742 -0.0249
13076TIP3    H160719   0.531   5.560  13.158  0.0321  1.2369 -0.7464
13076TIP3    H260720   0.627   5.443  13.157 -2.2723 -0.7254 -2.0802
13077TIP3   OH260721   2.383   6.722  11.518  0.2637  0.3815 -0.1722
13077TIP3    H160722   2.288   6.727  11.515  0.2019 -0.7886 -1.3097
13077TIP3    H260723   2.404   6.643  11.467  1.8327  0.6038  0.0865
13078TIP3   OH260724   0.225   1.132   0.540  0.0470  0.4228  0.3508
13078TIP3    H160725   0.291   1.068   0.567  1.9504  2.7547  1.6141
13078TIP3    H260726   0.163   1.136   0.613  0.4184  0.6085  0.6616
13079TIP3   OH260727   4.003   0.226   2.770 -0.4469 -0.0058  0.2176
13079TIP3    H160728   3.943   0.248   2.842  0.2754  0.4096  0.7065
13079TIP3    H260729   3.950   0.173   2.710 -1.7012  1.5162 -0.0646
13080TIP3   OH260730   5.586   2.502  12.879 -0.3256  0.3415 -0.1598
13080TIP3    H160731   5.579   2.433  12.944  1.3823  0.4958  0.2378
13080TIP3    H260732   5.674   2.539  12.892 -0.7590  1.8164 -1.1136
13081TIP3   OH260733   0.651   6.069  10.656  0.4207  0.7013  0.2111
13081TIP3    H160734   0.712   6.139  10.634  1.2783 -0.0765  0.0401
13081TIP3    H260735   0.707   5.996  10.681 -0.4507 -0.0397  0.0409
13082TIP3   OH260736   3.898   2.445   1.604 -0.5047  0.3103  0.5375
13082TIP3    H160737   3.946   2.430   1.522 -2.6864 -0.2940 -0.6991
13082TIP3    H260738   3.964   2.479   1.664  1.2003  0.7079 -1.4374
13083TIP3   OH260739   6.781   4.041  13.910 -0.1045 -0.1240  0.3638
13083TIP3    H160740   6.746   4.097  13.842 -0.5733  0.0286  0.7271
13083TIP3    H260741   6.876   4.047  13.900 -0.1298  1.2040  0.7727
13084TIP3   OH260742   4.774   5.621   2.911  0.4747  0.5107  0.2758
13084TIP3    H160743   4.813   5.556   2.970 -1.2999 -0.8586 -0.0034
13084TIP3    H260744   4.835   5.695   2.914  2.0368 -0.7572  1.3803
13085TIP3   OH260745   3.813   0.381  14.037  0.0641 -0.0592 -0.4444
13085TIP3    H160746   3.835   0.340  13.953 -1.5865 -1.7031 -0.1395
13085TIP3    H260747   3.897   0.414  14.070  1.3651 -2.4052 -1.1674
13086TIP3   OH260748   3.978   3.048  11.367 -0.1951  0.1692  0.2350
13086TIP3    H160749   3.970   2.954  11.350  1.7816  0.1366 -0.9108
13086TIP3    H260750   3.888   3.078  11.379 -0.8600 -1.8986  0.9490
13087TIP3   OH260751   4.351   4.757   2.278 -0.3142  0.3766 -0.1999
13087TIP3    H160752   4.374   4.704   2.202 -0.8214  0.0476 -0.1246
13087TIP3    H260753   4.316   4.695   2.342 -0.6967  0.7649 -0.0233
13088TIP3   OH260754   1.965   2.274  13.291  0.0585 -0.2951  0.1165
13088TIP3    H160755   1.991   2.319  13.210 -0.8715 -1.2911 -0.7694
13088TIP3    H260756   2.042   2.223  13.315  0.7337  0.8619  0.5136
13089TIP3   OH260757   4.508   5.299  13.068  0.2504 -0.0511 -0.2168
13089TIP3    H160758   4.522   5.214  13.027  1.3056  0.0088 -0.0180
13089TIP3    H260759   4.591   5.346  13.055 -0.5824  1.2491 -1.0051
13090TIP3   OH260760   0.722   3.583   2.625 -0.3239  0.2140 -0.2545
13090TIP3    H160761   0.799   3.620   2.582  1.6212 -1.2769  1.7518
13090TIP3    H260762   0.680   3.529   2.558  0.6716  0.6207 -1.2312
13091TIP3   OH260763   4.694   4.569   3.592 -0.5359 -0.2185 -0.2406
13091TIP3    H160764   4.723   4.487   3.552 -0.2154 -0.8719  1.2791
13091TIP3    H260765   4.692   4.552   3.686 -2.1960  0.9703  0.0049
13092TIP3   OH260766   5.970   3.280   4.687  0.0105  0.6237 -0.2956
13092TIP3    H160767   6.054   3.319   4.663 -0.0115  0.8618 -0.0004
13092TIP3    H260768   5.918   3.354   4.719 -0.1738  0.4149 -0.1084
13093TIP3   OH260769   1.127   5.305   3.636 -0.0883  0.3409  0.7818
13093TIP3    H160770   1.036   5.283   3.654 -0.3840 -1.0275 -1.8046
13093TIP3    H260771   1.123   5.385   3.584  0.0770 -0.2140 -0.1115
13094TIP3   OH260772   2.603   1.566  12.199 -0.2925 -0.3653  0.5533
13094TIP3    H160773   2.575   1.634  12.138  1.2433 -1.3937 -1.4023
13094TIP3    H260774   2.699   1.573  12.201 -0.2711 -0.3030  2.9871
13095TIP3   OH260775   0.382   0.286  13.589  0.0680 -0.3558  0.4683
13095TIP3    H160776   0.296   0.245  13.582  1.1104 -2.4406 -1.6338
13095TIP3    H260777   0.444   0.212  13.586  2.0200  1.2317 -1.9278
13096TIP3   OH260778   3.827   4.082  16.738 -0.1572 -0.5695  0.3803
13096TIP3    H160779   3.763   4.151  16.720  1.2333  0.3542 -1.3644
13096TIP3    H260780   3.912   4.124  16.727  0.7646 -2.7645 -1.8067
13097TIP3   OH260781   4.630   0.921  14.468 -0.4960  0.0286  0.3010
13097TIP3    H160782   4.598   0.928  14.558 -1.3431 -1.0342  0.1073
13097TIP3    H260783   4.611   0.831  14.443 -2.6269  0.9677 -1.8003
13098TIP3   OH260784   0.503   2.165  16.170 -0.1150 -0.5127 -0.2218
13098TIP3    H160785   0.428   2.201  16.122  0.4318  1.1755  0.1114
13098TIP3    H260786   0.465   2.118  16.244 -0.8674 -0.4275 -0.5521
13099TIP3   OH260787   0.004   2.217  14.089 -0.1307 -0.0724 -0.6397
13099TIP3    H160788   0.071   2.223  14.158  0.1905 -1.1314 -0.8449
13099TIP3    H260789   0.054   2.219  14.007 -0.6119  3.3194 -1.0179
13100TIP3   OH260790   6.798   4.343   3.344  0.1191  0.1136 -0.6192
13100TIP3    H160791   6.724   4.311   3.396  0.2478  0.1820 -0.3924
13100TIP3    H260792   6.776   4.434   3.325  1.1195  0.8220  1.2834
13101TIP3   OH260793   0.732   6.567  11.556  0.1472  0.1024 -0.2392
13101TIP3    H160794   0.658   6.516  11.523 -0.0593  0.0318  0.3366
13101TIP3    H260795   0.701   6.606  11.637  0.7254  0.1123 -0.0192
13102TIP3   OH260796   6.587   2.630   3.662 -0.3268 -0.1788 -0.0579
13102TIP3    H160797   6.618   2.549   3.621 -1.6576  1.0185 -3.8325
13102TIP3    H260798   6.491   2.622   3.663 -0.4083  0.0557  2.7030
13103TIP3   OH260799   4.130   5.251  11.827  0.0746 -0.1239 -0.6745
13103TIP3    H160800   4.096   5.162  11.841 -2.1627  0.6163 -1.0122
13103TIP3    H260801   4.078   5.285  11.754  0.0782  1.8776  0.2101
13104TIP3   OH260802   2.292   1.862  15.066 -0.5805 -0.3336  0.1658
13104TIP3    H160803   2.328   1.780  15.033  1.7116  0.2529  1.0436
13104TIP3    H260804   2.262   1.841  15.154  1.0223 -0.0268  0.8132
13105TIP3   OH260805   1.800   0.973  15.562  0.0085  0.9353  0.2249
13105TIP3    H160806   1.714   0.941  15.532  0.2403  0.9476 -0.4686
13105TIP3    H260807   1.838   1.015  15.485  0.6477  0.9196  0.5273
13106TIP3   OH260808   2.588   1.250  12.471 -0.0342  0.5611 -0.2629
13106TIP3    H160809   2.529   1.280  12.401  0.3321 -0.5687 -1.0890
13106TIP3    H260810   2.598   1.156  12.455 -0.4686  0.1292  1.7237
13107TIP3   OH260811   2.501   6.317  14.172  0.2998 -0.0332 -0.3476
13107TIP3    H160812   2.440   6.381  14.136 -0.3822 -0.8239 -0.6210
13107TIP3    H260813   2.579   6.324  14.116 -0.0609  0.0307 -0.8456
13108TIP3   OH260814   4.872   2.203  11.907  0.9094  0.0629 -0.6117
13108TIP3    H160815   4.931   2.131  11.885  0.8810 -0.0856 -0.1988
13108TIP3    H260816   4.915   2.281  11.872  0.9604 -0.1488 -1.0216
13109TIP3   OH260817   5.957   0.896   1.116 -0.2895 -0.3602  0.8125
13109TIP3    H160818   6.005   0.979   1.124 -0.1957 -0.4174  0.8398
13109TIP3    H260819   5.980   0.847   1.195 -0.1432 -0.5186  0.6715
13110TIP3   OH260820   5.657   6.815   1.079  0.2322 -0.6172 -0.2105
13110TIP3    H160821   5.598   6.798   1.005  0.4678 -0.9515 -0.3224
13110TIP3    H260822   5.614   6.886   1.127 -0.4389 -1.0827 -0.1030
13111TIP3   OH260823   5.323   3.171   0.377 -0.2915 -0.5633  0.1724
13111TIP3    H160824   5.395   3.125   0.422  0.5165  0.0455 -0.4682
13111TIP3    H260825   5.245   3.120   0.399  0.5795 -2.2712 -0.5209
13112TIP3   OH260826   2.619   2.440  13.354 -0.3132 -0.6864  0.9952
13112TIP3    H160827   2.596   2.451  13.446 -1.1278  0.1481  0.7012
13112TIP3    H260828   2.669   2.358  13.352 -2.4049 -2.0503  1.8006
13113TIP3   OH260829   3.329   1.860  16.092 -0.0588 -0.5143  0.8376
13113TIP3    H160830   3.276   1.863  16.012 -0.4816 -0.3133  1.1230
13113TIP3    H260831   3.284   1.918  16.153  0.8760  0.2323  0.8554
13114TIP3   OH260832   3.330   6.515   2.971 -0.1140 -0.0629  0.2395
13114TIP3    H160833   3.310   6.436   3.021  0.4640 -1.0577 -1.0448
13114TIP3    H260834   3.246   6.562   2.966 -1.0557 -1.7360 -0.9064
13115TIP3   OH260835   0.735   3.845  11.190  0.1643  0.0071  0.1447
13115TIP3    H160836   0.801   3.878  11.129  0.0305 -2.5228 -1.5406
13115TIP3    H260837   0.683   3.784  11.138 -2.7520  0.9501  1.7398
13116TIP3   OH260838   3.611   0.491  14.790  0.9807  0.2145  0.2199
13116TIP3    H160839   3.552   0.438  14.844  0.9023 -0.3484 -0.3906
13116TIP3    H260840   3.653   0.552  14.851 -1.1742  1.5115  0.4944
13117TIP3   OH260841   1.246   5.833  11.377  0.0805  0.2201  0.2748
13117TIP3    H160842   1.242   5.745  11.342 -1.0150 -0.0398  0.9820
13117TIP3    H260843   1.332   5.839  11.418  0.5633 -0.1560 -0.6638
13118TIP3   OH260844   4.517   0.656   3.382 -0.5223  0.1557 -0.5328
13118TIP3    H160845   4.589   0.703   3.423 -0.9776  0.9510 -0.6345
13118TIP3    H260846   4.452   0.646   3.453  0.0213 -1.3012 -0.2079
13119TIP3   OH260847   4.636   0.161  15.677  0.3242 -0.3581  0.5311
13119TIP3    H160848   4.680   0.199  15.601  1.3336 -2.3426  0.0620
13119TIP3    H260849   4.704   0.159  15.745 -0.7645  2.1139  1.8288
13120TIP3   OH260850   6.237   0.643  16.510  0.2774 -0.4642  0.7893
13120TIP3    H160851   6.174   0.677  16.573 -0.2139 -0.2865  0.2115
13120TIP3    H260852   6.193   0.652  16.425  0.8023 -0.9911  0.4547
13121TIP3   OH260853   0.845   5.777  13.026  0.6158 -0.1358 -0.0381
13121TIP3    H160854   0.751   5.780  13.042  0.4709 -0.1345 -0.8350
13121TIP3    H260855   0.872   5.869  13.020  0.6501 -0.1370  0.1009
13122TIP3   OH260856   1.293   1.053  13.221 -0.0096  0.2225  0.3786
13122TIP3    H160857   1.213   1.025  13.264 -0.4642 -1.2218 -1.2769
13122TIP3    H260858   1.325   0.974  13.176  1.0926  1.3288 -0.8691
13123TIP3   OH260859   3.446   5.302   3.320 -0.1722  0.3523  0.2570
13123TIP3    H160860   3.499   5.363   3.372  0.9815  0.3084 -0.8185
13123TIP3    H260861   3.443   5.223   3.373 -1.4135  1.1901  1.5242
13124TIP3   OH260862   2.850   1.392   1.379  0.1600 -0.2821  0.0918
13124TIP3    H160863   2.831   1.322   1.442  1.0538  0.0054  0.7012
13124TIP3    H260864   2.771   1.398   1.325  0.1305 -1.8816 -0.0963
13125TIP3   OH260865   5.745   5.625   4.606  0.5874 -0.1878 -0.3337
13125TIP3    H160866   5.825   5.590   4.643  1.2480  0.1900 -1.3708
13125TIP3    H260867   5.773   5.696   4.548 -0.5356  0.3861 -0.2194
13126TIP3   OH260868   4.748   0.048  12.465 -0.2596  0.0261 -0.0268
13126TIP3    H160869   4.806   0.123  12.469  2.1337 -1.4722 -2.7609
13126TIP3    H260870   4.768  -0.003  12.543 -1.6456  1.9301  1.6575
13127TIP3   OH260871   4.059   2.333   4.558 -0.0806 -0.5170  0.2639
13127TIP3    H160872   4.044   2.300   4.469  1.9102 -0.1749 -0.2520
13127TIP3    H260873   4.069   2.254   4.611 -0.5714 -0.7261  0.0510
13128TIP3   OH260874   3.714   3.976  13.520 -0.1544 -0.2952  0.1289
13128TIP3    H160875   3.643   3.911  13.521 -1.1251  0.7496  0.4044
13128TIP3    H260876   3.754   3.965  13.434 -0.6857 -0.8514 -0.0616
13129TIP3   OH260877   2.947   6.446   1.734  0.3553 -0.0775  0.1870
13129TIP3    H160878   2.872   6.491   1.773 -0.1923 -1.7333  1.1810
13129TIP3    H260879   2.970   6.379   1.799 -0.7054 -3.1128 -2.3073
13130TIP3   OH260880   4.189   6.640  12.847  0.4858  0.5544  0.2986
13130TIP3    H160881   4.132   6.692  12.903 -1.2568 -0.5517 -0.3395
13130TIP3    H260882   4.225   6.703  12.784 -0.6206  1.1826  0.2761
13131TIP3   OH260883   2.625   4.593   1.022  0.1901 -0.3918  0.0009
13131TIP3    H160884   2.566   4.558   1.089 -1.4972  0.7845 -0.7630
13131TIP3    H260885   2.569   4.600   0.944  1.4346  0.5165 -0.8409
13132TIP3   OH260886   5.634   5.757  12.434  0.6773 -0.0015 -0.1793
13132TIP3    H160887   5.687   5.814  12.378  1.5044  0.0240  0.6120
13132TIP3    H260888   5.647   5.670  12.398  1.7313 -0.0784  0.3302
13133TIP3   OH260889   3.231   1.337  15.092 -0.1697  0.0501 -0.5549
13133TIP3    H160890   3.309   1.282  15.079  0.6269  0.6517  1.2478
13133TIP3    H260891   3.215   1.376  15.006  1.1542 -0.5611 -1.1224
13134TIP3   OH260892   5.882   1.933  11.544 -0.3985 -0.3217 -0.6023
13134TIP3    H160893   5.929   1.867  11.595  0.1874 -0.6720 -1.5667
13134TIP3    H260894   5.948   1.997  11.519 -0.8801  0.4156 -0.0568
13135TIP3   OH260895   1.407   1.590   3.732 -0.0754 -0.1404 -0.2929
13135TIP3    H160896   1.321   1.630   3.744 -0.3374 -0.6241 -0.5135
13135TIP3    H260897   1.459   1.622   3.806 -0.6653 -0.4209  0.2536
13136TIP3   OH260898   5.246   3.362   1.086 -0.3198  0.0561 -0.0104
13136TIP3    H160899   5.158   3.377   1.051 -0.5727 -0.6918  0.2767
13136TIP3    H260900   5.297   3.437   1.055 -1.0504  0.4951 -0.1991
13137TIP3   OH260901   1.457   0.429  13.190  0.4785  0.2589 -0.5181
13137TIP3    H160902   1.548   0.438  13.215  0.4025  1.0138 -0.4985
13137TIP3    H260903   1.408   0.473  13.259 -0.0279 -1.5884  0.3685
13138TIP3   OH260904   6.198   0.608  10.775  0.0934  0.0420 -0.1645
13138TIP3    H160905   6.239   0.608  10.861  0.7638 -2.1183 -0.4243
13138TIP3    H260906   6.180   0.516  10.756 -2.2151  0.6409 -1.3513
13139TIP3   OH260907   5.161   5.709   1.582 -0.0974 -0.5467 -0.0832
13139TIP3    H160908   5.178   5.765   1.506 -1.7459  0.9611  0.5606
13139TIP3    H260909   5.246   5.675   1.608  0.8496  0.9764 -1.0724
13140TIP3   OH260910   4.632   4.561  14.272  0.3139 -0.3081  0.3692
13140TIP3    H160911   4.554   4.602  14.235  1.0965  1.4717  0.5915
13140TIP3    H260912   4.612   4.467  14.272 -1.5094  0.0372 -0.2701
13141TIP3   OH260913   6.344   2.145  11.899 -0.1070  0.4158 -1.1849
13141TIP3    H160914   6.293   2.186  11.969  1.0411 -0.2864  0.1027
13141TIP3    H260915   6.371   2.218  11.844  0.5190  1.2267  0.1522
13142TIP3   OH260916   4.462   3.470  14.672 -0.1644  0.1623  0.4116
13142TIP3    H160917   4.465   3.487  14.766  0.4374  0.1999  0.3922
13142TIP3    H260918   4.554   3.475  14.644 -0.4443  1.2687 -0.3770
13143TIP3   OH260919   5.078   3.137   3.839 -0.2461  0.0235  0.3009
13143TIP3    H160920   5.064   3.213   3.783  0.2946  1.0483  1.5018
13143TIP3    H260921   5.015   3.148   3.910  0.9320  0.2461  1.3475
13144TIP3   OH260922   3.331   0.559   0.018 -0.4652 -0.2749  0.1594
13144TIP3    H160923   3.252   0.546  -0.035  0.7455 -2.7806 -1.2298
13144TIP3    H260924   3.314   0.510   0.098 -1.3983  1.6211  1.1784
13145TIP3   OH260925   0.047   5.699  12.813 -0.2710  0.0666  0.2843
13145TIP3    H160926   0.115   5.763  12.834 -0.6700  0.2300  1.1333
13145TIP3    H260927  -0.027   5.724  12.868 -0.4603 -1.0747  0.5787
13146TIP3   OH260928   5.803   0.435   2.642  0.0859  0.5996 -0.7419
13146TIP3    H160929   5.841   0.518   2.671 -0.0588  0.5926 -0.5287
13146TIP3    H260930   5.876   0.387   2.605  0.5959 -0.0021  0.9591
13147TIP3   OH260931   4.201   5.889  12.121 -0.3421 -0.1089  0.5733
13147TIP3    H160932   4.246   5.811  12.086 -0.7918 -1.0104  1.9234
13147TIP3    H260933   4.266   5.958  12.116  0.4216 -0.8268  0.3237
13148TIP3   OH260934   2.513   4.343  16.969  0.4864  0.0258  0.4678
13148TIP3    H160935   2.547   4.432  16.959  0.0198  0.1860  0.2671
13148TIP3    H260936   2.452   4.332  16.896 -1.2288  0.3737  1.7901
13149TIP3   OH260937   1.423   6.220   0.047  0.2112  0.3045 -0.0524
13149TIP3    H160938   1.394   6.191  -0.040 -0.0497 -1.0623  0.4783
13149TIP3    H260939   1.379   6.305   0.059 -0.7667 -0.0901 -0.7282
13150TIP3   OH260940   2.845   4.743   4.444  0.5074  0.1521  0.0221
13150TIP3    H160941   2.832   4.702   4.358 -0.9365  1.0853 -0.2482
13150TIP3    H260942   2.855   4.670   4.504 -0.3538 -0.5743 -0.6896
13151TIP3   OH260943   4.621   6.167   1.326 -0.0579 -0.3114 -0.2766
13151TIP3    H160944   4.670   6.209   1.255 -1.5695 -0.6499 -1.5811
13151TIP3    H260945   4.617   6.075   1.302  0.8897 -0.7547  1.1666
13152TIP3   OH260946   5.881   0.524   2.964  0.8487  0.1332  0.1623
13152TIP3    H160947   5.788   0.502   2.961  1.2938 -1.8689 -0.0008
13152TIP3    H260948   5.901   0.552   2.874  0.3532  0.8834  0.2742
13153TIP3   OH260949   0.415   2.790  13.869 -0.2580 -0.0472  0.3790
13153TIP3    H160950   0.497   2.829  13.900  0.3399 -0.9282 -0.0446
13153TIP3    H260951   0.441   2.736  13.794 -1.6829  2.2088 -1.9119
13154TIP3   OH260952   1.759   2.800   3.202 -0.0931  0.2807  0.3719
13154TIP3    H160953   1.785   2.827   3.291  1.1078 -0.1749  0.1779
13154TIP3    H260954   1.683   2.744   3.216 -0.8400  1.3899  0.9897
13155TIP3   OH260955   3.752   3.325  13.019 -0.0654 -0.3782  0.0733
13155TIP3    H160956   3.837   3.295  12.988  0.5648  2.9094 -1.7096
13155TIP3    H260957   3.769   3.356  13.108  0.4371 -0.3626 -0.0237
13156TIP3   OH260958   2.294   5.251   0.842  0.3201 -0.3920 -0.4268
13156TIP3    H160959   2.328   5.278   0.928  1.9701  0.4095 -1.2754
13156TIP3    H260960   2.204   5.281   0.842  1.6729  4.4118 -0.8549
13157TIP3   OH260961   3.832   3.040  15.666 -0.2910 -0.2384 -0.0170
13157TIP3    H160962   3.880   3.028  15.585  1.0231  0.2250  0.6649
13157TIP3    H260963   3.881   2.989  15.731 -0.4057  0.6569  0.8056
13158TIP3   OH260964   1.365   2.914   4.871 -0.5288  0.3090 -0.1032
13158TIP3    H160965   1.331   2.966   4.798  0.2918 -1.8045 -2.1294
13158TIP3    H260966   1.287   2.875   4.911 -0.9205  0.5801 -0.5870
13159TIP3   OH260967   2.190   5.331   5.371  0.5583  0.1119  0.2590
13159TIP3    H160968   2.097   5.321   5.352  1.0098  0.2408 -2.3750
13159TIP3    H260969   2.223   5.388   5.302  2.6024  0.1355  1.1709
13160TIP3   OH260970   5.931   5.645   5.643  0.0184 -0.0620  0.3624
13160TIP3    H160971   5.862   5.578   5.640 -1.1693  1.0719  1.2195
13160TIP3    H260972   6.012   5.595   5.655 -0.8856 -1.3252  1.5455
13161TIP3   OH260973   3.684   0.904   0.627  0.6492  0.8559  0.0713
13161TIP3    H160974   3.744   0.979   0.631  0.1071  1.2872  0.3425
13161TIP3    H260975   3.644   0.901   0.714 -0.7695  1.4620 -0.5211
13162TIP3   OH260976   1.557   2.997   0.594  0.2831 -0.1211  0.0560
13162TIP3    H160977   1.467   2.983   0.566  0.2455 -0.6905  0.4504
13162TIP3    H260978   1.550   3.055   0.670  0.3155  0.6040 -0.4936
13163TIP3   OH260979   6.578   5.864  16.457 -0.4368 -0.1195 -0.2679
13163TIP3    H160980   6.623   5.922  16.519 -1.6329 -0.2343  0.7479
13163TIP3    H260981   6.559   5.920  16.382 -2.4646  1.1533  1.1007
13164TIP3   OH260982   3.305   4.358   1.522  0.0865  0.3367 -0.4612
13164TIP3    H160983   3.214   4.348   1.496  0.6147 -1.0183 -1.9111
13164TIP3    H260984   3.308   4.327   1.612 -0.6728 -0.7468 -0.7978
13165TIP3   OH260985   6.209   4.226   3.487  0.3411  0.5571 -0.3941
13165TIP3    H160986   6.167   4.261   3.409  0.2904  0.7024 -0.3024
13165TIP3    H260987   6.214   4.132   3.472 -0.3761  0.4891 -0.2292
13166TIP3   OH260988   2.282   6.698  14.574 -0.5041 -0.1032 -0.2763
13166TIP3    H160989   2.263   6.778  14.525 -1.3749 -0.4767 -0.5765
13166TIP3    H260990   2.330   6.643  14.513 -1.3094 -0.4396 -0.6269
13167TIP3   OH260991   3.359   4.377  11.830  0.1672  0.0269 -0.7487
13167TIP3    H160992   3.270   4.343  11.839  0.3543 -0.3753 -0.3784
13167TIP3    H260993   3.370   4.389  11.735  0.6530 -2.5000 -1.0939
13168TIP3   OH260994   2.626   3.406   1.716 -0.1458 -0.0315 -0.0149
13168TIP3    H160995   2.659   3.494   1.732  1.6993 -0.0986 -2.6865
13168TIP3    H260996   2.689   3.349   1.760 -0.3807 -0.0611  0.2876
13169TIP3   OH260997   2.846   0.197   3.789  0.3603 -0.0601  0.4612
13169TIP3    H160998   2.880   0.284   3.766 -0.3977  0.0197 -0.4381
13169TIP3    H260999   2.908   0.163   3.853  1.4829  0.5519 -0.2616
13170TIP3   OH261000   3.358   1.604  16.236 -0.0838  0.2781 -0.3757
13170TIP3    H161001   3.332   1.616  16.145 -0.9791  0.5050 -0.0955
13170TIP3    H261002   3.339   1.688  16.278 -1.4863 -0.4095  0.4366
13171TIP3   OH261003   2.470   4.668  14.872 -0.0669 -0.4130 -0.0266
13171TIP3    H161004   2.433   4.736  14.928 -1.9155 -1.5348  0.1863
13171TIP3    H261005   2.469   4.589  14.926  0.6311 -0.9549 -0.7771
13172TIP3   OH261006   1.981   5.819  13.051 -0.2082 -0.1408 -0.1587
13172TIP3    H161007   2.051   5.807  13.116 -0.9547  0.1355  0.7201
13172TIP3    H261008   2.027   5.844  12.971  0.8037 -1.3218  0.0137
13173TIP3   OH261009   5.362   1.880   4.925 -0.5045 -0.3304 -0.5852
13173TIP3    H161010   5.413   1.932   4.863  1.4673 -1.5804 -0.1012
13173TIP3    H261011   5.421   1.809   4.952 -1.7208 -0.5760  1.7425
13174TIP3   OH261012   5.615   4.297   2.997 -0.3373 -0.7453 -0.3117
13174TIP3    H161013   5.541   4.257   3.043 -0.9282 -0.6850 -1.1981
13174TIP3    H261014   5.639   4.232   2.931 -0.2446 -0.3348 -0.6803
13175TIP3   OH261015   1.026   1.651   5.113  0.3867  0.1821 -0.1088
13175TIP3    H161016   0.948   1.704   5.101  0.4084  0.4364  0.8111
13175TIP3    H261017   1.022   1.585   5.043 -0.1950  0.7269 -0.5918
13176TIP3   OH261018   4.852   4.143  14.919  0.1653  0.6787 -0.4568
13176TIP3    H161019   4.926   4.196  14.889 -0.3503  0.9794 -1.2488
13176TIP3    H261020   4.885   4.096  14.995  1.1117  0.9500 -0.6858
13177TIP3   OH261021   0.450   3.665   1.095  0.7287 -0.1440  0.4720
13177TIP3    H161022   0.513   3.631   1.158  1.4813 -1.3326 -0.8359
13177TIP3    H261023   0.374   3.608   1.103  0.8528 -0.3409  0.2829
13178TIP3   OH261024   3.631   1.746   4.629 -0.0101  0.3238  0.0994
13178TIP3    H161025   3.636   1.819   4.692 -0.1274  0.6413 -0.2560
13178TIP3    H261026   3.581   1.678   4.675  1.2127 -0.0539  0.9343
13179TIP3   OH261027   5.605   6.167  11.360  0.3395 -0.0086 -0.1461
13179TIP3    H161028   5.695   6.141  11.381  0.2590 -0.1540  0.0147
13179TIP3    H261029   5.604   6.262  11.373  0.1416 -0.1624  1.0521
13180TIP3   OH261030   4.036   5.242  15.646 -0.0283 -0.0093 -0.5342
13180TIP3    H161031   4.120   5.196  15.641 -0.4511 -0.8544 -0.0861
13180TIP3    H261032   3.979   5.182  15.694 -0.9989  0.3921 -1.1543
13181TIP3   OH261033   3.462   3.166   2.378 -0.4557  0.4259 -0.2970
13181TIP3    H161034   3.528   3.226   2.412  0.2074 -0.9971  1.0478
13181TIP3    H261035   3.396   3.162   2.448 -0.6042 -0.2240 -0.4697
13182TIP3   OH261036   2.163   3.092   4.286  0.2583 -0.1829  0.5275
13182TIP3    H161037   2.161   3.106   4.380  1.4238 -0.6965  0.6414
13182TIP3    H261038   2.252   3.062   4.267  0.2320  0.4939 -0.8255
13183TIP3   OH261039   4.928   3.101   3.020  0.5127  0.4568 -0.6167
13183TIP3    H161040   4.973   3.017   3.011 -1.5874 -0.8240  0.1205
13183TIP3    H261041   4.901   3.123   2.931  1.4351  0.5998 -0.8770
13184TIP3   OH261042   0.058   6.435  13.586  0.1010  0.0927  0.2804
13184TIP3    H161043   0.048   6.508  13.525 -0.2740 -2.0308 -2.4001
13184TIP3    H261044  -0.030   6.422  13.622 -0.0449  0.3761  0.0301
13185TIP3   OH261045   3.335   4.775  14.701 -0.0425  0.3318 -0.1434
13185TIP3    H161046   3.361   4.700  14.648  0.4980  0.0058  0.5594
13185TIP3    H261047   3.244   4.756  14.726 -0.3996  0.6311 -1.1757
13186TIP3   OH261048   3.366   5.458   3.058  0.3199 -0.1472  0.1280
13186TIP3    H161049   3.301   5.399   3.021 -0.8550  0.6966  0.7653
13186TIP3    H261050   3.384   5.423   3.145  1.0842 -0.6304 -0.2092
13187TIP3   OH261051   4.000   2.460   3.275  0.2277  0.6730 -0.2225
13187TIP3    H161052   4.040   2.459   3.363 -0.9381 -0.1014  0.3101
13187TIP3    H261053   4.070   2.492   3.218  2.2310 -2.2067  0.3998
13188TIP3   OH261054   4.064   6.579  16.625 -0.0732 -0.0459 -0.1008
13188TIP3    H161055   4.105   6.644  16.567 -0.2297  0.2135  0.0767
13188TIP3    H261056   4.138   6.530  16.661  0.1563  0.9295  0.8205
13189TIP3   OH261057   2.889   4.001   1.512 -0.1580 -0.2247  0.1279
13189TIP3    H161058   2.911   3.983   1.420  0.6416  0.0955  0.2526
13189TIP3    H261059   2.835   4.080   1.508 -1.2095 -0.9291 -0.1651
13190TIP3   OH261060   5.795   5.534   0.403 -0.4939  0.1547  0.2112
13190TIP3    H161061   5.807   5.444   0.433  1.4782  0.0992 -0.6280
13190TIP3    H261062   5.881   5.575   0.413 -0.4034  0.8994 -2.7427
13191TIP3   OH261063   1.640   4.358   1.123  0.0363 -0.0152 -0.2908
13191TIP3    H161064   1.677   4.433   1.075  0.6555 -0.3994 -0.4283
13191TIP3    H261065   1.635   4.288   1.057  0.4742 -0.4145  0.1006
13192TIP3   OH261066   5.848   4.510   4.979 -0.3914  0.7894  0.1607
13192TIP3    H161067   5.843   4.510   4.883 -0.9937  0.0254  0.1751
13192TIP3    H261068   5.777   4.569   5.006 -0.3946  0.7971  0.1360
13193TIP3   OH261069   1.866   3.890   1.105 -0.2778  0.1056  0.6826
13193TIP3    H161070   1.906   3.828   1.045 -0.9746  0.9588 -0.6984
13193TIP3    H261071   1.928   3.897   1.178  2.0642  1.3307 -1.3178
13194TIP3   OH261072   3.391   6.244   3.483 -0.2333  0.5228  0.3299
13194TIP3    H161073   3.410   6.306   3.412 -0.0557  0.6192  0.4613
13194TIP3    H261074   3.477   6.214   3.512 -0.3178  0.2249  0.2776
13195TIP3   OH261075   5.433   0.298  13.424  0.5838  0.0825 -0.0377
13195TIP3    H161076   5.391   0.327  13.342  0.3140  0.3752  0.2000
13195TIP3    H261077   5.511   0.251  13.395  1.5843  1.8709 -0.4327
13196TIP3   OH261078   0.873   5.830  13.654  0.4715 -0.1247 -0.4063
13196TIP3    H161079   0.817   5.881  13.712  1.4640 -1.0827  1.4978
13196TIP3    H261080   0.838   5.846  13.566 -0.4348  2.2196  0.3135
13197TIP3   OH261081   6.696   6.491  14.416  0.3703  0.0805  0.2649
13197TIP3    H161082   6.741   6.480  14.332  1.1876  0.0052  0.7106
13197TIP3    H261083   6.766   6.491  14.481 -0.2187  0.6711  0.9060
13198TIP3   OH261084   3.054   6.664   1.572 -0.2325 -0.1434 -0.2023
13198TIP3    H161085   2.995   6.611   1.626  1.0564 -2.2759 -0.7706
13198TIP3    H261086   3.138   6.659   1.616  0.2337  0.2610 -1.0282
13199TIP3   OH261087   2.888   2.546   0.122  0.3595  0.3673  0.3760
13199TIP3    H161088   2.851   2.561   0.035 -0.3604  0.2448  0.6481
13199TIP3    H261089   2.980   2.528   0.107  0.3460  0.8579 -0.3164
13200TIP3   OH261090   0.707   1.903  14.592  0.1248 -0.4402  0.4689
13200TIP3    H161091   0.790   1.891  14.547  0.4505  0.5679  0.7901
13200TIP3    H261092   0.646   1.844  14.546  0.3513  0.7868 -1.5331
13201TIP3   OH261093   5.115   4.091   3.933 -0.2568  0.3463 -0.3449
13201TIP3    H161094   5.192   4.041   3.904 -0.9266 -0.6981 -0.3588
13201TIP3    H261095   5.151   4.161   3.987  0.6402 -0.7433  0.5099
13202TIP3   OH261096   3.161   0.639   3.239 -0.3583 -0.0901  0.2251
13202TIP3    H161097   3.081   0.600   3.204  0.1361 -1.6108  0.7388
13202TIP3    H261098   3.204   0.678   3.163 -1.6267  0.8991 -0.0360
13203TIP3   OH261099   6.407   2.576   1.957 -0.3196  0.1267  0.0579
13203TIP3    H161100   6.321   2.546   1.927 -0.7360 -1.9945  2.9250
13203TIP3    H261101   6.388   2.651   2.014  0.0419  1.3912 -1.4439
13204TIP3   OH261102   6.292   0.158  14.980 -0.0985  0.5338 -0.4258
13204TIP3    H161103   6.253   0.244  14.995  0.3088  0.3377  2.2181
13204TIP3    H261104   6.380   0.177  14.946  0.3303  1.2560  0.9772
13205TIP3   OH261105   3.273   5.536  16.990  0.0249 -0.3414  0.4461
13205TIP3    H161106   3.311   5.624  16.987  0.8926 -0.6942  0.7914
13205TIP3    H261107   3.321   5.492  17.060 -1.9021 -0.4128  1.8063
13206TIP3   OH261108   1.516   3.611   1.563  0.4715  0.2043  0.1200
13206TIP3    H161109   1.498   3.699   1.595  0.1615 -0.4824  1.9669
13206TIP3    H261110   1.591   3.622   1.504 -0.6544  1.9066 -1.0917
13207TIP3   OH261111   4.629   4.504  13.972 -0.0738 -0.1074  0.0193
13207TIP3    H161112   4.589   4.532  14.054 -1.8327  0.9284 -1.1126
13207TIP3    H261113   4.569   4.536  13.904  1.2740 -0.9855 -1.6718
13208TIP3   OH261114   3.594   4.036  15.677  0.0429  0.4447  0.1194
13208TIP3    H161115   3.514   4.071  15.637 -0.4791 -1.2529 -0.4053
13208TIP3    H261116   3.562   3.973  15.742  0.9478  0.5355  0.6660
13209TIP3   OH261117   5.453   3.218   2.150 -0.1089 -0.1785 -0.5446
13209TIP3    H161118   5.436   3.155   2.079 -2.9754 -0.8707  0.5840
13209TIP3    H261119   5.372   3.270   2.155  1.6633  2.7837 -0.5420
13210TIP3   OH261120   3.378   5.630   4.218  0.2119  0.1345  0.2576
13210TIP3    H161121   3.294   5.622   4.173  0.7793 -0.4563 -0.7324
13210TIP3    H261122   3.368   5.578   4.298  0.2328 -1.5431 -0.7749
13211TIP3   OH261123   0.297   0.486  16.665 -0.0930  0.1500 -0.6413
13211TIP3    H161124   0.378   0.437  16.650  1.0895  1.4513  1.0643
13211TIP3    H261125   0.227   0.425  16.642  1.3561 -0.8224 -2.7110
13212TIP3   OH261126   3.293   3.553   3.370  0.1557  0.1855  0.2900
13212TIP3    H161127   3.386   3.532   3.361  0.0940  0.1154 -0.1897
13212TIP3    H261128   3.248   3.477   3.336 -0.0755  1.4432 -2.4980
13213TIP3   OH261129   5.023   0.353  13.094 -0.1115 -0.0184  0.1594
13213TIP3    H161130   4.972   0.424  13.133 -1.1548 -1.1086  0.8701
13213TIP3    H261131   5.017   0.282  13.158  2.3313 -0.1900  0.2642
13214TIP3   OH261132   0.622   5.051   2.596 -0.1682 -0.2301 -0.2180
13214TIP3    H161133   0.574   5.131   2.575  0.0302 -0.2561 -0.8091
13214TIP3    H261134   0.698   5.080   2.646 -0.4349 -0.1144  0.1150
13215TIP3   OH261135   1.395   0.237   5.602  0.0847  0.4032  0.3242
13215TIP3    H161136   1.391   0.257   5.696  0.0710  0.5550  0.2917
13215TIP3    H261137   1.342   0.159   5.592 -1.0990  1.1991  0.2175
13216TIP3   OH261138   3.748   1.875  10.901  0.1372 -0.1895  0.2324
13216TIP3    H161139   3.802   1.893  10.824 -1.3183 -0.8891 -1.0273
13216TIP3    H261140   3.658   1.875  10.867 -0.4818 -1.4493  1.7591
13217TIP3   OH261141   1.203   5.196  13.920 -0.3040  0.9135 -0.1328
13217TIP3    H161142   1.220   5.198  14.015  0.8664  1.7725 -0.3361
13217TIP3    H261143   1.180   5.287  13.899  0.2107  0.8919 -0.7953
13218TIP3   OH261144   0.504   1.004  16.392  0.0877  0.8354 -0.5457
13218TIP3    H161145   0.553   0.948  16.332 -1.1779  0.5642 -1.3761
13218TIP3    H261146   0.435   0.947  16.426  0.5473  1.0965  0.8920
13219TIP3   OH261147   0.847   4.834  14.505 -0.5145 -0.2053 -0.0711
13219TIP3    H161148   0.815   4.919  14.534 -1.4247 -0.0185 -1.5139
13219TIP3    H261149   0.769   4.791  14.468  0.3591 -0.7939 -1.2971
13220TIP3   OH261150   5.436   3.759   2.426 -0.6042  0.2855 -0.5003
13220TIP3    H161151   5.458   3.834   2.482 -0.9270 -0.0634  0.1010
13220TIP3    H261152   5.358   3.721   2.466  1.0053 -1.9274  0.7285
13221TIP3   OH261153   4.279   1.567   5.592 -0.2711 -0.2974 -0.0309
13221TIP3    H161154   4.335   1.605   5.660  1.3940  0.2446 -1.6286
13221TIP3    H261155   4.304   1.475   5.590  0.1591 -0.1757 -0.3511
13222TIP3   OH261156   6.223   0.669  14.237  0.0671  0.1626 -0.6964
13222TIP3    H161157   6.172   0.690  14.315  1.5540  1.4197  0.0092
13222TIP3    H261158   6.166   0.612  14.186 -0.4971 -1.8217  1.8827
13223TIP3   OH261159   5.619   6.113   4.211 -0.1179  0.1977  0.1937
13223TIP3    H161160   5.598   6.030   4.254 -0.0677 -0.5414 -1.1597
13223TIP3    H261161   5.535   6.159   4.206 -0.5522 -0.6650 -0.8564
13224TIP3   OH261162   1.261   2.853   3.199  0.1297  0.1586  0.5244
13224TIP3    H161163   1.303   2.794   3.261  0.0694  1.5237  1.9250
13224TIP3    H261164   1.173   2.817   3.187  0.5153 -0.7454  0.3291
13225TIP3   OH261165   4.019   4.047  13.624 -0.3165  0.0957 -0.3060
13225TIP3    H161166   3.933   4.006  13.616 -0.5816  0.6527 -0.3273
13225TIP3    H261167   4.052   4.017  13.709 -0.7562  0.3027 -0.0594
13226TIP3   OH261168   6.279   5.257  10.779  0.1954  0.3141  0.0824
13226TIP3    H161169   6.255   5.164  10.775  2.2873 -0.2336 -1.2386
13226TIP3    H261170   6.201   5.303  10.747 -0.1009 -1.1591 -1.4541
13227TIP3   OH261171   0.387   2.903  15.738  0.1152  0.3133  0.2819
13227TIP3    H161172   0.446   2.973  15.712 -0.2258  0.6469  0.3924
13227TIP3    H261173   0.393   2.900  15.833  0.0971  0.2180  0.2802
13228TIP3   OH261174   3.939   6.528  12.402  0.1029 -0.5437 -0.2137
13228TIP3    H161175   3.928   6.445  12.448  0.4353 -0.6500 -0.3227
13228TIP3    H261176   3.899   6.593  12.460  0.8583 -0.6260  0.4157
13229TIP3   OH261177   5.382   0.058  16.458 -0.0688 -0.1356  0.4303
13229TIP3    H161178   5.303   0.037  16.508  0.4905  0.7166  1.7274
13229TIP3    H261179   5.384  -0.006  16.387 -0.9207 -1.3557  1.4834
13230TIP3   OH261180   4.344   4.340  11.631 -0.1791 -0.4417 -0.1983
13230TIP3    H161181   4.281   4.412  11.631  1.3521  0.9671 -0.3077
13230TIP3    H261182   4.367   4.329  11.539 -0.1072 -0.8079 -0.1366
13231TIP3   OH261183   6.470   5.708  12.835  0.2594  0.0980 -0.4033
13231TIP3    H161184   6.547   5.724  12.889 -0.2585 -1.3569  0.8161
13231TIP3    H261185   6.398   5.699  12.897 -0.5123 -0.7202 -1.3802
13232TIP3   OH261186   5.254   4.597   3.761 -0.2507 -0.0283 -0.0264
13232TIP3    H161187   5.349   4.604   3.770 -0.2943  0.6705 -0.0874
13232TIP3    H261188   5.241   4.509   3.724  0.2928 -0.5873  1.0455
13233TIP3   OH261189   1.704   0.422  14.626 -0.1787  0.0710 -0.1589
13233TIP3    H161190   1.655   0.502  14.607  0.2320  0.3445 -0.0813
13233TIP3    H261191   1.703   0.373  14.544 -1.8096 -0.6069  0.2231
13234TIP3   OH261192   5.961   4.657   1.896  0.3434 -0.3334  0.1118
13234TIP3    H161193   5.929   4.686   1.982  1.5171 -0.3032  0.5592
13234TIP3    H261194   6.000   4.735   1.858  1.1075 -0.6808  0.1704
13235TIP3   OH261195   0.734   4.007  11.891 -0.2748  0.3467 -0.1364
13235TIP3    H161196   0.655   3.958  11.869  0.5929 -0.6924 -1.0567
13235TIP3    H261197   0.754   4.057  11.811 -2.1071  3.7146  1.2845
13236TIP3   OH261198   1.142   2.668   5.209  0.5061 -0.0717  0.0964
13236TIP3    H161199   1.097   2.625   5.137  0.8286 -0.5425  0.1749
13236TIP3    H261200   1.229   2.689   5.175  0.0583  1.3379 -0.2363
13237TIP3   OH261201   2.891   0.717  12.234 -0.1186  0.0289  0.3526
13237TIP3    H161202   2.823   0.710  12.168 -0.8273  0.3829  1.0290
13237TIP3    H261203   2.928   0.629  12.240  0.7235  0.2334 -1.2875
13238TIP3   OH261204   1.249   6.124  11.417  0.2089 -0.1463  0.1854
13238TIP3    H161205   1.156   6.144  11.409  0.2741 -0.0749 -0.4552
13238TIP3    H261206   1.269   6.073  11.338  0.3855 -1.4191  1.0222
13239TIP3   OH261207   1.573   4.264   5.964  0.5109 -0.1353  0.0552
13239TIP3    H161208   1.583   4.184   5.913 -0.1453 -0.1391 -0.0726
13239TIP3    H261209   1.637   4.256   6.035  1.8864  0.1521 -1.1095
13240TIP3   OH261210   2.530   1.313  15.621 -0.6085  0.3911 -0.2672
13240TIP3    H161211   2.526   1.224  15.588 -1.7503  0.5003 -0.4647
13240TIP3    H261212   2.534   1.368  15.543  1.4354  0.4974 -0.1473
13241TIP3   OH261213   3.746   5.982  16.246  0.2348  0.0540  0.6841
13241TIP3    H161214   3.780   6.072  16.246 -0.2453  0.2412  1.0932
13241TIP3    H261215   3.699   5.975  16.329 -0.6964 -0.2117  0.1359
13242TIP3   OH261216   0.738   4.130  17.166  0.1884  0.4031  0.1773
13242TIP3    H161217   0.708   4.214  17.200 -2.9689 -0.4608 -0.0713
13242TIP3    H261218   0.663   4.098  17.114  1.5949 -2.1550 -0.4383
13243TIP3   OH261219   2.783   4.058  13.435  0.3033  0.0104 -0.3542
13243TIP3    H161220   2.840   4.048  13.359  0.2943  2.3147 -0.7295
13243TIP3    H261221   2.697   4.028  13.405 -0.1156  2.4430 -1.9099
13244TIP3   OH261222   3.710   3.908   2.780 -0.0366  0.5404 -0.0955
13244TIP3    H161223   3.619   3.896   2.806 -0.3362 -0.5335 -1.5155
13244TIP3    H261224   3.705   3.929   2.686  1.1956 -0.1660 -0.3325
13245TIP3   OH261225   3.211   2.655  11.257  0.1131  0.0915 -0.2091
13245TIP3    H161226   3.164   2.690  11.333  0.5175  0.5652 -0.1732
13245TIP3    H261227   3.304   2.656  11.283  0.1621 -0.7700 -0.3013
13246TIP3   OH261228   6.623   3.024  12.016  0.6919 -0.2741 -0.3095
13246TIP3    H161229   6.570   2.961  11.967  1.1728 -0.6645 -0.3324
13246TIP3    H261230   6.710   2.985  12.019  0.7229 -0.1397  0.6577
13247TIP3   OH261231   2.944   1.616   1.743 -0.0674 -0.3700  0.2769
13247TIP3    H161232   2.982   1.540   1.787  3.7849 -0.1890 -2.2400
13247TIP3    H261233   2.870   1.580   1.693  0.1398 -1.9632  1.0494
13248TIP3   OH261234   4.888   4.702   3.050  0.4557 -0.0471 -0.2767
13248TIP3    H161235   4.899   4.680   3.143  3.8132 -0.7373 -0.7072
13248TIP3    H261236   4.815   4.647   3.021  1.6951 -2.6833  1.1726
13249TIP3   OH261237   5.739   2.949   3.704  0.8133  0.1546 -0.2759
13249TIP3    H161238   5.673   2.987   3.762  0.2795 -1.5531  0.3250
13249TIP3    H261239   5.712   2.857   3.695  0.8494  0.3372 -3.2731
13250TIP3   OH261240   0.293   4.958  12.693  0.1172 -0.1768  0.0453
13250TIP3    H161241   0.256   4.871  12.684 -0.4594  0.1588 -0.9735
13250TIP3    H261242   0.218   5.015  12.710  0.2800  0.3442 -0.8943
13251TIP3   OH261243   3.446   3.895  12.816  0.1598  0.1977 -0.5088
13251TIP3    H161244   3.449   3.987  12.789  1.0893  0.2125 -0.3926
13251TIP3    H261245   3.499   3.891  12.896 -0.2644 -0.3570 -0.2476
13252TIP3   OH261246   3.053   3.084   0.303  0.0333 -0.6289 -0.1635
13252TIP3    H161247   2.979   3.024   0.313 -0.2692 -0.1380  0.6733
13252TIP3    H261248   3.104   3.048   0.230 -1.7798 -0.1769 -1.7242
13253TIP3   OH261249   5.304   5.660   0.117 -0.1044  0.2271  0.1442
13253TIP3    H161250   5.315   5.711   0.036 -1.7131  1.5035  0.6662
13253TIP3    H261251   5.341   5.716   0.185 -0.7481  0.1668  0.5554
13254TIP3   OH261252   4.451   1.649   4.106 -0.4217 -0.0229 -0.1764
13254TIP3    H161253   4.396   1.726   4.122 -1.5585 -0.9261  0.3917
13254TIP3    H261254   4.435   1.627   4.014 -1.7599 -0.8218  0.2246
13255TIP3   OH261255   0.909   3.001   4.885  0.4483  0.1971 -0.0959
13255TIP3    H161256   0.842   2.950   4.840 -1.6375  2.3407  0.4077
13255TIP3    H261257   0.873   3.016   4.972  2.5133 -0.2404  0.8893
13256TIP3   OH261258   3.585   6.004   1.560  0.3890 -0.3654  0.6895
13256TIP3    H161259   3.508   6.061   1.566  0.9278  0.2869  1.7018
13256TIP3    H261260   3.556   5.920   1.595  0.4909  0.2774  2.4123
13257TIP3   OH261261   6.431   0.963   1.073  0.9815  0.2865 -0.4895
13257TIP3    H161262   6.465   1.022   1.140  0.4014 -0.2593  0.2983
13257TIP3    H261263   6.491   0.889   1.073 -0.5073 -1.0159  1.4048
13258TIP3   OH261264   1.622   6.201   5.179  0.3003 -0.2089  0.3958
13258TIP3    H161265   1.559   6.196   5.106 -0.8187 -0.9155  1.3767
13258TIP3    H261266   1.624   6.294   5.201  0.3429 -0.0424 -0.2711
13259TIP3   OH261267   6.045   5.061   5.814  0.4424  0.0491 -0.1670
13259TIP3    H161268   6.041   4.982   5.760  0.4180 -0.7591  0.9736
13259TIP3    H261269   6.126   5.051   5.865 -1.0377 -0.7964  2.2182
13260TIP3   OH261270   1.620   4.879  16.298 -0.4118 -0.6856  0.2414
13260TIP3    H161271   1.668   4.846  16.374  0.8159 -1.2761 -0.7466
13260TIP3    H261272   1.597   4.969  16.321  0.9108 -0.4898  0.8812
13261TIP3   OH261273   2.680   6.772  14.881 -0.5661 -0.3361  0.6170
13261TIP3    H161274   2.710   6.777  14.972  1.6874 -0.4279 -0.0495
13261TIP3    H261275   2.752   6.729  14.834 -1.5611 -0.0824 -1.2570
13262TIP3   OH261276   4.150   4.352   5.772  0.3423 -0.2233 -0.0581
13262TIP3    H161277   4.057   4.362   5.794  0.1308 -2.3262  0.1631
13262TIP3    H261278   4.190   4.314   5.850  0.8534 -1.7106 -0.9875
13263TIP3   OH261279   6.302   1.602  10.479  0.4181 -0.3938 -0.6304
13263TIP3    H161280   6.289   1.517  10.521  0.5649 -0.5305 -0.8603
13263TIP3    H261281   6.253   1.595  10.397 -0.5171  0.1459 -0.1352
13264TIP3   OH261282   2.842   5.228  16.706  0.4082 -0.4634  0.5202
13264TIP3    H161283   2.904   5.288  16.666  0.5927 -0.7946  0.3098
13264TIP3    H261284   2.843   5.150  16.650  0.5731 -0.8803  1.0900
13265TIP3   OH261285   2.907   4.532  11.298  0.0028 -0.4943 -0.3098
13265TIP3    H161286   2.814   4.511  11.286 -0.0344 -0.0834 -0.7688
13265TIP3    H261287   2.911   4.627  11.289  0.1888 -0.2691  1.5892
13266TIP3   OH261288   4.474   2.819   5.479  0.0075  0.2019  0.4793
13266TIP3    H161289   4.509   2.857   5.398 -2.9632  2.1288 -0.0567
13266TIP3    H261290   4.538   2.842   5.546 -0.0097  3.4446 -0.4454
13267TIP3   OH261291   0.264   4.583  17.011  0.6848  0.1556 -0.4577
13267TIP3    H161292   0.337   4.586  17.073 -0.8684 -1.6665  1.6443
13267TIP3    H261293   0.200   4.645  17.045 -0.3963 -1.2292  0.1658
13268TIP3   OH261294   5.987   6.695  17.052 -0.2882  0.3463  0.2097
13268TIP3    H161295   5.964   6.698  16.959 -0.4942  3.7595  0.2537
13268TIP3    H261296   5.922   6.636  17.090 -1.7551  0.7884 -1.4478
13269TIP3   OH261297   6.005   5.165  14.709 -0.5675  0.8892 -0.3174
13269TIP3    H161298   6.101   5.167  14.709 -0.5607  0.5837 -0.5288
13269TIP3    H261299   5.982   5.097  14.772 -0.6722  1.9089  0.7777
13270TIP3   OH261300   5.553   1.376  14.810 -1.1016 -0.3422  0.2463
13270TIP3    H161301   5.505   1.404  14.732  0.8498  0.9310 -0.5639
13270TIP3    H261302   5.507   1.416  14.883 -2.2192 -0.5199 -0.3433
13271TIP3   OH261303   6.521   6.078  12.539 -0.5566 -0.3537  0.1031
13271TIP3    H161304   6.535   6.171  12.521 -1.8789 -0.3291 -0.9604
13271TIP3    H261305   6.597   6.052  12.591  1.8624  0.3893 -2.8015
13272TIP3   OH261306   4.662   5.044  16.493 -0.7728 -0.1016  0.1571
13272TIP3    H161307   4.642   4.976  16.557 -1.0270 -0.1401  0.0412
13272TIP3    H261308   4.577   5.078  16.467 -0.6644  0.0285 -0.0350
13273TIP3   OH261309   0.174   4.490   5.405 -0.1253 -0.3298 -0.2095
13273TIP3    H161310   0.168   4.538   5.323 -1.5082 -1.0932 -0.5693
13273TIP3    H261311   0.129   4.546   5.469  0.4036 -0.0322 -0.0851
13274TIP3   OH261312   5.619   3.213  14.993  0.4280 -0.2162  0.1617
13274TIP3    H161313   5.524   3.213  14.992  0.3966 -1.9884  0.4738
13274TIP3    H261314   5.644   3.267  14.917 -0.8080 -0.0470 -0.1420
13275TIP3   OH261315   0.006   4.329  16.824  0.0345  0.1811 -0.0608
13275TIP3    H161316  -0.063   4.395  16.815  0.2970  0.3318 -1.0890
13275TIP3    H261317  -0.037   4.246  16.805 -0.0763  0.1566  0.2816
13276TIP3   OH261318   1.125   0.631   2.968  0.3491 -0.6360 -0.3070
13276TIP3    H161319   1.105   0.639   2.875  2.9461 -0.7692 -0.9368
13276TIP3    H261320   1.154   0.540   2.979  1.7318 -0.1445  0.2562
13277TIP3   OH261321   0.527   1.179   3.813  0.1994 -0.3719 -0.1885
13277TIP3    H161322   0.452   1.239   3.817  0.6058  0.0890  0.9249
13277TIP3    H261323   0.560   1.187   3.723 -1.0298 -0.5328 -0.6758
13278TIP3   OH261324   1.573   0.439  16.425 -0.4509 -0.2130  0.6546
13278TIP3    H161325   1.541   0.485  16.348 -0.8638 -2.4866 -0.6300
13278TIP3    H261326   1.643   0.494  16.459 -1.2763  1.5898 -0.4308
13279TIP3   OH261327   5.867   2.615   5.351 -0.4206  0.0699  0.2865
13279TIP3    H161328   5.840   2.574   5.433 -0.7826  2.1479  1.2894
13279TIP3    H261329   5.786   2.651   5.314 -0.2281 -0.6455 -0.9087
13280TIP3   OH261330   3.624   0.395  11.806 -0.2060  0.0532  0.3435
13280TIP3    H161331   3.590   0.392  11.717 -0.0964  0.4246  0.2889
13280TIP3    H261332   3.626   0.303  11.834 -2.5868  0.0805  0.8441
13281TIP3   OH261333   4.695   5.957   0.221 -0.3222  0.5756 -0.1199
13281TIP3    H161334   4.624   6.010   0.257 -0.8303  0.4664 -0.9291
13281TIP3    H261335   4.650   5.883   0.180  0.1519  1.1898 -1.8168
13282TIP3   OH261336   1.536   2.080  15.181 -0.3168 -0.1223 -0.0586
13282TIP3    H161337   1.581   2.012  15.231 -1.9323 -1.5274 -0.4089
13282TIP3    H261338   1.450   2.086  15.221  0.3202  3.0353  1.0853
13283TIP3   OH261339   4.771   0.912  11.534  0.4505  0.2681 -0.0152
13283TIP3    H161340   4.746   0.880  11.447 -1.1121  0.3956  0.3452
13283TIP3    H261341   4.866   0.906  11.536  0.7321  2.1717 -2.4878
13284TIP3   OH261342   4.622   3.383  10.792  0.3142 -0.1581  0.7072
13284TIP3    H161343   4.639   3.344  10.706 -2.5406  2.7060 -1.4221
13284TIP3    H261344   4.702   3.368  10.842  1.9874 -2.2755 -2.2939
13285TIP3   OH261345   3.713   2.409  16.487 -0.2776 -1.0752 -0.0926
13285TIP3    H161346   3.646   2.464  16.446  2.2646  1.6288 -1.0044
13285TIP3    H261347   3.704   2.425  16.581 -0.7776 -0.6111 -0.2185
13286TIP3   OH261348   0.496   0.047   5.636 -0.0049  0.2587  0.4132
13286TIP3    H161349   0.458   0.124   5.678  1.1715  1.2876 -0.3043
13286TIP3    H261350   0.550   0.007   5.703 -0.0799  0.4681  0.5990
13287TIP3   OH261351   0.763   3.035  14.452  0.4957  0.4208  0.5724
13287TIP3    H161352   0.831   2.970  14.433  1.2183  1.3853 -0.2048
13287TIP3    H261353   0.725   3.056  14.367  0.1584  0.9011  0.8384
13288TIP3   OH261354   2.229   1.836   2.970  0.5210 -0.4567 -0.2622
13288TIP3    H161355   2.313   1.793   2.953  0.5642 -0.5622  0.1898
13288TIP3    H261356   2.254   1.922   3.005  0.4743 -1.1539  1.5784
13289TIP3   OH261357   2.244   4.664  14.152 -0.2526  0.0194 -0.3704
13289TIP3    H161358   2.295   4.743  14.138 -1.3113  0.5729 -1.2911
13289TIP3    H261359   2.160   4.696  14.187 -0.4998 -0.7345 -0.2577
13290TIP3   OH261360   2.701   5.211  11.995  0.5473  0.4009 -0.2143
13290TIP3    H161361   2.610   5.220  11.967  0.9366  1.3809 -1.2411
13290TIP3    H261362   2.696   5.197  12.090 -0.6415  1.2928 -0.1320
13291TIP3   OH261363   1.872   4.582   2.982  0.0150  0.5062  0.0126
13291TIP3    H161364   1.964   4.586   3.008  0.0242 -0.0689  0.0927
13291TIP3    H261365   1.872   4.523   2.907 -0.3322  0.2112  0.2413
13292TIP3   OH261366   0.636   6.440   6.619  0.0736  0.1772 -0.1318
13292TIP3    H161367   0.694   6.433   6.544  2.9528 -0.7769  2.0010
13292TIP3    H261368   0.652   6.527   6.655 -0.7206  0.3493 -0.1664
13293TIP3   OH261369   4.248   2.096  12.743 -0.1343  0.0805 -0.2263
13293TIP3    H161370   4.172   2.065  12.693 -1.1193 -0.1327  1.3121
13293TIP3    H261371   4.286   2.165  12.690 -2.0817  0.9575 -0.5505
13294TIP3   OH261372   6.092   1.157  13.718 -0.4600 -0.4077  0.1263
13294TIP3    H161373   6.038   1.236  13.714 -0.6199 -0.5524 -0.7300
13294TIP3    H261374   6.030   1.085  13.718 -0.4153 -0.5543  2.9719
13295TIP3   OH261375   3.569   5.341   3.822  0.6458 -0.3675  0.3730
13295TIP3    H161376   3.617   5.268   3.860 -3.3519 -2.1645  2.6721
13295TIP3    H261377   3.528   5.384   3.897  0.0950  2.1448 -1.2382
13296TIP3   OH261378   0.046   6.402   1.307  0.3163  0.3834  0.1485
13296TIP3    H161379   0.109   6.354   1.253 -1.9372 -1.0741 -1.4314
13296TIP3    H261380   0.002   6.461   1.245 -0.6645  0.4693  0.9078
13297TIP3   OH261381   2.895   2.044  16.839  0.8277 -0.5573 -0.1729
13297TIP3    H161382   2.903   1.960  16.793  2.2778 -0.9206  0.6898
13297TIP3    H261383   2.892   2.110  16.769  0.4576 -1.2592 -0.8339
13298TIP3   OH261384   3.983   6.360  15.583 -0.4852 -0.4051 -0.0083
13298TIP3    H161385   4.046   6.320  15.643  1.7445  1.9418 -0.5835
13298TIP3    H261386   3.913   6.393  15.639  0.8905  0.5615  1.2102
13299TIP3   OH261387   0.629   5.497  11.265 -0.1382 -0.0150  0.0063
13299TIP3    H161388   0.563   5.437  11.300 -0.1279 -0.3653 -0.5678
13299TIP3    H261389   0.611   5.502  11.171  0.4796  0.1017 -0.1128
13300TIP3   OH261390   6.654   0.020  13.858 -0.2105  0.1819  0.6050
13300TIP3    H161391   6.640   0.089  13.923 -2.1024 -0.1930  0.6438
13300TIP3    H261392   6.568  -0.021  13.847  0.5053 -1.0761 -0.6651
13301TIP3   OH261393   5.958   5.288  12.565  0.7439 -0.4605 -0.0366
13301TIP3    H161394   5.878   5.270  12.614  0.3073 -2.4056 -1.3508
13301TIP3    H261395   6.010   5.343  12.624 -1.6135  1.0844  0.7612
13302TIP3   OH261396   1.401   3.229  11.332  0.0913  0.9323 -0.5385
13302TIP3    H161397   1.327   3.195  11.384  0.7054  2.0220  1.1499
13302TIP3    H261398   1.463   3.157  11.331 -0.9571  0.0029 -1.9733
13303TIP3   OH261399   6.218   5.466   1.243  0.0449  0.1979 -0.3505
13303TIP3    H161400   6.147   5.467   1.178 -1.5108 -2.4096  1.1467
13303TIP3    H261401   6.186   5.519   1.315 -0.5428 -1.1419  0.4114
13304TIP3   OH261402   6.488   4.766  13.533  0.7729 -0.1811  0.4431
13304TIP3    H161403   6.549   4.828  13.491 -0.2750 -0.0371 -0.9487
13304TIP3    H261404   6.444   4.723  13.460 -0.5458 -0.5290  1.4080
13305TIP3   OH261405   3.529   0.973  10.708 -0.2088  0.0295 -0.0059
13305TIP3    H161406   3.464   0.920  10.661  0.6514  0.5508 -1.9198
13305TIP3    H261407   3.599   0.912  10.728 -0.0467  0.0320 -0.5316
13306TIP3   OH261408   1.039   0.558  12.097 -0.1347 -0.2199  0.1286
13306TIP3    H161409   0.962   0.569  12.042  1.5318  1.9666 -1.9994
13306TIP3    H261410   1.037   0.633  12.157 -0.0468 -0.5624  0.5618
13307TIP3   OH261411   5.105   0.410  11.371 -0.0332 -0.0379  0.2465
13307TIP3    H161412   5.157   0.437  11.446  0.9155  1.3011 -0.8373
13307TIP3    H261413   5.064   0.328  11.398 -0.0906  0.6459  2.3631
13308TIP3   OH261414   5.316   1.575  11.493 -0.0652  0.0116 -0.3414
13308TIP3    H161415   5.248   1.639  11.472  0.5428  0.4600 -0.9931
13308TIP3    H261416   5.392   1.602  11.441  0.6926 -0.3441  0.5403
13309TIP3   OH261417   3.433   5.466   1.968 -0.0946  0.2661 -0.0380
13309TIP3    H161418   3.521   5.436   1.948 -1.2068 -2.0166 -2.0704
13309TIP3    H261419   3.445   5.552   2.008  3.0980 -0.8389  1.7136
13310TIP3   OH261420   3.310   4.577   4.978  0.0221  0.0770 -0.1314
13310TIP3    H161421   3.400   4.596   5.004  0.0112  0.3145 -0.2711
13310TIP3    H261422   3.257   4.635   5.032 -0.1608 -1.2530  1.2070
13311TIP3   OH261423   1.419   2.759  13.841  0.0458 -0.1750  0.0539
13311TIP3    H161424   1.479   2.748  13.767 -0.1473  0.5020 -0.2149
13311TIP3    H261425   1.332   2.755  13.802 -0.0557  1.5600  0.0027
13312TIP3   OH261426   2.886   2.988  12.956  0.1319 -0.0733  0.0326
13312TIP3    H161427   2.811   3.012  12.902 -0.5955 -0.4858  0.8330
13312TIP3    H261428   2.878   3.043  13.034  0.3435 -0.5060  0.3646
13313TIP3   OH261429   1.710   5.541   1.889 -0.2505 -0.5787 -0.7605
13313TIP3    H161430   1.796   5.548   1.849  0.5567 -2.3379  0.4826
13313TIP3    H261431   1.685   5.631   1.910  2.1241 -0.1117  0.4488
13314TIP3   OH261432   4.878   0.736  14.991  0.4289 -0.1066 -0.0911
13314TIP3    H161433   4.962   0.732  14.946  0.5395  0.3188  0.0735
13314TIP3    H261434   4.840   0.819  14.963  0.2460 -0.1055  0.1575
13315TIP3   OH261435   0.745   4.432  14.984  0.1511 -0.5951 -0.3624
13315TIP3    H161436   0.780   4.467  15.066  0.1614 -0.5472 -0.3874
13315TIP3    H261437   0.788   4.347  14.975  1.3861  0.0978 -1.1435
13316TIP3   OH261438   0.477   4.196  12.249  0.0627 -0.2958 -0.3802
13316TIP3    H161439   0.549   4.141  12.219 -0.9073 -0.7671 -1.9879
13316TIP3    H261440   0.419   4.204  12.173 -1.6999 -0.1215  0.9054
13317TIP3   OH261441   6.146   4.967  14.423  0.3744  0.1389 -0.0236
13317TIP3    H161442   6.058   4.990  14.453  0.4589  0.5774 -0.1094
13317TIP3    H261443   6.132   4.922  14.340  0.2385  0.2953 -0.0855
13318TIP3   OH261444   5.786   2.758  11.828 -0.4641 -0.0868  0.0413
13318TIP3    H161445   5.794   2.667  11.801 -1.8921 -0.6936  1.4701
13318TIP3    H261446   5.700   2.763  11.869  0.2795  1.5068  1.5294
13319TIP3   OH261447   1.116   5.846  13.298  0.0151  0.0328 -0.1269
13319TIP3    H161448   1.127   5.923  13.353 -0.2693 -0.5484  0.7604
13319TIP3    H261449   1.026   5.817  13.314  0.6052 -1.4157  0.8036
13320TIP3   OH261450   3.628   3.711   6.541  0.0424  0.5098  0.3914
13320TIP3    H161451   3.572   3.772   6.492  3.3702  0.0214 -4.9128
13320TIP3    H261452   3.663   3.764   6.613 -1.9884  2.8186 -0.1504
13321TIP3   OH261453   1.226   2.818  15.307 -0.5601  0.2555 -0.3520
13321TIP3    H161454   1.157   2.884  15.317 -1.0193 -0.4148  1.1980
13321TIP3    H261455   1.302   2.858  15.350  0.0866  1.0217 -2.1171
13322TIP3   OH261456   3.192   5.555  12.477  0.1171  0.3781 -0.3933
13322TIP3    H161457   3.175   5.610  12.554 -0.6765 -1.7346  1.0528
13322TIP3    H261458   3.122   5.577  12.416 -0.6247  0.4778  0.4663
13323TIP3   OH261459   6.085   0.420  16.357  0.4297 -0.4072  0.8058
13323TIP3    H161460   6.068   0.355  16.289  0.4834 -1.1761  1.5013
13323TIP3    H261461   6.046   0.501  16.324  0.5555 -0.7352 -0.1791
13324TIP3   OH261462   5.930   1.630  16.375 -0.8804  0.3072 -0.1619
13324TIP3    H161463   6.006   1.638  16.317 -0.3869 -0.0061  0.4441
13324TIP3    H261464   5.895   1.719  16.381  0.3981  0.7632  0.8475
13325TIP3   OH261465   5.997   1.714   0.941 -0.4708  0.0087  0.3906
13325TIP3    H161466   5.964   1.765   1.015 -1.3307  0.1961 -0.1063
13325TIP3    H261467   6.033   1.634   0.981 -2.3200 -0.6071  0.9171
13326TIP3   OH261468   5.065   3.485   3.810  0.0861  0.4080 -0.3822
13326TIP3    H161469   4.978   3.524   3.805 -0.0014  0.0576 -3.0144
13326TIP3    H261470   5.089   3.469   3.719  2.3072 -0.8588  0.3584
13327TIP3   OH261471   2.119   2.876  11.474 -0.2978 -0.3914  0.2225
13327TIP3    H161472   2.180   2.942  11.508  0.6024 -1.2695  0.3785
13327TIP3    H261473   2.108   2.815  11.547 -4.2094  1.5360  1.5469
13328TIP3   OH261474   2.703   6.274   4.938  0.1969 -0.0413  0.6436
13328TIP3    H161475   2.641   6.338   4.973  0.6874  1.6348 -1.3870
13328TIP3    H261476   2.782   6.288   4.990  0.7629  2.0921 -0.6409
13329TIP3   OH261477   2.089   6.063  16.107  0.3719  0.3906  0.2853
13329TIP3    H161478   2.121   5.977  16.081 -1.4905 -1.4814  3.5820
13329TIP3    H261479   2.152   6.094  16.172 -0.9794 -0.3919  2.0433
13330TIP3   OH261480   1.526   0.733  14.668 -0.2182  0.2547 -0.1536
13330TIP3    H161481   1.483   0.648  14.665 -0.0842  0.1392  0.8056
13330TIP3    H261482   1.581   0.735  14.590  1.4926 -1.4997  0.8872
13331TIP3   OH261483   4.373   0.281  14.028  0.0950 -0.0365 -0.7868
13331TIP3    H161484   4.433   0.268  13.955 -0.8561 -1.1315 -1.4031
13331TIP3    H261485   4.296   0.228  14.006 -1.2415  1.5718 -0.1816
13332TIP3   OH261486   4.210   3.671   1.729  0.2692  0.0117 -0.0718
13332TIP3    H161487   4.157   3.739   1.770 -0.1498  0.3381 -1.1349
13332TIP3    H261488   4.148   3.601   1.709  0.2543  0.3329 -1.1885
13333TIP3   OH261489   2.094   5.530  12.589  0.1748  0.3247 -0.1148
13333TIP3    H161490   2.039   5.588  12.642 -0.7769 -0.9031  0.2807
13333TIP3    H261491   2.115   5.457  12.647 -0.3688 -0.7385 -1.2234
13334TIP3   OH261492   1.523   1.155   1.394  0.0576 -0.0264  0.2547
13334TIP3    H161493   1.452   1.201   1.439  0.6564 -0.8454  2.1321
13334TIP3    H261494   1.478   1.100   1.329 -1.1274 -1.0535  1.8609
13335TIP3   OH261495   5.688   0.792  11.529 -0.4136 -0.2242  0.0669
13335TIP3    H161496   5.742   0.870  11.544  1.9589 -1.5182 -1.2076
13335TIP3    H261497   5.672   0.792  11.435  2.4777 -2.8819 -0.5833
13336TIP3   OH261498   4.087   2.167  16.998  0.1717  0.1199  0.5724
13336TIP3    H161499   4.087   2.262  17.012  1.7805  0.1717  0.4111
13336TIP3    H261500   4.144   2.154  16.923 -0.9100 -0.9073 -0.1023
13337TIP3   OH261501   3.411   3.468   4.047 -0.0457 -0.3238  0.3425
13337TIP3    H161502   3.421   3.559   4.074  3.2985 -0.0416 -1.2605
13337TIP3    H261503   3.443   3.417   4.121 -0.7288 -0.1549  0.7626
13338TIP3   OH261504   1.811   0.279   3.520 -0.0157  0.2614 -0.0009
13338TIP3    H161505   1.747   0.208   3.509  0.0530  0.0693  0.8036
13338TIP3    H261506   1.789   0.341   3.451 -0.6760 -0.0980 -0.1301
13339TIP3   OH261507   5.790   6.150  13.387 -0.6055  0.2403  0.2448
13339TIP3    H161508   5.735   6.226  13.408 -0.6482 -0.2725  2.1360
13339TIP3    H261509   5.757   6.120  13.303 -1.1663  1.7852 -0.1320
13340TIP3   OH261510   5.415   5.243  14.408 -0.1298  0.3157 -0.3330
13340TIP3    H161511   5.468   5.281  14.478  0.0411 -1.3337  0.4710
13340TIP3    H261512   5.446   5.153  14.400 -1.4063 -0.0716 -1.2719
13341TIP3   OH261513   5.407   5.134   2.583  0.1118  0.0438  0.2829
13341TIP3    H161514   5.424   5.188   2.660  0.7071 -0.6233  0.6321
13341TIP3    H261515   5.493   5.099   2.559  0.4268  2.2555 -2.2616
13342TIP3   OH261516   4.007   2.226   3.991 -0.0562 -0.4338  0.5507
13342TIP3    H161517   4.062   2.304   3.986  1.9515 -1.7910 -0.2837
13342TIP3    H261518   3.925   2.256   4.029  0.7732  1.9845  0.6038
13343TIP3   OH261519   3.636   1.737   4.022 -0.0989  0.3251 -0.0117
13343TIP3    H161520   3.591   1.701   3.946  1.3278  0.7467 -1.0969
13343TIP3    H261521   3.648   1.829   4.002 -0.2236  0.5757  0.9972
13344TIP3   OH261522   6.422   0.935   4.959 -0.2054 -0.0261 -0.1748
13344TIP3    H161523   6.463   0.886   4.887 -1.1957  1.0076 -1.4902
13344TIP3    H261524   6.337   0.894   4.970 -1.0519  1.3471 -1.3036
13345TIP3   OH261525   6.444   0.828  17.137 -0.3386 -0.4929  0.4830
13345TIP3    H161526   6.418   0.918  17.154  0.3275 -0.2626  0.3220
13345TIP3    H261527   6.414   0.779  17.214 -2.9422 -0.6164 -0.5029
13346TIP3   OH261528   6.206   3.649   0.321 -0.0795  0.3229 -0.5056
13346TIP3    H161529   6.249   3.568   0.295  0.2679 -0.2857  1.7933
13346TIP3    H261530   6.262   3.685   0.390 -1.4075  1.3400  0.0892
13347TIP3   OH261531   3.770   4.809   6.315  0.2733  0.0573 -0.2386
13347TIP3    H161532   3.723   4.728   6.300 -0.0789  0.5360 -1.9202
13347TIP3    H261533   3.847   4.803   6.257  1.2662  0.1098  1.0397
13348TIP3   OH261534   1.254   0.630   0.639  0.3873  0.2316  0.1489
13348TIP3    H161535   1.301   0.607   0.719 -0.0296  2.1247  0.9962
13348TIP3    H261536   1.169   0.587   0.648  0.4257  0.2530  0.6189
13349TIP3   OH261537   4.846   1.450  15.168 -0.7799  0.4057 -0.4169
13349TIP3    H161538   4.890   1.527  15.203  1.2217 -0.3830 -1.0358
13349TIP3    H261539   4.863   1.381  15.233  0.5950 -0.3759 -1.5481
13350TIP3   OH261540   4.927   0.679   0.166  0.0409 -0.0104 -0.3984
13350TIP3    H161541   4.840   0.716   0.183 -0.8693 -0.3642 -3.6756
13350TIP3    H261542   4.987   0.753   0.178 -0.6418  0.2832  1.7099
13351TIP3   OH261543   5.025   2.200  14.645  0.2816  0.1541  0.1794
13351TIP3    H161544   5.070   2.125  14.683 -1.2929 -1.1722 -0.4623
13351TIP3    H261545   4.951   2.163  14.597 -0.0811  2.0587 -0.8618
13352TIP3   OH261546   4.606   2.237  16.389  0.5252  0.2352  0.2181
13352TIP3    H161547   4.654   2.309  16.349 -0.2245 -0.6686 -2.4783
13352TIP3    H261548   4.662   2.208  16.462  2.0498  1.8386 -0.2645
13353TIP3   OH261549   4.975   5.975  13.665 -0.1161  0.0883 -0.5542
13353TIP3    H161550   4.949   5.908  13.602 -0.0494  0.5011 -1.0172
13353TIP3    H261551   4.964   5.932  13.750 -0.1715 -0.4794 -0.8423
13354TIP3   OH261552   1.986   1.693   6.464  0.1573  0.0744  0.0882
13354TIP3    H161553   1.896   1.678   6.495  1.2878 -2.0191  2.7625
13354TIP3    H261554   2.001   1.623   6.401  0.1059  0.0627  0.0885
13355TIP3   OH261555   3.778   1.800   1.700  0.0172  0.4587 -0.0731
13355TIP3    H161556   3.809   1.772   1.787 -2.1172 -0.7123  0.3729
13355TIP3    H261557   3.784   1.721   1.646 -0.6565  0.6181 -0.3910
13356TIP3   OH261558   5.013   2.552  13.377  0.1978 -0.3992  0.8924
13356TIP3    H161559   4.970   2.467  13.386  0.0750 -0.2763  1.5101
13356TIP3    H261560   5.105   2.534  13.397  0.4781 -0.6736 -0.4860
13357TIP3   OH261561   6.157   4.763  15.332  0.0237  0.0544 -1.0883
13357TIP3    H161562   6.214   4.826  15.376 -0.2382  0.2219 -0.9844
13357TIP3    H261563   6.119   4.812  15.259 -0.9340  0.3133 -0.4376
13358TIP3   OH261564   0.598   3.692  10.974  0.5019 -0.6692  0.1765
13358TIP3    H161565   0.533   3.673  11.041  1.2964 -2.0622  0.5816
13358TIP3    H261566   0.556   3.759  10.919 -0.6137 -0.3482  1.3573
13359TIP3   OH261567   3.616   2.039  13.678  0.3604  0.8367 -0.2595
13359TIP3    H161568   3.556   2.030  13.604  0.8522  2.6178 -0.9087
13359TIP3    H261569   3.704   2.036  13.639  0.7091 -0.4188  0.5317
13360TIP3   OH261570   3.625   2.716  11.979 -0.1365  0.0603  0.7326
13360TIP3    H161571   3.550   2.691  12.033  0.8107 -1.1311  1.5631
13360TIP3    H261572   3.597   2.796  11.935 -2.8525 -1.6555 -0.9602
13361TIP3   OH261573   5.046   4.197   5.316  0.4371  0.2313 -0.0219
13361TIP3    H161574   5.042   4.241   5.402  1.4542 -0.9477  0.6595
13361TIP3    H261575   5.043   4.104   5.337 -1.5783 -0.0834 -1.4451
13362TIP3   OH261576   6.670   6.019   4.623  0.2749  0.4960  0.3661
13362TIP3    H161577   6.604   6.053   4.683 -0.6275  0.7205 -0.7110
13362TIP3    H261578   6.701   5.939   4.664 -2.2219 -0.7963 -0.0683
13363TIP3   OH261579   4.475   2.863  16.622  0.5687 -0.2104  0.2559
13363TIP3    H161580   4.396   2.915  16.638 -1.0595 -1.9716 -1.3739
13363TIP3    H261581   4.454   2.812  16.543  2.2336 -2.8576  1.3743
13364TIP3   OH261582   4.665   4.769  12.622 -0.5623 -0.3828  0.0116
13364TIP3    H161583   4.586   4.754  12.673 -0.1647  0.7144  0.9911
13364TIP3    H261584   4.711   4.685  12.623 -1.1186 -0.6837  0.4780
13365TIP3   OH261585   3.605   3.290  10.054  0.6952 -0.4158  0.2287
13365TIP3    H161586   3.626   3.201  10.081 -0.0345 -0.5212  0.4716
13365TIP3    H261587   3.542   3.320  10.120 -1.0818 -0.6577 -1.2975
13366TIP3   OH261588   5.808   3.805  16.033  0.3289  0.0749  0.5307
13366TIP3    H161589   5.757   3.886  16.039 -0.9677 -0.7147  0.5525
13366TIP3    H261590   5.897   3.831  16.055 -0.3327  1.2411  2.0499
13367TIP3   OH261591   5.168   0.901   3.223  0.2551 -0.5992  0.4058
13367TIP3    H161592   5.123   0.836   3.278  1.2347 -2.2980 -0.6990
13367TIP3    H261593   5.181   0.857   3.140 -1.0195  1.8522 -1.1983
13368TIP3   OH261594   0.578   3.086  10.719 -0.4944  0.1372 -0.2300
13368TIP3    H161595   0.483   3.082  10.705 -0.5380 -1.1086  0.2708
13368TIP3    H261596   0.607   2.995  10.712  0.2942  0.1537  2.0582
13369TIP3   OH261597   0.847   6.747   2.214  0.1023  0.5773  0.0234
13369TIP3    H161598   0.882   6.835   2.230 -0.3279  0.6644  0.5409
13369TIP3    H261599   0.841   6.740   2.119  1.0520  0.7409 -0.0559
13370TIP3   OH261600   0.880   3.666   0.012  0.7256 -0.1741  0.7416
13370TIP3    H161601   0.834   3.648  -0.070 -0.6479  1.4175  1.1134
13370TIP3    H261602   0.966   3.698  -0.016  1.1642 -1.8839  0.0042
13371TIP3   OH261603   3.674   6.233   5.451 -0.2084 -0.1956  0.1488
13371TIP3    H161604   3.726   6.304   5.489  0.5770 -0.6666 -0.0398
13371TIP3    H261605   3.738   6.171   5.418 -0.8945 -0.9282  0.1728
13372TIP3   OH261606   2.991   1.510   2.831  0.0144 -0.2296 -0.0672
13372TIP3    H161607   3.072   1.555   2.853 -0.6504  0.0076  2.1837
13372TIP3    H261608   2.923   1.559   2.877 -1.0042 -2.1805  0.6330
13373TIP3   OH261609   0.786   2.287  13.791  0.5126 -0.4669 -0.2990
13373TIP3    H161610   0.871   2.266  13.828  0.2990 -0.6508  0.0984
13373TIP3    H261611   0.758   2.207  13.747  0.4608 -0.4668 -0.2665
13374TIP3   OH261612   2.578   3.971   1.929  0.4388 -0.0467  0.3633
13374TIP3    H161613   2.607   3.968   1.838  2.8712  0.2053  1.0436
13374TIP3    H261614   2.538   3.885   1.945 -0.7912  0.2138 -1.1208
13375TIP3   OH261615   5.983   0.860   1.447 -0.0344  0.2409  0.5040
13375TIP3    H161616   5.994   0.954   1.459 -0.5593  0.3651  0.0637
13375TIP3    H261617   5.894   0.842   1.477 -0.0697 -0.0529  0.2329
13376TIP3   OH261618   4.415   1.110  16.922 -0.2367 -0.1442 -1.2125
13376TIP3    H161619   4.335   1.102  16.869 -0.2573 -0.4414 -1.1400
13376TIP3    H261620   4.479   1.149  16.864 -0.7448  1.1292 -0.9534
13377TIP3   OH261621   4.247   3.145   1.739  0.0412 -0.0442  0.4266
13377TIP3    H161622   4.335   3.155   1.702  1.5248 -1.8291  3.0617
13377TIP3    H261623   4.198   3.221   1.707  2.1146  0.3195 -2.1950
13378TIP3   OH261624   2.422   1.471   4.322  0.3822  0.7163 -0.1200
13378TIP3    H161625   2.336   1.513   4.319 -0.0541 -0.1078  0.5737
13378TIP3    H261626   2.420   1.407   4.251 -1.2987 -2.4456  2.5057
13379TIP3   OH261627   6.056   0.995   3.731 -0.4890  0.2609  0.3068
13379TIP3    H161628   6.053   1.077   3.681 -2.5282  0.4665  0.6623
13379TIP3    H261629   5.971   0.954   3.714  0.1084 -1.3088  0.9431
13380TIP3   OH261630   5.400   2.551   1.943  0.6380  0.3443 -0.4540
13380TIP3    H161631   5.347   2.518   1.870  0.3786 -2.1235  0.7437
13380TIP3    H261632   5.491   2.533   1.916  0.5128 -1.2650  0.0636
13381TIP3   OH261633   4.545   2.993  15.002 -0.6514 -0.4565 -0.0825
13381TIP3    H161634   4.562   3.052  15.074 -0.2149 -1.1797  0.4239
13381TIP3    H261635   4.559   3.045  14.923 -1.3276  0.3916  0.3481
13382TIP3   OH261636   6.047   4.889   2.430 -0.2375 -0.0632 -0.0130
13382TIP3    H161637   6.102   4.950   2.479  1.4590 -0.0586 -1.7986
13382TIP3    H261638   6.090   4.882   2.345 -2.7906 -0.4472 -1.3360
13383TIP3   OH261639   5.344   6.505  15.620 -0.1739  0.1166  0.0978
13383TIP3    H161640   5.288   6.441  15.575 -0.3941 -0.3591  1.0106
13383TIP3    H261641   5.337   6.481  15.712 -0.2409  1.4658  0.4596
13384TIP3   OH261642   3.106   6.377  12.374  0.8580 -0.6198 -0.7907
13384TIP3    H161643   3.096   6.379  12.469  2.9041 -0.9066 -0.5396
13384TIP3    H261644   3.177   6.438  12.355  1.1164 -1.2679 -2.0444
13385TIP3   OH261645   6.429   4.060   5.595  0.2937 -0.0541 -0.3196
13385TIP3    H161646   6.361   4.017   5.544 -2.3529  0.7830  2.2257
13385TIP3    H261647   6.409   4.153   5.589  1.0171  0.1930  0.7488
13386TIP3   OH261648   0.731   6.335   1.018  0.0488  0.3839 -0.1642
13386TIP3    H161649   0.755   6.290   1.099 -2.3085 -0.2231  0.2972
13386TIP3    H261650   0.765   6.279   0.948  0.8609  0.1575  0.3995
13387TIP3   OH261651   2.002   6.236   3.449 -0.1827  0.6717  0.2056
13387TIP3    H161652   1.966   6.234   3.538 -2.0471 -2.3685 -0.4862
13387TIP3    H261653   2.095   6.216   3.462 -0.6110 -0.7704  1.4834
13388TIP3   OH261654   0.864   5.821   2.010 -0.3656  0.1961  0.1791
13388TIP3    H161655   0.869   5.739   2.058 -0.7139 -0.9787 -1.6750
13388TIP3    H261656   0.954   5.836   1.980 -0.5219 -0.1548 -0.4786
13389TIP3   OH261657   5.234   4.636   3.433 -0.7819 -0.3203 -0.5488
13389TIP3    H161658   5.213   4.558   3.485  0.9387  0.0724  0.7975
13389TIP3    H261659   5.306   4.609   3.377  0.4267  0.5135  0.5591
13390TIP3   OH261660   1.785   1.128  13.733  0.6487 -0.0165 -0.4022
13390TIP3    H161661   1.778   1.125  13.638  0.9944 -1.0314 -0.4125
13390TIP3    H261662   1.794   1.221  13.754  0.0935  0.2591 -1.3155
13391TIP3   OH261663   3.412   4.157   3.736 -0.2417  0.3162 -0.3835
13391TIP3    H161664   3.400   4.101   3.659 -0.0552  0.8194 -0.7910
13391TIP3    H261665   3.323   4.168   3.772 -0.0290 -2.0143  1.0162
13392TIP3   OH261666   4.723   0.073  15.273  0.1296  0.1658 -0.0378
13392TIP3    H161667   4.726   0.167  15.257 -1.1369  0.1251 -0.6502
13392TIP3    H261668   4.632   0.055  15.295  1.0058 -0.3674  3.9354
13393TIP3   OH261669   6.529   4.881  15.749  0.3410  0.9851 -0.1067
13393TIP3    H161670   6.530   4.786  15.760  0.8444  0.9906 -0.0484
13393TIP3    H261671   6.511   4.894  15.656  0.9220  0.8074 -0.2537
13394TIP3   OH261672   2.522   3.850   2.574 -0.2008  0.7569 -0.0714
13394TIP3    H161673   2.571   3.849   2.657  0.3705  1.9843 -0.3718
13394TIP3    H261674   2.434   3.824   2.599 -0.2206  1.7857  1.0720
13395TIP3   OH261675   1.220   0.291   4.662  0.4880 -0.2892 -0.6955
13395TIP3    H161676   1.208   0.211   4.713  0.4343 -0.3708 -0.8350
13395TIP3    H261677   1.132   0.329   4.655  0.6845  0.3996  0.3719
13396TIP3   OH261678   1.347   0.336   0.116 -0.3302 -0.2993  0.4691
13396TIP3    H161679   1.355   0.430   0.098  3.7922 -0.7550 -1.1390
13396TIP3    H261680   1.286   0.304   0.049  0.5559  0.8445 -0.9433
13397TIP3   OH261681   6.596   0.878  13.831  0.3367 -0.4997 -0.1768
13397TIP3    H161682   6.644   0.909  13.908  0.1439 -0.4496 -0.0763
13397TIP3    H261683   6.506   0.908  13.845  0.2902 -0.5334 -0.3975
13398TIP3   OH261684   6.193   3.110  11.486  0.7728  0.3622  0.0825
13398TIP3    H161685   6.232   3.084  11.569  0.6399 -0.0418  0.0155
13398TIP3    H261686   6.104   3.138  11.508  0.8582  0.6019  0.1291
13399TIP3   OH261687   1.297   6.149  16.471 -0.3268 -0.3761  0.5890
13399TIP3    H161688   1.218   6.115  16.513 -2.1355  0.2088 -2.0840
13399TIP3    H261689   1.345   6.071  16.445  0.3680 -0.7428  2.7708
13400TIP3   OH261690   6.251   2.496  16.780 -0.1861  0.3953 -0.3292
13400TIP3    H161691   6.250   2.431  16.710  0.4559 -0.6933  0.6276
13400TIP3    H261692   6.330   2.475  16.831 -0.5658  1.2308  0.6414
13401TIP3   OH261693   4.174   4.700   1.513 -0.1629 -0.1595  0.5287
13401TIP3    H161694   4.180   4.663   1.601  1.4630  1.7893  1.3103
13401TIP3    H261695   4.223   4.639   1.458  1.3373  0.0939  1.5344
13402TIP3   OH261696   2.184   5.074  12.970  0.2872  0.7454 -0.1740
13402TIP3    H161697   2.098   5.118  12.974  0.3874  0.9884 -0.6011
13402TIP3    H261698   2.181   5.010  13.041  0.5053  2.0987  1.1084
13403TIP3   OH261699   4.951   4.815  13.863  0.2261 -0.4397  0.4913
13403TIP3    H161700   4.919   4.902  13.885  2.9944  1.1659 -1.3358
13403TIP3    H261701   4.904   4.792  13.783 -0.2288 -0.4778  0.7658
13404TIP3   OH261702   5.964   5.287   1.064  0.4105 -0.3706 -0.1431
13404TIP3    H161703   5.959   5.192   1.063  0.0056 -0.3593  0.4284
13404TIP3    H261704   5.940   5.312   1.153  1.9214  0.2110  0.1219
13405TIP3   OH261705   4.717   2.803  16.257 -0.8807  0.4854  0.0242
13405TIP3    H161706   4.686   2.753  16.182 -1.3716  1.4288 -0.4202
13405TIP3    H261707   4.734   2.737  16.325  0.6938 -0.5201 -1.2637
13406TIP3   OH261708   2.547   2.404   0.197  0.9791  0.1252  0.4026
13406TIP3    H161709   2.641   2.399   0.218  0.2496 -0.9897  4.1298
13406TIP3    H261710   2.520   2.312   0.191  0.3441  0.4204 -2.3427
13407TIP3   OH261711   6.603   2.681  12.633 -0.6709  0.4097  0.9757
13407TIP3    H161712   6.670   2.617  12.659  1.5951  2.2459 -0.0142
13407TIP3    H261713   6.526   2.627  12.613  0.5385 -1.8330  1.9418
13408TIP3   OH261714   1.727   0.934  12.655 -0.2792 -0.8510 -0.0342
13408TIP3    H161715   1.762   0.888  12.579 -0.0319 -1.5543  0.4926
13408TIP3    H261716   1.763   1.022  12.649  1.1774 -1.4075  0.2158
13409TIP3   OH261717   2.980   3.187  13.205 -0.2091 -0.6598  0.2753
13409TIP3    H161718   2.959   3.275  13.175  1.6164 -0.2176  0.1659
13409TIP3    H261719   3.074   3.190  13.225 -0.3211 -2.3029  1.2520
13410TIP3   OH261720   6.123   0.127   4.903 -0.0878  0.0250  0.2865
13410TIP3    H161721   6.110   0.127   4.998  0.5580 -0.1732  0.3758
13410TIP3    H261722   6.037   0.151   4.868 -0.5311 -0.6380  0.8914
13411TIP3   OH261723   1.680   0.631   2.294  0.6102 -0.1500 -0.2964
13411TIP3    H161724   1.668   0.536   2.297  2.3742 -0.4544 -1.6144
13411TIP3    H261725   1.616   0.661   2.230  1.1278 -0.6829 -1.0894
13412TIP3   OH261726   2.211   0.783  16.086  0.4766  0.1656  0.0620
13412TIP3    H161727   2.255   0.752  16.007  1.5556 -0.8962  1.0352
13412TIP3    H261728   2.249   0.869  16.103 -0.9934  1.1930 -1.4706
13413TIP3   OH261729   0.037   6.210  13.314  0.2746  0.0272  0.1566
13413TIP3    H161730  -0.049   6.252  13.310  0.2165 -0.1795 -1.3242
13413TIP3    H261731   0.038   6.165  13.399 -0.6224  0.9753  0.6839
13414TIP3   OH261732   2.282   0.376   4.336  0.0170  0.1541  0.1154
13414TIP3    H161733   2.289   0.300   4.394  0.5583  0.1451  0.0474
13414TIP3    H261734   2.238   0.344   4.258 -0.5290  0.1156  0.4363
13415TIP3   OH261735   4.549   5.982   2.339 -0.0049 -0.1066 -0.5057
13415TIP3    H161736   4.566   5.933   2.258 -2.0767  2.1215 -2.4969
13415TIP3    H261737   4.630   6.029   2.356 -0.0518  0.8537 -2.5197
13416TIP3   OH261738   4.842   2.888   0.568 -0.0843  0.0295 -0.3634
13416TIP3    H161739   4.860   2.853   0.481 -0.6337 -0.8211 -0.1437
13416TIP3    H261740   4.898   2.837   0.627 -1.2812 -0.8900  0.0226
13417TIP3   OH261741   2.063   2.255  15.426 -0.0502  0.3760 -0.7128
13417TIP3    H161742   2.085   2.212  15.508 -1.3815  0.7896 -0.1238
13417TIP3    H261743   1.993   2.202  15.389  0.2073  0.4718 -1.3558
13418TIP3   OH261744   3.082   3.783   4.968  0.3484  0.0119 -0.0252
13418TIP3    H161745   3.172   3.781   4.936  0.2196 -0.3821 -0.3709
13418TIP3    H261746   3.029   3.778   4.889  0.0268 -0.2889  0.2090
13419TIP3   OH261747   0.097   1.275  11.492 -0.1043 -0.6216  0.0390
13419TIP3    H161748   0.191   1.285  11.504  0.1823 -2.2793 -0.4706
13419TIP3    H261749   0.067   1.234  11.574 -0.2041 -1.0163 -0.1931
13420TIP3   OH261750   0.193   5.876  14.181 -0.2174 -0.0648  0.6057
13420TIP3    H161751   0.250   5.804  14.154 -0.0457 -0.0435  0.9093
13420TIP3    H261752   0.224   5.952  14.133  0.5240  0.1267  1.3664
13421TIP3   OH261753   1.322   0.595  11.917 -0.3975 -0.3077 -0.3728
13421TIP3    H161754   1.307   0.649  11.995  1.8231 -1.0852  0.6851
13421TIP3    H261755   1.281   0.643  11.846 -3.2171  0.0750  1.3403
13422TIP3   OH261756   3.980   2.738  11.363  0.1993  0.2889 -0.1890
13422TIP3    H161757   3.934   2.702  11.287 -1.3393 -0.0650  0.8669
13422TIP3    H261758   3.948   2.687  11.437  0.1385  1.9244  0.9735
13423TIP3   OH261759   3.192   1.570   6.869 -0.0182  0.0624 -0.8803
13423TIP3    H161760   3.151   1.485   6.888  1.4852 -0.4417  0.3060
13423TIP3    H261761   3.277   1.547   6.832  1.7787  0.9183  2.3526
13424TIP3   OH261762   4.842   0.323  12.566 -0.3814  0.0294  0.5396
13424TIP3    H161763   4.760   0.367  12.586  0.5772  1.6203  1.1636
13424TIP3    H261764   4.886   0.316  12.651 -0.1611 -1.4795  0.3330
13425TIP3   OH261765   6.461   1.228   4.738  0.0559 -0.1551 -0.7909
13425TIP3    H161766   6.465   1.192   4.827  0.5788  3.3963  0.7745
13425TIP3    H261767   6.553   1.238   4.714 -0.0886 -0.0377 -1.2868
13426TIP3   OH261768   1.490   5.514   3.546  0.1461  0.1591  0.8230
13426TIP3    H161769   1.509   5.588   3.488 -0.3504  1.4659  2.2693
13426TIP3    H261770   1.576   5.481   3.571  0.3699 -0.0267 -0.1222
13427TIP3   OH261771   3.118   3.390   4.172  0.0499 -0.2058 -1.4411
13427TIP3    H161772   3.213   3.389   4.184  0.2842  0.0047 -3.0289
13427TIP3    H261773   3.092   3.298   4.171  0.4301 -0.3083 -2.2633
13428TIP3   OH261774   5.963   0.111   3.551 -0.6075 -1.0336 -0.4479
13428TIP3    H161775   6.032   0.152   3.604  1.8057 -1.7587 -2.8238
13428TIP3    H261776   5.901   0.077   3.616  0.2983  1.1783  1.7601
13429TIP3   OH261777   0.007   0.075   5.957  0.4279 -0.6722 -0.2116
13429TIP3    H161778  -0.001   0.159   5.912  2.3358  0.6862  1.7739
13429TIP3    H261779  -0.059   0.079   6.027  1.1215 -0.4193  0.4383
13430TIP3   OH261780   5.670   5.621   4.095 -0.1281  0.1928 -0.0388
13430TIP3    H161781   5.729   5.696   4.092 -2.3115  2.0504  0.9124
13430TIP3    H261782   5.661   5.602   4.189 -1.9597  0.7763 -0.0582
13431TIP3   OH261783   1.243   1.592   6.133  0.1907  0.0469 -0.3618
13431TIP3    H161784   1.257   1.641   6.214  1.8160  0.7846 -1.0501
13431TIP3    H261785   1.304   1.518   6.139  0.1067 -0.0561 -0.7765
13432TIP3   OH261786   5.275   4.894  15.960  0.3196  0.0687  0.9953
13432TIP3    H161787   5.348   4.892  15.897  0.6418  0.0025  1.3669
13432TIP3    H261788   5.284   4.979  16.004  0.1601  0.0665  1.0323
13433TIP3   OH261789   4.610   5.121  14.939  0.0833  0.4902  0.6386
13433TIP3    H161790   4.608   5.027  14.921 -1.4021  0.6031  0.1209
13433TIP3    H261791   4.584   5.161  14.857  0.6065  1.3623  0.8916
13434TIP3   OH261792   1.132   2.488   2.990  0.2947 -0.2173  0.4522
13434TIP3    H161793   1.224   2.465   3.000 -0.0200 -1.2949  1.0278
13434TIP3    H261794   1.087   2.404   2.987 -0.6811  0.3020  0.2513
13435TIP3   OH261795   3.305   2.789   5.243  0.1317 -0.3493 -0.3166
13435TIP3    H161796   3.380   2.752   5.288  0.5020  2.4297  1.5869
13435TIP3    H261797   3.229   2.756   5.290  0.4211  0.7445  0.9522
13436TIP3   OH261798   0.378   1.437  12.430  0.1179 -0.1582 -0.1058
13436TIP3    H161799   0.378   1.529  12.402 -1.2610 -0.2111 -0.3515
13436TIP3    H261800   0.381   1.441  12.525 -0.6912  0.1803 -0.0817
13437TIP3   OH261801   2.803   1.879   4.303 -0.5640  0.0302 -0.4111
13437TIP3    H161802   2.848   1.934   4.239 -3.3098  0.5121 -2.1143
13437TIP3    H261803   2.780   1.800   4.254  2.0503 -2.1606  1.6047
13438TIP3   OH261804   4.344   0.720  11.597  0.6070  0.0763  0.6703
13438TIP3    H161805   4.302   0.640  11.629  0.4781 -1.2893 -2.4712
13438TIP3    H261806   4.437   0.706  11.611  0.5061 -0.1521  1.1183
13439TIP3   OH261807   5.438   6.657  11.540 -0.0089  0.0443  0.3313
13439TIP3    H161808   5.352   6.685  11.507 -0.0711  1.1312  1.3661
13439TIP3    H261809   5.499   6.682  11.471 -0.2476  1.4691  0.6053
13440TIP3   OH261810   4.748   6.547   1.728 -0.0838 -0.7569  0.4818
13440TIP3    H161811   4.698   6.474   1.764 -1.3848 -0.3654 -0.4699
13440TIP3    H261812   4.757   6.607   1.802 -2.2439 -0.2151  0.3763
13441TIP3   OH261813   2.916   2.265  15.651  0.0160  0.1749 -0.0339
13441TIP3    H161814   2.993   2.225  15.692 -0.7007 -1.4685 -0.1844
13441TIP3    H261815   2.846   2.252  15.715 -0.9537 -1.7725 -1.3618
13442TIP3   OH261816   2.865   6.214   0.616 -0.4082  0.3793 -0.4279
13442TIP3    H161817   2.933   6.281   0.613 -0.3772  0.3308 -0.9776
13442TIP3    H261818   2.807   6.236   0.543 -0.1626 -0.4240 -0.8881
13443TIP3   OH261819   3.852   1.517   2.450 -0.2952  0.2772  0.0494
13443TIP3    H161820   3.790   1.538   2.380 -2.3984  0.3795  1.8234
13443TIP3    H261821   3.937   1.542   2.415 -1.1927  0.0250 -2.5624
13444TIP3   OH261822   2.800   6.311  14.132  0.2219  0.2705 -0.7837
13444TIP3    H161823   2.798   6.358  14.216 -0.6099 -1.6166  0.3228
13444TIP3    H261824   2.870   6.353  14.083  0.1387  2.0239  0.4933
13445TIP3   OH261825   4.273   2.404  13.905 -0.3363 -0.1236 -0.1933
13445TIP3    H161826   4.282   2.491  13.943 -1.1890  0.1266 -0.5342
13445TIP3    H261827   4.298   2.415  13.813  0.2826 -0.4019 -0.0584
13446TIP3   OH261828   6.116   0.740   0.878  0.4721 -0.0409  0.4165
13446TIP3    H161829   6.039   0.764   0.826  1.0356  0.1092 -0.3641
13446TIP3    H261830   6.170   0.818   0.878  0.5796 -0.1124  1.0582
13447TIP3   OH261831   4.415   4.967  16.179  0.3466  0.5773  0.1874
13447TIP3    H161832   4.440   5.014  16.259 -1.2460  0.1294  0.9859
13447TIP3    H261833   4.327   4.935  16.197  0.1046  0.1422 -1.6255
13448TIP3   OH261834   4.196   6.687  14.361 -0.0930  0.6239 -0.8981
13448TIP3    H161835   4.196   6.630  14.285  0.3240 -0.0148 -0.4307
13448TIP3    H261836   4.142   6.641  14.426  0.3945  0.6712 -0.4532
13449TIP3   OH261837   5.581   4.051  13.106 -0.3324  0.4090 -0.0953
13449TIP3    H161838   5.603   3.963  13.077  0.6201  0.7476 -0.4411
13449TIP3    H261839   5.549   4.040  13.196  1.9478 -0.0677  0.7336
13450TIP3   OH261840   5.400   6.596  13.412 -0.5130  0.5738  0.5839
13450TIP3    H161841   5.389   6.511  13.370 -3.2498  0.3221  1.6390
13450TIP3    H261842   5.440   6.575  13.497  1.2919  0.6927 -0.1762
13451TIP3   OH261843   0.048   6.655   2.451 -0.5300 -0.8383 -0.6306
13451TIP3    H161844  -0.005   6.714   2.397  0.3016  0.9398  0.4141
13451TIP3    H261845   0.038   6.569   2.409 -2.3841 -0.1261 -1.7729
13452TIP3   OH261846   2.900   5.919   2.905  0.5791  0.1764  0.1079
13452TIP3    H161847   2.983   5.925   2.953  1.0671 -2.4729 -0.2599
13452TIP3    H261848   2.837   5.966   2.960  1.5220 -1.0287  2.3399
13453TIP3   OH261849   1.531   6.200  15.858 -0.1969  0.5977 -0.4144
13453TIP3    H161850   1.545   6.251  15.779 -0.3285 -0.8955 -1.4410
13453TIP3    H261851   1.602   6.227  15.917  1.7474 -0.4003 -2.1738
13454TIP3   OH261852   4.946   5.808   1.729 -0.3464 -0.2218 -0.0790
13454TIP3    H161853   4.928   5.722   1.765  0.0981  0.5931  2.2881
13454TIP3    H261854   5.024   5.796   1.674 -1.5165 -1.6679 -1.4886
13455TIP3   OH261855   0.003   3.137   6.182  0.6698 -0.0446  0.5109
13455TIP3    H161856   0.045   3.060   6.143 -0.3708  0.8032 -2.6275
13455TIP3    H261857  -0.080   3.104   6.216  0.7496 -0.5241  0.2564
13456TIP3   OH261858   5.487   2.926   5.725 -0.1289  0.4548 -0.2202
13456TIP3    H161859   5.565   2.967   5.764  0.1627 -0.4260  0.1388
13456TIP3    H261860   5.495   2.945   5.631 -1.8830  4.3978  0.2081
13457TIP3   OH261861   3.451   0.713   2.529 -0.3546 -0.2084 -0.5225
13457TIP3    H161862   3.379   0.746   2.582 -1.5398 -1.1943 -1.4801
13457TIP3    H261863   3.490   0.791   2.489  0.9593  0.6586  2.1650
13458TIP3   OH261864   1.665   0.071   1.624  0.5027 -0.2287 -0.1315
13458TIP3    H161865   1.748   0.037   1.655  0.4140 -1.2660 -0.9933
13458TIP3    H261866   1.615   0.090   1.704 -0.0943 -3.6992  0.4819
13459TIP3   OH261867   3.267   3.305   4.641 -0.5734  0.4506 -0.0202
13459TIP3    H161868   3.186   3.257   4.653 -0.2420 -0.3414 -0.8685
13459TIP3    H261869   3.323   3.278   4.715  0.0812 -1.4853 -1.1703
13460TIP3   OH261870   4.208   0.230   0.623 -0.5022  0.2943 -0.1485
13460TIP3    H161871   4.223   0.139   0.650  1.3066 -0.2247 -2.5386
13460TIP3    H261872   4.131   0.226   0.566 -0.7735  0.3932  0.2031
13461TIP3   OH261873   1.722   4.058  12.728  0.2726 -0.1519  0.1711
13461TIP3    H161874   1.794   4.091  12.782  0.0108 -3.7134  3.0861
13461TIP3    H261875   1.659   4.130  12.727  2.4365  1.8882  0.2597
13462TIP3   OH261876   1.824   3.390  13.999 -0.2574 -0.2429  0.2929
13462TIP3    H161877   1.778   3.469  13.969  0.5686  0.1147 -0.0740
13462TIP3    H261878   1.789   3.373  14.086  0.8467  1.6276  1.1635
13463TIP3   OH261879   3.275   4.369  13.761  0.0711  0.4839 -0.5854
13463TIP3    H161880   3.225   4.326  13.830  0.2903 -2.0591 -1.9184
13463TIP3    H261881   3.366   4.349  13.780  0.2609  1.1480 -0.7528
13464TIP3   OH261882   1.269   0.224  13.384  0.4585  0.0220  0.6602
13464TIP3    H161883   1.315   0.167  13.446 -1.7682 -0.6646  1.8029
13464TIP3    H261884   1.300   0.312  13.404  2.0703 -0.4880  0.5935
13465TIP3   OH261885   1.801   1.066   5.593 -0.3846 -0.1406  0.0596
13465TIP3    H161886   1.741   1.079   5.666  1.9144  0.3853  1.9561
13465TIP3    H261887   1.876   1.021   5.631  2.2394  2.8221 -1.2161
13466TIP3   OH261888   6.447   3.903   1.136  0.3499 -0.3307 -0.0808
13466TIP3    H161889   6.472   3.881   1.046  0.3112 -0.4441 -0.0641
13466TIP3    H261890   6.530   3.903   1.184  0.1772 -2.0943  0.2681
13467TIP3   OH261891   6.566   1.956  10.921  0.3732 -0.3790  0.4117
13467TIP3    H161892   6.501   1.993  10.861  1.6795  0.7362 -0.3725
13467TIP3    H261893   6.618   1.897  10.867 -0.0068 -1.3095  1.0455
13468TIP3   OH261894   0.598   5.486  13.883 -0.7527  0.1443 -0.2994
13468TIP3    H161895   0.676   5.518  13.836 -0.9530 -2.6871 -2.9102
13468TIP3    H261896   0.629   5.409  13.930 -1.7162 -0.3341 -0.4271
13469TIP3   OH261897   6.269   4.869   4.024 -0.1604 -0.4880  0.7547
13469TIP3    H161898   6.252   4.932   4.094 -0.4253 -0.8031  0.9773
13469TIP3    H261899   6.343   4.905   3.977  0.3712 -0.5412  1.5315
13470TIP3   OH261900   4.180   3.029   1.215 -0.2787 -0.3339  0.1552
13470TIP3    H161901   4.254   2.972   1.195 -0.0733  0.2796 -0.9172
13470TIP3    H261902   4.129   3.031   1.134 -2.2550 -1.8574  1.2657
13471TIP3   OH261903   6.837   1.079  15.308 -0.2181 -0.5639 -0.4378
13471TIP3    H161904   6.767   1.036  15.356 -0.7275  0.2407 -0.4364
13471TIP3    H261905   6.798   1.101  15.223 -0.0641  0.1487 -0.3289
13472TIP3   OH261906   4.852   6.556  17.041 -0.1005  0.2719 -0.5206
13472TIP3    H161907   4.859   6.467  17.005 -1.8122  0.4956 -1.4904
13472TIP3    H261908   4.821   6.543  17.131  0.3570 -0.1232 -0.4134
13473TIP3   OH261909   3.238   4.215   2.143  0.1096  0.5805 -0.0463
13473TIP3    H161910   3.205   4.193   2.056 -1.7766  3.1030 -0.0779
13473TIP3    H261911   3.274   4.303   2.134 -0.1347  0.9029  1.7025
13474TIP3   OH261912   4.959   6.043  11.918 -0.8496 -0.6283  0.4315
13474TIP3    H161913   5.053   6.054  11.905 -0.8996 -0.6761  0.0249
13474TIP3    H261914   4.944   6.076  12.007 -0.6093  0.3164  0.1366
13475TIP3   OH261915   3.859   5.391   1.263 -0.4165  0.0029  0.6309
13475TIP3    H161916   3.814   5.466   1.223  0.0612 -0.4720 -0.8710
13475TIP3    H261917   3.836   5.317   1.207  1.8036 -0.3482  0.1227
13476TIP3   OH261918   1.602   0.510   1.260  0.1397  0.2954 -0.9870
13476TIP3    H161919   1.548   0.456   1.202  0.1609  0.6069 -1.2981
13476TIP3    H261920   1.681   0.458   1.275 -0.0964 -0.0162 -0.8019
13477TIP3   OH261921   1.185   5.308   4.622 -0.2048 -0.2156 -0.2672
13477TIP3    H161922   1.202   5.231   4.569  0.4880 -1.6630  1.9013
13477TIP3    H261923   1.187   5.276   4.712 -0.5252  2.2337  0.7012
13478TIP3   OH261924   4.222   2.095  15.661 -0.3912 -0.0502 -0.6258
13478TIP3    H161925   4.135   2.059  15.679 -0.5759 -0.0783 -1.5421
13478TIP3    H261926   4.206   2.187  15.637  0.1066  0.8425  2.0619
13479TIP3   OH261927   3.593   2.203  13.074 -0.2823  0.0128  0.5497
13479TIP3    H161928   3.564   2.294  13.066  0.6498  0.3172  0.5249
13479TIP3    H261929   3.659   2.204  13.144 -1.2631 -0.9012  1.5233
13480TIP3   OH261930   0.613   2.355   4.339  0.8615 -0.2806  0.4878
13480TIP3    H161931   0.630   2.442   4.375 -0.4348  0.1904  0.0093
13480TIP3    H261932   0.576   2.371   4.253 -0.5849 -1.2642  0.8816
13481TIP3   OH261933   5.118   4.302  11.496  0.0771  0.1359  0.3720
13481TIP3    H161934   5.152   4.334  11.412  1.3457 -1.3554  0.2586
13481TIP3    H261935   5.030   4.338  11.501  0.3776  1.2052 -1.0577
13482TIP3   OH261936   6.495   5.289  11.290  0.0283  0.1717  0.4130
13482TIP3    H161937   6.432   5.247  11.348  0.0376 -1.4773 -0.6837
13482TIP3    H261938   6.449   5.300  11.207  0.6393  0.5546  0.1118
13483TIP3   OH261939   0.113   2.809   2.397  0.2587 -0.2764 -0.1020
13483TIP3    H161940   0.079   2.854   2.319  0.5224  0.7459  0.3536
13483TIP3    H261941   0.113   2.716   2.373 -0.7491 -0.0895 -0.9077
13484TIP3   OH261942   6.513   6.079  11.898  0.0805 -0.5823  0.3883
13484TIP3    H161943   6.437   6.031  11.864  0.9129 -1.3490 -0.4708
13484TIP3    H261944   6.484   6.170  11.902 -0.1991 -0.4833 -2.1419
13485TIP3   OH261945   1.348   0.944   3.935  0.4867 -0.6262 -0.1663
13485TIP3    H161946   1.408   0.908   4.000  0.5605  0.3442  0.3243
13485TIP3    H261947   1.292   1.003   3.984 -0.0770 -0.5949 -0.8292
13486TIP3   OH261948   1.327   0.543  13.390 -0.1676  0.9113 -0.3882
13486TIP3    H161949   1.254   0.551  13.451 -0.4083  0.6036 -0.6273
13486TIP3    H261950   1.402   0.580  13.436 -0.6870  2.1670 -0.5257
13487TIP3   OH261951   0.107   4.626  14.403 -0.1201  0.5696 -0.6298
13487TIP3    H161952   0.016   4.656  14.394 -0.2549  0.5422  0.4803
13487TIP3    H261953   0.115   4.604  14.495  1.7875  2.9910 -0.1346
13488TIP3   OH261954   3.990   4.514  13.288 -0.1741  0.2411  0.7776
13488TIP3    H161955   3.920   4.472  13.338 -0.3913  0.0828  0.3401
13488TIP3    H261956   3.985   4.606  13.313 -1.3841  0.4690 -0.2204
13489TIP3   OH261957   1.926   1.055  16.678 -0.2678  0.2736 -0.1711
13489TIP3    H161958   1.992   1.098  16.732 -1.3658  0.5595  1.0252
13489TIP3    H261959   1.867   1.126  16.651 -0.8490 -0.1427 -0.0343
13490TIP3   OH261960   4.158   0.813   2.202 -0.4505  0.0886 -0.2098
13490TIP3    H161961   4.221   0.826   2.272  1.2942 -0.7804 -1.5436
13490TIP3    H261962   4.130   0.901   2.178  0.3090  0.4872  0.3554
13491TIP3   OH261963   6.417   5.358   5.602 -0.6068  0.5110 -0.5128
13491TIP3    H161964   6.455   5.343   5.689  0.7863  2.0507 -0.8089
13491TIP3    H261965   6.475   5.312   5.542 -1.6856 -0.7276 -0.6413
13492TIP3   OH261966   0.174   1.462  14.473  0.7859  0.7010  0.0089
13492TIP3    H161967   0.185   1.420  14.558  0.4600 -1.0488 -0.7638
13492TIP3    H261968   0.240   1.420  14.417 -1.5133 -1.1364 -1.5711
13493TIP3   OH261969   0.355   6.575   3.936 -1.0192 -0.3524  0.0390
13493TIP3    H161970   0.303   6.502   3.972  0.8892 -0.9842  1.6983
13493TIP3    H261971   0.437   6.535   3.909  0.7645  1.3448  2.5403
13494TIP3   OH261972   5.847   4.372   4.724 -0.1844 -0.2072  0.5436
13494TIP3    H161973   5.760   4.404   4.701  0.5539  1.4292 -0.1183
13494TIP3    H261974   5.904   4.409   4.657  1.1176 -0.7457  1.3245
13495TIP3   OH261975   5.821   1.912   5.708  0.0844 -0.0442 -0.2487
13495TIP3    H161976   5.864   1.977   5.764 -2.1660 -0.6137  2.3759
13495TIP3    H261977   5.851   1.828   5.743 -1.6372 -0.4132  0.4221
13496TIP3   OH261978   0.898   4.542  17.097 -0.3075  0.2025  0.0699
13496TIP3    H161979   0.840   4.475  17.061 -0.3158 -0.1845  0.7867
13496TIP3    H261980   0.894   4.614  17.034 -2.5720  0.7219  0.7032
13497TIP3   OH261981   0.588   1.247   1.957 -0.0791 -0.2503  0.0087
13497TIP3    H161982   0.678   1.221   1.979  0.7120  0.4061 -2.1135
13497TIP3    H261983   0.555   1.176   1.902 -0.2536  0.2298 -0.5210
13498TIP3   OH261984   6.246   4.709  16.335 -0.0311  0.2776 -0.5812
13498TIP3    H161985   6.233   4.801  16.360  1.5044  0.5736 -0.7313
13498TIP3    H261986   6.187   4.660  16.391  0.1800  1.2630  0.5535
13499TIP3   OH261987   2.239   3.612  17.092 -0.0896  0.0134 -0.0908
13499TIP3    H161988   2.146   3.590  17.087 -0.0940 -0.2557  0.9605
13499TIP3    H261989   2.277   3.544  17.148  0.3008  1.3808  1.3874
13500TIP3   OH261990   2.999   4.327   5.882  0.2302  0.6155 -0.5288
13500TIP3    H161991   3.060   4.354   5.813  1.2140  0.3754  0.2396
13500TIP3    H261992   2.979   4.409   5.928  2.6080  0.2417  1.3112
13501TIP3   OH261993   3.620   2.031   0.425  0.7202  0.2102  0.0996
13501TIP3    H161994   3.638   2.095   0.356 -0.6337  0.9399  0.3901
13501TIP3    H261995   3.661   1.950   0.394  2.4823  1.1957 -0.2621
13502TIP3   OH261996   4.487   0.231   5.087 -0.2879  0.1151 -0.1753
13502TIP3    H161997   4.556   0.170   5.114  0.1195  0.2497 -0.9067
13502TIP3    H261998   4.408   0.198   5.131 -0.0247 -0.7917 -0.3672
13503TIP3   OH261999   5.099   5.737   2.060  0.1557  0.3431 -0.4567
13503TIP3    H162000   5.007   5.724   2.084  0.3825 -0.8515 -0.1701
13503TIP3    H262001   5.109   5.832   2.053 -1.2211  0.4707 -0.9828
13504TIP3   OH262002   6.087   1.134  15.395  0.0178 -0.8999 -0.2439
13504TIP3    H162003   6.059   1.129  15.304  0.3679  0.7988 -0.4729
13504TIP3    H262004   6.010   1.107  15.445 -1.1206  0.8333 -0.9651
13505TIP3   OH262005   4.231   5.428  11.034 -0.5484  0.0088 -0.1247
13505TIP3    H162006   4.273   5.440  10.949 -1.3902 -2.2922 -0.9294
13505TIP3    H262007   4.303   5.439  11.097  0.8537 -1.6809 -1.3365
13506TIP3   OH262008   0.361   6.554   5.441  0.0506  0.4183 -0.8021
13506TIP3    H162009   0.311   6.623   5.398 -0.3603  0.1563 -0.7489
13506TIP3    H262010   0.363   6.579   5.533 -3.1567 -1.3743 -0.0791
13507TIP3   OH262011   5.623   2.079  11.697  0.2812 -0.2338  0.3094
13507TIP3    H162012   5.685   2.017  11.736  1.0701 -0.2314 -0.8887
13507TIP3    H262013   5.667   2.163  11.701  0.7094 -0.3524 -1.2150
13508TIP3   OH262014   0.664   2.697  16.858 -0.0641  0.2691 -0.5017
13508TIP3    H162015   0.660   2.603  16.839 -2.3245  0.9466 -4.4653
13508TIP3    H262016   0.742   2.728  16.813  0.7179  0.3623  0.8597
13509TIP3   OH262017   2.700   5.547   1.995 -0.1257  0.2633  0.3253
13509TIP3    H162018   2.793   5.547   1.973 -0.3490 -0.0633 -0.6574
13509TIP3    H262019   2.675   5.639   1.996  0.0263  0.3103 -0.2014
13510TIP3   OH262020   1.009   2.215   0.539 -0.2737  0.0452 -0.2259
13510TIP3    H162021   1.089   2.266   0.541  0.0755 -0.4748 -0.6974
13510TIP3    H262022   1.022   2.152   0.468 -0.8084 -0.5041  0.1503
13511TIP3   OH262023   4.628   6.566   4.918  0.1756 -0.0820 -0.2980
13511TIP3    H162024   4.637   6.633   4.851  0.8400  0.5350  0.3980
13511TIP3    H262025   4.630   6.483   4.869  0.0896  0.3676 -1.0875
13512TIP3   OH262026   6.242   3.877   2.043  0.0872  0.4196 -0.1926
13512TIP3    H162027   6.292   3.951   2.076  0.1298  0.2910  0.0361
13512TIP3    H262028   6.195   3.911   1.967 -0.9791  1.0575  0.7287
13513TIP3   OH262029   3.276   5.713   3.097  0.0289  0.7219  0.0510
13513TIP3    H162030   3.332   5.738   3.170  0.8187  0.6160 -0.5109
13513TIP3    H262031   3.325   5.644   3.051 -0.7401  0.3314 -0.2119
13514TIP3   OH262032   3.254   2.837  12.667 -0.1663  0.2014  0.9713
13514TIP3    H162033   3.269   2.897  12.740 -0.5523  0.2085  1.0469
13514TIP3    H262034   3.307   2.760  12.688  1.5807  1.1157  0.1030
13515TIP3   OH262035   5.968   4.830   4.025  0.3820 -0.3589  0.8542
13515TIP3    H162036   5.977   4.914   4.071  0.8586 -0.0227  0.1675
13515TIP3    H262037   6.024   4.770   4.074  0.5743 -0.1080  0.9480
13516TIP3   OH262038   0.146   1.804   2.773 -0.2472  0.0005  0.5283
13516TIP3    H162039   0.115   1.737   2.834 -1.2092 -0.0003  0.0429
13516TIP3    H262040   0.119   1.887   2.813  0.2138  0.0694  0.7102
13517TIP3   OH262041   1.074   3.621  13.271 -0.3139 -0.2601 -0.1543
13517TIP3    H162042   0.998   3.679  13.258 -1.0936 -1.2131  0.0548
13517TIP3    H262043   1.150   3.679  13.260 -1.0611  0.6879 -0.5023
13518TIP3   OH262044   4.340   3.190   0.920 -0.2163 -0.6192  0.3595
13518TIP3    H162045   4.362   3.178   1.012 -0.4840 -1.3918  0.3321
13518TIP3    H262046   4.299   3.276   0.916 -0.4812 -0.7074  1.0201
13519TIP3   OH262047   0.964   1.989   4.303  0.5904 -0.0393 -0.1001
13519TIP3    H162048   0.980   2.069   4.353  2.6195 -0.0274 -0.6824
13519TIP3    H262049   0.900   2.015   4.237  0.0399  0.6794  0.6889
13520TIP3   OH262050   2.021   6.018  11.710 -0.4832  0.2136  0.0121
13520TIP3    H162051   1.944   5.976  11.671 -0.2394  0.3728 -0.6564
13520TIP3    H262052   2.077   5.945  11.737 -0.5872  0.1040 -0.0662
13521TIP3   OH262053   0.428   0.127  16.451  0.2817 -0.1953 -0.1922
13521TIP3    H162054   0.343   0.139  16.492 -0.2240 -0.9954 -0.9671
13521TIP3    H262055   0.463   0.047  16.491  0.6562  0.0991  0.0836
13522TIP3   OH262056   6.503   0.444   3.051 -0.1452  0.3302 -0.3030
13522TIP3    H162057   6.544   0.531   3.050  1.0567 -0.1449  1.6145
13522TIP3    H262058   6.438   0.447   2.981 -1.8162  3.5908  1.1498
13523TIP3   OH262059   6.625   4.082  16.803 -0.4190  0.3148  0.3643
13523TIP3    H162060   6.586   4.150  16.857  0.2025  1.0173 -0.0641
13523TIP3    H262061   6.567   4.006  16.814 -0.0763  0.2976  2.3407
13524TIP3   OH262062   4.819   2.185   5.335  0.3488  0.1934 -0.0382
13524TIP3    H162063   4.797   2.119   5.401  1.5544  0.2886  0.4739
13524TIP3    H262064   4.757   2.256   5.350 -1.1977 -0.9204 -0.8133
13525TIP3   OH262065   1.813   6.094   5.772 -0.3573  0.5503 -0.5841
13525TIP3    H162066   1.904   6.120   5.758 -0.9563  2.1974 -1.7710
13525TIP3    H262067   1.782   6.152   5.843 -0.0178 -1.2574  1.1290
13526TIP3   OH262068   6.522   2.414   0.039  0.2850 -0.1177  0.0354
13526TIP3    H162069   6.598   2.383   0.088 -0.3411 -0.2626  0.9217
13526TIP3    H262070   6.446   2.379   0.085 -0.3423  0.2655 -0.6710
13527TIP3   OH262071   1.348   5.537   6.711  0.0403  0.1523  0.3252
13527TIP3    H162072   1.294   5.487   6.772 -1.5259  1.3693  0.0119
13527TIP3    H262073   1.314   5.514   6.624  1.1640 -0.3330 -0.0016
13528TIP3   OH262074   1.820   4.693   1.449 -0.0639  0.3926 -0.5376
13528TIP3    H162075   1.902   4.741   1.439  1.2956 -1.7160 -0.1810
13528TIP3    H262076   1.819   4.631   1.376 -0.7752 -0.3509  0.0792
13529TIP3   OH262077   4.654   4.447   3.850  0.0505  0.0861  0.2423
13529TIP3    H162078   4.600   4.499   3.909  0.3076 -1.1570  1.6181
13529TIP3    H262079   4.742   4.450   3.889  0.2357 -0.7167 -0.1014
13530TIP3   OH262080   1.920   6.779   1.634  0.2758  0.2291 -0.6268
13530TIP3    H162081   1.936   6.704   1.692 -0.0163  0.8748  0.3105
13530TIP3    H262082   1.935   6.745   1.546 -0.1137 -1.0091 -0.2365
13531TIP3   OH262083   6.345   1.323   1.468 -0.5528  0.3197  0.3751
13531TIP3    H162084   6.429   1.341   1.425 -0.3713 -0.9565  0.1594
13531TIP3    H262085   6.356   1.358   1.556  0.0813  0.4694  0.2451
13532TIP3   OH262086   0.538   2.586   5.878 -0.0316  0.0255  0.1667
13532TIP3    H162087   0.610   2.647   5.860 -2.3799  3.1122  0.3450
13532TIP3    H262088   0.518   2.546   5.793  0.2253  1.1729 -0.4512
13533TIP3   OH262089   0.394   1.670  14.946 -0.6938 -0.1280  1.2391
13533TIP3    H162090   0.482   1.671  14.907 -1.1925  1.2559  0.0530
13533TIP3    H262091   0.409   1.689  15.039  0.3446 -1.2072  1.3222
13534TIP3   OH262092   5.555   2.830   2.705 -0.6241  0.0953  0.1703
13534TIP3    H162093   5.482   2.789   2.752 -0.5303  1.0713  1.2155
13534TIP3    H262094   5.522   2.916   2.679  0.8832  1.6364  2.9157
13535TIP3   OH262095   0.637   1.829  12.746 -0.2149 -0.3241 -0.2351
13535TIP3    H162096   0.687   1.841  12.826  0.4890 -1.4520 -0.4798
13535TIP3    H262097   0.620   1.917  12.714  3.5833  0.1629 -1.3628
13536TIP3   OH262098   4.489   0.594   6.471 -0.7411  0.2800 -0.5845
13536TIP3    H162099   4.524   0.521   6.522 -0.6385  0.3262 -0.5880
13536TIP3    H262100   4.555   0.663   6.480 -0.9786  0.4778 -0.3298
13537TIP3   OH262101   2.585   4.933  11.318 -0.2032 -0.5166  0.3057
13537TIP3    H162102   2.519   4.902  11.256 -0.3496 -1.0670  0.7210
13537TIP3    H262103   2.537   4.947  11.400  0.4322 -2.5716  1.1118
13538TIP3   OH262104   0.714   6.310   2.795  0.5319 -0.1125 -0.0664
13538TIP3    H162105   0.629   6.295   2.837  0.7688 -0.0991  0.4280
13538TIP3    H262106   0.695   6.314   2.702 -0.3610  2.1852  0.1456
13539TIP3   OH262107   4.745   0.508  13.006  0.8925 -0.8528 -0.1770
13539TIP3    H162108   4.697   0.590  12.993  0.5105 -0.9073  0.7958
13539TIP3    H262109   4.785   0.517  13.092  1.9798 -1.1446 -0.6315
13540TIP3   OH262110   6.059   2.052   2.655  0.0963  0.3438 -1.0505
13540TIP3    H162111   5.989   2.107   2.691 -0.0401 -1.3124  1.5296
13540TIP3    H262112   6.139   2.089   2.691  0.1707 -0.0250 -0.8307
13541TIP3   OH262113   0.833   6.550  10.693  0.9002 -0.1935  0.0671
13541TIP3    H162114   0.901   6.615  10.680 -0.0467  0.5534 -1.4523
13541TIP3    H262115   0.758   6.600  10.727  1.1144 -1.0154  1.8289
13542TIP3   OH262116   6.281   6.141  14.740  0.0262  0.0894 -0.5591
13542TIP3    H162117   6.300   6.087  14.663  1.4005  0.7751 -0.7343
13542TIP3    H262118   6.334   6.102  14.810  0.9321  1.1190 -0.6573
13543TIP3   OH262119   6.189   4.028   5.411 -0.1553 -0.3807 -0.2074
13543TIP3    H162120   6.206   4.068   5.326  2.1931  0.2528  0.4933
13543TIP3    H262121   6.194   4.100   5.473  2.0604 -1.3612  0.8505
13544TIP3   OH262122   6.232   1.424  11.865  0.1183  0.3319  0.1233
13544TIP3    H162123   6.210   1.426  11.772  1.8049  0.5015 -0.3191
13544TIP3    H262124   6.278   1.506  11.881 -0.2574  0.3615  1.1479
13545TIP3   OH262125   3.839   3.978  15.597 -0.4521  0.1427  0.3741
13545TIP3    H162126   3.749   3.988  15.627 -0.3455  1.0311  0.4439
13545TIP3    H262127   3.891   4.027  15.661  0.0157  0.1345  0.0072
13546TIP3   OH262128   0.278   0.944  12.339 -0.0746 -0.2436  0.0776
13546TIP3    H162129   0.237   0.893  12.269  0.6528 -0.9563  0.1536
13546TIP3    H262130   0.207   0.997  12.375 -0.5504 -0.1742 -0.9195
13547TIP3   OH262131   1.732   3.068  16.988  0.4697 -0.5431 -0.5590
13547TIP3    H162132   1.667   3.137  16.978  0.5997 -0.1929  0.7517
13547TIP3    H262133   1.814   3.107  16.959  0.2687 -0.6904 -1.3506
13548TIP3   OH262134   4.101   0.817   3.752  0.0784  0.4213 -0.2606
13548TIP3    H162135   4.027   0.839   3.809  0.8924 -0.3597  1.1304
13548TIP3    H262136   4.124   0.727   3.776  1.2451  0.5194 -0.9558
13549TIP3   OH262137   2.619   4.741  13.660  0.0875 -0.1276  0.2531
13549TIP3    H162138   2.634   4.800  13.587  0.4404  3.3230  2.8765
13549TIP3    H262139   2.527   4.714  13.651 -0.1513  0.9900 -0.9398
13550TIP3   OH262140   0.578   5.150   4.280  0.2563 -0.1008  0.3185
13550TIP3    H162141   0.620   5.089   4.219  0.1651 -0.9173  1.0442
13550TIP3    H262142   0.496   5.107   4.304 -0.1114  0.6092  0.3632
13551TIP3   OH262143   1.333   5.900   0.487  0.4359  0.8023  0.0304
13551TIP3    H162144   1.359   5.983   0.447 -1.7965  1.1875 -0.7734
13551TIP3    H262145   1.301   5.924   0.574  1.6453  0.4812  0.5849
13552TIP3   OH262146   3.939   4.242   2.848 -0.1077  0.3122  0.4891
13552TIP3    H162147   3.945   4.148   2.829 -1.0079  0.3155  0.1542
13552TIP3    H262148   3.852   4.254   2.886 -0.2011  1.0811  0.0703
13553TIP3   OH262149   0.890   4.703   2.637  0.5971  0.2164 -0.2338
13553TIP3    H162150   0.824   4.683   2.570  0.9278 -2.3664  0.1164
13553TIP3    H262151   0.973   4.700   2.590  0.8604 -1.9529  0.2901
13554TIP3   OH262152   2.943   1.600  12.411 -0.1505 -0.5294  0.4429
13554TIP3    H162153   2.940   1.677  12.467  0.9194 -0.1569  0.0189
13554TIP3    H262154   3.016   1.548  12.445 -0.2517 -0.8740  0.1367
13555TIP3   OH262155   5.462   5.797   0.946 -0.4358 -0.0188  0.1372
13555TIP3    H162156   5.550   5.823   0.916 -0.6691  2.0509  1.0431
13555TIP3    H262157   5.430   5.739   0.877  1.2088  0.0664 -0.7736
13556TIP3   OH262158   5.340   4.797   2.588  0.0289  0.5342 -0.2078
13556TIP3    H162159   5.250   4.794   2.623  0.8180 -0.1980  1.9384
13556TIP3    H262160   5.371   4.884   2.609  0.2113  0.3913  0.1159
13557TIP3   OH262161   3.686   1.604   0.166 -1.0488  0.1706 -1.0593
13557TIP3    H162162   3.723   1.661   0.099  0.9894 -0.9968 -1.0356
13557TIP3    H262163   3.656   1.664   0.235  1.4176  1.2805 -0.8289
13558TIP3   OH262164   4.865   1.466   2.516 -0.5609  0.3599 -0.3169
13558TIP3    H162165   4.946   1.429   2.481 -0.9957 -1.6779  0.7057
13558TIP3    H262166   4.797   1.405   2.490 -0.8551 -1.7360  4.3918
13559TIP3   OH262167   2.774   1.485  13.792 -0.4839 -0.0696  0.4983
13559TIP3    H162168   2.774   1.580  13.778 -1.1140 -0.2391 -0.7124
13559TIP3    H262169   2.695   1.454  13.749  0.2978 -1.2981 -0.1113
13560TIP3   OH262170   5.329   2.916  16.078 -0.0767 -0.1666  0.1497
13560TIP3    H162171   5.296   2.999  16.043  0.7447  0.3800  0.6211
13560TIP3    H262172   5.372   2.874  16.004 -1.8895 -0.9429 -0.4972
13561TIP3   OH262173   5.924   0.082  14.888 -0.9499 -0.3098 -0.7736
13561TIP3    H162174   5.968   0.120  14.964 -2.0124  1.7856 -1.1458
13561TIP3    H262175   5.903  -0.008  14.916 -0.2755  0.0205  0.9610
13562TIP3   OH262176   3.032   0.025   4.945 -0.0434 -0.4191  0.2228
13562TIP3    H162177   3.104   0.018   5.007 -0.3009 -0.4294  0.5217
13562TIP3    H262178   2.963  -0.030   4.981 -0.6984  0.6341  0.6474
13563TIP3   OH262179   0.162   5.642   1.722  0.3226 -0.0815  0.4431
13563TIP3    H162180   0.071   5.635   1.693  0.0054  1.7150  0.8672
13563TIP3    H262181   0.210   5.581   1.667 -1.0877 -0.8034 -0.0296
13564TIP3   OH262182   3.744   3.474   4.582 -0.3318  0.4763  0.5248
13564TIP3    H162183   3.782   3.441   4.501  0.3308 -0.1616  1.0775
13564TIP3    H262184   3.679   3.408   4.607 -0.0000  0.2939  0.9063
13565TIP3   OH262185   4.239   5.210   2.956  0.0687  0.3708 -0.0364
13565TIP3    H162186   4.257   5.155   3.032  0.7161 -1.6084 -1.5440
13565TIP3    H262187   4.144   5.218   2.954 -0.0088 -0.3591  0.4504
13566TIP3   OH262188   3.764   3.426  16.904 -0.2062  0.3526 -0.2160
13566TIP3    H162189   3.801   3.492  16.964 -0.6729  1.1028 -0.7361
13566TIP3    H262190   3.678   3.406  16.941  0.5404 -1.1442  0.8084
13567TIP3   OH262191   4.328   4.283  12.463  0.5793  0.0485  0.1051
13567TIP3    H162192   4.256   4.324  12.511  0.9450  0.2121  0.5218
13567TIP3    H262193   4.290   4.259  12.379  0.1762  0.6080  0.1211
13568TIP3   OH262194   1.097   1.405  13.444 -0.5885  0.3788 -0.3406
13568TIP3    H162195   1.095   1.328  13.500  0.7381  0.5406 -0.0399
13568TIP3    H262196   1.076   1.372  13.356  1.2316 -0.5860 -0.4634
13569TIP3   OH262197   4.570   4.522  16.201 -0.3503 -0.0598  0.4475
13569TIP3    H162198   4.580   4.454  16.135 -1.8580 -0.1450  0.2880
13569TIP3    H262199   4.503   4.581  16.167  0.8150  1.4741  0.6429
13570TIP3   OH262200   0.250   4.225  14.179  0.4783  0.4623  0.1103
13570TIP3    H162201   0.214   4.304  14.139 -0.0164  0.6762  0.9475
13570TIP3    H262202   0.343   4.228  14.158  0.5032  1.3768  0.2809
13571TIP3   OH262203   1.436   6.750  11.572  0.2071 -0.1877  0.3067
13571TIP3    H162204   1.376   6.723  11.503 -0.1546  1.9914 -0.3123
13571TIP3    H262205   1.391   6.821  11.617  1.6232  0.3605  0.9247
13572TIP3   OH262206   3.016   6.472   2.608  0.1098 -0.1661  0.2529
13572TIP3    H162207   2.927   6.486   2.577  0.7378  1.2220 -1.0628
13572TIP3    H262208   3.007   6.415   2.684 -1.9231  0.2493  0.3647
13573TIP3   OH262209   1.008   0.416  12.830 -0.4630  0.0793 -0.1401
13573TIP3    H162210   1.082   0.406  12.771 -0.3125 -0.2453  0.1005
13573TIP3    H262211   0.973   0.327  12.841  0.7741 -0.2210  1.8628
13574TIP3   OH262212   4.986   0.564  14.016 -0.0593  0.0176 -0.2805
13574TIP3    H162213   4.918   0.539  14.078 -0.6035  1.7654 -0.1198
13574TIP3    H262214   5.068   0.552  14.063 -0.3250 -0.8079 -0.0126
13575TIP3   OH262215   1.117   6.186   0.669  0.1758  0.5201  0.5865
13575TIP3    H162216   1.150   6.143   0.590  0.5291 -1.5342  1.7683
13575TIP3    H262217   1.190   6.241   0.699  0.6773 -0.0220  0.3893
13576TIP3   OH262218   6.663   6.197  13.655  0.2544 -0.1934  1.4143
13576TIP3    H162219   6.668   6.259  13.728 -0.0990 -2.0089  3.0703
13576TIP3    H262220   6.740   6.142  13.665  0.3583 -0.2909  0.1983
13577TIP3   OH262221   5.145   2.099  16.953 -0.3555  0.3962  0.6994
13577TIP3    H162222   5.234   2.069  16.972 -0.5130  0.0130  0.8335
13577TIP3    H262223   5.116   2.043  16.882  0.3250  1.9890 -0.9171
13578TIP3   OH262224   0.466   4.011   4.156 -0.3896  0.2394 -0.2900
13578TIP3    H162225   0.384   4.053   4.131  0.1714  0.8843 -1.1387
13578TIP3    H262226   0.452   3.918   4.141 -0.7984  0.3975 -0.8933
13579TIP3   OH262227   2.741   4.879  11.036  0.2684 -0.4290 -0.3110
13579TIP3    H162228   2.686   4.808  11.004  0.1781 -0.7790  0.5837
13579TIP3    H262229   2.813   4.835  11.082  0.1757  0.0437  0.3108
13580TIP3   OH262230   0.703   6.058  12.747 -0.2698 -0.8294 -0.3147
13580TIP3    H162231   0.695   6.137  12.694  1.8984 -0.5566 -0.3428
13580TIP3    H262232   0.667   6.083  12.832 -1.3708 -0.4500 -0.8638
13581TIP3   OH262233   2.710   5.885  13.144 -0.3406  0.4667  0.0660
13581TIP3    H162234   2.667   5.801  13.159  0.0759  0.2215 -0.1154
13581TIP3    H262235   2.787   5.884  13.200 -0.4906  0.8476  0.2820
13582TIP3   OH262236   1.927   5.324   4.233  0.2122 -0.0172 -0.1408
13582TIP3    H162237   1.929   5.228   4.236  0.1584 -0.0020  0.5727
13582TIP3    H262238   1.878   5.350   4.311  0.9506  0.6144  0.1295
13583TIP3   OH262239   6.457   1.789  14.539 -0.1333 -0.0418 -0.7921
13583TIP3    H162240   6.453   1.823  14.628  1.4793 -1.7881  0.0364
13583TIP3    H262241   6.367   1.763  14.519 -0.4508 -0.0148  0.5027
13584TIP3   OH262242   3.169   2.826   1.134 -0.1322  0.3956  0.3513
13584TIP3    H162243   3.121   2.855   1.212  1.1580  0.3393  1.2139
13584TIP3    H262244   3.178   2.904   1.080 -0.8425  0.4869  0.3543
13585TIP3   OH262245   4.099   5.106   3.402  1.1074  0.2353  0.6762
13585TIP3    H162246   4.130   5.071   3.486  0.2796  0.8055  1.2303
13585TIP3    H262247   4.156   5.065   3.337  2.6271  0.7667  1.6077
13586TIP3   OH262248   3.011   2.504   1.967  0.3003 -1.0891  0.4249
13586TIP3    H162249   2.994   2.482   2.059  1.5406 -2.6392  0.3191
13586TIP3    H262250   2.959   2.441   1.917 -0.3240 -0.2886  0.0335
13587TIP3   OH262251   2.771   5.802   2.109 -0.5664  0.2283 -0.0751
13587TIP3    H162252   2.854   5.781   2.065 -0.4866 -1.4508  0.8058
13587TIP3    H262253   2.796   5.861   2.180  0.0253 -0.8580  0.6549
13588TIP3   OH262254   4.875   4.168   6.504 -0.2123  0.6423  0.1963
13588TIP3    H162255   4.938   4.137   6.439 -1.3732  0.9148 -1.0905
13588TIP3    H262256   4.892   4.262   6.510 -0.7003  0.7728 -0.3950
13589TIP3   OH262257   5.353   4.403   5.324 -0.0021  0.0750 -0.2781
13589TIP3    H162258   5.358   4.313   5.290 -0.6591  0.2611 -0.8912
13589TIP3    H262259   5.259   4.424   5.321  0.1749  0.8750 -0.3877
13590TIP3   OH262260   3.978   3.996   2.264  0.5683 -0.9821 -0.1537
13590TIP3    H162261   4.002   3.908   2.293  1.7716 -0.2718  1.0870
13590TIP3    H262262   4.049   4.052   2.294 -1.1790  0.7698  0.9992
13591TIP3   OH262263   4.069   5.822  15.250 -0.3507  0.2298 -0.0464
13591TIP3    H162264   4.110   5.786  15.329 -0.3289 -0.7930 -0.5091
13591TIP3    H262265   4.069   5.750  15.188 -3.5316 -0.0931  0.1537
13592TIP3   OH262266   5.807   2.565  16.358 -0.4319  0.0715  0.0133
13592TIP3    H162267   5.869   2.583  16.429 -0.1811  0.6554 -0.3403
13592TIP3    H262268   5.734   2.624  16.374  0.4451  1.5722 -1.2178
13593TIP3   OH262269   2.189   4.921  12.750  0.5987 -0.0774  0.1280
13593TIP3    H162270   2.197   4.952  12.840  0.6639 -0.4829  0.2667
13593TIP3    H262271   2.100   4.888  12.744  1.1280 -1.7173  0.6036
13594TIP3   OH262272   0.438   2.941   5.279 -0.2448  0.3358  0.1570
13594TIP3    H162273   0.381   2.870   5.309 -1.3978  1.8959  1.8991
13594TIP3    H262274   0.483   2.970   5.358 -0.3842  2.0265 -0.3366
13595TIP3   OH262275   3.227   0.253   4.230  0.4955  0.6404  0.7090
13595TIP3    H162276   3.220   0.165   4.266 -0.2356 -0.1004 -1.1199
13595TIP3    H262277   3.216   0.311   4.305 -1.8072 -0.7873  1.5891
13596TIP3   OH262278   1.091   1.970   4.625 -0.1720 -0.2190  0.1021
13596TIP3    H162279   1.133   2.047   4.663 -1.9672  0.7968  0.1172
13596TIP3    H262280   1.118   1.971   4.533  2.0982 -1.2307  0.6894
13597TIP3   OH262281   4.639   1.451  13.364  0.0853 -0.4434 -0.0703
13597TIP3    H162282   4.721   1.496  13.343 -0.5387  0.0340 -1.6677
13597TIP3    H262283   4.583   1.519  13.400 -0.3445 -0.2476 -1.0717
13598TIP3   OH262284   6.816   4.472  12.704  0.9348  0.5651  0.2201
13598TIP3    H162285   6.720   4.478  12.711  0.4036 -1.1732 -3.3671
13598TIP3    H262286   6.836   4.382  12.729  1.3006  0.2282 -1.2219
13599TIP3   OH262287   3.584   1.248   2.310 -0.0198 -0.4442  0.2037
13599TIP3    H162288   3.671   1.263   2.271 -0.4146  0.1484 -0.4790
13599TIP3    H262289   3.589   1.290   2.395 -0.7371  2.8523 -1.2258
13600TIP3   OH262290   6.099   1.858  13.743 -0.2006 -0.3098 -0.1475
13600TIP3    H162291   6.100   1.762  13.751  1.3030 -0.3004  0.1540
13600TIP3    H262292   6.175   1.878  13.689  0.4327  0.7947  1.0980
13601TIP3   OH262293   1.469   6.662  14.438  0.4272  0.5640  0.0915
13601TIP3    H162294   1.559   6.688  14.420  0.9316 -0.2521  1.2946
13601TIP3    H262295   1.477   6.595  14.506 -1.0508  0.0164 -0.2367
13602TIP3   OH262296   3.489   0.197  15.238  0.8917 -0.3894 -0.3160
13602TIP3    H162297   3.585   0.201  15.235  0.8476  0.6830 -0.5337
13602TIP3    H262298   3.467   0.208  15.331  0.9398  0.7848 -0.4266
13603TIP3   OH262299   5.035   0.366  12.373 -0.4849 -0.2888  0.0851
13603TIP3    H162300   4.952   0.334  12.408 -0.9867  0.5222 -0.3399
13603TIP3    H262301   5.064   0.432  12.435  0.2007 -1.0545  0.5954
13604TIP3   OH262302   5.980   2.929   4.318  0.3746 -0.3050  0.3195
13604TIP3    H162303   6.072   2.912   4.300 -0.1513 -1.2492 -1.8613
13604TIP3    H262304   5.947   2.968   4.236 -1.2828 -0.5242  0.8529
13605TIP3   OH262305   5.691   3.295  13.469  0.6265 -0.4197 -0.4317
13605TIP3    H162306   5.752   3.369  13.465 -1.1533  1.1906  0.6954
13605TIP3    H262307   5.741   3.221  13.434  2.8035  1.0792 -0.6839
13606TIP3   OH262308   0.915   5.751   0.475  0.0200 -0.3953 -0.1747
13606TIP3    H162309   0.929   5.834   0.430  0.9021  0.6751  1.9393
13606TIP3    H262310   1.002   5.711   0.480  0.2212  0.1574  1.6771
13607TIP3   OH262311   1.284   2.822  15.739 -0.1783 -0.2369 -0.0536
13607TIP3    H162312   1.273   2.751  15.677 -0.4179 -0.0979 -0.1732
13607TIP3    H262313   1.316   2.896  15.686 -2.0375  0.4059 -0.3403
13608TIP3   OH262314   6.786   6.834   5.243 -0.3149 -0.7895  0.1755
13608TIP3    H162315   6.713   6.857   5.185  0.9000 -0.7891 -1.4385
13608TIP3    H262316   6.842   6.779   5.189  1.0081 -0.5825  1.2912
13609TIP3   OH262317   1.237   0.000  14.434  0.3644 -0.0433  0.3665
13609TIP3    H162318   1.167  -0.062  14.454  0.5533 -0.7909 -1.1599
13609TIP3    H262319   1.318  -0.049  14.449  0.5441  0.3401  0.6747
13610TIP3   OH262320   6.090   3.287  12.017  0.0213  0.2841  0.5586
13610TIP3    H162321   6.079   3.307  12.110 -0.0617  0.2885  0.5476
13610TIP3    H262322   6.147   3.210  12.015 -1.5939 -0.9632  0.6834
13611TIP3   OH262323   2.086   4.080  16.913  0.5031 -0.5616 -0.0121
13611TIP3    H162324   2.049   4.159  16.875  0.7124 -0.1865  0.5549
13611TIP3    H262325   2.180   4.085  16.892  0.4941 -0.7366 -0.0997
13612TIP3   OH262326   5.837   0.193   1.792  0.0170  0.1453  0.4636
13612TIP3    H162327   5.785   0.272   1.777  1.9773  1.0536 -2.3701
13612TIP3    H262328   5.816   0.135   1.720  0.0552 -1.1416  1.4521
13613TIP3   OH262329   3.857   0.190   3.560 -0.3093  0.1100  0.2464
13613TIP3    H162330   3.937   0.138   3.567  1.2079  2.1316 -0.9894
13613TIP3    H262331   3.858   0.223   3.471 -3.0168 -0.4706 -0.0757
13614TIP3   OH262332   5.882   4.983  12.722  0.4902 -0.0053 -0.2115
13614TIP3    H162333   5.793   5.011  12.745  0.6870  0.5845 -0.1375
13614TIP3    H262334   5.925   4.969  12.807  0.6005  0.1459 -0.2432
13615TIP3   OH262335   0.559   0.200  15.897  0.2938 -0.3683  0.2991
13615TIP3    H162336   0.652   0.205  15.874  0.2222 -0.7034 -0.0814
13615TIP3    H262337   0.533   0.290  15.916  0.2244  0.0286 -1.4911
13616TIP3   OH262338   6.400   5.116  13.001 -0.0255  0.3375 -0.4606
13616TIP3    H162339   6.411   5.207  13.030  1.2412 -0.2565  1.0554
13616TIP3    H262340   6.381   5.123  12.907 -0.0012  2.1626 -0.3700
13617TIP3   OH262341   3.654   2.604  13.774  0.3187  0.9569 -0.1059
13617TIP3    H162342   3.638   2.509  13.770  0.5699  0.9165 -0.1367
13617TIP3    H262343   3.656   2.624  13.867  2.9320  0.4827 -0.0064
13618TIP3   OH262344   1.136   4.460   6.039 -0.0549 -0.2663 -0.5464
13618TIP3    H162345   1.203   4.516   5.999  0.2080 -0.0201  0.2074
13618TIP3    H262346   1.180   4.377   6.054 -0.0027 -0.1983 -0.3187
13619TIP3   OH262347   2.752   0.386   2.262 -0.0430  0.4831  0.2955
13619TIP3    H162348   2.818   0.363   2.196  0.2749  0.8053  0.4954
13619TIP3    H262349   2.719   0.302   2.293  1.1538  0.2724  1.0691
13620TIP3   OH262350   6.771   3.095   4.166  0.4501  0.2151  0.2976
13620TIP3    H162351   6.819   3.115   4.086 -1.8696  1.8584 -0.7602
13620TIP3    H262352   6.834   3.111   4.236  1.7889  1.2178 -1.0721
13621TIP3   OH262353   0.919   5.189  13.028 -0.1272  0.1863 -0.3861
13621TIP3    H162354   0.946   5.271  12.986 -1.4349  1.4052  1.0375
13621TIP3    H262355   0.976   5.182  13.105 -0.2998 -0.0315 -0.2769
13622TIP3   OH262356   6.085   3.781   5.384  0.1535  0.6994  0.0671
13622TIP3    H162357   5.990   3.793   5.380 -0.1146 -1.2775 -2.2407
13622TIP3    H262358   6.122   3.867   5.363 -1.2486  0.7724 -2.4697
13623TIP3   OH262359   3.701   3.289   5.269  0.6052 -0.3685 -0.5857
13623TIP3    H162360   3.793   3.270   5.253  0.7674 -0.8986  0.8266
13623TIP3    H262361   3.696   3.307   5.363 -0.6576  0.1295 -0.7183
13624TIP3   OH262362   5.839   3.941  14.110  0.4965  0.1655  0.0606
13624TIP3    H162363   5.825   3.994  14.032 -2.4973  1.7962  1.5263
13624TIP3    H262364   5.837   4.004  14.182  0.1668 -1.5965  1.6593
13625TIP3   OH262365   2.411   0.229  11.648  0.0869  0.1875 -0.2732
13625TIP3    H162366   2.344   0.286  11.685  0.0987 -0.1356  0.2570
13625TIP3    H262367   2.405   0.149  11.699  0.7024  0.0606 -0.3923
13626TIP3   OH262368   4.295   4.555  10.618  0.2943 -0.1761 -0.0723
13626TIP3    H162369   4.221   4.498  10.598  0.5357 -0.7374  0.5862
13626TIP3    H262370   4.257   4.643  10.623 -0.5415 -0.5919  1.3758
13627TIP3   OH262371   3.634   2.974   4.807 -0.4566 -0.4973  0.4157
13627TIP3    H162372   3.679   3.000   4.887  1.1116 -1.1091 -0.2383
13627TIP3    H262373   3.592   2.891   4.830  1.6718 -1.7213  0.0732
13628TIP3   OH262374   2.641   2.902   2.698  0.7835  0.3751  0.6882
13628TIP3    H162375   2.636   2.851   2.617  0.3199 -0.8900  1.4787
13628TIP3    H262376   2.734   2.914   2.713  0.9055  2.6619 -1.2137
13629TIP3   OH262377   2.201   3.344  15.860 -0.1634 -0.2677 -0.3536
13629TIP3    H162378   2.214   3.285  15.935  2.7088 -0.1353 -0.6340
13629TIP3    H262379   2.276   3.328  15.804 -2.4450 -0.6907 -3.5286
13630TIP3   OH262380   6.709   0.695  15.604 -0.3614  0.2300 -0.4609
13630TIP3    H162381   6.771   0.725  15.670 -0.5855  1.8233 -0.9405
13630TIP3    H262382   6.761   0.682  15.525 -0.2519 -0.8011 -0.2418
13631TIP3   OH262383   0.105   1.196   3.663 -0.2565  0.4583  0.1503
13631TIP3    H162384   0.039   1.208   3.594 -1.4615  0.1636  1.2150
13631TIP3    H262385   0.099   1.275   3.716 -0.2714  0.0969  0.6887
13632TIP3   OH262386   0.445   4.827   2.455 -0.5581 -0.0200 -0.5241
13632TIP3    H162387   0.450   4.807   2.362 -0.2170 -1.4977 -0.2219
13632TIP3    H262388   0.514   4.891   2.471 -0.9544  0.6282 -1.3674
13633TIP3   OH262389   6.247   3.285   0.609 -0.2452 -0.2655  0.3333
13633TIP3    H162390   6.292   3.201   0.614 -2.1916 -1.3224  1.2155
13633TIP3    H262391   6.212   3.289   0.520 -0.4132 -0.5506  0.3859
13634TIP3   OH262392   4.821   1.638  13.022 -0.0739 -0.4185  0.0014
13634TIP3    H162393   4.862   1.723  13.008 -0.2609 -0.1658  0.8806
13634TIP3    H262394   4.756   1.631  12.952  1.5232 -0.8983 -1.5089
13635TIP3   OH262395   2.560   1.495  12.636  0.6867  0.2236 -0.3751
13635TIP3    H162396   2.600   1.412  12.608 -0.2256 -0.1078 -0.7412
13635TIP3    H262397   2.626   1.535  12.692  0.4409 -1.6056  1.3232
13636TIP3   OH262398   0.309   0.259  10.921 -0.1151  0.3478  0.0096
13636TIP3    H162399   0.249   0.187  10.901 -0.1146  0.7384 -1.5526
13636TIP3    H262400   0.252   0.328  10.954 -0.1856 -0.1552  0.9829
13637TIP3   OH262401   4.425   6.274  11.668 -0.0041  0.2550 -0.2700
13637TIP3    H162402   4.374   6.337  11.718  0.6029  1.7654 -1.4604
13637TIP3    H262403   4.512   6.313  11.662  0.6040 -1.0521 -0.4327
13638TIP3   OH262404   6.116   5.908   3.113  0.4349  0.3434  1.0208
13638TIP3    H162405   6.081   5.921   3.201  0.6758  1.6678  0.9424
13638TIP3    H262406   6.185   5.974   3.104 -1.7195  2.4609 -1.2779
13639TIP3   OH262407   1.099   5.976  11.210  0.2515 -0.0281 -0.5208
13639TIP3    H162408   1.144   5.922  11.274  1.4555 -0.6140 -1.8057
13639TIP3    H262409   1.112   5.931  11.127 -0.4765  1.1810 -1.3291
13640TIP3   OH262410   2.478   6.006  13.906 -0.8774  1.1301 -0.6180
13640TIP3    H162411   2.407   5.943  13.889 -0.7160  1.4577 -2.8455
13640TIP3    H262412   2.534   5.962  13.970 -0.4109 -1.3969 -2.5505
13641TIP3   OH262413   5.586   0.495   3.102 -0.0288 -0.0264 -0.3580
13641TIP3    H162414   5.654   0.468   3.164 -2.1301 -1.6122  1.4247
13641TIP3    H262415   5.572   0.419   3.046  0.5180  0.7397 -1.5725
13642TIP3   OH262416   0.391   4.381  11.379 -0.7776 -0.0606 -0.3477
13642TIP3    H162417   0.358   4.303  11.335  1.0449  0.2282 -2.4186
13642TIP3    H262418   0.389   4.449  11.311 -0.4423  1.1724  0.8278
13643TIP3   OH262419   5.109   6.659  15.866 -0.1160  0.9673 -0.5297
13643TIP3    H162420   5.025   6.614  15.875 -0.1821  1.1131 -0.4104
13643TIP3    H262421   5.113   6.685  15.774  0.7222 -0.8527 -1.0598
13644TIP3   OH262422   1.602   5.928   4.481 -0.1486  0.2322 -0.0965
13644TIP3    H162423   1.581   5.932   4.575  1.6986  2.7246  0.3174
13644TIP3    H262424   1.657   5.850   4.473  1.1182  0.9142  1.3001
13645TIP3   OH262425   6.586   5.934   1.130 -0.2701  0.3275 -0.4923
13645TIP3    H162426   6.644   5.907   1.058 -0.3177 -3.8128  0.7421
13645TIP3    H262427   6.642   5.983   1.189  1.8750 -2.6039  0.1234
13646TIP3   OH262428   5.212   0.728   2.990 -0.0327  0.2071  0.2995
13646TIP3    H162429   5.172   0.652   2.948  0.6483 -0.6782  1.2138
13646TIP3    H262430   5.167   0.803   2.951 -0.0163 -0.6075 -1.3494
13647TIP3   OH262431   1.071   3.713  10.836  0.3624 -0.2293 -0.1289
13647TIP3    H162432   1.053   3.703  10.742 -0.2168 -2.4392  0.1647
13647TIP3    H262433   0.993   3.678  10.879  0.4047  1.2281  1.2132
13648TIP3   OH262434   6.795   3.147  11.691 -0.7999  0.0859  0.0590
13648TIP3    H162435   6.779   3.075  11.630 -0.7652  1.2873 -1.4400
13648TIP3    H262436   6.723   3.208  11.676 -0.4290  0.7125  0.7519
13649TIP3   OH262437   2.936   5.519  12.020  0.6275  0.2795 -0.5228
13649TIP3    H162438   2.923   5.450  11.956 -2.4372 -1.0292  1.2685
13649TIP3    H262439   2.898   5.485  12.101  1.0147  3.2221  1.0751
13650TIP3   OH262440   2.980   1.480  15.736 -0.2178 -0.4311  0.8693
13650TIP3    H162441   3.006   1.572  15.730 -1.8936  0.0222 -0.1763
13650TIP3    H262442   2.961   1.454  15.646 -0.7551 -1.4896  1.2608
13651TIP3   OH262443   0.913   6.031  12.982 -0.5180  0.1233  0.6550
13651TIP3    H162444   0.887   6.116  13.018  1.9712  1.4481 -0.4164
13651TIP3    H262445   0.904   6.041  12.887 -0.6329 -0.9913  0.5370
13652TIP3   OH262446   3.804   6.668  14.742 -0.5028 -0.1756 -0.1393
13652TIP3    H162447   3.788   6.725  14.817 -0.2706  0.2436 -0.4046
13652TIP3    H262448   3.776   6.581  14.771 -1.5555  0.2024  0.0140
13653TIP3   OH262449   2.864   3.201  11.315 -0.5472  0.3505  0.8078
13653TIP3    H162450   2.775   3.202  11.279  0.4582  1.2756 -1.9099
13653TIP3    H262451   2.894   3.111  11.302 -0.1512  0.7028 -0.9318
13654TIP3   OH262452   2.590   2.285  14.240  0.2186  0.3049  0.3713
13654TIP3    H162453   2.519   2.328  14.191  0.6245 -0.9513 -1.4129
13654TIP3    H262454   2.620   2.215  14.182  1.4770 -0.5758  2.0073
13655TIP3   OH262455   5.489   5.846  15.703 -0.2552  0.3508 -0.8497
13655TIP3    H162456   5.471   5.891  15.786 -1.7409  0.3290 -1.1305
13655TIP3    H262457   5.550   5.904  15.658  0.9289  0.1508  0.4149
13656TIP3   OH262458   0.734   6.321   5.814  0.6164  0.0447 -0.1221
13656TIP3    H162459   0.749   6.258   5.743 -1.1034  0.2271 -0.6908
13656TIP3    H262460   0.699   6.398   5.769 -0.4637  0.1736  0.9134
13657TIP3   OH262461   3.415   6.039  11.090 -0.4160 -0.1648  0.0779
13657TIP3    H162462   3.468   6.002  11.161 -1.5450  0.8387  1.5083
13657TIP3    H262463   3.471   6.106  11.051 -0.9186  1.7175  2.3307
13658TIP3   OH262464   3.381   1.185  11.826  0.3577  0.2184  1.0619
13658TIP3    H162465   3.460   1.145  11.790  1.1748  1.4764  1.4055
13658TIP3    H262466   3.321   1.192  11.751  0.7566 -0.2712  0.6897
13659TIP3   OH262467   4.757   5.430  11.174 -0.3264 -0.1420 -0.4254
13659TIP3    H162468   4.814   5.505  11.189  0.0178 -0.7155  1.4570
13659TIP3    H262469   4.798   5.359  11.225 -2.1237 -0.8524  0.0902
13660TIP3   OH262470   0.155   1.390  13.432 -0.0566 -0.5941 -0.4296
13660TIP3    H162471   0.182   1.479  13.457  1.1469 -0.9402 -0.4287
13660TIP3    H262472   0.063   1.384  13.458  0.0625  0.3975  0.2495
13661TIP3   OH262473   0.472   2.545  14.581 -0.0892  0.0524  0.0726
13661TIP3    H162474   0.419   2.534  14.659  0.5313  1.5231  0.7419
13661TIP3    H262475   0.409   2.551  14.509 -0.7198 -0.1974  0.6012
13662TIP3   OH262476   5.462   0.401   3.690  0.1579  0.3682  0.1714
13662TIP3    H162477   5.445   0.356   3.772 -1.3005  0.2808 -0.1515
13662TIP3    H262478   5.379   0.397   3.643  1.0554  0.1252 -1.4583
13663TIP3   OH262479   4.008   0.653  14.121 -0.3318 -0.1632 -0.4469
13663TIP3    H162480   4.060   0.647  14.041 -1.1108  1.1498 -1.0769
13663TIP3    H262481   4.039   0.580  14.175  2.1562  0.5588 -0.7935
13664TIP3   OH262482   0.805   2.009  16.752 -0.6826 -0.2002 -0.1834
13664TIP3    H162483   0.843   2.070  16.690 -0.3574  0.1806  0.3768
13664TIP3    H262484   0.872   1.941  16.763 -0.6175 -0.1143 -0.0375
13665TIP3   OH262485   5.093   4.226   3.365 -0.6252 -0.3599 -0.5345
13665TIP3    H162486   5.173   4.242   3.314 -0.7343  0.3038 -0.5170
13665TIP3    H262487   5.101   4.136   3.395 -0.6845 -0.8649 -1.9576
13666TIP3   OH262488   0.655   3.791  13.201 -0.7984 -0.0191 -0.1327
13666TIP3    H162489   0.719   3.766  13.267 -1.0067 -0.9580 -0.2765
13666TIP3    H262490   0.571   3.791  13.247 -0.8683 -0.1076 -0.2569
13667TIP3   OH262491   1.263   6.230  15.215  0.2457  0.0873  0.0925
13667TIP3    H162492   1.249   6.263  15.126 -1.3405 -0.8607 -0.0427
13667TIP3    H262493   1.176   6.203  15.244  1.0113 -1.1890  1.3076
13668TIP3   OH262494   3.478   3.757  14.230  0.0056 -0.4386  0.1559
13668TIP3    H162495   3.558   3.741  14.180  0.6440  0.9774  0.6472
13668TIP3    H262496   3.494   3.715  14.315 -0.1366 -0.8997 -0.0446
13669TIP3   OH262497   5.291   3.706  14.019 -0.2477 -0.5325  0.0150
13669TIP3    H162498   5.240   3.786  14.034 -1.7937 -1.2333 -1.1357
13669TIP3    H262499   5.299   3.666  14.106 -1.6598 -0.3498  0.2631
13670TIP3   OH262500   1.910   0.632   1.106 -0.6095 -0.4745 -0.4622
13670TIP3    H162501   1.978   0.684   1.064  1.4760 -1.1637  1.7862
13670TIP3    H262502   1.829   0.662   1.067  1.0070 -0.2829 -4.0364
13671TIP3   OH262503   1.388   3.436   1.760  0.2096  0.0653 -0.8302
13671TIP3    H162504   1.427   3.501   1.702  0.1817  0.6270 -0.2337
13671TIP3    H262505   1.387   3.355   1.709  0.3431  0.5078 -1.5426
13672TIP3   OH262506   4.968   3.036   4.872  0.0866  0.0709 -0.5656
13672TIP3    H162507   5.062   3.032   4.889  0.1393  0.0806 -0.8487
13672TIP3    H262508   4.934   3.091   4.942  0.0984 -1.0099  0.3191
13673TIP3   OH262509   4.355   5.603  11.680 -1.0248 -0.0012 -0.0878
13673TIP3    H162510   4.260   5.595  11.669 -1.2033  0.7160  0.7934
13673TIP3    H262511   4.369   5.694  11.707 -0.3322 -0.6807  2.0351
13674TIP3   OH262512   3.231   1.621   6.309 -0.7768 -0.4616 -0.1740
13674TIP3    H162513   3.320   1.616   6.275 -0.8001  0.2154 -0.3552
13674TIP3    H262514   3.240   1.651   6.399 -0.8731  0.8815 -0.5874
13675TIP3   OH262515   5.054   4.390  16.556 -0.0396 -0.2267  0.2830
13675TIP3    H162516   5.091   4.342  16.629 -2.1386  0.0609  1.6385
13675TIP3    H262517   5.054   4.328  16.483 -1.1148 -1.7428  1.5094
13676TIP3   OH262518   4.398   3.802  11.992 -0.2576  0.3352  0.1059
13676TIP3    H162519   4.453   3.880  11.995  0.3181 -0.0705  0.4257
13676TIP3    H262520   4.392   3.780  11.899 -0.4629  0.7878  0.0119
13677TIP3   OH262521   0.278   3.520   6.014  0.0787  0.0375 -0.0025
13677TIP3    H162522   0.280   3.584   5.943 -0.3631  0.7702  0.6203
13677TIP3    H262523   0.348   3.547   6.074  0.4201 -0.5455 -0.1353
13678TIP3   OH262524   5.939   5.551   3.119 -0.3104  0.3151  0.5356
13678TIP3    H162525   5.947   5.607   3.041  1.2186 -0.5483  0.0194
13678TIP3    H262526   6.024   5.557   3.162  0.1562 -2.0588  0.1154
13679TIP3   OH262527   2.168   1.294  15.640  0.0599  0.2746  0.1567
13679TIP3    H162528   2.219   1.246  15.574  0.0993  0.4272  0.0756
13679TIP3    H262529   2.229   1.360  15.673  0.3182 -0.3339  0.9475
13680TIP3   OH262530   2.084   4.990  16.033 -0.0270 -0.4478 -0.1151
13680TIP3    H162531   2.125   5.002  15.947 -3.0382 -1.3134 -1.8325
13680TIP3    H262532   2.009   5.049  16.032  1.0309  1.1758  2.9193
13681TIP3   OH262533   1.074   4.903  11.960 -0.2050  0.2121 -0.5364
13681TIP3    H162534   1.066   4.947  11.876 -0.6009  0.4954 -0.3530
13681TIP3    H262535   1.016   4.952  12.018  1.3952  1.1380  0.3613
13682TIP3   OH262536   0.025   3.023   0.881  0.0401  0.6131  0.2740
13682TIP3    H162537   0.104   3.012   0.935 -0.4973  0.9150  1.1414
13682TIP3    H262538   0.039   3.106   0.835  0.5460  0.3064 -0.1350
13683TIP3   OH262539   3.635   3.460  15.901 -0.4010 -0.3209  0.1373
13683TIP3    H162540   3.682   3.509  15.834 -0.0856 -2.5619 -1.4037
13683TIP3    H262541   3.700   3.447  15.971  0.2163 -0.4768 -0.4540
13684TIP3   OH262542   0.687   0.898  17.090  0.3810  0.1701 -0.0811
13684TIP3    H162543   0.715   0.901  16.998 -1.0398 -1.9179 -0.6522
13684TIP3    H262544   0.764   0.924  17.140  1.5541  0.1512 -1.8035
13685TIP3   OH262545   6.724   2.789   3.854  0.1157 -0.7397  0.0958
13685TIP3    H162546   6.693   2.738   3.930  0.0064 -1.6210 -0.5237
13685TIP3    H262547   6.695   2.739   3.778  0.2501  0.1219 -0.5363
13686TIP3   OH262548   3.655   2.882   2.853  0.0316  0.5006  0.4711
13686TIP3    H162549   3.577   2.937   2.862  0.2365  0.8782 -0.0298
13686TIP3    H262550   3.727   2.938   2.880  0.0553 -0.1207  1.7988
13687TIP3   OH262551   0.782   0.271  16.676  0.2939  0.3007 -0.1454
13687TIP3    H162552   0.713   0.289  16.740 -0.8617  2.1989 -1.8254
13687TIP3    H262553   0.846   0.340  16.689 -0.0566  0.8303 -1.1528
13688TIP3   OH262554   0.613   2.484  16.540  0.2779  0.4611 -0.4958
13688TIP3    H162555   0.535   2.447  16.582  0.1756  0.9382 -0.2599
13688TIP3    H262556   0.594   2.480  16.447 -0.5728  1.7446 -0.3936
13689TIP3   OH262557   1.538   4.886  12.060 -0.6348  0.0630  0.2887
13689TIP3    H162558   1.576   4.881  12.147 -0.6184  0.0404  0.2802
13689TIP3    H262559   1.582   4.960  12.018 -1.4217  0.7674  0.6770
13690TIP3   OH262560   6.356   4.791   1.262 -0.0738  0.1622  0.0325
13690TIP3    H162561   6.296   4.736   1.312  2.1103 -0.3839  2.2526
13690TIP3    H262562   6.312   4.876   1.258 -2.2852 -0.9446 -1.1036
13691TIP3   OH262563   0.690   2.286   3.601 -0.1256 -0.5672 -0.6501
13691TIP3    H162564   0.617   2.260   3.658  0.4174 -0.0406  0.3155
13691TIP3    H262565   0.767   2.247   3.642  0.2191 -0.6107 -1.3249
13692TIP3   OH262566   3.397   1.041   0.606 -0.4779 -0.6169  0.6876
13692TIP3    H162567   3.473   1.014   0.657 -0.7598 -0.3455  1.2699
13692TIP3    H262568   3.394   0.979   0.532 -0.4341 -1.4373  1.3515
13693TIP3   OH262569   5.721   4.010  13.578  0.8130 -0.3961  0.5041
13693TIP3    H162570   5.816   4.002  13.568  0.8658 -0.4329  1.0200
13693TIP3    H262571   5.703   4.102  13.558  0.8488 -0.5786 -0.3981
13694TIP3   OH262572   1.665   3.158  15.197  0.0283  0.3224 -0.3564
13694TIP3    H162573   1.572   3.159  15.175 -0.3851  1.3494  1.2865
13694TIP3    H262574   1.683   3.067  15.221 -0.4564  0.0452 -1.0210
13695TIP3   OH262575   1.870   5.100  12.323  0.8448  0.4801  0.5415
13695TIP3    H162576   1.883   5.113  12.417  1.7932 -1.1067  0.6670
13695TIP3    H262577   1.931   5.030  12.300 -3.2555 -3.3581 -0.0605
13696TIP3   OH262578   0.680   1.408   1.490  0.6581  0.5492  0.1298
13696TIP3    H162579   0.595   1.451   1.491  0.7554  0.7963  2.3812
13696TIP3    H262580   0.695   1.382   1.581  3.6903  1.9929  0.1726
13697TIP3   OH262581   2.187   5.924   5.361  0.0162 -0.4964  0.2120
13697TIP3    H162582   2.227   5.932   5.448 -0.5970 -0.0100  0.4629
13697TIP3    H262583   2.162   6.014   5.338 -2.8603 -0.9589  1.0334
13698TIP3   OH262584   6.181   3.337   4.532 -0.4153 -0.4849 -0.4051
13698TIP3    H162585   6.234   3.278   4.479 -1.5251 -1.2961 -0.6508
13698TIP3    H262586   6.148   3.402   4.470  0.4724  0.1809 -0.2056
13699TIP3   OH262587   2.543   2.420   4.257  0.2466 -0.0442 -0.0878
13699TIP3    H162588   2.602   2.476   4.307  1.1627 -2.4443  1.7171
13699TIP3    H262589   2.471   2.402   4.317 -1.1494  0.9139 -1.4248
13700TIP3   OH262590   1.542   3.579   3.709 -0.2626  0.2950 -0.0531
13700TIP3    H162591   1.574   3.641   3.643 -0.1313 -1.6953 -1.9726
13700TIP3    H262592   1.617   3.521   3.724 -1.1093 -0.8139 -0.0814
13701TIP3   OH262593   4.827   5.695   5.885  0.0588  0.2704 -0.2639
13701TIP3    H162594   4.759   5.644   5.841  0.1890  1.4041 -1.8856
13701TIP3    H262595   4.906   5.643   5.874  0.3366  1.0463 -2.5298
13702TIP3   OH262596   3.718   4.220   0.303 -0.2619  0.8359 -0.3281
13702TIP3    H162597   3.751   4.221   0.393  1.8378  1.3509 -1.0589
13702TIP3    H262598   3.732   4.309   0.271  0.0702  0.3737 -1.5291
13703TIP3   OH262599   2.639   0.646  15.941 -0.7125  0.8957 -0.1229
13703TIP3    H162600   2.544   0.648  15.952 -0.5758  1.8492  1.1416
13703TIP3    H262601   2.673   0.657  16.029  0.5772  0.8760 -0.6051
13704TIP3   OH262602   5.770   0.678   1.941 -0.1678 -0.2499  0.0177
13704TIP3    H162603   5.707   0.634   1.885  0.2210 -1.6155  0.6145
13704TIP3    H262604   5.841   0.704   1.882 -0.7387  0.2405 -0.4603
13705TIP3   OH262605   5.871   6.138  16.867 -0.4891 -0.3991  0.0182
13705TIP3    H162606   5.966   6.131  16.860 -0.2583  1.1505  1.1577
13705TIP3    H262607   5.839   6.050  16.846  1.2201 -1.1377  0.3233
13706TIP3   OH262608   4.549   0.716   3.881  0.3396  0.1395  0.7003
13706TIP3    H162609   4.539   0.806   3.851  0.9284  0.0061  0.0608
13706TIP3    H262610   4.483   0.706   3.950 -1.6669  0.2236 -1.0909
13707TIP3   OH262611   2.280   0.324  12.505  0.0535 -0.2759 -0.4201
13707TIP3    H162612   2.253   0.233  12.519 -2.6698  0.2535 -1.5570
13707TIP3    H262613   2.294   0.331  12.411  3.3046 -0.1664 -0.0471
13708TIP3   OH262614   5.963   0.130   2.801 -0.2599  0.6063 -0.1935
13708TIP3    H162615   5.972   0.164   2.712 -0.1656 -1.7178 -1.1635
13708TIP3    H262616   6.043   0.156   2.846  0.5505  0.2470 -1.3938
13709TIP3   OH262617   2.640   4.247   6.130 -0.0183  0.3150 -0.1579
13709TIP3    H162618   2.734   4.265   6.126 -0.3634  2.0890 -1.2163
13709TIP3    H262619   2.609   4.297   6.205 -0.3598  1.1039 -0.8047
13710TIP3   OH262620   0.135   6.479  13.218 -0.3987 -0.1360 -0.3543
13710TIP3    H162621   0.175   6.410  13.271 -2.5642 -0.3585  1.0909
13710TIP3    H262622   0.121   6.551  13.279  0.0994  0.9029 -1.4251
13711TIP3   OH262623   0.738   6.431   4.180 -0.8807 -0.0551  0.1905
13711TIP3    H162624   0.690   6.442   4.098  1.3291  1.1586 -1.0069
13711TIP3    H262625   0.767   6.519   4.203 -0.2227 -0.5887  1.5207
13712TIP3   OH262626   6.445   5.405  14.913 -0.0345  0.2586  0.3155
13712TIP3    H162627   6.488   5.491  14.905  0.6758  0.1550  2.4734
13712TIP3    H262628   6.517   5.343  14.921 -0.5354 -0.6415 -1.6144
13713TIP3   OH262629   5.331   6.319  14.751 -0.5353 -0.8954  0.1328
13713TIP3    H162630   5.418   6.312  14.789  0.6905  0.9182 -2.0074
13713TIP3    H262631   5.306   6.410  14.767  0.6917  0.4648 -4.2115
13714TIP3   OH262632   3.531   0.477  11.361 -0.5385  0.0531 -0.7876
13714TIP3    H162633   3.527   0.449  11.270 -0.6340  1.6187 -1.2860
13714TIP3    H262634   3.585   0.556  11.360 -3.1485  1.9753 -0.0076
13715TIP3   OH262635   3.780   3.974   5.804 -0.1618  0.1081  0.4100
13715TIP3    H162636   3.696   4.018   5.791  0.2153  0.4541 -1.0907
13715TIP3    H262637   3.818   3.969   5.716  0.0291 -2.8567  0.5706
13716TIP3   OH262638   0.127   0.533   4.353 -0.0380 -0.2869  0.4468
13716TIP3    H162639   0.140   0.593   4.280  0.6143 -1.5121 -0.4999
13716TIP3    H262640   0.034   0.511   4.351  0.2666 -1.6591 -1.1816
13717TIP3   OH262641   2.544   6.263   3.400 -0.1380  0.1280 -0.7564
13717TIP3    H162642   2.618   6.233   3.453  0.0835 -2.0114 -2.1518
13717TIP3    H262643   2.534   6.355   3.424  0.9305 -0.3081  1.8126
13718TIP3   OH262644   4.087   6.007   1.911 -0.1425  0.0625  0.6436
13718TIP3    H162645   4.014   5.947   1.922  0.5581 -0.5990  2.0906
13718TIP3    H262646   4.069   6.078   1.972 -0.6491  1.0321 -0.5991
13719TIP3   OH262647   2.392   4.795  16.436 -0.1230  0.3874 -0.1742
13719TIP3    H162648   2.326   4.781  16.504  1.5424 -1.5963  1.1577
13719TIP3    H262649   2.428   4.882  16.454 -0.4851  0.3459  0.7859
13720TIP3   OH262650   2.465   3.394   4.903  0.2540  0.1203  0.0483
13720TIP3    H162651   2.413   3.326   4.946  0.3246  0.0225 -0.0210
13720TIP3    H262652   2.553   3.382   4.938  0.0686  0.7999  0.7792
13721TIP3   OH262653   0.126   2.998  16.448  0.3650  0.4401 -0.0593
13721TIP3    H162654   0.184   2.922  16.453 -0.5910 -0.3720 -0.6143
13721TIP3    H262655   0.125   3.034  16.537  1.9365  0.6649 -0.1239
13722TIP3   OH262656   3.287   1.316   0.248 -0.2542  0.0942 -0.2459
13722TIP3    H162657   3.289   1.326   0.343 -1.1051 -0.6062 -0.1484
13722TIP3    H262658   3.227   1.384   0.218 -0.5786 -0.1837 -0.2193
13723TIP3   OH262659   2.627   0.364   0.108 -0.3295  0.1850 -0.0486
13723TIP3    H162660   2.699   0.397   0.163  0.4794 -0.7924 -0.4877
13723TIP3    H262661   2.620   0.272   0.131 -1.8864  0.3887  0.4243
13724TIP3   OH262662   2.515   2.681  14.462 -0.5413  0.1555  0.2985
13724TIP3    H162663   2.437   2.626  14.470  1.1322 -2.3122  0.8352
13724TIP3    H262664   2.573   2.652  14.533  0.6297  2.3637  0.3415
13725TIP3   OH262665   5.892   0.101   5.475 -0.2696  0.3692  0.1432
13725TIP3    H162666   5.977   0.093   5.520  0.0966  1.2386 -0.3645
13725TIP3    H262667   5.856   0.184   5.507 -0.0013  1.0043 -1.1290
13726TIP3   OH262668   3.363   0.283   5.075 -0.2623 -0.0261 -0.5959
13726TIP3    H162669   3.326   0.371   5.073 -0.2378 -0.0224 -1.0742
13726TIP3    H262670   3.319   0.240   5.149 -1.3482 -0.0698 -1.2405
13727TIP3   OH262671   2.056   3.089  11.811  0.2781 -0.7338 -0.1555
13727TIP3    H162672   1.995   3.105  11.883 -0.5570 -0.7758 -0.8357
13727TIP3    H262673   2.136   3.058  11.853 -0.1172 -0.5297  0.7644
13728TIP3   OH262674   4.189   6.150   3.253  0.4255 -0.1482  0.2020
13728TIP3    H162675   4.181   6.166   3.347  0.6049  1.2757 -0.0009
13728TIP3    H262676   4.242   6.223   3.221  0.2788 -0.5613 -1.0203
13729TIP3   OH262677   2.502   2.133   0.194 -0.1026  0.0013 -0.3720
13729TIP3    H162678   2.495   2.141   0.289 -1.3160  1.3383 -0.5468
13729TIP3    H262679   2.540   2.046   0.180  1.7622  0.4861  1.3656
13730TIP3   OH262680   5.193   1.132  11.161  0.3178 -0.6352 -0.4885
13730TIP3    H162681   5.231   1.046  11.147 -2.0743 -1.7787 -0.5612
13730TIP3    H262682   5.239   1.167  11.237  0.6955 -2.4127  0.1495
13731TIP3   OH262683   4.197   0.935  11.681  0.0251  0.0061 -0.0781
13731TIP3    H162684   4.122   0.920  11.623  0.5581  0.1869 -0.8328
13731TIP3    H262685   4.254   0.860  11.667  0.1031 -0.0105  0.3124
13732TIP3   OH262686   4.357   1.829   1.642  0.3352  0.0980 -0.4177
13732TIP3    H162687   4.304   1.871   1.574 -0.2674  0.2122  0.1139
13732TIP3    H262688   4.294   1.779   1.694  1.0507 -1.6033 -1.1158
13733TIP3   OH262689   0.281   5.730  11.821  0.2633  0.0082  0.1868
13733TIP3    H162690   0.225   5.658  11.850  0.4246 -0.5077 -0.7301
13733TIP3    H262691   0.313   5.770  11.901  1.3521 -1.8655  0.7537
13734TIP3   OH262692   1.127   2.686   1.151 -0.3456  0.1671 -0.9254
13734TIP3    H162693   1.098   2.681   1.060  0.3747  0.7910 -1.2003
13734TIP3    H262694   1.125   2.779   1.173  0.9114  0.1850 -0.7984
13735TIP3   OH262695   5.447   2.773   1.148  0.5227 -0.2324  0.1858
13735TIP3    H162696   5.368   2.827   1.156  0.7102 -0.0441  0.8545
13735TIP3    H262697   5.443   2.737   1.060  1.4432  2.5153 -1.1026
13736TIP3   OH262698   6.549   2.265  12.342 -0.0456  0.1950  0.3714
13736TIP3    H162699   6.634   2.304  12.363  0.6905 -1.1348 -0.0775
13736TIP3    H262700   6.530   2.297  12.254  0.9585 -1.0910 -0.3386
13737TIP3   OH262701   0.288   0.644   0.942  0.3490 -0.2189  0.1773
13737TIP3    H162702   0.268   0.643   1.035  2.7149  2.8874  0.8832
13737TIP3    H262703   0.333   0.561   0.926 -0.1080 -0.8093  1.7837
13738TIP3   OH262704   2.601   2.353  12.115 -0.2801 -0.1869 -0.7696
13738TIP3    H162705   2.597   2.259  12.131 -0.1803 -0.0076  0.4782
13738TIP3    H262706   2.668   2.363  12.047 -0.5611 -1.0337 -1.1894
13739TIP3   OH262707   4.639   5.602  10.736 -0.0448  0.3351  0.0757
13739TIP3    H162708   4.666   5.691  10.715  0.6305 -0.1850 -1.3757
13739TIP3    H262709   4.565   5.585  10.678  0.1273 -0.2142  0.0107
13740TIP3   OH262710   2.610   2.335   4.720 -0.0786 -0.4292  0.0581
13740TIP3    H162711   2.672   2.263   4.732  0.8546  0.2101 -0.6937
13740TIP3    H262712   2.585   2.360   4.809  1.1892 -0.3552  0.4160
13741TIP3   OH262713   5.879   5.267  13.378  0.7669 -0.2900  0.1307
13741TIP3    H162714   5.818   5.201  13.411  0.8885 -1.0151 -1.0080
13741TIP3    H262715   5.853   5.280  13.287  1.4659  0.4019  0.0160
13742TIP3   OH262716   6.356   3.985  13.014 -0.2390 -0.1621 -0.3443
13742TIP3    H162717   6.288   3.979  12.947  0.2192  1.9601 -1.0697
13742TIP3    H262718   6.317   3.944  13.091 -1.4225 -1.1112 -1.3984
13743TIP3   OH262719   3.824   6.248   4.477  0.1950 -0.2440 -0.8923
13743TIP3    H162720   3.793   6.162   4.506 -0.4360  0.3071  0.1311
13743TIP3    H262721   3.790   6.257   4.388 -1.9518 -0.0322 -0.1303
13744TIP3   OH262722   1.472   0.871  16.469 -0.1301  0.3393  0.0007
13744TIP3    H162723   1.382   0.839  16.472 -0.7797  2.1278  1.1487
13744TIP3    H262724   1.490   0.901  16.558  1.1606  1.1420 -0.4974
13745TIP3   OH262725   2.981   0.649  16.232 -0.2724 -0.0398  0.0026
13745TIP3    H162726   3.018   0.689  16.311 -0.4612 -0.5678  0.3650
13745TIP3    H262727   3.055   0.609  16.188 -0.3715 -0.9488  0.6391
13746TIP3   OH262728   4.785   0.091  11.516 -0.0935  0.0116  0.3852
13746TIP3    H162729   4.782   0.168  11.573 -2.3705  0.6279 -0.4588
13746TIP3    H262730   4.777   0.017  11.576  1.8939  0.3652  1.1878
13747TIP3   OH262731   5.671   2.158  14.069 -0.7292  0.0847 -0.7342
13747TIP3    H162732   5.680   2.083  14.010 -1.5789 -0.5916 -0.0369
13747TIP3    H262733   5.578   2.178  14.068 -0.6531  0.5028 -0.1631
13748TIP3   OH262734   2.842   2.731  13.453  0.9170  0.2281  0.2548
13748TIP3    H162735   2.821   2.670  13.524  0.8910  0.8972  0.8346
13748TIP3    H262736   2.807   2.815  13.483  2.6848  0.9633  0.3645
13749TIP3   OH262737   5.098   0.523  16.082  0.5234  0.8801  0.4788
13749TIP3    H162738   5.172   0.466  16.103  1.5211  2.2477  0.8190
13749TIP3    H262739   5.109   0.544  15.989  0.9388  1.5662  0.6712
13750TIP3   OH262740   3.322   3.404  12.644  0.4392  0.4984  0.3499
13750TIP3    H162741   3.278   3.368  12.721  0.2603  1.3315  0.6530
13750TIP3    H262742   3.370   3.480  12.677 -1.6316  2.3986 -0.7086
13751TIP3   OH262743   1.865   2.081  15.351  0.3065 -0.4831  0.6115
13751TIP3    H162744   1.815   2.004  15.323 -0.6951  0.3119  0.1501
13751TIP3    H262745   1.885   2.127  15.270 -3.9835  2.6855  1.0052
13752TIP3   OH262746   0.048   5.945   2.766  0.0774 -0.6409  0.0905
13752TIP3    H162747   0.093   5.866   2.797  1.1248  0.0397  0.3487
13752TIP3    H262748   0.110   5.984   2.704  0.2006  0.7394  1.0533
13753TIP3   OH262749   1.665   4.458   3.155 -0.3164  0.0787  0.1855
13753TIP3    H162750   1.752   4.454   3.195 -0.8366 -1.1557  1.2765
13753TIP3    H262751   1.682   4.457   3.061  0.8569  0.2755  0.3798
13754TIP3   OH262752   4.155   4.046  15.733  0.0924  0.3425 -0.1584
13754TIP3    H162753   4.248   4.026  15.740  0.4828  1.4108 -1.9385
13754TIP3    H262754   4.146   4.094  15.651 -2.3563 -1.7134 -1.2385
13755TIP3   OH262755   1.259   5.770   6.357  0.0874  0.3345 -0.6071
13755TIP3    H162756   1.180   5.755   6.409  0.4596  0.1337 -0.0823
13755TIP3    H262757   1.228   5.787   6.269 -0.5587  0.6159 -0.3247
13756TIP3   OH262758   1.935   6.216   2.871  0.6224 -0.2870  0.1536
13756TIP3    H162759   1.919   6.204   2.964  4.2272  1.3961  1.1545
13756TIP3    H262760   1.996   6.146   2.848  2.9787  1.6727  0.1611
13757TIP3   OH262761   0.522   4.968   5.996 -0.3995 -0.0586 -0.2106
13757TIP3    H162762   0.534   4.899   5.930 -1.2500 -0.4246  0.0147
13757TIP3    H262763   0.474   4.925   6.067 -0.6223  0.6755  0.0834
13758TIP3   OH262764   0.996   2.367   2.030 -0.0345  0.0074 -0.2089
13758TIP3    H162765   0.985   2.462   2.034  0.1510  0.0662 -0.9669
13758TIP3    H262766   1.022   2.350   1.939  2.3186 -0.5282  0.5271
13759TIP3   OH262767   2.995   3.400   1.777 -0.0594 -0.6133  0.2814
13759TIP3    H162768   3.022   3.392   1.686  0.7714  0.2969  0.4354
13759TIP3    H262769   3.075   3.420   1.825 -0.6022 -0.3556  1.1110
13760TIP3   OH262770   6.040   6.010  13.443  0.0838  0.0959  0.0544
13760TIP3    H162771   5.972   6.062  13.401 -0.0943  0.6141  0.9663
13760TIP3    H262772   6.113   6.071  13.454  0.1919 -0.0808  0.3321
13761TIP3   OH262773   1.816   2.778  13.487 -0.6534 -0.4372  0.2017
13761TIP3    H162774   1.824   2.859  13.435  0.3134  0.9453  2.3844
13761TIP3    H262775   1.884   2.721  13.452  0.8508  0.9514  0.7096
13762TIP3   OH262776   1.755   0.172  11.141  0.0543  0.0406 -0.5255
13762TIP3    H162777   1.719   0.120  11.070 -0.8328 -1.3390  0.8749
13762TIP3    H262778   1.820   0.116  11.182  1.4026  1.2548 -0.9120
13763TIP3   OH262779   5.014   4.521  16.245  0.3624 -0.2402 -0.2862
13763TIP3    H162780   5.079   4.588  16.226 -0.5336  0.7672  0.0997
13763TIP3    H262781   4.935   4.570  16.268  0.3440 -1.3715  2.3948
13764TIP3   OH262782   6.059   0.127   3.302  0.2930 -0.0339 -0.1855
13764TIP3    H162783   6.012   0.146   3.383 -0.0624  0.6307 -0.5406
13764TIP3    H262784   6.015   0.180   3.235  1.2153  0.2012 -0.6243
13765TIP3   OH262785   5.891   6.489   3.608 -0.0322 -0.2807  0.0086
13765TIP3    H162786   5.950   6.418   3.633 -0.6510 -0.5194  0.8362
13765TIP3    H262787   5.943   6.569   3.618  1.2200 -0.6504 -2.5173
13766TIP3   OH262788   6.039   4.958  12.268 -0.1240  0.2949  0.2156
13766TIP3    H162789   6.021   4.864  12.276  0.9541 -0.0994 -1.2831
13766TIP3    H262790   6.090   4.979  12.346  0.8694 -0.7350 -0.1187
13767TIP3   OH262791   0.435   5.454   1.256  0.2679  0.0266 -0.0307
13767TIP3    H162792   0.425   5.442   1.161 -0.4843  0.0665  0.0416
13767TIP3    H262793   0.347   5.442   1.291 -0.2820  3.6966  0.2717
13768TIP3   OH262794   4.916   5.470  16.092  0.6904 -0.7064 -0.4460
13768TIP3    H162795   4.928   5.397  16.152 -1.5186 -1.7511 -1.1607
13768TIP3    H262796   4.846   5.522  16.132  1.9389  0.8260 -0.1698
13769TIP3   OH262797   4.476   0.230  11.500  0.4914  0.1552  0.1629
13769TIP3    H162798   4.506   0.142  11.477 -0.2906  0.0719 -0.6158
13769TIP3    H262799   4.470   0.275  11.416  0.2744  0.7492  0.4932
13770TIP3   OH262800   5.375   4.699  17.160  0.3808 -0.3094  0.3929
13770TIP3    H162801   5.315   4.774  17.161  0.2335 -0.4346  0.8424
13770TIP3    H262802   5.393   4.685  17.067  1.0701  0.8024  0.3471
13771TIP3   OH262803   4.081   4.156   1.260 -0.4683  0.0891  0.2623
13771TIP3    H162804   4.162   4.107   1.273  0.4255  1.3913 -0.1150
13771TIP3    H262805   4.012   4.092   1.271  0.6460 -1.3684 -0.7845
13772TIP3   OH262806   0.617   4.083   5.624  0.0203  0.1692  0.9706
13772TIP3    H162807   0.610   4.178   5.616 -0.1007  0.0165 -1.6054
13772TIP3    H262808   0.529   4.051   5.604  0.6021 -0.5351 -0.6423
13773TIP3   OH262809   2.225   3.571  12.597 -0.4609 -0.2442  0.2885
13773TIP3    H162810   2.307   3.594  12.552  0.1846 -1.6889  0.6539
13773TIP3    H262811   2.239   3.600  12.688 -1.4073  1.8501 -0.1845
13774TIP3   OH262812   3.814   3.547   3.548  0.1654  0.4684 -0.2076
13774TIP3    H162813   3.792   3.475   3.607 -1.0221 -0.2000 -1.4060
13774TIP3    H262814   3.883   3.511   3.492  0.3507  0.6355 -0.0835
13775TIP3   OH262815   4.407   4.668   5.321  0.3707  0.1559 -0.0256
13775TIP3    H162816   4.380   4.718   5.397  1.5461  0.8122 -0.0249
13775TIP3    H262817   4.365   4.711   5.247 -0.3583 -0.1769  0.1841
13776TIP3   OH262818   6.255   4.520   0.255  0.3983 -0.0864  0.4401
13776TIP3    H162819   6.214   4.434   0.264  1.8824 -0.8986 -0.2493
13776TIP3    H262820   6.253   4.557   0.343 -0.1983 -0.8578  0.7581
13777TIP3   OH262821   0.162   1.477   3.449 -0.4759 -0.9858  0.5763
13777TIP3    H162822   0.230   1.459   3.514  0.3523 -0.8899 -0.2587
13777TIP3    H262823   0.088   1.511   3.501  0.1955 -0.8466  1.4591
13778TIP3   OH262824   1.557   0.988   3.749  0.7801 -0.2123  0.1997
13778TIP3    H162825   1.505   0.988   3.830  0.7213  1.0513  0.1835
13778TIP3    H262826   1.530   0.909   3.703  0.0219 -0.3948  0.9287
13779TIP3   OH262827   6.557   0.045   4.181 -0.1835 -0.2432  0.2623
13779TIP3    H162828   6.535  -0.009   4.257  0.5912 -2.2761 -0.8805
13779TIP3    H262829   6.590  -0.018   4.116  1.3167  1.6870 -0.9437
13780TIP3   OH262830   3.314   5.402  13.678  0.1032 -0.1369  1.0903
13780TIP3    H162831   3.397   5.411  13.724 -0.0929  1.4511  1.1974
13780TIP3    H262832   3.250   5.447  13.734 -0.8267 -1.2796  0.9785
13781TIP3   OH262833   0.248   3.440  14.817 -0.1349  0.8439  0.2387
13781TIP3    H162834   0.192   3.442  14.896 -0.7344 -0.0798 -0.1502
13781TIP3    H262835   0.195   3.396  14.751  1.6432 -1.5775  0.3088
13782TIP3   OH262836   2.165   6.062   6.297  0.0519 -0.0893  0.4207
13782TIP3    H162837   2.202   5.988   6.344 -0.4415 -0.3950  0.3363
13782TIP3    H262838   2.070   6.051   6.305 -0.0350 -0.0036 -0.4157
13783TIP3   OH262839   2.268   2.895  12.342  0.2292 -0.4878  0.2154
13783TIP3    H162840   2.254   2.919  12.250 -1.5283  0.9001  0.7951
13783TIP3    H262841   2.290   2.978  12.385  0.6807 -1.0657  1.1239
13784TIP3   OH262842   0.322   5.735   1.241  0.0245  0.1983 -0.2549
13784TIP3    H162843   0.345   5.781   1.160 -0.2684 -0.2148 -0.5831
13784TIP3    H262844   0.390   5.668   1.250 -0.5853 -0.5117 -0.7983
13785TIP3   OH262845   3.120   1.531   0.137  0.1505 -0.5227 -0.8108
13785TIP3    H162846   3.097   1.477   0.061  0.2398  0.8092 -1.8027
13785TIP3    H262847   3.083   1.617   0.118 -0.1705 -0.2590  0.8425
13786TIP3   OH262848   6.453   0.239   1.004  0.1246 -0.0495 -0.3203
13786TIP3    H162849   6.422   0.319   0.961  1.8282 -0.0187 -1.5810
13786TIP3    H262850   6.467   0.265   1.095 -0.5543  0.7388 -0.4281
13787TIP3   OH262851   3.441   0.417  11.111  0.0313  0.3247  0.1223
13787TIP3    H162852   3.478   0.408  11.023  2.5801  1.4287  0.9989
13787TIP3    H262853   3.381   0.491  11.104 -0.4611 -0.1451 -0.8610
13788TIP3   OH262854   5.159   1.456   2.679  0.8116  0.3390  0.5465
13788TIP3    H162855   5.187   1.374   2.720 -0.3091 -0.5328 -0.3520
13788TIP3    H262856   5.102   1.497   2.745  0.8220  0.0507  0.7376
13789TIP3   OH262857   3.251   4.967  12.160 -0.2628 -0.4013  0.3093
13789TIP3    H162858   3.183   5.032  12.139 -1.1688 -1.3749  0.1509
13789TIP3    H262859   3.325   5.019  12.192 -1.3594  0.6453  1.2431
13790TIP3   OH262860   4.626   6.333   2.982 -0.1523 -0.2432  0.3715
13790TIP3    H162861   4.677   6.255   3.005  0.9211 -0.2204 -1.7033
13790TIP3    H262862   4.537   6.301   2.972  0.1848 -1.1146  0.0351
13791TIP3   OH262863   4.589   3.686   1.183  0.2829 -0.1421 -0.1104
13791TIP3    H162864   4.642   3.758   1.148 -1.1117  0.6121 -0.7953
13791TIP3    H262865   4.593   3.697   1.278 -1.6884  2.3032 -0.1883
13792TIP3   OH262866   6.664   2.085   5.863  0.2133  0.1395 -0.1919
13792TIP3    H162867   6.713   2.016   5.908  0.4130 -0.5151 -1.3604
13792TIP3    H262868   6.591   2.039   5.821 -0.4579  0.8604  0.1782
13793TIP3   OH262869   4.870   1.948   4.125  0.8075 -0.4285  0.0238
13793TIP3    H162870   4.861   1.863   4.167  1.6771 -0.6559 -0.2129
13793TIP3    H262871   4.907   1.928   4.039 -1.9015 -0.0759 -1.3241
13794TIP3   OH262872   1.931   0.685   1.387 -0.5191  0.1261 -0.0000
13794TIP3    H162873   1.923   0.604   1.437 -0.0619  0.2994  0.3620
13794TIP3    H262874   1.937   0.656   1.296 -1.6044 -0.1794  0.0096
13795TIP3   OH262875   5.955   0.671   5.329 -0.1447 -0.2625  0.5080
13795TIP3    H162876   5.890   0.616   5.284  0.1875 -0.5322  0.3458
13795TIP3    H262877   5.980   0.619   5.406  1.0032 -0.8699 -0.2423
13796TIP3   OH262878   6.206   5.584  15.269 -0.1225  0.7535 -0.3262
13796TIP3    H162879   6.166   5.499  15.251 -0.3100  0.7802 -0.0241
13796TIP3    H262880   6.242   5.576  15.357 -0.4536  1.1056 -0.1562
13797TIP3   OH262881   3.501   0.898  11.033  0.6573  0.4183 -0.1445
13797TIP3    H162882   3.547   0.866  10.955  2.0407  0.4904  0.6148
13797TIP3    H262883   3.411   0.868  11.021  1.2613 -1.2457 -0.8590
13798TIP3   OH262884   5.832   0.100   6.374 -0.1071 -0.6722  0.2540
13798TIP3    H162885   5.919   0.088   6.411 -0.4746 -0.0743  1.3300
13798TIP3    H262886   5.794   0.011   6.372  0.1458 -0.7887  0.7262
13799TIP3   OH262887   4.932   2.501  11.740 -0.1712  0.2987 -0.3409
13799TIP3    H162888   5.001   2.535  11.683  0.2576 -0.3976 -0.2408
13799TIP3    H262889   4.922   2.567  11.808  2.5546 -0.9662  1.4304
13800TIP3   OH262890   0.382   2.764   1.954  0.0306  0.0338 -0.4541
13800TIP3    H162891   0.371   2.756   2.048  0.6393  0.5217 -0.3371
13800TIP3    H262892   0.389   2.674   1.923  1.4159 -0.0979  0.1702
13801TIP3   OH262893   4.223   3.131  10.620 -0.2190  0.0580 -0.2210
13801TIP3    H162894   4.147   3.119  10.677 -2.3133  2.2708 -2.3084
13801TIP3    H262895   4.291   3.164  10.677 -1.1258 -0.9702  1.5429
13802TIP3   OH262896   4.656   6.732  11.633  0.0373  0.1546 -0.5816
13802TIP3    H162897   4.634   6.683  11.554 -0.1060 -0.3563 -0.2242
13802TIP3    H262898   4.641   6.671  11.705 -0.8879  0.9510 -0.0673
13803TIP3   OH262899   1.317   0.885   0.780  0.4018  0.7084 -0.1556
13803TIP3    H162900   1.277   0.923   0.702 -0.7590  1.2037  0.6513
13803TIP3    H262901   1.363   0.808   0.748 -1.2979  0.0481 -1.1435
13804TIP3   OH262902   1.951   3.044   5.694  0.1895  0.1989  0.0934
13804TIP3    H162903   1.869   3.007   5.658 -1.4699  1.7142  2.0850
13804TIP3    H262904   1.973   2.985   5.766  0.9518 -0.2642 -0.5058
13805TIP3   OH262905   0.627   1.710   5.852  0.0030  0.2691  0.4357
13805TIP3    H162906   0.672   1.629   5.874 -1.8141 -1.4053 -1.6308
13805TIP3    H262907   0.697   1.776   5.851  2.1183 -1.8414 -0.8836
13806TIP3   OH262908   0.813   6.619   4.468  0.2830  0.2832 -0.0642
13806TIP3    H162909   0.811   6.531   4.505  0.1888  0.8045  1.2311
13806TIP3    H262910   0.858   6.609   4.384 -2.5290 -1.5285 -1.4844
13807TIP3   OH262911   4.967   6.015  15.076 -0.5143  0.3282 -0.3668
13807TIP3    H162912   4.908   5.999  15.150  0.3276 -0.5682  0.1323
13807TIP3    H262913   5.051   5.977  15.103  0.0930  0.8864 -1.3760
13808TIP3   OH262914   0.937   3.991   3.162  0.1304 -0.2725 -0.1317
13808TIP3    H162915   1.017   3.985   3.215 -0.1883  0.5006  0.4600
13808TIP3    H262916   0.947   4.071   3.111 -0.5479  0.2069  0.4580
13809TIP3   OH262917   0.896   4.574   3.071  0.3707  0.0841  0.1278
13809TIP3    H162918   0.913   4.650   3.016 -0.7033  1.7292  1.9781
13809TIP3    H262919   0.965   4.512   3.048  1.2182  1.5566 -1.4874
13810TIP3   OH262920   0.109   0.639  15.415  0.1312 -0.1544  0.1594
13810TIP3    H162921   0.192   0.599  15.442 -0.4082 -2.4082 -1.3024
13810TIP3    H262922   0.109   0.631  15.320 -0.6354  2.2310 -0.1038
13811TIP3   OH262923   1.340   1.610  11.890  0.5710  0.1854 -0.5740
13811TIP3    H162924   1.391   1.534  11.862 -0.4067 -0.5658 -0.3851
13811TIP3    H262925   1.333   1.600  11.985  1.9872  1.5202 -0.2959
13812TIP3   OH262926   2.063   0.707   6.148  0.3375  0.1486 -0.0581
13812TIP3    H162927   2.077   0.798   6.172 -0.0796  0.7023 -1.7644
13812TIP3    H262928   2.045   0.709   6.054 -1.8993 -1.4506  0.2429
13813TIP3   OH262929   0.914   2.858   2.127 -0.1159 -0.8029  0.6349
13813TIP3    H162930   0.922   2.917   2.052  1.5447 -0.3112  1.1639
13813TIP3    H262931   0.909   2.916   2.203  0.4117 -1.3203  1.0732
13814TIP3   OH262932   1.356   5.561  15.543  0.3564 -0.8304 -0.1532
13814TIP3    H162933   1.435   5.576  15.595 -0.2801  0.4183  0.4994
13814TIP3    H262934   1.341   5.467  15.548  0.5491 -0.7863  1.5773
13815TIP3   OH262935   6.205   0.886  11.720  0.6914  0.0831 -0.1705
13815TIP3    H162936   6.166   0.950  11.780  1.7493 -0.4804  1.1677
13815TIP3    H262937   6.272   0.937  11.673 -0.3441  0.5993 -1.1385
13816TIP3   OH262938   1.941   1.284  16.351 -0.3772  0.4287 -0.5114
13816TIP3    H162939   1.960   1.377  16.336  1.5570 -0.0951 -1.6930
13816TIP3    H262940   1.880   1.261  16.281 -0.0183  0.5703 -0.8752
13817TIP3   OH262941   1.794   0.467   0.687 -0.3577 -0.4276 -0.0771
13817TIP3    H162942   1.837   0.546   0.652  0.7163 -1.0655 -0.2372
13817TIP3    H262943   1.775   0.415   0.609 -0.5702 -0.5691  0.0714
13818TIP3   OH262944   4.236   5.163   1.912 -0.1620 -0.0806 -0.2605
13818TIP3    H162945   4.219   5.181   2.004 -0.3637  3.0270 -0.8025
13818TIP3    H262946   4.329   5.142   1.908 -0.3581 -1.2195  0.7400
13819TIP3   OH262947   5.116   6.277   2.218 -0.2378  0.4778 -0.2832
13819TIP3    H162948   5.068   6.358   2.233  0.3924  0.9432 -0.7310
13819TIP3    H262949   5.175   6.271   2.293 -0.0169  0.6332 -0.4439
13820TIP3   OH262950   0.029   4.423  17.082 -0.4726  0.1173  0.0233
13820TIP3    H162951   0.118   4.456  17.071  0.6829 -1.8897  2.4856
13820TIP3    H262952   0.014   4.370  17.004  0.7647 -0.0403 -0.1329
13821TIP3   OH262953   0.873   4.766  15.978  0.3860 -0.0791 -0.6335
13821TIP3    H162954   0.852   4.757  16.072  0.7275 -0.1530 -0.5641
13821TIP3    H262955   0.803   4.718  15.934  1.5843 -2.2582 -0.3153
13822TIP3   OH262956   0.793   2.669   2.693 -0.3066  0.5303 -0.3708
13822TIP3    H162957   0.739   2.735   2.736  1.8611  1.8590  0.4543
13822TIP3    H262958   0.829   2.713   2.616 -0.1488 -0.2301 -0.7415
13823TIP3   OH262959   2.519   2.692  12.117  0.5522 -0.1005  0.1940
13823TIP3    H162960   2.565   2.754  12.173  2.7097 -0.9338 -0.5751
13823TIP3    H262961   2.506   2.615  12.172 -1.5177  0.7069  0.9330
13824TIP3   OH262962   4.799   1.546  16.230  0.1748 -0.3849  0.2088
13824TIP3    H162963   4.810   1.470  16.287 -0.6393 -0.9973 -0.4148
13824TIP3    H262964   4.718   1.587  16.260  0.7119  0.3544  0.6665
13825TIP3   OH262965   4.595   2.373   4.927 -0.9028 -0.5321 -0.3393
13825TIP3    H162966   4.632   2.317   4.995 -0.4457 -2.8183 -2.3203
13825TIP3    H262967   4.671   2.419   4.890 -0.7573 -1.2634 -0.9739
13826TIP3   OH262968   6.821   0.084   1.834  0.1234  0.0094  0.3271
13826TIP3    H162969   6.726   0.077   1.828  0.0085 -2.2181  2.9215
13826TIP3    H262970   6.838   0.178   1.837 -1.6830  0.5690 -2.6987
13827TIP3   OH262971   0.973   5.415  16.943  0.5231 -0.4184  0.3728
13827TIP3    H162972   0.966   5.454  17.030  0.5688  0.3747  0.0269
13827TIP3    H262973   1.059   5.373  16.941  1.5875  1.6774 -0.1211
13828TIP3   OH262974   1.085   1.934  13.730 -0.2829 -0.2960 -0.5319
13828TIP3    H162975   1.096   1.856  13.675  1.2523  0.2462 -1.0293
13828TIP3    H262976   1.107   2.007  13.673 -0.5009  0.4132  0.2784
13829TIP3   OH262977   5.382   1.684   5.340  0.5613  0.1000 -0.0592
13829TIP3    H162978   5.466   1.645   5.366  0.2948  0.2562  1.1139
13829TIP3    H262979   5.364   1.748   5.409 -1.0467 -0.7102  0.3097
13830TIP3   OH262980   5.273   3.681  13.730  0.0110 -0.5652  0.1572
13830TIP3    H162981   5.265   3.684  13.826  2.3999 -0.6311  0.4038
13830TIP3    H262982   5.222   3.604  13.705  0.5062 -1.3880  1.5308
13831TIP3   OH262983   1.747   4.176   4.119  0.1769 -0.1253 -0.1161
13831TIP3    H162984   1.751   4.171   4.214  2.0816  0.2501 -0.1419
13831TIP3    H262985   1.776   4.265   4.098 -1.2144  0.1461 -1.0252
13832TIP3   OH262986   5.385   1.450  15.574 -0.2495 -0.2157 -0.4555
13832TIP3    H162987   5.463   1.474  15.625 -0.3595  2.3115 -1.3553
13832TIP3    H262988   5.313   1.451  15.637  0.0462  0.0118 -0.1198
13833TIP3   OH262989   6.733   6.625   1.689 -0.4039  0.0610 -0.4028
13833TIP3    H162990   6.654   6.640   1.636 -0.2420  0.1244 -0.6272
13833TIP3    H262991   6.751   6.532   1.680 -1.0870 -0.1765  0.5399
13834TIP3   OH262992   5.716   5.054   3.814 -0.6389 -0.5394  0.2132
13834TIP3    H162993   5.765   5.112   3.873 -2.0756 -0.1307  1.0582
13834TIP3    H262994   5.783   5.000   3.772  0.5797  0.4635  0.8005
13835TIP3   OH262995   1.975   0.925  16.405 -0.1664  0.2262 -0.7746
13835TIP3    H162996   1.977   0.917  16.500 -1.6241 -0.3783 -0.7668
13835TIP3    H262997   1.892   0.969  16.386  0.4282  0.9766 -1.7387
13836TIP3   OH262998   4.034   3.705  12.168  0.2579 -0.1236 -0.0695
13836TIP3    H162999   4.071   3.625  12.131  0.6960  0.9440 -2.0497
13836TIP3    H263000   3.946   3.711  12.130 -0.3293 -0.3553  1.1794
13837TIP3   OH263001   1.085   5.886  11.605 -0.0034 -0.2569 -0.1632
13837TIP3    H163002   1.159   5.855  11.553 -1.1918 -2.3146 -0.7713
13837TIP3    H263003   1.051   5.961  11.556  0.3730 -0.6696 -1.0792
13838TIP3   OH263004   6.142   2.214  12.359 -0.2515  0.1140 -0.0139
13838TIP3    H163005   6.084   2.141  12.338 -2.0662  1.6992 -0.7559
13838TIP3    H263006   6.210   2.175  12.415 -2.9082 -1.5312  2.3131
13839TIP3   OH263007   5.669   5.100  13.450  0.2559 -0.0368  0.1939
13839TIP3    H163008   5.637   5.010  13.446 -0.0619  0.0951 -0.4057
13839TIP3    H263009   5.592   5.153  13.428  1.0870  0.2447 -2.4406
13840TIP3   OH263010   5.482   1.315   5.861  0.3818 -0.3322 -0.0817
13840TIP3    H163011   5.531   1.289   5.783 -2.7913  1.3196 -2.8827
13840TIP3    H263012   5.508   1.406   5.876  1.2511 -0.7516  1.0965
13841TIP3   OH263013   6.781   5.275   1.835 -0.0309  0.0613  0.1688
13841TIP3    H163014   6.713   5.250   1.897  0.5327 -1.6814  0.1169
13841TIP3    H263015   6.805   5.194   1.791  1.8868  0.6863 -0.0311
13842TIP3   OH263016   0.220   1.610   2.439  0.0411 -0.2989 -0.2085
13842TIP3    H163017   0.134   1.649   2.423 -0.0653 -1.4417 -2.9812
13842TIP3    H263018   0.282   1.669   2.398  0.3216 -0.7853 -0.4961
13843TIP3   OH263019   0.094   5.743   3.193 -0.0876  0.5018  0.0434
13843TIP3    H163020   0.138   5.769   3.274  0.1228 -0.9907  0.4444
13843TIP3    H263021   0.093   5.822   3.139  0.0687  1.4384  1.3642
13844TIP3   OH263022   1.916   3.582  15.928 -0.2447  0.2541 -0.0655
13844TIP3    H163023   1.869   3.665  15.928  0.5685  0.7580  1.4425
13844TIP3    H263024   1.995   3.599  15.980 -0.7117 -1.7996  1.4543
13845TIP3   OH263025   5.191   3.669  16.073 -0.0332  0.1693 -0.3735
13845TIP3    H163026   5.265   3.703  16.123 -0.9266 -0.0244  1.1489
13845TIP3    H263027   5.198   3.712  15.987  0.0916  2.5498  0.7536
13846TIP3   OH263028   4.038   0.495  15.650  0.0964 -0.3498 -0.9240
13846TIP3    H163029   4.094   0.482  15.574 -1.6586 -2.4178 -1.9680
13846TIP3    H263030   4.036   0.410  15.694  1.4905  0.9065  1.8617
13847TIP3   OH263031   4.972   2.340   4.814 -0.3287  0.2330 -0.1308
13847TIP3    H163032   4.954   2.408   4.879  0.9947 -1.0129  1.6210
13847TIP3    H263033   4.998   2.388   4.735  1.7279  1.7671  1.3990
13848TIP3   OH263034   2.489   5.035  15.971  0.2964 -0.1427 -0.2360
13848TIP3    H163035   2.425   5.057  15.903  0.8180  1.9898 -0.0893
13848TIP3    H263036   2.436   5.017  16.049 -0.2121 -0.9744 -0.7444
13849TIP3   OH263037   5.449   3.794   1.740 -0.2608  0.2179  0.1754
13849TIP3    H163038   5.461   3.792   1.835  1.0971 -0.7662  0.0096
13849TIP3    H263039   5.526   3.749   1.705 -0.5346  0.9351 -1.4198
13850TIP3   OH263040   4.456   6.100  12.451  0.0788 -0.0403  0.1927
13850TIP3    H163041   4.407   6.176  12.484  0.4218 -0.1437  0.9527
13850TIP3    H263042   4.410   6.024  12.487  0.1219 -0.1734 -0.0336
13851TIP3   OH263043   3.973   6.331   5.098  0.6316 -0.1239  0.1774
13851TIP3    H163044   3.884   6.335   5.061 -0.3465  0.9178  2.4772
13851TIP3    H263045   3.976   6.402   5.161  2.9695 -0.4612  0.5288
13852TIP3   OH263046   4.403   1.736  12.433 -0.5004  0.0667  0.4067
13852TIP3    H163047   4.401   1.716  12.526 -3.1529 -1.3287  0.1305
13852TIP3    H263048   4.428   1.654  12.391  0.2183  0.5634 -0.1663
13853TIP3   OH263049   4.930   5.899  13.994  0.0016 -1.0195 -0.0209
13853TIP3    H163050   4.911   5.827  13.935 -0.0339 -1.4072  0.4547
13853TIP3    H263051   4.967   5.857  14.072  0.0296 -0.5219  0.2390
13854TIP3   OH263052   6.512   6.364   2.086 -0.2954 -0.3528  0.1614
13854TIP3    H163053   6.575   6.423   2.126 -0.6781  1.8002 -2.1629
13854TIP3    H263054   6.429   6.412   2.088 -1.0737 -1.6333 -0.0799
13855TIP3   OH263055   5.429   3.430   5.790 -0.0715  0.5094 -0.5000
13855TIP3    H163056   5.483   3.406   5.866  1.6523  1.6031 -1.3317
13855TIP3    H263057   5.445   3.360   5.726 -0.8229  0.0647 -0.2199
13856TIP3   OH263058   4.259   3.183  16.624 -0.3586 -0.1509  0.1764
13856TIP3    H163059   4.223   3.116  16.565  0.7478  0.5677 -1.3726
13856TIP3    H263060   4.307   3.133  16.689  2.1786 -0.9410 -2.0978
13857TIP3   OH263061   5.700   4.532   3.503 -0.0677  0.1968  0.0255
13857TIP3    H163062   5.674   4.501   3.589 -0.2665 -0.6187 -0.3130
13857TIP3    H263063   5.785   4.492   3.487 -0.9154 -1.3538 -0.9691
13858TIP3   OH263064   5.280   4.451   2.143  0.0556  0.0051 -0.8867
13858TIP3    H163065   5.242   4.539   2.135  0.0602  0.1127  0.1104
13858TIP3    H263066   5.207   4.397   2.175  0.4069 -0.0379 -0.1180
13859TIP3   OH263067   1.584   5.151   1.210  0.4354  0.3400 -0.6442
13859TIP3    H163068   1.529   5.073   1.224  0.8240  0.1973  0.1389
13859TIP3    H263069   1.550   5.216   1.271  0.2634  0.7183 -1.1312
13860TIP3   OH263070   2.009   1.268   3.574 -0.5912 -0.0879  0.0544
13860TIP3    H163071   1.978   1.356   3.553 -1.7032 -0.2429  0.9202
13860TIP3    H263072   2.026   1.227   3.489 -0.3841  0.8530 -0.3661
13861TIP3   OH263073   4.775   0.614  11.966 -0.5579  0.0818  0.1932
13861TIP3    H163074   4.742   0.702  11.947 -1.2150 -0.1353  0.2897
13861TIP3    H263075   4.697   0.564  11.990 -0.2116 -0.5661  0.0000
13862TIP3   OH263076   3.761   5.326  15.564 -0.2665 -0.2681  1.0230
13862TIP3    H163077   3.765   5.315  15.469  1.5392 -0.0670  1.0351
13862TIP3    H263078   3.849   5.353  15.589 -0.6943 -0.3363  2.7683
13863TIP3   OH263079   6.154   0.360   4.581 -0.3351  0.0529  0.0921
13863TIP3    H163080   6.102   0.430   4.620  0.9142  0.8445  0.3945
13863TIP3    H263081   6.183   0.396   4.497  0.0220 -0.2486  0.0866
13864TIP3   OH263082   2.560   3.581  11.347  0.0832  0.0967  0.1071
13864TIP3    H163083   2.599   3.617  11.426  1.3652 -0.2448 -0.3479
13864TIP3    H263084   2.548   3.488  11.365  0.1427  0.0665 -0.0053
13865TIP3   OH263085   0.882   5.161   2.661 -0.2867  0.1569  0.3964
13865TIP3    H163086   0.840   5.230   2.609  1.8097  1.1376 -0.1224
13865TIP3    H263087   0.929   5.108   2.597 -0.3588 -0.6296  0.9879
13866TIP3   OH263088   2.879   4.172   3.498 -0.5409  0.4791 -0.3647
13866TIP3    H163089   2.940   4.137   3.434 -0.5922  1.5938 -1.0577
13866TIP3    H263090   2.835   4.096   3.535 -1.7039 -0.1386 -2.8487
13867TIP3   OH263091   2.413   0.633  11.060 -0.3321  0.2169  0.1624
13867TIP3    H163092   2.353   0.654  10.989 -1.5939 -1.2977  0.7360
13867TIP3    H263093   2.397   0.540  11.079  2.8581 -0.5766 -0.3087
13868TIP3   OH263094   6.486   3.110  14.476  0.2301 -0.0470 -0.6453
13868TIP3    H163095   6.456   3.144  14.560  2.5458  3.9227 -1.1401
13868TIP3    H263096   6.558   3.050  14.498  0.2347  0.2689  0.2288
13869TIP3   OH263097   4.317   2.902  15.669  0.2238 -0.3764  0.9819
13869TIP3    H163098   4.265   2.842  15.615 -0.9554  0.2101  1.4209
13869TIP3    H263099   4.385   2.848  15.707 -1.5109 -1.7207  2.3186
13870TIP3   OH263100   6.707   1.927  15.710 -0.6290 -1.0078  0.2538
13870TIP3    H163101   6.796   1.898  15.691  0.0311  0.5443  0.8161
13870TIP3    H263102   6.655   1.896  15.636  0.5662 -1.0571 -0.5903
13871TIP3   OH263103   4.475   5.118  12.364 -0.4976  0.4101 -0.1998
13871TIP3    H163104   4.422   5.061  12.419 -0.6599  1.7092  1.0534
13871TIP3    H263105   4.560   5.073  12.357 -1.1703 -0.8267 -0.7625
13872TIP3   OH263106   1.880   6.022   4.594  0.3443 -0.4892  0.2275
13872TIP3    H163107   1.805   5.989   4.544 -1.4979  1.7612  1.3246
13872TIP3    H263108   1.920   6.087   4.537  1.0527 -1.1572 -0.0583
13873TIP3   OH263109   1.699   5.486   2.752  0.0293 -0.7660 -0.1310
13873TIP3    H163110   1.621   5.465   2.700 -0.1620 -2.4232  0.7507
13873TIP3    H263111   1.722   5.575   2.725 -2.7082  0.1696  0.2519
13874TIP3   OH263112   4.082   5.582   1.793 -0.3512 -0.2625  0.0236
13874TIP3    H163113   4.050   5.556   1.707  0.0806  1.3228 -0.6379
13874TIP3    H263114   4.004   5.576   1.850 -0.9757  0.0619 -0.7812
13875TIP3   OH263115   0.738   1.267   2.591  0.2980  0.7393 -0.6096
13875TIP3    H163116   0.788   1.323   2.532  0.2157  2.7317  1.0938
13875TIP3    H263117   0.797   1.248   2.663  1.1111 -3.3934 -2.1078
13876TIP3   OH263118   3.747   4.660   2.062 -0.5577 -0.4127 -0.1259
13876TIP3    H163119   3.679   4.706   2.112 -0.8959  0.7212 -1.5645
13876TIP3    H263120   3.750   4.706   1.978  0.8668 -1.4777 -0.6910
13877TIP3   OH263121   5.027   3.285   0.360 -0.4728  0.8499 -0.6081
13877TIP3    H163122   5.016   3.199   0.400 -0.8116  1.5395  0.8379
13877TIP3    H263123   5.084   3.269   0.285  1.7813 -0.2378  1.2126
13878TIP3   OH263124   4.080   2.761  13.681  0.0971  0.0131  0.1346
13878TIP3    H163125   4.125   2.731  13.602  2.1506 -0.3244  1.3475
13878TIP3    H263126   4.029   2.685  13.709 -0.8520  0.2172 -0.9753
13879TIP3   OH263127   5.689   2.970  12.227  0.0502  0.2209 -0.3820
13879TIP3    H163128   5.768   3.008  12.266 -0.5370 -0.6763  1.8461
13879TIP3    H263129   5.628   3.043  12.220 -0.1492  0.2634  1.3556
13880TIP3   OH263130   0.393   4.467   3.871  0.2375 -0.1636 -0.1988
13880TIP3    H163131   0.454   4.534   3.840  1.1363 -1.2852 -0.9462
13880TIP3    H263132   0.306   4.504   3.857  0.7157  0.8123 -0.6458
13881TIP3   OH263133   4.202   5.171   4.947  0.2399 -0.2025 -0.1036
13881TIP3    H163134   4.144   5.113   4.899  0.9827 -0.1633 -1.0863
13881TIP3    H263135   4.146   5.244   4.975  0.0353  0.5028 -2.1760
13882TIP3   OH263136   3.298   1.681  15.800 -0.9079 -0.4814 -1.2467
13882TIP3    H163137   3.297   1.603  15.744  1.1077 -0.4325 -1.4549
13882TIP3    H263138   3.391   1.704  15.806 -1.3216  1.0144  0.0663
13883TIP3   OH263139   0.742   5.953   2.842 -0.1573  0.6844 -0.2972
13883TIP3    H163140   0.801   5.989   2.776 -0.1215 -0.9991 -1.2286
13883TIP3    H263141   0.658   5.943   2.796  0.3920 -2.4300 -0.7818
13884TIP3   OH263142   3.609   5.709  15.368  0.3736 -0.1243  0.6333
13884TIP3    H163143   3.610   5.646  15.441 -0.3279  0.3508  1.0597
13884TIP3    H263144   3.517   5.716  15.343  0.3856  1.0424  0.8633
13885TIP3   OH263145   1.696   3.622  16.149 -0.0815 -0.0879 -0.2135
13885TIP3    H163146   1.763   3.662  16.093 -0.3063 -1.0934 -1.2205
13885TIP3    H263147   1.626   3.688  16.153  1.0484  1.1043  1.0943
13886TIP3   OH263148   3.200   0.179  15.067  0.3362  0.0018 -0.4903
13886TIP3    H163149   3.192   0.181  14.972 -1.9900  0.3811 -0.3355
13886TIP3    H263150   3.271   0.117  15.084  2.5574  1.8284 -2.5057
13887TIP3   OH263151   4.932   6.038   0.353 -0.5326  0.1093  0.0582
13887TIP3    H163152   4.862   5.987   0.312  0.1310  0.4162 -1.5399
13887TIP3    H263153   4.891   6.122   0.372 -0.8476 -0.0257 -0.0048
13888TIP3   OH263154   0.449   5.911  11.117  0.7935  0.1419 -0.2007
13888TIP3    H163155   0.405   5.993  11.094 -0.9742 -0.5621  0.4123
13888TIP3    H263156   0.389   5.869  11.179  2.2754 -1.0142  0.5127
13889TIP3   OH263157   2.823   2.872  14.112  0.5074 -0.4302 -0.7177
13889TIP3    H163158   2.787   2.941  14.056 -0.0101  0.6375  0.8502
13889TIP3    H263159   2.745   2.830  14.151  0.7922  1.3613  2.0773
13890TIP3   OH263160   0.716   3.039  17.137 -0.2514  0.5489  0.3492
13890TIP3    H163161   0.686   3.039  17.228 -2.3399 -0.8966 -0.2537
13890TIP3    H263162   0.729   2.947  17.116  2.1733  0.9766 -0.2708
13891TIP3   OH263163   4.731   3.263  11.078  0.2927 -0.1513 -0.1099
13891TIP3    H163164   4.763   3.256  10.988  2.0113 -0.7396  0.5083
13891TIP3    H263165   4.773   3.190  11.124 -0.1100  0.4715  1.2976
13892TIP3   OH263166   6.667   2.637  16.528 -0.2769 -0.5494 -0.1500
13892TIP3    H163167   6.586   2.655  16.576 -0.2716  0.6050 -0.5300
13892TIP3    H263168   6.693   2.550  16.556 -0.9515 -0.4077  0.9709
13893TIP3   OH263169   3.703   3.077  16.321  0.2133 -0.1623  0.1511
13893TIP3    H163170   3.666   3.009  16.378  0.9419  0.9011  1.9925
13893TIP3    H263171   3.629   3.132  16.297  0.1689  0.6550  1.9602
13894TIP3   OH263172   0.290   2.749   4.540 -0.1943 -0.6810 -0.4732
13894TIP3    H163173   0.219   2.744   4.477  0.0080  1.8986 -1.0123
13894TIP3    H263174   0.251   2.790   4.617 -0.0956 -2.5171  0.6190
13895TIP3   OH263175   4.429   6.615   4.053 -0.1863 -0.5172  0.1498
13895TIP3    H163176   4.403   6.648   4.138 -1.5016  1.2719 -0.8771
13895TIP3    H263177   4.430   6.692   3.996  1.3716 -1.5253 -1.3146
13896TIP3   OH263178   4.097   4.242   5.237 -0.6891  0.5179  0.0049
13896TIP3    H163179   4.008   4.221   5.209 -0.3356 -0.3278 -0.5277
13896TIP3    H263180   4.090   4.259   5.331 -1.3783  0.2646  0.0024
13897TIP3   OH263181   4.666   3.157  15.893  0.6219  0.0567 -0.3185
13897TIP3    H163182   4.739   3.110  15.852  1.4993  0.4814  0.7032
13897TIP3    H263183   4.597   3.157  15.826  1.4507 -0.5981 -1.2067
13898TIP3   OH263184   0.280   0.050   0.052  0.3791  0.0799 -0.2084
13898TIP3    H163185   0.220   0.101  -0.003 -0.8569 -0.1612  0.8639
13898TIP3    H263186   0.355   0.107   0.065 -1.5986  2.4192  2.2799
13899TIP3   OH263187   1.189   1.370  11.414  0.1098 -0.1495  0.2708
13899TIP3    H163188   1.194   1.403  11.325 -0.0011 -0.4325  0.1611
13899TIP3    H263189   1.176   1.449  11.468  0.9992  0.1031  0.1217
13900TIP3   OH263190   3.381   0.683  13.778  0.9937 -0.4002 -0.0772
13900TIP3    H163191   3.316   0.627  13.735  0.7235  0.2378 -0.5059
13900TIP3    H263192   3.385   0.649  13.868  0.8210 -1.0971 -0.3262
13901TIP3   OH263193   5.134   0.338  12.121  0.1120  0.3776  0.7083
13901TIP3    H163194   5.088   0.262  12.158  0.8507  0.1619  1.2113
13901TIP3    H263195   5.120   0.408  12.186  0.1769  0.4200  0.6767
13902TIP3   OH263196   5.064   3.882  13.948 -0.2787 -0.4898 -0.0214
13902TIP3    H163197   5.098   3.960  13.992 -0.7233 -1.0497  1.3813
13902TIP3    H263198   5.026   3.829  14.019 -0.3013 -1.8203 -0.9845
13903TIP3   OH263199   4.348   1.634  14.726  0.0461 -0.4306  0.1600
13903TIP3    H163200   4.358   1.579  14.648  0.9242 -0.6298  0.4008
13903TIP3    H263201   4.268   1.684  14.710  0.0322 -0.7170 -0.7170
13904TIP3   OH263202   4.480   1.046   4.797 -0.1651  0.5402 -0.4010
13904TIP3    H163203   4.538   1.063   4.871  0.7035  2.2889 -1.4277
13904TIP3    H263204   4.421   1.122   4.794 -0.4485  0.3007 -1.2582
13905TIP3   OH263205   5.734   0.339  14.272 -0.7384  0.4544  0.0641
13905TIP3    H163206   5.658   0.292  14.237 -1.8845  1.6439  0.8625
13905TIP3    H263207   5.778   0.275  14.327 -1.0919 -0.2865 -0.4910
13906TIP3   OH263208   6.122   0.108   5.610 -0.5747 -0.2849 -0.0555
13906TIP3    H163209   6.132   0.139   5.700 -0.2545  0.1281 -0.2298
13906TIP3    H263210   6.117   0.013   5.618 -2.7669 -0.1729  0.6049
13907TIP3   OH263211   6.545   6.274  13.414 -0.3675 -0.4344  0.5611
13907TIP3    H163212   6.543   6.243  13.504 -1.7916 -2.3618 -0.0735
13907TIP3    H263213   6.472   6.335  13.408  1.0829  1.4854  1.2219
13908TIP3   OH263214   2.490   0.915   2.432  0.0019  0.6039 -0.2784
13908TIP3    H163215   2.397   0.912   2.410 -0.4308  1.8405  1.1917
13908TIP3    H263216   2.518   0.824   2.431 -1.5866  0.0675  0.6231
13909TIP3   OH263217   5.434   6.155  12.179  0.3009  0.7078 -0.3197
13909TIP3    H163218   5.513   6.167  12.127 -0.1885  0.3195 -1.1796
13909TIP3    H263219   5.393   6.242  12.182  0.0483  0.6145 -1.0563
13910TIP3   OH263220   3.310   3.961   5.246  0.1951  0.2542  0.3845
13910TIP3    H163221   3.221   3.943   5.276 -0.2330 -1.7193 -1.7478
13910TIP3    H263222   3.362   3.966   5.326 -1.1848 -2.5767  1.6000
13911TIP3   OH263223   2.247   2.892  15.906  0.1422 -0.1383  0.2220
13911TIP3    H163224   2.158   2.881  15.937  0.4228 -2.1529  0.4682
13911TIP3    H263225   2.238   2.908  15.812 -0.4578 -0.6565  0.1895
13912TIP3   OH263226   3.389   0.263   5.449 -0.2072  0.0279  0.6399
13912TIP3    H163227   3.355   0.343   5.489  0.3012 -0.5744  2.4021
13912TIP3    H263228   3.376   0.196   5.516  0.2659 -1.1598 -0.4155
13913TIP3   OH263229   6.076   0.690   3.051 -0.4524  0.0362  0.4890
13913TIP3    H163230   5.988   0.654   3.045 -0.3211 -0.3093  0.6202
13913TIP3    H263231   6.132   0.626   3.008 -0.4313  0.8990 -0.8242
13914TIP3   OH263232   0.598   6.649  14.775  0.1022  0.3665  0.2666
13914TIP3    H163233   0.606   6.714  14.845 -1.0101  2.2441 -1.2538
13914TIP3    H263234   0.678   6.598  14.780  0.9645  1.7767  1.6058
13915TIP3   OH263235   2.725   6.741   4.343  0.0541 -0.5384 -0.5135
13915TIP3    H163236   2.698   6.665   4.395 -0.8765  0.4235  0.4978
13915TIP3    H263237   2.780   6.792   4.403 -1.2600  0.7281 -0.3171
13916TIP3   OH263238   2.616   2.280   1.130 -0.6006  0.0873  0.0379
13916TIP3    H163239   2.612   2.325   1.215 -1.1015  1.7097 -0.8074
13916TIP3    H263240   2.707   2.250   1.124 -0.8267 -1.0309  1.6046
13917TIP3   OH263241   2.138   1.124  13.575  0.2980  0.4659 -0.1595
13917TIP3    H163242   2.188   1.057  13.622  1.8393  1.9589  0.3947
13917TIP3    H263243   2.071   1.074  13.528  1.5698 -1.4944 -0.0132
13918TIP3   OH263244   2.857   5.373   3.330  0.3126  0.3719  0.1070
13918TIP3    H163245   2.943   5.367   3.287 -0.9347  0.9215 -2.7005
13918TIP3    H263246   2.863   5.454   3.382  2.0519 -0.5782  1.4963
13919TIP3   OH263247   0.516   4.212  15.901 -0.3489  0.2570 -0.0125
13919TIP3    H163248   0.472   4.139  15.944  0.2517 -0.8009 -1.1453
13919TIP3    H263249   0.574   4.248  15.969  0.2191 -1.0609  0.2306
13920TIP3   OH263250   2.300   1.183   1.762  0.2876 -0.1776  0.3491
13920TIP3    H163251   2.235   1.114   1.765 -0.5220  0.4751 -1.0196
13920TIP3    H263252   2.358   1.165   1.835 -0.7755 -1.4259  0.9198
13921TIP3   OH263253   3.577   2.723   4.768 -0.0441  0.4206 -0.4202
13921TIP3    H163254   3.512   2.687   4.828  0.4011 -1.6536 -1.1163
13921TIP3    H263255   3.629   2.648   4.740  1.2956  1.6979 -1.5470
13922TIP3   OH263256   3.073   0.018  14.102  0.8091  0.7422  0.4471
13922TIP3    H163257   3.100   0.079  14.170  1.3593  0.8491  0.1370
13922TIP3    H263258   2.989   0.053  14.071 -0.8573 -0.7531  2.8697
13923TIP3   OH263259   0.400   5.866   0.578  1.0856  0.2455  0.7512
13923TIP3    H163260   0.359   5.913   0.505 -0.0728 -0.3753  0.9656
13923TIP3    H263261   0.493   5.887   0.572  0.8135  1.2694 -0.1020
13924TIP3   OH263262   4.604   0.640   1.640  0.4968  0.3516 -0.6057
13924TIP3    H163263   4.570   0.560   1.680  2.7458 -0.1602  0.4164
13924TIP3    H263264   4.544   0.657   1.567  0.0511 -2.3433 -0.9762
13925TIP3   OH263265   2.700   6.790  14.508  0.3314  0.3963 -0.2625
13925TIP3    H163266   2.657   6.710  14.538  2.2416 -0.6832 -0.2343
13925TIP3    H263267   2.642   6.861  14.538 -1.9771 -0.9634 -1.2287
13926TIP3   OH263268   2.830   3.934  10.326 -0.7554 -0.0428  0.6527
13926TIP3    H163269   2.917   3.963  10.298 -1.0848 -0.2493 -0.6043
13926TIP3    H263270   2.838   3.838  10.332 -0.8841 -0.0590  0.5678
13927TIP3   OH263271   1.855   6.005   0.318 -0.3255  0.0090  0.0741
13927TIP3    H163272   1.799   6.083   0.309 -1.3546 -0.5871  0.9791
13927TIP3    H263273   1.935   6.038   0.358 -1.2225  0.4637  1.6192
13928TIP3   OH263274   4.435   3.318  11.875 -0.1506  0.1373  0.4283
13928TIP3    H163275   4.444   3.333  11.969 -0.4458 -4.4749  1.4123
13928TIP3    H263276   4.347   3.282  11.865  0.4277 -0.8744 -1.3390
13929TIP3   OH263277   2.914   3.521  17.003 -0.1667 -0.6005  0.2014
13929TIP3    H163278   2.824   3.488  17.009  0.5520 -2.5285  1.5837
13929TIP3    H263279   2.968   3.448  17.034  1.6558  1.5083  2.4319
13930TIP3   OH263280   4.896   3.505   4.786 -0.4309 -0.2208  0.2529
13930TIP3    H163281   4.978   3.551   4.767  0.1334 -1.2074  0.2448
13930TIP3    H263282   4.853   3.559   4.853 -0.2292  0.8017 -0.4191
13931TIP3   OH263283   1.224   1.419  16.448  0.5998  0.2097 -0.1535
13931TIP3    H163284   1.251   1.354  16.383 -1.5002 -1.9397  1.0012
13931TIP3    H263285   1.140   1.452  16.416  0.7166  0.9247  0.2604
13932TIP3   OH263286   5.417   0.635  11.941 -0.2037 -0.1282 -0.7152
13932TIP3    H163287   5.346   0.669  11.885  0.3223 -1.6810 -2.4338
13932TIP3    H263288   5.494   0.685  11.914  0.1308 -1.1375 -1.7371
13933TIP3   OH263289   5.731   5.846   0.896  0.5704  0.3085 -0.0413
13933TIP3    H163290   5.726   5.765   0.846 -0.5771  0.2797  0.0981
13933TIP3    H263291   5.796   5.899   0.849  1.0226 -0.5246 -0.3670
13934TIP3   OH263292   4.567   0.117   1.251 -0.3385  0.3576 -0.0338
13934TIP3    H163293   4.502   0.048   1.236 -1.3071  1.6024 -1.9393
13934TIP3    H263294   4.651   0.071   1.250 -0.9613 -0.8201 -1.1588
13935TIP3   OH263295   4.183   2.680  11.614  0.1198  0.0940  0.0870
13935TIP3    H163296   4.126   2.757  11.615 -1.3748 -0.9678 -0.5980
13935TIP3    H263297   4.124   2.605  11.613  1.4813 -1.0579 -1.7871
13936TIP3   OH263298   2.334   0.515  12.042 -0.1897 -0.2678 -0.4409
13936TIP3    H163299   2.312   0.521  11.949 -2.3582  2.3904  0.1477
13936TIP3    H263300   2.361   0.603  12.067  2.1063 -1.2979  1.1489
13937TIP3   OH263301   4.997   1.960   3.492  0.2171 -0.2068 -0.2131
13937TIP3    H163302   5.082   1.925   3.464 -0.7431 -1.8939 -1.1643
13937TIP3    H263303   5.012   2.054   3.503  1.9764 -0.3244 -1.2850
13938TIP3   OH263304   2.883   3.911  12.430 -0.6303  0.1867 -0.3350
13938TIP3    H163305   2.900   4.002  12.455 -0.3681  0.3028 -0.9249
13938TIP3    H263306   2.787   3.905  12.425 -0.6316  0.5901 -0.8589
13939TIP3   OH263307   0.812   6.564   3.128  0.3508  0.0641 -0.1452
13939TIP3    H163308   0.853   6.578   3.213 -2.3273  0.5155  1.2062
13939TIP3    H263309   0.806   6.651   3.089  2.0883 -0.2102 -1.1321
13940TIP3   OH263310   0.865   3.684   4.985  0.5542  0.0514 -0.1815
13940TIP3    H163311   0.925   3.759   4.979  0.3943  0.3299  1.3231
13940TIP3    H263312   0.778   3.722   4.973  0.4788  0.1063  0.5030
13941TIP3   OH263313   4.141   0.334  12.886 -0.6517  0.2312 -0.0831
13941TIP3    H163314   4.179   0.412  12.927 -0.5864  0.2000 -0.0848
13941TIP3    H263315   4.094   0.290  12.957  0.1071 -0.2377  0.1488
13942TIP3   OH263316   2.235   3.648   5.774 -0.2101  0.6126  0.4563
13942TIP3    H163317   2.261   3.741   5.771 -0.5752  0.7335  0.9851
13942TIP3    H263318   2.279   3.614   5.852 -0.5025  0.4712  0.5582
13943TIP3   OH263319   6.214   3.809  16.297 -0.3336  0.5993 -0.6189
13943TIP3    H163320   6.127   3.780  16.324 -0.7384  0.7720 -1.6537
13943TIP3    H263321   6.254   3.732  16.257  0.1094  0.4388  0.1373
13944TIP3   OH263322   6.451   2.491  16.371 -0.3087  0.2869 -0.3974
13944TIP3    H163323   6.467   2.483  16.277 -0.5551  1.7339 -0.5755
13944TIP3    H263324   6.511   2.559  16.400 -0.1956 -0.1880  0.5117
13945TIP3   OH263325   5.301   6.195   1.267 -0.7752 -0.3222  0.2822
13945TIP3    H163326   5.273   6.146   1.190 -0.5077 -1.7696  1.0626
13945TIP3    H263327   5.220   6.214   1.315 -0.7872 -1.0716  0.5715
13946TIP3   OH263328   3.195   6.193  12.138 -0.6078  0.4181 -0.0387
13946TIP3    H163329   3.170   6.224  12.225 -1.2200 -0.9120  0.2815
13946TIP3    H263330   3.157   6.106  12.132  0.0412  0.2062 -1.3705
13947TIP3   OH263331   5.711   1.222   2.943 -0.0063  0.1265 -0.6681
13947TIP3    H163332   5.758   1.304   2.960 -0.8099  0.7890 -1.5233
13947TIP3    H263333   5.634   1.226   2.999 -0.1579  0.0639 -0.8681
13948TIP3   OH263334   4.040   1.412   3.824 -0.0309  0.0357 -0.7532
13948TIP3    H163335   4.131   1.412   3.794  0.1325  0.9111 -0.2851
13948TIP3    H263336   4.023   1.503   3.849 -0.7300 -0.3044  0.0651
13949TIP3   OH263337   2.652   2.188   4.423  0.7424 -0.0830  0.5648
13949TIP3    H163338   2.579   2.248   4.412  0.6589 -0.0542  1.2384
13949TIP3    H263339   2.677   2.196   4.515  2.2784  0.7009  0.1179
13950TIP3   OH263340   2.771   3.614  10.017 -0.0393 -0.9945  0.3001
13950TIP3    H163341   2.701   3.674  10.044 -0.8304 -1.4421 -0.7226
13950TIP3    H263342   2.753   3.533  10.065  0.4469 -0.7674  0.8950
13951TIP3   OH263343   3.665   5.819   4.892  0.0991 -0.7101 -0.3004
13951TIP3    H163344   3.669   5.758   4.818  2.1339  1.3422 -2.0481
13951TIP3    H263345   3.753   5.815   4.930  0.3008  1.0543 -0.4793
13952TIP3   OH263346   2.708   1.823  15.834  0.1564 -0.0168  0.4863
13952TIP3    H163347   2.785   1.808  15.889  0.8234  1.5227  0.0105
13952TIP3    H263348   2.740   1.811  15.744 -0.5349 -0.8415  0.3285
13953TIP3   OH263349   2.980   5.049  11.686 -0.4105 -0.0209 -0.7055
13953TIP3    H163350   2.939   5.000  11.758  0.7009  1.0013  0.6778
13953TIP3    H263351   2.982   4.986  11.614 -1.8708 -0.9883  0.0113
13954TIP3   OH263352   5.953   1.680  14.656  0.1247 -0.0274 -0.1105
13954TIP3    H163353   5.988   1.592  14.649 -1.9049 -0.9180  0.1994
13954TIP3    H263354   5.877   1.671  14.715 -0.1946  1.8912 -0.1592
13955TIP3   OH263355   6.835   0.904   3.505  0.7436 -0.1004 -1.0090
13955TIP3    H163356   6.784   0.884   3.583 -1.8567  0.5880 -2.4326
13955TIP3    H263357   6.922   0.925   3.538 -0.7585  2.2537  1.9252
13956TIP3   OH263358   2.494   4.449  15.718  0.3856 -0.3392 -0.3993
13956TIP3    H163359   2.503   4.521  15.781  1.3977  0.7060 -1.7026
13956TIP3    H263360   2.431   4.390  15.759  0.2982  0.7791  1.1645
13957TIP3   OH263361   0.916   0.790  16.098 -0.9388 -0.5211  0.3800
13957TIP3    H163362   1.001   0.747  16.105  0.1596  1.1768 -1.4370
13957TIP3    H263363   0.855   0.720  16.076  0.2570 -1.5455  0.2141
13958TIP3   OH263364   4.914   5.154   5.685  0.3314 -0.3659  0.1178
13958TIP3    H163365   4.974   5.119   5.620  1.5634 -1.5657  1.7874
13958TIP3    H263366   4.937   5.247   5.692  3.3149 -1.0859  1.8877
13959TIP3   OH263367   3.204   5.510  12.010 -0.0146 -0.2337 -0.0128
13959TIP3    H163368   3.219   5.565  12.087  0.8866 -0.9479  0.3338
13959TIP3    H263369   3.109   5.514  11.997  0.0292  1.4058 -0.0108
13960TIP3   OH263370   0.896   0.971   0.087 -0.7113 -0.3830  0.3662
13960TIP3    H163371   0.936   1.027   0.154 -1.3311  1.1645 -0.5008
13960TIP3    H263372   0.926   0.883   0.109  0.3124  0.2696  1.7894
13961TIP3   OH263373   5.685   5.393   2.349  0.1252 -0.2878 -0.5294
13961TIP3    H163374   5.590   5.385   2.359  0.2951 -0.4847  1.4234
13961TIP3    H263375   5.699   5.406   2.255 -1.6932 -1.8773 -1.0736
13962TIP3   OH263376   3.446   6.711   0.855 -0.9787 -0.0239 -0.2949
13962TIP3    H163377   3.425   6.749   0.770  0.7129  1.1566 -0.2181
13962TIP3    H263378   3.431   6.782   0.918  1.4041  0.3509 -0.0539
13963TIP3   OH263379   1.591   3.640  12.962  0.1623  0.5730  0.3471
13963TIP3    H163380   1.675   3.671  12.996  0.0693 -0.8635  2.0292
13963TIP3    H263381   1.569   3.565  13.017 -0.6240 -1.1889 -2.1686
13964TIP3   OH263382   4.649   4.444  13.074 -0.6053 -0.7862 -0.0203
13964TIP3    H163383   4.674   4.433  12.982 -0.2600  0.9466 -0.1728
13964TIP3    H263384   4.590   4.371  13.092  1.4713 -2.7960 -0.7930
13965TIP3   OH263385   0.091   2.830   4.730 -0.3034  0.0897  0.1672
13965TIP3    H163386  -0.001   2.805   4.736 -0.2116 -0.2154  0.3107
13965TIP3    H263387   0.089   2.925   4.719 -0.6380  0.0759  0.0997
13966TIP3   OH263388   4.251   5.786   0.454 -0.1145  0.0813 -0.0256
13966TIP3    H163389   4.343   5.807   0.470 -0.0035  0.3501 -0.9398
13966TIP3    H263390   4.208   5.800   0.538  0.4674  1.1637  0.1048
13967TIP3   OH263391   0.505   0.760   1.226  0.0624 -0.1783 -0.1763
13967TIP3    H163392   0.413   0.736   1.213  0.3656 -1.4609 -0.0853
13967TIP3    H263393   0.528   0.720   1.310 -0.1504  2.8114  1.4545
13968TIP3   OH263394   6.597   5.302  11.985  0.4227 -0.6609 -0.2652
13968TIP3    H163395   6.564   5.221  12.023  0.6687 -1.7158 -2.1810
13968TIP3    H263396   6.537   5.322  11.913 -1.3213  2.4610  1.7912
13969TIP3   OH263397   2.808   1.558   4.575 -0.0152 -0.2200  0.7486
13969TIP3    H163398   2.854   1.486   4.618  0.7781 -0.9189 -1.1315
13969TIP3    H263399   2.866   1.582   4.502  0.1038  2.8267  1.7205
13970TIP3   OH263400   5.679   2.815   0.146 -0.0377 -0.2406  0.2266
13970TIP3    H163401   5.754   2.830   0.204 -0.8532 -0.2738  1.3151
13970TIP3    H263402   5.631   2.898   0.147 -0.1877 -0.3237 -0.2082
13971TIP3   OH263403   2.531   0.074  13.964 -1.2238 -0.0057 -0.3428
13971TIP3    H163404   2.613   0.027  13.948 -0.7452  0.3569  0.9243
13971TIP3    H263405   2.506   0.048  14.053 -1.7133  0.9945 -0.1734
13972TIP3   OH263406   2.724   6.009   3.106 -0.6208 -0.1028 -0.3845
13972TIP3    H163407   2.722   5.930   3.159 -1.9011 -1.4174 -2.2406
13972TIP3    H263408   2.769   6.074   3.160 -0.1833 -1.8721  1.4906
13973TIP3   OH263409   4.777   0.180   3.835 -0.2183 -0.3258 -0.7005
13973TIP3    H163410   4.766   0.108   3.898  0.4945  0.8291  0.8005
13973TIP3    H263411   4.853   0.156   3.783  0.5721 -0.2762  0.3927
13974TIP3   OH263412   1.003   6.740   0.921  0.3426 -0.0489 -0.0370
13974TIP3    H163413   0.934   6.680   0.893  0.9144 -0.6333 -0.2131
13974TIP3    H263414   1.055   6.690   0.984  1.0094  0.1448 -0.4235
13975TIP3   OH263415   2.862   6.671   2.431 -0.1340  0.2271 -0.2623
13975TIP3    H163416   2.788   6.615   2.455  1.3719 -2.4345 -1.4219
13975TIP3    H263417   2.912   6.619   2.367  2.8900  1.7723  0.6623
13976TIP3   OH263418   1.019   6.331  14.187  0.4071  0.6723 -0.3112
13976TIP3    H163419   1.067   6.268  14.133  0.9832 -0.8552  1.8347
13976TIP3    H263420   1.027   6.297  14.276 -0.4111  3.1038  0.7867
13977TIP3   OH263421   6.164   2.410  15.937  0.5860 -0.1575  0.5088
13977TIP3    H163422   6.196   2.393  15.848 -0.4900 -0.7829  0.2204
13977TIP3    H263423   6.239   2.449  15.982  1.3260 -0.3423 -0.5103
13978TIP3   OH263424   6.397   1.824   5.060  0.2755  0.8693  0.9037
13978TIP3    H163425   6.353   1.817   5.145 -0.7830  1.9843  0.4932
13978TIP3    H263426   6.329   1.858   5.002  1.3181  1.2725 -0.1036
13979TIP3   OH263427   6.685   6.202  10.657 -0.1271  1.0429  0.0594
13979TIP3    H163428   6.657   6.163  10.740  1.7590  0.8603  0.6654
13979TIP3    H263429   6.658   6.138  10.590 -0.2149  0.4071  0.6931
13980TIP3   OH263430   0.877   6.814   4.759  0.0790  0.1678  0.7154
13980TIP3    H163431   0.914   6.726   4.754  1.1199  0.6235 -0.1490
13980TIP3    H263432   0.824   6.823   4.680  0.0371  0.3286  0.7604
13981TIP3   OH263433   4.159   5.188   1.468 -0.3024 -0.0770  0.2781
13981TIP3    H163434   4.205   5.185   1.384 -0.6038  1.2419  0.0382
13981TIP3    H263435   4.193   5.114   1.518  0.4841 -0.3848 -0.7022
13982TIP3   OH263436   6.033   3.479   2.530 -0.1745  0.5400  0.5901
13982TIP3    H163437   6.120   3.458   2.564 -0.5300 -0.6945  0.7735
13982TIP3    H263438   6.019   3.416   2.459  0.0741  2.3137 -1.1199
13983TIP3   OH263439   1.335   6.825  16.409 -0.2242 -0.0982 -0.0713
13983TIP3    H163440   1.304   6.737  16.430  1.4635 -0.4543  1.1065
13983TIP3    H263441   1.314   6.836  16.316 -1.9438 -1.0715  0.1502
13984TIP3   OH263442   0.684   4.378  16.994 -0.7243 -0.2846 -0.1469
13984TIP3    H163443   0.682   4.443  16.923 -0.7820 -0.9915 -0.8040
13984TIP3    H263444   0.603   4.329  16.982 -0.8591 -0.2418  0.5771
13985TIP3   OH263445   4.155   4.100  13.393 -0.2897 -0.2793  0.4886
13985TIP3    H163446   4.173   4.192  13.376 -1.2842 -0.0440  0.6173
13985TIP3    H263447   4.096   4.101  13.469 -1.1328 -0.9617 -0.1471
13986TIP3   OH263448   6.408   3.181  14.733  0.5029  0.5389  0.8059
13986TIP3    H163449   6.408   3.133  14.816 -0.7890 -1.5532 -0.3199
13986TIP3    H263450   6.317   3.179  14.705  1.1118  0.0192 -1.2892
13987TIP3   OH263451   2.675   5.073  10.858  0.1880  0.1975 -0.6893
13987TIP3    H163452   2.695   5.002  10.920 -0.2984  2.0509  1.7518
13987TIP3    H263453   2.754   5.080  10.804  1.1186 -0.7755  0.4681
13988TIP3   OH263454   0.493   3.521  12.827 -0.7292  0.4394 -0.1560
13988TIP3    H163455   0.511   3.437  12.784 -0.0024 -0.6942  2.1808
13988TIP3    H263456   0.574   3.543  12.872 -1.6975  1.0471  1.3824
13989TIP3   OH263457   3.978   3.824  12.463 -0.0925 -0.0685 -0.1296
13989TIP3    H163458   3.961   3.792  12.374 -1.1320 -0.0360  0.0502
13989TIP3    H263459   3.901   3.876  12.485 -1.2026 -2.3624  1.8558
13990TIP3   OH263460   5.458   1.481  14.379  0.2034 -0.0962 -0.2646
13990TIP3    H163461   5.462   1.577  14.379 -0.3510 -0.0703  0.1511
13990TIP3    H263462   5.449   1.458  14.471 -2.4709 -0.4204 -0.5419
13991TIP3   OH263463   3.230   6.269  14.856 -0.1879 -0.3923 -0.1584
13991TIP3    H163464   3.319   6.236  14.843 -0.5617 -0.4030 -3.3054
13991TIP3    H263465   3.203   6.232  14.941  1.7985 -2.6988 -0.4341
13992TIP3   OH263466   6.547   6.427   1.014 -0.5013 -0.4677  0.3221
13992TIP3    H163467   6.489   6.443   1.088 -1.0557 -0.2691 -0.1522
13992TIP3    H263468   6.622   6.381   1.052  0.2513  1.5249  1.4066
13993TIP3   OH263469   5.912   2.970  12.087  0.5789 -0.7033 -0.0294
13993TIP3    H163470   5.910   2.989  11.993  1.7345  0.2516  0.1058
13993TIP3    H263471   5.821   2.953  12.110  0.3811 -1.7707 -1.4685
13994TIP3   OH263472   4.488   0.816   0.070  0.6502 -0.1189  0.0706
13994TIP3    H163473   4.581   0.835   0.057  0.5253  1.0255  0.7275
13994TIP3    H263474   4.482   0.720   0.064  2.1015 -0.3325  1.4314
13995TIP3   OH263475   4.316   4.338   1.523  0.1998  0.2037 -0.1988
13995TIP3    H163476   4.409   4.341   1.498 -0.2007  0.8635 -1.7297
13995TIP3    H263477   4.313   4.278   1.597  1.9676  0.8164  0.4243
13996TIP3   OH263478   4.567   6.286  12.274 -0.0930  0.1342 -0.0589
13996TIP3    H163479   4.659   6.272  12.295 -0.0454  0.6291  0.0729
13996TIP3    H263480   4.520   6.217  12.321 -0.2811  2.7796  4.0867
13997TIP3   OH263481   0.736   3.796  10.541 -0.2995 -0.1716 -0.0953
13997TIP3    H163482   0.685   3.868  10.505  1.2278  1.3716  0.6669
13997TIP3    H263483   0.672   3.727  10.560 -1.4700 -0.1405 -3.3904
13998TIP3   OH263484   3.787   1.242  15.608 -0.0290 -0.4204 -0.1808
13998TIP3    H163485   3.807   1.318  15.553 -0.4565  0.0331  0.2809
13998TIP3    H263486   3.703   1.263  15.648  0.7856 -0.2401  1.5311
13999TIP3   OH263487   2.556   6.538  11.953  0.1897 -0.3815  0.9136
13999TIP3    H163488   2.577   6.503  12.039 -1.0110 -0.1606  1.3261
13999TIP3    H263489   2.589   6.628  11.955 -0.4028 -0.1667  1.3939
14000TIP3   OH263490   0.856   1.859   0.816  0.2133 -0.1133  0.7427
14000TIP3    H163491   0.924   1.843   0.750  0.0620  0.3115  0.4789
14000TIP3    H263492   0.799   1.782   0.812  0.2677 -0.1383  0.4550
14001TIP3   OH263493   6.142   4.821  16.103  1.3347 -0.1801 -0.3219
14001TIP3    H163494   6.187   4.744  16.137  0.1819 -1.0440 -0.6738
14001TIP3    H263495   6.073   4.785  16.046  1.5340  1.1468 -1.4393
14002TIP3   OH263496   0.664   0.692  16.512 -0.2275 -0.5623  0.0101
14002TIP3    H163497   0.665   0.633  16.437 -0.1434  0.9396 -1.2356
14002TIP3    H263498   0.754   0.725  16.518 -0.3653 -0.2537  0.4226
14003TIP3   OH263499   3.829   1.108   1.923  0.9262  0.6264  0.0793
14003TIP3    H163500   3.830   1.057   1.842 -0.9355 -0.1676  0.4952
14003TIP3    H263501   3.752   1.165   1.914  1.2401  1.1981  0.9059
14004TIP3   OH263502   5.004   2.724   4.717  0.1144 -0.6944 -0.0263
14004TIP3    H163503   4.976   2.807   4.678 -1.0513 -0.4068  1.3292
14004TIP3    H263504   4.962   2.723   4.804  3.2385 -0.9160  1.6051
14005TIP3   OH263505   3.576   1.474  16.374 -0.0106  0.0719  0.0987
14005TIP3    H163506   3.562   1.547  16.434 -0.6647  0.7972 -0.9018
14005TIP3    H263507   3.527   1.497  16.296  1.2658 -0.5859 -0.9468
14006TIP3   OH263508   6.619   2.844   4.497  0.4922  0.0253  0.6032
14006TIP3    H163509   6.554   2.875   4.560 -1.2975 -2.3078  0.0488
14006TIP3    H263510   6.589   2.876   4.412  0.3575 -0.5882  0.4126
14007TIP3   OH263511   3.106   3.412  11.305 -0.6002 -0.8889 -0.1384
14007TIP3    H163512   3.072   3.423  11.216  1.6579 -1.6847 -1.1649
14007TIP3    H263513   3.058   3.335  11.338 -1.1632 -0.8476 -0.8152
14008TIP3   OH263514   0.876   6.375   2.488 -0.0585  0.0750 -0.1314
14008TIP3    H163515   0.946   6.400   2.428 -1.0355  1.1910 -0.8423
14008TIP3    H263516   0.910   6.297   2.532  2.2677  1.4515  0.7044
14009TIP3   OH263517   1.489   6.085  15.337 -0.2136 -0.4954  0.0572
14009TIP3    H163518   1.410   6.126  15.301 -0.1138  0.9478  1.3974
14009TIP3    H263519   1.459   6.041  15.416  0.4332  0.6497  0.9520
14010TIP3   OH263520   4.791   1.891  15.788  0.9096 -0.0377  0.0615
14010TIP3    H163521   4.696   1.905  15.790  0.4660 -1.8266 -3.0247
14010TIP3    H263522   4.804   1.807  15.831  1.0201 -0.1047 -0.1036
14011TIP3   OH263523   3.396   5.768   5.764  0.0806 -0.4089  0.2978
14011TIP3    H163524   3.335   5.698   5.788  0.0671 -0.2968  0.5946
14011TIP3    H263525   3.467   5.723   5.718 -0.3236 -0.5156 -0.2361
14012TIP3   OH263526   4.911   2.494   5.067 -0.4826  0.2292  0.0643
14012TIP3    H163527   4.842   2.505   5.133  0.7411 -0.7486  1.5876
14012TIP3    H263528   4.941   2.583   5.051 -1.0891  0.5315  0.5133
14013TIP3   OH263529   1.610   4.702   1.989  0.2991  0.2299  0.2376
14013TIP3    H163530   1.591   4.795   1.974  1.4700  0.5527  0.6546
14013TIP3    H263531   1.668   4.702   2.065  0.2254 -0.8558  0.3031
14014TIP3   OH263532   2.141   4.201   0.089 -0.4575  0.1229  0.1085
14014TIP3    H163533   2.137   4.269   0.022  0.1240  0.2221  0.1768
14014TIP3    H263534   2.141   4.119   0.040 -0.8720  0.1736  0.0176
14015TIP3   OH263535   1.162   3.510  10.990  0.0259  0.2195 -0.0784
14015TIP3    H163536   1.256   3.498  10.980  0.3533  2.2339  0.2057
14015TIP3    H263537   1.143   3.594  10.949 -1.7999 -0.4883 -0.8119
14016TIP3   OH263538   1.708   5.753  16.444 -0.1131 -0.0456 -0.0971
14016TIP3    H163539   1.697   5.761  16.350  0.2527  1.5625 -0.0289
14016TIP3    H263540   1.673   5.666  16.465  1.6086 -1.2567 -1.9632
14017TIP3   OH263541   3.663   5.693  14.282  0.4059 -0.0297  0.1835
14017TIP3    H163542   3.711   5.745  14.217  0.0236 -2.3544 -2.1204
14017TIP3    H263543   3.728   5.630  14.314  0.6123  1.1381  2.2401
14018TIP3   OH263544   3.728   5.183  11.947 -0.6818  0.4498 -0.3074
14018TIP3    H163545   3.779   5.158  11.870  1.2045 -1.3475  1.3713
14018TIP3    H263546   3.675   5.106  11.966 -0.1013  0.3287  0.9197
14019TIP3   OH263547   1.191   1.951   5.736  0.0688 -0.4690 -0.0392
14019TIP3    H163548   1.267   2.006   5.714 -0.4562  0.2418 -0.1139
14019TIP3    H263549   1.218   1.903   5.814  0.1970  0.6538  0.6394
14020TIP3   OH263550   3.202   1.509  12.713 -0.0927  0.4042 -0.0815
14020TIP3    H163551   3.187   1.599  12.742  0.7857  0.5359 -0.0179
14020TIP3    H263552   3.297   1.499  12.713 -0.1374 -0.2081 -1.0557
14021TIP3   OH263553   4.250   1.055   3.333  0.1834  0.3901 -0.1318
14021TIP3    H163554   4.216   1.015   3.252 -0.9526  0.9020  0.0615
14021TIP3    H263555   4.231   0.991   3.401 -0.1580  0.5480 -0.0714
14022TIP3   OH263556   0.303   0.036   0.375  0.7920 -0.5073 -0.4013
14022TIP3    H163557   0.256  -0.032   0.422  1.7894 -0.4277  0.7649
14022TIP3    H263558   0.290   0.015   0.282 -1.1231 -0.7361 -0.1223
14023TIP3   OH263559   2.272   3.748  10.147 -0.7043 -0.0609 -0.4322
14023TIP3    H163560   2.248   3.685  10.079 -3.3460 -0.8014  1.0547
14023TIP3    H263561   2.258   3.702  10.229 -0.0494  1.6074  0.6762
14024TIP3   OH263562   5.797   3.248   6.251  0.0818  0.2051 -0.4248
14024TIP3    H163563   5.716   3.219   6.294  0.2509 -1.0847 -0.9518
14024TIP3    H263564   5.863   3.245   6.320  0.0100 -0.2611 -0.3747
14025TIP3   OH263565   0.080   5.864   6.638 -0.0456 -0.5116 -0.1528
14025TIP3    H163566   0.098   5.773   6.661 -1.4359 -1.0135 -0.9509
14025TIP3    H263567  -0.011   5.878   6.663  0.3980  0.9636  0.8015
14026TIP3   OH263568   0.846   1.996  12.510  0.1665 -0.0025 -0.3797
14026TIP3    H163569   0.764   2.019  12.466 -0.3079  1.6038  1.2108
14026TIP3    H263570   0.826   2.003  12.604  1.6766 -1.2549  0.0855
14027TIP3   OH263571   4.279   4.202  13.865  0.0522  0.0462  0.2111
14027TIP3    H163572   4.312   4.262  13.798 -0.2298  0.2078  0.2162
14027TIP3    H263573   4.353   4.190  13.924  0.9489 -1.6345 -1.1658
14028TIP3   OH263574   1.428   5.064   0.513  0.3532 -0.0713  0.0943
14028TIP3    H163575   1.461   5.014   0.588  0.5206  0.6410  0.5027
14028TIP3    H263576   1.350   5.108   0.546  0.2695  0.0259 -0.2345
14029TIP3   OH263577   5.152   4.207   2.995  0.2439 -0.1627  0.0950
14029TIP3    H163578   5.063   4.243   2.988  0.1565 -0.2838  0.5465
14029TIP3    H263579   5.209   4.284   2.992  0.0961 -0.0451  0.2718
14030TIP3   OH263580   5.505   2.400   4.942  0.0033  0.5509 -0.1480
14030TIP3    H163581   5.442   2.440   5.003  1.0631  2.0858 -0.0044
14030TIP3    H263582   5.465   2.316   4.919 -1.1155  0.5577  1.5385
14031TIP3   OH263583   6.771   0.818   3.263  0.1729  0.0189 -1.0853
14031TIP3    H163584   6.779   0.848   3.353  1.6036  0.3037 -1.2730
14031TIP3    H263585   6.791   0.725   3.266 -0.1252 -0.0453 -1.0649
14032TIP3   OH263586   4.621   4.858   1.609  0.8462  0.1044  0.2142
14032TIP3    H163587   4.679   4.924   1.571  1.2827 -1.0975 -1.3159
14032TIP3    H263588   4.678   4.808   1.669  0.9088  0.1213  0.1683
14033TIP3   OH263589   1.516   1.351  14.934  0.0138  0.2866 -0.5271
14033TIP3    H163590   1.545   1.421  14.875  1.8677 -0.2630 -0.3453
14033TIP3    H263591   1.487   1.281  14.876 -0.6925  0.7284 -0.7228
14034TIP3   OH263592   5.244   5.414  15.845  0.0960 -0.2492 -0.0872
14034TIP3    H163593   5.192   5.335  15.857  0.0601 -0.1206  0.6626
14034TIP3    H263594   5.263   5.417  15.751  1.2810 -1.8725  0.0812
14035TIP3   OH263595   3.830   0.965  16.223  0.0328  0.1289 -0.0293
14035TIP3    H163596   3.764   0.900  16.198  1.3573 -1.7152  1.0293
14035TIP3    H263597   3.785   1.049  16.214 -1.8743 -0.9281 -1.0907
14036TIP3   OH263598   5.016   2.591  16.280 -0.0505 -0.3331 -0.1403
14036TIP3    H163599   5.005   2.686  16.274 -0.5383 -0.4369 -1.1090
14036TIP3    H263600   5.092   2.579  16.337 -1.1847  0.5845  1.6565
14037TIP3   OH263601   3.690   2.003   4.229 -0.4242  0.2094  0.0615
14037TIP3    H163602   3.673   2.030   4.139  0.1779 -0.0363 -0.1312
14037TIP3    H263603   3.653   1.915   4.235 -1.7398  0.7779  0.4778
14038TIP3   OH263604   0.873   1.793   5.646  0.4296  0.0474  0.4056
14038TIP3    H163605   0.827   1.869   5.681  0.8809  1.0561 -1.0739
14038TIP3    H263606   0.959   1.827   5.622  0.8201 -1.0617  0.1782
14039TIP3   OH263607   0.895   5.407  15.553  0.4891 -0.1569 -0.4858
14039TIP3    H163608   0.805   5.430  15.575 -0.0088 -1.0862 -1.4421
14039TIP3    H263609   0.929   5.366  15.633 -0.3286 -0.8476 -0.4749
14040TIP3   OH263610   4.228   0.952  14.809  0.2448 -0.0197 -0.0452
14040TIP3    H163611   4.268   1.029  14.768  0.8487 -0.9801 -1.3551
14040TIP3    H263612   4.147   0.938  14.760 -0.4497  0.4442  0.9507
14041TIP3   OH263613   6.375   2.883  16.539  0.0730  0.4063 -0.5506
14041TIP3    H163614   6.353   2.965  16.583  0.6427  0.6496 -0.7048
14041TIP3    H263615   6.435   2.840  16.600 -2.0343 -1.0186  0.6440
14042TIP3   OH263616   4.938   3.431  13.235 -0.2849  0.6978 -0.5913
14042TIP3    H163617   4.850   3.396  13.250 -0.1930  0.0871 -1.3993
14042TIP3    H263618   4.928   3.490  13.160  0.0413  0.3978 -0.8777
14043TIP3   OH263619   3.719   5.532  10.126  0.1403  0.0106 -0.5352
14043TIP3    H163620   3.674   5.553  10.045  1.4051  0.3216 -1.1758
14043TIP3    H263621   3.682   5.448  10.153 -1.1161  0.4681 -0.8070
14044TIP3   OH263622   5.453   0.188  14.342  0.3776  0.6971  0.2475
14044TIP3    H163623   5.402   0.253  14.390 -0.5631  0.3044 -0.2051
14044TIP3    H263624   5.449   0.109  14.396  0.7273  0.7333  0.3323
14045TIP3   OH263625   6.771   4.940  12.602  0.3673 -0.0321  0.0188
14045TIP3    H163626   6.758   5.035  12.611 -1.3499  0.0176 -2.1527
14045TIP3    H263627   6.781   4.926  12.508 -1.2887 -2.1881  0.0999
14046TIP3   OH263628   0.954   1.867   3.333 -0.0413  0.4247 -0.6511
14046TIP3    H163629   0.884   1.897   3.275  0.7655  0.1820 -1.7846
14046TIP3    H263630   0.971   1.777   3.305  0.6208  0.4300 -0.2815
14047TIP3   OH263631   2.252   6.166  10.818  0.5367 -0.2349 -0.0355
14047TIP3    H163632   2.342   6.135  10.808  1.0600  1.9690 -4.7504
14047TIP3    H263633   2.262   6.253  10.856 -0.0585 -1.3225  2.8522
14048TIP3   OH263634   2.414   2.927  15.126 -0.3483 -0.0908  0.2764
14048TIP3    H163635   2.458   2.927  15.212 -1.5265  0.6394  0.9083
14048TIP3    H263636   2.408   3.019  15.102 -2.5828 -0.0436  0.7942
14049TIP3   OH263637   3.145   1.865   3.713  0.0989 -0.0897 -0.5454
14049TIP3    H163638   3.062   1.910   3.726  0.2531  0.0342  0.0510
14049TIP3    H263639   3.131   1.810   3.636 -0.3481  0.3696 -0.7941
14050TIP3   OH263640   2.921   5.067  16.204 -0.5630  0.0821 -0.6100
14050TIP3    H163641   2.955   5.144  16.249  1.4794 -1.2915  0.3726
14050TIP3    H263642   2.877   5.101  16.126 -1.6145  2.3394  0.8712
14051TIP3   OH263643   2.934   1.702   3.242 -0.1869 -0.3809  0.2029
14051TIP3    H163644   3.023   1.686   3.273 -0.4597 -0.9298  0.7190
14051TIP3    H263645   2.881   1.703   3.322 -0.5631  0.5206 -0.0495
14052TIP3   OH263646   6.441   4.853  12.263  0.1747  0.1926 -0.1124
14052TIP3    H163647   6.493   4.778  12.234 -0.2871 -0.6907  1.2579
14052TIP3    H263648   6.373   4.815  12.319 -0.8091  1.5150 -0.3517
14053TIP3   OH263649   6.563   6.838   2.984 -0.2054  0.5020  0.2868
14053TIP3    H163650   6.490   6.855   3.043 -0.0519  3.0402 -0.1311
14053TIP3    H263651   6.612   6.767   3.025 -1.9373 -0.0867  1.4456
14054TIP3   OH263652   1.684   3.962   1.371 -0.4197  0.1076  0.3933
14054TIP3    H163653   1.739   4.037   1.392 -0.7059  0.7864 -1.0771
14054TIP3    H263654   1.621   3.957   1.442  1.6494 -0.8719  2.2739
14055TIP3   OH263655   5.418   1.080  16.693  0.5405  0.5779  0.3553
14055TIP3    H163656   5.431   1.164  16.737  1.3557  0.7831 -0.2459
14055TIP3    H263657   5.499   1.066  16.645  0.6672 -0.8643  0.9381
14056TIP3   OH263658   2.703   4.015  10.880  0.3887 -0.0067 -0.0885
14056TIP3    H163659   2.659   4.100  10.884  0.5653  0.2916 -2.6608
14056TIP3    H263660   2.793   4.033  10.907 -0.1135  0.1268  1.5816
14057TIP3   OH263661   5.353   3.759   3.371 -0.2568 -0.1673  0.2339
14057TIP3    H163662   5.394   3.743   3.456 -2.3090 -0.9595  1.1607
14057TIP3    H263663   5.337   3.672   3.335 -1.1348  0.0930 -0.0481
14058TIP3   OH263664   0.293   4.227  17.048  0.5071  0.1749  0.1122
14058TIP3    H163665   0.247   4.284  16.986 -2.0384 -1.3755  0.4660
14058TIP3    H263666   0.267   4.260  17.135  1.1613  0.0893  0.3498
14059TIP3   OH263667   2.594   5.127  16.296  0.0059 -1.2614 -0.1637
14059TIP3    H163668   2.597   5.203  16.237  1.1252 -2.7308 -2.1031
14059TIP3    H263669   2.577   5.165  16.382 -1.0433  1.0404 -1.3033
14060TIP3   OH263670   2.963   2.378  16.863 -0.0613  0.2349  0.3926
14060TIP3    H163671   2.994   2.467  16.845 -0.4500  0.5512  1.2366
14060TIP3    H263672   3.043   2.326  16.871  0.2140 -0.3528 -3.8930
14061TIP3   OH263673   5.728   5.078   4.327 -0.6170 -0.0316 -0.2092
14061TIP3    H163674   5.669   5.094   4.253 -0.1828  1.0731 -0.3304
14061TIP3    H263675   5.678   5.021   4.385 -1.7002  0.6329 -0.4601
14062TIP3   OH263676   4.705   5.444   1.512  0.2821  0.2549  0.5335
14062TIP3    H163677   4.632   5.505   1.498 -0.4936 -0.7467  0.1211
14062TIP3    H263678   4.783   5.499   1.506 -0.2696  0.8942 -2.1206
14063TIP3   OH263679   1.722   1.940  13.807 -0.2152 -0.2066 -0.2878
14063TIP3    H163680   1.695   1.991  13.883 -0.9781 -0.5243 -0.3368
14063TIP3    H263681   1.751   2.005  13.743 -0.5903  0.1246 -0.1239
14064TIP3   OH263682   5.713   3.733  13.461 -0.3692 -0.2776 -0.9535
14064TIP3    H163683   5.619   3.736  13.478  0.0107  1.1049  1.2636
14064TIP3    H263684   5.743   3.823  13.474  1.1905 -0.5698 -2.2018
14065TIP3   OH263685   3.154   0.119  12.241  0.0698 -0.2867 -0.0222
14065TIP3    H163686   3.093   0.143  12.171 -1.2552 -1.0697  0.8231
14065TIP3    H263687   3.208   0.197  12.253  0.5337 -0.2309 -2.0986
14066TIP3   OH263688   6.100   1.908   0.793  0.1904  0.4985 -0.6001
14066TIP3    H163689   6.192   1.908   0.769  0.1448 -1.8763 -1.0519
14066TIP3    H263690   6.091   1.831   0.850 -1.1848  1.7023  0.9059
14067TIP3   OH263691   5.273   3.428   3.298  0.1049 -0.0135 -0.5529
14067TIP3    H163692   5.286   3.337   3.324 -0.3581  0.0292 -0.1516
14067TIP3    H263693   5.302   3.432   3.207  1.7705 -0.1700 -0.0598
14068TIP3   OH263694   2.946   5.810   4.006  0.1471 -0.1954  0.3184
14068TIP3    H163695   2.899   5.752   3.946 -0.6600  0.9016 -0.1366
14068TIP3    H263696   2.877   5.850   4.060  0.7714 -0.3900  1.2912
14069TIP3   OH263697   1.417   6.686   2.087  0.4645 -0.4111  0.0746
14069TIP3    H163698   1.443   6.778   2.091  0.1443 -0.0816 -3.0727
14069TIP3    H263699   1.483   6.645   2.032 -1.0539 -1.3558 -1.1276
14070TIP3   OH263700   1.193   5.817   2.193  0.0947 -0.1014 -0.1604
14070TIP3    H163701   1.260   5.798   2.127  2.3755 -0.6230  2.1450
14070TIP3    H263702   1.227   5.893   2.240 -1.8391  0.7128  0.0316
14071TIP3   OH263703   5.518   2.273  16.060 -0.4673  0.4713 -0.3462
14071TIP3    H163704   5.546   2.183  16.074  0.9400  0.6546 -1.6917
14071TIP3    H263705   5.469   2.296  16.139  1.3057 -0.6549  1.1728
14072TIP3   OH263706   5.747   1.316   5.637  0.2692 -0.1508 -0.2513
14072TIP3    H163707   5.711   1.333   5.550 -0.1117  0.3181 -0.0053
14072TIP3    H263708   5.840   1.298   5.621  0.3089  0.4196 -0.7133
14073TIP3   OH263709   6.092   5.260  16.829  0.1981 -0.0705  1.1032
14073TIP3    H163710   6.097   5.351  16.800  0.8024 -0.1062  1.0781
14073TIP3    H263711   6.014   5.256  16.884  0.8997  0.7873  2.2092
14074TIP3   OH263712   0.064   0.340  16.665 -0.0549  0.1527  0.4120
14074TIP3    H163713   0.055   0.279  16.739  2.3924 -0.2586  0.4697
14074TIP3    H263714  -0.025   0.356  16.637 -1.0225 -0.4846  2.8085
14075TIP3   OH263715   5.099   5.188  15.893  0.4792 -0.1060  0.4189
14075TIP3    H163716   5.025   5.129  15.906  0.7641 -0.1440  2.1140
14075TIP3    H263717   5.144   5.190  15.978  1.8947  0.6313 -0.3043
14076TIP3   OH263718   0.501   6.765   3.171 -0.9427 -0.7970 -0.0349
14076TIP3    H163719   0.578   6.766   3.113 -0.7443 -0.3939  0.2298
14076TIP3    H263720   0.430   6.798   3.116 -0.9617 -1.3095 -0.3231
14077TIP3   OH263721   0.712   0.032   4.504 -0.0363 -0.6710 -0.1636
14077TIP3    H163722   0.729  -0.054   4.466  2.0578  0.0386 -0.9845
14077TIP3    H263723   0.743   0.094   4.438 -0.2028  0.6881  0.9816
14078TIP3   OH263724   1.300   1.030   1.203 -0.5127 -0.0763  0.3173
14078TIP3    H163725   1.310   1.053   1.111  0.1064  3.6817  1.1730
14078TIP3    H263726   1.215   1.066   1.227 -0.9725 -1.6139  1.1220
14079TIP3   OH263727   5.908   5.293   1.695 -0.4057  0.2865 -0.5771
14079TIP3    H163728   5.857   5.237   1.636 -0.8849 -0.3824  0.4337
14079TIP3    H263729   5.862   5.376   1.696  0.5477  0.8908 -2.4314
14080TIP3   OH263730   2.264   6.481   0.867  0.7820 -0.3601  0.2974
14080TIP3    H163731   2.211   6.535   0.925  1.5565 -0.0526  0.7328
14080TIP3    H263732   2.270   6.396   0.912 -0.0419 -0.6732 -0.1623
14081TIP3   OH263733   3.956   5.837  11.203  0.4198 -0.4209  0.2728
14081TIP3    H163734   3.928   5.745  11.201 -1.0288 -0.0221  0.9721
14081TIP3    H263735   3.891   5.883  11.149  0.9180  0.2425  0.2275
14082TIP3   OH263736   2.646   0.388   0.980 -0.4849 -0.0490  0.5128
14082TIP3    H163737   2.602   0.346   1.053 -1.4087 -1.7623 -0.9424
14082TIP3    H263738   2.585   0.379   0.907  0.3857  1.6317 -0.4899
14083TIP3   OH263739   2.062   0.976  12.701 -0.4533 -0.0225 -0.3370
14083TIP3    H163740   2.143   1.026  12.709 -0.4168 -0.2274  0.7574
14083TIP3    H263741   2.004   1.015  12.767 -0.7317 -0.8450 -0.0908
14084TIP3   OH263742   4.674   5.316   3.567 -0.3561 -0.3651 -0.1777
14084TIP3    H163743   4.733   5.264   3.621 -0.3749  1.6217  1.8780
14084TIP3    H263744   4.588   5.308   3.609 -0.4977  0.7562 -0.2201
14085TIP3   OH263745   0.099   4.525   0.797  0.0852 -0.0406 -0.0798
14085TIP3    H163746   0.123   4.510   0.889  1.2448  0.3908 -0.2896
14085TIP3    H263747   0.142   4.453   0.750  0.4670  0.3922 -0.4031
14086TIP3   OH263748   1.151   4.157   0.591 -0.2710  0.2147 -0.3156
14086TIP3    H163749   1.203   4.079   0.574 -2.2702 -1.1187 -0.7132
14086TIP3    H263750   1.196   4.228   0.544  2.6901 -0.1688  1.6364
14087TIP3   OH263751   4.338   2.050  14.133 -0.1868 -0.2996 -0.6250
14087TIP3    H163752   4.310   2.009  14.215  0.4754 -1.1890 -0.8246
14087TIP3    H263753   4.429   2.024  14.123 -0.1370  0.1421 -1.4384
14088TIP3   OH263754   3.020   5.954  13.525  0.6006 -0.0770 -0.4081
14088TIP3    H163755   2.974   5.941  13.608 -2.2799  0.3543 -1.8221
14088TIP3    H263756   3.022   6.049  13.514  2.5590 -0.0340 -0.0818
14089TIP3   OH263757   2.355   3.697  15.869  0.0735  0.0485 -1.2758
14089TIP3    H163758   2.294   3.626  15.890 -0.6503  0.2322 -2.6309
14089TIP3    H263759   2.299   3.773  15.854  0.8921  1.1510  0.9129
14090TIP3   OH263760   5.177   4.254  13.524 -0.2981 -1.0892  0.4651
14090TIP3    H163761   5.182   4.165  13.489 -1.0906 -2.5818  3.7902
14090TIP3    H263762   5.265   4.271  13.558 -0.2882 -0.8190  0.3078
14091TIP3   OH263763   1.460   5.754   4.852  0.0096  0.6700 -0.0055
14091TIP3    H163764   1.492   5.843   4.836  1.9219  0.1940  0.8654
14091TIP3    H263765   1.502   5.728   4.934  1.8594 -2.0698 -1.6541
14092TIP3   OH263766   4.340   1.160  12.878 -0.3719  0.7512 -0.0242
14092TIP3    H163767   4.266   1.158  12.817  0.0463  1.4508 -0.5698
14092TIP3    H263768   4.335   1.246  12.920  0.1957  0.8610 -0.1635
14093TIP3   OH263769   3.531   5.229   4.942  0.5123  0.2325  0.1627
14093TIP3    H163770   3.625   5.214   4.936  0.3150 -0.9258 -0.1800
14093TIP3    H263771   3.523   5.325   4.945  1.5480  0.4853 -2.4591
14094TIP3   OH263772   3.084   5.562   0.133  0.0295  0.5976 -0.4644
14094TIP3    H163773   3.024   5.605   0.072  0.2636  0.5186 -0.7555
14094TIP3    H263774   3.030   5.538   0.208 -0.5070 -0.2847 -1.1048
14095TIP3   OH263775   6.457   1.446   5.500 -0.4046  0.2427 -0.1327
14095TIP3    H163776   6.551   1.430   5.490 -0.4642 -0.4031  0.3188
14095TIP3    H263777   6.429   1.480   5.415  0.5296  1.9074  0.1842
14096TIP3   OH263778   6.415   0.278  14.376  0.6700  0.4915  0.1926
14096TIP3    H163779   6.340   0.287  14.317  1.0107  0.1932 -0.3008
14096TIP3    H263780   6.452   0.366  14.382  0.2679  0.6428  0.4562
14097TIP3   OH263781   6.730   1.663  13.349 -0.0830  0.8181 -0.2041
14097TIP3    H163782   6.813   1.705  13.372  1.1905 -1.4684 -0.3451
14097TIP3    H263783   6.691   1.639  13.433  1.4062 -1.6744 -0.1381
14098TIP3   OH263784   6.170   3.717   1.656 -0.2694  0.5551  0.4346
14098TIP3    H163785   6.243   3.673   1.699  0.6231 -0.5253 -1.9889
14098TIP3    H263786   6.106   3.648   1.640  0.3922  0.3745 -1.8448
14099TIP3   OH263787   3.752   5.318   0.094  0.1592  0.2508 -0.1108
14099TIP3    H163788   3.683   5.252   0.095  0.8039 -0.4395 -0.5767
14099TIP3    H263789   3.831   5.270   0.118  0.9209  0.5092 -1.9786
14100TIP3   OH263790   0.501   3.868  12.344 -0.8996 -0.3540  0.0009
14100TIP3    H163791   0.431   3.932  12.358 -1.2020 -0.7172  0.1424
14100TIP3    H263792   0.476   3.792  12.395 -1.1820 -1.0785 -1.1672
14101TIP3   OH263793   4.943   4.861  12.447 -0.1008 -0.0102  0.7956
14101TIP3    H163794   4.978   4.875  12.535  0.9256 -1.6289  0.6932
14101TIP3    H263795   4.929   4.766  12.442 -3.1902  0.3529  0.3041
14102TIP3   OH263796   5.531   5.467  11.341 -0.1753 -0.0196 -0.2843
14102TIP3    H163797   5.495   5.459  11.429  3.0429  0.7251  1.2594
14102TIP3    H263798   5.626   5.464  11.354  0.4290 -1.0180 -3.8870
14103TIP3   OH263799   2.702   6.762   0.252  0.0909  0.2737  0.5004
14103TIP3    H163800   2.640   6.835   0.248 -0.5330 -0.1799  1.5059
14103TIP3    H263801   2.707   6.740   0.344 -0.8059 -1.8340  0.1061
14104TIP3   OH263802   3.947   3.480  13.849 -0.0161 -0.0920 -0.3934
14104TIP3    H163803   3.978   3.490  13.939 -0.6870  1.3576 -0.3058
14104TIP3    H263804   4.005   3.535  13.797  1.2051 -1.9134 -1.0908
14105TIP3   OH263805   4.398   1.068   5.573 -0.8513 -0.9230  0.0471
14105TIP3    H163806   4.311   1.055   5.537 -1.7401 -0.0078  1.7443
14105TIP3    H263807   4.457   1.040   5.503 -2.4138  1.0148 -2.2342
14106TIP3   OH263808   3.880   4.453  12.202  0.5063  0.1855 -0.1301
14106TIP3    H163809   3.874   4.546  12.181 -0.4092  0.1834  0.0769
14106TIP3    H263810   3.853   4.447  12.294  0.3593 -0.3138 -0.2023
14107TIP3   OH263811   2.839   0.067   0.521  0.3004  0.3560  0.5259
14107TIP3    H163812   2.763   0.061   0.579  0.6436  1.6684  1.1449
14107TIP3    H263813   2.868   0.158   0.528 -0.0084  0.7362 -2.2215
14108TIP3   OH263814   0.929   4.978   4.291  0.3067  0.1317  0.4697
14108TIP3    H163815   0.941   4.888   4.323 -0.1265 -1.6141 -3.6426
14108TIP3    H263816   1.003   4.992   4.231 -1.1084  1.3639 -1.0942
14109TIP3   OH263817   5.225   4.865  11.603  0.1200 -0.2376 -0.4256
14109TIP3    H163818   5.320   4.859  11.596  0.0578 -1.5903 -0.4911
14109TIP3    H263819   5.201   4.941  11.550  0.8970 -1.8662 -3.3369
14110TIP3   OH263820   2.445   2.528  10.348  0.0931 -0.7003 -0.3436
14110TIP3    H163821   2.398   2.558  10.270 -0.2186 -1.3031 -0.3955
14110TIP3    H263822   2.413   2.585  10.418 -0.5502 -0.9549 -0.4221
14111TIP3   OH263823   1.401   2.800  10.888  0.4831 -0.0291 -0.0253
14111TIP3    H163824   1.346   2.755  10.952  0.1790  0.8044  0.3151
14111TIP3    H263825   1.486   2.756  10.894  0.4162 -0.0550  0.8434
14112TIP3   OH263826   3.615   4.032   3.068 -0.0148  0.3665  0.2715
14112TIP3    H163827   3.582   3.966   3.130  0.4492 -0.4401 -0.3289
14112TIP3    H263828   3.694   3.993   3.031 -0.3997  0.7470 -0.9867
14113TIP3   OH263829   3.408   4.481   3.585 -0.5847  0.0360  0.2307
14113TIP3    H163830   3.451   4.469   3.670 -0.3925 -0.2790  0.0930
14113TIP3    H263831   3.356   4.401   3.573  1.0586 -0.9187 -0.9072
14114TIP3   OH263832   2.853   4.260  12.171 -0.0940 -0.1574 -0.0078
14114TIP3    H163833   2.877   4.303  12.254  0.0753  0.9086 -0.5894
14114TIP3    H263834   2.887   4.171  12.180  2.1547  0.6442  0.1138
14115TIP3   OH263835   3.593   3.871   1.625  0.4763  0.1497  0.3027
14115TIP3    H163836   3.658   3.876   1.555  1.6865  0.3303  1.3943
14115TIP3    H263837   3.567   3.962   1.640 -0.7942 -0.0036 -0.7841
14116TIP3   OH263838   5.942   6.041  15.733  0.5213 -0.2948 -0.1980
14116TIP3    H163839   5.924   6.087  15.815  0.0177  1.7226 -1.3747
14116TIP3    H263840   5.997   6.101  15.683  0.9201 -1.5380 -1.3029
14117TIP3   OH263841   3.655   4.614   0.587 -0.2113  0.8957  0.6100
14117TIP3    H163842   3.709   4.566   0.651 -2.4588 -1.5695  0.8533
14117TIP3    H263843   3.707   4.614   0.507 -0.9811 -4.7194 -0.2970
14118TIP3   OH263844   0.923   3.095  13.956  0.2282 -0.1242  0.9181
14118TIP3    H163845   0.871   3.173  13.937 -0.3102  0.0310  2.8021
14118TIP3    H263846   0.918   3.042  13.876  1.0405  1.9777 -0.5902
14119TIP3   OH263847   0.743   5.554   3.827 -0.0992  0.2960 -0.2905
14119TIP3    H163848   0.687   5.627   3.855  0.0041  1.5878 -3.1165
14119TIP3    H263849   0.831   5.579   3.855 -0.0154  1.4722 -1.5276
14120TIP3   OH263850   6.612   1.492  13.116  0.6961 -0.0893 -0.4867
14120TIP3    H163851   6.621   1.564  13.054 -1.8383 -0.4090 -1.3647
14120TIP3    H263852   6.637   1.529  13.201  1.1988  1.2729 -1.2084
14121TIP3   OH263853   5.439   0.302  15.298 -0.2168  0.1864  0.0066
14121TIP3    H163854   5.383   0.253  15.358 -1.2643  0.6349 -0.5738
14121TIP3    H263855   5.498   0.352  15.354  0.1535 -0.8970  0.6167
14122TIP3   OH263856   5.959   6.429  10.779 -0.3704 -0.1202 -0.1132
14122TIP3    H163857   5.973   6.352  10.835 -3.1905 -0.8658 -0.2881
14122TIP3    H263858   5.914   6.395  10.702 -0.6374  1.5712 -0.7439
14123TIP3   OH263859   5.752   4.887  16.089  0.5246 -0.1187 -0.6159
14123TIP3    H163860   5.691   4.895  16.015 -0.4927  0.6412  0.2712
14123TIP3    H263861   5.824   4.833  16.055 -1.3854 -2.4639 -1.2213
14124TIP3   OH263862   0.540   0.283  14.733  0.2953  0.4914 -0.2361
14124TIP3    H163863   0.543   0.191  14.710 -0.3768  0.0794  1.2163
14124TIP3    H263864   0.598   0.326  14.670  0.4024 -0.8741 -1.0892
14125TIP3   OH263865   2.937   3.980   1.245 -0.0573  0.0966  0.2727
14125TIP3    H163866   2.987   3.902   1.222 -1.1286  0.0675 -2.2895
14125TIP3    H263867   2.989   4.052   1.209 -0.1532  0.3841  0.7031
14126TIP3   OH263868   4.036   2.282  16.574 -0.3139 -0.2626  0.6348
14126TIP3    H163869   4.042   2.253  16.482 -1.4257  0.3459  0.3535
14126TIP3    H263870   4.099   2.353  16.581 -0.6719  0.1123  0.1596
14127TIP3   OH263871   0.136   4.726   1.421  0.9372  0.0632  0.7303
14127TIP3    H163872   0.108   4.665   1.489 -0.2208 -1.1844 -0.7843
14127TIP3    H263873   0.092   4.695   1.342  3.0422  0.8494 -0.8311
14128TIP3   OH263874   1.823   6.360  11.596  0.1728 -0.8326  0.4565
14128TIP3    H163875   1.752   6.408  11.639  0.4478  1.1520 -1.1870
14128TIP3    H263876   1.889   6.349  11.665 -1.3090 -1.9622  1.7761
14129TIP3   OH263877   5.859   0.301   2.058  0.2727 -0.1835 -0.1050
14129TIP3    H163878   5.840   0.243   1.984 -1.2667  0.5245 -0.3079
14129TIP3    H263879   5.945   0.338   2.037  0.0124 -0.2488 -1.3966
14130TIP3   OH263880   4.357   5.888  11.482  0.3610  0.1608  0.0316
14130TIP3    H163881   4.330   5.826  11.549  0.8304  1.0197  1.0506
14130TIP3    H263882   4.276   5.919  11.442 -0.0471  0.9118  1.3896
14131TIP3   OH263883   2.224   0.843   1.497 -0.8788 -0.6059  0.3085
14131TIP3    H163884   2.255   0.753   1.502 -0.7584 -0.5258  1.1681
14131TIP3    H263885   2.187   0.861   1.583 -1.5574 -0.0635 -0.0823
14132TIP3   OH263886   2.416   0.118   0.930  0.1970 -0.4161  0.3241
14132TIP3    H163887   2.358   0.146   1.001 -0.4028  2.4738 -1.1730
14132TIP3    H263888   2.414   0.022   0.934 -1.5918 -0.3760  2.7303
14133TIP3   OH263889   4.308   5.593  12.566 -0.2152 -0.4989  0.1131
14133TIP3    H163890   4.216   5.609  12.546 -0.6565 -0.1805  2.1916
14133TIP3    H263891   4.336   5.528  12.502 -1.5702  0.2034 -1.2266
14134TIP3   OH263892   1.866   2.204  14.198  0.6406 -0.4376 -0.3339
14134TIP3    H163893   1.841   2.116  14.229 -1.6247  0.2502 -0.0789
14134TIP3    H263894   1.784   2.249  14.184  1.7053  0.9766 -2.6191
14135TIP3   OH263895   4.973   2.838   1.535 -0.2199 -0.3699 -0.4522
14135TIP3    H163896   5.024   2.766   1.498  1.3452  0.6316 -0.3074
14135TIP3    H263897   4.917   2.796   1.600 -0.6287 -1.6900 -1.6011
14136TIP3   OH263898   6.682   3.301  15.319 -0.1315  0.1193  0.0230
14136TIP3    H163899   6.599   3.291  15.364  0.1537 -3.3667  0.1201
14136TIP3    H263900   6.659   3.310  15.226 -0.6319  0.2983  0.1661
14137TIP3   OH263901   5.670   2.025  12.320  0.2985 -0.3542  0.3900
14137TIP3    H163902   5.578   2.044  12.338 -0.3148 -0.7348 -2.0817
14137TIP3    H263903   5.671   1.987  12.232  2.9043  0.2576  0.0672
14138TIP3   OH263904   2.286   3.974   3.946 -0.4273 -0.3670 -0.2249
14138TIP3    H163905   2.246   4.010   3.867 -0.8432  1.3903  0.7344
14138TIP3    H263906   2.243   3.890   3.959  0.4024 -1.2147 -2.4173
14139TIP3   OH263907   4.407   6.790   1.477  0.0501  0.0317 -0.0991
14139TIP3    H163908   4.371   6.781   1.389  0.0508 -0.8292 -0.0215
14139TIP3    H263909   4.502   6.785   1.464  0.0337 -0.5508 -0.0038
14140TIP3   OH263910   1.542   2.436   1.449  0.9315 -0.1469  0.0878
14140TIP3    H163911   1.621   2.472   1.409  0.1100  3.6013  1.4162
14140TIP3    H263912   1.471   2.465   1.393  0.2615 -0.5890  0.6959
14141TIP3   OH263913   3.251   3.178  10.775  0.0044 -0.2167  0.8106
14141TIP3    H163914   3.316   3.112  10.753  1.0229  0.5821  1.3423
14141TIP3    H263915   3.170   3.147  10.733  0.9585 -0.6712 -0.7586
14142TIP3   OH263916   5.090   4.465  13.751 -0.3169  0.1457 -0.0849
14142TIP3    H163917   5.001   4.456  13.717 -0.7044  1.0583  0.6227
14142TIP3    H263918   5.147   4.447  13.677 -1.1052  0.0463 -0.6750
14143TIP3   OH263919   6.554   3.094   2.589 -0.4137 -1.0107  0.2023
14143TIP3    H163920   6.627   3.145   2.554 -1.8607  1.5670  0.6747
14143TIP3    H263921   6.586   3.061   2.673  0.1625  0.2732  0.5158
14144TIP3   OH263922   0.559   0.702   1.523  0.0868  0.3132 -0.0446
14144TIP3    H163923   0.526   0.764   1.588 -1.6800 -1.9417  1.4080
14144TIP3    H263924   0.648   0.682   1.552 -0.4978 -0.2757  1.4830
14145TIP3   OH263925   2.497   2.838  12.844  0.2686  0.2769 -0.0722
14145TIP3    H163926   2.544   2.896  12.903  2.9024 -1.0352 -0.7467
14145TIP3    H263927   2.475   2.894  12.769 -0.9227  1.3348  1.0051
14146TIP3   OH263928   4.356   3.358  12.140 -0.4431  0.2771  0.0525
14146TIP3    H163929   4.283   3.353  12.202 -0.5130  0.7926  0.0164
14146TIP3    H263930   4.403   3.438  12.165 -1.2097  1.2083 -1.3629
14147TIP3   OH263931   3.120   5.771   3.710 -0.1558  0.2258  0.4462
14147TIP3    H163932   3.060   5.741   3.779  0.1322  0.0509  0.6258
14147TIP3    H263933   3.066   5.778   3.632 -0.2833 -0.5560  0.4530
14148TIP3   OH263934   6.034   2.579  16.510 -0.1791 -0.0401 -0.1452
14148TIP3    H163935   6.089   2.506  16.540  1.3601  1.2036  0.1895
14148TIP3    H263936   6.044   2.646  16.578 -1.9355  0.3252 -0.2081
14149TIP3   OH263937   0.554   0.572   3.321  0.4821 -0.2172  0.1691
14149TIP3    H163938   0.575   0.654   3.276 -0.5705  0.2442  0.5072
14149TIP3    H263939   0.586   0.585   3.410  1.2449 -0.5822 -0.0374
14150TIP3   OH263940   2.878   3.880  10.711 -0.4701  0.0926  0.0264
14150TIP3    H163941   2.796   3.930  10.717 -0.3522  0.3614 -0.5299
14150TIP3    H263942   2.946   3.946  10.704 -0.1036 -0.1064  1.3486
14151TIP3   OH263943   5.855   1.164  12.744 -0.1094 -0.2321  0.6380
14151TIP3    H163944   5.930   1.222  12.731  0.2330 -0.0083  3.1876
14151TIP3    H263945   5.892   1.076  12.736 -0.0425 -0.1280 -0.3140
14152TIP3   OH263946   3.286   6.390  11.989  0.4177  0.5846 -0.5426
14152TIP3    H163947   3.241   6.326  12.045  0.8385  2.4712  2.1338
14152TIP3    H263948   3.239   6.385  11.906 -0.0529 -2.6019 -0.2386
14153TIP3   OH263949   3.543   3.585  16.325  0.0141 -0.1439  0.8232
14153TIP3    H163950   3.478   3.649  16.354 -0.6884  0.6811 -2.2603
14153TIP3    H263951   3.502   3.500  16.341 -1.2423  0.3278  0.1907
14154TIP3   OH263952   3.714   1.658   2.647 -0.6550 -0.1705  0.3255
14154TIP3    H163953   3.771   1.596   2.604 -0.9468 -0.8512  0.8951
14154TIP3    H263954   3.759   1.742   2.641 -0.2126 -0.4577 -0.3596
14155TIP3   OH263955   5.850   6.203   0.182 -0.0860 -0.0314 -0.4997
14155TIP3    H163956   5.831   6.124   0.232  2.0569  0.7118  1.6583
14155TIP3    H263957   5.794   6.270   0.222 -3.5808 -0.6380 -3.7040
14156TIP3   OH263958   6.541   5.816   5.241 -0.1130  0.1913 -0.4949
14156TIP3    H163959   6.604   5.887   5.235 -1.5852  1.9904  2.8060
14156TIP3    H263960   6.581   5.744   5.191  3.3073  2.0011 -0.6554
14157TIP3   OH263961   4.641   4.594   0.252  0.3505  0.0202  0.6365
14157TIP3    H163962   4.723   4.585   0.204 -0.4373 -1.6399 -0.5065
14157TIP3    H263963   4.621   4.506   0.284 -0.9815  0.3774  0.8782
14158TIP3   OH263964   3.112   6.560   3.252 -0.1755  0.3942  0.6687
14158TIP3    H163965   3.103   6.537   3.344  0.6216 -0.5905  0.5112
14158TIP3    H263966   3.107   6.477   3.205  1.7403  0.6098  0.0103
14159TIP3   OH263967   4.272   3.171   5.306 -0.0230  0.7691 -0.0973
14159TIP3    H163968   4.264   3.178   5.211  1.2340 -0.5633 -0.3318
14159TIP3    H263969   4.241   3.083   5.326  2.0867  0.0900  0.3854
14160TIP3   OH263970   0.039   2.027   1.007 -0.1086 -0.3256 -0.4719
14160TIP3    H163971   0.093   2.033   0.928  0.6994 -0.4824  0.0552
14160TIP3    H263972  -0.047   2.059   0.980  0.8087  2.0536 -0.7839
14161TIP3   OH263973   0.355   0.927  11.952 -0.0264  0.0684 -0.2302
14161TIP3    H163974   0.277   0.983  11.952 -0.9519 -1.1508 -1.0938
14161TIP3    H263975   0.329   0.851  11.901  1.8564 -0.2414 -0.7918
14162TIP3   OH263976   1.455   4.272   0.192 -0.2504  0.7115  0.2533
14162TIP3    H163977   1.487   4.356   0.159 -0.4396  0.7091  0.0618
14162TIP3    H263978   1.368   4.291   0.228 -0.6348  0.4496 -0.5136
14163TIP3   OH263979   4.887   5.941   6.026 -0.1020  0.3162 -0.0886
14163TIP3    H163980   4.849   6.009   5.970  0.6290 -0.1201 -1.1294
14163TIP3    H263981   4.873   5.859   5.978 -1.1224 -0.3274  1.2254
14164TIP3   OH263982   1.928   0.207  11.699 -0.4193 -0.0676 -0.1333
14164TIP3    H163983   1.850   0.230  11.750 -2.6507 -1.6488 -2.5239
14164TIP3    H263984   1.924   0.111  11.692 -0.2450  0.0657 -3.1527
14165TIP3   OH263985   0.382   6.450  16.568 -0.3141 -0.2586  0.1170
14165TIP3    H163986   0.302   6.460  16.620 -1.6331 -0.0686 -1.8697
14165TIP3    H263987   0.428   6.534  16.579 -1.4929  0.4878 -0.4845
14166TIP3   OH263988   6.758   1.599   2.190  0.7197  0.8865 -0.1118
14166TIP3    H163989   6.833   1.540   2.202 -0.9968 -1.3785  0.1605
14166TIP3    H263990   6.710   1.562   2.116 -2.5362 -0.5698  2.4508
14167TIP3   OH263991   0.938   5.615   1.557  0.8382  0.0479  0.4407
14167TIP3    H163992   0.889   5.661   1.625  0.4196 -2.2372  1.8012
14167TIP3    H263993   1.030   5.626   1.582  0.9336  2.1347 -0.6458
14168TIP3   OH263994   5.462   2.001  15.448  0.2897 -0.2243  0.5660
14168TIP3    H163995   5.393   1.940  15.424 -0.3763  0.8593 -0.4061
14168TIP3    H263996   5.432   2.042  15.529  0.5848 -0.9226  1.0392
14169TIP3   OH263997   5.461   3.411  11.705  0.3362  0.0075 -0.1766
14169TIP3    H163998   5.412   3.405  11.787 -0.6518  0.3384 -0.7272
14169TIP3    H263999   5.394   3.422  11.638  1.2098  1.3659 -0.8620
14170TIP3   OH264000   1.566   4.284  14.783 -0.4121 -0.1944 -0.5855
14170TIP3    H164001   1.636   4.325  14.834 -0.4975  0.8592 -1.2749
14170TIP3    H264002   1.611   4.219  14.729 -0.0504 -0.0180 -0.5055
14171TIP3   OH264003   4.092   4.058  11.708 -0.2799 -0.5139  0.1760
14171TIP3    H164004   4.176   4.014  11.693  0.1757  0.9114 -1.8388
14171TIP3    H264005   4.044   4.046  11.627 -1.2093  0.4187  0.5711
14172TIP3   OH264006   1.414   6.449   5.644 -0.4107 -0.4515 -0.6002
14172TIP3    H164007   1.462   6.528   5.618  3.8185 -2.8580 -1.0756
14172TIP3    H264008   1.398   6.462   5.738  1.3150  0.5115 -0.3880
14173TIP3   OH264009   5.167   2.524   0.110  0.0477  0.5399 -0.1553
14173TIP3    H164010   5.187   2.570   0.192 -2.5608  2.1371 -0.3085
14173TIP3    H264011   5.102   2.579   0.067 -1.7313 -2.2819 -1.3527
14174TIP3   OH264012   4.193   0.554  13.215 -0.2323 -0.4789  0.0471
14174TIP3    H164013   4.189   0.640  13.256  0.0097 -1.2489  1.7405
14174TIP3    H264014   4.260   0.563  13.147  0.8242  0.3053  1.1572
14175TIP3   OH264015   1.144   5.479   3.406  0.0897 -0.3079 -0.6225
14175TIP3    H164016   1.083   5.409   3.381 -2.4814  1.7190 -0.3865
14175TIP3    H264017   1.175   5.515   3.322  0.4686 -0.8856 -0.7417
14176TIP3   OH264018   2.661   3.127   0.768  0.0871 -0.2050 -0.1080
14176TIP3    H164019   2.707   3.207   0.792 -1.8183  1.3714 -1.3609
14176TIP3    H264020   2.600   3.112   0.840 -0.0845 -0.0656 -0.2216
14177TIP3   OH264021   4.065   2.764  14.275  0.3441  0.9145 -0.2183
14177TIP3    H164022   4.087   2.827  14.207  1.0636  0.2147 -0.6570
14177TIP3    H264023   3.970   2.762  14.276  0.3113  0.4616 -1.6762
14178TIP3   OH264024   0.439   3.686   3.640  0.1409 -0.1299  0.3757
14178TIP3    H164025   0.375   3.694   3.711 -0.6013  1.9645 -0.4529
14178TIP3    H264026   0.399   3.623   3.580 -0.1150 -0.4880  0.9108
14179TIP3   OH264027   0.009   3.902   1.917  0.1867  0.4176  0.1636
14179TIP3    H164028   0.057   3.820   1.931  0.2350  0.3610 -0.3228
14179TIP3    H264029  -0.039   3.888   1.835 -2.1555 -0.2431  1.5679
14180TIP3   OH264030   6.135   1.458  14.392  0.2649  0.4755  0.4979
14180TIP3    H164031   6.211   1.465  14.450 -0.8492  1.0363  1.9596
14180TIP3    H264032   6.110   1.366  14.397  0.7541  0.3130  0.1005
14181TIP3   OH264033   4.218   4.500  16.370  0.2419 -0.2093 -0.4567
14181TIP3    H164034   4.181   4.415  16.350 -0.5409 -0.0616  0.3356
14181TIP3    H264035   4.273   4.486  16.447 -1.6146  0.3902  1.0429
14182TIP3   OH264036   2.738   1.788  11.486 -0.1719 -0.1953 -0.8854
14182TIP3    H164037   2.798   1.723  11.448 -0.7413 -0.7264 -0.8926
14182TIP3    H264038   2.787   1.870  11.483  1.4337 -0.9912  1.1542
14183TIP3   OH264039   0.012   1.038  13.526 -0.6133 -0.4662  0.4693
14183TIP3    H164040   0.105   1.059  13.522 -0.3353 -1.6290  0.4655
14183TIP3    H264041  -0.032   1.122  13.537  0.3864  0.1827 -0.3524
14184TIP3   OH264042   6.250   2.879   4.258 -0.0122  0.5812 -0.2864
14184TIP3    H164043   6.293   2.933   4.192  0.1963  0.4940 -0.2247
14184TIP3    H264044   6.286   2.910   4.341 -0.8181  1.1926 -0.1468
14185TIP3   OH264045   1.393   5.197  12.281 -0.3700  0.3492  0.4485
14185TIP3    H164046   1.459   5.130  12.302 -1.2824 -0.3379  1.1651
14185TIP3    H264047   1.445   5.275  12.259  0.7828 -0.9576 -1.8839
14186TIP3   OH264048   3.483   5.822  13.133  0.4979  0.1477  0.1347
14186TIP3    H164049   3.407   5.779  13.173  1.6647 -1.5976  0.5622
14186TIP3    H264050   3.446   5.897  13.086 -1.4184 -0.3579  0.7524
14187TIP3   OH264051   5.397   4.264   3.275 -0.4191  0.3727  0.2335
14187TIP3    H164052   5.465   4.197   3.280 -1.0035 -0.1712  1.2291
14187TIP3    H264053   5.440   4.345   3.305  0.0617  0.2735 -0.1695
14188TIP3   OH264054   1.523   6.805  15.700 -0.0708 -0.0656 -0.2485
14188TIP3    H164055   1.579   6.733  15.727  0.7227  0.9287  0.9061
14188TIP3    H264056   1.554   6.880  15.752 -2.3743  0.5649  0.3061
14189TIP3   OH264057   2.933   3.579  16.726  0.1257  0.3361  0.8438
14189TIP3    H164058   2.941   3.541  16.814 -1.3406 -0.9897  0.4561
14189TIP3    H264059   2.842   3.608  16.721 -0.2756 -1.0253 -0.7354
14190TIP3   OH264060   2.130   4.016   4.309  0.5918  0.6620 -0.2017
14190TIP3    H164061   2.087   4.083   4.363  1.5950  0.4515  0.8966
14190TIP3    H264062   2.219   4.012   4.343  0.7434 -0.7455 -0.7231
14191TIP3   OH264063   3.610   4.464   2.708  0.1223 -0.1391  0.7024
14191TIP3    H164064   3.657   4.412   2.773 -1.0483 -1.0240  0.8771
14191TIP3    H264065   3.539   4.407   2.679 -2.0628  1.8017  1.9091
14192TIP3   OH264066   5.666   0.182  12.673 -0.3634 -0.1836  0.6476
14192TIP3    H164067   5.619   0.103  12.702  1.8250 -1.3239  1.3144
14192TIP3    H264068   5.714   0.211  12.751  0.8252  0.3079 -0.2310
14193TIP3   OH264069   5.219   2.883   4.467 -0.3840 -0.5678  0.0186
14193TIP3    H164070   5.211   2.874   4.562 -1.2722 -1.9910 -0.1547
14193TIP3    H264071   5.187   2.971   4.449  0.1084 -0.1562  1.0636
14194TIP3   OH264072   2.687   6.782  16.576  0.7593 -0.0594 -0.7218
14194TIP3    H164073   2.729   6.710  16.622  2.7805  1.6515  0.2878
14194TIP3    H264074   2.713   6.860  16.625 -1.4230  1.3728 -1.6989
14195TIP3   OH264075   2.679   1.555  11.129  0.2376 -0.0775  0.3191
14195TIP3    H164076   2.626   1.511  11.196 -0.8932 -0.6753 -0.9241
14195TIP3    H264077   2.618   1.615  11.086  1.6625  2.5347  1.7322
14196TIP3   OH264078   0.297   1.963   0.084  0.1522  0.2865  0.1336
14196TIP3    H164079   0.321   2.055   0.071 -1.6547  0.7749 -0.0439
14196TIP3    H264080   0.234   1.964   0.156 -0.4740 -0.6843 -0.3676
14197TIP3   OH264081   0.944   1.800  14.193 -0.6023 -0.1066 -0.7227
14197TIP3    H164082   0.953   1.888  14.156 -1.4221 -0.5407 -2.0250
14197TIP3    H264083   1.022   1.754  14.164  0.6776  0.6224  1.3636
14198TIP3   OH264084   5.368   1.898  16.905  0.2034  0.2466  0.4829
14198TIP3    H164085   5.362   1.808  16.872  1.6478  0.0412  0.7066
14198TIP3    H264086   5.407   1.888  16.992 -1.9992  0.9103  1.6297
14199TIP3   OH264087   1.158   6.612   2.638  0.1123  0.4259 -0.1786
14199TIP3    H164088   1.210   6.610   2.558 -0.9604  0.5092 -0.8980
14199TIP3    H264089   1.204   6.674   2.695  0.6017  0.7652 -0.9297
14200TIP3   OH264090   4.975   6.490   6.128 -1.2072  1.2548  0.0151
14200TIP3    H164091   4.914   6.459   6.194  0.0116 -1.5461 -0.0189
14200TIP3    H264092   5.058   6.447   6.149 -0.3849  1.4401 -2.4369
14201TIP3   OH264093   6.049   2.855  11.339  0.1225 -0.7685  0.3558
14201TIP3    H164094   6.058   2.950  11.345  1.3578 -0.9348  1.8576
14201TIP3    H264095   6.044   2.837  11.245 -1.4198  0.8492  0.0646
14202TIP3   OH264096   5.304   6.526  16.810  0.0276 -0.0193 -0.2821
14202TIP3    H164097   5.210   6.532  16.825 -0.0518  1.3261 -1.1728
14202TIP3    H264098   5.323   6.432  16.812 -1.2586 -0.2800  0.2828
14203TIP3   OH264099   4.939   1.090  15.914  0.1917 -0.4845  0.8392
14203TIP3    H164100   4.852   1.098  15.875 -0.1798 -0.2973  1.6752
14203TIP3    H264101   4.928   1.026  15.985  1.0132 -1.3702  0.1932
14204TIP3   OH264102   6.109   4.110  14.244 -0.3591  0.1474 -0.0733
14204TIP3    H164103   6.096   4.198  14.209  1.4562  0.4698 -0.0652
14204TIP3    H264104   6.052   4.105  14.321 -3.6250 -0.2038 -2.3553
14205TIP3   OH264105   2.852   5.326   3.760  0.0568 -0.4545  0.2178
14205TIP3    H164106   2.947   5.329   3.758  0.0772  0.9482  1.2451
14205TIP3    H264107   2.829   5.236   3.740  1.5879 -0.7188 -0.3920
14206TIP3   OH264108   2.796   0.347   1.864 -0.0315 -0.1637  0.1602
14206TIP3    H164109   2.864   0.410   1.886 -0.2330  0.1564 -0.1165
14206TIP3    H264110   2.791   0.289   1.940  1.8038 -1.3090 -0.5356
14207TIP3   OH264111   0.230   3.753  15.426 -0.4803  0.2503  0.6332
14207TIP3    H164112   0.203   3.809  15.354  0.2478  0.5105  0.5536
14207TIP3    H264113   0.155   3.695  15.441 -0.7417  0.3747 -0.1469
14208TIP3   OH264114   6.779   5.806  14.242 -0.2673 -0.5510  0.3034
14208TIP3    H164115   6.864   5.849  14.230  0.4406 -1.7429  0.8768
14208TIP3    H264116   6.747   5.792  14.153 -0.0969  0.3371  0.0913
14209TIP3   OH264117   6.430   3.551  13.631  0.5158  0.0084 -0.3929
14209TIP3    H164118   6.446   3.459  13.610 -0.3225 -0.3468  0.4562
14209TIP3    H264119   6.405   3.550  13.723  1.3960  1.2010 -0.1163
14210TIP3   OH264120   6.282   3.415  12.876 -0.0949  0.2979 -0.4518
14210TIP3    H164121   6.245   3.437  12.962 -0.7839 -0.8329 -0.4359
14210TIP3    H264122   6.372   3.391  12.895 -0.2112  0.1574 -0.0616
14211TIP3   OH264123   3.975   0.881   3.505 -0.0658 -0.0744 -0.0470
14211TIP3    H164124   3.993   0.975   3.511  0.9277 -0.0522 -2.3507
14211TIP3    H264125   4.001   0.846   3.590  0.3592  1.6104  0.5495
14212TIP3   OH264126   3.614   5.089   0.077  0.3435  0.4927  0.1525
14212TIP3    H164127   3.662   5.045   0.006 -0.5419  0.9459 -0.7483
14212TIP3    H264128   3.616   5.026   0.149  1.7563  0.2484 -0.0550
14213TIP3   OH264129   6.327   4.964  15.938 -1.0850 -0.7859 -0.1319
14213TIP3    H164130   6.386   4.918  15.878 -1.1546  0.3368 -1.0876
14213TIP3    H264131   6.289   4.894  15.992  1.1198 -1.5304  0.5423
14214TIP3   OH264132   1.683   4.576  10.442  0.1673  0.1676 -0.0185
14214TIP3    H164133   1.770   4.537  10.430 -1.2768 -3.1020 -1.0609
14214TIP3    H264134   1.637   4.515  10.499 -1.9519  0.9082 -0.8412
14215TIP3   OH264135   4.887   2.719   3.790  0.2800 -0.8075 -0.1817
14215TIP3    H164136   4.948   2.756   3.854 -1.1026  0.5264  0.4387
14215TIP3    H264137   4.936   2.722   3.707  1.4614 -0.8813  0.4833
14216TIP3   OH264138   1.979   1.601  12.930 -0.0107 -0.4428  0.2985
14216TIP3    H164139   1.996   1.518  12.975  0.8413 -0.5217 -0.1617
14216TIP3    H264140   1.914   1.579  12.864  0.6312 -0.8778 -0.2028
14217TIP3   OH264141   1.689   1.092   3.057 -0.1524 -0.0011  0.4269
14217TIP3    H164142   1.638   1.093   3.138  1.3531  2.0469  1.4351
14217TIP3    H264143   1.674   1.177   3.018 -1.1109 -1.0721 -1.6979
14218TIP3   OH264144   0.203   5.140  14.080 -0.2953 -0.2778  0.1821
14218TIP3    H164145   0.225   5.063  14.133  0.6345  0.0444  0.2773
14218TIP3    H264146   0.117   5.119  14.044 -0.1839 -1.2486  0.4289
14219TIP3   OH264147   5.258   1.073   4.114  0.5112 -0.5948  0.4610
14219TIP3    H164148   5.277   1.014   4.041 -0.5162  0.2170 -0.4882
14219TIP3    H264149   5.199   1.139   4.077  0.5030  0.2139  1.8607
14220TIP3   OH264150   2.674   5.689  14.791  0.7548  0.0706  0.2708
14220TIP3    H164151   2.723   5.640  14.725 -0.0529 -1.8109  1.0046
14220TIP3    H264152   2.598   5.723  14.743  0.8556 -0.1486 -0.0530
14221TIP3   OH264153   4.483   3.628   3.349  0.1684  0.3736  0.2892
14221TIP3    H164154   4.526   3.544   3.336 -1.1387 -0.2414 -0.2907
14221TIP3    H264155   4.552   3.693   3.336  1.0238 -0.5795 -0.0422
14222TIP3   OH264156   2.921   5.492  14.137 -0.1221  0.2271 -0.2786
14222TIP3    H164157   2.964   5.537  14.210 -0.0287 -0.1765 -0.0807
14222TIP3    H264158   2.988   5.433  14.102  0.3567  1.5605 -1.7308
14223TIP3   OH264159   2.807   6.523  11.488  0.0164 -0.4179  0.2680
14223TIP3    H164160   2.840   6.584  11.422 -0.6176 -1.2879 -0.8977
14223TIP3    H264161   2.881   6.466  11.508 -0.3489 -1.5440 -1.3703
14224TIP3   OH264162   3.714   6.530  13.615  0.2445  0.0906  0.1297
14224TIP3    H164163   3.648   6.467  13.585  0.0942  1.2289 -2.1543
14224TIP3    H264164   3.731   6.506  13.706 -3.8272  0.1287  1.0963
14225TIP3   OH264165   0.523   0.494   0.082 -0.0274  0.0335 -0.9180
14225TIP3    H164166   0.477   0.575   0.062 -3.0508 -1.4657 -0.7029
14225TIP3    H264167   0.533   0.493   0.177 -0.2211  0.0521 -0.8976
14226TIP3   OH264168   1.536   1.425  15.585 -0.0410  0.4674  0.0547
14226TIP3    H164169   1.471   1.456  15.649 -0.5740 -0.7823  0.1350
14226TIP3    H264170   1.620   1.454  15.622 -0.4514  1.0550  0.5598
14227TIP3   OH264171   5.786   4.954  15.173  0.3197 -0.3331  0.3036
14227TIP3    H164172   5.724   4.881  15.177  0.8740 -0.7771  0.8719
14227TIP3    H264173   5.824   4.958  15.261 -2.0683  2.7351  1.3911
14228TIP3   OH264174   4.106   5.303  13.421  0.6466 -0.3382  0.4744
14228TIP3    H164175   4.107   5.351  13.504  0.9271 -1.7773  1.3331
14228TIP3    H264176   4.025   5.331  13.378  1.9043  2.7138 -0.2084
14229TIP3   OH264177   0.127   4.232   2.678  0.4490  0.1066  0.1231
14229TIP3    H164178   0.091   4.221   2.590 -0.4724 -2.7122  0.7512
14229TIP3    H264179   0.053   4.264   2.730  0.3799 -0.3568  0.3106
14230TIP3   OH264180   3.333   2.008  11.366 -0.3027 -0.1998 -0.0328
14230TIP3    H164181   3.286   1.957  11.301  1.4425 -1.2629 -0.5236
14230TIP3    H264182   3.303   1.974  11.450 -2.2510  0.8924 -0.2350
14231TIP3   OH264183   4.500   0.091  16.046 -0.3102 -0.1460 -0.4428
14231TIP3    H164184   4.531   0.176  16.015 -0.0088 -0.5814 -1.3835
14231TIP3    H264185   4.509   0.033  15.970 -1.0042 -0.8971  0.0320
14232TIP3   OH264186   0.063   6.169   3.903 -0.0296 -0.2108  0.6384
14232TIP3    H164187   0.042   6.132   3.818 -0.6763 -0.1359  0.7604
14232TIP3    H264188   0.059   6.095   3.963 -0.4031 -0.1123  0.7356
14233TIP3   OH264189   1.298   0.725   5.885  0.1874  0.1819 -0.3561
14233TIP3    H164190   1.276   0.634   5.862 -0.8704  0.5505 -0.8881
14233TIP3    H264191   1.213   0.768   5.895  0.6678  0.8582  1.0182
14234TIP3   OH264192   5.605   2.597   4.322 -0.3566 -0.4332 -0.1553
14234TIP3    H164193   5.628   2.516   4.278 -0.2453 -1.1458  1.1644
14234TIP3    H264194   5.513   2.587   4.347  0.4394 -1.5913  2.8245
14235TIP3   OH264195   5.435   3.462  15.918 -0.0797 -0.0255 -0.2464
14235TIP3    H164196   5.413   3.450  15.826  0.8641 -0.6871 -0.3914
14235TIP3    H264197   5.480   3.547  15.922 -0.2048  0.0472 -0.3650
14236TIP3   OH264198   5.130   5.183  11.505  0.0636 -0.2668 -0.1861
14236TIP3    H164199   5.047   5.231  11.502  0.7779  0.9702 -1.6423
14236TIP3    H264200   5.131   5.134  11.422  0.9580  0.0549 -0.3739
14237TIP3   OH264201   4.856   1.983  12.417  0.3061  0.5285  0.5411
14237TIP3    H164202   4.882   1.942  12.335 -0.0466 -0.7509  1.0392
14237TIP3    H264203   4.763   1.965  12.425  0.5243 -0.2457  1.6805
14238TIP3   OH264204   3.210   5.011   4.709  0.2373  0.1279  0.2839
14238TIP3    H164205   3.165   5.024   4.626  1.4581 -1.2267 -0.6254
14238TIP3    H264206   3.187   4.922   4.736 -1.3456  1.0313  2.2047
14239TIP3   OH264207   0.269   6.314   1.439 -0.2588 -0.5784 -0.2981
14239TIP3    H164208   0.181   6.336   1.410 -0.0876  0.7445  0.1041
14239TIP3    H264209   0.262   6.308   1.535  0.1636 -0.0563 -0.2307
14240TIP3   OH264210   3.153   4.501  13.527 -0.8385 -0.0514 -0.3827
14240TIP3    H164211   3.126   4.440  13.459 -0.8621 -0.2520 -0.1949
14240TIP3    H264212   3.186   4.445  13.598  1.3324  0.2064 -1.1202
14241TIP3   OH264213   1.293   6.453   4.306 -0.5185  0.3182 -0.2311
14241TIP3    H164214   1.321   6.471   4.216 -0.0011 -1.0548 -0.3719
14241TIP3    H264215   1.301   6.358   4.315  1.0622  0.5513  1.7821
14242TIP3   OH264216   0.102   6.035  12.004  0.6616 -0.3309  0.0729
14242TIP3    H164217   0.101   6.087  11.924 -1.9784  0.3785  0.4754
14242TIP3    H264218   0.054   5.956  11.983 -0.7248  0.1960  1.0985
14243TIP3   OH264219   5.725   0.841   1.600  0.5364  0.0965 -0.4540
14243TIP3    H164220   5.681   0.759   1.579  1.0861 -0.0740 -0.9283
14243TIP3    H264221   5.666   0.909   1.566  0.2567 -0.1048 -0.3768
14244TIP3   OH264222   1.376   3.019  14.019 -0.6372 -0.2948 -0.4010
14244TIP3    H164223   1.408   2.974  14.098  2.5807 -0.4918 -1.6640
14244TIP3    H264224   1.352   2.949  13.959  1.3464 -0.3338 -1.2112
14245TIP3   OH264225   3.985   3.718  15.844  0.2669 -0.6505  0.0420
14245TIP3    H164226   3.986   3.680  15.932  0.5724 -0.6886  0.0222
14245TIP3    H264227   4.015   3.808  15.856 -1.4160 -0.0746  0.2352
14246TIP3   OH264228   5.798   2.230   3.074 -0.5211 -0.2283  0.4021
14246TIP3    H164229   5.860   2.286   3.120  1.0571 -0.0308 -1.7881
14246TIP3    H264230   5.843   2.146   3.067 -1.4685 -0.7726  0.7269
14247TIP3   OH264231   3.740   1.640  11.306  0.1082  0.4348 -0.4282
14247TIP3    H164232   3.710   1.580  11.238 -1.0352 -0.1701  0.5742
14247TIP3    H264233   3.794   1.587  11.364  1.0288  0.9353 -0.8038
14248TIP3   OH264234   2.431   5.231  11.938 -0.0535  0.4078 -0.0340
14248TIP3    H164235   2.415   5.312  11.888 -0.4424  0.2952 -0.0925
14248TIP3    H264236   2.355   5.223  11.995  0.3004  0.4295  0.4404
14249TIP3   OH264237   4.792   1.033   5.755  0.6351  0.8589 -0.0542
14249TIP3    H164238   4.867   1.092   5.759  1.9899 -0.7387 -0.9617
14249TIP3    H264239   4.793   0.987   5.839  1.4234 -0.0206 -0.5326
14250TIP3   OH264240   3.020   4.383  11.500 -0.3144 -0.3561 -0.1692
14250TIP3    H164241   2.984   4.395  11.588 -2.1100 -3.5903 -0.3108
14250TIP3    H264242   2.970   4.443  11.445  0.5504  1.4030  0.8919
14251TIP3   OH264243   5.409   0.575   3.388  0.0333 -0.4604  0.0806
14251TIP3    H164244   5.488   0.571   3.441 -0.4825 -0.1571  0.9031
14251TIP3    H264245   5.434   0.623   3.310  0.4017  0.6151  0.8351
14252TIP3   OH264246   1.214   6.268  14.924  0.4089  0.3907 -0.0173
14252TIP3    H164247   1.199   6.174  14.919  0.8613  0.3510 -0.8260
14252TIP3    H264248   1.256   6.290  14.841 -1.2885  1.5911 -0.6409
14253TIP3   OH264249   2.269   0.091   3.356 -0.3994 -0.0771  0.2581
14253TIP3    H164250   2.181   0.125   3.342 -1.0034 -0.8404  1.9166
14253TIP3    H264251   2.326   0.167   3.352 -1.1769  0.4834 -0.4166
14254TIP3   OH264252   4.472   3.914  11.421  0.2717  0.3235  0.2128
14254TIP3    H164253   4.527   3.836  11.418 -2.1077 -1.4910  1.0388
14254TIP3    H264254   4.473   3.948  11.332  3.1426  0.7827  0.3022
14255TIP3   OH264255   0.837   4.965   0.239  0.2088  0.1412 -0.2452
14255TIP3    H164256   0.765   4.993   0.296  1.1237  2.7293 -0.2146
14255TIP3    H264257   0.916   4.982   0.291  0.9397 -0.0418 -1.2775
14256TIP3   OH264258   5.791   6.078   4.698 -0.1102  0.7880 -0.1829
14256TIP3    H164259   5.765   6.040   4.782  1.5232 -0.1298 -0.0343
14256TIP3    H264260   5.773   6.009   4.634  1.9096  0.0671 -0.0560
14257TIP3   OH264261   1.899   3.471   2.437  0.0652  0.0088  0.1565
14257TIP3    H164262   1.942   3.462   2.352 -0.7877 -1.1107 -0.1810
14257TIP3    H264263   1.808   3.492   2.415  0.2091  1.4540  0.8361
14258TIP3   OH264264   3.218   0.006   3.843 -0.6744  0.5946  0.0801
14258TIP3    H164265   3.151   0.045   3.900 -0.2352  0.8572  0.4209
14258TIP3    H264266   3.284   0.074   3.834 -1.1723  0.8938 -1.5041
14259TIP3   OH264267   5.754   3.917  15.721 -0.3277  0.3544 -0.3924
14259TIP3    H164268   5.848   3.914  15.740 -0.6030 -1.5482  0.9380
14259TIP3    H264269   5.748   3.895  15.628  0.4577 -2.4080  0.1072
14260TIP3   OH264270   5.784   1.872  15.087  0.1571 -0.6321 -0.3863
14260TIP3    H164271   5.809   1.832  15.171 -0.0014 -0.7489 -0.3948
14260TIP3    H264272   5.720   1.939  15.111  0.1416 -0.6382 -0.4114
14261TIP3   OH264273   4.258   0.706   1.675  0.2508 -0.3122  0.1212
14261TIP3    H164274   4.320   0.754   1.619 -1.7784  0.7164 -1.3537
14261TIP3    H264275   4.213   0.775   1.725 -2.3170 -0.6213 -1.6142
14262TIP3   OH264276   4.757   3.565   0.915 -0.7294  0.3255 -0.1809
14262TIP3    H164277   4.734   3.657   0.900 -1.7533  0.3540  1.3580
14262TIP3    H264278   4.735   3.521   0.832 -0.0009  1.4691 -1.0214
14263TIP3   OH264279   3.664   0.092   3.776 -0.1434  0.0911 -0.5504
14263TIP3    H164280   3.592   0.031   3.758  1.8139 -2.4701 -0.1786
14263TIP3    H264281   3.713   0.095   3.694  0.9096 -0.4470  0.0507
14264TIP3   OH264282   4.628   2.709   5.133  0.3870 -0.3314  0.7907
14264TIP3    H164283   4.534   2.691   5.124  0.5256 -0.1496 -1.8772
14264TIP3    H264284   4.632   2.781   5.195 -1.3631  0.4513  0.0796
14265TIP3   OH264285   3.510   6.689   3.409 -0.1147 -0.1040 -0.5340
14265TIP3    H164286   3.568   6.765   3.417 -2.1272  1.4647  0.3185
14265TIP3    H264287   3.435   6.722   3.359 -0.9756 -1.5802 -0.2864
14266TIP3   OH264288   2.030   4.510  12.339  0.3317 -0.0022 -0.2724
14266TIP3    H164289   2.063   4.424  12.365  0.5145  0.9243  2.9668
14266TIP3    H264290   2.082   4.572  12.389 -0.4389  1.9753 -1.8057
14267TIP3   OH264291   4.360   0.299   2.962  0.0314 -0.3192  0.0345
14267TIP3    H164292   4.340   0.229   3.025  0.8414  0.8007  1.5724
14267TIP3    H264293   4.437   0.267   2.915 -0.7738 -1.3103 -0.6529
14268TIP3   OH264294   3.542   5.053   4.429  0.4872  0.2144 -0.4861
14268TIP3    H164295   3.470   5.082   4.372  0.9433  1.2706 -0.5484
14268TIP3    H264296   3.516   5.081   4.517  0.3233 -0.3845 -0.3366
14269TIP3   OH264297   1.792   1.136  15.803  0.3245  0.1986 -0.2509
14269TIP3    H164298   1.787   1.148  15.708 -1.0151  0.3710 -0.1741
14269TIP3    H264299   1.717   1.184  15.837  1.5609  1.3110  1.0276
14270TIP3   OH264300   0.534   5.574   2.562  0.3272 -0.5412 -0.2977
14270TIP3    H164301   0.473   5.646   2.572  1.3775  0.5626 -1.4319
14270TIP3    H264302   0.496   5.519   2.494  0.2393 -0.2447 -0.4905
14271TIP3   OH264303   4.814   1.649  11.040 -0.9194 -0.3175  0.2225
14271TIP3    H164304   4.750   1.622  10.974 -0.3189 -0.9509 -0.1158
14271TIP3    H264305   4.799   1.743  11.051 -0.5956 -0.0646 -1.3158
14272TIP3   OH264306   4.464   2.999  15.447  0.3973  0.3044  0.6114
14272TIP3    H164307   4.537   2.992  15.508  0.4962 -0.6332  0.3981
14272TIP3    H264308   4.386   2.978  15.499  0.6205 -1.8757  0.1353
14273TIP3   OH264309   2.493   5.562  11.556 -0.2186  0.0125  0.0417
14273TIP3    H164310   2.568   5.585  11.501 -0.0366 -2.6218 -0.9337
14273TIP3    H264311   2.443   5.644  11.562  1.7995  1.3993 -0.7108
14274TIP3   OH264312   2.056   2.941   0.025  0.4441 -0.1241  0.3433
14274TIP3    H164313   2.097   3.027   0.032  0.1497  0.0972 -0.5199
14274TIP3    H264314   2.025   2.921   0.114 -0.3991  1.1241  0.3473
14275TIP3   OH264315   0.726   3.875  16.192 -0.0785 -0.0440  0.1171
14275TIP3    H164316   0.800   3.927  16.221  0.7490 -0.5951 -0.9379
14275TIP3    H264317   0.761   3.786  16.182 -0.3604  0.0558 -2.2593
14276TIP3   OH264318   2.317   4.474  13.449 -0.3612 -0.0712  0.1182
14276TIP3    H164319   2.239   4.421  13.439  0.2378 -1.0005  0.2816
14276TIP3    H264320   2.314   4.536  13.376 -0.6051 -0.9197 -0.6082
14277TIP3   OH264321   3.191   1.850   5.387  0.1334 -0.7065  0.4813
14277TIP3    H164322   3.204   1.760   5.418  2.3289 -0.3410  0.7808
14277TIP3    H264323   3.249   1.858   5.312 -2.7156 -0.5832 -1.9090
14278TIP3   OH264324   0.719   1.585  12.620  0.4043  0.3238 -0.5236
14278TIP3    H164325   0.665   1.587  12.541 -0.5618  1.2327  0.1301
14278TIP3    H264326   0.712   1.673  12.656  0.7277 -0.1107  0.6505
14279TIP3   OH264327   4.956   3.956   2.059 -0.0065  0.6384 -0.3397
14279TIP3    H164328   4.975   3.986   1.969 -2.9063  0.1851 -1.1958
14279TIP3    H264329   4.877   4.004   2.084 -0.5064 -0.8582  1.1111
14280TIP3   OH264330   4.401   1.298   0.110  0.6919  0.2830  0.2332
14280TIP3    H164331   4.353   1.216   0.124  1.0941 -0.1057 -0.6266
14280TIP3    H264332   4.358   1.360   0.169  0.0441 -0.4102  0.5177
14281TIP3   OH264333   3.135   3.847  15.748  0.3568  0.5972 -0.0612
14281TIP3    H164334   3.120   3.761  15.708  0.0939 -0.9095  2.9785
14281TIP3    H264335   3.120   3.909  15.677 -1.4922 -1.7545 -1.9062
14282TIP3   OH264336   1.534   5.747   6.736 -0.1257  0.4508 -0.0515
14282TIP3    H164337   1.628   5.752   6.716  0.3424  0.0401  1.8351
14282TIP3    H264338   1.508   5.659   6.709 -0.4260  1.1711 -2.2421
14283TIP3   OH264339   1.332   2.590  12.180  0.0420  0.2493 -0.3326
14283TIP3    H164340   1.275   2.523  12.218 -0.6409  1.9700  1.8330
14283TIP3    H264341   1.421   2.562  12.202 -0.0391 -1.1671 -1.6077
14284TIP3   OH264342   6.044   4.852   4.775  0.7748  0.2310 -0.1854
14284TIP3    H164343   6.083   4.912   4.712  2.8578 -0.2901  0.5140
14284TIP3    H264344   6.118   4.819   4.825 -0.4238 -2.0888  0.1881
14285TIP3   OH264345   0.111   1.101   5.954 -0.2556  0.2229 -0.3523
14285TIP3    H164346   0.198   1.066   5.933 -0.1038  0.3367  0.0559
14285TIP3    H264347   0.099   1.079   6.047 -1.4625 -1.4395 -0.8631
14286TIP3   OH264348   0.416   0.912  14.262  0.7083 -0.0413 -0.3660
14286TIP3    H164349   0.434   0.833  14.312  0.2659  0.2266  0.2256
14286TIP3    H264350   0.402   0.881  14.173 -1.6734 -0.9269  0.2279
14287TIP3   OH264351   5.004   6.230  14.444  0.1465  0.0760  0.3012
14287TIP3    H164352   5.065   6.210  14.373 -0.3976  0.5491 -0.3106
14287TIP3    H264353   4.971   6.317  14.424 -0.3450  0.0359  0.9010
14288TIP3   OH264354   4.505   6.464   0.881 -0.5300 -0.1723 -0.7600
14288TIP3    H164355   4.460   6.379   0.881  0.4031 -0.6840 -0.8188
14288TIP3    H264356   4.547   6.469   0.967 -1.6511  0.8410 -0.2395
14289TIP3   OH264357   6.583   4.575  11.735 -0.6999 -0.6915 -0.7593
14289TIP3    H164358   6.500   4.622  11.724 -1.5922 -1.9151  0.4160
14289TIP3    H264359   6.567   4.489  11.698 -0.3401 -1.3166  0.4819
14290TIP3   OH264360   0.006   2.113   0.557  0.0933  0.2993  0.2676
14290TIP3    H164361  -0.065   2.050   0.555  1.2992 -1.1394  0.7890
14290TIP3    H264362   0.052   2.095   0.640  1.2801  0.9263 -0.2255
14291TIP3   OH264363   0.097   5.818   2.207 -0.4955  0.5217  0.0755
14291TIP3    H164364   0.169   5.799   2.148 -1.0898 -0.9763 -0.2123
14291TIP3    H264365   0.108   5.755   2.279 -0.9719  0.9250  0.5086
14292TIP3   OH264366   3.024   5.072  15.559 -0.1105 -0.6515  0.7171
14292TIP3    H164367   3.080   5.124  15.500  0.9941 -1.2297  1.2201
14292TIP3    H264368   3.009   4.991  15.512 -1.1473 -0.2190  0.2803
14293TIP3   OH264369   6.640   6.344   1.449 -1.0001  0.3413  0.6974
14293TIP3    H164370   6.720   6.359   1.398 -1.7875  0.2166 -0.6306
14293TIP3    H264371   6.664   6.367   1.539  0.1184  1.6905  0.0885
14294TIP3   OH264372   4.611   3.394   3.228 -0.1876 -0.8286 -0.2438
14294TIP3    H164373   4.674   3.352   3.170 -1.2607 -1.7937 -0.7610
14294TIP3    H264374   4.526   3.359   3.200 -0.6639 -2.4023  2.7124
14295TIP3   OH264375   0.207   5.455  15.178 -0.2129 -0.4521 -0.1422
14295TIP3    H164376   0.231   5.396  15.106 -0.9589 -1.1897  0.1845
14295TIP3    H264377   0.111   5.455  15.176 -0.2242  0.0914  0.3969
14296TIP3   OH264378   3.964   0.467   0.531 -0.3159  0.1260  0.1713
14296TIP3    H164379   4.026   0.461   0.603  0.3916 -0.7078 -0.4887
14296TIP3    H264380   3.923   0.381   0.527 -0.2798  0.1317 -0.4697
14297TIP3   OH264381   0.037   0.263  11.232  0.3466 -0.2774 -0.0883
14297TIP3    H164382   0.115   0.276  11.286 -0.0828  2.9878 -0.0639
14297TIP3    H264383   0.060   0.300  11.147 -1.0765  0.6360 -0.1176
14298TIP3   OH264384   4.394   6.137   2.943 -0.6661  0.1648 -0.5807
14298TIP3    H164385   4.373   6.224   2.977 -0.6802  0.8531 -2.2433
14298TIP3    H264386   4.350   6.134   2.858  1.3313 -0.5300 -1.6390
14299TIP3   OH264387   3.536   2.168   3.817  0.4921  0.2572 -0.4783
14299TIP3    H164388   3.548   2.246   3.762  0.9855 -0.1107 -0.9038
14299TIP3    H264389   3.521   2.097   3.754  0.6740 -0.1026 -0.1198
14300TIP3   OH264390   3.485   4.227  16.279  0.0199  0.0337  0.0087
14300TIP3    H164391   3.487   4.175  16.360 -0.2742  1.3127  0.8723
14300TIP3    H264392   3.577   4.245  16.261  0.0256  1.7944  1.4813
14301TIP3   OH264393   6.190   1.244   3.141 -0.5019 -0.1544 -0.1240
14301TIP3    H164394   6.266   1.269   3.089 -1.4228  0.6491 -1.1599
14301TIP3    H264395   6.219   1.170   3.194  0.4087 -1.2097 -2.0160
14302TIP3   OH264396   2.552   1.765   3.342 -0.5563  0.2828  0.1454
14302TIP3    H164397   2.517   1.676   3.350 -0.1544  0.0648 -0.4566
14302TIP3    H264398   2.634   1.763   3.391 -0.3828  0.2240 -0.1431
14303TIP3   OH264399   2.854   2.727   0.603  0.0756 -0.1100  0.3100
14303TIP3    H164400   2.785   2.715   0.669 -1.8671 -0.0497 -1.6038
14303TIP3    H264401   2.859   2.821   0.590  3.4740  0.3371  3.2563
14304TIP3   OH264402   5.992   2.854   5.113 -0.3135  0.7579 -0.4745
14304TIP3    H164403   5.983   2.797   5.037  0.7075  0.8516 -0.6756
14304TIP3    H264404   6.061   2.814   5.165 -1.1176  0.5978  0.5128
14305TIP3   OH264405   5.383   0.417   5.681  0.5180 -0.8534 -0.4975
14305TIP3    H164406   5.363   0.327   5.654  0.0493 -0.6787 -0.7420
14305TIP3    H264407   5.299   0.452   5.711  0.6298 -0.3861 -0.7262
14306TIP3   OH264408   0.050   6.297   5.168 -0.6215  0.3549 -0.5163
14306TIP3    H164409   0.130   6.288   5.221 -0.7595  0.0916 -0.3548
14306TIP3    H264410  -0.014   6.242   5.212 -0.2013 -1.4426 -2.0511
14307TIP3   OH264411   3.748   4.502  13.739 -0.1880 -0.0755 -0.2641
14307TIP3    H164412   3.841   4.507  13.716 -0.6020  2.9584 -1.7418
14307TIP3    H264413   3.719   4.417  13.704  1.6597 -0.3309 -1.3068
14308TIP3   OH264414   6.828   0.842   5.294  0.4012 -0.0165  0.0397
14308TIP3    H164415   6.824   0.816   5.386  1.4219 -3.1319 -0.6658
14308TIP3    H264416   6.748   0.892   5.279 -0.1427 -0.0634  2.4198
14309TIP3   OH264417   0.654   5.438  14.316 -0.1618 -0.4975  0.1502
14309TIP3    H164418   0.674   5.407  14.227 -1.1900  1.7817 -0.9601
14309TIP3    H264419   0.584   5.381  14.346 -0.4292 -0.7426 -0.8847
14310TIP3   OH264420   1.202   3.407   1.434  0.1516 -0.0806  0.0332
14310TIP3    H164421   1.174   3.496   1.411 -0.0928 -0.2126 -0.1893
14310TIP3    H264422   1.293   3.402   1.404  0.1617  0.0888  0.0329
14311TIP3   OH264423   4.649   6.247  15.137  0.2222  0.0229  0.2354
14311TIP3    H164424   4.744   6.255  15.128  0.3560 -1.1132  0.4738
14311TIP3    H264425   4.636   6.160  15.174 -0.9366  0.0475 -0.0839
14312TIP3   OH264426   4.711   3.155  12.941 -0.1217 -0.2728  0.3116
14312TIP3    H164427   4.768   3.229  12.963 -1.4089  0.6434  0.7120
14312TIP3    H264428   4.766   3.098  12.887  0.4048  1.8264 -1.5505
14313TIP3   OH264429   5.048   1.531  14.495 -0.1089 -0.0068  0.2978
14313TIP3    H164430   4.968   1.502  14.539 -1.1662  0.5082 -1.1919
14313TIP3    H264431   5.030   1.519  14.402  2.0768 -1.1441 -0.0512
14314TIP3   OH264432   2.961   5.134   4.357 -0.0492 -0.7328  0.6288
14314TIP3    H164433   2.962   5.164   4.266 -1.9279 -0.5789  0.6187
14314TIP3    H264434   2.974   5.214   4.408 -0.5481 -0.5816  0.5216
14315TIP3   OH264435   3.054   6.433  14.011  0.2888 -0.3759 -0.2342
14315TIP3    H164436   3.142   6.397  14.020  1.3189  1.7022 -1.3144
14315TIP3    H264437   3.064   6.508  13.953 -1.9776  0.7329  0.6546
14316TIP3   OH264438   1.978   2.791   1.079 -0.1320 -0.1329 -0.0055
14316TIP3    H164439   2.040   2.766   1.147  0.0201  1.2101  0.3656
14316TIP3    H264440   1.960   2.884   1.095 -0.7357 -0.0071 -1.2881
14317TIP3   OH264441   0.786   4.482   2.793 -0.2031  0.0882 -0.5472
14317TIP3    H164442   0.793   4.411   2.729  0.1934  1.0557 -1.6183
14317TIP3    H264443   0.820   4.559   2.747  0.4854  0.7385  0.9777
14318TIP3   OH264444   0.749   2.199   0.148 -0.4631  0.0757 -0.3300
14318TIP3    H164445   0.756   2.116   0.195  0.2845 -1.3690 -2.7812
14318TIP3    H264446   0.687   2.182   0.078  1.1957  0.8941 -2.1012
14319TIP3   OH264447   0.571   4.583  13.859  0.4940 -0.0081 -0.2601
14319TIP3    H164448   0.628   4.523  13.907  0.1889  0.0217  0.1439
14319TIP3    H264449   0.627   4.621  13.792  0.9581  0.0425  0.1512
14320TIP3   OH264450   6.631   6.287  14.789 -0.3932  0.7109  0.0012
14320TIP3    H164451   6.716   6.282  14.832  0.3461 -0.4723 -1.4840
14320TIP3    H264452   6.567   6.284  14.861  0.7521 -1.8251  1.0413
14321TIP3   OH264453   0.776   0.594  16.006  0.5923 -0.2507 -0.2802
14321TIP3    H164454   0.697   0.604  15.951  0.0262  0.5931  0.6691
14321TIP3    H264455   0.764   0.509  16.048 -0.5235  0.4897  0.9461
14322TIP3   OH264456   3.620   6.205   2.336 -0.3968  0.2056 -0.2783
14322TIP3    H164457   3.560   6.131   2.335 -0.0531 -0.0877  0.2062
14322TIP3    H264458   3.675   6.190   2.413 -0.2379  0.8938 -0.2501
14323TIP3   OH264459   0.344   6.185  15.960 -0.4528 -0.3735  0.1462
14323TIP3    H164460   0.410   6.189  15.891 -0.9689  0.5270 -0.3074
14323TIP3    H264461   0.382   6.125  16.025  2.0926  2.1749  1.2198
14324TIP3   OH264462   3.533   0.242  12.705  0.2491 -0.3692  0.4372
14324TIP3    H164463   3.532   0.176  12.636  1.8230 -0.1629  0.1796
14324TIP3    H264464   3.625   0.267  12.713 -0.3174  2.0892  0.2176
14325TIP3   OH264465   3.764   4.577   3.344  0.3988 -0.7020 -0.6772
14325TIP3    H164466   3.758   4.549   3.435  0.5982  0.8789 -0.1594
14325TIP3    H264467   3.853   4.552   3.317 -0.0276 -2.1597 -0.8042
14326TIP3   OH264468   0.117   4.762   0.351 -0.5179  0.5154 -0.1133
14326TIP3    H164469   0.165   4.844   0.359  1.0375 -0.4549  0.9985
14326TIP3    H264470   0.041   4.784   0.296  1.0256  2.1835 -1.7226
14327TIP3   OH264471   1.456   6.777   2.982  0.1921  0.0506  0.5288
14327TIP3    H164472   1.548   6.791   3.003 -0.0544  3.0594  0.0964
14327TIP3    H264473   1.457   6.737   2.895  1.0822 -0.0333  0.5683
14328TIP3   OH264474   2.675   4.068  13.007  0.0233  0.5027  0.3306
14328TIP3    H164475   2.758   4.065  13.056 -0.5979  0.4345  1.4103
14328TIP3    H264476   2.668   4.158  12.976  0.0557  0.7565  1.0462
14329TIP3   OH264477   0.850   0.030  14.797  0.0441 -0.2303 -0.5739
14329TIP3    H164478   0.845  -0.020  14.715  1.0707  0.6732 -1.1975
14329TIP3    H264479   0.866  -0.037  14.864  0.2919 -0.8676 -1.2527
14330TIP3   OH264480   1.985   3.075  13.413 -0.2674  0.3149 -0.1778
14330TIP3    H164481   2.068   3.043  13.377 -0.5916 -0.3787 -0.3186
14330TIP3    H264482   1.932   3.097  13.337 -1.2194 -1.8190 -0.2028
14331TIP3   OH264483   6.010   2.450   1.380 -0.3693  0.0600  0.2149
14331TIP3    H164484   5.954   2.514   1.424 -0.6937  0.2261 -0.4394
14331TIP3    H264485   6.087   2.442   1.438  0.5275  2.3986 -0.5718
14332TIP3   OH264486   2.570   2.068   2.105 -0.0232 -0.4866  0.1682
14332TIP3    H164487   2.533   2.013   2.036 -0.5658 -0.6838  0.6128
14332TIP3    H264488   2.495   2.092   2.159  0.4047 -0.3544  0.7074
14333TIP3   OH264489   6.666   4.299  11.066  0.1639  0.0573  0.1577
14333TIP3    H164490   6.606   4.272  10.996 -0.8719  1.3516  0.5067
14333TIP3    H264491   6.753   4.275  11.034 -0.4798 -1.4450 -0.5773
14334TIP3   OH264492   0.017   5.511   2.003 -0.1333 -0.1562  0.4936
14334TIP3    H164493  -0.040   5.587   2.002 -0.2496 -0.1902 -1.7274
14334TIP3    H264494  -0.012   5.458   1.928  1.9329 -0.8125  0.0720
14335TIP3   OH264495   5.795   3.802  11.233 -0.1639 -0.7754 -0.4839
14335TIP3    H164496   5.758   3.755  11.158  0.1085  0.2789 -1.3057
14335TIP3    H264497   5.875   3.842  11.199  0.2335 -0.6782  0.5168
14336TIP3   OH264498   1.058   4.837  17.166 -0.0794  0.7129 -0.5172
14336TIP3    H164499   0.975   4.868  17.201  0.1215  0.0122  0.6120
14336TIP3    H264500   1.034   4.791  17.085 -1.1348 -1.7747  1.1185
14337TIP3   OH264501   2.486   0.813  12.751 -0.7480  0.3553  0.2737
14337TIP3    H164502   2.394   0.785  12.758 -0.9003  1.1052  1.8041
14337TIP3    H264503   2.508   0.843  12.839  1.9052 -2.6024  0.7962
14338TIP3   OH264504   0.099   4.297  13.091  0.0403  0.5011  0.1062
14338TIP3    H164505   0.124   4.223  13.035 -0.3083  0.6084 -0.1975
14338TIP3    H264506   0.053   4.257  13.165  0.7303  0.3383  0.4534
14339TIP3   OH264507   1.191   3.940   5.778 -0.4389 -0.2840  0.3107
14339TIP3    H164508   1.137   4.018   5.771  0.4858  0.3526  0.1256
14339TIP3    H264509   1.203   3.927   5.872 -1.0440 -0.5224  0.3556
14340TIP3   OH264510   1.029   1.117  14.522 -0.0151 -0.2972  0.1946
14340TIP3    H164511   1.066   1.205  14.533  1.1370 -1.0074  2.6330
14340TIP3    H264512   1.091   1.072  14.465 -0.4749  0.3380 -0.8505
14341TIP3   OH264513   5.249   4.598  16.425  0.3375 -0.5049 -0.6310
14341TIP3    H164514   5.198   4.542  16.483 -0.6863 -0.2498 -1.2790
14341TIP3    H264515   5.211   4.685  16.435 -0.6538 -0.6663 -2.5690
14342TIP3   OH264516   0.839   0.324  13.734 -0.6749  0.0498  0.1703
14342TIP3    H164517   0.869   0.334  13.644  0.1428  0.4834  0.4734
14342TIP3    H264518   0.792   0.404  13.753 -1.0893 -0.1610  0.0451
14343TIP3   OH264519   2.549   0.745   5.983 -0.3735 -0.6958 -0.4774
14343TIP3    H164520   2.513   0.729   6.070 -1.2516 -0.4003 -0.7721
14343TIP3    H264521   2.643   0.750   5.996 -0.5753  0.9833  0.7379
14344TIP3   OH264522   2.670   1.454  13.144 -0.4795  0.4465 -0.1937
14344TIP3    H164523   2.700   1.418  13.228 -0.0525  0.5451 -0.2995
14344TIP3    H264524   2.751   1.476  13.098 -0.7330  2.0855  0.0965
14345TIP3   OH264525   2.964   1.662  11.366 -0.1349 -1.0893 -0.6859
14345TIP3    H164526   3.052   1.628  11.355  1.6238  2.9069 -0.6294
14345TIP3    H264527   2.951   1.720  11.291 -1.2375  1.0596  1.0558
14346TIP3   OH264528   2.295   5.443  10.964 -0.0557  0.0357 -0.4916
14346TIP3    H164529   2.304   5.527  11.007  0.5756  0.8606 -2.1575
14346TIP3    H264530   2.379   5.399  10.978 -0.2000 -0.1066 -0.0649
14347TIP3   OH264531   1.844   4.242   1.940  0.2498  0.5226 -0.3112
14347TIP3    H164532   1.813   4.164   1.895  0.9005 -0.1432  0.3670
14347TIP3    H264533   1.870   4.302   1.869  0.9258 -0.3666 -0.8399
14348TIP3   OH264534   3.996   0.513   4.375  0.8753 -0.7302  0.0117
14348TIP3    H164535   3.983   0.421   4.352  0.4251 -0.6537 -0.0453
14348TIP3    H264536   3.940   0.561   4.314  0.7928 -0.4433  0.3119
14349TIP3   OH264537   1.712   1.031  16.858 -0.0932 -0.0385 -0.6547
14349TIP3    H164538   1.727   0.998  16.947 -0.5656  1.4561  0.0081
14349TIP3    H264539   1.792   1.010  16.811  0.1250 -0.9447  0.0954
14350TIP3   OH264540   2.675   3.384   0.284  0.1212  0.0821  0.3764
14350TIP3    H164541   2.633   3.403   0.368  2.0159  0.4340  1.2984
14350TIP3    H264542   2.695   3.290   0.287 -0.3543 -0.0338  0.0442
14351TIP3   OH264543   2.674   1.105   3.203  0.3181 -0.4215 -0.2438
14351TIP3    H164544   2.595   1.103   3.148  1.0701  0.4063 -1.4144
14351TIP3    H264545   2.648   1.155   3.280 -0.4227 -0.5236 -0.4203
14352TIP3   OH264546   5.149   1.467  14.022 -0.0085  0.5642  0.9615
14352TIP3    H164547   5.223   1.445  14.078  0.5542  1.9476  0.7935
14352TIP3    H264548   5.147   1.397  13.956  1.1162  0.4719  1.0072
14353TIP3   OH264549   0.261   3.874   5.129  0.4032  0.0523  0.0803
14353TIP3    H164550   0.201   3.800   5.117 -0.4188  0.9083 -1.3116
14353TIP3    H264551   0.212   3.935   5.184  0.2707  0.4293 -0.4470
14354TIP3   OH264552   3.311   0.312   0.936 -0.1930 -0.2757  0.3755
14354TIP3    H164553   3.239   0.362   0.897  1.1454  0.7129 -0.9219
14354TIP3    H264554   3.358   0.375   0.989  2.3154  0.3628 -2.3352
14355TIP3   OH264555   2.407   3.638   1.909  0.1931  0.3841 -0.2618
14355TIP3    H164556   2.395   3.563   1.850  0.4820  1.2044 -1.4143
14355TIP3    H264557   2.345   3.704   1.876 -1.0464  0.2175  1.5649
14356TIP3   OH264558   6.582   5.519   2.543  0.4675 -0.9106  0.7470
14356TIP3    H164559   6.664   5.476   2.519  0.7235  0.3918 -0.9900
14356TIP3    H264560   6.608   5.609   2.565 -0.6202  0.2027 -2.0064
14357TIP3   OH264561   5.565   0.500   0.593 -0.0474 -0.3227  0.4960
14357TIP3    H164562   5.634   0.565   0.602 -0.8973  0.5949  0.6175
14357TIP3    H264563   5.554   0.489   0.498 -1.0922  1.0529  0.4317
14358TIP3   OH264564   2.235   3.471  15.434 -0.2263 -0.2026 -0.2460
14358TIP3    H164565   2.283   3.389  15.426  1.0199  0.4562  0.2589
14358TIP3    H264566   2.190   3.463  15.518  0.5873 -0.0272  0.2156
14359TIP3   OH264567   5.031   3.793   1.681  0.0322  0.0203  0.5868
14359TIP3    H164568   5.037   3.875   1.731 -2.7557  0.5989  0.1484
14359TIP3    H264569   5.067   3.814   1.595 -0.5395  0.7687  0.5193
14360TIP3   OH264570   4.000   2.463   2.670 -0.3266 -0.3750  0.3765
14360TIP3    H164571   3.913   2.444   2.636 -0.4313  1.5212 -0.5095
14360TIP3    H264572   3.985   2.496   2.759 -0.7018  1.5509 -0.3624
14361TIP3   OH264573   6.351   2.649   2.416  0.3291  0.3886 -0.0485
14361TIP3    H164574   6.404   2.593   2.359 -0.1339  0.9516 -1.0765
14361TIP3    H264575   6.413   2.711   2.453  0.7894 -0.5590  0.8193
14362TIP3   OH264576   0.061   3.962  17.014  0.3884 -0.2984 -0.1732
14362TIP3    H164577   0.038   4.023  17.084 -0.1132  0.1463 -0.7115
14362TIP3    H264578   0.096   4.017  16.944  1.2548 -0.7778 -0.1310
14363TIP3   OH264579   4.107   0.891  16.160 -0.0418  0.4039 -0.0997
14363TIP3    H164580   4.013   0.886  16.180 -0.2261 -0.8421 -1.1764
14363TIP3    H264581   4.148   0.913  16.244 -1.2723  0.7389  0.4387
14364TIP3   OH264582   6.415   5.047  11.016 -0.1003  0.1253  0.4079
14364TIP3    H164583   6.370   5.076  11.096 -0.2535  0.1471  0.3154
14364TIP3    H264584   6.344   5.014  10.960  0.0251 -0.0340  0.3438
14365TIP3   OH264585   0.433   3.114   3.366  0.7131  0.0270 -0.6147
14365TIP3    H164586   0.432   3.201   3.404  0.0060 -0.0623 -0.4110
14365TIP3    H264587   0.400   3.126   3.277  1.3174  0.0728 -0.8364
14366TIP3   OH264588   1.166   6.057   2.336 -0.4273  0.0622 -0.2127
14366TIP3    H164589   1.073   6.036   2.334 -0.6260  0.3207  2.3566
14366TIP3    H264590   1.174   6.140   2.289 -2.0310  1.5633  2.0065
14367TIP3   OH264591   2.604   4.711   4.981 -0.0062 -0.5138 -0.3433
14367TIP3    H164592   2.596   4.765   5.060  0.7438  0.2055 -0.7413
14367TIP3    H264593   2.662   4.640   5.006  0.4562 -0.1304 -0.3240
14368TIP3   OH264594   0.260   5.275  15.982 -0.4242 -0.5267  0.2887
14368TIP3    H164595   0.221   5.355  15.946  0.9010 -0.5744 -1.3654
14368TIP3    H264596   0.221   5.204  15.931  1.2470 -0.6198 -0.9345
14369TIP3   OH264597   2.902   4.943   4.996 -0.4179 -0.1736  0.7489
14369TIP3    H164598   2.967   4.995   4.949  0.3367 -0.4123  1.5051
14369TIP3    H264599   2.830   4.932   4.934  0.2309  0.1655 -0.0750
14370TIP3   OH264600   0.221   0.723  14.466 -0.6382  0.0243 -0.6088
14370TIP3    H164601   0.230   0.788  14.536 -1.8219  1.0546 -1.3649
14370TIP3    H264602   0.304   0.727  14.419 -0.0462 -0.2697  0.3697
14371TIP3   OH264603   4.522   5.315   2.315 -0.3840  0.3741 -0.2601
14371TIP3    H164604   4.570   5.391   2.280  1.7721 -0.0703  1.4729
14371TIP3    H264605   4.445   5.353   2.357  0.8866  1.7626  1.0048
14372TIP3   OH264606   3.394   4.179   4.334  0.0105 -1.0401 -0.3090
14372TIP3    H164607   3.384   4.207   4.424 -0.1108  0.0564 -0.6579
14372TIP3    H264608   3.414   4.259   4.285  2.2404 -1.9018 -0.9303
14373TIP3   OH264609   5.368   5.105  10.625 -0.5307  0.7862 -0.2588
14373TIP3    H164610   5.397   5.178  10.569 -1.2160 -0.0765 -1.8144
14373TIP3    H264611   5.273   5.113  10.627 -0.5764  0.2296 -0.0151
14374TIP3   OH264612   2.191   3.455   0.175  0.6409  0.2747  0.2986
14374TIP3    H164613   2.213   3.517   0.245  1.1267 -1.9720  2.2459
14374TIP3    H264614   2.106   3.420   0.199  1.9964 -2.5734  1.4259
14375TIP3   OH264615   2.259   5.207  15.000 -0.1536 -0.0819 -0.1860
14375TIP3    H164616   2.335   5.169  15.045  1.5899  0.6015 -2.3481
14375TIP3    H264617   2.220   5.134  14.952 -1.1273 -0.4991  1.1662
14376TIP3   OH264618   2.770   5.478  16.921 -0.2135  0.3450 -0.2890
14376TIP3    H164619   2.840   5.422  16.887 -0.4212  0.4589 -0.9166
14376TIP3    H264620   2.731   5.427  16.993 -0.7742 -0.5843 -1.2144
14377TIP3   OH264621   0.506   4.321   5.200 -0.3391  0.1190 -0.5218
14377TIP3    H164622   0.419   4.280   5.196 -0.1906 -0.1061 -1.8879
14377TIP3    H264623   0.520   4.337   5.293 -1.7246 -0.1032 -0.2457
14378TIP3   OH264624   5.530   0.983   5.187 -1.0289  0.0715  0.3412
14378TIP3    H164625   5.535   0.939   5.272 -2.1844  0.7026  0.7531
14378TIP3    H264626   5.466   0.932   5.137 -0.2356 -0.3943 -0.2287
14379TIP3   OH264627   5.279   1.165  16.476 -0.1647  0.1818  0.5496
14379TIP3    H164628   5.257   1.099  16.411 -2.3356  0.1219  1.2992
14379TIP3    H264629   5.306   1.116  16.553  0.6849  0.2355  0.2992
14380TIP3   OH264630   1.684   3.467  10.494  0.4849  0.0248  0.0923
14380TIP3    H164631   1.692   3.382  10.453  2.2783 -0.0209  0.4576
14380TIP3    H264632   1.635   3.450  10.574 -1.1807 -0.2365 -0.9425
14381TIP3   OH264633   0.776   4.835   4.486  0.2354  0.3717 -0.0019
14381TIP3    H164634   0.779   4.911   4.428 -0.4850  0.9396  0.6874
14381TIP3    H264635   0.697   4.848   4.539  0.3748 -0.6060  0.4643
14382TIP3   OH264636   5.374   3.127   1.065  0.3275  0.8754  0.0950
14382TIP3    H164637   5.345   3.077   1.141 -0.8407  0.4464 -0.6051
14382TIP3    H264638   5.325   3.208   1.068 -1.1638  0.0787 -1.1828
14383TIP3   OH264639   3.756   2.096  10.703  0.0192  0.0212 -0.6880
14383TIP3    H164640   3.829   2.047  10.664  0.0129 -0.2419 -0.3757
14383TIP3    H264641   3.797   2.151  10.770 -0.1416 -0.5988 -0.0702
14384TIP3   OH264642   2.725   5.704   1.456  0.0893  0.1036  0.1585
14384TIP3    H164643   2.672   5.763   1.510 -3.0597  0.8094 -3.2541
14384TIP3    H264644   2.801   5.755   1.431 -0.5737  1.3106  0.5252
14385TIP3   OH264645   3.008   4.032   0.930  0.1355  0.1050 -0.3308
14385TIP3    H164646   3.038   3.946   0.960  1.1500  0.0853 -1.2819
14385TIP3    H264647   3.029   4.032   0.836 -0.5945  1.0891 -0.5067
14386TIP3   OH264648   0.496   1.440   2.911 -0.0144 -0.1655  0.2228
14386TIP3    H164649   0.464   1.354   2.882  0.2179  0.4651 -2.1455
14386TIP3    H264650   0.448   1.502   2.856 -0.4182  1.2780  2.1254
14387TIP3   OH264651   5.568   5.595  14.368 -0.0680 -0.0113  0.0882
14387TIP3    H164652   5.491   5.584  14.423 -0.3970 -1.0308 -0.5273
14387TIP3    H264653   5.573   5.689  14.350 -0.6006  0.1827  0.9116
14388TIP3   OH264654   6.664   5.244  14.933 -0.6416 -0.2448  0.0436
14388TIP3    H164655   6.591   5.181  14.938 -1.3800  0.6274  0.5937
14388TIP3    H264656   6.729   5.201  14.878 -0.8038 -1.8145  1.0187
14389TIP3   OH264657   3.427   6.111  14.496 -0.0983 -0.0306 -0.0986
14389TIP3    H164658   3.338   6.083  14.475 -0.0293  0.3165 -0.9158
14389TIP3    H264659   3.423   6.138  14.588 -1.2503  1.5335 -0.5617
14390TIP3   OH264660   5.540   0.479   0.053 -0.2546 -0.1676 -0.5730
14390TIP3    H164661   5.483   0.477   0.130  0.1029 -1.8373 -0.3330
14390TIP3    H264662   5.599   0.553   0.069 -0.6608 -0.0414  0.3915
14391TIP3   OH264663   2.795   4.248   0.700 -0.1196  0.2378  0.1735
14391TIP3    H164664   2.764   4.180   0.760  0.4359 -0.5260 -0.3862
14391TIP3    H264665   2.721   4.309   0.692  0.1160  0.8765  2.3465
14392TIP3   OH264666   6.631   0.044   0.131 -0.1502 -0.5983  0.5400
14392TIP3    H164667   6.611   0.020   0.040 -1.1152  1.4938  0.1393
14392TIP3    H264668   6.714   0.090   0.125  0.3908 -1.5054  0.9197
14393TIP3   OH264669   0.881   4.631   4.710 -0.3550 -0.1939  0.4845
14393TIP3    H164670   0.905   4.719   4.739 -2.4007  1.1646 -1.6064
14393TIP3    H264671   0.788   4.623   4.732 -0.5077 -1.3155 -0.4519
14394TIP3   OH264672   3.082   5.118  13.707 -0.0460 -0.1217  0.0532
14394TIP3    H164673   3.060   5.077  13.623 -0.8753 -0.3898  0.3885
14394TIP3    H264674   3.174   5.098  13.720  0.2788  0.5386 -1.1375
14395TIP3   OH264675   2.801   3.492  11.000 -1.0386  0.1907  0.6973
14395TIP3    H164676   2.824   3.567  10.945  0.7964  0.6531  1.9793
14395TIP3    H264677   2.885   3.448  11.016 -1.7659 -0.8629  1.7678
14396TIP3   OH264678   2.458   5.268   5.383 -0.2438 -0.0572 -0.1668
14396TIP3    H164679   2.366   5.293   5.370 -0.1885  2.4544  2.9707
14396TIP3    H264680   2.506   5.350   5.372  1.3568 -0.8982  0.3150
14397TIP3   OH264681   3.924   6.022  13.172 -0.3257  0.3284 -0.5906
14397TIP3    H164682   3.903   5.957  13.239  1.0432 -0.2324 -0.6536
14397TIP3    H264683   3.977   5.974  13.108  3.6527  2.0947  1.0270
14398TIP3   OH264684   3.029   2.078   0.431 -0.0797 -0.2049  0.0470
14398TIP3    H164685   2.967   2.010   0.458 -0.5092  0.2087  0.1129
14398TIP3    H264686   2.986   2.122   0.358 -0.7104  1.3051  1.2872
14399TIP3   OH264687   1.380   2.430  13.147  1.4006 -0.3265  0.1629
14399TIP3    H164688   1.373   2.400  13.057  1.3345 -0.2854  0.1551
14399TIP3    H264689   1.475   2.434  13.164  1.4437  0.7911 -0.2743
14400TIP3   OH264690   6.305   3.619  16.131  0.3780  0.7180 -0.2325
14400TIP3    H164691   6.276   3.534  16.097  0.6103  0.7018 -0.3894
14400TIP3    H264692   6.361   3.655  16.062  2.0667  0.0477  0.7363
14401TIP3   OH264693   5.523   0.236   1.168  0.3601 -0.0203 -0.1644
14401TIP3    H164694   5.495   0.240   1.076  1.8868  2.6193 -0.5955
14401TIP3    H264695   5.482   0.312   1.209 -0.1503 -1.0607  1.3616
14402TIP3   OH264696   3.514   5.710  14.618 -0.5709  0.0320 -0.1333
14402TIP3    H164697   3.564   5.719  14.537 -0.2121 -0.6252  0.0002
14402TIP3    H264698   3.578   5.727  14.687 -0.7339  0.0279  0.0202
14403TIP3   OH264699   4.236   3.156   4.412  0.0459 -0.2521  0.0707
14403TIP3    H164700   4.166   3.194   4.465 -1.4133  0.1007 -1.9916
14403TIP3    H264701   4.312   3.212   4.429 -0.5099  0.1396  1.3853
14404TIP3   OH264702   4.028   6.432   1.906  0.1652 -0.7186  0.5792
14404TIP3    H164703   3.942   6.473   1.898 -1.3564 -3.7218 -0.1321
14404TIP3    H264704   4.061   6.426   1.817  1.3089  0.6297  0.8675
14405TIP3   OH264705   5.330   2.611  12.897 -0.7381 -0.1969  0.3354
14405TIP3    H164706   5.410   2.561  12.880 -0.3086 -0.1460  2.0273
14405TIP3    H264707   5.302   2.642  12.810 -0.3224 -2.2834 -0.6004
14406TIP3   OH264708   4.174   6.399   6.206  0.6220  0.2237 -0.1749
14406TIP3    H164709   4.192   6.341   6.132  2.9361  0.0908  0.4092
14406TIP3    H264710   4.092   6.368   6.242 -0.6714  0.3990 -2.7584
14407TIP3   OH264711   1.662   4.386   2.229  0.2772 -0.2148  0.5211
14407TIP3    H164712   1.728   4.317   2.219  2.0957  1.2520  1.6541
14407TIP3    H264713   1.605   4.376   2.153  2.7122 -0.6241 -1.3819
14408TIP3   OH264714   0.102   4.632  13.662  0.3355 -0.2444  0.3548
14408TIP3    H164715   0.097   4.702  13.597  1.0201 -0.3245  0.2121
14408TIP3    H264716   0.191   4.597  13.654  0.1219 -0.8831  0.6838
14409TIP3   OH264717   1.676   3.274   2.527  0.4096  0.1145 -0.0983
14409TIP3    H164718   1.683   3.352   2.472 -0.1777  0.7407  0.6931
14409TIP3    H264719   1.660   3.203   2.466  2.2478  0.3715 -0.9694
14410TIP3   OH264720   5.847   4.507  16.270  0.4207  0.1467  0.4010
14410TIP3    H164721   5.834   4.551  16.354  0.1696 -0.2587  0.5791
14410TIP3    H264722   5.927   4.457  16.282 -0.9539 -2.0132  1.3394
14411TIP3   OH264723   4.332   4.939   4.454  0.1906  0.1821  0.3816
14411TIP3    H164724   4.269   4.920   4.385  4.1273 -1.2402 -3.2252
14411TIP3    H264725   4.323   5.033   4.470 -2.5510  0.0949 -0.0850
14412TIP3   OH264726   4.970   6.241   4.804 -0.5944  0.0494 -0.4415
14412TIP3    H164727   4.909   6.299   4.757 -0.5368  0.9518  0.5737
14412TIP3    H264728   5.035   6.300   4.841  0.5728 -0.8637 -0.9998
14413TIP3   OH264729   0.263   4.540  11.710  0.0148 -0.1642 -0.6734
14413TIP3    H164730   0.246   4.523  11.803 -0.1801 -3.7069 -1.2358
14413TIP3    H264731   0.181   4.577  11.677 -0.1390  0.4913  0.4071
14414TIP3   OH264732   5.886   2.331  12.050 -0.4722 -0.1556 -0.6965
14414TIP3    H164733   5.860   2.248  12.010 -1.1893  0.2024 -0.9984
14414TIP3    H264734   5.860   2.322  12.142  1.1906 -0.9846 -0.2750
14415TIP3   OH264735   1.807   4.130  14.357  0.0579  0.5373  0.6270
14415TIP3    H164736   1.864   4.129  14.434  1.0489  1.2154 -0.0699
14415TIP3    H264737   1.852   4.075  14.292  0.4072  1.7879 -0.2396
14416TIP3   OH264738   3.159   2.967   3.167  0.2966  0.5330  0.1183
14416TIP3    H164739   3.097   3.008   3.227 -0.8195  1.2435 -1.4726
14416TIP3    H264740   3.177   2.881   3.207 -0.6685  0.8456  1.2906
14417TIP3   OH264741   0.210   5.714  13.841  0.1603 -0.0086 -0.6098
14417TIP3    H164742   0.205   5.790  13.899 -0.0255 -1.2372  1.0383
14417TIP3    H264743   0.147   5.732  13.772  0.3903  1.4917 -0.4610
14418TIP3   OH264744   2.334   2.839  17.094 -0.3865 -0.2545 -0.5240
14418TIP3    H164745   2.264   2.856  17.158 -1.8885 -1.6047 -1.7295
14418TIP3    H264746   2.352   2.746  17.101 -0.4272 -0.3907 -1.9010
14419TIP3   OH264747   2.176   2.098  13.276  0.7754  0.3629  0.4009
14419TIP3    H164748   2.229   2.081  13.198  0.8023  0.2715  0.4384
14419TIP3    H264749   2.239   2.099  13.348  0.5191 -1.7939  0.7346
14420TIP3   OH264750   2.902   2.189  12.956  0.4464  0.3593  0.8195
14420TIP3    H164751   2.996   2.208  12.960  0.2196  1.3823  1.6112
14420TIP3    H264752   2.864   2.265  12.913  0.0651 -0.4503 -0.3219
14421TIP3   OH264753   0.835   5.389   5.107 -0.0258 -0.0721 -0.3762
14421TIP3    H164754   0.870   5.327   5.043 -0.0342  0.8159 -1.2756
14421TIP3    H264755   0.740   5.378   5.102 -0.0399  0.1618 -0.7144
14422TIP3   OH264756   2.981   5.893  12.824 -0.4420  0.3475 -0.1718
14422TIP3    H164757   2.980   5.981  12.788 -1.0380  0.4800  0.1469
14422TIP3    H264758   2.889   5.872  12.839 -0.2769 -0.1426  0.1976
14423TIP3   OH264759   5.051   3.708   3.613 -0.0823  0.4819  0.0221
14423TIP3    H164760   5.029   3.661   3.533  0.6067  1.1973 -0.6009
14423TIP3    H264761   4.988   3.676   3.678 -1.3766  0.7345 -1.0882
14424TIP3   OH264762   4.281   2.083  14.732 -0.2897 -0.1325 -0.4431
14424TIP3    H164763   4.260   2.145  14.662  1.6985 -0.7660 -1.6789
14424TIP3    H264764   4.347   2.025  14.693 -0.2087 -1.4270  1.5057
14425TIP3   OH264765   3.998   2.683   5.402  0.0173 -0.5097 -0.0954
14425TIP3    H164766   4.033   2.597   5.377 -1.4317 -1.0212 -0.4361
14425TIP3    H264767   3.976   2.725   5.318 -0.9566 -0.5478  0.1284
14426TIP3   OH264768   0.267   4.667  12.169 -0.3962 -0.6916  0.0438
14426TIP3    H164769   0.203   4.728  12.206  2.4555  1.0652  2.6858
14426TIP3    H264770   0.323   4.722  12.114  0.7376 -1.4231  0.4277
14427TIP3   OH264771   2.375   0.078  16.505  0.0620 -0.2683  0.2766
14427TIP3    H164772   2.463   0.102  16.476  0.2194  0.5473  1.3608
14427TIP3    H264773   2.340   0.025  16.433  0.7493  0.9339 -0.9917
14428TIP3   OH264774   0.901   0.489   2.354  0.5040 -0.1167 -0.1885
14428TIP3    H164775   0.929   0.576   2.382  1.6377 -0.3296 -0.5989
14428TIP3    H264776   0.955   0.429   2.407  0.8212 -0.5420 -0.9808
14429TIP3   OH264777   5.412   4.193   1.458  0.2720 -0.3375 -0.0038
14429TIP3    H164778   5.371   4.108   1.476 -0.1676  0.5425  4.6070
14429TIP3    H264779   5.347   4.257   1.487  1.6246  1.4684 -0.7770
14430TIP3   OH264780   3.928   4.788   4.962 -0.5194  0.0648 -0.2897
14430TIP3    H164781   3.843   4.753   4.989 -0.9638  0.2112 -1.4452
14430TIP3    H264782   3.992   4.723   4.994 -0.9747  0.3383  1.2653
14431TIP3   OH264783   5.599   1.339  16.471 -0.4535  0.2575  0.4593
14431TIP3    H164784   5.686   1.363  16.503 -0.1075 -2.6109  2.1238
14431TIP3    H264785   5.616   1.298  16.386 -0.7976  3.5747 -1.3329
14432TIP3   OH264786   2.718   1.450  17.071 -0.0494 -0.1537 -0.3913
14432TIP3    H164787   2.701   1.366  17.029  1.8610 -1.4686  1.2970
14432TIP3    H264788   2.640   1.467  17.123 -0.7768 -0.4378 -1.3495
14433TIP3   OH264789   1.190   5.061   1.382  0.2748  0.0467  0.2920
14433TIP3    H164790   1.208   5.143   1.336 -0.6316 -0.9454 -2.0107
14433TIP3    H264791   1.096   5.065   1.401  0.2324 -0.4607  0.1866
14434TIP3   OH264792   5.156   2.365  15.274 -0.4638  0.0883  0.4582
14434TIP3    H164793   5.148   2.370  15.369 -1.5376  0.8050  0.3475
14434TIP3    H264794   5.250   2.371  15.257 -0.2902  0.3016  1.4574
14435TIP3   OH264795   1.058   2.831  13.504  0.0614  0.3104 -0.6297
14435TIP3    H164796   1.097   2.905  13.458 -0.2897  0.2869 -0.9694
14435TIP3    H264797   1.053   2.762  13.438 -0.7808  0.3940 -0.6612
14436TIP3   OH264798   0.987   4.735   1.756  0.2623  0.0581  0.0379
14436TIP3    H164799   1.069   4.702   1.719  0.1287  0.2933 -0.4900
14436TIP3    H264800   1.013   4.793   1.827  0.5943  0.7722 -0.6472
14437TIP3   OH264801   1.479   5.979   4.240  0.3597  0.2722  0.1426
14437TIP3    H164802   1.511   5.988   4.330 -0.9115 -0.2277  0.6730
14437TIP3    H264803   1.455   5.887   4.232 -2.0323  0.8152  0.2071
14438TIP3   OH264804   3.419   3.640  13.892  0.6427 -0.3044  0.3013
14438TIP3    H164805   3.480   3.569  13.875  1.9536  0.3766  1.8368
14438TIP3    H264806   3.473   3.709  13.931 -0.9939  0.5615  1.1551
14439TIP3   OH264807   2.714   2.640  16.652 -0.3540  0.4864  0.0164
14439TIP3    H164808   2.799   2.684  16.650  0.3968 -0.9117 -0.3402
14439TIP3    H264809   2.654   2.703  16.613  0.5385  1.4560  0.1481
14440TIP3   OH264810   1.983   4.548   1.253 -0.2224 -0.0012 -0.3162
14440TIP3    H164811   2.027   4.529   1.336  1.5987 -0.4135 -1.3342
14440TIP3    H264812   2.006   4.476   1.196  0.5273  1.4368 -1.9225
14441TIP3   OH264813   3.131   3.496   6.062 -0.2348 -0.0859  0.6853
14441TIP3    H164814   3.063   3.534   6.006  0.2968 -0.3507 -0.1482
14441TIP3    H264815   3.100   3.514   6.151 -1.3217 -0.0563  0.3254
14442TIP3   OH264816   0.259   3.889  11.169 -0.4816 -0.2015  0.1029
14442TIP3    H164817   0.179   3.901  11.220 -0.2936  2.1837 -0.0533
14442TIP3    H264818   0.229   3.868  11.081 -0.8527 -1.2352  0.4513
14443TIP3   OH264819   2.603   1.260   6.579 -0.2872 -0.2720 -0.4192
14443TIP3    H164820   2.676   1.307   6.540 -0.3985 -0.7174 -1.1826
14443TIP3    H264821   2.584   1.307   6.660  0.4277  0.2219 -0.5362
14444TIP3   OH264822   6.750   1.304   4.534  0.1000 -0.1041  0.1173
14444TIP3    H164823   6.812   1.338   4.599  2.0983 -0.7497 -1.3633
14444TIP3    H264824   6.734   1.379   4.476  1.9587 -0.7005 -1.2583
14445TIP3   OH264825   0.691   0.488  11.939 -0.1836 -0.1813 -0.0423
14445TIP3    H164826   0.764   0.549  11.952 -0.7052  0.2306  1.2127
14445TIP3    H264827   0.684   0.478  11.844  0.8942  0.5175 -0.2131
14446TIP3   OH264828   0.054   0.275   0.170 -0.2943  0.3008 -0.5180
14446TIP3    H164829   0.039   0.252   0.261 -1.2662  1.3532 -0.3828
14446TIP3    H264830   0.148   0.289   0.163 -0.2659  0.6198  0.4347
14447TIP3   OH264831   2.359   6.006   4.218  0.0294  0.0282  0.2095
14447TIP3    H164832   2.405   5.998   4.301  2.0924  3.0167 -0.5024
14447TIP3    H264833   2.327   5.917   4.199  0.3886 -0.9487  3.6152
14448TIP3   OH264834   3.507   0.530   2.302 -0.2419 -0.1260  0.3545
14448TIP3    H164835   3.569   0.590   2.260 -2.4642  2.1464  0.0835
14448TIP3    H264836   3.479   0.576   2.381 -1.3068 -1.2597  0.6683
14449TIP3   OH264837   2.842   5.282   6.053 -0.2009  0.1660 -0.0638
14449TIP3    H164838   2.867   5.367   6.087 -2.4096  0.9274 -0.1833
14449TIP3    H264839   2.804   5.236   6.128  0.4870 -0.5263 -0.1249
14450TIP3   OH264840   2.676   6.635  12.204  0.3502 -0.2681 -0.5665
14450TIP3    H164841   2.759   6.608  12.244 -0.1634  1.0917  1.5658
14450TIP3    H264842   2.625   6.670  12.277 -2.1897 -1.2170 -1.7877
14451TIP3   OH264843   0.427   6.097   6.900  0.3259  0.5265  0.4836
14451TIP3    H164844   0.349   6.152   6.901 -0.7068 -0.8733  0.0139
14451TIP3    H264845   0.396   6.010   6.922  1.4763 -0.3845 -1.2190
14452TIP3   OH264846   4.675   0.415   0.503  0.0644 -0.5685 -0.1779
14452TIP3    H164847   4.626   0.467   0.440  0.8366 -1.4380 -1.5367
14452TIP3    H264848   4.610   0.356   0.541 -0.2159 -0.7495 -0.9303
14453TIP3   OH264849   4.981   4.614   3.279 -0.1629 -0.0609 -0.2129
14453TIP3    H164850   5.065   4.639   3.318  0.6842 -1.3811 -1.1245
14453TIP3    H264851   4.938   4.561   3.346  1.6852 -3.0996 -1.2511
14454TIP3   OH264852   0.231   0.974   3.687 -0.1682  0.2749 -0.0329
14454TIP3    H164853   0.258   0.982   3.779 -2.0453  0.0474  0.5810
14454TIP3    H264854   0.216   1.064   3.659  0.3135  0.3384 -0.1016
14455TIP3   OH264855   3.974   0.142   4.940  0.7841 -0.0855 -0.0963
14455TIP3    H164856   3.965   0.230   4.977 -1.3497 -0.8041  1.3438
14455TIP3    H264857   3.993   0.086   5.016 -0.4503 -1.1676 -0.5296
14456TIP3   OH264858   2.544   4.193   0.432  0.0524 -0.5781  0.3936
14456TIP3    H164859   2.551   4.176   0.526  1.5748  0.7045  0.5677
14456TIP3    H264860   2.519   4.286   0.427  0.5410 -0.4855 -0.4676
14457TIP3   OH264861   4.911   2.490  16.916 -0.1358  0.2048 -0.1241
14457TIP3    H164862   4.826   2.504  16.959 -0.5804 -2.5850  0.1477
14457TIP3    H264863   4.976   2.510  16.983 -0.6349  0.9802  0.1371
14458TIP3   OH264864   2.286   1.966  15.398  0.6208  0.0160  0.0426
14458TIP3    H164865   2.200   1.940  15.365  1.5882 -1.9629 -1.0861
14458TIP3    H264866   2.267   2.030  15.467 -1.7315 -0.2682 -0.2683
14459TIP3   OH264867   5.979   5.512  12.927 -0.7357 -0.6221  0.1475
14459TIP3    H164868   5.888   5.538  12.937 -0.2010  0.4117  3.7136
14459TIP3    H264869   5.992   5.445  12.994  1.5650  0.7318  1.1665
14460TIP3   OH264870   3.207   1.145   3.182 -0.2091 -0.0453  0.0166
14460TIP3    H164871   3.156   1.067   3.162 -0.8283  0.0348  1.1844
14460TIP3    H264872   3.247   1.171   3.099 -0.0936 -1.5262 -0.4054
14461TIP3   OH264873   2.892   3.585   1.092 -0.0484  0.1821  0.2588
14461TIP3    H164874   2.911   3.671   1.129 -0.4685  0.2786  0.2601
14461TIP3    H264875   2.882   3.601   0.998 -1.1182  0.3154  0.3824
14462TIP3   OH264876   3.974   3.680   4.362  0.1645 -0.0429  0.0244
14462TIP3    H164877   3.986   3.688   4.457  1.4667 -2.4460  0.1273
14462TIP3    H264878   3.923   3.600   4.351  1.1088 -0.4910 -1.3176
14463TIP3   OH264879   4.989   0.230  10.564  0.8899  0.0365 -0.2453
14463TIP3    H164880   4.970   0.318  10.596  0.7255  0.0445 -0.3638
14463TIP3    H264881   5.082   0.232  10.541  1.0906 -0.0664  0.5376
14464TIP3   OH264882   4.529   0.486  14.043 -0.8703  0.2123  0.1198
14464TIP3    H164883   4.483   0.405  14.067  0.4101 -0.1390  1.5512
14464TIP3    H264884   4.487   0.554  14.094 -1.5552  0.3649 -0.6314
14465TIP3   OH264885   4.020   2.862   4.291  0.0015 -0.6937  0.0851
14465TIP3    H164886   4.055   2.807   4.221  1.4936 -1.1315  1.1224
14465TIP3    H264887   4.061   2.827   4.371 -0.7972  0.4899  1.0436
14466TIP3   OH264888   1.694   4.802   4.291  0.2474 -0.4474  0.4295
14466TIP3    H164889   1.731   4.799   4.379 -1.5402  0.1805  1.2459
14466TIP3    H264890   1.769   4.788   4.233  1.7276  0.6974  1.9770
14467TIP3   OH264891   6.256   2.271   6.167  0.2697  0.2565 -0.0490
14467TIP3    H164892   6.348   2.247   6.163  0.8435  2.3975 -1.6806
14467TIP3    H264893   6.218   2.212   6.232  1.9336 -3.2750 -2.0273
14468TIP3   OH264894   0.455   5.927   2.838 -0.4820  0.4866 -0.3532
14468TIP3    H164895   0.451   5.904   2.931 -0.2176 -0.1274 -0.4939
14468TIP3    H264896   0.443   5.844   2.792 -2.3236  1.0050 -0.8910
14469TIP3   OH264897   3.834   5.477  16.180  0.1769  0.1502  0.0755
14469TIP3    H164898   3.745   5.474  16.213 -0.1022  0.7274 -0.6054
14469TIP3    H264899   3.887   5.440  16.250 -0.6009 -0.2345  0.4681
14470TIP3   OH264900   0.778   4.712  12.151 -0.1011  0.8928 -0.1682
14470TIP3    H164901   0.721   4.788  12.156 -1.8433 -0.2564 -1.2672
14470TIP3    H264902   0.727   4.647  12.102  1.5547 -0.7616  0.1753
14471TIP3   OH264903   1.248   1.490   2.849 -0.0734 -0.0947  0.1877
14471TIP3    H164904   1.296   1.482   2.931  0.1608 -1.1456 -0.0375
14471TIP3    H264905   1.305   1.541   2.792  0.2369 -0.2782  0.3318
14472TIP3   OH264906   3.323   6.713  13.311 -0.0899 -0.0434 -0.6653
14472TIP3    H164907   3.369   6.746  13.235  3.7497 -0.5901  1.1926
14472TIP3    H264908   3.371   6.749  13.386 -0.4647 -3.5108  1.4678
14473TIP3   OH264909   0.668   4.065  11.293  0.3616 -0.5597 -0.8407
14473TIP3    H164910   0.643   3.992  11.237  0.1949 -1.2666  0.1366
14473TIP3    H264911   0.762   4.075  11.278  0.3199 -0.7281 -1.2520
14474TIP3   OH264912   6.620   4.068   0.657  0.4950 -0.0974 -0.0562
14474TIP3    H164913   6.566   4.047   0.733 -0.9736  2.0272 -0.4276
14474TIP3    H264914   6.565   4.046   0.582  0.0779  2.0190 -0.4369
14475TIP3   OH264915   6.817   0.672   6.688  0.1827 -0.5002  0.1405
14475TIP3    H164916   6.881   0.609   6.720 -0.0398 -0.7459  0.0996
14475TIP3    H264917   6.737   0.651   6.735  0.2069 -0.0009  0.4164
14476TIP3   OH264918   3.059   3.040  15.506  0.6895  0.0983 -0.5347
14476TIP3    H164919   3.087   2.957  15.542  0.8055  0.2646 -0.2385
14476TIP3    H264920   3.014   3.017  15.424  0.9202 -0.2328 -0.5688
14477TIP3   OH264921   2.859   3.167  17.159 -0.2628 -0.1223 -0.2250
14477TIP3    H164922   2.790   3.216  17.116 -1.2275 -0.3710  1.0011
14477TIP3    H264923   2.848   3.077  17.128 -0.1835 -0.0667 -0.4126
14478TIP3   OH264924   6.460   6.823   2.699  0.0303 -0.4829 -0.6063
14478TIP3    H164925   6.432   6.732   2.684  0.0993 -0.3600 -1.5342
14478TIP3    H264926   6.528   6.816   2.767  0.0428 -1.1281 -0.6763
14479TIP3   OH264927   0.631   5.642   6.015  0.2044 -0.2064 -0.3079
14479TIP3    H164928   0.697   5.613   5.952  0.3437  2.3984 -1.4475
14479TIP3    H264929   0.548   5.609   5.980  0.4702 -0.1800 -0.9785
14480TIP3   OH264930   4.866   2.572  15.866  0.0842 -0.0117  0.3069
14480TIP3    H164931   4.881   2.584  15.772  0.6947  2.1584  0.6329
14480TIP3    H264932   4.942   2.612  15.908 -1.6178  1.8790  1.7707
14481TIP3   OH264933   0.035   6.758   5.720  0.4234 -0.6486  0.4597
14481TIP3    H164934  -0.013   6.791   5.796  0.6331  1.4272 -0.2601
14481TIP3    H264935   0.126   6.752   5.750  0.5471  0.3992  0.3289
14482TIP3   OH264936   5.148   3.896   6.508  0.0764  0.7053  0.8049
14482TIP3    H164937   5.211   3.957   6.544 -0.0584 -0.0501  2.4010
14482TIP3    H264938   5.147   3.915   6.414  1.9473  1.3676  0.8834
14483TIP3   OH264939   4.457   3.745  12.353  0.0105  0.0243 -0.6478
14483TIP3    H164940   4.463   3.810  12.423  2.8234 -0.2035 -0.5566
14483TIP3    H264941   4.391   3.779  12.293 -0.1045  1.8719  0.4595
14484TIP3   OH264942   1.207   6.499   4.869  0.3568 -0.1178  0.0649
14484TIP3    H164943   1.149   6.510   4.794  0.4479  0.1956  0.0403
14484TIP3    H264944   1.148   6.491   4.944  0.2869  0.7530  0.1153
14485TIP3   OH264945   2.929   4.146   0.141  0.5539 -0.1955 -0.3781
14485TIP3    H164946   2.834   4.143   0.153  0.2131 -1.6301 -2.6465
14485TIP3    H264947   2.950   4.239   0.136 -0.8849  0.1441 -0.6064
14486TIP3   OH264948   1.593   6.489   0.352  0.0129 -0.2205  0.3701
14486TIP3    H164949   1.499   6.507   0.361  0.0903  0.3124  0.1937
14486TIP3    H264950   1.630   6.573   0.322  0.9332  0.3201  2.8082
14487TIP3   OH264951   2.697   4.172   2.667 -0.4770  0.1734 -0.1852
14487TIP3    H164952   2.710   4.197   2.575 -0.9266  1.5128  0.0945
14487TIP3    H264953   2.682   4.255   2.712 -1.0721 -0.5387  0.9656
14488TIP3   OH264954   3.000   4.234  15.440 -0.2193 -0.6281 -0.0034
14488TIP3    H164955   2.978   4.255  15.531 -0.2144  1.8670 -0.5063
14488TIP3    H264956   2.915   4.223  15.397 -0.2875  0.1457 -0.0830
14489TIP3   OH264957   0.012   5.530  16.729 -0.3312  0.0904 -0.5750
14489TIP3    H164958  -0.030   5.544  16.644 -0.2583  0.5769 -0.5358
14489TIP3    H264959  -0.047   5.472  16.776 -1.5857  1.6803 -0.0794
14490TIP3   OH264960   0.830   4.032   0.418 -0.5051 -0.1776  0.1116
14490TIP3    H164961   0.818   3.991   0.332  2.2667 -1.0113  0.0461
14490TIP3    H264962   0.832   4.126   0.400 -0.2552 -0.3312 -0.7019
14491TIP3   OH264963   3.008   5.072   2.263  0.2341  0.3260 -0.2861
14491TIP3    H164964   2.997   5.008   2.192  0.3769 -2.0673  1.7295
14491TIP3    H264965   3.021   5.156   2.217  0.7062 -1.1391 -3.0786
14492TIP3   OH264966   1.794   2.829  16.868  0.0070 -0.8129 -0.1127
14492TIP3    H164967   1.848   2.882  16.809 -1.0732 -0.8714 -1.1926
14492TIP3    H264968   1.744   2.893  16.919  0.3268 -0.7781  0.1649
14493TIP3   OH264969   6.403   1.776  12.409 -0.1507 -0.5010 -0.1262
14493TIP3    H164970   6.355   1.834  12.468 -1.3143 -1.4909 -0.0673
14493TIP3    H264971   6.466   1.834  12.365  0.7647  0.2708  2.0513
14494TIP3   OH264972   6.161   4.260  12.576 -0.0940 -1.0525 -0.0594
14494TIP3    H164973   6.099   4.250  12.648  0.0316  0.9350  0.3796
14494TIP3    H264974   6.245   4.232  12.612 -0.0409 -0.1081  0.5748
14495TIP3   OH264975   5.860   5.313  17.030 -0.6753 -0.3369  0.1401
14495TIP3    H164976   5.765   5.305  17.022 -0.6468 -1.4320  0.6426
14495TIP3    H264977   5.882   5.260  17.107  0.5341 -1.6046 -1.0330
14496TIP3   OH264978   6.055   6.051   4.229 -0.7616 -0.1465  0.2146
14496TIP3    H164979   6.029   6.126   4.283  0.6005  1.0935 -0.7626
14496TIP3    H264980   5.993   6.051   4.156 -1.0721 -0.2878  0.4755
14497TIP3   OH264981   5.131   3.477  15.847  1.0130 -0.2977 -0.2177
14497TIP3    H164982   5.193   3.427  15.793  1.4321 -0.2203  0.1856
14497TIP3    H264983   5.187   3.531  15.904  0.6511 -2.2534  2.1301
14498TIP3   OH264984   1.552   4.010  16.119  0.5380 -0.7884 -0.1956
14498TIP3    H164985   1.558   4.030  16.212 -2.1286 -1.3886  0.1840
14498TIP3    H264986   1.546   4.096  16.077 -1.2095 -0.5170  0.5174
14499TIP3   OH264987   0.104   5.728  16.417 -0.7008 -0.1322 -0.6274
14499TIP3    H164988   0.189   5.753  16.381 -1.1285  1.1893 -0.7989
14499TIP3    H264989   0.061   5.812  16.437 -0.5540 -0.7328  2.8727
14500TIP3   OH264990   0.988   3.616  16.812  0.5127 -0.9822 -0.1862
14500TIP3    H164991   1.036   3.544  16.770  0.5412 -1.8451  1.2463
14500TIP3    H264992   0.926   3.572  16.870  0.4888  0.1566  0.6864
14501TIP3   OH264993   0.999   1.483   0.035 -0.0992  0.3581 -0.0486
14501TIP3    H164994   0.949   1.493   0.116  0.0754  0.9373 -0.0074
14501TIP3    H264995   0.973   1.398   0.001  1.5514 -0.9931  1.8221
14502TIP3   OH264996   2.248   4.125  14.219  0.2524 -0.2356 -0.4123
14502TIP3    H164997   2.241   4.167  14.305  1.4197 -1.5532  0.3744
14502TIP3    H264998   2.285   4.192  14.162 -1.1472  0.8717 -0.0885
14503TIP3   OH264999   6.292   5.158   0.825 -0.5975  0.0423  0.6416
14503TIP3    H165000   6.372   5.200   0.792 -1.2829  0.6079 -0.3305
14503TIP3    H265001   6.257   5.221   0.889 -0.4152 -0.0815  0.8640
14504TIP3   OH265002   0.929   5.702   3.555  0.3093 -0.4690 -0.0299
14504TIP3    H165003   0.988   5.697   3.630 -1.7116  1.0042  1.7747
14504TIP3    H265004   0.878   5.621   3.559  0.9747 -0.9317 -0.5615
14505TIP3   OH265005   2.696   5.068  12.469 -0.1328 -0.1930 -0.3190
14505TIP3    H165006   2.779   5.089  12.427 -0.9053  0.9474 -1.3616
14505TIP3    H265007   2.719   5.042  12.558  1.2077  1.8510 -0.0136
14506TIP3   OH265008   6.184   2.769  13.587 -0.8028 -0.0424 -0.0451
14506TIP3    H165009   6.216   2.680  13.574 -1.1315 -0.0967 -0.5331
14506TIP3    H265010   6.132   2.787  13.508  2.8387  2.2317 -2.2359
14507TIP3   OH265011   2.913   0.692  11.461 -0.0899  0.3091 -0.1695
14507TIP3    H165012   2.837   0.705  11.404 -0.9053  2.0131  1.2037
14507TIP3    H265013   2.968   0.769  11.446 -0.0500  0.5045  0.9091
14508TIP3   OH265014   0.522   3.901   5.203 -0.1600 -0.3424  0.2924
14508TIP3    H165015   0.449   3.924   5.145 -0.7044  1.9066  1.7364
14508TIP3    H265016   0.496   3.935   5.289  2.1552 -0.3621  1.0685
14509TIP3   OH265017   2.861   6.459   1.348  0.1991  0.3365 -0.2047
14509TIP3    H165018   2.913   6.386   1.382 -0.7002  0.3600  1.3027
14509TIP3    H265019   2.920   6.535   1.352 -0.0098  0.4413  1.8509
14510TIP3   OH265020   0.473   6.189   1.025  0.4128 -0.1635  1.0833
14510TIP3    H165021   0.437   6.193   0.937 -0.3175  1.3293  1.4108
14510TIP3    H265022   0.560   6.229   1.018  0.6118 -0.6168  0.9332
14511TIP3   OH265023   2.085   5.137  13.560  0.2096 -0.0243  0.3957
14511TIP3    H165024   2.047   5.221  13.535 -1.7383 -0.7478  0.7028
14511TIP3    H265025   2.143   5.158  13.634 -0.2981  1.0378  0.5152
14512TIP3   OH265026   5.582   0.536   4.630  0.3636  0.2672 -0.0747
14512TIP3    H165027   5.520   0.567   4.564  1.2127  1.8249 -0.2061
14512TIP3    H265028   5.606   0.616   4.679  2.1364 -0.3008  0.0603
14513TIP3   OH265029   5.832   1.227   3.915  0.0103 -0.3143 -0.1406
14513TIP3    H165030   5.772   1.171   3.964  1.4263 -2.2898 -0.5390
14513TIP3    H265031   5.801   1.223   3.824  0.7978 -1.5037 -0.3831
14514TIP3   OH265032   2.472   1.663   3.830 -0.0735 -0.8097 -0.2399
14514TIP3    H165033   2.417   1.741   3.837 -0.1166 -0.7266 -1.2477
14514TIP3    H265034   2.410   1.591   3.824 -0.0749 -0.7657 -0.8459
14515TIP3   OH265035   0.121   4.441  14.079  0.2531  0.1961 -0.4308
14515TIP3    H165036   0.165   4.519  14.046  1.8089  0.2544  1.5522
14515TIP3    H265037   0.031   4.469  14.095  1.2421  2.2972  2.1770
14516TIP3   OH265038   1.984   5.425   1.483 -0.4685  0.3647 -0.4876
14516TIP3    H165039   2.012   5.412   1.392 -0.6074  1.1244 -0.6498
14516TIP3    H265040   1.944   5.512   1.483 -0.1583  0.5176  0.3758
14517TIP3   OH265041   1.719   5.621  14.830  0.0960  0.2389 -0.0926
14517TIP3    H165042   1.757   5.651  14.913 -1.7447 -0.2081  0.9794
14517TIP3    H265043   1.633   5.662  14.827  0.2500  0.4890 -1.9632
14518TIP3   OH265044   3.300   6.173   3.848  0.1982  0.6418 -0.5687
14518TIP3    H165045   3.232   6.239   3.844 -0.4219  0.2451  1.9759
14518TIP3    H265046   3.379   6.220   3.876 -0.2657  0.3450  1.3348
14519TIP3   OH265047   0.864   1.328  16.156 -0.0669  0.0319  0.2796
14519TIP3    H165048   0.821   1.410  16.131 -0.0003 -0.2421 -0.7869
14519TIP3    H265049   0.797   1.280  16.205 -0.6743  0.0179 -0.5361
14520TIP3   OH265050   3.439   3.409  13.314  0.0057 -0.0473  0.6818
14520TIP3    H165051   3.487   3.468  13.255  0.0483  1.3419  2.0348
14520TIP3    H265052   3.489   3.412  13.395 -1.7549  0.5781  1.7831
14521TIP3   OH265053   1.786   1.797   2.343 -0.3280 -0.4410  0.4310
14521TIP3    H165054   1.815   1.825   2.430  3.0147 -0.6773 -0.4620
14521TIP3    H265055   1.704   1.845   2.328  0.3806  1.6564  2.6583
14522TIP3   OH265056   4.440   4.366   2.304 -0.6518  0.1195 -0.3034
14522TIP3    H165057   4.483   4.433   2.357  0.5429 -0.3302 -0.6540
14522TIP3    H265058   4.459   4.284   2.349  0.7956 -0.3223 -1.6295
14523TIP3   OH265059   0.459   1.826  14.468  0.4939  0.2900 -0.0334
14523TIP3    H165060   0.406   1.778  14.404  0.4889  0.3300 -0.0594
14523TIP3    H265061   0.404   1.899  14.496  0.4057  0.1373  0.1951
14524TIP3   OH265062   2.728   2.492  14.325  0.1360  0.3355  0.4131
14524TIP3    H165063   2.757   2.436  14.397  2.0992 -0.1227 -0.6668
14524TIP3    H265064   2.700   2.431  14.257 -1.0855  0.7517  0.5334
14525TIP3   OH265065   4.625   3.903   5.534  0.1827 -1.1040 -0.0069
14525TIP3    H165066   4.659   3.838   5.597 -2.3321 -3.0350 -0.4870
14525TIP3    H265067   4.570   3.961   5.587 -0.1097 -1.3295 -0.0616
14526TIP3   OH265068   3.106   0.746   2.417  0.2536 -0.0932 -0.0705
14526TIP3    H165069   3.182   0.776   2.367  0.9068  0.5243  1.2643
14526TIP3    H265070   3.141   0.722   2.503 -0.9888 -0.2957  0.4037
14527TIP3   OH265071   3.045   0.994   2.245  0.3144 -0.2447 -0.2383
14527TIP3    H165072   3.031   1.088   2.257  0.4201 -0.3760  1.0248
14527TIP3    H265073   2.971   0.953   2.290 -0.0054 -0.7666 -1.2143
14528TIP3   OH265074   1.504   1.169   5.351  0.3932  0.4232  0.0460
14528TIP3    H165075   1.458   1.231   5.295 -0.9242 -0.4261  0.1365
14528TIP3    H265076   1.535   1.222   5.425  1.5779  1.4237 -1.1053
14529TIP3   OH265077   5.914   6.116  12.521 -0.3325  0.2697  0.2542
14529TIP3    H165078   5.982   6.049  12.526 -0.9197 -0.3753 -0.2224
14529TIP3    H265079   5.896   6.125  12.428  1.0281  2.4454  0.1150
14530TIP3   OH265080   3.733   5.333  12.323  0.0067 -0.0141  0.2701
14530TIP3    H165081   3.740   5.371  12.235 -0.7976 -0.2716  0.0938
14530TIP3    H265082   3.698   5.404  12.377  1.7533  0.5903  0.7026
14531TIP3   OH265083   4.635   3.832  15.657 -0.0495 -0.5596 -0.4143
14531TIP3    H165084   4.606   3.748  15.693  2.3120 -1.1271  0.3085
14531TIP3    H265085   4.711   3.856  15.710  1.1352  0.5532 -2.4918
14532TIP3   OH265086   0.977   3.387   6.290  0.2651 -0.2011  0.6040
14532TIP3    H165087   0.983   3.348   6.378  4.2771 -0.5078  0.3925
14532TIP3    H265088   0.971   3.481   6.306  2.8473 -0.0773  1.3830
14533TIP3   OH265089   1.974   2.551   0.883  0.3138 -0.4122 -0.8349
14533TIP3    H165090   1.949   2.606   0.957 -0.7574 -0.6186 -1.0258
14533TIP3    H265091   2.012   2.612   0.819  0.4820 -0.1205 -0.4610
14534TIP3   OH265092   6.324   6.272   4.407 -0.2814 -0.5550  0.4515
14534TIP3    H165093   6.313   6.204   4.475  0.0191 -0.3574  0.7008
14534TIP3    H265094   6.352   6.349   4.456 -0.5932 -0.2557  0.1617
14535TIP3   OH265095   5.366   0.410  14.059  0.1093  0.0358  0.0100
14535TIP3    H165096   5.439   0.453  14.016  0.4503 -0.0342  0.5194
14535TIP3    H265097   5.311   0.481  14.092  0.5018  0.0899  0.5609
14536TIP3   OH265098   2.448   2.875   0.602 -0.0705 -0.5696  0.4235
14536TIP3    H165099   2.521   2.902   0.545  1.1214 -3.4720  0.4090
14536TIP3    H265100   2.432   2.952   0.657  2.1150  0.6401 -0.4770
14537TIP3   OH265101   5.757   4.982   6.415  0.0923 -0.4107 -0.0871
14537TIP3    H165102   5.735   4.920   6.345  1.0348  1.4304 -2.1372
14537TIP3    H265103   5.701   5.058   6.397  0.3248  0.0832  1.2145
14538TIP3   OH265104   1.039   6.239  12.153  0.1081  0.0490  0.1981
14538TIP3    H165105   1.053   6.285  12.236  1.7328 -0.3528  0.1880
14538TIP3    H265106   1.072   6.151  12.169 -2.4937 -1.0190  0.0539
14539TIP3   OH265107   0.893   4.823   2.108 -0.2705 -0.3989 -0.3637
14539TIP3    H165108   0.899   4.737   2.065  1.5371  0.0246 -1.0908
14539TIP3    H265109   0.961   4.875   2.065  1.2144  0.2676  2.5574
14540TIP3   OH265110   0.558   4.173   6.044 -0.2155  0.0937 -0.1586
14540TIP3    H165111   0.512   4.195   6.126 -0.1759 -0.7142  0.0907
14540TIP3    H265112   0.488   4.165   5.979 -0.4074 -0.7360  0.1322
14541TIP3   OH265113   4.386   1.270  11.725 -0.5916  0.2876 -0.1430
14541TIP3    H165114   4.405   1.275  11.819 -1.6856 -1.4597  0.2006
14541TIP3    H265115   4.389   1.177  11.704 -2.6184  0.4240 -1.3360
14542TIP3   OH265116   3.110   0.015  14.671 -0.3715 -0.1779  0.2774
14542TIP3    H165117   3.170  -0.059  14.676 -0.3427 -0.1117  1.0362
14542TIP3    H265118   3.029  -0.017  14.711 -0.5566  0.0057  0.0509
14543TIP3   OH265119   0.910   4.395  12.937  0.2495  0.0680  0.2743
14543TIP3    H165120   0.995   4.355  12.954 -0.7866 -3.1233 -1.3865
14543TIP3    H265121   0.898   4.387  12.843 -2.0372  0.1342  0.5151
14544TIP3   OH265122   2.078   4.080   3.739 -0.0991  0.2222 -0.3984
14544TIP3    H165123   2.085   3.985   3.744  0.3938  0.3033  0.9993
14544TIP3    H265124   1.996   4.100   3.782 -0.4217  0.4144 -1.0880
14545TIP3   OH265125   0.071   5.926   4.123  0.2873  0.0125 -0.7507
14545TIP3    H165126   0.018   5.874   4.183  0.8249  0.3705  0.0367
14545TIP3    H265127   0.159   5.923   4.158  0.9451 -1.0349 -2.3614
14546TIP3   OH265128   4.989   4.819   1.407  0.1033 -0.4346  0.6233
14546TIP3    H165129   4.895   4.801   1.404 -0.1250  0.7832 -0.8705
14546TIP3    H265130   5.016   4.797   1.496 -1.3516 -1.9537  0.7256
14547TIP3   OH265131   0.755   6.280  12.247  0.4951 -0.1369  0.1270
14547TIP3    H165132   0.737   6.373  12.233  1.5949 -0.0864 -1.1462
14547TIP3    H265133   0.847   6.270  12.223  1.4596 -0.9121  3.5933
14548TIP3   OH265134   6.304   0.561  14.706 -0.5692  0.1985  0.2457
14548TIP3    H165135   6.269   0.537  14.621 -2.5926 -1.2034  1.3907
14548TIP3    H265136   6.319   0.655  14.700 -0.6105  0.1276 -1.6448
14549TIP3   OH265137   4.877   5.204  14.385 -0.2534  0.0408  0.4011
14549TIP3    H165138   4.855   5.268  14.453 -0.1092  1.8787 -1.2158
14549TIP3    H265139   4.831   5.124  14.412 -1.6171  1.2138  1.7439
14550TIP3   OH265140   3.522   6.284  11.026  0.5850  0.6097 -0.7308
14550TIP3    H165141   3.535   6.332  11.108  2.8038  0.9675 -1.2173
14550TIP3    H265142   3.459   6.337  10.977  0.8463  1.5197 -0.1074
14551TIP3   OH265143   5.204   1.917  11.656  0.0457 -0.3393  0.2443
14551TIP3    H165144   5.268   1.974  11.613 -1.1215  0.0699 -1.0306
14551TIP3    H265145   5.170   1.862  11.585 -0.7537 -0.7894  0.9629
14552TIP3   OH265146   5.769   6.638  15.666  0.4641  0.6844  0.1094
14552TIP3    H165147   5.852   6.638  15.618  1.1532  1.5872  1.2734
14552TIP3    H265148   5.732   6.725  15.649  0.2654  0.6702  0.4701
14553TIP3   OH265149   6.383   5.957   3.808  0.3587  0.0778 -0.2721
14553TIP3    H165150   6.435   5.949   3.887 -0.2004  1.7037  0.2913
14553TIP3    H265151   6.356   6.048   3.806 -1.5074 -0.4459 -1.1379
14554TIP3   OH265152   1.160   1.654  12.751 -0.1529 -0.0769 -0.6875
14554TIP3    H165153   1.155   1.570  12.706  0.3158  0.6417 -2.1209
14554TIP3    H265154   1.069   1.684  12.757 -0.2969 -0.5600 -0.3819
14555TIP3   OH265155   2.174   2.347   4.359 -0.6752 -0.3464  0.1092
14555TIP3    H165156   2.264   2.328   4.385 -1.4727 -0.9146  2.6799
14555TIP3    H265157   2.150   2.425   4.409 -1.5930 -0.1439 -0.6204
14556TIP3   OH265158   3.250   4.385   5.241 -0.1189  0.0259  0.4644
14556TIP3    H165159   3.218   4.304   5.203  1.3459 -0.6554  0.6101
14556TIP3    H265160   3.179   4.416   5.297 -0.1832 -1.9283  1.5368
14557TIP3   OH265161   0.948   1.785   1.808  0.7294 -0.3013  0.0069
14557TIP3    H165162   0.935   1.690   1.813 -0.5257 -0.1845 -0.5216
14557TIP3    H265163   0.877   1.821   1.861  1.4958  0.3496  0.6174
14558TIP3   OH265164   2.663   6.144  14.522 -0.6020  0.0533 -0.2540
14558TIP3    H165165   2.628   6.100  14.445 -0.8037 -0.1484 -0.0469
14558TIP3    H265166   2.750   6.105  14.534  0.0715  1.1762 -1.2868
14559TIP3   OH265167   5.406   0.283   3.928 -0.1726  0.5142 -0.5863
14559TIP3    H165168   5.338   0.222   3.957 -1.1719  2.3133  1.0991
14559TIP3    H265169   5.488   0.237   3.944 -0.8934 -0.5092  0.3236
14560TIP3   OH265170   5.123   3.950   3.452 -1.0422 -0.1109  0.1525
14560TIP3    H165171   5.183   3.885   3.416  0.2028  2.3472 -2.5852
14560TIP3    H265172   5.145   3.955   3.544  0.8133 -1.4680 -0.1670
14561TIP3   OH265173   1.181   1.681  14.112 -0.3525  0.5558 -0.7219
14561TIP3    H165174   1.235   1.677  14.190 -0.8575  1.9468 -0.2796
14561TIP3    H265175   1.188   1.593  14.073  1.6019  0.4871 -0.2968
14562TIP3   OH265176   6.531   4.650  13.161  0.2696 -0.5209 -0.5854
14562TIP3    H165177   6.543   4.729  13.107 -1.2088 -0.2963 -0.6299
14562TIP3    H265178   6.558   4.578  13.104  0.0067 -0.1726 -1.1602
14563TIP3   OH265179   3.998   4.669  12.441  0.2487 -0.3542  0.0186
14563TIP3    H165180   3.952   4.683  12.523  0.2252 -0.4356  0.0196
14563TIP3    H265181   4.060   4.598  12.459  0.4939 -0.1304  0.0632
14564TIP3   OH265182   4.246   5.346   2.404 -0.8645 -0.2267 -0.2303
14564TIP3    H165183   4.275   5.431   2.437  0.8704 -0.5798 -0.7640
14564TIP3    H265184   4.205   5.304   2.479 -0.6478  0.6027  0.3639
14565TIP3   OH265185   0.585   0.233  13.042 -0.2700  0.1504 -0.3097
14565TIP3    H165186   0.671   0.260  13.074 -0.1156  0.3637 -0.8874
14565TIP3    H265187   0.544   0.314  13.011 -0.2846 -0.0937 -0.9446
14566TIP3   OH265188   2.842   6.545  16.006 -0.3921 -0.1169 -0.1724
14566TIP3    H165189   2.922   6.502  16.035 -0.1147 -0.3723 -1.2636
14566TIP3    H265190   2.871   6.630  15.974 -0.9413  0.9651  1.9992
14567TIP3   OH265191   4.585   1.877  16.652 -0.4459 -0.1036 -0.5005
14567TIP3    H165192   4.530   1.939  16.605 -1.6396  0.3743  1.4350
14567TIP3    H265193   4.525   1.809  16.683 -0.2043  0.7908  2.2605
14568TIP3   OH265194   0.665   3.053  11.871  0.1502 -0.8952 -0.1801
14568TIP3    H165195   0.577   3.086  11.852  0.3732  0.8198  1.4947
14568TIP3    H265196   0.651   2.980  11.931 -0.1103  0.3697  1.3473
14569TIP3   OH265197   0.766   0.004  16.858  0.0612 -0.8089 -0.2196
14569TIP3    H165198   0.826   0.036  16.925 -0.0017  0.0128 -0.5430
14569TIP3    H265199   0.823  -0.020  16.784 -0.0049  0.1007 -0.5773
14570TIP3   OH265200   6.618   5.564   0.415 -0.2862 -0.1299  0.1794
14570TIP3    H165201   6.600   5.577   0.508  1.0669 -0.9343  0.5688
14570TIP3    H265202   6.652   5.475   0.408 -3.0516 -1.2013 -1.5023
14571TIP3   OH265203   6.075   4.149   0.193 -0.3687  0.1987  0.1920
14571TIP3    H165204   6.010   4.173   0.127  0.3023 -0.3787 -0.7045
14571TIP3    H265205   6.080   4.054   0.189  0.5369  0.2325  0.2267
14572TIP3   OH265206   3.645   5.729  17.102  0.3802 -0.2865 -0.3449
14572TIP3    H165207   3.693   5.780  17.168 -1.2483 -0.9413  1.4293
14572TIP3    H265208   3.668   5.638  17.122  0.5339 -0.4483 -1.2461
14573TIP3   OH265209   6.337   1.449   4.974  0.4121 -0.0927 -0.3763
14573TIP3    H165210   6.284   1.455   5.053  0.2521 -0.3036 -0.4649
14573TIP3    H265211   6.380   1.364   4.981  0.3020 -0.1657 -0.5722
14574TIP3   OH265212   2.940   3.513   0.235  0.4056 -0.3006  0.3067
14574TIP3    H165213   3.009   3.447   0.251  1.6121  0.5640 -1.1140
14574TIP3    H265214   2.859   3.467   0.256  1.1059 -2.6070 -1.5794
14575TIP3   OH265215   5.121   2.923  15.656 -0.0843 -0.0415  0.1825
14575TIP3    H165216   5.109   2.889  15.568 -0.9140  3.0616 -1.0161
14575TIP3    H265217   5.212   2.955  15.657 -0.0126 -0.2428  0.5530
14576TIP3   OH265218   1.001   0.875  13.012  0.1324  0.0645  0.4244
14576TIP3    H165219   0.968   0.964  12.997  1.1267  0.1561 -1.6767
14576TIP3    H265220   1.092   0.878  12.983  0.5413 -1.3786  1.4319
14577TIP3   OH265221   2.879   3.231   2.676  0.1541  0.6504  0.1125
14577TIP3    H165222   2.917   3.159   2.625  0.2418  0.1092  0.9175
14577TIP3    H265223   2.787   3.207   2.687 -0.1102  1.2691 -0.6398
14578TIP3   OH265224   4.267   3.519  14.920 -0.3798  0.5767 -0.4031
14578TIP3    H165225   4.337   3.583  14.931 -0.7720  0.9131  0.2056
14578TIP3    H265226   4.191   3.559  14.962 -0.4246 -0.6286  0.7497
14579TIP3   OH265227   4.520   2.876   3.241  0.1140 -0.2805  1.0715
14579TIP3    H165228   4.429   2.905   3.242  0.1033 -0.2823  2.4559
14579TIP3    H265229   4.570   2.954   3.267  0.6726  0.1073 -0.9688
14580TIP3   OH265230   5.722   5.466   1.021 -0.0865  0.4922 -0.0299
14580TIP3    H165231   5.661   5.416   1.076  0.7616 -2.0652 -1.2730
14580TIP3    H265232   5.801   5.413   1.018  1.2662  2.4402 -0.6439
14581TIP3   OH265233   5.849   1.266   0.145 -0.4318  0.3363 -0.3832
14581TIP3    H165234   5.861   1.222   0.229 -1.9440 -1.3043 -0.9535
14581TIP3    H265235   5.804   1.348   0.165 -1.6050 -0.4661  0.3517
14582TIP3   OH265236   2.306   3.299  13.503  0.4098  0.2665  0.1031
14582TIP3    H165237   2.335   3.210  13.523 -0.9044  0.0759  1.3240
14582TIP3    H265238   2.361   3.355  13.559  0.8981  0.2032 -0.3018
14583TIP3   OH265239   2.812   4.977   6.061 -0.1417 -0.6100  0.6615
14583TIP3    H165240   2.735   5.008   6.013  0.1200  0.4473  0.8799
14583TIP3    H265241   2.798   5.008   6.151 -0.0334 -1.4683  0.9797
14584TIP3   OH265242   2.341   4.831  11.931 -0.4874 -0.1797  0.3563
14584TIP3    H165243   2.347   4.757  11.992 -0.9986 -0.3600  0.1886
14584TIP3    H265244   2.289   4.798  11.858  0.9123 -0.2774 -0.6380
14585TIP3   OH265245   0.358   6.403   1.157  0.1193 -0.5164  0.0594
14585TIP3    H165246   0.405   6.339   1.105  1.3487  1.0134 -0.7877
14585TIP3    H265247   0.358   6.367   1.246  0.7708 -1.6701 -0.3949
14586TIP3   OH265248   5.285   3.508  14.564 -0.2180 -0.4351 -0.8719
14586TIP3    H165249   5.350   3.458  14.516  1.6250  1.4188 -0.4770
14586TIP3    H265250   5.301   3.487  14.656  0.4652  0.6735 -0.7120
14587TIP3   OH265251   3.538   2.206   1.183  0.3920  0.1174 -0.2482
14587TIP3    H165252   3.451   2.216   1.146  0.3638 -3.2363 -1.4210
14587TIP3    H265253   3.562   2.294   1.212 -2.5696  1.5135 -1.6038
14588TIP3   OH265254   6.614   4.917  11.121 -0.1037  0.3322 -0.8333
14588TIP3    H165255   6.540   4.973  11.101 -2.0761 -0.9863  2.0898
14588TIP3    H265256   6.618   4.854  11.049 -1.8310  0.4289 -1.0348
14589TIP3   OH265257   6.081   0.588   4.281 -0.1466 -0.2319 -0.1695
14589TIP3    H165258   6.154   0.528   4.266  1.2494  1.4195 -0.2761
14589TIP3    H265259   6.113   0.673   4.250 -1.6551  0.8058  0.9663
14590TIP3   OH265260   6.782   3.197  10.541  0.4693  0.0530  0.1591
14590TIP3    H165261   6.738   3.196  10.457 -1.1922 -2.0489  0.9579
14590TIP3    H265262   6.713   3.185  10.605  1.9141 -0.9166  1.6402
14591TIP3   OH265263   4.706   4.463   5.103 -0.0827  0.2878 -0.5794
14591TIP3    H165264   4.683   4.463   5.010 -1.5133 -0.5165 -0.2512
14591TIP3    H265265   4.714   4.370   5.125 -1.3139  0.4038  0.4445
14592TIP3   OH265266   3.777   1.725  13.220 -0.1694 -0.0836  0.2922
14592TIP3    H165267   3.852   1.780  13.241  0.0831 -0.6609  0.9843
14592TIP3    H265268   3.773   1.722  13.125  1.3407 -0.9027  0.2315
14593TIP3   OH265269   5.106   4.287   2.272 -0.3840 -0.1178 -0.0189
14593TIP3    H165270   5.024   4.323   2.307 -0.7684  0.5782 -1.5575
14593TIP3    H265271   5.172   4.313   2.336 -1.3076 -0.4905  1.1374
14594TIP3   OH265272   6.831   2.696  16.293  0.1058  0.2959  0.3817
14594TIP3    H165273   6.827   2.604  16.268 -0.1356  0.7520 -1.3750
14594TIP3    H265274   6.775   2.702  16.370 -0.4031 -0.9108  0.1291
14595TIP3   OH265275   0.372   0.717   5.098  0.6719 -0.0983  0.2636
14595TIP3    H165276   0.346   0.792   5.045 -0.0979 -1.9418 -2.1988
14595TIP3    H265277   0.364   0.746   5.188 -0.1524  2.5582 -0.5877
14596TIP3   OH265278   3.730   6.605  12.772 -0.1265  0.1585 -0.2201
14596TIP3    H165279   3.784   6.527  12.758 -0.2468 -0.1941  1.0780
14596TIP3    H265280   3.787   6.666  12.820 -0.3560  0.4490 -0.3128
14597TIP3   OH265281   4.324   6.435  11.890 -0.3282 -0.2221  1.0881
14597TIP3    H165282   4.293   6.371  11.953 -0.6402 -0.2020  0.9553
14597TIP3    H265283   4.245   6.472  11.851 -0.1424 -0.1656  0.7537
14598TIP3   OH265284   3.977   2.843   5.645  0.3397 -0.2444  0.1773
14598TIP3    H165285   3.962   2.839   5.551  1.5708 -0.0586 -0.0429
14598TIP3    H265286   4.026   2.764   5.666  0.7925  0.1177  0.5162
14599TIP3   OH265287   2.948   6.392  15.443  0.0183  0.2506 -0.6372
14599TIP3    H165288   2.863   6.401  15.401  0.7326 -0.5124 -2.3010
14599TIP3    H265289   2.965   6.298  15.444 -0.4572  0.0825  2.4757
14600TIP3   OH265290   4.647   1.938   3.119  0.1731  0.3304  0.1576
14600TIP3    H165291   4.643   2.015   3.176  2.6465  0.3730  0.4068
14600TIP3    H265292   4.558   1.903   3.119 -0.1819  0.9446  3.1980
14601TIP3   OH265293   1.490   4.951  13.580  0.5588 -0.2534  0.2109
14601TIP3    H165294   1.501   4.939  13.675 -0.4830  0.3039  0.4173
14601TIP3    H265295   1.425   5.020  13.572 -0.0219 -0.9049 -0.9094
14602TIP3   OH265296   3.798   1.278   0.173 -0.0942  0.3972  0.1596
14602TIP3    H165297   3.727   1.266   0.237  0.6843 -1.2120  0.7771
14602TIP3    H265298   3.817   1.372   0.175  0.0489  0.3681  2.4573
14603TIP3   OH265299   0.565   1.216   5.549 -0.1880  0.0162  0.0004
14603TIP3    H165300   0.545   1.127   5.580 -2.2153 -0.1587 -1.5652
14603TIP3    H265301   0.605   1.203   5.463 -0.2481  0.6180 -0.1246
14604TIP3   OH265302   1.674   3.511   5.259 -0.2206 -0.2580  0.0319
14604TIP3    H165303   1.753   3.512   5.313  1.5353 -1.9186 -2.2773
14604TIP3    H265304   1.682   3.431   5.207 -2.4803  0.5096 -1.6606
14605TIP3   OH265305   3.188   0.824   0.774 -0.4720 -0.5429  0.5526
14605TIP3    H165306   3.238   0.758   0.726  0.4951  0.8987 -0.5301
14605TIP3    H265307   3.150   0.777   0.847  0.9127 -2.1134  0.3275
14606TIP3   OH265308   1.717   3.672  11.200  0.1961 -0.0225 -0.1332
14606TIP3    H165309   1.746   3.743  11.143 -3.0580  0.3259 -1.6195
14606TIP3    H265310   1.701   3.713  11.285  1.2614  0.3237 -0.0858
14607TIP3   OH265311   5.453   1.010  16.981  0.3477 -0.1844 -0.4315
14607TIP3    H165312   5.523   1.007  16.916  1.2021  0.5062  0.4129
14607TIP3    H265313   5.467   1.093  17.027 -0.9617 -0.0966 -0.1661
14608TIP3   OH265314   5.416   1.542   1.476 -0.9281  0.1479  0.2777
14608TIP3    H165315   5.389   1.633   1.467 -2.7876 -0.1217  2.3706
14608TIP3    H265316   5.484   1.543   1.543  1.7447  0.3177 -2.2029
14609TIP3   OH265317   2.884   5.532  13.459  0.0576 -0.4864 -0.4303
14609TIP3    H165318   2.871   5.589  13.384  0.3468  0.4838  0.2441
14609TIP3    H265319   2.978   5.515  13.461  0.1049 -0.2055 -0.0796
14610TIP3   OH265320   3.341   1.969  14.118  0.2631  0.4683 -0.6375
14610TIP3    H165321   3.414   1.995  14.061 -0.0854  0.8579 -0.9082
14610TIP3    H265322   3.324   1.878  14.094  2.9628 -0.8976  1.8592
14611TIP3   OH265323   0.218   5.101  15.746 -0.5040  0.1930  0.3051
14611TIP3    H165324   0.165   5.134  15.673  0.2228  1.0227  0.1339
14611TIP3    H265325   0.211   5.006  15.739  1.5712  0.1086 -2.4364
14612TIP3   OH265326   5.339   5.131  13.879 -0.0351  0.4822  0.3279
14612TIP3    H165327   5.396   5.081  13.821 -0.8899 -0.9158  0.6371
14612TIP3    H265328   5.392   5.148  13.956  0.4709  0.6085 -0.0439
14613TIP3   OH265329   4.797   1.725  13.459  0.1298 -0.2961  0.1007
14613TIP3    H165330   4.851   1.666  13.406  2.5104  0.1838  1.8647
14613TIP3    H265331   4.859   1.776  13.510 -1.9960  0.7121  1.8481
14614TIP3   OH265332   0.734   4.618  15.417  0.6932  0.2524 -0.1999
14614TIP3    H165333   0.733   4.555  15.489  0.7031  0.6137  0.1152
14614TIP3    H265334   0.824   4.651  15.415  0.5161  0.7571  0.0716
14615TIP3   OH265335   3.272   2.993   4.010 -0.2012 -0.2462  0.3180
14615TIP3    H165336   3.276   3.042   3.928  0.5796 -2.0791 -0.7951
14615TIP3    H265337   3.362   2.964   4.026 -0.6547 -1.4343  0.8444
14616TIP3   OH265338   2.101   3.325  13.674 -0.8929 -0.3981 -0.2508
14616TIP3    H165339   2.084   3.419  13.679  0.7232 -0.1633  1.8172
14616TIP3    H265340   2.172   3.317  13.610  0.5731  0.0780  1.2624
14617TIP3   OH265341   6.795   3.996  14.565  0.9699 -0.1836 -0.0281
14617TIP3    H165342   6.765   4.055  14.634  0.4832  0.3606 -0.6869
14617TIP3    H265343   6.862   4.046  14.518  0.7247 -0.2344 -0.4426
14618TIP3   OH265344   1.843   0.950  11.719 -0.0296 -0.6561  0.5777
14618TIP3    H165345   1.916   0.905  11.676  1.2229  0.6824  1.2348
14618TIP3    H265346   1.765   0.905  11.686  1.1186 -3.5438  1.4531
14619TIP3   OH265347   3.551   5.890   0.306 -0.5173 -0.4481  0.3929
14619TIP3    H165348   3.489   5.880   0.234  0.7380  1.3630 -1.0548
14619TIP3    H265349   3.536   5.979   0.338  0.4627 -0.4448  0.8762
14620TIP3   OH265350   3.144   0.876   4.321  0.0085  0.1322 -0.1872
14620TIP3    H165351   3.157   0.797   4.269 -0.3222  0.0605 -0.1630
14620TIP3    H265352   3.201   0.864   4.398  0.3849  0.1738 -0.4550
14621TIP3   OH265353   2.981   1.439  15.463 -0.7869  0.1371  0.1932
14621TIP3    H165354   3.019   1.471  15.382 -0.4757  0.7057  0.5605
14621TIP3    H265355   3.016   1.350  15.471  1.0863  0.8743  0.8792
14622TIP3   OH265356   4.272   2.300   5.074 -0.0166 -0.1557  0.4535
14622TIP3    H165357   4.279   2.218   5.122 -1.6138  0.6607  2.1862
14622TIP3    H265358   4.362   2.319   5.046  0.4386 -2.2676  0.3117
14623TIP3   OH265359   3.471   1.048  13.528  0.1493 -0.6377  0.0188
14623TIP3    H165360   3.404   1.069  13.463 -2.1705 -0.5732  2.2481
14623TIP3    H265361   3.478   1.127  13.582  1.4917 -0.9270  0.3102
14624TIP3   OH265362   2.142   1.515   5.894 -0.9205 -0.1448  0.2075
14624TIP3    H165363   2.107   1.587   5.842 -2.4135 -0.4770  0.7255
14624TIP3    H265364   2.110   1.436   5.851 -0.4992 -0.4724  0.4840
14625TIP3   OH265365   0.057   3.883   2.221 -0.3904  0.3164  0.1956
14625TIP3    H165366   0.038   3.878   2.127 -2.3610 -2.1243  0.6420
14625TIP3    H265367   0.150   3.859   2.228 -0.2949  0.2265 -1.0802
14626TIP3   OH265368   4.799   2.322   2.620 -0.3058  0.5790 -0.1801
14626TIP3    H165369   4.871   2.276   2.664  0.0033 -0.2079 -1.4610
14626TIP3    H265370   4.725   2.262   2.626  0.3904 -0.7195 -2.8414
14627TIP3   OH265371   4.878   0.296  12.870 -0.0859  0.1871  0.8795
14627TIP3    H165372   4.838   0.372  12.912  0.0601  0.7417  0.0426
14627TIP3    H265373   4.950   0.272  12.928  0.0666  0.8867  0.9896
14628TIP3   OH265374   1.647   6.598  12.787 -0.6900  0.2943 -0.7008
14628TIP3    H165375   1.624   6.506  12.792  0.5689 -0.1461 -2.1316
14628TIP3    H265376   1.624   6.634  12.872  1.0298 -1.8837  0.7730
14629TIP3   OH265377   5.340   6.732   4.184 -0.5830 -0.0492 -0.0886
14629TIP3    H165378   5.404   6.721   4.254 -0.0693  1.1531 -0.3502
14629TIP3    H265379   5.365   6.667   4.118 -1.4499 -1.6342  1.0777
14630TIP3   OH265380   3.277   0.280  15.983  0.2272 -0.1145  0.0236
14630TIP3    H165381   3.215   0.212  16.006  0.2949 -0.6761 -1.3468
14630TIP3    H265382   3.353   0.263  16.039  0.8607 -2.1614 -1.3707
14631TIP3   OH265383   3.866   5.384   5.244 -0.5275 -0.8541 -0.2444
14631TIP3    H165384   3.773   5.361   5.245 -0.4240 -1.2912  1.0683
14631TIP3    H265385   3.884   5.405   5.153 -2.3291  0.9265 -0.2812
14632TIP3   OH265386   1.391   0.026   0.368  0.7850  0.9203 -0.5591
14632TIP3    H165387   1.399   0.035   0.273  1.0858 -0.3993 -0.6676
14632TIP3    H265388   1.298   0.008   0.383  0.6621  1.5296 -0.5576
14633TIP3   OH265389   5.519   4.182  14.355  0.2776 -0.0068 -0.3427
14633TIP3    H165390   5.506   4.124  14.280 -2.0836  1.1438 -0.9164
14633TIP3    H265391   5.438   4.231  14.362  0.5614  0.2339  2.7542
14634TIP3   OH265392   0.676   5.356   1.358  0.2087 -0.0437  0.0567
14634TIP3    H165393   0.691   5.366   1.452  0.9406 -0.5073 -0.0055
14634TIP3    H265394   0.586   5.386   1.345 -0.0120 -0.2863  0.9555
14635TIP3   OH265395   5.560   5.794  16.841  0.1765 -0.0769 -0.5818
14635TIP3    H165396   5.566   5.778  16.935  0.8286 -1.2061 -0.7900
14635TIP3    H265397   5.536   5.709  16.804 -1.9820  0.7687 -1.2931
14636TIP3   OH265398   1.001   1.080  13.259 -0.3307 -0.1670 -0.2569
14636TIP3    H165399   0.940   1.143  13.222  1.0937  0.3972 -1.7727
14636TIP3    H265400   1.043   1.126  13.332 -0.5864  0.0088 -0.2234
14637TIP3   OH265401   2.556   6.747   3.672  0.2676 -0.5687  0.1226
14637TIP3    H165402   2.556   6.684   3.744 -2.1390 -0.4676  0.2922
14637TIP3    H265403   2.463   6.762   3.653  0.7631  2.0102 -0.7226
14638TIP3   OH265404   1.090   2.247  13.023  0.0501  0.3238  0.3734
14638TIP3    H165405   1.178   2.283  13.028 -0.2900  1.6527 -1.6842
14638TIP3    H265406   1.082   2.218  12.932 -0.8225 -2.1056  1.1435
14639TIP3   OH265407   3.995   1.919  16.218 -0.1740  0.0079 -0.6435
14639TIP3    H165408   4.034   1.927  16.305 -0.7058  0.1185 -0.4114
14639TIP3    H265409   3.964   1.828  16.213 -0.1531  0.0042 -0.7169
14640TIP3   OH265410   4.152   1.474  15.219 -0.0201  0.0380 -0.3140
14640TIP3    H165411   4.203   1.461  15.299 -0.8810 -0.9314  0.1021
14640TIP3    H265412   4.201   1.427  15.151 -0.9997 -2.1072  0.3624
14641TIP3   OH265413   2.005   2.775   0.719  0.4918  0.1392  0.0551
14641TIP3    H165414   1.917   2.801   0.691  0.7452 -0.6587 -1.6413
14641TIP3    H265415   2.049   2.857   0.740  0.0938  0.7753 -1.4559
14642TIP3   OH265416   1.022   5.961   2.887  0.4353 -0.3194 -0.2356
14642TIP3    H165417   1.002   6.027   2.954 -1.6929  0.9421 -1.9984
14642TIP3    H265418   0.946   5.903   2.887  1.3036 -1.5016 -0.2408
14643TIP3   OH265419   1.255   4.203   5.015  0.0975 -0.2506  0.6445
14643TIP3    H165420   1.296   4.283   5.048  0.2238 -0.2347  0.4497
14643TIP3    H265421   1.252   4.144   5.090 -1.1863  0.4047  1.1385
14644TIP3   OH265422   3.531   0.303   2.135  0.5337 -0.0553 -0.1913
14644TIP3    H165423   3.553   0.253   2.213  0.1633  0.3683  0.1928
14644TIP3    H265424   3.489   0.382   2.169  2.0058  1.0091 -0.7183
14645TIP3   OH265425   0.253   4.413  16.191 -0.0080  0.3942 -0.4563
14645TIP3    H165426   0.286   4.325  16.172  1.6830  1.0501 -0.7253
14645TIP3    H265427   0.327   4.471  16.171 -0.9343  1.8367  0.1699
14646TIP3   OH265428   2.908   2.423   1.038 -0.5254  0.2326  0.1566
14646TIP3    H165429   2.923   2.410   1.132  0.4146 -0.6960 -0.1113
14646TIP3    H265430   2.978   2.484   1.011 -0.8906  0.6247  0.0846
14647TIP3   OH265431   6.535   2.462   5.030 -0.2045  0.1137  0.8428
14647TIP3    H165432   6.603   2.427   5.086  0.5878 -0.9316 -0.7082
14647TIP3    H265433   6.542   2.412   4.949 -0.3495  2.5180 -0.7509
14648TIP3   OH265434   6.028   0.989   2.160 -0.1364 -0.1001 -0.0418
14648TIP3    H165435   6.095   1.056   2.147 -1.0171  0.5671 -1.3906
14648TIP3    H265436   5.963   1.031   2.216 -0.3481 -0.0474 -0.3199
14649TIP3   OH265437   2.691   3.467   2.557  0.2244  0.0915 -0.5514
14649TIP3    H165438   2.737   3.406   2.616 -0.0571  0.9835  0.6410
14649TIP3    H265439   2.758   3.530   2.531  0.1938  0.0907 -0.6315
14650TIP3   OH265440   5.210   0.985   4.787 -0.3263 -0.0390  0.3264
14650TIP3    H165441   5.219   1.031   4.870 -1.7451 -1.3712  1.2777
14650TIP3    H265442   5.154   1.041   4.733  1.7419  1.5108 -0.3289
14651TIP3   OH265443   1.421   2.950   0.306  0.8949  0.3265  0.1449
14651TIP3    H165444   1.460   2.994   0.230 -0.4720  0.7308 -0.3481
14651TIP3    H265445   1.395   3.021   0.365  2.1805  0.0097  1.1528
14652TIP3   OH265446   4.986   3.428   1.026  0.4330 -0.1990  0.0202
14652TIP3    H165447   4.893   3.445   1.040  0.4165 -0.2306 -0.0533
14652TIP3    H265448   5.021   3.511   0.993  0.9686  0.7152  2.6129
14653TIP3   OH265449   4.201   3.274   2.675 -0.1864  0.0312 -0.8557
14653TIP3    H165450   4.215   3.184   2.705  0.4929  0.8094  1.3366
14653TIP3    H265451   4.277   3.292   2.619 -0.2855 -0.7163 -1.2489
14654TIP3   OH265452   3.044   2.916   6.414 -0.1923 -0.1370 -0.8165
14654TIP3    H165453   3.070   3.005   6.390  1.0413 -0.0308  0.7906
14654TIP3    H265454   2.974   2.894   6.351  1.9767  0.5490 -3.6793
14655TIP3   OH265455   0.105   3.704   1.328  0.2219  0.1364  0.6471
14655TIP3    H165456   0.027   3.699   1.384 -0.7302  0.0195 -0.6436
14655TIP3    H265457   0.176   3.672   1.383 -0.6313  0.2598  1.8637
14656TIP3   OH265458   5.233   6.550   2.676  0.5929 -0.0864  0.4486
14656TIP3    H165459   5.297   6.480   2.677 -0.6602 -1.2846 -0.2247
14656TIP3    H265460   5.265   6.611   2.610 -0.2455 -1.9863 -1.8308
14657TIP3   OH265461   3.312   1.474   6.044 -0.0407  0.3380  0.1703
14657TIP3    H165462   3.406   1.473   6.062 -0.3617  1.1209  2.1543
14657TIP3    H265463   3.295   1.560   6.006  0.0935  0.0091 -0.6640
14658TIP3   OH265464   0.421   1.767   1.292  0.7573 -0.6518  0.5077
14658TIP3    H165465   0.451   1.857   1.307  0.8811 -0.1809 -2.1014
14658TIP3    H265466   0.494   1.726   1.246  1.1616 -2.5027  2.6546
14659TIP3   OH265467   6.350   6.825   1.015  0.0462 -0.0629 -0.3247
14659TIP3    H165468   6.256   6.833   0.997 -0.2566 -1.3268  0.5597
14659TIP3    H265469   6.384   6.914   1.005 -0.9705  0.1947 -2.0729
14660TIP3   OH265470   3.222   2.098  13.666 -0.0164 -0.0333  0.1534
14660TIP3    H165471   3.177   2.170  13.622  1.0765 -0.2589 -1.4029
14660TIP3    H265472   3.193   2.020  13.620  1.4258 -0.2413 -0.4450
14661TIP3   OH265473   6.501   5.692   5.666 -0.1561  0.5509  0.7133
14661TIP3    H165474   6.492   5.699   5.761  1.8837  2.2725  0.8492
14661TIP3    H265475   6.570   5.627   5.653 -0.1135  0.6465  0.4383
14662TIP3   OH265476   2.633   2.055   4.058 -0.0679  0.3280  0.3022
14662TIP3    H165477   2.616   2.143   4.026 -1.6503 -0.3276 -0.7956
14662TIP3    H265478   2.558   2.035   4.114  0.7337 -0.0040  1.2917
14663TIP3   OH265479   2.721   5.495   4.524  0.6380 -0.4426 -0.3417
14663TIP3    H165480   2.682   5.523   4.608  1.8722 -0.1630  0.1494
14663TIP3    H265481   2.659   5.527   4.458 -0.7869 -1.3696  0.4779
14664TIP3   OH265482   5.955   0.067  11.130  0.4921 -0.6462 -0.5346
14664TIP3    H165483   5.866   0.100  11.118  0.9812  0.4586 -1.2840
14664TIP3    H265484   5.969   0.070  11.225  0.2807  0.7263 -0.5188
14665TIP3   OH265485   2.745   4.278   2.395  0.0519 -0.5264  0.1743
14665TIP3    H165486   2.716   4.267   2.305  1.9174 -0.4771 -0.4709
14665TIP3    H265487   2.841   4.283   2.390  0.2347 -0.8718  2.1891
14666TIP3   OH265488   1.012   1.341   3.040  0.5472  0.2928  0.3066
14666TIP3    H165489   1.069   1.297   2.977  0.2008 -1.0600  0.8977
14666TIP3    H265490   1.061   1.337   3.123  0.1212  0.2317  0.5563
14667TIP3   OH265491   3.661   2.470   0.268 -0.4332  0.0165 -0.3422
14667TIP3    H165492   3.693   2.556   0.239 -0.9686  0.1128 -0.6701
14667TIP3    H265493   3.611   2.490   0.347 -0.7384  0.0367 -0.5397
14668TIP3   OH265494   1.806   2.991   1.189  0.4321  0.4848 -0.0417
14668TIP3    H165495   1.755   3.036   1.257 -0.7695 -1.4695  0.4600
14668TIP3    H265496   1.754   3.001   1.109 -0.8730 -1.4818  0.4636
14669TIP3   OH265497   6.762   5.247   2.289 -0.3128  0.2063  0.1399
14669TIP3    H165498   6.818   5.178   2.254 -0.1196  0.3041  0.2510
14669TIP3    H265499   6.820   5.298   2.346 -1.3526 -1.9042  3.3344
14670TIP3   OH265500   4.239   5.076   3.710  0.3573  0.1222 -0.3439
14670TIP3    H165501   4.246   5.084   3.805  0.8126 -1.7530 -0.1831
14670TIP3    H265502   4.226   4.983   3.694 -2.8631  0.6727 -1.9532
14671TIP3   OH265503   4.805   3.700  17.147  0.2692 -0.4389  0.2591
14671TIP3    H165504   4.742   3.699  17.218  1.9089 -0.9039  1.7796
14671TIP3    H265505   4.811   3.793  17.122  1.7259  0.2400  2.7306
14672TIP3   OH265506   2.561   2.961   5.470  0.1423 -0.3501  0.2483
14672TIP3    H165507   2.630   2.898   5.450  1.0880  0.2195  1.5769
14672TIP3    H265508   2.586   3.040   5.422 -0.0538 -0.4096  0.0465
14673TIP3   OH265509   2.084   6.661   2.286  0.4515 -0.1956  0.3270
14673TIP3    H165510   2.105   6.754   2.276  1.2437 -0.4719 -0.8311
14673TIP3    H265511   2.096   6.625   2.198  0.2156 -1.4025  0.7788
14674TIP3   OH265512   5.352   1.510   3.478  0.1930  0.0455  0.2509
14674TIP3    H165513   5.441   1.481   3.494 -0.1774 -0.6153  1.2110
14674TIP3    H265514   5.321   1.541   3.563 -0.6192 -0.1041  0.0197
14675TIP3   OH265515   0.564   5.599  16.023  0.4562 -0.5483  0.3892
14675TIP3    H165516   0.630   5.562  15.964  0.6477 -1.0411  0.9090
14675TIP3    H265517   0.595   5.688  16.041  1.2852 -0.9739  1.0896
14676TIP3   OH265518   5.012   5.117  13.482  0.1620 -0.1612  0.0792
14676TIP3    H165519   4.978   5.092  13.396  0.2456  2.3836 -0.7747
14676TIP3    H265520   5.107   5.111  13.473  0.3783  2.9244 -1.1207
14677TIP3   OH265521   6.507   3.268  12.951  0.0619  0.2826  0.1308
14677TIP3    H165522   6.477   3.178  12.935  0.5336  0.1307  0.0885
14677TIP3    H265523   6.585   3.258  13.007  0.8443  0.5941 -0.8823
14678TIP3   OH265524   6.081   0.921   0.446  0.4511  0.2352 -0.9353
14678TIP3    H165525   6.149   0.982   0.473  0.7268 -0.0238 -1.0468
14678TIP3    H265526   6.102   0.840   0.492 -0.9430  0.7135  0.6747
14679TIP3   OH265527   2.155   0.676   2.622  0.1087  0.5887  0.0277
14679TIP3    H165528   2.184   0.743   2.560  0.3274  0.5563  0.0954
14679TIP3    H265529   2.118   0.607   2.567 -0.9728  1.1691 -0.0004
14680TIP3   OH265530   1.092   4.941   3.151  0.5788 -0.4338  0.2480
14680TIP3    H165531   1.090   5.008   3.082 -2.1787  2.1628  2.5912
14680TIP3    H265532   1.181   4.945   3.185  0.7652  1.3986 -0.3424
14681TIP3   OH265533   6.630   4.620   1.989  0.3777  0.5032  0.4895
14681TIP3    H165534   6.568   4.645   1.921  0.6145  0.1785  0.1440
14681TIP3    H265535   6.692   4.563   1.943  0.3180 -0.0281  1.0632
14682TIP3   OH265536   5.434   5.025   1.776  0.0832  0.0819  0.0531
14682TIP3    H165537   5.495   4.952   1.762  1.3147  0.7606  1.5879
14682TIP3    H265538   5.408   5.016   1.868 -1.1483  0.5680 -0.2306
14683TIP3   OH265539   5.900   1.835  14.124 -0.3308  0.0127 -0.6841
14683TIP3    H165540   5.936   1.908  14.075 -0.9922  0.0646 -1.1012
14683TIP3    H265541   5.976   1.789  14.159  0.0738  1.2775  0.1457
14684TIP3   OH265542   6.052   3.830   3.128 -0.2001  0.1307  0.0983
14684TIP3    H165543   6.020   3.876   3.206  1.6467  0.4957  0.6864
14684TIP3    H265544   6.145   3.852   3.124 -0.1036 -0.4596 -1.8258
14685TIP3   OH265545   2.389   5.945   5.614 -0.8489 -0.3277  0.3851
14685TIP3    H165546   2.455   6.009   5.588 -0.5975 -0.6952  0.1081
14685TIP3    H265547   2.356   5.978   5.698 -1.0335  0.3903  0.0372
14686TIP3   OH265548   1.446   1.292  13.153  0.6547 -0.2519  0.3161
14686TIP3    H165549   1.466   1.313  13.244 -0.5300  0.9272  0.3484
14686TIP3    H265550   1.392   1.213  13.157 -2.6965  1.8613  1.0619
14687TIP3   OH265551   2.836   2.125   1.155 -0.8132 -0.2831  0.0955
14687TIP3    H165552   2.905   2.068   1.121 -0.9940 -0.1592 -0.4781
14687TIP3    H265553   2.872   2.158   1.237 -0.4910 -0.8040  0.1717
14688TIP3   OH265554   0.897   1.408  11.707 -0.8228 -0.1534 -0.5759
14688TIP3    H165555   0.806   1.380  11.710 -0.3596 -1.8241 -0.9195
14688TIP3    H265556   0.945   1.331  11.677  0.9609 -0.0043  1.6186
14689TIP3   OH265557   3.359   1.857   2.983  0.2018 -0.0404 -0.2207
14689TIP3    H165558   3.430   1.897   2.931 -0.5819  0.8849 -0.6081
14689TIP3    H265559   3.337   1.924   3.048 -2.8531  1.3254 -2.4430
14690TIP3   OH265560   4.379   4.761  11.917 -0.1210  0.0046  0.0320
14690TIP3    H165561   4.380   4.770  12.012  0.6218  1.2098 -0.0594
14690TIP3    H265562   4.394   4.668  11.901  1.0551 -0.0254  1.0903
14691TIP3   OH265563   0.494   2.444   4.766  0.7383 -0.2263  0.1115
14691TIP3    H165564   0.442   2.397   4.831 -1.6575 -0.2151 -1.6607
14691TIP3    H265565   0.545   2.376   4.721  2.2257 -0.2599  1.7309
14692TIP3   OH265566   1.201   0.273  13.106  0.0036 -0.3008 -0.3004
14692TIP3    H165567   1.189   0.363  13.079  1.7147 -0.2255 -0.9256
14692TIP3    H265568   1.234   0.279  13.196  3.3148 -0.0430 -1.3773
14693TIP3   OH265569   3.491   4.056  16.042  0.2902 -0.0904 -0.1904
14693TIP3    H165570   3.583   4.040  16.021  0.1745  0.9272 -1.6378
14693TIP3    H265571   3.493   4.110  16.121  1.0006  0.7630 -0.7710
14694TIP3   OH265572   3.426   1.007  14.785  0.1747  0.2759  0.0031
14694TIP3    H165573   3.341   1.051  14.777 -0.7742 -1.6925 -1.3118
14694TIP3    H265574   3.489   1.076  14.765 -1.2184  1.2329 -1.3840
14695TIP3   OH265575   2.380   1.356  15.278 -0.1819 -0.0302  0.1127
14695TIP3    H165576   2.352   1.284  15.334  0.7134 -1.2760 -0.9817
14695TIP3    H265577   2.345   1.335  15.191 -1.1904  1.6449  0.0639
14696TIP3   OH265578   4.181   6.100  14.936 -0.1991  0.3998 -0.0895
14696TIP3    H165579   4.241   6.049  14.881  1.0206  0.2155  1.3223
14696TIP3    H265580   4.101   6.108  14.884  0.2090 -1.4043 -1.0959
14697TIP3   OH265581   1.302   1.479   1.476 -0.2794 -0.8103  0.2878
14697TIP3    H165582   1.257   1.433   1.546 -0.0251  0.3914  1.2673
14697TIP3    H265583   1.244   1.553   1.455  0.1017 -0.6171 -0.1009
14698TIP3   OH265584   5.535   2.197  17.158  0.0617 -0.5469 -0.5043
14698TIP3    H165585   5.463   2.260  17.147 -0.0121 -0.5701 -0.1530
14698TIP3    H265586   5.593   2.215  17.084  0.9159  1.0904  0.5221
14699TIP3   OH265587   4.966   4.890  14.875 -0.0341 -0.1506  0.4380
14699TIP3    H165588   4.933   4.850  14.794 -3.8208  1.1166  1.1609
14699TIP3    H265589   5.010   4.970  14.846  1.2676 -1.1200 -0.4609
14700TIP3   OH265590   4.938   0.966   6.918 -0.7791 -0.1753 -0.2043
14700TIP3    H165591   4.922   0.876   6.947  0.4059 -0.8872 -1.5933
14700TIP3    H265592   4.996   0.956   6.842  0.7315  1.8414  0.5866
14701TIP3   OH265593   6.045   1.167  14.414  0.0580 -0.2450 -0.4655
14701TIP3    H165594   6.042   1.122  14.499 -0.3331  1.7880  0.6581
14701TIP3    H265595   5.953   1.174  14.388  0.1517 -0.5077 -0.8766
14702TIP3   OH265596   3.205   0.126  12.946  0.1883  0.5187 -0.2186
14702TIP3    H165597   3.161   0.131  13.031  0.7539 -1.3082  0.2260
14702TIP3    H265598   3.193   0.213  12.907 -4.5889 -0.0105 -0.5387
14703TIP3   OH265599   4.741   4.910  10.762  0.0369 -0.0880 -0.1636
14703TIP3    H165600   4.667   4.956  10.722  0.1538  1.2398  1.0847
14703TIP3    H265601   4.793   4.880  10.687 -1.6980 -1.0200 -1.0668
14704TIP3   OH265602   2.639   1.541   1.634 -0.1375 -0.3512 -0.8493
14704TIP3    H165603   2.602   1.604   1.573 -0.8889 -2.0072 -2.1919
14704TIP3    H265604   2.614   1.455   1.598  0.3725 -1.4136  1.1817
14705TIP3   OH265605   5.984   2.878  13.145  0.4198 -0.4707 -0.0146
14705TIP3    H165606   5.973   2.929  13.064 -1.2844  0.1337  0.5592
14705TIP3    H265607   5.911   2.817  13.145  0.3821 -0.4468  1.0817
14706TIP3   OH265608   5.474   3.889  15.742  0.6770  0.0730  0.4445
14706TIP3    H165609   5.569   3.903  15.741  0.8373 -0.6580 -1.9597
14706TIP3    H265610   5.440   3.956  15.682  0.0297 -1.3704 -0.8651
14707TIP3   OH265611   3.479   4.357  16.658 -0.0494  0.0554  0.2921
14707TIP3    H165612   3.453   4.275  16.700 -0.2938 -0.6459 -1.1847
14707TIP3    H265613   3.408   4.377  16.597 -0.8438  2.3017  1.8135
14708TIP3   OH265614   0.818   2.853   4.496 -0.0634  0.3492 -0.2212
14708TIP3    H165615   0.795   2.867   4.588 -0.0912 -0.8162 -0.0271
14708TIP3    H265616   0.789   2.763   4.478 -1.0560  0.9320 -1.6905
14709TIP3   OH265617   0.358   2.584  13.307  0.0239  0.2483 -0.5557
14709TIP3    H165618   0.378   2.670  13.272  1.7506  0.9884  1.9385
14709TIP3    H265619   0.418   2.525  13.262  1.4011  0.9825  0.2521
14710TIP3   OH265620   2.369   4.340  12.166 -0.0636 -0.1487 -0.8872
14710TIP3    H165621   2.448   4.295  12.196  0.4193  0.6616 -0.9176
14710TIP3    H265622   2.300   4.274  12.173  0.3009 -0.4118  0.6285
14711TIP3   OH265623   4.483   4.763  16.003 -0.3019  0.0351  0.6506
14711TIP3    H165624   4.468   4.840  16.057 -1.1326  1.2201 -1.1823
14711TIP3    H265625   4.414   4.702  16.029 -0.2078  0.2654  1.4614
14712TIP3   OH265626   6.235   1.848  16.547 -0.0535 -0.2360 -0.0796
14712TIP3    H165627   6.265   1.845  16.637  0.7133  3.0396 -0.0746
14712TIP3    H265628   6.268   1.768  16.507  0.9110 -1.0118  2.1522
14713TIP3   OH265629   2.150   5.092   6.108 -0.5800 -0.1987  0.0108
14713TIP3    H165630   2.223   5.116   6.051 -0.4962 -1.0265 -0.2352
14713TIP3    H265631   2.122   5.176   6.147  0.7826  0.0772  0.4552
14714TIP3   OH265632   4.764   2.125   2.039  0.2821  0.2586 -0.3231
14714TIP3    H165633   4.842   2.094   2.085 -0.8391 -2.0591  0.1706
14714TIP3    H265634   4.797   2.168   1.961  2.0818  0.4277  0.4954
14715TIP3   OH265635   4.897   3.149   4.037 -0.1504 -0.3621  0.3291
14715TIP3    H165636   4.821   3.203   4.017 -0.2001  0.0075  1.4495
14715TIP3    H265637   4.862   3.074   4.085  0.3283  0.7781  2.6327
14716TIP3   OH265638   5.899   3.227  14.813 -0.1511  0.4211  0.7592
14716TIP3    H165639   5.940   3.140  14.816  1.0428  0.7614 -2.1262
14716TIP3    H265640   5.954   3.282  14.869  0.5252 -0.1757  0.6936
14717TIP3   OH265641   4.087   1.506  13.589 -0.3890 -0.8583 -0.7186
14717TIP3    H165642   4.158   1.445  13.571  0.2518 -0.5789  0.6832
14717TIP3    H265643   4.035   1.463  13.657 -1.2090 -0.7817 -1.2830
14718TIP3   OH265644   2.352   4.427   3.537 -0.0111  0.0312 -0.0076
14718TIP3    H165645   2.296   4.355   3.510 -0.8676  0.7840 -0.2970
14718TIP3    H265646   2.441   4.393   3.530 -0.4505 -1.5465  1.5033
14719TIP3   OH265647   3.847   3.858  16.290  0.0992  0.3137 -0.0602
14719TIP3    H165648   3.924   3.888  16.338 -0.5477  0.8627  0.6460
14719TIP3    H265649   3.859   3.763  16.283  1.4736  0.5437 -1.1069
14720TIP3   OH265650   6.664   0.625  11.228 -0.3884 -0.5599 -0.7238
14720TIP3    H165651   6.629   0.541  11.200  1.2791 -0.6792 -2.7820
14720TIP3    H265652   6.749   0.631  11.184 -0.4335  2.1841 -0.6440
14721TIP3   OH265653   6.320   6.041  11.455 -0.0681  0.2597  0.1263
14721TIP3    H165654   6.261   5.966  11.464  0.2267  0.1214  1.0370
14721TIP3    H265655   6.381   6.031  11.528  0.8386  0.6178 -0.5712
14722TIP3   OH265656   6.222   0.704   0.596  0.0563 -0.4367  0.4131
14722TIP3    H165657   6.308   0.715   0.556  0.3833  0.3289  1.2795
14722TIP3    H265658   6.235   0.730   0.688 -1.8643  3.1164 -0.1585
14723TIP3   OH265659   0.764   4.153  14.878  0.2084 -0.1163  0.3418
14723TIP3    H165660   0.724   4.130  14.962 -0.0376 -0.1944  0.2038
14723TIP3    H265661   0.829   4.085  14.862  0.5783  0.1518  0.6914
14724TIP3   OH265662   5.797   3.273  12.929  0.0870 -0.1673  0.3641
14724TIP3    H165663   5.866   3.324  12.971 -0.9615  0.7876  0.9760
14724TIP3    H265664   5.716   3.307  12.966 -0.8576  0.2463 -1.9599
14725TIP3   OH265665   1.456   5.253   5.402  0.3842  0.3775 -0.1944
14725TIP3    H165666   1.405   5.330   5.377  1.4196  1.1466 -0.0321
14725TIP3    H265667   1.397   5.202   5.457 -1.5666 -0.7827 -3.1253
14726TIP3   OH265668   5.889   4.611   5.280 -0.2681  0.5216  0.0346
14726TIP3    H165669   5.913   4.558   5.204  0.7743  0.6580  0.2527
14726TIP3    H265670   5.846   4.550   5.340 -1.7368  0.5614 -0.9387
14727TIP3   OH265671   5.940   4.052  16.482 -0.3652  0.1900  0.7128
14727TIP3    H165672   5.888   4.130  16.502 -1.3698 -0.2687  0.0430
14727TIP3    H265673   6.017   4.085  16.436 -1.6377  0.7278 -1.1951
14728TIP3   OH265674   1.264   6.185   4.358 -0.1316  0.1695  0.9810
14728TIP3    H165675   1.235   6.109   4.409  1.2101  0.0703  1.6275
14728TIP3    H265676   1.297   6.148   4.276 -1.5804  0.2710  0.3094
14729TIP3   OH265677   1.334   1.812  13.086  0.0739 -0.2054 -0.2616
14729TIP3    H165678   1.254   1.761  13.098 -1.2892  1.8150 -0.3779
14729TIP3    H265679   1.377   1.771  13.012 -2.6170  0.6755 -2.4898
14730TIP3   OH265680   0.345   5.375  14.093  0.1550  0.5298 -0.1729
14730TIP3    H165681   0.335   5.280  14.087  2.6210  0.2540 -1.4238
14730TIP3    H265682   0.283   5.410  14.030  1.1188 -0.4598 -1.7350
14731TIP3   OH265683   1.839   2.155   4.039 -0.0121 -0.3734  0.6008
14731TIP3    H165684   1.920   2.182   3.996 -1.2266  0.6055 -1.2093
14731TIP3    H265685   1.866   2.129   4.127  2.0175  1.6695  0.6849
14732TIP3   OH265686   4.812   6.755  16.684  0.9674 -0.1552 -0.4648
14732TIP3    H165687   4.743   6.787  16.743  0.7499 -0.5016 -0.5287
14732TIP3    H265688   4.765   6.731  16.604  1.0317 -1.2917 -0.1696
14733TIP3   OH265689   1.314   6.327  16.271  0.6571  0.0275  0.0734
14733TIP3    H165690   1.401   6.339  16.233  0.2350  1.0489 -0.6336
14733TIP3    H265691   1.324   6.256  16.333  1.9679  0.0431 -0.0953
14734TIP3   OH265692   3.576   5.706  11.094 -0.2726  0.2478  0.6562
14734TIP3    H165693   3.516   5.758  11.041 -0.7398  0.8895  1.7842
14734TIP3    H265694   3.589   5.757  11.174  1.0464 -0.3199  0.8403
14735TIP3   OH265695   3.873   5.158  13.706 -0.2765  0.3924  0.7601
14735TIP3    H165696   3.929   5.081  13.697 -0.4968  0.2047  0.9609
14735TIP3    H265697   3.794   5.125  13.748 -1.3262  0.2938 -1.2046
14736TIP3   OH265698   1.233   3.455   0.185  0.2696 -0.0838  0.1770
14736TIP3    H165699   1.323   3.487   0.193  0.2388  0.4848 -1.5533
14736TIP3    H265700   1.196   3.467   0.273  1.5339  0.7005  0.6330
14737TIP3   OH265701   1.139   1.600   3.790  0.3103 -0.3022 -0.4304
14737TIP3    H165702   1.056   1.559   3.766  0.3001 -2.0446  2.1830
14737TIP3    H265703   1.150   1.581   3.883  2.5417  1.8990 -0.1198
14738TIP3   OH265704   4.141   6.612   0.858 -0.1583 -0.1343 -0.4289
14738TIP3    H165705   4.189   6.589   0.778 -1.3059 -1.8953 -0.6788
14738TIP3    H265706   4.157   6.705   0.870  2.9916 -0.5318 -0.6817
14739TIP3   OH265707   1.095   6.660   1.396 -0.5378  0.0365 -0.2398
14739TIP3    H165708   1.158   6.653   1.468 -1.0240  1.1139  0.3052
14739TIP3    H265709   1.010   6.642   1.436 -0.7575  0.1496 -0.6454
14740TIP3   OH265710   5.993   2.697   1.204 -0.4602  0.3710  0.5370
14740TIP3    H165711   6.069   2.642   1.221 -0.8612 -0.2220  0.4335
14740TIP3    H265712   5.920   2.636   1.198 -1.2820  1.0911  2.5548
14741TIP3   OH265713   4.145   1.150   4.313  0.3653 -0.2990  0.9469
14741TIP3    H165714   4.089   1.227   4.306 -0.8442 -1.1385  1.0716
14741TIP3    H265715   4.170   1.130   4.222  0.8845  0.3647  0.9354
14742TIP3   OH265716   4.429   1.591  13.740  0.1583 -0.0671 -0.2393
14742TIP3    H165717   4.488   1.519  13.762  0.9024  0.6092 -0.0006
14742TIP3    H265718   4.485   1.668  13.733 -0.2979  0.1102 -2.7196
14743TIP3   OH265719   5.987   6.678   3.334 -0.3601  0.1551  0.0045
14743TIP3    H165720   5.940   6.673   3.417  1.3159  1.2129  1.0817
14743TIP3    H265721   6.052   6.747   3.347  0.4948 -0.2167 -1.9098
14744TIP3   OH265722   5.159   1.009  14.394 -0.2578 -0.3003 -0.3270
14744TIP3    H165723   5.181   0.949  14.322 -0.3059  0.1373 -0.7037
14744TIP3    H265724   5.073   0.980  14.424 -0.7011  0.1539 -1.1199
14745TIP3   OH265725   1.379   4.665   0.658 -0.0611 -0.2767 -0.1588
14745TIP3    H165726   1.405   4.756   0.672 -0.7229 -0.0520 -0.3527
14745TIP3    H265727   1.439   4.633   0.590  0.1073  0.0456 -0.1616
14746TIP3   OH265728   5.819   0.966  16.167  0.0745  0.5828 -0.2918
14746TIP3    H165729   5.809   1.024  16.243  1.4665  1.2533 -0.5967
14746TIP3    H265730   5.782   1.016  16.094  1.8285  1.4173 -0.6748
14747TIP3   OH265731   2.961   1.628   1.012  0.0502  0.1620  0.2852
14747TIP3    H165732   2.892   1.583   0.963 -0.4866  1.5595 -0.3173
14747TIP3    H265733   3.006   1.559   1.061  0.5497 -1.3000 -2.1022
14748TIP3   OH265734   0.878   1.891   6.017 -0.0230 -0.1813 -0.4512
14748TIP3    H165735   0.960   1.939   6.032 -0.0182  0.0484 -1.1390
14748TIP3    H265736   0.881   1.818   6.079  0.9294 -0.4370 -0.7736
14749TIP3   OH265737   4.406   3.091  14.523 -0.1357  0.1075  0.0554
14749TIP3    H165738   4.336   3.028  14.541 -0.4722  0.5878  0.4633
14749TIP3    H265739   4.447   3.105  14.609 -0.1343  0.5198 -0.0115
14750TIP3   OH265740   5.822   0.482  12.792  0.3292 -0.3124 -0.0667
14750TIP3    H165741   5.728   0.499  12.778  0.3986  1.6747  1.3898
14750TIP3    H265742   5.866   0.547  12.737  0.8809 -1.4296 -0.9672
14751TIP3   OH265743   1.204   2.157   1.846 -0.0754 -0.0165  0.4710
14751TIP3    H165744   1.168   2.152   1.934 -1.3011  0.5517  0.0312
14751TIP3    H265745   1.128   2.147   1.789  0.2862  2.2157 -0.5151
14752TIP3   OH265746   2.851   0.593  16.730  0.3091  0.3929 -0.1856
14752TIP3    H165747   2.819   0.594  16.640 -0.0053 -0.2823 -0.0872
14752TIP3    H265748   2.945   0.612  16.723 -0.0681  2.3178 -0.4863
14753TIP3   OH265749   4.723   3.894   5.871  0.0722 -0.4366  0.1577
14753TIP3    H165750   4.680   3.869   5.953 -3.4263  0.4242 -1.2436
14753TIP3    H265751   4.713   3.989   5.866  3.8574  0.1313  0.4831
14754TIP3   OH265752   6.673   5.583  16.539 -0.0762 -0.6240 -0.1329
14754TIP3    H165753   6.728   5.565  16.462  0.6376  1.6586 -0.2402
14754TIP3    H265754   6.633   5.668  16.520 -1.0244 -0.6970  1.4154
14755TIP3   OH265755   5.155   6.104  13.500 -0.1275  0.5425 -0.4621
14755TIP3    H165756   5.079   6.049  13.516  0.3570 -0.3002 -1.0012
14755TIP3    H265757   5.127   6.164  13.430 -1.0610  1.8546  0.9624
14756TIP3   OH265758   5.416   0.628  16.443  0.2049  0.6658 -0.8475
14756TIP3    H165759   5.386   0.660  16.358  1.5797  1.3414 -1.1082
14756TIP3    H265760   5.369   0.682  16.507  1.4267  2.3412 -1.2615
14757TIP3   OH265761   0.163   0.187   6.504 -0.3332 -0.4974  0.4590
14757TIP3    H165762   0.101   0.226   6.566  0.0558 -0.8244  1.0656
14757TIP3    H265763   0.113   0.173   6.424 -0.6707  0.5837  0.4597
14758TIP3   OH265764   0.703   6.520  16.787 -0.7984 -0.2757  0.0585
14758TIP3    H165765   0.692   6.493  16.696 -0.3130 -0.1765 -0.0300
14758TIP3    H265766   0.751   6.603  16.782 -0.0846 -0.6578  0.4386
14759TIP3   OH265767   5.188   0.597   2.576  0.3776  0.1627  0.0187
14759TIP3    H165768   5.245   0.557   2.642  0.0473  0.6443  0.6018
14759TIP3    H265769   5.218   0.559   2.493  1.7301  0.6042  0.2780
14760TIP3   OH265770   1.287   0.970  15.405 -0.0729 -0.0019  0.0310
14760TIP3    H165771   1.253   0.881  15.407 -1.5785  0.5516  0.8950
14760TIP3    H265772   1.347   0.971  15.330 -1.2413 -1.3113 -0.9938
14761TIP3   OH265773   3.056   5.454  11.598  0.7621 -0.1409  0.3092
14761TIP3    H165774   3.040   5.535  11.646  0.3476  0.0257 -0.1031
14761TIP3    H265775   3.048   5.478  11.506 -0.6791 -0.8912  0.2024
14762TIP3   OH265776   5.860   6.797   6.005  0.1797  0.0998 -0.3305
14762TIP3    H165777   5.796   6.745   6.053 -0.1913  0.1795 -0.7348
14762TIP3    H265778   5.944   6.777   6.048  0.2717 -1.9095 -1.3164
14763TIP3   OH265779   1.912   0.159  12.279  0.3289  0.1871  0.0408
14763TIP3    H165780   1.977   0.176  12.211 -0.0150  1.3821 -0.0112
14763TIP3    H265781   1.846   0.104  12.236 -0.8002  2.3697 -1.1755
14764TIP3   OH265782   1.767   5.841   2.791  0.7486  0.4440 -0.0347
14764TIP3    H165783   1.809   5.804   2.714 -0.7148 -1.7871  0.1483
14764TIP3    H265784   1.827   5.820   2.863  1.0254  0.5035 -0.2443
14765TIP3   OH265785   4.619   1.231  12.856  0.0460 -0.2683 -0.1665
14765TIP3    H165786   4.532   1.192  12.852 -0.6171  1.2289 -1.5601
14765TIP3    H265787   4.612   1.299  12.924 -0.2255  0.5884 -1.0296
14766TIP3   OH265788   2.251   1.678   4.510  0.2488 -0.0749 -0.2553
14766TIP3    H165789   2.189   1.623   4.461  0.6281 -0.5411 -0.2251
14766TIP3    H265790   2.331   1.625   4.515  0.2099 -0.0556  0.9039
14767TIP3   OH265791   1.325   1.773   0.701 -0.1392 -0.1364 -0.5306
14767TIP3    H165792   1.290   1.862   0.702 -1.4163 -0.6114  1.0941
14767TIP3    H265793   1.396   1.776   0.636 -1.4667  1.5287 -2.0053
14768TIP3   OH265794   5.228   4.000   3.136 -0.4772  0.0436  0.5205
14768TIP3    H165795   5.196   4.081   3.096 -0.9082  0.5213  1.7799
14768TIP3    H265796   5.307   4.027   3.184  0.7186 -0.7472 -0.9267
14769TIP3   OH265797   3.464   2.639   1.207  0.0592 -0.3645  0.1885
14769TIP3    H165798   3.545   2.589   1.203  0.0738 -0.3503  0.2980
14769TIP3    H265799   3.425   2.630   1.119  0.0680 -0.5540  0.2046
14770TIP3   OH265800   5.410   5.282   5.914  0.3233 -0.8014 -0.0455
14770TIP3    H165801   5.387   5.211   5.854  0.8085 -1.2324  0.2687
14770TIP3    H265802   5.373   5.256   5.998 -1.1047  0.2179 -0.3286
14771TIP3   OH265803   0.054   4.423   4.284  0.0410  0.4343 -0.3982
14771TIP3    H165804   0.133   4.410   4.232  0.1109  3.1153 -1.1226
14771TIP3    H265805  -0.011   4.367   4.243  1.3266 -1.2946 -0.2098
14772TIP3   OH265806   0.731   2.657  14.852 -0.3245  0.5482 -0.0362
14772TIP3    H165807   0.734   2.570  14.892  0.3172  0.2636 -0.6791
14772TIP3    H265808   0.822   2.683  14.843 -0.5087  1.2145 -0.0108
14773TIP3   OH265809   6.190   0.064  13.547 -0.2516  0.7206 -0.2001
14773TIP3    H165810   6.156   0.135  13.492 -2.6420 -0.1089  0.0707
14773TIP3    H265811   6.255   0.020  13.492 -0.4406  1.7152 -1.2581
14774TIP3   OH265812   0.408   1.151   4.087 -0.1843  0.1150 -0.0945
14774TIP3    H165813   0.347   1.082   4.061 -1.9999  1.9185 -0.8815
14774TIP3    H265814   0.471   1.156   4.015 -1.1884  0.5333 -0.9780
14775TIP3   OH265815   3.481   2.628  12.404 -0.2834  0.2680  0.0030
14775TIP3    H165816   3.481   2.607  12.498 -0.2523 -1.3726 -0.3406
14775TIP3    H265817   3.531   2.709  12.398 -1.9238  1.5117  1.6198
14776TIP3   OH265818   2.978   4.861  15.777  0.3061 -0.3119  0.2765
14776TIP3    H165819   3.004   4.866  15.685  0.9702  0.9392  0.5114
14776TIP3    H265820   2.890   4.896  15.779  0.9509  1.3745  0.3484
14777TIP3   OH265821   6.045   3.942  15.787  0.2620  0.3427  0.1384
14777TIP3    H165822   6.068   3.870  15.847  0.9675  1.4066  1.1939
14777TIP3    H265823   6.093   4.017  15.821  0.9619  0.9180 -2.0038
14778TIP3   OH265824   1.451   0.857  13.860  0.2700 -0.5063  0.1852
14778TIP3    H165825   1.515   0.834  13.793  0.4026 -2.7020  0.9794
14778TIP3    H265826   1.503   0.892  13.933  0.5041 -1.3938  0.4590
14779TIP3   OH265827   4.866   0.300  17.085 -0.0815 -0.2239  0.2523
14779TIP3    H165828   4.804   0.298  17.012  1.4659  0.8423 -1.1747
14779TIP3    H265829   4.879   0.393  17.103 -0.1181 -0.4693  1.6340
14780TIP3   OH265830   0.930   4.679  16.659  0.5475 -0.7615  0.0219
14780TIP3    H165831   0.905   4.734  16.585  0.3363 -1.5565 -0.5108
14780TIP3    H265832   1.003   4.627  16.627  1.4305 -0.0806  0.8535
14781TIP3   OH265833   4.526   3.539  15.747 -0.0940 -0.6414  0.0852
14781TIP3    H165834   4.600   3.524  15.805  1.3042 -0.6844 -1.6333
14781TIP3    H265835   4.536   3.473  15.678 -1.9240 -0.8551 -0.0407
14782TIP3   OH265836   3.889   3.470   4.041 -0.3063 -0.2801 -0.1338
14782TIP3    H165837   3.888   3.380   4.009  0.3367  0.1596 -1.4572
14782TIP3    H265838   3.949   3.516   3.983 -0.7893  1.0615  0.3758
14783TIP3   OH265839   5.019   0.204  15.373  0.4227  0.1419  0.2204
14783TIP3    H165840   5.001   0.273  15.309  0.0788 -0.9514 -0.8861
14783TIP3    H265841   5.110   0.180  15.357  0.2940 -0.2307  0.0464
14784TIP3   OH265842   5.407   6.663  16.299  0.6119 -0.0812 -0.0019
14784TIP3    H165843   5.430   6.579  16.338 -1.0163 -1.2276 -1.3452
14784TIP3    H265844   5.321   6.648  16.259 -0.5149  2.6691  1.0710
14785TIP3   OH265845   1.148   0.730   4.827 -0.4422  0.3351  0.1411
14785TIP3    H165846   1.177   0.714   4.737 -0.4949  0.8750  0.0240
14785TIP3    H265847   1.222   0.774   4.869 -0.7403  0.8823  0.1058
14786TIP3   OH265848   3.889   2.412   4.905 -0.1688  0.0551 -0.0215
14786TIP3    H165849   3.843   2.366   4.976  1.9531 -0.3279  1.1789
14786TIP3    H265850   3.824   2.417   4.835 -2.5637  0.9479  2.0998
14787TIP3   OH265851   5.992   5.483   4.336 -0.0062  0.4114 -0.1718
14787TIP3    H165852   5.913   5.453   4.291 -0.3194  0.2686  0.4607
14787TIP3    H265853   6.040   5.403   4.355  0.3994  0.5145 -0.7435
14788TIP3   OH265854   0.546   0.192   5.999 -0.2498  0.6076  0.6452
14788TIP3    H165855   0.486   0.177   6.072  0.1935  2.2172  1.3945
14788TIP3    H265856   0.513   0.271   5.957  0.3131  0.4954 -0.0261
14789TIP3   OH265857   4.645   0.768   2.452 -0.7826  0.4854  0.1967
14789TIP3    H165858   4.622   0.675   2.453  0.3885  0.1918  0.4418
14789TIP3    H265859   4.614   0.801   2.537 -1.6452  0.4498 -0.0878
14790TIP3   OH265860   2.304   2.396   2.693 -0.2990 -0.1057  0.0886
14790TIP3    H165861   2.221   2.393   2.741 -0.0253  0.0862  0.5797
14790TIP3    H265862   2.315   2.488   2.669 -0.0891 -0.0827  0.2708
14791TIP3   OH265863   0.701   0.918  14.065 -0.7164 -0.4281 -0.0861
14791TIP3    H165864   0.726   0.843  14.119  1.3724 -0.9566 -1.6842
14791TIP3    H265865   0.779   0.974  14.064 -0.9319 -0.1054 -1.9864
14792TIP3   OH265866   2.730   2.401  16.513  0.0500  0.0270 -0.1416
14792TIP3    H165867   2.693   2.410  16.426  0.5664 -0.1827 -0.3833
14792TIP3    H265868   2.757   2.489  16.537 -1.7360  0.4384  0.5631
14793TIP3   OH265869   6.722   2.599  10.532 -0.0662 -0.3746 -0.3440
14793TIP3    H165870   6.668   2.585  10.610 -0.6823 -2.0557 -1.0092
14793TIP3    H265871   6.742   2.692  10.533 -1.4152 -0.0500  0.9537
14794TIP3   OH265872   3.102   5.663  11.097  0.2244 -0.8551  0.0191
14794TIP3    H165873   3.138   5.751  11.097  0.2848 -0.8786  0.2859
14794TIP3    H265874   3.025   5.668  11.040 -0.1873 -0.4583  0.6052
14795TIP3   OH265875   4.500   1.029   2.678  0.7625  0.4405 -0.1923
14795TIP3    H165876   4.509   1.035   2.583 -0.0319  0.7643 -0.2512
14795TIP3    H265877   4.406   1.018   2.693  0.8891  0.3003  0.5538
14796TIP3   OH265878   0.318   1.776   3.364 -0.0055 -0.1933 -0.3200
14796TIP3    H165879   0.314   1.701   3.303  2.5158 -1.1431  0.5632
14796TIP3    H265880   0.228   1.785   3.395 -0.8374 -1.3931 -2.1487
14797TIP3   OH265881   0.397   0.631   1.910  0.5186  0.0231  0.2124
14797TIP3    H165882   0.309   0.634   1.872  0.9965 -1.4143 -1.1021
14797TIP3    H265883   0.425   0.540   1.900  2.4862  0.6258 -0.1578
14798TIP3   OH265884   2.217   3.410   2.683 -0.1277  0.5294  1.2829
14798TIP3    H165885   2.197   3.331   2.734 -1.4834 -0.1959 -0.2825
14798TIP3    H265886   2.244   3.377   2.597  1.6379  1.7352  1.3134
14799TIP3   OH265887   1.545   0.471  17.069 -0.0044 -0.2843  0.0991
14799TIP3    H165888   1.505   0.474  16.982  2.4594 -1.5997 -1.1671
14799TIP3    H265889   1.484   0.519  17.125 -1.0405  1.7413 -2.5900
14800TIP3   OH265890   0.446   2.600   6.285  0.0456 -0.2589 -0.2673
14800TIP3    H165891   0.393   2.679   6.269  0.7422 -0.1965 -2.5105
14800TIP3    H265892   0.483   2.614   6.373 -1.3856  0.9873  0.1856
14801TIP3   OH265893   2.245   4.228  13.744  0.1144  0.3551  0.4065
14801TIP3    H165894   2.201   4.244  13.661 -1.3382 -0.4672  0.9693
14801TIP3    H265895   2.204   4.289  13.805 -3.0600 -2.8183  1.7853
14802TIP3   OH265896   2.946   2.045   5.000  0.4747 -0.0712 -0.2900
14802TIP3    H165897   3.001   2.108   4.955  0.8174  0.2696  0.5766
14802TIP3    H265898   2.884   2.098   5.051 -0.9311 -0.4440 -1.5471
14803TIP3   OH265899   1.883   3.990  10.936 -0.5877 -0.4888 -0.2324
14803TIP3    H165900   1.970   3.954  10.916 -0.4894 -1.2415  1.4322
14803TIP3    H265901   1.852   4.025  10.852  1.9095  1.0984 -0.6097
14804TIP3   OH265902   4.443   3.203  13.552  0.3816 -1.1023  0.1620
14804TIP3    H165903   4.469   3.143  13.622 -1.7899 -1.7797  0.4702
14804TIP3    H265904   4.464   3.156  13.471 -2.1091 -2.8241  0.3825
14805TIP3   OH265905   5.812   4.615   5.645 -0.2228  0.1822 -0.3791
14805TIP3    H165906   5.775   4.703   5.639 -0.1449  0.1969 -0.6457
14805TIP3    H265907   5.794   4.588   5.735  0.0204  0.5905 -0.2005
14806TIP3   OH265908   3.399   1.411  14.025  0.7758 -0.2212 -0.6002
14806TIP3    H165909   3.463   1.474  14.060  1.1662  0.1105 -1.8806
14806TIP3    H265910   3.433   1.326  14.052  1.1841  0.0137 -0.3621
14807TIP3   OH265911   6.125   0.933  14.953  0.0848  0.0395  0.3533
14807TIP3    H165912   6.146   0.998  15.020 -1.5929  0.5989  0.3772
14807TIP3    H265913   6.095   0.985  14.878  1.9075 -0.5751 -0.8759
14808TIP3   OH265914   0.860   5.091   2.183  0.0007 -0.2600 -0.3619
14808TIP3    H165915   0.909   5.118   2.260 -2.4404  1.2575  0.7991
14808TIP3    H265916   0.890   5.002   2.164  3.7677  0.8310 -0.3746
14809TIP3   OH265917   4.691   2.592  12.854 -0.0416 -0.1356  0.2154
14809TIP3    H165918   4.742   2.649  12.912  0.3305  0.8291 -1.0289
14809TIP3    H265919   4.653   2.526  12.913  2.0619 -0.4762  1.2820
14810TIP3   OH265920   1.635   0.327  13.503 -0.1625 -0.2921  0.3955
14810TIP3    H165921   1.650   0.383  13.579 -0.4211 -0.1652  0.3553
14810TIP3    H265922   1.653   0.383  13.428 -2.2401  0.3382  0.2983
14811TIP3   OH265923   0.195   0.474  12.803 -0.3655 -0.2687 -0.4137
14811TIP3    H165924   0.216   0.505  12.715 -0.9713 -0.6335 -0.6976
14811TIP3    H265925   0.099   0.474  12.806 -0.3554  0.9396  0.6910
14812TIP3   OH265926   3.946   5.329  12.740  0.7971 -0.9486  0.3116
14812TIP3    H165927   3.863   5.377  12.731  1.6314  0.2978 -1.3055
14812TIP3    H265928   3.948   5.301  12.832 -0.4099  0.9071  0.9554
14813TIP3   OH265929   5.768   2.446  16.776  0.6720  0.1531 -0.1531
14813TIP3    H165930   5.723   2.489  16.703  2.4959 -0.8479 -1.9525
14813TIP3    H265931   5.810   2.519  16.823  0.3986  0.7120 -0.7508
14814TIP3   OH265932   5.457   0.801  14.759 -0.0267  0.2254 -0.3857
14814TIP3    H165933   5.469   0.798  14.854  0.6099  1.1581 -0.4279
14814TIP3    H265934   5.397   0.875  14.745  0.6049  0.6763 -0.7645
14815TIP3   OH265935   4.358   3.368   4.480  0.1197 -0.1974 -0.0783
14815TIP3    H165936   4.298   3.431   4.440 -1.5760 -0.5546  1.7312
14815TIP3    H265937   4.437   3.419   4.498 -0.1882  0.6955 -1.1108
14816TIP3   OH265938   1.233   0.115  11.627 -0.0113 -0.2322 -0.0525
14816TIP3    H165939   1.269   0.195  11.664 -0.7337  0.0855 -0.0186
14816TIP3    H265940   1.156   0.144  11.578  0.5393 -0.7222 -1.2547
14817TIP3   OH265941   4.814   6.750  15.494 -0.8711  0.1619  0.0909
14817TIP3    H165942   4.791   6.833  15.452 -0.3817  0.4948  0.4573
14817TIP3    H265943   4.823   6.688  15.422  0.5491  0.8577 -0.3693
14818TIP3   OH265944   3.681   4.666  12.770  0.4204 -0.5155  0.3199
14818TIP3    H165945   3.659   4.648  12.861 -1.3281 -2.6633 -0.4441
14818TIP3    H265946   3.618   4.615  12.719  0.6004  1.5019 -2.1306
14819TIP3   OH265947   6.389   4.799   2.869 -0.0284  0.6878  0.1026
14819TIP3    H165948   6.332   4.743   2.921  1.7430 -0.4256  0.9420
14819TIP3    H265949   6.341   4.881   2.861 -1.2115  0.2137  1.7925
14820TIP3   OH265950   1.234   2.030  15.591 -0.3309 -0.3394 -0.0708
14820TIP3    H165951   1.243   2.124  15.575 -1.6688 -0.4963 -2.1760
14820TIP3    H265952   1.165   2.023  15.656  1.0779  0.1403  1.5628
14821TIP3   OH265953   3.618   5.826   3.054  0.0770  0.6520 -0.4050
14821TIP3    H165954   3.569   5.792   3.129  0.0474 -0.4167 -0.8850
14821TIP3    H265955   3.708   5.798   3.070  0.3153  1.5510 -0.1335
14822TIP3   OH265956   1.435   6.123   0.966  0.3219 -0.3117 -0.6958
14822TIP3    H165957   1.353   6.093   1.005  0.8761  0.1797  0.9313
14822TIP3    H265958   1.426   6.218   0.960  1.2916 -0.0591  0.9305
14823TIP3   OH265959   6.394   2.168  16.210 -0.4488 -0.5337  0.1148
14823TIP3    H165960   6.314   2.171  16.157  0.2128 -1.1348 -0.9486
14823TIP3    H265961   6.452   2.233  16.170 -0.2980 -0.2991  0.7036
14824TIP3   OH265962   2.698   0.151   1.388  0.0029 -0.1595 -0.5620
14824TIP3    H165963   2.749   0.121   1.312 -0.6230 -1.0948 -0.6223
14824TIP3    H265964   2.746   0.228   1.420  0.6148 -0.1242 -1.5282
14825TIP3   OH265965   5.438   0.276  11.920  0.0325  0.0002 -0.5078
14825TIP3    H165966   5.418   0.316  11.835  0.8125 -0.3192 -0.8484
14825TIP3    H265967   5.381   0.199  11.924 -1.0172  0.7761 -0.1230
14826TIP3   OH265968   0.007   4.036  16.291  0.3527 -0.5690 -0.4345
14826TIP3    H165969  -0.011   4.025  16.385  1.7661  0.2526 -0.0485
14826TIP3    H265970  -0.022   4.125  16.272 -0.0217 -0.7697 -0.8135
14827TIP3   OH265971   0.970   3.038   2.360  0.3496 -0.2678  0.5963
14827TIP3    H165972   0.908   3.072   2.425  0.1134 -1.6640  1.1388
14827TIP3    H265973   1.053   3.081   2.382 -0.0789  0.4495  0.8448
14828TIP3   OH265974   4.702   1.369  14.920  0.4747 -0.3503  0.7332
14828TIP3    H165975   4.767   1.374  14.990 -0.9264  0.9557  2.0261
14828TIP3    H265976   4.670   1.279  14.923  0.9818 -0.5175  1.2605
14829TIP3   OH265977   0.993   2.448   0.897  0.0960 -0.1611  0.6554
14829TIP3    H165978   1.046   2.527   0.912 -1.2140  0.3857  2.7164
14829TIP3    H265979   1.053   2.375   0.918  0.8649  0.3256  0.2011
14830TIP3   OH265980   6.648   1.064   4.451  0.3814 -0.2468 -0.1245
14830TIP3    H165981   6.726   1.009   4.449  0.4352 -0.2772  1.4063
14830TIP3    H265982   6.681   1.152   4.468  0.2580  0.2351 -2.1209
14831TIP3   OH265983   3.277   4.515  11.284  1.0247 -0.3820 -0.2192
14831TIP3    H165984   3.209   4.482  11.225  2.4939  0.4441 -2.5251
14831TIP3    H265985   3.255   4.608  11.295  0.8409 -0.5008  0.4310
14832TIP3   OH265986   6.110   4.760  11.848  0.5429  0.1260  0.2002
14832TIP3    H165987   6.016   4.779  11.855  0.7060  1.3802 -0.6985
14832TIP3    H265988   6.118   4.670  11.880 -0.9304  0.0693  0.5027
14833TIP3   OH265989   3.708   3.289   2.390 -0.4341 -0.1184 -0.3298
14833TIP3    H165990   3.755   3.232   2.452 -1.2660  1.1947  1.5995
14833TIP3    H265991   3.765   3.293   2.313  0.8627 -1.4663  0.5074
14834TIP3   OH265992   4.217   6.613  16.079 -0.0406  0.0236 -0.5682
14834TIP3    H165993   4.242   6.560  16.155 -1.5683 -0.7614 -0.5695
14834TIP3    H265994   4.218   6.703  16.111 -1.2443 -0.3439  0.5766
14835TIP3   OH265995   2.217   2.808  11.127  0.1011  0.1029 -0.1994
14835TIP3    H165996   2.173   2.744  11.183 -1.0272 -0.7408 -1.9421
14835TIP3    H265997   2.184   2.788  11.039 -0.0905  2.9232 -0.8482
14836TIP3   OH265998   3.729   4.871  11.858 -0.0303 -0.0998 -0.2623
14836TIP3    H165999   3.698   4.825  11.780  0.7315 -0.7514 -0.1952
14836TIP3    H266000   3.650   4.910  11.896 -0.5656 -0.6571 -0.7829
14837TIP3   OH266001   1.768   0.172   3.850  0.0181 -0.1433  0.5630
14837TIP3    H166002   1.815   0.113   3.910  0.1329 -0.5860  0.0503
14837TIP3    H266003   1.817   0.166   3.768 -0.3225  0.2134  0.3319
14838TIP3   OH266004   5.349   2.761   3.971 -0.6381  0.3047  0.2581
14838TIP3    H166005   5.402   2.683   3.987  0.1322  0.3689 -1.6500
14838TIP3    H266006   5.376   2.823   4.039 -0.2633 -0.6051  0.9576
14839TIP3   OH266007   0.883   5.821  17.109 -0.0479 -0.3608  0.7072
14839TIP3    H166008   0.977   5.823  17.089 -0.1932 -0.0713  0.0110
14839TIP3    H266009   0.879   5.824  17.205  0.6429  0.1107  0.7328
14840TIP3   OH266010   5.052   6.693   1.995  0.3020 -0.5528  0.1781
14840TIP3    H166011   5.079   6.702   2.086  1.2670 -0.4393 -0.1011
14840TIP3    H266012   4.970   6.645   1.998 -0.0307  0.0681  1.1428
14841TIP3   OH266013   4.385   2.733  16.405 -0.3257 -0.8368 -0.1295
14841TIP3    H166014   4.369   2.644  16.375 -1.9719 -0.6075 -0.0262
14841TIP3    H266015   4.325   2.787  16.354  2.9640  0.7398 -2.6994
14842TIP3   OH266016   3.884   5.563  11.435 -0.2205  0.8890  0.1233
14842TIP3    H166017   3.960   5.537  11.383 -0.9340  0.3371 -0.6772
14842TIP3    H266018   3.921   5.613  11.508  1.0519 -0.6637  0.6075
14843TIP3   OH266019   2.303   3.422   0.530 -0.2626  0.2603  0.2174
14843TIP3    H166020   2.390   3.389   0.506  0.2409 -0.5557  2.7973
14843TIP3    H266021   2.289   3.497   0.473  0.9856 -1.0974 -2.0428
14844TIP3   OH266022   3.485   0.751  15.415 -0.5977 -0.0027 -0.1635
14844TIP3    H166023   3.418   0.702  15.463  1.4640 -0.7388  2.1370
14844TIP3    H266024   3.473   0.725  15.324 -2.9511 -0.6467  0.2617
14845TIP3   OH266025   3.072   2.167   4.545  0.1684 -0.2015 -0.2739
14845TIP3    H166026   3.148   2.176   4.488  0.6365  0.7932  0.4657
14845TIP3    H266027   3.038   2.256   4.554 -0.2105 -0.4188  0.5646
14846TIP3   OH266028   5.222   5.827   1.276  0.1472  0.1979 -0.1714
14846TIP3    H166029   5.228   5.892   1.345  0.2380  0.6700 -0.6192
14846TIP3    H266030   5.312   5.800   1.260  0.1219  0.0557 -0.0753
14847TIP3   OH266031   6.004   6.228   3.622  0.0276 -0.0847  0.4903
14847TIP3    H166032   6.051   6.211   3.703  1.0867 -2.2393 -0.5019
14847TIP3    H266033   5.919   6.187   3.634  0.7373 -1.7661 -0.0112
14848TIP3   OH266034   0.510   3.817   6.619 -0.1098 -0.7466  0.1926
14848TIP3    H166035   0.527   3.756   6.547  0.7534  0.1031 -0.3447
14848TIP3    H266036   0.573   3.794   6.687  0.5520 -0.1593 -0.2071
14849TIP3   OH266037   2.973   6.615   0.176  0.8318  0.6945 -0.0124
14849TIP3    H166038   2.929   6.633   0.092  2.3580  2.3687 -0.5021
14849TIP3    H266039   2.910   6.644   0.242  0.1767  0.6693 -0.6069
14850TIP3   OH266040   2.819   0.723   6.021 -0.1108  0.1819  0.1662
14850TIP3    H166041   2.798   0.705   6.113 -0.2127  0.8540  0.2798
14850TIP3    H266042   2.874   0.801   6.024  1.1116 -0.6397 -0.2439
14851TIP3   OH266043   0.444   2.573   4.201 -0.2277 -0.4121  0.4990
14851TIP3    H166044   0.412   2.663   4.202 -0.8265 -0.6084  0.1766
14851TIP3    H266045   0.376   2.523   4.248 -0.1228 -0.7545  0.2938
14852TIP3   OH266046   3.872   0.505   0.244 -0.2127 -0.1027 -0.1325
14852TIP3    H166047   3.854   0.521   0.337  0.3414  0.4286 -0.1078
14852TIP3    H266048   3.803   0.445   0.216 -1.2037  0.8015  0.2876
14853TIP3   OH266049   6.758   4.437   0.173 -0.2757  0.5262 -0.1955
14853TIP3    H166050   6.790   4.464   0.087  0.6320 -1.0686 -0.3933
14853TIP3    H266051   6.678   4.388   0.154  0.0017  0.0504 -0.1580
14854TIP3   OH266052   3.680   0.305  16.817 -0.0603  0.0065  0.1400
14854TIP3    H166053   3.720   0.381  16.859  0.1424  0.6578 -1.1775
14854TIP3    H266054   3.588   0.329  16.807  0.3016  0.7768 -1.7046
14855TIP3   OH266055   5.881   4.218   0.017 -0.1226 -0.0155  0.4640
14855TIP3    H166056   5.850   4.301  -0.021  1.8806  0.2433 -0.7236
14855TIP3    H266057   5.922   4.172  -0.057  0.1193 -1.4144  1.4340
14856TIP3   OH266058   0.826   6.599  15.603 -0.3448  0.1018  0.7109
14856TIP3    H166059   0.857   6.574  15.516 -2.2330 -3.0478  0.7618
14856TIP3    H266060   0.902   6.586  15.660  0.2279 -0.3572 -0.1330
14857TIP3   OH266061   5.932   6.034   3.381  0.5028  0.2569 -0.1910
14857TIP3    H166062   5.849   6.029   3.427 -0.0031 -1.2744 -1.1892
14857TIP3    H266063   5.942   6.127   3.357  0.1601  0.8380  1.7899
14858TIP3   OH266064   3.037   4.989   1.249 -1.0300 -0.1697 -0.5618
14858TIP3    H166065   3.059   5.032   1.166 -2.4050  0.4194 -0.6565
14858TIP3    H266066   3.100   4.918   1.257 -0.2900  0.3320 -1.6564
14859TIP3   OH266067   3.943   4.971   4.006 -0.3101  0.0692  0.1924
14859TIP3    H166068   3.903   4.901   4.059 -1.5813  1.5364  1.2618
14859TIP3    H266069   4.022   4.995   4.055 -1.7110  1.7246  1.7874
14860TIP3   OH266070   5.073   0.904   2.846 -0.2193  0.4805 -0.3291
14860TIP3    H166071   5.118   0.977   2.803  0.6196 -0.7668 -1.6434
14860TIP3    H266072   5.012   0.871   2.780  0.0298 -0.5541 -0.0521
14861TIP3   OH266073   3.289   1.499  13.739 -0.1526 -0.4685 -0.8042
14861TIP3    H166074   3.349   1.548  13.683  0.8087  0.6734  1.1130
14861TIP3    H266075   3.326   1.412  13.745  2.6080  0.7219  1.9494
14862TIP3   OH266076   2.725   3.710  12.606  0.1312 -0.0230  0.2245
14862TIP3    H166077   2.782   3.667  12.542  2.0943  0.6272  1.4253
14862TIP3    H266078   2.785   3.767  12.656 -1.8022  1.6172  0.7907
14863TIP3   OH266079   5.024   4.655   2.802 -0.5218 -0.2029  0.2744
14863TIP3    H166080   5.113   4.620   2.801 -1.9454 -4.3839  1.5058
14863TIP3    H266081   5.013   4.690   2.891 -0.3916 -0.5633  0.4341
14864TIP3   OH266082   0.221   0.234  13.230  0.3500 -0.5909  0.5963
14864TIP3    H166083   0.195   0.192  13.148 -0.3696  1.3004 -0.2130
14864TIP3    H266084   0.147   0.218  13.289 -0.3183  0.2191  0.0136
14865TIP3   OH266085   4.427   0.108  13.194  0.5072 -0.0680 -0.0921
14865TIP3    H166086   4.425   0.197  13.228  0.8982 -1.3595  3.8881
14865TIP3    H266087   4.347   0.068  13.227  1.3688 -1.7353  0.1149
14866TIP3   OH266088   4.808   5.958  15.294  0.6422 -0.4338 -0.9153
14866TIP3    H166089   4.747   5.987  15.362  1.9658 -0.5358  0.3665
14866TIP3    H266090   4.790   5.864  15.285  0.1049 -0.3190 -1.1053
14867TIP3   OH266091   0.567   1.142  14.815 -0.0337  1.0336 -0.1667
14867TIP3    H166092   0.560   1.230  14.779  1.5157  0.5086 -1.9073
14867TIP3    H266093   0.654   1.112  14.788 -0.8463 -1.3505 -0.3755
14868TIP3   OH266094   6.165   0.086   1.524 -0.1341 -0.3950  0.1644
14868TIP3    H166095   6.254   0.062   1.500 -0.0369 -0.4095  0.5248
14868TIP3    H266096   6.175   0.143   1.601 -0.4063  0.1155 -0.1718
14869TIP3   OH266097   5.935   1.823  12.859  0.2077  0.7224 -0.3185
14869TIP3    H166098   5.965   1.788  12.774  1.6102 -0.1128  0.4713
14869TIP3    H266099   5.997   1.786  12.922 -0.3135  2.0017  0.9759
14870TIP3   OH266100   3.935   1.317   0.467  0.2230  0.3353 -0.3868
14870TIP3    H166101   3.841   1.330   0.477  0.1463 -0.3672 -0.1700
14870TIP3    H266102   3.967   1.306   0.557  0.4664  0.2418 -0.4844
14871TIP3   OH266103   3.614   6.363  14.109  0.5237  0.2483  0.2586
14871TIP3    H166104   3.629   6.275  14.144  0.5895  0.0902 -0.1675
14871TIP3    H266105   3.700   6.392  14.078  0.5152  0.4908  0.4524
14872TIP3   OH266106   1.206   2.666   2.768 -0.6625 -0.0298 -0.3275
14872TIP3    H166107   1.230   2.608   2.695  0.6246 -0.8526  0.7065
14872TIP3    H266108   1.146   2.613   2.820 -0.0255 -0.1925  0.2515
14873TIP3   OH266109   1.690   1.488   1.174 -0.3368 -0.1732  0.6325
14873TIP3    H166110   1.660   1.562   1.121 -1.6705 -1.1686 -0.0565
14873TIP3    H266111   1.750   1.440   1.118  0.5327  0.3609  1.0819
14874TIP3   OH266112   5.458   5.243   4.948 -0.1819  0.1466 -0.7945
14874TIP3    H166113   5.437   5.150   4.950 -0.4415  0.1521  2.3889
14874TIP3    H266114   5.377   5.286   4.921 -0.5136 -0.4823 -0.8041
14875TIP3   OH266115   3.898   2.518  11.522  0.6650 -0.8813  0.2673
14875TIP3    H166116   3.855   2.436  11.548  2.4402 -1.4012  1.8335
14875TIP3    H266117   3.871   2.582  11.587  2.6758 -1.3897  1.6958
14876TIP3   OH266118   0.345   0.383  12.248 -0.1818 -0.2306  0.0591
14876TIP3    H166119   0.340   0.396  12.343 -0.5417 -0.8559  0.1318
14876TIP3    H266120   0.437   0.394  12.226 -0.0598 -0.3310  0.5227
14877TIP3   OH266121   5.601   6.761  11.310  0.3526  0.4102 -0.0899
14877TIP3    H166122   5.640   6.807  11.383  2.9770 -2.1418  0.3314
14877TIP3    H266123   5.629   6.810  11.233  0.1075  1.4295  0.4507
14878TIP3   OH266124   0.995   3.877  13.577  0.2506  0.0753 -0.9874
14878TIP3    H166125   0.928   3.836  13.522  0.0839  0.0701 -0.7836
14878TIP3    H266126   0.969   3.855  13.667  0.0550  0.7755 -0.8608
14879TIP3   OH266127   3.388   0.224   3.744  0.0827 -0.5128  0.3272
14879TIP3    H166128   3.458   0.228   3.679  1.3988  3.2060  1.6673
14879TIP3    H266129   3.308   0.238   3.695  0.5124 -2.0874 -0.9126
14880TIP3   OH266130   6.716   1.162   5.531  0.1561  0.4113  0.5514
14880TIP3    H166131   6.624   1.144   5.553 -0.3347  2.9112  0.8039
14880TIP3    H266132   6.715   1.250   5.494  2.2588 -0.1455 -0.9919
14881TIP3   OH266133   2.497   4.824  12.542 -0.6501 -0.4755  0.3728
14881TIP3    H166134   2.542   4.908  12.526 -1.5116 -0.1965 -0.7809
14881TIP3    H266135   2.568   4.760  12.550 -0.0102  0.1262 -0.2801
14882TIP3   OH266136   0.459   2.526   2.745  0.2916 -0.2097 -0.3835
14882TIP3    H166137   0.398   2.599   2.737 -1.6643 -1.8170 -0.8825
14882TIP3    H266138   0.434   2.483   2.827  0.7063 -0.9218 -0.6189
14883TIP3   OH266139   1.472   2.187  15.672  0.4606  0.1918  0.0385
14883TIP3    H166140   1.565   2.179  15.648 -0.2362 -1.0635 -2.6367
14883TIP3    H266141   1.439   2.098  15.669 -0.7724  0.5669  1.4209
14884TIP3   OH266142   5.222   1.479   2.404  0.0641 -0.0042 -0.5435
14884TIP3    H166143   5.219   1.573   2.387  0.0879 -0.1843 -1.6559
14884TIP3    H266144   5.230   1.472   2.499 -3.6701  1.0483  0.0037
14885TIP3   OH266145   3.680   4.778   2.891 -0.4626 -0.5032  0.4289
14885TIP3    H166146   3.717   4.856   2.932  1.4377 -1.5335  0.8247
14885TIP3    H266147   3.721   4.774   2.805 -0.7078 -0.9429  0.3300
14886TIP3   OH266148   6.320   5.390  17.011  0.1080 -0.0568 -0.0321
14886TIP3    H166149   6.284   5.334  16.942  0.1014 -1.1753  0.8389
14886TIP3    H266150   6.283   5.476  16.995  1.5625  0.2050 -2.5371
14887TIP3   OH266151   5.465   1.795  12.396  0.1086  0.0559  0.4923
14887TIP3    H166152   5.454   1.763  12.485  1.5086 -1.0701  0.2969
14887TIP3    H266153   5.380   1.778  12.354 -0.2766 -0.2220  1.3543
14888TIP3   OH266154   6.715   2.833  13.552  0.1027  0.9521  0.3652
14888TIP3    H166155   6.704   2.761  13.614  0.2119  1.4542  0.9857
14888TIP3    H266156   6.748   2.905  13.605  1.2108  1.0877 -0.4768
14889TIP3   OH266157   3.273   4.069  17.014  0.1793  0.7252 -0.4724
14889TIP3    H166158   3.202   4.127  17.039  0.6877  1.0437  0.2484
14889TIP3    H266159   3.348   4.099  17.064  0.1085 -1.4729  1.0716
14890TIP3   OH266160   0.859   2.414  17.029 -0.7728  0.1722  0.0141
14890TIP3    H166161   0.785   2.457  17.072 -1.1022 -0.4737  0.1109
14890TIP3    H266162   0.937   2.455  17.066 -1.0650  0.0632  0.7621
14891TIP3   OH266163   1.240   6.708  14.783  0.1349  0.5618  0.1544
14891TIP3    H166164   1.213   6.672  14.867  1.0610  1.4298  0.8464
14891TIP3    H266165   1.335   6.708  14.786  0.1877  0.3408 -1.0182
14892TIP3   OH266166   1.094   5.462  13.872  0.4478 -0.0349  0.2250
14892TIP3    H166167   1.055   5.409  13.803  1.1694 -0.5960  0.2305
14892TIP3    H266168   1.055   5.549  13.862 -1.6733 -0.8371  0.9653
14893TIP3   OH266169   5.324   0.047  11.204  0.0250 -0.2006 -0.1010
14893TIP3    H166170   5.307  -0.033  11.155  0.4530 -1.0446  1.0804
14893TIP3    H266171   5.418   0.060  11.198  0.1131 -0.4368  0.6636
14894TIP3   OH266172   2.325   1.771  14.394 -0.5792  0.1053  0.0981
14894TIP3    H166173   2.414   1.763  14.360 -0.5857 -0.0650  0.1208
14894TIP3    H266174   2.296   1.681  14.406 -0.7809  0.1603  0.0221
14895TIP3   OH266175   2.538   3.317  11.380  0.4541 -0.3105  0.5326
14895TIP3    H166176   2.562   3.247  11.440  0.0363 -0.9133  0.0101
14895TIP3    H266177   2.559   3.283  11.293 -1.7830 -0.7060  0.0760
14896TIP3   OH266178   0.415   3.974  15.980  0.3631  0.0281  0.4302
14896TIP3    H166179   0.329   3.933  15.974  0.3664 -0.2661  1.9531
14896TIP3    H266180   0.477   3.901  15.973  0.5498  0.2953 -1.2252
14897TIP3   OH266181   0.969   0.904  13.637 -0.1456 -0.4587  0.2944
14897TIP3    H166182   1.057   0.867  13.642 -0.3502 -0.9418  0.4320
14897TIP3    H266183   0.934   0.894  13.726  0.5247  1.9497  0.8988
14898TIP3   OH266184   5.718   2.033   4.632  0.3806  0.0698  0.1526
14898TIP3    H166185   5.761   2.098   4.577 -0.8747 -0.5657 -1.7225
14898TIP3    H266186   5.639   2.009   4.582 -0.7776 -0.6555  2.2119
14899TIP3   OH266187   4.202   4.371  13.404 -0.3222  0.4158  0.1237
14899TIP3    H166188   4.278   4.410  13.361 -0.5371 -0.3419 -0.9980
14899TIP3    H266189   4.127   4.419  13.368 -0.4104  0.9590  1.0019
14900TIP3   OH266190   1.089   5.433   2.661 -0.3569  0.1874  0.5890
14900TIP3    H166191   1.002   5.418   2.623  0.1427  0.9763 -0.9528
14900TIP3    H266192   1.072   5.445   2.755 -1.3848 -4.0827  1.1630
14901TIP3   OH266193   2.827   2.862  12.491  0.3242  0.4431 -0.0219
14901TIP3    H166194   2.789   2.948  12.472  0.4666  0.2003 -1.4449
14901TIP3    H266195   2.788   2.838  12.576 -1.5986  0.8406 -0.7403
14902TIP3   OH266196   2.732   5.536  11.756  0.5879 -0.3949  0.1203
14902TIP3    H166197   2.670   5.595  11.712  0.2976 -1.1050 -0.4444
14902TIP3    H266198   2.676   5.468  11.794  1.0206 -1.1752 -0.5990
14903TIP3   OH266199   1.939   3.525  10.329 -0.0459  0.1169 -0.4220
14903TIP3    H166200   1.848   3.529  10.357 -0.3452  0.4669 -1.3849
14903TIP3    H266201   1.987   3.489  10.404 -1.1644 -1.3112 -0.3624
14904TIP3   OH266202   6.399   0.264   4.665  0.7096 -0.2081  0.1068
14904TIP3    H166203   6.325   0.324   4.676  0.4081 -0.7727  1.3118
14904TIP3    H266204   6.473   0.321   4.642 -0.0203  0.3921 -0.8035
14905TIP3   OH266205   2.631   1.565   2.678 -0.4967  0.2223 -0.0611
14905TIP3    H166206   2.577   1.504   2.628 -0.0368  2.5561 -3.8060
14905TIP3    H266207   2.721   1.537   2.662 -0.3480  0.8761 -0.4208
14906TIP3   OH266208   1.221   0.099  14.063  0.3487 -0.3568 -0.1928
14906TIP3    H166209   1.149   0.037  14.073  0.2770 -0.0651  1.4348
14906TIP3    H266210   1.187   0.165  14.002  0.4818 -1.9394 -2.0535
14907TIP3   OH266211   0.783   3.466  13.435 -0.2500  0.2376  0.2333
14907TIP3    H166212   0.819   3.425  13.514 -0.1646  0.4801  0.3203
14907TIP3    H266213   0.826   3.421  13.363  0.1367  0.4434  0.3351
14908TIP3   OH266214   1.691   3.581   1.838 -0.0639  0.2064 -0.4122
14908TIP3    H166215   1.697   3.487   1.824  1.9067  0.3685 -1.0540
14908TIP3    H266216   1.734   3.619   1.761 -0.6167  1.6210 -0.0543
14909TIP3   OH266217   3.592   4.709  11.683 -0.0511  0.2944 -0.2628
14909TIP3    H166218   3.499   4.713  11.662 -0.4359  0.4547  1.3046
14909TIP3    H266219   3.610   4.615  11.693  0.0881  0.2312 -1.0824
14910TIP3   OH266220   1.684   0.536  12.940  0.6295 -0.1053 -0.1661
14910TIP3    H166221   1.702   0.630  12.933  1.5858 -0.1297  1.4725
14910TIP3    H266222   1.706   0.514  13.030  1.6584 -2.1707 -0.8541
14911TIP3   OH266223   4.692   0.340   4.948 -0.0008  0.3398  0.7798
14911TIP3    H166224   4.770   0.365   4.997  0.1846  0.1890  0.5622
14911TIP3    H266225   4.623   0.334   5.014  0.0111  1.1721  0.8737
14912TIP3   OH266226   6.731   0.994  10.995  0.0619  0.4198 -0.2961
14912TIP3    H166227   6.646   0.967  10.961 -1.2262  1.1943  2.0513
14912TIP3    H266228   6.735   0.955  11.083  2.0147  0.6632 -0.2344
14913TIP3   OH266229   5.780   4.355  14.779 -0.0343 -0.2378 -0.0423
14913TIP3    H166230   5.734   4.305  14.846  0.0585 -1.3283 -0.7863
14913TIP3    H266231   5.769   4.306  14.698  0.1542  0.8806 -0.7793
14914TIP3   OH266232   4.269   0.632  12.274 -0.6684 -0.1625  0.0420
14914TIP3    H166233   4.247   0.676  12.356  0.7123  0.5276  0.0636
14914TIP3    H266234   4.255   0.539  12.292  0.1276 -0.0759  1.2503
14915TIP3   OH266235   1.749   6.277  16.012  0.8722 -0.2564 -0.4571
14915TIP3    H166236   1.766   6.190  16.049  1.2450 -0.4307 -1.0235
14915TIP3    H266237   1.836   6.309  15.987  0.8923  0.7988  0.8657
14916TIP3   OH266238   4.850   6.115  14.846  0.1926 -0.1796 -0.3788
14916TIP3    H166239   4.874   6.108  14.939 -0.7095  1.7581  0.0673
14916TIP3    H266240   4.933   6.124  14.800  0.7113 -2.2372  0.0877
14917TIP3   OH266241   2.034   3.456   4.236 -0.5619 -0.0650  0.5519
14917TIP3    H166242   2.042   3.453   4.331 -1.2250  1.7705  0.7052
14917TIP3    H266243   1.940   3.466   4.220 -0.3109  1.2723 -0.2035
14918TIP3   OH266244   0.722   4.954  15.658 -0.5022 -0.1611 -0.4993
14918TIP3    H166245   0.653   4.899  15.619  0.3615 -0.3935 -1.7537
14918TIP3    H266246   0.754   5.007  15.585  2.2400 -1.7122 -0.5631
14919TIP3   OH266247   1.807   1.397   1.825 -0.8033 -0.2160 -0.5681
14919TIP3    H166248   1.862   1.435   1.756  0.8185  0.6274  1.1064
14919TIP3    H266249   1.783   1.311   1.790  0.3734 -0.0225 -1.9868
14920TIP3   OH266250   5.288   0.852   3.581  0.4039  0.2657 -0.2053
14920TIP3    H166251   5.335   0.819   3.504 -0.1239  0.3849 -0.5846
14920TIP3    H266252   5.350   0.842   3.653  0.3894 -1.2366 -0.3705
14921TIP3   OH266253   0.227   3.784  11.894 -0.3887 -0.3555  0.3377
14921TIP3    H166254   0.252   3.692  11.907 -0.1719 -0.0633  2.4929
14921TIP3    H266255   0.132   3.785  11.907 -0.5165 -0.3822 -0.5419
14922TIP3   OH266256   3.025   5.478   5.412  0.4678 -0.3783  0.1151
14922TIP3    H166257   2.942   5.465   5.366 -0.3964  0.2378  1.4448
14922TIP3    H266258   3.085   5.512   5.345 -0.8810  0.9175 -0.4812
14923TIP3   OH266259   5.142   3.750   4.264 -0.3805  0.0852 -0.2917
14923TIP3    H166260   5.082   3.822   4.282  1.9831  1.9723  0.6975
14923TIP3    H266261   5.136   3.737   4.169 -1.2217  1.2610 -0.4230
14924TIP3   OH266262   3.249   4.074   1.343  0.3810 -0.2147  0.1328
14924TIP3    H166263   3.198   4.144   1.383 -0.5074 -1.6520  1.6547
14924TIP3    H266264   3.293   4.115   1.268 -1.2597  1.5906  0.0929
14925TIP3   OH266265   2.496   1.687  11.417 -0.1518 -0.1347  0.0084
14925TIP3    H166266   2.579   1.724  11.445 -0.4539  1.9476 -1.6191
14925TIP3    H266267   2.478   1.729  11.333 -2.1565 -1.6160 -0.3748
14926TIP3   OH266268   1.269   5.304  11.576  0.1521  0.5837 -0.2844
14926TIP3    H166269   1.303   5.226  11.621 -1.8497 -1.0750 -1.4645
14926TIP3    H266270   1.183   5.318  11.616  1.5107  4.0522  1.9379
14927TIP3   OH266271   1.809   1.293  13.339 -0.4204  0.4871  0.2072
14927TIP3    H166272   1.793   1.387  13.331  0.1220  0.7185  1.6616
14927TIP3    H266273   1.864   1.272  13.264  0.1339  1.4935  0.3192
14928TIP3   OH266274   3.985   0.063   1.630 -0.0854 -0.1144  0.8646
14928TIP3    H166275   3.897   0.100   1.633  0.0025  0.1808  0.0850
14928TIP3    H266276   4.016   0.082   1.541  0.5928 -0.6060  0.9864
14929TIP3   OH266277   4.364   0.229  15.762 -0.5430  0.2608 -0.0300
14929TIP3    H166278   4.450   0.193  15.742 -0.7221 -0.5226  0.5168
14929TIP3    H266279   4.354   0.217  15.857 -1.1412  0.5683 -0.0470
14930TIP3   OH266280   3.747   0.749  14.012 -0.6938  0.2769 -0.0638
14930TIP3    H166281   3.833   0.725  14.047 -0.7748  1.1360  0.7489
14930TIP3    H266282   3.761   0.755  13.917  0.0671  0.1103  0.0305
14931TIP3   OH266283   3.879   3.225   0.505 -0.5417  0.1076  0.9278
14931TIP3    H166284   3.912   3.144   0.545  0.1433  0.3985  0.9571
14931TIP3    H266285   3.906   3.220   0.414  0.1536  0.6428  1.0959
14932TIP3   OH266286   6.612   3.316  16.113  0.0146 -0.5709 -0.3264
14932TIP3    H166287   6.571   3.351  16.034 -0.5573 -0.9438 -0.2004
14932TIP3    H266288   6.544   3.324  16.180  0.7971  0.6168  0.3732
14933TIP3   OH266289   3.028   2.973   4.894 -0.1316  0.7475 -0.2634
14933TIP3    H166290   3.067   2.896   4.937  0.4525  2.0613  1.7234
14933TIP3    H266291   2.959   2.937   4.839 -0.5777 -1.1396  1.4064
14934TIP3   OH266292   0.595   3.996  10.431 -0.4783  0.1190 -0.3952
14934TIP3    H166293   0.611   4.017  10.339  0.2662  0.2374 -0.2417
14934TIP3    H266294   0.560   4.077  10.469 -2.0240 -0.2997 -0.8557
14935TIP3   OH266295   6.573   6.676  12.144 -0.4228 -0.5713  0.9744
14935TIP3    H166296   6.593   6.591  12.104  0.7277  1.1377 -2.4662
14935TIP3    H266297   6.655   6.704  12.185 -0.3570 -0.4612  0.7682
14936TIP3   OH266298   4.109   0.098   3.605 -0.0123 -0.5767 -0.4020
14936TIP3    H166299   4.116   0.004   3.620  0.2582 -0.5074 -0.0820
14936TIP3    H266300   4.199   0.127   3.588  0.2358 -0.0424  1.5703
14937TIP3   OH266301   6.181   4.339  13.993  0.5030  0.4564 -0.0705
14937TIP3    H166302   6.262   4.302  14.025  0.2309  0.1012  0.2091
14937TIP3    H266303   6.141   4.381  14.069 -0.7650 -1.4835  0.3943
14938TIP3   OH266304   6.183   3.260   2.829  0.1619  0.4946 -0.2859
14938TIP3    H166305   6.270   3.238   2.861 -0.3647 -1.2661 -0.0015
14938TIP3    H266306   6.199   3.301   2.744  1.2641 -0.0384 -0.3508
14939TIP3   OH266307   6.053   4.495   5.708  0.3043  0.2035  0.0156
14939TIP3    H166308   5.999   4.430   5.753  0.9838  0.3991  1.1531
14939TIP3    H266309   5.993   4.536   5.645 -1.1830  1.1775  1.9769
14940TIP3   OH266310   1.762   4.841  12.225 -0.2548  0.1049 -0.2357
14940TIP3    H166311   1.848   4.828  12.264 -1.3070  2.1830  3.2041
14940TIP3    H266312   1.780   4.874  12.137  2.3939 -0.2504  0.0964
14941TIP3   OH266313   2.783   3.832   5.893 -0.3544  0.4777  0.5527
14941TIP3    H166314   2.691   3.838   5.920 -0.7696  0.3760 -0.7482
14941TIP3    H266315   2.828   3.899   5.943 -0.9159 -0.2470  2.0854
14942TIP3   OH266316   6.824   5.441  12.764 -0.6648  0.0338 -0.0061
14942TIP3    H166317   6.804   5.527  12.729 -1.5149 -1.1797 -2.7396
14942TIP3    H266318   6.740   5.409  12.798 -0.7946 -0.4857 -0.8078
14943TIP3   OH266319   4.915   1.074  12.121  0.6118  0.7280 -0.6343
14943TIP3    H166320   4.874   0.990  12.103 -0.0667  0.9577 -0.1860
14943TIP3    H266321   4.917   1.080  12.216 -0.2208  1.6338 -0.6610
14944TIP3   OH266322   4.860   3.755   2.655 -0.0449 -0.9215  0.2366
14944TIP3    H166323   4.865   3.666   2.619  1.5305 -1.4459  1.6445
14944TIP3    H266324   4.927   3.757   2.723 -0.4759  1.1719  0.6532
14945TIP3   OH266325   3.366   5.206  16.418 -0.2035 -0.0464  0.5140
14945TIP3    H166326   3.377   5.300  16.433 -2.2945  0.1842  0.9176
14945TIP3    H266327   3.379   5.195  16.323 -0.8848  0.8233  0.3052
14946TIP3   OH266328   1.211   4.138  17.132  0.2517  0.1708  0.3181
14946TIP3    H166329   1.300   4.117  17.160  0.6765  1.0404 -0.3277
14946TIP3    H266330   1.212   4.233  17.120 -0.2146 -0.0344 -1.5639
14947TIP3   OH266331   5.872   6.165  14.898  0.0277 -0.2527 -0.0144
14947TIP3    H166332   5.886   6.237  14.960  0.8637  0.5022 -1.0469
14947TIP3    H266333   5.934   6.182  14.827 -1.1575 -0.8939 -1.2425
14948TIP3   OH266334   5.937   3.445  14.226 -0.5793 -0.4984 -0.2112
14948TIP3    H166335   5.879   3.432  14.302  0.5565 -1.2055  0.5721
14948TIP3    H266336   5.908   3.528  14.188  0.0268  0.9041  2.1518
14949TIP3   OH266337   3.485   4.598  15.550 -0.1513 -0.0802 -0.2453
14949TIP3    H166338   3.559   4.606  15.490 -0.7354 -0.5200 -1.0410
14949TIP3    H266339   3.459   4.506  15.546 -1.3704  0.2639 -0.7607
14950TIP3   OH266340   3.244   3.579   2.335 -0.0476  0.4284 -0.2108
14950TIP3    H166341   3.306   3.526   2.384  0.0248  1.0491  0.3794
14950TIP3    H266342   3.249   3.546   2.245  0.7085  0.0985 -0.0479
14951TIP3   OH266343   2.280   2.542  11.039 -0.1438 -0.1101 -0.1003
14951TIP3    H166344   2.334   2.508  11.109  0.2571  0.8525  0.0732
14951TIP3    H266345   2.336   2.604  10.992 -0.6553 -0.1373 -0.7737
14952TIP3   OH266346   1.897   3.825   0.316 -0.2535 -0.3537  0.3137
14952TIP3    H166347   1.939   3.769   0.251 -0.2552  0.6849 -0.6091
14952TIP3    H266348   1.968   3.879   0.350 -0.6609  0.8011 -0.6209
14953TIP3   OH266349   2.618   5.411  13.429  0.8784  0.2520 -0.7770
14953TIP3    H166350   2.711   5.432  13.441  1.0515 -1.4624  1.8317
14953TIP3    H266351   2.608   5.325  13.469 -1.1507 -1.4081 -4.4269
14954TIP3   OH266352   1.965   3.568  17.098  0.4121 -0.2993  0.1603
14954TIP3    H166353   1.952   3.560  17.003 -0.4357 -1.7814  0.3689
14954TIP3    H266354   1.891   3.621  17.128  0.7587  0.2937 -0.0032
14955TIP3   OH266355   0.332   6.631  11.800 -0.8898 -0.2418  0.1548
14955TIP3    H166356   0.303   6.668  11.884 -1.0771 -1.0213  0.4375
14955TIP3    H266357   0.426   6.646  11.798 -0.9160 -0.0439  0.4142
14956TIP3   OH266358   4.549   1.457   2.590 -0.3576 -0.1231 -0.2629
14956TIP3    H166359   4.585   1.369   2.588  1.0203  0.4245 -0.9504
14956TIP3    H266360   4.502   1.466   2.508 -0.0945 -0.0594 -0.4070
14957TIP3   OH266361   1.001   2.659   1.981  0.0931  0.4940 -0.1124
14957TIP3    H166362   0.950   2.726   2.026  1.4556  1.2381  0.3512
14957TIP3    H266363   0.985   2.675   1.888  0.0039  1.1350  0.0102
14958TIP3   OH266364   2.793   2.150  16.616  0.5392  0.4165  0.2317
14958TIP3    H166365   2.770   2.239  16.592 -0.0607  0.1355 -0.2498
14958TIP3    H266366   2.813   2.107  16.533 -0.2016 -0.1868  0.3585
14959TIP3   OH266367   5.788   4.226   1.225  0.0842 -0.5815 -0.1377
14959TIP3    H166368   5.861   4.173   1.192  0.5000  0.0093 -0.1827
14959TIP3    H266369   5.774   4.194   1.314 -0.3000 -1.4174 -0.4901
14960TIP3   OH266370   3.366   4.477   2.082  0.5149 -0.4023 -0.3267
14960TIP3    H166371   3.335   4.562   2.111  1.4899  0.0930 -0.7189
14960TIP3    H266372   3.447   4.495   2.035  1.2038 -1.6280  0.3340
14961TIP3   OH266373   3.659   2.577   1.852  0.9192 -0.1042  1.0739
14961TIP3    H166374   3.643   2.648   1.915  0.2240  0.2681  0.4972
14961TIP3    H266375   3.753   2.559   1.859  0.8626 -0.0185  2.1564
14962TIP3   OH266376   2.722   0.486  10.727 -0.2227  0.1406 -0.0414
14962TIP3    H166377   2.634   0.500  10.692  0.1376  0.6190 -0.7741
14962TIP3    H266378   2.780   0.530  10.665  0.4992  0.2369  0.6890
14963TIP3   OH266379   0.569   2.654  12.637  0.3789 -0.3806 -0.3483
14963TIP3    H166380   0.541   2.582  12.694  1.3178 -1.9872 -1.8379
14963TIP3    H266381   0.495   2.669  12.578 -0.7725  1.5856  1.4502
14964TIP3   OH266382   1.986   2.004   4.500 -0.1881  0.1892  0.1047
14964TIP3    H166383   2.052   1.960   4.447 -1.7950 -1.4984 -0.6287
14964TIP3    H266384   1.943   1.934   4.548  0.4969  1.5586  2.9185
14965TIP3   OH266385   3.867   0.181  15.857 -0.3183 -0.0074  0.3863
14965TIP3    H166386   3.842   0.090  15.868 -0.7891  0.1523  0.6716
14965TIP3    H266387   3.948   0.178  15.806  0.3952 -0.6309  1.5401
14966TIP3   OH266388   3.543   0.835   6.061  0.3568 -0.0448  0.1695
14966TIP3    H166389   3.636   0.812   6.059  0.4970  0.5272 -0.7991
14966TIP3    H266390   3.506   0.781   6.131  1.5873  0.3700  1.1930
14967TIP3   OH266391   1.412   1.646   2.693 -0.0690 -0.2060 -0.3407
14967TIP3    H166392   1.432   1.733   2.659  0.9586 -0.0146  0.6993
14967TIP3    H266393   1.430   1.587   2.620 -0.0795  0.3922 -0.8319
14968TIP3   OH266394   1.122   2.819   4.876  0.0437 -0.2470 -0.8563
14968TIP3    H166395   1.074   2.741   4.847  0.4084 -0.2840 -1.3820
14968TIP3    H266396   1.057   2.889   4.874 -0.5227 -0.6975  0.5080
14969TIP3   OH266397   5.249   0.928   0.492  0.2297 -0.2006 -0.3852
14969TIP3    H166398   5.158   0.957   0.504  0.1567 -1.3656  2.9166
14969TIP3    H266399   5.302   1.005   0.511 -0.0576  0.0692 -0.6820
14970TIP3   OH266400   3.297   1.307   2.773 -0.3648  0.0204 -0.2771
14970TIP3    H166401   3.288   1.257   2.854 -2.1198 -0.1156 -0.5008
14970TIP3    H266402   3.232   1.267   2.714  1.0829 -0.0922 -1.8663
14971TIP3   OH266403   2.131   6.065  13.659 -0.5093 -0.1664 -0.0179
14971TIP3    H166404   2.079   6.139  13.628  0.8257  0.6581 -0.3509
14971TIP3    H266405   2.071   5.991  13.656 -1.7597  0.8105 -0.0651
14972TIP3   OH266406   6.250   1.699  12.734 -0.2664 -0.3885 -0.5244
14972TIP3    H166407   6.278   1.622  12.684 -0.6783 -0.5937 -0.4422
14972TIP3    H266408   6.238   1.767  12.668 -1.6233 -0.8882 -0.8270
14973TIP3   OH266409   2.596   2.778   1.652  0.0377  0.1179 -0.1145
14973TIP3    H166410   2.540   2.742   1.583  2.0461  1.4475 -2.6159
14973TIP3    H266411   2.568   2.732   1.731 -1.6725 -2.3220 -1.9537
14974TIP3   OH266412   1.528   3.386   4.907  0.1751  0.0659  0.2593
14974TIP3    H166413   1.495   3.315   4.962 -1.3450  1.9207  1.9225
14974TIP3    H266414   1.468   3.391   4.833 -0.2837  0.2038  0.6379
14975TIP3   OH266415   1.138   0.037   4.774  0.0087 -0.2123 -0.3095
14975TIP3    H166416   1.044   0.019   4.778  0.1055 -0.7867 -0.5700
14975TIP3    H266417   1.174  -0.030   4.716  0.1989  1.6069 -2.4437
14976TIP3   OH266418   0.306   6.254   5.189 -0.2178 -0.0625 -0.7524
14976TIP3    H166419   0.307   6.281   5.097  0.1253 -0.7933 -0.9761
14976TIP3    H266420   0.361   6.176   5.191 -1.1458 -0.7242 -0.1401
14977TIP3   OH266421   0.366   4.700   0.537  0.2461 -0.4613  0.0999
14977TIP3    H166422   0.438   4.755   0.506 -0.6045  0.0385 -1.0355
14977TIP3    H266423   0.301   4.762   0.570 -0.4675 -0.8072 -0.6435
14978TIP3   OH266424   3.922   1.176   2.672  0.5010  0.8033 -0.6889
14978TIP3    H166425   3.901   1.154   2.581  3.4156 -1.8963 -0.8787
14978TIP3    H266426   4.002   1.228   2.666  1.3699 -0.3691  0.3208
14979TIP3   OH266427   4.050   0.145  15.270  0.1644 -0.1918  0.6710
14979TIP3    H166428   4.130   0.167  15.224 -1.0010  0.9657 -0.9291
14979TIP3    H266429   4.072   0.069  15.323  1.7062 -1.3389 -1.4917
14980TIP3   OH266430   0.126   5.135   0.440  0.0950  0.0414  0.2253
14980TIP3    H166431   0.096   5.128   0.349  2.6926 -2.8719 -0.5765
14980TIP3    H266432   0.215   5.169   0.433  0.9183 -1.7125  1.4709
14981TIP3   OH266433   5.570   2.001  16.092 -0.1293 -0.3372 -0.4157
14981TIP3    H166434   5.595   1.968  16.006  0.0973  0.4123 -0.6448
14981TIP3    H266435   5.587   1.929  16.152 -0.4987 -0.9449 -1.0270
14982TIP3   OH266436   6.521   6.282  16.169 -0.5027  0.1559  0.5418
14982TIP3    H166437   6.506   6.347  16.101  3.4106 -0.1647 -0.8901
14982TIP3    H266438   6.570   6.330  16.236 -1.6189 -0.2869  1.7068
14983TIP3   OH266439   4.340   3.615   0.299  0.6770  0.8005  0.6130
14983TIP3    H166440   4.350   3.527   0.263  0.7091  0.3169  1.7384
14983TIP3    H266441   4.379   3.673   0.234  0.8688 -0.0390 -0.0340
14984TIP3   OH266442   1.660   5.526  13.745  0.1329 -0.3476 -0.7504
14984TIP3    H166443   1.620   5.442  13.724 -0.1367 -0.7888  1.3002
14984TIP3    H266444   1.753   5.508  13.754  0.0547 -0.4856 -0.1501
14985TIP3   OH266445   2.574   2.654  13.949  0.5323  0.4625 -0.1992
14985TIP3    H166446   2.626   2.721  13.904 -0.1521 -0.0681 -1.8540
14985TIP3    H266447   2.577   2.679  14.041 -0.4575  3.3159 -0.8433
14986TIP3   OH266448   4.157   6.384  15.184 -0.2992  0.0184 -0.1531
14986TIP3    H166449   4.207   6.403  15.104 -0.5154 -1.6434 -0.7172
14986TIP3    H266450   4.222   6.348  15.245 -0.2709  0.6271  0.1870
14987TIP3   OH266451   5.602   0.261   4.192 -0.5201 -0.6078  0.1697
14987TIP3    H166452   5.679   0.303   4.231 -0.6680  0.1518 -0.3445
14987TIP3    H266453   5.543   0.247   4.266 -0.2567 -0.3711  0.4273
14988TIP3   OH266454   4.592   4.535   1.382 -0.0870 -0.6005  0.3284
14988TIP3    H166455   4.647   4.460   1.405  0.3980 -0.4674 -0.3613
14988TIP3    H266456   4.567   4.519   1.291 -1.5381 -0.8603  0.7437
14989TIP3   OH266457   1.912   0.042   3.640  0.2350 -0.2182  0.0785
14989TIP3    H166458   1.879  -0.034   3.591  2.1351 -1.2628  0.3322
14989TIP3    H266459   1.886   0.118   3.587  1.4586 -1.2699 -2.1724
14990TIP3   OH266460   3.755   4.260  15.998  0.5206  0.4247  0.1820
14990TIP3    H166461   3.841   4.253  15.956  1.5284 -0.6581  2.2329
14990TIP3    H266462   3.775   4.267  16.092 -1.5472  3.4881  0.5483
14991TIP3   OH266463   1.631   4.726   0.346  0.1811  0.2354  0.0774
14991TIP3    H166464   1.556   4.677   0.380 -0.0877  0.6808  0.1345
14991TIP3    H266465   1.679   4.754   0.424 -0.0674  0.6834  0.0731
14992TIP3   OH266466   2.312   2.076   4.004  0.6490  0.1529  0.5603
14992TIP3    H166467   2.303   2.171   4.016 -0.9514  0.3242 -1.4607
14992TIP3    H266468   2.334   2.043   4.092  0.5982  2.2967  1.4471
14993TIP3   OH266469   6.831   1.286  14.757  0.7372 -0.3355  0.4662
14993TIP3    H166470   6.849   1.200  14.721 -1.0210 -1.4303  2.0235
14993TIP3    H266471   6.901   1.300  14.821  0.5136 -1.0408  0.8746
14994TIP3   OH266472   4.252   0.456  11.631 -0.1760 -0.3514  0.3112
14994TIP3    H166473   4.334   0.407  11.627 -0.7117 -1.1935 -1.4213
14994TIP3    H266474   4.192   0.407  11.575 -1.8397  0.3347  1.4177
14995TIP3   OH266475   6.792   3.351   1.522 -0.3595  0.0180 -0.5688
14995TIP3    H166476   6.857   3.281   1.521 -1.1382 -0.7211 -1.3157
14995TIP3    H266477   6.727   3.323   1.586 -0.6555  0.0719 -0.8423
14996TIP3   OH266478   6.608   3.542  12.536  0.0994  0.5822 -0.5494
14996TIP3    H166479   6.573   3.630  12.549  0.0557  0.8391 -2.1224
14996TIP3    H266480   6.697   3.557  12.503  0.1751  0.0289 -0.5954
14997TIP3   OH266481   5.186   5.935   2.376 -0.9912  0.2161  0.3740
14997TIP3    H166482   5.113   5.873   2.371  0.4016 -1.4697 -0.1800
14997TIP3    H266483   5.185   5.980   2.291 -1.5704  0.4614  0.5047
14998TIP3   OH266484   0.848   6.199   0.794  0.1926  0.0058  0.0984
14998TIP3    H166485   0.788   6.258   0.749 -0.4787 -0.0606  0.8720
14998TIP3    H266486   0.929   6.204   0.745 -0.5171 -0.0855 -1.1285
14999TIP3   OH266487   1.680   1.758   0.322 -0.2380  0.4300  0.8331
14999TIP3    H166488   1.666   1.852   0.327  0.4627  0.5257  1.1009
14999TIP3    H266489   1.629   1.730   0.245 -2.0747  0.6952  1.8971
15000TIP3   OH266490   5.227   0.048   0.808 -0.7164 -0.2698 -0.5905
15000TIP3    H166491   5.281   0.027   0.732  0.6982 -2.8671  0.9728
15000TIP3    H266492   5.266   0.127   0.844 -1.7934  1.3850 -2.7864
15001TIP3   OH266493   0.337   1.684   0.191 -0.7628 -0.1893  0.4480
15001TIP3    H166494   0.299   1.754   0.139  0.6682 -0.2397 -0.7193
15001TIP3    H266495   0.270   1.616   0.193 -1.4014  0.4174 -0.0859
15002TIP3   OH266496   0.246   0.037  11.191  0.3070  0.1538  0.1611
15002TIP3    H166497   0.269   0.127  11.168  0.0840  0.6560  1.7927
15002TIP3    H266498   0.220  -0.003  11.108 -4.5810  3.0200 -0.0574
15003TIP3   OH266499   3.637   1.868   5.412  0.0133 -0.1763 -0.1740
15003TIP3    H166500   3.633   1.873   5.507 -0.6036 -1.3281 -0.1219
15003TIP3    H266501   3.716   1.917   5.389 -1.5793  2.9823  0.6300
15004TIP3   OH266502   3.268   5.993   5.668 -0.6193  0.0660 -0.0523
15004TIP3    H166503   3.285   5.960   5.580  2.0801  0.6435  0.1603
15004TIP3    H266504   3.307   5.928   5.726 -1.5025  0.1826  0.6923
15005TIP3   OH266505   5.542   3.341   3.223  0.1883  0.3155 -0.0512
15005TIP3    H166506   5.552   3.394   3.302 -0.9933  0.0206  0.3157
15005TIP3    H266507   5.482   3.271   3.249 -1.6760  1.2038 -1.6419
15006TIP3   OH266508   4.413   6.510   1.727 -0.4050 -0.1798  0.4460
15006TIP3    H166509   4.462   6.486   1.648  0.7174 -0.3247  1.1602
15006TIP3    H266510   4.340   6.562   1.695  0.9883  1.2453 -0.5781
15007TIP3   OH266511   5.413   1.137  12.058 -0.0259 -0.4353  0.3757
15007TIP3    H166512   5.503   1.164  12.078 -0.0154 -0.9585  1.0619
15007TIP3    H266513   5.397   1.061  12.114 -0.4286 -1.1961 -0.7546
15008TIP3   OH266514   3.936   4.942  15.813  0.0082 -0.0181  0.3231
15008TIP3    H166515   4.000   4.909  15.876  1.1576  1.0801 -0.2439
15008TIP3    H266516   3.901   5.022  15.854 -0.4506 -0.1983  0.2919
15009TIP3   OH266517   5.562   0.607  14.586  0.7094 -0.4382 -0.4896
15009TIP3    H166518   5.576   0.524  14.633 -0.3223 -0.5765 -0.3962
15009TIP3    H266519   5.514   0.662  14.648  1.8304  0.4260 -0.3699
15010TIP3   OH266520   6.557   3.285  11.627 -0.2695  0.7739  0.0189
15010TIP3    H166521   6.596   3.361  11.584  0.0652  0.6921  0.1747
15010TIP3    H266522   6.558   3.307  11.720  0.6366  0.2231  0.1517
15011TIP3   OH266523   2.007   4.102  13.598  0.4012 -0.1904  0.1466
15011TIP3    H166524   2.063   4.100  13.676  0.5394 -1.3001  0.0400
15011TIP3    H266525   1.969   4.014  13.594  1.6563 -0.7041 -1.9300
15012TIP3   OH266526   5.399   3.093  11.563 -0.4798 -0.1249  0.1581
15012TIP3    H166527   5.456   3.125  11.633 -1.5873  3.8633 -0.5206
15012TIP3    H266528   5.325   3.053  11.609 -0.1872  0.5570  1.2619
15013TIP3   OH266529   3.188   4.745  11.987 -0.1206  0.6506  0.5375
15013TIP3    H166530   3.114   4.697  12.024  1.3328 -1.1491  1.2896
15013TIP3    H266531   3.205   4.816  12.049 -2.0111  1.9679 -0.3500
15014TIP3   OH266532   1.063   3.016  14.736 -0.2783  0.3813  0.3469
15014TIP3    H166533   1.155   3.035  14.752  0.4533 -1.5810 -1.1057
15014TIP3    H266534   1.041   3.068  14.659 -0.2511  0.4785  0.4043
15015TIP3   OH266535   0.174   4.805   0.700  0.0744  0.0600 -0.1790
15015TIP3    H166536   0.148   4.718   0.671 -1.9849  1.2837 -2.3195
15015TIP3    H266537   0.093   4.854   0.708  1.2839  2.3421 -0.9455
15016TIP3   OH266538   2.144   5.960  16.427  0.0771  0.1257  0.3692
15016TIP3    H166539   2.198   5.891  16.465  1.0110  0.0276 -1.0674
15016TIP3    H266540   2.202   6.005  16.366 -0.9084  1.3162  0.2714
15017TIP3   OH266541   2.856   0.076   1.178  0.0734 -0.4267 -0.4395
15017TIP3    H166542   2.904   0.113   1.104 -2.6224  0.4619 -1.8562
15017TIP3    H266543   2.798   0.011   1.139  0.2467 -1.6604  1.2465
15018TIP3   OH266544   6.115   0.448   4.858  0.0077  0.1891 -0.8207
15018TIP3    H166545   6.056   0.377   4.884  0.0586 -0.1523 -1.5967
15018TIP3    H266546   6.061   0.505   4.803  0.1622  0.3498 -0.8071
15019TIP3   OH266547   6.629   1.921  13.334  0.4001  0.5333  0.3419
15019TIP3    H166548   6.546   1.921  13.285  1.2404  1.1208 -1.1666
15019TIP3    H266549   6.668   1.836  13.312 -0.0092  0.0401  1.4628
15020TIP3   OH266550   4.241   3.901   3.947  0.3568  0.0520  0.3578
15020TIP3    H166551   4.187   3.893   4.026 -0.1636 -1.4044 -0.1138
15020TIP3    H266552   4.187   3.864   3.878  1.7091 -0.8489 -0.2500
15021TIP3   OH266553   1.021   2.137   1.228 -0.3201  0.3633 -0.4003
15021TIP3    H166554   1.071   2.181   1.159 -0.0564  0.9376  0.1530
15021TIP3    H266555   0.967   2.206   1.267  0.7676  0.4116  1.0729
15022TIP3   OH266556   4.919   2.783   6.238  0.0515  0.0102 -0.0913
15022TIP3    H166557   4.970   2.710   6.272 -1.0019 -1.6530 -1.9023
15022TIP3    H266558   4.828   2.755   6.245 -0.3817  1.1182 -0.8724
15023TIP3   OH266559   1.497   1.705   0.498 -0.3241 -0.1705 -0.6658
15023TIP3    H166560   1.514   1.652   0.576  1.2092  1.8187  0.4604
15023TIP3    H266561   1.573   1.690   0.441  0.2850  0.9625 -0.1973
15024TIP3   OH266562   4.745   1.760   2.071 -0.4089  0.1315  0.5079
15024TIP3    H166563   4.756   1.732   1.980  0.7814  2.1128 -0.0272
15024TIP3    H266564   4.686   1.835   2.066 -0.3272  0.2645  1.3728
15025TIP3   OH266565   5.155   3.981  16.361 -0.4593  0.1140 -0.1315
15025TIP3    H166566   5.096   4.017  16.294 -2.1783  1.4714  1.9723
15025TIP3    H266567   5.138   3.887  16.360 -0.6969  0.1480 -1.3453
15026TIP3   OH266568   6.088   1.342   0.826 -0.1292 -0.3556  0.4967
15026TIP3    H166569   6.077   1.357   0.920  0.1271 -2.3349  0.8969
15026TIP3    H266570   6.177   1.371   0.806  0.3950 -1.3772  1.2383
15027TIP3   OH266571   6.836   4.872  15.852  0.4510 -0.2010 -0.5812
15027TIP3    H166572   6.761   4.930  15.864  0.9867  0.9340 -2.3498
15027TIP3    H266573   6.816   4.796  15.906 -1.2299  0.7447  0.2112
15028TIP3   OH266574   0.086   5.954   3.630  0.1905  0.3175  0.2826
15028TIP3    H166575   0.006   5.938   3.581 -0.8682  0.9370  1.7270
15028TIP3    H266576   0.092   5.879   3.690 -1.4122  2.0076  2.7581
15029TIP3   OH266577   2.977   1.523  14.529  0.6069  0.2017  0.2253
15029TIP3    H166578   3.053   1.578  14.508 -0.4688  2.0821  1.0485
15029TIP3    H266579   2.932   1.511  14.445  1.6081 -0.6950 -0.2182
15030TIP3   OH266580   3.674   1.402   3.977  0.1164  0.0195 -0.0771
15030TIP3    H166581   3.646   1.419   3.887  1.5376 -0.4858 -0.6343
15030TIP3    H266582   3.658   1.309   3.990 -1.4102  0.3576  0.7056
15031TIP3   OH266583   5.275   3.147   2.401  0.3631 -0.2993 -0.2395
15031TIP3    H166584   5.311   3.232   2.426  1.5923 -1.1506  1.0070
15031TIP3    H266585   5.341   3.083   2.429 -1.1688 -1.7707  0.1755
15032TIP3   OH266586   4.726   4.760   1.343  0.0247 -0.0650 -0.0706
15032TIP3    H166587   4.684   4.795   1.422  1.5115  0.1197  0.6600
15032TIP3    H266588   4.697   4.669   1.339 -2.3556  0.6475 -0.9398
15033TIP3   OH266589   1.164   2.418  16.238 -0.4688  0.6888 -0.2655
15033TIP3    H166590   1.165   2.504  16.280  1.2361  2.0980 -2.9286
15033TIP3    H266591   1.075   2.409  16.204 -0.1096  2.4950 -1.8600
15034TIP3   OH266592   3.040   1.845  14.697 -0.0586 -0.2090 -0.2437
15034TIP3    H166593   2.991   1.901  14.757 -1.8164 -2.8897  1.0067
15034TIP3    H266594   3.131   1.857  14.722 -0.5609  0.4970  1.3900
15035TIP3   OH266595   6.257   3.941   3.512  0.2076 -0.3899  0.2861
15035TIP3    H166596   6.317   3.868   3.503 -0.6312 -0.8997 -1.7564
15035TIP3    H266597   6.170   3.903   3.497 -0.5971  0.4594  2.4043
15036TIP3   OH266598   3.096   1.296   6.101 -0.5382  0.3929  0.6698
15036TIP3    H166599   3.175   1.348   6.085  0.2514 -0.1853  2.4317
15036TIP3    H266600   3.127   1.206   6.104 -1.2411  0.1669  1.4636
15037TIP3   OH266601   0.157   1.754   1.585 -0.2561  0.1590  0.0140
15037TIP3    H166602   0.124   1.844   1.579  2.2187  1.2027  0.8878
15037TIP3    H266603   0.154   1.721   1.495  2.0852  2.4115 -1.0022
15038TIP3   OH266604   2.788   0.871  13.348  0.5391  0.4869  0.0942
15038TIP3    H166605   2.746   0.809  13.288  0.7218 -0.3257  0.7894
15038TIP3    H266606   2.828   0.937  13.290 -0.0222  0.1962 -0.6363
15039TIP3   OH266607   6.316   1.139  13.526  0.4541 -0.2426 -0.2272
15039TIP3    H166608   6.292   1.126  13.434 -1.0007  1.2297 -0.0970
15039TIP3    H266609   6.232   1.148  13.571  1.1804  0.1617  1.0767
15040TIP3   OH266610   0.645   1.316  13.820 -0.1488 -0.9411 -0.4839
15040TIP3    H166611   0.627   1.403  13.856  0.7210 -0.3142 -1.5100
15040TIP3    H266612   0.638   1.257  13.895  0.3554  0.1542  0.4533
15041TIP3   OH266613   2.880   2.299   1.864  0.0623  0.2291 -0.7051
15041TIP3    H166614   2.938   2.248   1.921 -1.0410 -0.8754 -0.5323
15041TIP3    H266615   2.809   2.239   1.842 -2.1317  2.1012  0.7531
15042TIP3   OH266616   1.505   5.221   4.290 -0.0295 -0.7158  0.4872
15042TIP3    H166617   1.561   5.238   4.366 -0.9732  0.2259  0.9897
15042TIP3    H266618   1.425   5.184   4.327 -1.2912  1.5444  0.2084
15043TIP3   OH266619   6.079   0.366  14.589 -0.3933  0.2447  0.3196
15043TIP3    H166620   6.124   0.427  14.648  1.0419 -0.5483  0.0747
15043TIP3    H266621   6.131   0.286  14.592  0.2346  0.4341 -2.6629
15044TIP3   OH266622   2.374   4.331  16.713  0.5017  0.4745  0.0537
15044TIP3    H166623   2.419   4.257  16.671  0.2607  0.9271 -1.0261
15044TIP3    H266624   2.325   4.373  16.642 -0.0254  1.1867  0.8211
15045TIP3   OH266625   3.657   2.375  10.966  0.5463  0.3662  0.4483
15045TIP3    H166626   3.693   2.287  10.969 -1.9544 -0.9935 -2.8510
15045TIP3    H266627   3.724   2.427  10.921  0.5538 -0.8745 -1.0743
15046TIP3   OH266628   6.610   2.629  13.708 -0.4535 -0.2509 -0.4841
15046TIP3    H166629   6.676   2.619  13.776 -0.4512 -0.2636 -0.4880
15046TIP3    H266630   6.538   2.675  13.751  0.1575  1.1102 -0.8801
15047TIP3   OH266631   4.061   1.105  15.947 -0.5089  0.2667  0.1846
15047TIP3    H166632   4.023   1.019  15.927  2.2657 -0.8243 -0.9206
15047TIP3    H266633   4.112   1.090  16.027  3.3303 -0.4191 -2.1300
15048TIP3   OH266634   1.174   3.847   1.633  0.1961 -0.7161 -0.0931
15048TIP3    H166635   1.106   3.804   1.582 -1.3770  1.2560  0.2009
15048TIP3    H266636   1.197   3.924   1.581  0.6498 -0.2263  0.8189
15049TIP3   OH266637   4.544   5.331   3.112 -0.7278 -0.0732  0.4863
15049TIP3    H166638   4.542   5.272   3.188  0.7417  1.4654  1.7880
15049TIP3    H266639   4.638   5.342   3.093 -0.9178  2.4241  0.7708
15050TIP3   OH266640   5.479   3.833  14.551  0.2118  0.3569  0.3725
15050TIP3    H166641   5.406   3.852  14.491  1.1355  0.2073 -0.8305
15050TIP3    H266642   5.443   3.767  14.610 -0.2986 -0.5953 -0.9397
15051TIP3   OH266643   4.739   3.406  12.601  0.3422 -0.1841 -0.5616
15051TIP3    H166644   4.681   3.480  12.583 -0.8667 -0.7318  0.8575
15051TIP3    H266645   4.683   3.329  12.586  0.4686 -0.7201  1.4371
15052TIP3   OH266646   1.573   2.732   2.701 -0.6901  0.0767  0.3584
15052TIP3    H166647   1.488   2.775   2.692 -0.1272  0.7763 -2.2504
15052TIP3    H266648   1.620   2.787   2.764 -1.4143  0.9034  0.2047
15053TIP3   OH266649   1.567   5.076   0.946 -0.3108  0.5196 -0.2900
15053TIP3    H166650   1.567   5.081   1.042  0.5054  1.7076 -0.3342
15053TIP3    H266651   1.476   5.094   0.921 -0.4742  0.4497  0.2419
15054TIP3   OH266652   0.158   1.891   5.754 -0.5365 -0.1338 -0.0527
15054TIP3    H166653   0.245   1.851   5.754 -0.8190 -0.7767  0.8114
15054TIP3    H266654   0.174   1.982   5.730  0.3161 -0.3552 -0.3754
15055TIP3   OH266655   6.704   1.833   1.728  0.0884 -1.8549  0.3616
15055TIP3    H166656   6.776   1.880   1.685 -0.3558 -0.3397  1.1890
15055TIP3    H266657   6.625   1.873   1.693 -0.3013 -1.5876  1.4958
15056TIP3   OH266658   1.330   6.410  12.642  0.3456 -0.0888  0.0928
15056TIP3    H166659   1.242   6.373  12.646 -0.5858  2.1091  2.4034
15056TIP3    H266660   1.322   6.485  12.583  0.9592 -0.5072 -0.5400
15057TIP3   OH266661   4.599   2.948   0.129 -0.0559 -0.1037 -0.2529
15057TIP3    H166662   4.645   3.021   0.169 -1.0999  0.7522 -0.5609
15057TIP3    H266663   4.617   2.873   0.186 -3.6446  1.5534  3.6019
15058TIP3   OH266664   1.536   6.002  14.653  1.1059 -0.4480  1.0246
15058TIP3    H166665   1.475   6.038  14.589  1.3447 -2.8159 -0.6933
15058TIP3    H266666   1.580   6.078  14.690  2.2174  1.1376 -2.9584
15059TIP3   OH266667   3.045   0.416  13.815 -0.0973  0.1493 -0.4476
15059TIP3    H166668   3.033   0.391  13.723 -1.0612 -1.0316 -0.0301
15059TIP3    H266669   3.140   0.420  13.827  0.0453 -0.3856 -1.3175
15060TIP3   OH266670   4.488   6.203  14.892 -0.1479  1.0201 -0.2492
15060TIP3    H166671   4.552   6.209  14.962 -1.3486 -0.8598  1.1037
15060TIP3    H266672   4.540   6.206  14.811  1.3320  2.4048  0.6909
15061TIP3   OH266673   3.322   2.404   1.739 -0.3897 -0.5809 -0.1535
15061TIP3    H166674   3.370   2.415   1.657 -1.5439  0.8986 -0.6748
15061TIP3    H266675   3.230   2.415   1.715 -0.9207 -2.1075  1.0270
15062TIP3   OH266676   5.863   5.594  13.690  0.4287  0.2712  0.6621
15062TIP3    H166677   5.785   5.545  13.665  0.6908  1.0206 -1.9381
15062TIP3    H266678   5.845   5.683  13.660  2.5330  0.3108 -0.6368
15063TIP3   OH266679   0.193   0.329   0.876  0.4187 -0.1845 -0.0883
15063TIP3    H166680   0.176   0.423   0.863 -1.4181 -0.6147 -1.0689
15063TIP3    H266681   0.112   0.286   0.849  1.2747 -2.0821  0.2415
15064TIP3   OH266682   5.269   2.668  12.637 -0.1457  0.5928 -0.0983
15064TIP3    H166683   5.209   2.663  12.563 -1.7674 -2.8673  1.1891
15064TIP3    H266684   5.296   2.577  12.651  2.5000  1.5569  1.7013
15065TIP3   OH266685   0.590   2.692   4.589 -0.7458  0.0985 -0.2598
15065TIP3    H166686   0.500   2.722   4.575 -0.7242 -0.3220 -1.3570
15065TIP3    H266687   0.583   2.629   4.661 -1.2954  0.2069 -0.2152
15066TIP3   OH266688   0.652   6.192   4.601  0.3802  0.3486 -0.0130
15066TIP3    H166689   0.693   6.106   4.601 -0.3244  0.0019  0.1768
15066TIP3    H266690   0.559   6.174   4.589  0.3443  1.1601 -1.0860
15067TIP3   OH266691   2.491   0.989   5.474 -0.1978 -0.5003  0.1021
15067TIP3    H166692   2.398   1.003   5.457  0.2322  1.8945 -0.6490
15067TIP3    H266693   2.498   0.988   5.570 -1.1551 -2.2360  0.1836
15068TIP3   OH266694   4.162   1.586  14.157 -0.0672  0.4919 -0.1858
15068TIP3    H166695   4.139   1.613  14.068  1.3172 -0.2830 -0.7923
15068TIP3    H266696   4.250   1.621  14.171 -0.5060  1.1361  1.1257
15069TIP3   OH266697   2.223   1.007   2.016  0.0738  0.0047 -0.3989
15069TIP3    H166698   2.306   0.977   2.054 -0.7449 -1.4715  0.3223
15069TIP3    H266699   2.199   1.084   2.068  0.2748 -0.4359  0.3688
15070TIP3   OH266700   0.381   4.591  11.186  0.3245 -0.6669 -0.1201
15070TIP3    H166701   0.454   4.594  11.124  1.3551 -0.7223  1.0338
15070TIP3    H266702   0.393   4.669  11.240  0.8194 -1.7591  1.4369
15071TIP3   OH266703   2.266   4.199   6.267 -0.1441 -0.2523  0.4045
15071TIP3    H166704   2.343   4.193   6.324 -0.0026 -0.9969  0.1534
15071TIP3    H266705   2.198   4.152   6.316 -0.1003 -0.6447  0.0967
15072TIP3   OH266706   0.092   2.767   5.005  0.5346  0.5402  0.3501
15072TIP3    H166707   0.149   2.698   5.036  0.2903 -0.2996 -0.9873
15072TIP3    H266708   0.119   2.782   4.914 -0.8129  0.6941 -0.0524
15073TIP3   OH266709   4.237   1.756   4.473  0.1559  0.4227  0.1913
15073TIP3    H166710   4.329   1.774   4.452  0.0599  0.2411 -0.4123
15073TIP3    H266711   4.238   1.729   4.565  0.6813  0.6053  0.2439
15074TIP3   OH266712   1.773   3.540  12.450  0.6304 -0.4433  0.0825
15074TIP3    H166713   1.721   3.467  12.416 -1.4251  0.2020  1.7138
15074TIP3    H266714   1.772   3.529  12.545  1.9735  0.6204  0.2504
15075TIP3   OH266715   1.467   6.744  14.141  0.4666  0.9595  0.4642
15075TIP3    H166716   1.410   6.776  14.211 -1.2317 -2.8383  1.0667
15075TIP3    H266717   1.437   6.790  14.063 -0.4081  2.2843  1.5315
15076TIP3   OH266718   3.017   6.019   5.843 -0.5086 -0.1535 -0.8756
15076TIP3    H166719   3.035   6.073   5.766  0.1383 -0.2487 -0.7975
15076TIP3    H266720   3.008   6.081   5.915  0.1163 -0.1357 -0.8070
15077TIP3   OH266721   4.599   0.242   6.017 -0.4532  0.6610  0.0465
15077TIP3    H166722   4.536   0.231   6.088 -0.7782 -0.5788 -0.4196
15077TIP3    H266723   4.645   0.159   6.012  1.0137  1.4255  0.1445
15078TIP3   OH266724   2.144   4.207   2.039  0.5046  0.5350 -0.1323
15078TIP3    H166725   2.080   4.237   1.975 -0.5255 -1.6344 -0.2073
15078TIP3    H266726   2.119   4.250   2.121 -0.1631  0.8476 -0.4959
15079TIP3   OH266727   2.242   6.128   2.913  0.1407  0.2081  0.5853
15079TIP3    H166728   2.269   6.216   2.942 -0.1703  0.2628  0.7072
15079TIP3    H266729   2.283   6.069   2.977  1.9696  0.1130 -0.5801
15080TIP3   OH266730   6.659   4.281   4.219 -0.0053  0.2339  0.2502
15080TIP3    H166731   6.645   4.232   4.300 -1.5716 -0.3864 -0.3656
15080TIP3    H266732   6.592   4.349   4.219  0.7200  0.9759  0.0011
15081TIP3   OH266733   6.543   0.233  14.011  0.0833 -0.2136 -0.0730
15081TIP3    H166734   6.502   0.318  14.022  1.1325  0.1192  1.6338
15081TIP3    H266735   6.618   0.234  14.070  3.4706 -0.2784 -3.9497
15082TIP3   OH266736   0.468   1.851  16.100 -0.6056 -0.0547  0.1068
15082TIP3    H166737   0.451   1.882  16.010 -1.3796 -0.4603  0.1041
15082TIP3    H266738   0.414   1.908  16.155  1.5459  1.6957  0.5686
15083TIP3   OH266739   4.868   0.412   1.335 -0.2858  0.3357 -0.2897
15083TIP3    H166740   4.821   0.460   1.404  0.4634 -0.8393  1.0879
15083TIP3    H266741   4.801   0.355   1.297 -0.6241  0.7279 -0.2930
15084TIP3   OH266742   6.661   5.218   1.480 -1.2060 -0.3825  0.3089
15084TIP3    H166743   6.595   5.273   1.523 -0.4819 -0.6545  1.8468
15084TIP3    H266744   6.669   5.142   1.537  0.2092 -0.4989 -0.0165
15085TIP3   OH266745   1.975   5.551   1.779  0.3864  0.7246 -0.5350
15085TIP3    H166746   1.970   5.552   1.683 -1.6000 -0.1475 -0.4829
15085TIP3    H266747   2.037   5.482   1.799 -1.2068 -1.0026 -1.2135
15086TIP3   OH266748   1.503   2.418   3.552 -0.3780 -0.1172  0.6842
15086TIP3    H166749   1.544   2.483   3.610  1.1608 -0.5017  0.0698
15086TIP3    H266750   1.453   2.362   3.612 -0.2491  0.5255  1.4253
15087TIP3   OH266751   3.167   4.868   2.405  0.5541  0.3974  0.7172
15087TIP3    H166752   3.217   4.949   2.398  2.0948 -0.6142 -1.0860
15087TIP3    H266753   3.121   4.861   2.321  1.8768 -1.3954  0.0577
15088TIP3   OH266754   2.249   1.161   1.452 -0.3098 -0.8645  0.3422
15088TIP3    H166755   2.288   1.164   1.540 -1.3498 -1.2048  0.8362
15088TIP3    H266756   2.184   1.091   1.458 -1.8842  0.5003 -0.0642
15089TIP3   OH266757   1.796   4.322  13.467 -0.8529  0.3397 -0.4425
15089TIP3    H166758   1.868   4.260  13.473 -0.8084  0.3603 -0.7344
15089TIP3    H266759   1.803   4.376  13.546 -1.0941 -0.2426 -0.0180
15090TIP3   OH266760   4.295   3.152   0.404 -0.2986  0.3936  0.1000
15090TIP3    H166761   4.249   3.148   0.488  0.4330  0.6526  0.5177
15090TIP3    H266762   4.332   3.065   0.393  1.3754  0.9387  1.0743
15091TIP3   OH266763   0.718   1.593  13.363 -0.2354  1.0504  0.0038
15091TIP3    H166764   0.782   1.579  13.293  1.4089  0.3011  1.5975
15091TIP3    H266765   0.694   1.505  13.392 -1.0363  1.3489  0.2652
15092TIP3   OH266766   0.451   4.168  14.516  0.3567  0.2278 -0.5459
15092TIP3    H166767   0.423   4.085  14.554  0.9215 -0.6892 -2.0627
15092TIP3    H266768   0.526   4.195  14.570 -0.2631  0.1229  0.3852
15093TIP3   OH266769   5.537   3.938   1.253 -0.5071  0.1972 -0.3014
15093TIP3    H166770   5.466   3.875   1.248 -0.0241 -0.5852  1.6057
15093TIP3    H266771   5.527   3.977   1.340  2.0249 -0.7727  0.5074
15094TIP3   OH266772   2.980   3.788   0.368  0.4301 -0.2760 -0.2393
15094TIP3    H166773   2.977   3.693   0.354  2.1579 -0.3521 -0.2715
15094TIP3    H266774   3.012   3.823   0.285 -0.6375  0.3931 -0.3817
15095TIP3   OH266775   4.688   5.137  11.435  0.7704 -0.6716  0.6215
15095TIP3    H166776   4.652   5.062  11.388  0.4696 -0.7219  0.9255
15095TIP3    H266777   4.611   5.184  11.466  0.9624 -0.3608  0.6263
15096TIP3   OH266778   5.986   3.978  13.533 -0.0335 -0.7127  0.0989
15096TIP3    H166779   6.024   4.027  13.606 -1.0247  2.8378 -1.4902
15096TIP3    H266780   6.045   3.994  13.460 -1.3791 -0.2075 -0.9360
15097TIP3   OH266781   1.329   5.637   0.220  0.0484 -0.0544 -0.3341
15097TIP3    H166782   1.381   5.557   0.211 -0.3565 -0.2374 -1.1020
15097TIP3    H266783   1.394   5.706   0.238  0.5181 -0.3415 -0.9060
15098TIP3   OH266784   4.009   3.264   6.119 -0.1562  0.0086 -0.1416
15098TIP3    H166785   4.080   3.313   6.076 -0.9724 -0.3629 -2.0050
15098TIP3    H266786   3.955   3.331   6.161 -0.2404  0.5653 -1.1081
15099TIP3   OH266787   0.974   2.904  11.255 -0.6667 -0.2080  0.1056
15099TIP3    H166788   0.928   2.896  11.172 -0.9891  1.4678  0.0935
15099TIP3    H266789   0.946   2.988  11.290  2.2599  0.8609  0.1620
15100TIP3   OH266790   2.945   1.479  11.056 -0.1864  0.3486 -0.0823
15100TIP3    H166791   2.977   1.560  11.015 -2.3037  0.4564 -1.6826
15100TIP3    H266792   2.851   1.493  11.066 -0.2411 -1.0236  1.8368
15101TIP3   OH266793   5.361   3.958   4.054 -0.0564 -0.1283 -0.1941
15101TIP3    H166794   5.344   4.044   4.093  2.3437  0.3908 -0.1565
15101TIP3    H266795   5.352   3.897   4.127  0.8750  0.4271  0.4026
15102TIP3   OH266796   4.836   1.071  12.788  0.2110 -0.4314 -0.0463
15102TIP3    H166797   4.764   1.129  12.813 -0.4391  0.1865 -2.9199
15102TIP3    H266798   4.899   1.078  12.860 -1.7804  0.4170  1.7209
15103TIP3   OH266799   5.108   6.146  16.784  0.4298 -0.2437 -0.4510
15103TIP3    H166800   5.163   6.222  16.806  0.7623 -0.8551  1.0108
15103TIP3    H266801   5.162   6.071  16.808 -0.1270 -0.9253 -1.3111
15104TIP3   OH266802   2.133   6.436  12.047  0.0511 -0.3512  0.0621
15104TIP3    H166803   2.064   6.499  12.065  0.4656  0.3476 -0.7060
15104TIP3    H266804   2.184   6.476  11.976  1.2673 -0.8251  0.6322
15105TIP3   OH266805   5.464   0.435   0.319 -0.4013  0.0385 -0.8361
15105TIP3    H166806   5.407   0.364   0.350  1.0308  0.1833  2.5297
15105TIP3    H266807   5.417   0.515   0.341  0.7168  0.1464  1.5059
15106TIP3   OH266808   2.610   1.552   3.594  0.0695  0.3362  0.0767
15106TIP3    H166809   2.626   1.458   3.586 -0.1594  0.3848 -1.2617
15106TIP3    H266810   2.548   1.561   3.666 -0.4725 -0.6063 -0.2623
15107TIP3   OH266811   2.205   3.183   0.022  0.7343  0.0725  0.6082
15107TIP3    H166812   2.191   3.236   0.100 -1.4545  0.8871 -0.2636
15107TIP3    H266813   2.289   3.140   0.036  0.6303  0.5964  3.1604
15108TIP3   OH266814   0.483   3.098   2.457 -0.4062 -0.2815 -0.1680
15108TIP3    H166815   0.420   3.050   2.511 -0.0326 -0.4695  0.1004
15108TIP3    H266816   0.544   3.137   2.520  0.7411 -1.4883 -0.5073
15109TIP3   OH266817   5.105   6.836  16.226  0.0361  0.1666 -0.2045
15109TIP3    H166818   5.112   6.832  16.322  2.8307 -1.6073 -0.3598
15109TIP3    H266819   5.087   6.746  16.200  0.7685  0.3348 -1.3754
15110TIP3   OH266820   1.066   0.717  14.076  0.1510 -0.1430  0.0258
15110TIP3    H166821   0.999   0.697  14.142 -0.5300  0.1564 -0.5564
15110TIP3    H266822   1.022   0.776  14.015  0.7616 -0.4294 -0.7085
15111TIP3   OH266823   2.995   4.842  16.063 -0.7647  0.7402  0.4929
15111TIP3    H166824   2.966   4.868  15.976 -0.8273  1.9254  0.8577
15111TIP3    H266825   2.964   4.912  16.121 -0.0670  0.3473  1.3608
15112TIP3   OH266826   1.362   4.674   3.412 -0.1826  0.0878 -0.5769
15112TIP3    H166827   1.287   4.725   3.443  0.1566 -0.2606  0.8971
15112TIP3    H266828   1.434   4.737   3.406  0.4581 -0.2711  2.0502
15113TIP3   OH266829   6.128   5.331   3.030 -0.1263  0.0222  0.7813
15113TIP3    H166830   6.105   5.339   2.937 -0.0975 -1.8116  0.5701
15113TIP3    H266831   6.076   5.398   3.074 -2.4912 -1.0228 -0.2306
15114TIP3   OH266832   0.462   6.087   1.577 -0.0726 -0.4529 -0.1549
15114TIP3    H166833   0.447   5.998   1.546 -1.9810 -0.2693  0.1166
15114TIP3    H266834   0.479   6.138   1.498  0.7021 -0.9932 -0.3428
15115TIP3   OH266835   3.569   4.390   1.433 -0.3373 -0.7035 -0.3564
15115TIP3    H166836   3.589   4.470   1.482  0.5420  0.4554 -2.4776
15115TIP3    H266837   3.482   4.365   1.462  0.4038 -0.5289  2.2964
15116TIP3   OH266838   1.282   3.671   2.814 -0.6939 -0.1129 -0.5797
15116TIP3    H166839   1.260   3.716   2.895  0.1546 -0.4242 -0.1685
15116TIP3    H266840   1.197   3.653   2.773 -1.1347 -0.0447  0.2874
15117TIP3   OH266841   5.634   3.321   5.979  0.8958  0.4590  0.6481
15117TIP3    H166842   5.663   3.412   5.983  0.3070  0.6989 -0.1973
15117TIP3    H266843   5.591   3.306   6.063  1.4471  0.7962  0.9987
15118TIP3   OH266844   3.482   1.591   4.863  0.2038 -0.5824  0.2132
15118TIP3    H166845   3.553   1.634   4.911  0.5843 -1.8112  0.8157
15118TIP3    H266846   3.403   1.638   4.889  0.9438  2.1005 -1.9971
15119TIP3   OH266847   2.176   4.174  15.321 -0.1471 -0.3652  0.2300
15119TIP3    H166848   2.196   4.163  15.229  0.1577  2.0134 -0.0632
15119TIP3    H266849   2.196   4.090  15.361  3.6142 -0.3119 -1.2017
15120TIP3   OH266850   3.661   0.258  15.993 -0.1597  0.1318  0.0924
15120TIP3    H166851   3.620   0.172  15.995 -2.4944  1.0615 -2.0417
15120TIP3    H266852   3.747   0.243  15.954 -0.4785 -1.2644 -0.1307
15121TIP3   OH266853   5.179   3.089   3.564  0.1308  0.0175  0.2511
15121TIP3    H166854   5.160   3.049   3.479  1.7625  0.5395 -0.4074
15121TIP3    H266855   5.164   3.019   3.627 -1.5479 -0.2502 -0.3874
15122TIP3   OH266856   4.324   2.076  12.134 -0.2462 -0.5830  0.4255
15122TIP3    H166857   4.263   2.032  12.193 -2.3234  1.7104  0.1242
15122TIP3    H266858   4.280   2.076  12.049 -0.4466  2.0883  0.4409
15123TIP3   OH266859   1.888   1.344   2.269 -0.2333  0.4309 -0.1833
15123TIP3    H166860   1.852   1.293   2.342  2.0456  0.6338  1.1915
15123TIP3    H266861   1.812   1.383   2.227 -1.7982 -1.4437  0.7423
15124TIP3   OH266862   1.744   0.637  13.506 -0.1140  0.0739  0.4714
15124TIP3    H166863   1.776   0.576  13.573  0.5508 -0.7217 -0.5486
15124TIP3    H266864   1.753   0.589  13.424  1.5254  1.9542 -0.5201
15125TIP3   OH266865   3.580   4.490  13.952 -0.1085  0.0493  0.3399
15125TIP3    H166866   3.579   4.395  13.949 -1.6838  0.0240  0.8617
15125TIP3    H266867   3.647   4.516  13.888  0.3184 -1.3912  0.1845
15126TIP3   OH266868   5.627   5.446  14.022  0.3023 -0.1575  0.2034
15126TIP3    H166869   5.637   5.351  14.018  3.7304  0.1144 -1.5863
15126TIP3    H266870   5.597   5.471  13.934  2.3378  0.5422 -0.3546
15127TIP3   OH266871   5.570   2.595  13.276 -0.3258  0.4358 -0.2586
15127TIP3    H166872   5.652   2.623  13.235  0.5172  1.5358  2.0472
15127TIP3    H266873   5.586   2.503  13.299  0.3907  0.7196  0.4284
15128TIP3   OH266874   6.344   3.166   5.488 -0.4475  0.2321  0.5621
15128TIP3    H166875   6.264   3.170   5.542  0.1094  0.4641  1.3984
15128TIP3    H266876   6.405   3.224   5.533 -0.2573  1.1409 -0.8490
15129TIP3   OH266877   0.694   2.528   0.566 -0.0597 -0.1940  0.0685
15129TIP3    H166878   0.599   2.532   0.579  0.0412 -1.5216  1.4868
15129TIP3    H266879   0.706   2.464   0.496 -0.2004  0.0928 -0.2238
15130TIP3   OH266880   0.130   3.261  13.797  0.4601 -0.0835  0.7032
15130TIP3    H166881   0.102   3.265  13.706 -0.2672 -0.6201  0.8894
15130TIP3    H266882   0.165   3.348  13.816 -0.7142  0.4916  0.3174
15131TIP3   OH266883   2.901   4.222  12.497  0.1638 -0.6083  0.1073
15131TIP3    H166884   2.838   4.269  12.552  0.6652  0.0236  0.1570
15131TIP3    H266885   2.981   4.218  12.549  0.4163 -0.6657 -0.2793
15132TIP3   OH266886   5.939   4.578   0.257  0.7835  0.1247 -0.2961
15132TIP3    H166887   6.007   4.579   0.325  1.9991  1.2385 -1.4692
15132TIP3    H266888   5.860   4.548   0.302  1.9295 -0.7262  1.2328
15133TIP3   OH266889   0.188   6.741   0.844 -0.0919  0.4363 -0.0478
15133TIP3    H166890   0.152   6.820   0.804  0.5186  0.5801 -0.3298
15133TIP3    H266891   0.176   6.753   0.938  0.7036  1.2292 -0.0352
15134TIP3   OH266892   0.594   1.017   2.233  0.0356 -0.2106 -0.2991
15134TIP3    H166893   0.560   0.929   2.215 -1.1692  0.2809 -0.4953
15134TIP3    H266894   0.689   1.004   2.241 -0.2520 -1.7884  1.2683
15135TIP3   OH266895   4.378   2.602   0.243 -0.3873  0.1857 -0.4005
15135TIP3    H166896   4.376   2.524   0.297 -0.0765 -0.5485 -1.4231
15135TIP3    H266897   4.286   2.618   0.220 -0.6729  1.2071  1.2850
15136TIP3   OH266898   3.231   3.758   3.803 -0.8893  0.1000 -0.2486
15136TIP3    H166899   3.189   3.740   3.887  0.0119 -0.0829  0.1681
15136TIP3    H266900   3.248   3.672   3.765 -0.9632  0.1751 -0.4556
15137TIP3   OH266901   3.982   3.465   5.407  0.0600 -0.1313 -0.1430
15137TIP3    H166902   3.903   3.510   5.379  0.3322  0.7322  0.4413
15137TIP3    H266903   4.020   3.522   5.474 -0.2080 -1.7788  1.5033
15138TIP3   OH266904   1.762   0.311  14.853  0.0596 -0.0553 -0.3083
15138TIP3    H166905   1.673   0.316  14.889  0.0503 -0.2229 -0.3060
15138TIP3    H266906   1.751   0.336  14.761 -0.1934 -1.2270 -0.6238
15139TIP3   OH266907   4.803   3.680   5.412  0.4291  0.4224  0.1982
15139TIP3    H166908   4.886   3.682   5.459  1.9065  4.0391 -2.1689
15139TIP3    H266909   4.749   3.747   5.455  0.5358  1.3569 -1.0663
15140TIP3   OH266910   1.682   3.968   5.452  0.3307 -0.1943  0.0331
15140TIP3    H166911   1.605   3.912   5.441  0.5511 -0.6690  0.8577
15140TIP3    H266912   1.724   3.936   5.532  0.8325  0.7068  0.1436
15141TIP3   OH266913   5.869   4.858  16.329 -0.3529 -0.0619 -0.1467
15141TIP3    H166914   5.911   4.942  16.311 -1.8646  0.8350  0.2720
15141TIP3    H266915   5.813   4.842  16.252  1.4754 -1.7813 -1.2164
15142TIP3   OH266916   2.756   3.484   5.755  0.3560 -0.3022 -0.0680
15142TIP3    H166917   2.832   3.518   5.707  0.0547 -0.4896 -0.6966
15142TIP3    H266918   2.697   3.452   5.686 -1.4989  2.2287  0.1956
15143TIP3   OH266919   5.288   4.839  15.637 -0.3532 -0.2686  0.1663
15143TIP3    H166920   5.262   4.780  15.708 -1.2135  1.3870  1.3094
15143TIP3    H266921   5.206   4.860  15.592 -0.3481  1.2816  0.8022
15144TIP3   OH266922   0.516   2.070  14.692 -0.2262  0.2617 -0.4572
15144TIP3    H166923   0.532   2.153  14.647  0.0289 -0.8719 -2.5810
15144TIP3    H266924   0.584   2.011  14.658 -0.1998 -0.7608  1.2497
15145TIP3   OH266925   1.490   4.387   1.708 -0.0912 -0.2538 -0.0109
15145TIP3    H166926   1.503   4.480   1.693  0.6662 -0.3432  0.0584
15145TIP3    H266927   1.419   4.363   1.650 -0.3038  0.3721 -0.0149
15146TIP3   OH266928   3.048   2.274   4.885 -0.2957  0.1339 -0.0106
15146TIP3    H166929   3.142   2.285   4.900 -0.3937  0.8871  0.1039
15146TIP3    H266930   3.030   2.325   4.806 -0.5187 -0.4510 -0.3473
15147TIP3   OH266931   1.069   6.471   0.575  0.7321 -0.2024  0.0560
15147TIP3    H166932   1.011   6.404   0.540 -0.2552  0.8401 -0.3445
15147TIP3    H266933   1.126   6.424   0.637  0.5129 -1.5106 -0.7151
15148TIP3   OH266934   4.546   3.403  14.916 -0.3170 -0.0788 -0.4088
15148TIP3    H166935   4.621   3.375  14.968 -0.2799  0.1329 -0.3485
15148TIP3    H266936   4.475   3.414  14.978 -1.1434 -2.7720 -0.7573
15149TIP3   OH266937   2.917   0.546   2.011  0.2183 -0.0554  0.0505
15149TIP3    H166938   2.830   0.562   2.045 -0.5226  0.6634 -2.0633
15149TIP3    H266939   2.974   0.607   2.059 -0.7364  0.7820  0.1352
15150TIP3   OH266940   0.725   3.948  15.832  0.4091  0.0687  0.1136
15150TIP3    H166941   0.638   3.970  15.799  0.3411  0.5419  0.6050
15150TIP3    H266942   0.708   3.894  15.910  0.5667 -1.8090 -1.0724
15151TIP3   OH266943   1.857   3.649   6.255 -0.5540  0.4357  0.7929
15151TIP3    H166944   1.864   3.690   6.341 -3.9209  0.7083  1.0508
15151TIP3    H266945   1.837   3.557   6.273 -1.4560  0.5315  0.3341
15152TIP3   OH266946   2.509   3.836  12.956 -0.2378 -0.0582  0.3787
15152TIP3    H166947   2.545   3.924  12.968  0.8366 -0.5791  1.0599
15152TIP3    H266948   2.461   3.818  13.036  1.6358 -1.0466  1.3355
15153TIP3   OH266949   4.425   3.705   0.036  0.1810 -0.2396 -0.2533
15153TIP3    H166950   4.471   3.739  -0.042 -1.8370  0.8856 -1.0350
15153TIP3    H266951   4.383   3.625   0.005  0.7198 -0.6916  0.1675
15154TIP3   OH266952   2.797   5.031  16.523 -0.4751 -0.9595  0.6325
15154TIP3    H166953   2.737   5.059  16.454 -1.7384  0.3809  2.1853
15154TIP3    H266954   2.859   4.973  16.479 -1.4290 -0.4374 -1.5351
15155TIP3   OH266955   2.831   3.140  12.424  0.0518  0.4487  0.0966
15155TIP3    H166956   2.859   3.111  12.337 -0.1440  2.6129 -0.7491
15155TIP3    H266957   2.906   3.121  12.481  0.2444 -0.8486 -0.5360
15156TIP3   OH266958   0.707   2.049   0.931 -0.5980  0.8140  0.3827
15156TIP3    H166959   0.772   2.001   0.880 -1.4641  0.0162  0.0028
15156TIP3    H266960   0.727   2.141   0.914 -1.1674  0.5824 -1.8669
15157TIP3   OH266961   2.654   1.073   4.396  0.3015  0.3214 -0.8227
15157TIP3    H166962   2.596   1.018   4.449  0.9364  0.5828  0.1475
15157TIP3    H266963   2.738   1.029   4.398  1.1543  1.8932  0.9729
15158TIP3   OH266964   5.702   6.131  10.444  0.2175  0.4480  0.3943
15158TIP3    H166965   5.636   6.159  10.381  2.7462 -0.2596 -2.8505
15158TIP3    H266966   5.668   6.049  10.480 -0.6499  0.0186 -1.2993
15159TIP3   OH266967   3.601   1.268   1.845  0.3618 -0.0888 -0.7680
15159TIP3    H166968   3.558   1.274   1.930  1.7193 -2.8643  0.2483
15159TIP3    H266969   3.537   1.225   1.789  0.1497 -0.0123 -0.5863
15160TIP3   OH266970   1.682   6.040   4.046 -0.0150 -0.1213 -0.6734
15160TIP3    H166971   1.590   6.029   4.069 -0.4516 -0.4256 -2.4029
15160TIP3    H266972   1.690   6.133   4.024  1.4094  1.3052  4.5261
15161TIP3   OH266973   5.324   3.729  17.156 -0.2942  0.3461 -0.0096
15161TIP3    H166974   5.324   3.814  17.200 -0.3007  0.5741 -0.4498
15161TIP3    H266975   5.270   3.741  17.079 -3.4033 -1.0199  1.7440
15162TIP3   OH266976   6.326   4.983  14.056 -0.7408 -0.7886  0.2074
15162TIP3    H166977   6.240   4.977  14.097 -1.1670 -0.8844 -0.6629
15162TIP3    H266978   6.376   4.910  14.092 -1.0908 -0.8476  0.5726
15163TIP3   OH266979   0.777   0.570   5.912  0.1134  0.0377 -0.8246
15163TIP3    H166980   0.781   0.637   5.980  1.1626  0.2961 -1.1228
15163TIP3    H266981   0.854   0.516   5.928  0.8410  0.6040 -2.3224
15164TIP3   OH266982   0.419   2.827  13.240 -0.5014  0.6836  0.1242
15164TIP3    H166983   0.423   2.921  13.220  1.0551  1.2239  2.4937
15164TIP3    H266984   0.508   2.805  13.267 -1.3893 -0.8674  2.0356
15165TIP3   OH266985   2.728   5.404  16.262 -0.3761 -0.3792  0.6758
15165TIP3    H166986   2.789   5.472  16.289 -0.7602 -0.3751  1.5875
15165TIP3    H266987   2.684   5.378  16.343 -1.8882 -0.0860 -0.0272
15166TIP3   OH266988   2.281   0.023  13.777 -0.1982  0.5272 -0.1990
15166TIP3    H166989   2.249  -0.009  13.861  0.4590 -0.0338 -0.1547
15166TIP3    H266990   2.376   0.024  13.786 -0.0997  0.1495 -1.0437
15167TIP3   OH266991   0.787   2.032  13.619 -0.0450  0.0106  0.3701
15167TIP3    H166992   0.787   1.961  13.555  0.0531 -0.1148  0.5095
15167TIP3    H266993   0.808   1.990  13.702  0.4192  0.2641  0.3843
15168TIP3   OH266994   0.313   4.686  13.122 -0.2047 -0.3257 -0.4063
15168TIP3    H166995   0.276   4.655  13.040 -0.4792 -0.5569 -0.1952
15168TIP3    H266996   0.405   4.703  13.102  0.3918 -2.8494 -0.1477
15169TIP3   OH266997   2.163   2.983  12.959 -0.1209  0.4476  0.0661
15169TIP3    H166998   2.116   3.067  12.959  1.2519  1.3617 -2.7159
15169TIP3    H266999   2.256   3.008  12.961  0.3573 -1.2082  2.6163
15170TIP3   OH267000   3.011   6.390  16.176  0.2359 -0.2452 -0.1505
15170TIP3    H167001   3.028   6.331  16.249  0.6360 -0.5678 -0.5006
15170TIP3    H267002   3.092   6.440  16.166  0.0966 -0.0297 -0.2184
15171TIP3   OH267003   2.971   1.884  11.594 -0.7732 -0.0636 -0.4734
15171TIP3    H167004   2.908   1.933  11.646 -2.9157 -1.8546 -1.1858
15171TIP3    H267005   3.008   1.819  11.654 -0.4718  0.2480 -0.3230
15172TIP3   OH267006   5.737   0.960  14.111 -0.4117  0.5743 -0.1543
15172TIP3    H167007   5.811   1.018  14.129  0.3037 -0.7138  1.2805
15172TIP3    H267008   5.758   0.879  14.157 -2.0731 -0.3246 -0.8761
15173TIP3   OH267009   3.892   6.148   6.258 -0.4026  0.0201 -0.2313
15173TIP3    H167010   3.931   6.143   6.345 -1.3161 -0.7320  0.1596
15173TIP3    H267011   3.863   6.239   6.250  1.4432  0.6202 -0.5678
15174TIP3   OH267012   3.955   1.305   6.251 -0.7508 -0.1862  0.0741
15174TIP3    H167013   4.037   1.268   6.218  0.2969  0.7819  1.4599
15174TIP3    H267014   3.956   1.396   6.222 -1.8167 -0.3934 -0.6855
15175TIP3   OH267015   4.710   4.655  14.509  0.0698  0.7902  0.4549
15175TIP3    H167016   4.626   4.685  14.545  0.3062  1.0058  0.8434
15175TIP3    H267017   4.687   4.611  14.427 -0.5839 -0.5637  1.3249
15176TIP3   OH267018   1.316   0.209   5.886 -0.2021 -0.0104  0.0703
15176TIP3    H167019   1.393   0.186   5.939  0.7410 -2.4428 -2.1377
15176TIP3    H267020   1.292   0.127   5.842 -3.5936  0.8781  0.0134
15177TIP3   OH267021   3.401   1.832   0.730  0.1864 -0.4903 -0.0308
15177TIP3    H167022   3.471   1.785   0.684  1.6225  0.4313  1.1171
15177TIP3    H267023   3.382   1.908   0.675 -0.3244 -1.0231 -0.6109
15178TIP3   OH267024   2.176   1.210   3.788 -0.3914 -0.1200  0.0607
15178TIP3    H167025   2.115   1.211   3.715  1.8848  0.7987 -1.9675
15178TIP3    H267026   2.251   1.159   3.756  0.7851  0.5350  1.6392
15179TIP3   OH267027   0.430   5.289  14.363  0.5168  0.3995  0.5679
15179TIP3    H167028   0.395   5.333  14.285  2.8566  0.5894 -0.4466
15179TIP3    H267029   0.387   5.333  14.436 -3.6055 -1.3445 -0.4824
15180TIP3   OH267030   3.521   3.584   5.391 -0.2604  0.3216  0.5803
15180TIP3    H167031   3.442   3.583   5.444  0.0689 -0.4332  1.0677
15180TIP3    H267032   3.501   3.646   5.320 -1.5334 -0.3606  0.3130
15181TIP3   OH267033   4.414   6.788  16.406 -0.5195 -0.2356  0.0187
15181TIP3    H167034   4.422   6.881  16.429 -0.6972 -0.5260  1.3208
15181TIP3    H267035   4.458   6.780  16.322  0.1044  0.8997  0.2218
15182TIP3   OH267036   5.501   0.915  16.362 -0.5212  0.1006  0.1625
15182TIP3    H167037   5.420   0.873  16.392 -0.3248 -0.1422  0.3512
15182TIP3    H267038   5.546   0.847  16.312  0.4010 -0.3107  1.5259
15183TIP3   OH267039   3.895   1.067   4.517  0.0549  0.4342 -0.3518
15183TIP3    H167040   3.840   1.144   4.498  2.2116  2.0531 -0.4607
15183TIP3    H267041   3.888   1.055   4.611 -1.6717 -0.3903 -0.5499
15184TIP3   OH267042   4.539   5.218   5.821  0.1810 -0.5459  0.4978
15184TIP3    H167043   4.579   5.254   5.741 -0.8992 -1.4242 -0.4768
15184TIP3    H267044   4.529   5.294   5.878 -1.1872  0.5815 -1.1359
15185TIP3   OH267045   4.851   0.042  14.241  0.3513 -0.2662 -0.0769
15185TIP3    H167046   4.912   0.064  14.170  1.7226 -0.2758  1.0448
15185TIP3    H267047   4.892  -0.034  14.283 -0.2960 -0.0786  0.8972
15186TIP3   OH267048   1.219   5.390   6.499 -0.3433  0.7900  0.4347
15186TIP3    H167049   1.200   5.298   6.483 -1.6372  1.0132  0.5769
15186TIP3    H267050   1.137   5.436   6.479  0.1746  1.8693  0.6856
15187TIP3   OH267051   5.207   1.410  16.353 -0.4122  0.1546  0.0842
15187TIP3    H167052   5.253   1.333  16.386  0.9692  1.0079  0.2122
15187TIP3    H267053   5.135   1.374  16.300 -0.8172 -1.2119  1.4833
15188TIP3   OH267054   0.784   3.434  11.621 -0.3568 -0.3023 -0.1192
15188TIP3    H167055   0.877   3.436  11.597 -0.2492 -1.8675  0.0688
15188TIP3    H267056   0.761   3.526  11.634  0.8226  0.2149 -1.4249
15189TIP3   OH267057   1.220   4.968  15.299  0.0288 -0.0422  0.4256
15189TIP3    H167058   1.238   4.893  15.356  1.2086 -0.5442 -0.5689
15189TIP3    H267059   1.304   5.011  15.288 -0.3460  0.5497 -0.2434
15190TIP3   OH267060   0.953   5.870  14.050  0.6843 -0.5308 -0.2198
15190TIP3    H167061   0.928   5.800  14.109  2.2761 -1.6976 -0.8620
15190TIP3    H267062   0.907   5.947  14.083 -1.4505 -1.9284  0.2540
15191TIP3   OH267063   2.245   2.677   0.505 -1.0856  0.3842 -0.6122
15191TIP3    H167064   2.158   2.704   0.535 -1.3327  0.7251 -1.6043
15191TIP3    H267065   2.305   2.742   0.542 -1.2619  0.2390 -0.0606
15192TIP3   OH267066   4.226   0.571   4.246  0.4409 -0.3576 -0.5900
15192TIP3    H167067   4.226   0.486   4.202  2.0939 -1.5656  1.5538
15192TIP3    H267068   4.159   0.563   4.314 -0.7308  0.7787 -1.5806
15193TIP3   OH267069   1.429   4.929   1.219 -1.0529  0.0755 -0.5061
15193TIP3    H167070   1.375   4.915   1.297 -0.8931 -1.7247 -0.6769
15193TIP3    H267071   1.377   4.895   1.147 -0.8521  0.9646 -1.0860
15194TIP3   OH267072   1.340   3.050  12.144 -0.4376 -0.1009  0.2749
15194TIP3    H167073   1.366   3.042  12.052  2.2365  0.1286  0.9241
15194TIP3    H267074   1.357   2.963  12.181  1.2765  0.5510  1.1208
15195TIP3   OH267075   1.724   1.981  14.255 -0.0277  0.2413  0.4486
15195TIP3    H167076   1.649   1.968  14.196  0.1657  3.2318 -0.6680
15195TIP3    H267077   1.752   1.893  14.278 -2.2837 -1.0236 -1.1708
15196TIP3   OH267078   3.170   2.067  12.819 -0.1114 -0.2361 -0.2865
15196TIP3    H167079   3.248   2.063  12.875 -1.0260  1.0439  1.1743
15196TIP3    H267080   3.202   2.099  12.735  0.8159  1.5031  0.6640
15197TIP3   OH267081   1.446   2.572  14.722 -0.2558  0.3316  0.1190
15197TIP3    H167082   1.499   2.525  14.786 -0.2943 -1.1476 -0.8794
15197TIP3    H267083   1.358   2.534  14.731 -0.2371  0.0239 -0.8636
15198TIP3   OH267084   4.329   5.690   5.343 -0.1927 -0.5769  0.1550
15198TIP3    H167085   4.341   5.779   5.376  0.6540  0.2254 -2.1258
15198TIP3    H267086   4.410   5.671   5.296 -1.0845 -1.8499 -0.9285
15199TIP3   OH267087   5.648   0.992  16.573  0.0271 -0.0476  0.1911
15199TIP3    H167088   5.593   0.976  16.497  0.6132  0.7527 -0.4196
15199TIP3    H267089   5.729   1.028  16.537  1.0144 -1.3040  1.0532
15200TIP3   OH267090   6.649   0.965   1.993  0.5781  0.6046  0.2167
15200TIP3    H167091   6.574   0.975   2.052  1.2848 -0.1124  1.2718
15200TIP3    H267092   6.714   0.918   2.045  1.9183  1.5605 -0.5375
15201TIP3   OH267093   1.187   0.780  11.750 -0.4987 -0.3604 -0.1732
15201TIP3    H167094   1.112   0.794  11.692 -0.6455  1.7497  0.4448
15201TIP3    H267095   1.155   0.806  11.837  0.7979  0.0822  0.1945
15202TIP3   OH267096   6.554   5.663  13.103  0.3975 -0.2199 -0.6498
15202TIP3    H167097   6.622   5.595  13.098  2.0218  0.7324  3.9375
15202TIP3    H267098   6.505   5.642  13.182 -0.8888  2.3664 -0.6652
15203TIP3   OH267099   6.507   4.770   5.381 -0.0893  0.4942  0.4784
15203TIP3    H167100   6.577   4.714   5.350 -2.0745 -2.6831  1.2479
15203TIP3    H267101   6.494   4.834   5.311  1.3710 -0.9066 -1.1531
15204TIP3   OH267102   2.186   1.012   5.663  0.0188  0.0113 -0.5546
15204TIP3    H167103   2.240   1.018   5.742 -0.3783 -0.6084 -0.2244
15204TIP3    H267104   2.129   1.089   5.667  1.0280  0.7919 -1.0267
15205TIP3   OH267105   4.997   1.562   1.614 -0.5797 -0.1471  0.2591
15205TIP3    H167106   5.006   1.652   1.584  2.2917 -0.2154  0.7048
15205TIP3    H267107   4.988   1.510   1.534 -0.8667  0.3745 -0.0530
15206TIP3   OH267108   5.052   4.013   5.560 -0.2592  0.5755  0.2110
15206TIP3    H167109   5.124   3.976   5.509 -0.9719  0.2892 -0.6024
15206TIP3    H267110   5.094   4.081   5.614  0.4762  1.0266 -0.8996
15207TIP3   OH267111   1.222   1.294  16.933  0.1165  0.5016 -0.2686
15207TIP3    H167112   1.309   1.302  16.895 -0.4326  0.5767 -1.5623
15207TIP3    H267113   1.166   1.348  16.877 -0.9530 -0.3822 -0.0922
15208TIP3   OH267114   6.437   0.773  11.121  1.2329  0.1765  0.3849
15208TIP3    H167115   6.471   0.809  11.038  1.2626 -1.4721 -0.3494
15208TIP3    H267116   6.510   0.722  11.156  0.5300 -0.8634  0.3599
15209TIP3   OH267117   1.951   1.013   3.931 -0.3015 -0.0099  0.5005
15209TIP3    H167118   2.015   0.981   3.867 -2.1366  1.6494 -2.3796
15209TIP3    H267119   1.901   0.935   3.956  0.4000 -0.6862 -0.1500
15210TIP3   OH267120   3.936   0.048   0.781 -0.1738  0.1007 -0.0750
15210TIP3    H167121   4.025   0.055   0.817 -1.4062  0.7508  3.1655
15210TIP3    H267122   3.909  -0.041   0.803  0.1781 -0.6990 -2.5717
15211TIP3   OH267123   5.856   5.445  11.794  0.3117 -0.1866 -0.1045
15211TIP3    H167124   5.777   5.392  11.788  1.8723 -2.6403 -0.6957
15211TIP3    H267125   5.900   5.432  11.709  0.6460  2.3735 -0.4087
15212TIP3   OH267126   2.341   4.033  16.800 -0.5446 -0.1853  0.0483
15212TIP3    H167127   2.388   3.956  16.832  0.5268  0.9428  1.2399
15212TIP3    H267128   2.389   4.060  16.722 -0.0262  0.1376  0.4728
15213TIP3   OH267129   1.896   5.074   5.777 -0.0770 -0.0607  0.6650
15213TIP3    H167130   1.861   5.001   5.725  1.2225 -0.9969  1.0381
15213TIP3    H267131   1.962   5.033   5.834  1.6126  1.5759 -0.0012
15214TIP3   OH267132   0.980   1.515   2.732  0.5823 -0.4547  0.0575
15214TIP3    H167133   1.072   1.499   2.752  0.4832 -0.1300  0.8067
15214TIP3    H267134   0.935   1.504   2.816 -0.0972 -0.8462 -0.3487
15215TIP3   OH267135   4.462   1.365  10.462  0.6615 -0.3654  0.2407
15215TIP3    H167136   4.519   1.421  10.514  0.6993  0.4820 -0.6818
15215TIP3    H267137   4.424   1.303  10.525  0.1477  1.0792  1.3879
15216TIP3   OH267138   2.385   0.227  16.161 -0.2213  0.3553  0.3996
15216TIP3    H167139   2.295   0.195  16.170 -0.1142  0.3718  1.8938
15216TIP3    H267140   2.436   0.150  16.136 -0.5185  0.1391  0.4603
15217TIP3   OH267141   0.157   2.756   3.930  0.0415  0.5525 -0.1249
15217TIP3    H167142   0.223   2.793   3.989 -0.0158  1.3852 -0.5759
15217TIP3    H267143   0.079   2.809   3.944 -0.7105 -0.7330  0.7632
15218TIP3   OH267144   6.204   2.367  14.843  0.4445  0.0243  0.0034
15218TIP3    H167145   6.149   2.421  14.900  0.6586  0.3122 -0.0657
15218TIP3    H267146   6.198   2.409  14.757  0.6726 -0.0160 -0.0329
15219TIP3   OH267147   1.260   1.416   0.204  0.3315 -0.1878  0.9744
15219TIP3    H167148   1.174   1.432   0.166  0.2562 -0.3119  1.0950
15219TIP3    H267149   1.255   1.328   0.241  0.1622  0.2052  1.9264
15220TIP3   OH267150   1.162   6.464   3.451  0.2086 -0.0628 -0.1804
15220TIP3    H167151   1.137   6.372   3.441  0.5731 -0.2982  0.8862
15220TIP3    H267152   1.080   6.511   3.459  0.0360 -0.5199  0.9241
15221TIP3   OH267153   0.250   6.716  16.975 -0.1158  0.3408 -0.5350
15221TIP3    H167154   0.216   6.713  16.886 -1.3979 -0.1393 -0.0587
15221TIP3    H267155   0.343   6.736  16.965 -0.3004  0.5899 -1.9538
15222TIP3   OH267156   4.537   3.073   2.836  0.6224 -0.0570 -0.2983
15222TIP3    H167157   4.565   3.165   2.836  3.1287 -0.7515 -0.8788
15222TIP3    H267158   4.561   3.041   2.749  2.5390 -1.9957  0.8722
15223TIP3   OH267159   3.736   5.576   5.434 -0.1558  0.1148 -0.0479
15223TIP3    H167160   3.778   5.614   5.357  0.0198 -2.5994 -1.4187
15223TIP3    H267161   3.758   5.483   5.429 -2.3249 -0.5867  1.8573
15224TIP3   OH267162   4.210   4.426  15.554 -0.0267 -0.0653  0.4806
15224TIP3    H167163   4.163   4.343  15.561  1.0991 -0.8355 -0.4416
15224TIP3    H267164   4.243   4.443  15.642  0.7898 -1.2959  0.4462
15225TIP3   OH267165   6.726   0.123   4.521  0.0818 -0.7151  0.0119
15225TIP3    H167166   6.750   0.198   4.575  0.9286 -1.3548  0.5275
15225TIP3    H267167   6.795   0.059   4.534 -0.8710 -1.7985 -0.0406
15226TIP3   OH267168   0.439   5.161  12.584 -0.3057 -0.5869  0.2466
15226TIP3    H167169   0.423   5.078  12.628  0.3303 -1.9934 -2.0142
15226TIP3    H267170   0.400   5.227  12.641 -1.1828 -2.4654  1.9079
15227TIP3   OH267171   4.165   5.028   2.452  0.3791  0.1454 -0.2912
15227TIP3    H167172   4.094   5.093   2.451  0.4224  0.1975 -0.0440
15227TIP3    H267173   4.222   5.057   2.523  1.8745  1.4204 -1.9324
15228TIP3   OH267174   2.171   3.304  12.641  0.4976  0.0618  0.1667
15228TIP3    H167175   2.077   3.285  12.648  0.7023 -1.0114  0.0495
15228TIP3    H267176   2.175   3.400  12.633 -0.5297  0.2039  1.0722
15229TIP3   OH267177   1.497   2.229   2.825  0.0472  0.0961 -0.0363
15229TIP3    H167178   1.530   2.318   2.838  1.4006 -0.3902 -0.0761
15229TIP3    H267179   1.410   2.230   2.866  0.4029  1.1912  0.7280
15230TIP3   OH267180   3.361   0.187   1.540  0.2377  0.0941  0.0050
15230TIP3    H167181   3.440   0.237   1.562 -0.2111  0.0440  1.9199
15230TIP3    H267182   3.332   0.151   1.624 -2.6706  1.3476 -0.3792
15231TIP3   OH267183   0.097   1.382   5.625  0.3125 -0.4952 -0.0422
15231TIP3    H167184   0.184   1.420   5.639  0.2595 -0.6210  0.6346
15231TIP3    H267185   0.078   1.334   5.705 -1.0048  0.7297  0.4198
15232TIP3   OH267186   4.895   2.147   2.415  0.1240  0.0357  0.2739
15232TIP3    H167187   4.969   2.158   2.355  0.3945 -0.5640  0.4860
15232TIP3    H267188   4.822   2.193   2.373  0.0134 -1.2789 -1.0636
15233TIP3   OH267189   0.285   1.314   1.387  0.1318  0.1240  0.7232
15233TIP3    H167190   0.310   1.386   1.444  0.9400 -1.0566  1.9372
15233TIP3    H267191   0.237   1.254   1.444 -0.4319 -0.3566 -0.2298
15234TIP3   OH267192   1.488   2.910  11.572 -0.0937  0.3517 -0.0532
15234TIP3    H167193   1.452   2.900  11.485  0.9636 -2.0870 -0.2821
15234TIP3    H267194   1.583   2.907  11.560  0.1813 -3.8086  1.3474
15235TIP3   OH267195   0.242   0.137  12.175  0.2792 -0.3644  0.0851
15235TIP3    H167196   0.283   0.218  12.204  0.1917 -0.9212  1.8312
15235TIP3    H267197   0.234   0.083  12.254 -1.2375 -1.3994 -0.7143
15236TIP3   OH267198   0.638   5.269  16.569  0.3904 -0.2959 -0.3760
15236TIP3    H167199   0.650   5.175  16.582  1.1035 -0.2537 -0.6949
15236TIP3    H267200   0.579   5.276  16.495 -0.1555 -0.4938  0.0335
15237TIP3   OH267201   4.134   2.659   1.261  0.5108 -0.3458  0.0473
15237TIP3    H167202   4.042   2.670   1.237  0.4366  0.1856  0.5465
15237TIP3    H267203   4.180   2.650   1.178  0.4537  2.8155 -0.4393
15238TIP3   OH267204   1.022   4.383  14.895  0.0952  0.3246  0.4330
15238TIP3    H167205   0.980   4.469  14.883 -0.0039  0.3882  1.1678
15238TIP3    H267206   1.000   4.334  14.816  2.1487  1.7646 -1.1485
15239TIP3   OH267207   2.560   2.639  10.607  0.8169 -0.0423 -0.2332
15239TIP3    H167208   2.639   2.685  10.632 -0.9294  1.9653  2.0079
15239TIP3    H267209   2.555   2.564  10.666  1.2502 -0.4269 -0.6791
15240TIP3   OH267210   1.311   4.422  13.517 -0.2960  0.9210 -0.1652
15240TIP3    H167211   1.291   4.362  13.445 -1.2367  0.1496  0.7085
15240TIP3    H267212   1.402   4.402  13.540 -0.9750 -1.1536  0.9696
15241TIP3   OH267213   1.884   5.687  15.036 -0.1682 -0.1425  0.1824
15241TIP3    H167214   1.855   5.763  15.086 -1.2454  0.6178 -1.4930
15241TIP3    H267215   1.957   5.651  15.086  0.6041  2.2021  0.8592
15242TIP3   OH267216   2.041   1.656  13.424  0.6744  0.5733  0.1966
15242TIP3    H167217   2.102   1.696  13.362  2.4579 -2.0844  0.0417
15242TIP3    H267218   2.095   1.632  13.499 -0.0975 -1.8370  0.0804
15243TIP3   OH267219   3.403   4.270   2.665  0.2081  0.2566 -0.0455
15243TIP3    H167220   3.418   4.277   2.571 -0.3455  1.6650 -0.0582
15243TIP3    H267221   3.321   4.317   2.679 -0.3032 -0.8968  1.0004
15244TIP3   OH267222   5.928   2.284   1.946  0.1281 -0.8303  0.1826
15244TIP3    H167223   6.013   2.302   1.907 -0.6849  0.5132 -1.0914
15244TIP3    H267224   5.947   2.261   2.037  1.8968 -1.5684 -0.3424
15245TIP3   OH267225   3.155   3.359   0.321 -0.2127  0.2218  0.4881
15245TIP3    H167226   3.137   3.265   0.317  0.2117  0.1646 -1.8595
15245TIP3    H267227   3.239   3.365   0.367 -0.8342 -0.4259  1.7373
15246TIP3   OH267228   2.547   1.151  11.276 -0.2729 -0.0868  0.2573
15246TIP3    H167229   2.537   1.163  11.182  0.0833  0.9200  0.3360
15246TIP3    H267230   2.579   1.235  11.308 -0.4974 -0.3789  1.2990
15247TIP3   OH267231   3.502   5.189  14.754  0.6812 -0.7077 -0.3265
15247TIP3    H167232   3.499   5.220  14.664  0.8507 -2.2054 -0.8773
15247TIP3    H267233   3.425   5.134  14.763 -0.7873  1.4416  1.2818
15248TIP3   OH267234   4.103   2.579   0.147 -0.0291  0.3481 -0.3027
15248TIP3    H167235   4.035   2.534   0.198 -0.2123 -0.3752 -1.1586
15248TIP3    H267236   4.056   2.611   0.069  0.7067 -0.6930 -1.2054
15249TIP3   OH267237   5.651   2.060  15.757  0.0124 -0.6320  0.3641
15249TIP3    H167238   5.612   1.974  15.739 -0.6027 -0.2238 -0.2844
15249TIP3    H267239   5.712   2.043  15.829 -1.7929 -1.2079  1.8667
15250TIP3   OH267240   5.745   2.390   3.412 -0.5670  0.0962 -1.0929
15250TIP3    H167241   5.802   2.355   3.480  0.0952  1.2576 -1.0081
15250TIP3    H267242   5.671   2.428   3.459 -1.6060 -1.6961 -1.2225
15251TIP3   OH267243   6.763   1.547   4.020  0.1430 -0.1033  0.0057
15251TIP3    H167244   6.805   1.633   4.023 -1.0269  0.4847  0.5055
15251TIP3    H267245   6.691   1.558   3.958  0.3571 -0.9019 -0.3846
15252TIP3   OH267246   3.610   3.437  13.913 -0.1910 -0.2776  0.1666
15252TIP3    H167247   3.690   3.416  13.864 -0.7615  0.1127 -0.9639
15252TIP3    H267248   3.639   3.494  13.984  0.5049  0.0206 -0.3496
15253TIP3   OH267249   1.347   3.016  10.662 -0.1189 -0.0899  0.4877
15253TIP3    H167250   1.409   3.047  10.596  1.6158 -3.5211  0.2777
15253TIP3    H267251   1.356   3.077  10.735 -1.1215  3.0296 -1.7863
15254TIP3   OH267252   0.010   1.717  11.015  0.2223 -0.0462 -0.6529
15254TIP3    H167253  -0.000   1.767  11.096 -0.0977 -0.4592 -0.4364
15254TIP3    H267254   0.097   1.741  10.983  0.1917  0.4176 -0.3927
15255TIP3   OH267255   0.628   5.038   0.382  0.5019 -0.3382  0.3367
15255TIP3    H167256   0.606   5.103   0.448  0.7458  0.1583 -0.0569
15255TIP3    H267257   0.559   5.048   0.315  0.7277 -0.2465  0.1157
15256TIP3   OH267258   0.111   1.651  16.510  0.6302 -0.2141 -0.2042
15256TIP3    H167259   0.117   1.712  16.584  1.8025  0.6920 -1.0158
15256TIP3    H267260   0.109   1.708  16.433  0.3903 -1.1809 -0.9261
15257TIP3   OH267261   6.248   6.393   0.060  0.1712 -0.0944 -0.1907
15257TIP3    H167262   6.235   6.405   0.154 -0.2417 -0.5086 -0.1916
15257TIP3    H267263   6.162   6.368   0.027  0.1256  0.8312 -0.8121
15258TIP3   OH267264   1.121   4.989   5.839  0.8256  0.9455 -0.6297
15258TIP3    H167265   1.030   5.003   5.815  1.1015  0.9538 -1.7102
15258TIP3    H267266   1.159   4.942   5.765  1.2287 -0.8737  0.6626
15259TIP3   OH267267   3.430   5.442  15.131 -0.0525  0.4690  0.4488
15259TIP3    H167268   3.424   5.514  15.069  1.1445  1.1819  1.1233
15259TIP3    H267269   3.392   5.477  15.212  0.3144  0.2634  0.7128
15260TIP3   OH267270   3.086   5.476  13.830  0.1224  0.6295  0.7032
15260TIP3    H167271   3.008   5.452  13.781  1.7448 -1.8660 -0.8453
15260TIP3    H267272   3.077   5.430  13.914 -0.4679  1.0794  0.8901
15261TIP3   OH267273   5.447   1.623   0.059  0.5918 -0.4067  0.2785
15261TIP3    H167274   5.448   1.648   0.152  1.7092 -0.0400  0.1912
15261TIP3    H267275   5.484   1.698   0.014  0.9009 -0.9354 -0.3683
15262TIP3   OH267276   4.290   3.782  14.774  0.1151  0.1704 -0.3465
15262TIP3    H167277   4.260   3.822  14.692  0.5638  0.3159 -0.4464
15262TIP3    H267278   4.213   3.780  14.830 -0.2560 -0.1381 -0.8545
15263TIP3   OH267279   3.646   5.792  13.795 -0.2573 -0.5952 -0.3561
15263TIP3    H167280   3.657   5.811  13.702  1.5191 -1.2672 -0.3153
15263TIP3    H267281   3.556   5.760  13.803 -0.9093  0.8263 -1.5753
15264TIP3   OH267282   5.366   0.243  16.795  0.1586 -0.1195 -0.1560
15264TIP3    H167283   5.390   0.278  16.709  1.3596  0.4329  0.3729
15264TIP3    H267284   5.450   0.226  16.838 -0.3891 -2.5412  0.0934
15265TIP3   OH267285   1.844   5.340   4.738  0.0390 -0.2200  0.1363
15265TIP3    H167286   1.849   5.251   4.705  1.6046 -0.9091  2.0111
15265TIP3    H267287   1.794   5.333   4.819  0.8475  0.4394  0.7115
15266TIP3   OH267288   2.696   0.698  12.033  0.1096 -0.1764  0.5982
15266TIP3    H167289   2.685   0.612  11.994  3.1541 -0.5581  0.3106
15266TIP3    H267290   2.728   0.753  11.961  0.4985  0.5545  1.3086
15267TIP3   OH267291   4.927   0.394  10.978  0.4982  0.0278 -0.3790
15267TIP3    H167292   4.951   0.310  11.017  0.4428  0.3189  0.2893
15267TIP3    H267293   4.851   0.373  10.922  0.3622 -0.3338 -0.0631
15268TIP3   OH267294   5.797   6.788   4.403 -0.2232  0.5010 -0.0903
15268TIP3    H167295   5.842   6.872   4.410  0.0397  0.2838  1.2282
15268TIP3    H267296   5.813   6.746   4.488  1.0971 -1.6198 -1.2952
15269TIP3   OH267297   3.720   0.087   0.416  0.1098  0.0654  0.0441
15269TIP3    H167298   3.731   0.085   0.321 -0.0182  0.7852  0.0093
15269TIP3    H267299   3.676   0.004   0.437  1.8044 -0.9661 -0.2919
15270TIP3   OH267300   3.940   1.324  15.818 -0.6189  0.0895 -0.1008
15270TIP3    H167301   3.906   1.303  15.731 -0.3362 -0.9251  0.0195
15270TIP3    H267302   3.994   1.248  15.841  0.1666  0.8222  0.5146
15271TIP3   OH267303   3.442   1.430   3.096  0.4746  0.2840 -0.2092
15271TIP3    H167304   3.450   1.490   3.023  2.0007 -0.3203 -0.5899
15271TIP3    H267305   3.495   1.354   3.070 -2.7724 -2.0612 -0.5547
15272TIP3   OH267306   6.361   6.366  13.670  0.1414  0.7303 -0.5985
15272TIP3    H167307   6.375   6.313  13.749 -0.8246  0.2874 -0.7096
15272TIP3    H267308   6.403   6.450  13.690 -2.8182  1.8169  1.7224
15273TIP3   OH267309   5.230   0.655  12.238 -0.0660  0.4499  0.0024
15273TIP3    H167310   5.140   0.633  12.213 -0.0441 -0.2031  0.4596
15273TIP3    H267311   5.266   0.572  12.270 -0.1570  1.2193  2.3360
15274TIP3   OH267312   3.339   3.756   1.665  0.0502 -0.7941  0.4077
15274TIP3    H167313   3.338   3.662   1.646  1.0525 -0.3416 -2.3240
15274TIP3    H267314   3.418   3.789   1.621  0.8738  1.0688  2.9908
15275TIP3   OH267315   6.290   4.016   4.002 -0.1144 -0.5906  0.1218
15275TIP3    H167316   6.268   3.995   4.092 -1.5205  0.3106  0.0063
15275TIP3    H267317   6.363   3.957   3.981  0.0793 -0.9669  1.7518
15276TIP3   OH267318   1.804   1.166   1.370  0.1761  0.7520  0.0530
15276TIP3    H167319   1.712   1.184   1.388 -0.2471 -1.3876  0.2811
15276TIP3    H267320   1.807   1.072   1.351  2.2139  0.9149 -0.6491
15277TIP3   OH267321   4.863   0.571  16.428 -0.0044  0.1325 -0.6540
15277TIP3    H167322   4.936   0.511  16.411 -1.6078 -1.9627 -0.5752
15277TIP3    H267323   4.862   0.579  16.524 -0.6540 -0.8965 -0.5652
15278TIP3   OH267324   0.130   4.825   6.641  0.0160  0.1763  0.5357
15278TIP3    H167325   0.190   4.753   6.660  0.2708  0.1752 -0.2220
15278TIP3    H267326   0.151   4.892   6.706 -0.2712 -0.4533  1.2876
15279TIP3   OH267327   0.640   0.479  15.441  0.6609  0.2393 -0.0254
15279TIP3    H167328   0.619   0.470  15.348  0.0031 -0.1501  0.1484
15279TIP3    H267329   0.722   0.431  15.452  1.1176  0.8912 -0.5321
15280TIP3   OH267330   2.810   1.647  12.733  0.4435 -0.2679  0.2103
15280TIP3    H167331   2.878   1.703  12.694  0.3144 -0.1753  0.1136
15280TIP3    H267332   2.808   1.570  12.676  0.0333  0.0109 -0.1596
15281TIP3   OH267333   6.646   4.645   2.855 -0.6019  0.1077 -0.6439
15281TIP3    H167334   6.584   4.715   2.833 -0.2615  0.3586 -0.7993
15281TIP3    H267335   6.598   4.590   2.917  0.0732  1.9980  1.7110
15282TIP3   OH267336   1.472   2.692  12.978  0.2241  0.0158 -0.0580
15282TIP3    H167337   1.491   2.601  12.997 -0.0780 -0.2246 -0.8471
15282TIP3    H267338   1.376   2.696  12.969  0.3448  0.0081 -1.8247
15283TIP3   OH267339   1.013   6.402  15.079 -0.0884  0.2535  0.7007
15283TIP3    H167340   1.001   6.348  15.157 -1.5871 -1.2531 -0.4862
15283TIP3    H267341   1.059   6.344  15.017  3.9319  2.3891  1.3760
15284TIP3   OH267342   1.692   1.771   0.680 -0.0274 -0.5153 -0.6038
15284TIP3    H167343   1.635   1.821   0.621 -2.8369 -0.9036  1.5884
15284TIP3    H267344   1.729   1.837   0.739 -1.3339 -0.6224  0.3795
15285TIP3   OH267345   3.596   3.407  14.837  0.3245  0.4367  0.4924
15285TIP3    H167346   3.520   3.425  14.781  0.9934 -1.7525 -1.2884
15285TIP3    H267347   3.660   3.474  14.813  0.3334 -0.0316 -0.9147
15286TIP3   OH267348   6.664   2.027   5.021  0.3386  0.1457 -0.4594
15286TIP3    H167349   6.576   2.065   5.027  0.5636  0.7676 -0.9684
15286TIP3    H267350   6.660   1.970   4.945  0.0390 -0.7704  0.2288
15287TIP3   OH267351   4.312   0.098  13.832  0.1649  0.0864 -0.0892
15287TIP3    H167352   4.333   0.172  13.775  0.3496 -1.0861 -1.6030
15287TIP3    H267353   4.216   0.092  13.828  0.2384 -0.6782 -1.2295
15288TIP3   OH267354   4.206   2.710  13.432 -0.1421  0.1205  0.2992
15288TIP3    H167355   4.299   2.713  13.409  0.0700  1.0596  1.2054
15288TIP3    H267356   4.162   2.688  13.350  1.0457 -2.8179  0.3543
15289TIP3   OH267357   3.649   6.005   5.929 -0.4024  0.1044 -1.0524
15289TIP3    H167358   3.632   6.018   6.022  1.0726 -0.6264 -0.6400
15289TIP3    H267359   3.579   5.948   5.898  0.3667 -1.5881  0.1905
15290TIP3   OH267360   6.588   0.010  12.986 -0.7830  0.1994 -0.0016
15290TIP3    H167361   6.611  -0.031  12.903 -1.2287  0.7157 -0.3790
15290TIP3    H267362   6.638  -0.040  13.051 -0.2613 -0.0620 -0.5927
15291TIP3   OH267363   1.366   3.691  15.539  0.0643 -0.9079  0.2911
15291TIP3    H167364   1.343   3.714  15.449 -0.0786 -1.0671  0.2864
15291TIP3    H267365   1.432   3.755  15.564 -1.0136  0.0989  0.6099
15292TIP3   OH267366   6.108   3.219   3.258 -0.7151 -0.3898 -0.3353
15292TIP3    H167367   6.113   3.294   3.198 -2.0296 -0.1133 -0.1274
15292TIP3    H267368   6.146   3.252   3.339  1.7288 -0.9806 -1.1667
15293TIP3   OH267369   2.696   1.562  15.486 -0.3074  0.0413 -0.0006
15293TIP3    H167370   2.749   1.487  15.458 -2.6138 -1.3811 -0.8419
15293TIP3    H267371   2.760   1.627  15.513  1.8837 -1.3340 -1.5021
15294TIP3   OH267372   2.935   3.605  13.526 -0.2688  1.0196 -0.0329
15294TIP3    H167373   2.963   3.687  13.485 -0.2915  2.8960  3.3677
15294TIP3    H267374   2.849   3.625  13.564  0.3029 -0.0925  1.9982
15295TIP3   OH267375   5.613   1.554   5.388  0.0098  0.0188 -0.5362
15295TIP3    H167376   5.653   1.479   5.344 -0.0795 -0.1192 -0.3814
15295TIP3    H267377   5.669   1.570   5.464 -0.3018 -0.2540 -0.2491
15296TIP3   OH267378   3.271   6.687   5.925  0.3289  0.1202 -0.2228
15296TIP3    H167379   3.361   6.673   5.895  0.4030 -2.2381  0.9210
15296TIP3    H267380   3.280   6.738   6.005  0.7608 -1.1585  0.5611
15297TIP3   OH267381   0.587   3.251  13.210 -0.1107 -0.6414  0.1573
15297TIP3    H167382   0.536   3.329  13.231  0.9021  0.2213 -0.4954
15297TIP3    H267383   0.676   3.274  13.235  0.5221 -0.8886 -1.7308
15298TIP3   OH267384   6.294   6.412   1.482  0.1410  0.0430 -0.0998
15298TIP3    H167385   6.299   6.451   1.569 -0.9591  0.0092  0.0023
15298TIP3    H267386   6.330   6.324   1.492  0.4064  0.1853  0.2238
15299TIP3   OH267387   3.458   3.607  12.731  0.0504 -0.5148 -0.5146
15299TIP3    H167388   3.447   3.698  12.760  0.9619 -0.4599 -0.2814
15299TIP3    H267389   3.543   3.581  12.767  1.6301 -0.2391 -3.6810
15300TIP3   OH267390   2.666   1.792  16.217 -0.8613  0.0571 -0.5225
15300TIP3    H167391   2.675   1.733  16.142 -0.3880 -0.6693  0.0952
15300TIP3    H267392   2.732   1.860  16.201 -1.3823  0.4172 -1.2157
15301TIP3   OH267393   2.762   4.414   5.209  0.7174  0.4817  0.3661
15301TIP3    H167394   2.819   4.490   5.209  1.0815  0.2946 -2.3425
15301TIP3    H267395   2.752   4.391   5.117 -2.8138 -0.1916  0.7624
15302TIP3   OH267396   5.283   0.728  16.237 -0.0869  0.8139 -0.4602
15302TIP3    H167397   5.307   0.781  16.161 -0.0515  1.5039  0.0269
15302TIP3    H267398   5.222   0.663  16.202  0.1562  0.9343 -1.1327
15303TIP3   OH267399   3.985   0.743  11.885  0.2838 -0.0189 -0.0648
15303TIP3    H167400   3.982   0.703  11.798 -1.2295  1.4629 -0.7227
15303TIP3    H267401   4.075   0.727  11.915  1.1869  0.4341 -2.3695
15304TIP3   OH267402   1.977   5.313   3.226  0.6153  0.3092 -0.0707
15304TIP3    H167403   2.032   5.236   3.241 -1.1841 -1.0058  0.1403
15304TIP3    H267404   1.941   5.299   3.138 -2.4383 -0.9826  1.2353
15305TIP3   OH267405   3.912   6.838   3.888  1.1159 -0.0235  0.3494
15305TIP3    H167406   3.828   6.882   3.873  1.7010  1.1963  0.5873
15305TIP3    H267407   3.919   6.776   3.815 -0.3909 -0.7779  0.8096
15306TIP3   OH267408   2.730   1.302   4.998 -0.1425  0.0989 -0.3640
15306TIP3    H167409   2.697   1.213   4.986 -1.3631  0.5279 -0.3594
15306TIP3    H267410   2.819   1.300   4.963 -0.1988 -1.0899 -0.4711
15307TIP3   OH267411   0.655   5.992   0.005  0.0878 -0.2020  0.0609
15307TIP3    H167412   0.672   5.951   0.090  2.7848 -1.3343 -0.9191
15307TIP3    H267413   0.580   5.945  -0.030 -0.1510 -0.6951  1.2036
15308TIP3   OH267414   6.130   1.901  10.878  0.5683 -0.9636  0.2677
15308TIP3    H167415   6.096   1.866  10.960 -0.9573 -1.5234 -0.5720
15308TIP3    H267416   6.086   1.851  10.810  0.1650  0.9373 -0.9492
15309TIP3   OH267417   4.439   3.393  15.193  0.5746  0.4056 -0.1653
15309TIP3    H167418   4.505   3.329  15.221  0.9034  0.3650 -0.9996
15309TIP3    H267419   4.386   3.409  15.272  1.7602  0.6718  0.6041
15310TIP3   OH267420   2.004   5.793   5.709 -0.0201 -0.4210  0.1947
15310TIP3    H167421   2.070   5.728   5.686 -0.7825 -0.6719 -1.5191
15310TIP3    H267422   1.925   5.741   5.727 -0.1494 -0.0522  0.7146
15311TIP3   OH267423   1.266   5.392   5.645 -0.0218  0.0913  0.0277
15311TIP3    H167424   1.356   5.424   5.647 -0.0612  0.3275  3.2426
15311TIP3    H267425   1.272   5.308   5.600  1.5796  0.6062 -0.8074
15312TIP3   OH267426   2.278   5.294   0.472 -0.2634 -0.5393  0.0448
15312TIP3    H167427   2.182   5.294   0.467 -0.3004  0.1312  0.7238
15312TIP3    H267428   2.298   5.347   0.549  0.6989  0.3691 -0.8104
15313TIP3   OH267429   1.137   1.522   1.078 -0.0821 -0.0696 -0.4708
15313TIP3    H167430   1.206   1.493   1.138  0.4211 -0.1030 -1.0586
15313TIP3    H267431   1.161   1.486   0.993 -0.8744 -0.1526 -0.6714
15314TIP3   OH267432   1.551   3.177  14.636  0.1862 -0.0122 -0.1042
15314TIP3    H167433   1.636   3.184  14.593  1.9539  0.3545  3.1272
15314TIP3    H267434   1.544   3.086  14.663 -0.5188 -0.0657 -0.4336
15315TIP3   OH267435   6.249   5.930   5.832 -0.4425  0.2722 -0.1354
15315TIP3    H167436   6.260   5.835   5.830 -0.7963  0.2279  0.0437
15315TIP3    H267437   6.282   5.957   5.917 -0.1741  0.3323 -0.2574
15316TIP3   OH267438   0.261   2.518  14.170 -0.3023  0.9102  0.2225
15316TIP3    H167439   0.229   2.505  14.080  0.3192 -1.0620  0.2404
15316TIP3    H267440   0.284   2.611  14.174 -0.2568  1.0274 -1.6918
15317TIP3   OH267441   6.521   4.917  16.736  0.6182 -0.0468  0.0482
15317TIP3    H167442   6.529   4.932  16.642  1.9011  1.4255  0.3407
15317TIP3    H267443   6.432   4.945  16.758  0.1999 -0.7045 -0.7599
15318TIP3   OH267444   1.634   5.630  15.702 -0.1855 -0.5474 -0.3623
15318TIP3    H167445   1.643   5.576  15.780 -0.6213 -1.8298 -1.1564
15318TIP3    H267446   1.634   5.720  15.734  1.8325 -0.9336  0.9205
15319TIP3   OH267447   0.078   3.557  13.284  0.1106  0.4415 -0.4002
15319TIP3    H167448   0.001   3.561  13.341 -0.3657 -0.5774 -0.9538
15319TIP3    H267449   0.121   3.475  13.307  0.4920  0.5300 -0.7911
15320TIP3   OH267450   2.826   3.456  16.211 -0.6496  0.0881 -0.0257
15320TIP3    H167451   2.887   3.518  16.251 -2.6649  1.8170  0.5073
15320TIP3    H267452   2.815   3.388  16.278  2.4199 -1.6052 -1.0342
15321TIP3   OH267453   2.050   2.520  14.545  0.2655  0.9703  0.1686
15321TIP3    H167454   2.086   2.601  14.509  0.2354  0.8824 -0.0582
15321TIP3    H267455   2.125   2.460  14.551  0.2325  0.9183  0.0637
15322TIP3   OH267456   3.665   1.827  12.785 -0.2932  0.4053  0.2886
15322TIP3    H167457   3.602   1.779  12.731 -0.3379 -0.2764  0.9296
15322TIP3    H267458   3.664   1.916  12.750 -0.1017 -0.0879 -1.0159
15323TIP3   OH267459   4.080   3.215   3.063  0.7628  0.0983 -0.0832
15323TIP3    H167460   4.039   3.187   3.145  2.3142 -1.7756  0.1235
15323TIP3    H267461   4.171   3.186   3.070  0.7666 -0.8160 -2.7678
15324TIP3   OH267462   4.521   0.712   0.934 -0.0758 -0.3397  0.1163
15324TIP3    H167463   4.585   0.762   0.883  0.0498  1.1004  1.5594
15324TIP3    H267464   4.443   0.707   0.879  1.0515 -1.6063 -1.4383
15325TIP3   OH267465   0.899   4.057   0.948  0.3858  0.2857 -0.7617
15325TIP3    H167466   0.893   4.121   0.877 -1.2190  1.4835  0.4049
15325TIP3    H267467   0.812   4.055   0.987  1.0677 -0.7955  0.8117
15326TIP3   OH267468   1.856   3.293  13.533 -0.5399  0.1988 -0.0166
15326TIP3    H167469   1.819   3.258  13.614 -1.4066 -0.7128 -0.7688
15326TIP3    H267470   1.907   3.220  13.496  0.7007  0.9312  0.2049
15327TIP3   OH267471   1.172   0.004  10.978  0.4075 -0.9743  0.1726
15327TIP3    H167472   1.268   0.009  10.978  0.3328  1.3631  0.3097
15327TIP3    H267473   1.149  -0.010  10.886  0.8526  0.5371 -0.1976
15328TIP3   OH267474   2.015   6.070   2.468  0.1755  0.0913 -0.0523
15328TIP3    H167475   2.086   6.061   2.405  0.0569  2.1321 -0.5509
15328TIP3    H267476   2.055   6.050   2.553  1.5762  1.8594 -0.2331
15329TIP3   OH267477   2.041   4.094  11.740  0.3212  0.8705  0.2839
15329TIP3    H167478   2.023   4.101  11.646 -0.1700  0.3576  0.3342
15329TIP3    H267479   2.003   4.174  11.778 -1.2754  0.1434  0.2937
15330TIP3   OH267480   1.528   5.522  15.082 -0.1273  0.5154 -0.2117
15330TIP3    H167481   1.470   5.594  15.109 -0.6660 -0.3879  1.1737
15330TIP3    H267482   1.610   5.539  15.129  0.8800  1.8828 -2.2975
15331TIP3   OH267483   0.884   6.275  10.637  0.3777 -0.6730  0.0412
15331TIP3    H167484   0.867   6.369  10.638 -0.0488 -0.5632 -3.5385
15331TIP3    H267485   0.977   6.267  10.619  0.3919 -0.9176  0.2220
15332TIP3   OH267486   6.803   3.094   3.884  0.2917  0.0109  0.2829
15332TIP3    H167487   6.897   3.110   3.871  0.5610 -1.0463  0.8281
15332TIP3    H267488   6.793   3.000   3.876 -1.0572  0.2654 -1.6561
15333TIP3   OH267489   6.248   1.363  10.558 -0.4408 -0.1670  0.3399
15333TIP3    H167490   6.251   1.344  10.652  1.3777  1.4768  0.6788
15333TIP3    H267491   6.293   1.289  10.517  2.3473  0.9265  1.1928
15334TIP3   OH267492   2.391   3.043  10.801  0.3105  0.4040  0.0925
15334TIP3    H167493   2.448   3.035  10.878 -0.0877  1.8809  0.5722
15334TIP3    H267494   2.393   2.956  10.760 -0.9347 -1.0041  2.7727
15335TIP3   OH267495   0.534   1.205   6.125 -0.3733 -0.2681 -0.4176
15335TIP3    H167496   0.575   1.244   6.202 -2.0999  3.1150 -1.0289
15335TIP3    H267497   0.469   1.146   6.161 -0.6736  0.7187  0.7500
15336TIP3   OH267498   2.355   0.342  11.021 -0.4954 -0.0718 -0.9059
15336TIP3    H167499   2.313   0.260  11.047 -0.4440  0.3812  0.7187
15336TIP3    H267500   2.303   0.372  10.946 -0.9184 -1.2458 -1.1112
15337TIP3   OH267501   1.001   2.410  14.779 -0.2605 -0.2910  0.2124
15337TIP3    H167502   1.087   2.436  14.748  1.8729 -2.9615  3.2233
15337TIP3    H267503   1.005   2.421  14.874 -2.8196 -1.5805  0.5591
15338TIP3   OH267504   2.924   3.252   5.188  0.1566 -0.0088  0.7076
15338TIP3    H167505   2.978   3.330   5.174  0.1987 -0.3398 -1.0862
15338TIP3    H267506   2.835   3.282   5.172  0.3048 -0.6461 -1.5196
15339TIP3   OH267507   4.302   2.661  14.019  0.0815  0.0769  0.7797
15339TIP3    H167508   4.244   2.733  14.043  1.1338  1.4292 -0.5594
15339TIP3    H267509   4.373   2.665  14.083 -0.0123  0.0097  0.8899
15340TIP3   OH267510   1.710   5.883  11.810  0.6753  0.1362 -0.0300
15340TIP3    H167511   1.682   5.974  11.798  2.1376  1.0393  2.5187
15340TIP3    H267512   1.761   5.864  11.732 -1.3412  0.7428 -1.5747
15341TIP3   OH267513   6.047   5.080  16.225  0.1099  0.1174  0.1920
15341TIP3    H167514   6.123   5.132  16.252 -0.9728  2.2879 -0.6955
15341TIP3    H267515   6.080   5.023  16.156  1.0495  0.6016  0.2255
15342TIP3   OH267516   3.632   4.003  16.362  0.1352 -0.3464 -0.0227
15342TIP3    H167517   3.575   3.956  16.422 -0.1386  0.1536  0.1123
15342TIP3    H267518   3.714   3.953  16.362 -0.0968 -0.7253  0.2429
15343TIP3   OH267519   2.878   6.368  15.052 -0.0898  0.2330 -0.2280
15343TIP3    H167520   2.802   6.406  15.008  0.6250  0.1298 -1.6343
15343TIP3    H267521   2.861   6.274  15.054 -0.5783  0.3310  0.6667
15344TIP3   OH267522   4.500   3.995   0.884 -0.5359  0.0150 -0.9074
15344TIP3    H167523   4.585   3.957   0.861 -0.1009 -0.5472  1.3422
15344TIP3    H267524   4.521   4.059   0.952 -1.8168  0.6838 -1.1219
15345TIP3   OH267525   0.669   5.062   2.966  0.3911 -0.2140 -0.1894
15345TIP3    H167526   0.584   5.048   3.008  0.2549  0.1576 -0.3373
15345TIP3    H267527   0.692   4.977   2.929  0.1936 -0.3735  0.0547
15346TIP3   OH267528   0.068   2.235   0.013  0.1878  0.1561  0.0740
15346TIP3    H167529   0.162   2.221   0.024  0.3222  0.9131 -0.0687
15346TIP3    H267530   0.038   2.157  -0.034  0.7910  0.0301 -0.1128
15347TIP3   OH267531   6.828   2.278  14.378  0.1617  0.2383 -0.4001
15347TIP3    H167532   6.830   2.185  14.399  1.6068  0.2968 -0.1860
15347TIP3    H267533   6.811   2.321  14.462  2.0195  0.2691  0.0031
15348TIP3   OH267534   1.592   6.171  16.760 -0.5264 -0.0653  0.4323
15348TIP3    H167535   1.604   6.091  16.708 -0.3290  0.8939 -1.0570
15348TIP3    H267536   1.679   6.208  16.768 -0.8648  1.1464 -0.8661
15349TIP3   OH267537   2.191   5.816  11.811 -0.6079 -0.1420 -0.0248
15349TIP3    H167538   2.172   5.728  11.841 -0.7752  0.2148  0.9306
15349TIP3    H267539   2.209   5.866  11.890 -1.3369  0.8814 -0.4827
15350TIP3   OH267540   3.057   5.103  13.221 -0.5534  0.8226  0.2028
15350TIP3    H167541   3.142   5.090  13.180 -0.8913 -0.3964 -0.1446
15350TIP3    H267542   2.996   5.109  13.147 -0.8320  1.1884  0.4620
15351TIP3   OH267543   6.098   4.958   4.417 -0.1191 -0.0620  0.5833
15351TIP3    H167544   6.043   4.887   4.451 -0.7948  0.4563  0.5868
15351TIP3    H267545   6.060   4.981   4.333 -0.1921  0.6214  0.7972
15352TIP3   OH267546   2.379   0.261  13.155 -0.5534 -0.0788 -0.1023
15352TIP3    H167547   2.332   0.185  13.122 -0.7598 -0.1796  0.4111
15352TIP3    H267548   2.311   0.323  13.180 -0.4222 -0.2611  0.7266
15353TIP3   OH267549   3.159   5.065  14.027  0.3362 -0.1090 -0.9323
15353TIP3    H167550   3.175   4.971  14.018  2.9515  0.2916 -1.4457
15353TIP3    H267551   3.094   5.085  13.960 -0.4332 -1.5752 -0.6629
15354TIP3   OH267552   3.078   2.828   2.658  0.1849  0.4926  0.1221
15354TIP3    H167553   3.103   2.873   2.739 -1.7536  1.0776  0.4523
15354TIP3    H267554   3.140   2.756   2.650  0.0651  0.0680  2.4422
15355TIP3   OH267555   0.757   5.673  14.771 -0.4397  0.1033  0.0145
15355TIP3    H167556   0.676   5.642  14.729  0.2216 -0.8260 -0.6258
15355TIP3    H267557   0.811   5.703  14.698  0.4193 -0.7939  0.2636
15356TIP3   OH267558   1.174   0.453   2.086 -0.4247 -0.0944  0.3470
15356TIP3    H167559   1.144   0.366   2.058 -0.5632 -0.5811  1.8844
15356TIP3    H267560   1.179   0.446   2.181  2.6690  0.5954  0.3290
15357TIP3   OH267561   5.699   4.124   4.552  0.0638  0.4000  0.3408
15357TIP3    H167562   5.695   4.218   4.533 -1.0303 -0.0063 -1.6571
15357TIP3    H267563   5.779   4.094   4.510 -0.5847  0.1223 -0.7412
15358TIP3   OH267564   4.504   4.910   0.706 -0.5421 -0.4300  0.7309
15358TIP3    H167565   4.531   4.910   0.613  2.1249 -2.2018  1.3766
15358TIP3    H267566   4.543   4.990   0.742 -1.4574  0.1847  0.3919
15359TIP3   OH267567   3.872   4.990   2.074  0.1614  0.0755  0.1302
15359TIP3    H167568   3.834   5.042   2.146  0.9309 -0.2609  0.8043
15359TIP3    H267569   3.965   4.985   2.096  0.0839 -1.7392  0.1731
15360TIP3   OH267570   6.826   2.142  11.290 -0.0971 -0.3405  0.2047
15360TIP3    H167571   6.740   2.110  11.265  0.1315 -0.6440 -0.2085
15360TIP3    H267572   6.809   2.220  11.343 -0.6177 -0.3194  0.0060
15361TIP3   OH267573   2.073   5.027  14.886  0.4627  0.3549 -0.0977
15361TIP3    H167574   2.092   5.025  14.793  1.4985 -0.2531  0.1110
15361TIP3    H267575   1.979   5.046  14.891  0.6201  1.5874 -1.2164
15362TIP3   OH267576   4.631   5.677  13.960 -0.4445  0.0324  0.8307
15362TIP3    H167577   4.541   5.645  13.952 -1.5366  2.4205  2.5640
15362TIP3    H267578   4.655   5.702  13.871 -2.5214  1.7581  0.6762
15363TIP3   OH267579   6.457   4.995   3.099  0.9855 -0.2462 -0.2075
15363TIP3    H167580   6.493   4.981   3.011  0.3490 -0.9472 -0.3555
15363TIP3    H267581   6.450   4.908   3.137 -1.3132 -0.2240 -0.4825
15364TIP3   OH267582   6.103   2.465  14.320  0.5866  0.1653 -0.3872
15364TIP3    H167583   6.116   2.424  14.406  0.1042  0.6768 -0.0544
15364TIP3    H267584   6.092   2.392  14.260 -2.8310 -0.3098  0.5735
15365TIP3   OH267585   1.562   5.271  13.700  0.6609 -0.1470  0.3808
15365TIP3    H167586   1.506   5.287  13.624 -0.5062 -2.1600  0.7529
15365TIP3    H267587   1.629   5.211  13.668  0.0623 -1.1433  0.9514
15366TIP3   OH267588   4.572   1.214  12.208 -0.4694  0.4363 -0.2876
15366TIP3    H167589   4.499   1.215  12.146 -0.7298  1.9795  0.0006
15366TIP3    H267590   4.642   1.262  12.163  0.2884 -0.7473 -0.4328
15367TIP3   OH267591   3.580   3.912  11.683  0.0164 -0.2787  1.0398
15367TIP3    H167592   3.618   3.999  11.671  0.9485 -0.2953  3.4139
15367TIP3    H267593   3.501   3.913  11.629  0.3849  1.7742  0.4585
15368TIP3   OH267594   1.294   6.807   2.765  0.2615  0.1769 -0.3980
15368TIP3    H167595   1.304   6.859   2.845  0.5969  0.1272 -0.4054
15368TIP3    H267596   1.354   6.846   2.702  1.6865 -1.1278  0.0712
15369TIP3   OH267597   4.927   2.369  15.140 -0.4727 -0.7098  0.5094
15369TIP3    H167598   4.939   2.290  15.088 -1.5084 -0.2078 -0.5563
15369TIP3    H267599   4.999   2.369  15.202 -0.4399 -2.4707  0.5103
15370TIP3   OH267600   6.085   5.455  13.728 -0.0531 -0.3674 -0.4946
15370TIP3    H167601   6.074   5.387  13.662 -0.7643 -0.4483 -0.3113
15370TIP3    H267602   6.024   5.524  13.702  0.9620  0.3861 -0.9029
15371TIP3   OH267603   6.257   1.765  15.478 -0.0116  0.2621  0.4213
15371TIP3    H167604   6.340   1.718  15.476 -0.3528 -0.3235 -0.8613
15371TIP3    H267605   6.249   1.796  15.569  0.4901 -1.6766  1.1822
15372TIP3   OH267606   0.382   2.780  10.612 -0.0756 -0.4720 -0.3417
15372TIP3    H167607   0.338   2.861  10.640  0.3345 -0.2305 -0.3872
15372TIP3    H267608   0.368   2.777  10.518 -2.0916 -1.6661 -0.0477
15373TIP3   OH267609   4.676   5.000   5.728  0.1166  1.1604  0.3774
15373TIP3    H167610   4.637   5.074   5.775  1.0271  1.5478  0.5332
15373TIP3    H267611   4.729   5.040   5.659  0.2864  0.6332  0.1961
15374TIP3   OH267612   5.470   1.828   0.529 -0.3345  0.3127  0.4724
15374TIP3    H167613   5.414   1.770   0.580 -0.7567 -0.9926 -1.3798
15374TIP3    H267614   5.559   1.806   0.556 -0.5794  0.2041  1.2015
15375TIP3   OH267615   5.397   3.337  15.239  0.0249 -0.3287 -0.0115
15375TIP3    H167616   5.421   3.324  15.147  0.2916 -1.9968  0.2533
15375TIP3    H267617   5.385   3.248  15.273 -1.4374  0.2878  1.2188
15376TIP3   OH267618   1.857   1.874   3.767  0.8979 -0.2389 -0.3154
15376TIP3    H167619   1.912   1.849   3.841  3.9556 -0.7084 -2.5859
15376TIP3    H267620   1.839   1.967   3.781 -0.3723 -0.7488  1.9900
15377TIP3   OH267621   5.977   2.683   0.510 -0.3146  0.5648 -0.2490
15377TIP3    H167622   5.948   2.628   0.583 -0.7522  0.2939 -0.6246
15377TIP3    H267623   6.068   2.706   0.532 -0.5222  0.6869  0.4932
15378TIP3   OH267624   6.055   4.876  15.097 -0.0246  0.3950 -0.1099
15378TIP3    H167625   6.028   4.802  15.043 -0.5202 -0.9224  1.8304
15378TIP3    H267626   5.986   4.941  15.084  1.2419  1.2716 -3.0924
15379TIP3   OH267627   0.534   6.560  12.298 -0.2679 -0.2884 -0.2917
15379TIP3    H167628   0.547   6.539  12.206 -0.3949 -0.4531 -0.2738
15379TIP3    H267629   0.440   6.547  12.313  0.1406 -2.8366  0.4968
15380TIP3   OH267630   4.808   4.798  11.990  0.2672  0.0499 -0.0686
15380TIP3    H167631   4.839   4.867  11.931  1.5242 -0.1906  0.2680
15380TIP3    H267632   4.735   4.838  12.037  1.4517  1.4726  0.6954
15381TIP3   OH267633   1.018   3.145   3.132  0.6088 -0.1739 -0.3247
15381TIP3    H167634   1.110   3.166   3.117  1.0030  0.7169  2.7743
15381TIP3    H267635   0.975   3.229   3.144 -0.4060 -0.6288 -0.6240
15382TIP3   OH267636   3.094   4.093  13.391 -0.5444  0.5648 -0.0778
15382TIP3    H167637   3.058   4.008  13.366  0.2178  0.1233  0.2781
15382TIP3    H267638   3.137   4.077  13.475  1.1141  0.8714 -0.8228
15383TIP3   OH267639   5.921   1.624   2.617 -0.1377 -0.0587 -0.3265
15383TIP3    H167640   6.016   1.611   2.607 -0.4870 -1.8239 -1.7740
15383TIP3    H267641   5.882   1.557   2.562 -2.2597  0.6021  0.3027
15384TIP3   OH267642   4.231   5.259   5.741 -0.3946 -0.3008  0.2305
15384TIP3    H167643   4.307   5.224   5.788 -0.2329  2.7281  2.4571
15384TIP3    H267644   4.251   5.242   5.649  1.5359 -2.2153  0.9084
15385TIP3   OH267645   1.538   2.470  11.563 -0.5168 -0.1269  0.1075
15385TIP3    H167646   1.533   2.552  11.614  1.3724  0.7145 -0.9629
15385TIP3    H267647   1.629   2.466  11.535 -0.6987 -2.3969 -0.2660
15386TIP3   OH267648   4.353   2.562   2.019 -0.4558 -0.4015 -0.8651
15386TIP3    H167649   4.407   2.535   2.094 -0.6422 -0.3635 -0.7153
15386TIP3    H267650   4.414   2.569   1.946 -0.1975 -0.0077 -0.6118
15387TIP3   OH267651   0.332   0.650  14.802 -0.2409 -0.0117  0.1580
15387TIP3    H167652   0.415   0.695  14.786  0.2163 -1.2543 -1.1998
15387TIP3    H267653   0.350   0.591  14.875  0.6891 -1.7027 -1.3778
15388TIP3   OH267654   6.588   1.119   1.758 -0.1732  0.1616  0.6300
15388TIP3    H167655   6.616   1.045   1.812 -0.3399 -2.0859 -2.1368
15388TIP3    H267656   6.505   1.147   1.796 -1.1051 -2.4093  0.6834
15389TIP3   OH267657   5.658   4.032  15.950  0.3298 -0.1849 -0.3862
15389TIP3    H167658   5.700   3.982  15.880  1.9964  0.9964 -0.2806
15389TIP3    H267659   5.652   4.121  15.915  1.1287  0.4034  0.9260
15390TIP3   OH267660   1.767   0.858   3.577  0.1167  0.5416  0.5152
15390TIP3    H167661   1.729   0.905   3.651  0.0719  2.2241 -0.5363
15390TIP3    H267662   1.728   0.899   3.500  0.1209 -1.2009 -0.4673
15391TIP3   OH267663   3.636   6.714   2.562 -0.1624 -0.6092 -0.3009
15391TIP3    H167664   3.601   6.642   2.615 -0.4583 -1.2756 -1.3710
15391TIP3    H267665   3.643   6.678   2.474 -1.2416  0.9523 -1.0753
15392TIP3   OH267666   1.368   3.782  14.031  0.3336 -0.0498 -0.2546
15392TIP3    H167667   1.365   3.876  14.010  1.2616 -0.0952 -0.6664
15392TIP3    H267668   1.301   3.742  13.975  0.3094  0.3003 -0.4782
15393TIP3   OH267669   1.984   1.348   6.073 -0.1504  0.1235 -0.0158
15393TIP3    H167670   1.933   1.296   6.011  0.4695  0.6573 -1.0064
15393TIP3    H267671   2.010   1.286   6.141  0.9799 -1.0083 -1.4148
15394TIP3   OH267672   3.771   4.401  13.422  0.3066  0.0904  0.2222
15394TIP3    H167673   3.783   4.331  13.486  0.7052 -1.4469 -1.4530
15394TIP3    H267674   3.676   4.411  13.415  0.2614  0.2536  1.0272
15395TIP3   OH267675   6.114   3.841  14.887  0.3091  0.1837 -0.3174
15395TIP3    H167676   6.019   3.848  14.872  0.6804 -0.1371 -3.3936
15395TIP3    H267677   6.139   3.927  14.921 -1.2705 -0.3046  2.4828
15396TIP3   OH267678   1.529   4.353  13.654 -0.2873  0.5506  0.4497
15396TIP3    H167679   1.578   4.276  13.625 -0.0616  1.3519 -1.4484
15396TIP3    H267680   1.579   4.386  13.730  1.2951  0.4926 -0.5161
15397TIP3   OH267681   3.144   5.554  15.080  0.3719 -0.1659  0.0506
15397TIP3    H167682   3.227   5.589  15.049  1.2963 -3.8525 -2.2768
15397TIP3    H267683   3.079   5.620  15.056  2.1254  0.8796 -2.1812
15398TIP3   OH267684   6.625   0.676   2.870 -0.6722  0.3700 -0.2088
15398TIP3    H167685   6.667   0.611   2.814  0.0079 -0.1410  0.8569
15398TIP3    H267686   6.696   0.734   2.897 -0.8689  0.2566  0.5875
15399TIP3   OH267687   3.077   2.279  14.572  0.7411 -0.3834  0.1736
15399TIP3    H167688   3.026   2.286  14.491  2.6922  0.1976 -1.0920
15399TIP3    H267689   3.106   2.187  14.574  0.6376 -0.4143  0.2438
15400TIP3   OH267690   4.386   0.153  12.003  0.4386 -0.2842 -0.2736
15400TIP3    H167691   4.369   0.178  11.912 -0.2986  0.2903  0.0195
15400TIP3    H267692   4.308   0.104  12.029  0.4637 -0.0716  0.1918
15401TIP3   OH267693   3.870   6.487  16.449 -0.1242 -0.1128 -0.1606
15401TIP3    H167694   3.874   6.520  16.359  0.1564  1.4670  0.3939
15401TIP3    H267695   3.912   6.555  16.501  1.4845 -1.8806  0.9601
15402TIP3   OH267696   3.283   2.645   2.805 -0.1081  0.1250 -0.3002
15402TIP3    H167697   3.313   2.670   2.893 -0.7915  1.0124 -0.3056
15402TIP3    H267698   3.364   2.634   2.754  0.2623  0.7164  0.1488
15403TIP3   OH267699   2.660   4.470   0.601 -0.5723 -0.0842 -0.2057
15403TIP3    H167700   2.730   4.511   0.651 -0.5404 -0.2817 -0.0871
15403TIP3    H267701   2.685   4.483   0.510 -0.1571 -0.5363 -0.1618
15404TIP3   OH267702   3.981   2.070  11.721  0.3968  0.3177  0.0000
15404TIP3    H167703   4.024   2.071  11.635  0.9681  1.1250  0.2894
15404TIP3    H267704   3.889   2.088  11.701  0.4192 -0.0862 -0.4942
15405TIP3   OH267705   1.461   4.647  14.005  0.1395  0.0738  0.3236
15405TIP3    H167706   1.385   4.589  14.012  0.9524 -1.1858 -0.7700
15405TIP3    H267707   1.516   4.624  14.079  0.4890 -0.6367 -0.1406
15406TIP3   OH267708   2.891   1.918  14.258  0.0169  0.1347  0.1073
15406TIP3    H167709   2.954   1.916  14.186 -0.3893 -0.2377 -0.2439
15406TIP3    H267710   2.921   1.852  14.319  1.0167  1.2352  0.8522
15407TIP3   OH267711   3.862   3.092   2.841 -0.2494 -0.1523 -0.0243
15407TIP3    H167712   3.919   3.158   2.882  1.2915 -1.7976  0.6432
15407TIP3    H267713   3.853   3.121   2.750  2.5297 -0.2792 -0.4448
15408TIP3   OH267714   2.406   6.675   3.346  0.1310  0.0081 -0.1367
15408TIP3    H167715   2.349   6.751   3.335  0.2172  0.5077  2.2190
15408TIP3    H267716   2.348   6.600   3.338 -0.3393  0.4039 -0.4830
15409TIP3   OH267717   0.238   0.957   5.712 -0.3312 -0.1518 -1.0549
15409TIP3    H167718   0.234   0.870   5.674 -0.7267  0.2199 -1.9024
15409TIP3    H267719   0.319   0.958   5.762  0.1596 -0.6976 -1.8155
15410TIP3   OH267720   2.173   5.536   3.223  0.3515 -0.0646 -0.7125
15410TIP3    H167721   2.099   5.478   3.240 -0.6445  1.6914  1.4564
15410TIP3    H267722   2.250   5.478   3.228 -0.7538 -1.9076 -2.9702
15411TIP3   OH267723   0.513   3.555   0.838  0.3864 -0.1597  0.6847
15411TIP3    H167724   0.485   3.585   0.924 -1.0390 -1.2827  0.6403
15411TIP3    H267725   0.491   3.626   0.778  0.2947  0.1345  1.0714
15412TIP3   OH267726   3.866   2.648  16.170 -0.5706 -0.5984 -0.0570
15412TIP3    H167727   3.842   2.738  16.192  0.9946  0.0603 -0.8840
15412TIP3    H267728   3.918   2.618  16.244  0.3106 -0.2248 -0.5194
15413TIP3   OH267729   5.934   3.776   0.429  0.1932 -0.4068  0.1949
15413TIP3    H167730   5.871   3.806   0.363  0.7463 -0.1605 -0.2223
15413TIP3    H267731   5.924   3.680   0.429 -1.2508 -0.3031  1.2116
15414TIP3   OH267732   4.380   0.201  17.087  0.1919 -0.3576  0.4978
15414TIP3    H167733   4.290   0.216  17.114 -0.1222 -0.0604 -0.6775
15414TIP3    H267734   4.400   0.274  17.028  1.6863  0.3922  1.8700
15415TIP3   OH267735   1.226   4.935  13.847 -0.5486 -0.1395  0.3820
15415TIP3    H167736   1.225   5.030  13.836  0.7314 -0.1424  0.0694
15415TIP3    H267737   1.250   4.921  13.938  1.3366 -0.1494 -0.0863
15416TIP3   OH267738   3.977   1.982  15.725  0.4072  0.3483  0.1658
15416TIP3    H167739   3.963   1.930  15.805  1.7661 -1.0656 -0.4541
15416TIP3    H267740   3.896   2.032  15.715 -0.2725 -0.3370  1.7721
15417TIP3   OH267741   3.831   0.642  14.459 -0.8907  0.0734  0.0925
15417TIP3    H167742   3.756   0.701  14.454 -2.0509 -1.3145  0.3274
15417TIP3    H267743   3.798   0.558  14.426  0.5419 -0.5923  0.2650
15418TIP3   OH267744   5.223   3.124   4.977 -0.3733  0.6650 -0.2575
15418TIP3    H167745   5.264   3.049   5.021 -0.1610  1.2744  0.6258
15418TIP3    H267746   5.293   3.163   4.925  0.3293  1.9254  1.5411
15419TIP3   OH267747   3.566   1.115   1.017 -0.0808 -0.2021  0.1065
15419TIP3    H167748   3.526   1.191   1.061  0.0983 -0.1184  0.1253
15419TIP3    H267749   3.651   1.146   0.988 -0.2806 -0.2021 -0.4796
15420TIP3   OH267750   2.014   6.478   6.555  0.8182  0.6727  0.3359
15420TIP3    H167751   2.057   6.534   6.619  0.3688  0.9988  0.3610
15420TIP3    H267752   2.051   6.506   6.471  0.1827  1.4206  0.2866
15421TIP3   OH267753   0.291   4.759   5.437 -0.2332 -0.4989 -0.3398
15421TIP3    H167754   0.243   4.687   5.397 -4.3636 -0.5224  3.7932
15421TIP3    H267755   0.271   4.835   5.383 -0.3893 -1.4624 -1.6740
15422TIP3   OH267756   3.606   6.164  10.589  0.3298  0.6549  0.4087
15422TIP3    H167757   3.538   6.228  10.565 -0.3076 -0.3885 -0.6438
15422TIP3    H267758   3.566   6.079  10.573  0.6918 -0.1063  3.0298
15423TIP3   OH267759   2.820   1.285  11.319 -0.3990  0.5262  0.3081
15423TIP3    H167760   2.804   1.379  11.328 -1.1764  0.2481  2.3479
15423TIP3    H267761   2.894   1.268  11.377  1.0452  0.1606 -1.5654
15424TIP3   OH267762   6.552   4.762  10.898 -0.1331  0.6142 -0.0256
15424TIP3    H167763   6.573   4.771  10.805 -0.7365 -2.1249 -0.5276
15424TIP3    H267764   6.457   4.773  10.902 -0.2645 -0.4290  0.0393
15425TIP3   OH267765   4.584   0.650  11.681  0.3808 -0.1658 -0.2093
15425TIP3    H167766   4.662   0.688  11.720  0.4790 -1.3684  0.8415
15425TIP3    H267767   4.597   0.555  11.687  0.0443 -0.4223 -2.5156
15426TIP3   OH267768   1.545   2.713  13.274  0.2848 -0.4128 -0.1677
15426TIP3    H167769   1.557   2.631  13.321 -0.0032 -0.3471  0.0231
15426TIP3    H267770   1.634   2.742  13.253  0.3739 -0.8992 -0.4584
15427TIP3   OH267771   3.527   2.757  10.426  0.1309  0.2127  0.2338
15427TIP3    H167772   3.445   2.733  10.384  0.4794 -1.2497  0.3156
15427TIP3    H267773   3.512   2.845  10.461 -1.4634 -0.1031  0.4202
15428TIP3   OH267774   6.467   5.888  11.667  0.1749 -0.0403  0.3456
15428TIP3    H167775   6.446   5.795  11.656 -1.3063  0.4160 -1.1745
15428TIP3    H267776   6.545   5.901  11.615 -0.2662 -0.2165 -0.3728
15429TIP3   OH267777   4.204   4.460   0.558 -0.1054  0.0409 -0.7245
15429TIP3    H167778   4.264   4.525   0.523 -0.2511  0.8650  0.4737
15429TIP3    H267779   4.163   4.503   0.633 -0.0692 -1.4875  0.2341
15430TIP3   OH267780   0.102   4.087   5.733 -0.0771 -0.1150  0.2384
15430TIP3    H167781   0.144   4.144   5.668  0.4399 -0.7479  0.0142
15430TIP3    H267782   0.046   4.030   5.681 -0.0882 -0.2502  0.4024
15431TIP3   OH267783   1.994   5.095   0.671  0.2026 -0.4741 -0.6092
15431TIP3    H167784   1.911   5.137   0.693 -0.1837 -0.5927 -1.7785
15431TIP3    H267785   1.996   5.017   0.726  0.4175  0.4779  0.7775
15432TIP3   OH267786   3.788   0.987  16.525 -0.0766 -0.1751  0.0398
15432TIP3    H167787   3.840   1.048  16.576  0.8319  0.7421 -1.8858
15432TIP3    H267788   3.812   1.005  16.434 -2.2762 -1.1162 -0.7934
15433TIP3   OH267789   6.224   5.538  10.906  0.7295  0.2553  0.5511
15433TIP3    H167790   6.225   5.624  10.947 -0.4261 -0.3131  1.8901
15433TIP3    H267791   6.148   5.540  10.847 -0.3925 -0.3519  1.8967
15434TIP3   OH267792   5.984   4.618  11.551 -0.5584 -0.4330  0.0718
15434TIP3    H167793   5.988   4.526  11.576  0.3123 -1.1570 -2.4940
15434TIP3    H267794   6.070   4.637  11.514 -1.0489  1.1550 -0.3163
15435TIP3   OH267795   3.465   5.769   3.283 -0.7102  0.2543  0.4528
15435TIP3    H167796   3.406   5.835   3.319 -0.4421  0.9391 -0.3517
15435TIP3    H267797   3.523   5.747   3.356 -0.6517  1.0748  0.6605
15436TIP3   OH267798   4.660   0.993  13.055 -0.5108 -0.3000  0.4101
15436TIP3    H167799   4.705   0.971  13.136  0.0295 -0.3947  0.0872
15436TIP3    H267800   4.674   1.087  13.045  0.6554 -0.5259 -0.3031
15437TIP3   OH267801   6.357   5.788   3.300  0.0071 -0.6957  0.8085
15437TIP3    H167802   6.321   5.876   3.315  1.0059  0.2498 -1.7527
15437TIP3    H267803   6.420   5.775   3.370  0.4424  1.0062  0.7632
15438TIP3   OH267804   5.968   3.995  13.141  0.3301  0.1493 -0.1737
15438TIP3    H167805   5.919   3.958  13.068 -0.3190  0.0159  0.3126
15438TIP3    H267806   6.015   3.921  13.179 -1.6778 -0.4389  1.3570
15439TIP3   OH267807   5.725   6.485   3.983  0.0383  0.1712  0.1624
15439TIP3    H167808   5.747   6.417   4.046 -0.1603  0.5467  0.6410
15439TIP3    H267809   5.807   6.534   3.970  0.2934 -0.4167 -0.5115
15440TIP3   OH267810   5.948   2.540  11.716 -0.1920 -0.2968  0.0267
15440TIP3    H167811   5.975   2.615  11.663  0.6539 -1.0929 -0.6992
15440TIP3    H267812   5.897   2.485  11.656  0.0868 -0.8138  0.2586
15441TIP3   OH267813   5.350   5.709  14.599 -0.2559  0.4210  0.3116
15441TIP3    H167814   5.306   5.722  14.515  0.2225  0.9690  0.1342
15441TIP3    H267815   5.331   5.789  14.649  0.7642  0.8091  0.1153
15442TIP3   OH267816   5.682   1.296   1.172 -0.2446  1.4825 -0.0394
15442TIP3    H167817   5.607   1.258   1.127  0.8535  0.7535 -1.3061
15442TIP3    H267818   5.656   1.387   1.189 -1.2666  1.3393 -0.7712
15443TIP3   OH267819   0.723   6.712  13.732 -0.2169 -0.1785 -0.8712
15443TIP3    H167820   0.700   6.624  13.763  2.3953 -0.7330 -0.1643
15443TIP3    H267821   0.817   6.705  13.711 -0.6900  1.5609 -4.1577
15444TIP3   OH267822   4.034   6.821   4.463  0.0302 -0.2339 -0.2717
15444TIP3    H167823   3.988   6.888   4.413 -1.7397 -1.5487 -0.5032
15444TIP3    H267824   4.003   6.738   4.428  1.1606 -1.2031  0.8832
15445TIP3   OH267825   3.011   0.337   4.890 -0.3648  0.4487  0.2911
15445TIP3    H167826   3.105   0.323   4.880 -0.5804  0.4394 -2.4442
15445TIP3    H267827   2.972   0.253   4.867 -1.1164  1.4528 -2.4953
15446TIP3   OH267828   6.456   0.215  16.008 -0.4087  0.4018 -0.0983
15446TIP3    H167829   6.456   0.252  16.096 -0.3478  4.1886 -1.5342
15446TIP3    H267830   6.527   0.260  15.963 -0.4732 -1.3916 -2.1757
15447TIP3   OH267831   5.589   6.823   5.671  0.7834 -0.1641 -0.4565
15447TIP3    H167832   5.581   6.908   5.627 -1.2216 -0.6338 -1.1026
15447TIP3    H267833   5.681   6.819   5.698  0.7756  2.5611  0.3381
15448TIP3   OH267834   1.416   5.373   5.036 -0.5459 -0.2370  0.1204
15448TIP3    H167835   1.503   5.352   5.004 -0.4465 -0.7314  0.6831
15448TIP3    H267836   1.371   5.412   4.962 -0.3699 -1.4540 -0.6564
15449TIP3   OH267837   2.029   4.149  13.186  0.4195 -0.1314 -0.8358
15449TIP3    H167838   2.115   4.107  13.178  0.3176 -0.6130  0.3633
15449TIP3    H267839   2.002   4.165  13.096  2.0540  0.6355 -1.2301
15450TIP3   OH267840   4.038   5.640  13.385  0.3573  0.0017 -0.1045
15450TIP3    H167841   4.056   5.577  13.316  1.4025  1.3906 -1.1797
15450TIP3    H267842   3.953   5.677  13.363  0.7811  0.5887 -0.7972
15451TIP3   OH267843   1.390   4.039  14.083 -0.3066  0.8084 -0.5180
15451TIP3    H167844   1.479   4.062  14.110 -0.4770 -0.2936  1.0696
15451TIP3    H267845   1.334   4.087  14.144 -0.7032 -1.4126  0.9620
15452TIP3   OH267846   6.586   2.794  10.793 -0.1764  0.1744  0.1632
15452TIP3    H167847   6.534   2.871  10.816 -1.1583  0.3004 -2.2377
15452TIP3    H267848   6.527   2.720  10.806 -0.6874  0.2326 -1.5758
15453TIP3   OH267849   1.367   1.958  11.676 -0.4522  0.3033 -0.3683
15453TIP3    H167850   1.367   2.050  11.701  1.2248  0.3614 -0.5048
15453TIP3    H267851   1.410   1.955  11.591  0.5183 -0.7058  0.1286
15454TIP3   OH267852   1.350   2.984  12.839  0.0048 -0.6775  0.1473
15454TIP3    H167853   1.436   2.942  12.851 -0.6553 -1.9631  0.5801
15454TIP3    H267854   1.367   3.077  12.853  1.5951 -0.7195 -1.2215
15455TIP3   OH267855   1.471   0.094  13.527  0.4800 -0.0717  0.2907
15455TIP3    H167856   1.515   0.171  13.493  1.7953 -1.0331 -0.2675
15455TIP3    H267857   1.538   0.025  13.525 -0.8995 -1.4559 -0.0933
15456TIP3   OH267858   6.656   1.439  15.099 -0.2700 -0.1167 -0.3605
15456TIP3    H167859   6.613   1.477  15.023  1.3818 -0.2453 -1.3956
15456TIP3    H267860   6.741   1.481  15.102 -0.4470  0.2011  1.7019
15457TIP3   OH267861   6.720   6.561   0.187 -0.5313 -0.4593  0.0780
15457TIP3    H167862   6.780   6.561   0.113 -1.3724  0.3035 -0.6247
15457TIP3    H267863   6.654   6.626   0.164 -0.9387 -0.3811  1.3944
15458TIP3   OH267864   3.440   6.015  15.889  0.0357 -0.7816  0.0782
15458TIP3    H167865   3.410   5.925  15.900 -2.5079 -0.1445 -0.9837
15458TIP3    H267866   3.500   6.012  15.815  0.1432 -1.6250  0.1928
15459TIP3   OH267867   5.606   4.665   4.259  0.1399  0.4497 -0.1169
15459TIP3    H167868   5.630   4.578   4.228  0.7042  0.4822  0.2137
15459TIP3    H267869   5.533   4.650   4.319  0.9844  0.0776  0.8366
15460TIP3   OH267870   1.318   2.280   3.034 -0.2129  0.3488  0.5872
15460TIP3    H167871   1.283   2.193   3.048 -0.4471  0.4833  0.8401
15460TIP3    H267872   1.309   2.324   3.118 -0.8751  0.8925  0.2386
15461TIP3   OH267873   5.341   6.241   0.151  0.3280  0.0643 -0.8972
15461TIP3    H167874   5.251   6.257   0.180 -0.0788  0.2724 -2.2170
15461TIP3    H267875   5.331   6.188   0.072  1.3908 -0.2112 -0.8592
15462TIP3   OH267876   6.163   6.687   0.124 -0.0532  0.3477  0.4980
15462TIP3    H167877   6.225   6.615   0.139  0.2898  0.6410  0.5068
15462TIP3    H267878   6.121   6.665   0.040  0.8037  0.6627 -0.0252
15463TIP3   OH267879   0.355   3.538   5.380 -0.2492  0.8350  0.1919
15463TIP3    H167880   0.307   3.480   5.439 -0.6755 -0.1705 -1.1023
15463TIP3    H267881   0.287   3.587   5.333  0.0823  1.5234  0.4086
15464TIP3   OH267882   3.903   4.215  14.041 -0.2378  0.2561  0.4991
15464TIP3    H167883   3.956   4.156  13.988 -0.4551  1.9622 -1.7825
15464TIP3    H267884   3.844   4.158  14.090  0.5795 -1.4527 -0.4401
15465TIP3   OH267885   3.986   5.210  11.366 -0.6747  0.0870 -0.2551
15465TIP3    H167886   4.079   5.234  11.367 -0.6585  0.0230 -0.2130
15465TIP3    H267887   3.973   5.163  11.448 -0.7259  0.0262 -0.2982
15466TIP3   OH267888   5.833   6.483   0.291  0.1154 -0.2349 -0.8801
15466TIP3    H167889   5.898   6.442   0.348  0.5367 -1.5824 -2.2638
15466TIP3    H267890   5.792   6.550   0.346  0.5318 -1.4253  0.9693
15467TIP3   OH267891   5.316   4.598  12.146  0.5005  0.3956 -0.3188
15467TIP3    H167892   5.323   4.510  12.111  2.2366  1.4014 -2.7967
15467TIP3    H267893   5.269   4.648  12.079  0.8681  1.6764  0.3267
15468TIP3   OH267894   5.203   0.241   6.602  0.4426 -0.0685 -0.1122
15468TIP3    H167895   5.184   0.314   6.661 -0.3839 -1.1546  1.0274
15468TIP3    H267896   5.235   0.282   6.522 -0.7331  1.5814  0.2110
15469TIP3   OH267897   2.863   4.642   5.101 -0.5315  0.0767  0.0469
15469TIP3    H167898   2.860   4.674   5.191  1.6266  2.6823 -0.6523
15469TIP3    H267899   2.951   4.665   5.071 -1.2383 -0.5135 -2.7954
15470TIP3   OH267900   1.541   1.944  14.554  0.2124 -0.2014 -0.5117
15470TIP3    H167901   1.533   2.007  14.482  0.3895  0.1347 -0.2431
15470TIP3    H267902   1.454   1.943  14.594 -0.2831 -1.4220 -1.5624
15471TIP3   OH267903   6.014   6.417   1.420 -0.4211 -0.0854  0.4017
15471TIP3    H167904   5.991   6.370   1.340  0.5893  2.2418 -1.3514
15471TIP3    H267905   6.110   6.421   1.419 -0.2908 -1.0803  2.4417
15472TIP3   OH267906   1.139   2.272  15.934  0.3020 -0.3843  0.1705
15472TIP3    H167907   1.061   2.328  15.931  0.2433 -0.4933 -2.2947
15472TIP3    H267908   1.212   2.333  15.945  0.3265  0.4427 -3.3876
15473TIP3   OH267909   4.835   1.076   3.540  0.1418 -0.0141 -0.4257
15473TIP3    H167910   4.762   1.123   3.581 -0.0042 -0.1666 -0.5073
15473TIP3    H267911   4.868   1.137   3.474  1.7705  1.1138  1.3347
15474TIP3   OH267912   5.098   6.774  10.943  0.4128  0.2885 -0.0139
15474TIP3    H167913   5.151   6.839  10.897 -1.0446  0.8195 -1.0131
15474TIP3    H267914   5.140   6.690  10.924  0.6794  0.6538 -1.1209
15475TIP3   OH267915   6.346   5.769   1.241 -0.2852  0.3104 -0.1510
15475TIP3    H167916   6.415   5.712   1.206  0.2936  1.5387 -1.1285
15475TIP3    H267917   6.386   5.856   1.241 -1.2433  0.7705  0.9943
15476TIP3   OH267918   4.293   1.405   0.749 -0.4259  0.5880 -0.6149
15476TIP3    H167919   4.379   1.447   0.737  0.4316 -1.2444 -1.2899
15476TIP3    H267920   4.302   1.356   0.831 -1.0184  0.7916 -0.4258
15477TIP3   OH267921   4.789   0.637  12.748  0.2845  0.5532  0.9469
15477TIP3    H167922   4.713   0.580  12.740  1.1600 -0.4162 -1.4386
15477TIP3    H267923   4.767   0.697  12.819 -3.7439  1.8599 -1.1143
15478TIP3   OH267924   3.859   1.325  15.110  0.1229 -0.0045  0.5626
15478TIP3    H167925   3.768   1.352  15.100 -0.0454 -1.2580 -2.1862
15478TIP3    H267926   3.909   1.406  15.101 -0.6532  0.4079 -0.2153
15479TIP3   OH267927   5.028   1.391  12.552  0.2759  0.2358 -0.5333
15479TIP3    H167928   4.976   1.406  12.631  1.0452  2.4771 -0.4001
15479TIP3    H267929   4.965   1.359  12.487 -0.4942 -0.9486  0.7403
15480TIP3   OH267930   5.493   1.661  11.327 -0.0835  0.1568  0.1413
15480TIP3    H167931   5.490   1.731  11.261  2.0982 -0.6134 -0.8846
15480TIP3    H267932   5.552   1.695  11.395  1.0445 -0.6562 -0.3944
15481TIP3   OH267933   3.188   3.719   0.734 -0.0372  0.2235 -0.1718
15481TIP3    H167934   3.282   3.710   0.723 -0.2516 -1.9878 -0.5635
15481TIP3    H267935   3.151   3.690   0.651 -1.0787  2.2996 -0.5102
15482TIP3   OH267936   0.626   5.520  10.839  0.0110 -0.6735  0.7671
15482TIP3    H167937   0.598   5.563  10.919  2.3386 -0.9643  1.8122
15482TIP3    H267938   0.637   5.428  10.864 -0.3811 -1.0136 -0.2315
15483TIP3   OH267939   3.106   4.315  15.154 -0.2252  0.2469 -0.0784
15483TIP3    H167940   3.130   4.273  15.236  0.3341 -1.5232 -1.0880
15483TIP3    H267941   3.030   4.265  15.123 -1.0414  1.5051 -0.2082
15484TIP3   OH267942   1.861   0.448  11.937  0.1792  0.6986  0.1510
15484TIP3    H167943   1.914   0.517  11.977  1.0617 -0.7193  1.5492
15484TIP3    H267944   1.912   0.368  11.949 -0.8381 -0.2457 -1.3676
15485TIP3   OH267945   6.173   0.415   2.315  0.4909 -0.4962  0.2107
15485TIP3    H167946   6.147   0.384   2.228  0.8479 -0.2052 -0.0030
15485TIP3    H267947   6.127   0.498   2.326  0.6421 -0.4116  0.1993
15486TIP3   OH267948   0.250   4.293   3.326 -0.1055 -0.2184 -0.3620
15486TIP3    H167949   0.284   4.276   3.414  3.6788  1.0552 -1.3646
15486TIP3    H267950   0.187   4.364   3.338  2.1728  1.7447  1.1963
15487TIP3   OH267951   1.633   1.183  12.898  0.3392 -0.5887  0.5311
15487TIP3    H167952   1.569   1.127  12.854  2.2349 -0.6917 -2.3574
15487TIP3    H267953   1.592   1.269  12.899 -0.7136 -1.0687  0.7435
15488TIP3   OH267954   3.875   0.525  16.687 -0.5602  0.1739 -0.5170
15488TIP3    H167955   3.792   0.573  16.688 -1.6645 -1.6347  0.7377
15488TIP3    H267956   3.941   0.589  16.714 -1.5896  1.5442 -1.1308
15489TIP3   OH267957   4.932   5.872   5.122  0.4331 -0.3107 -0.1222
15489TIP3    H167958   4.976   5.792   5.151 -0.8925 -1.3048 -0.7219
15489TIP3    H267959   4.987   5.905   5.051  0.6244 -1.1090 -0.3593
15490TIP3   OH267960   6.323   5.778  15.912  0.0444  0.0200  0.4033
15490TIP3    H167961   6.311   5.714  15.982 -0.8621  0.2443  0.4651
15490TIP3    H267962   6.242   5.828  15.911 -0.5302 -0.8262 -1.6816
15491TIP3   OH267963   6.029   0.351   3.722  0.0892  0.6458  0.6534
15491TIP3    H167964   5.937   0.376   3.712 -0.0054  1.0220  2.2204
15491TIP3    H267965   6.070   0.380   3.640 -1.5364 -1.4332 -1.0290
15492TIP3   OH267966   5.754   2.242  14.854  0.1629  0.5487 -0.0455
15492TIP3    H167967   5.796   2.326  14.834 -0.4098  0.4734 -1.7381
15492TIP3    H267968   5.823   2.190  14.895  2.3604 -0.0846 -3.9967
15493TIP3   OH267969   0.008   6.384   3.449  0.2719 -0.2558  0.1873
15493TIP3    H167970   0.016   6.478   3.462  0.7123 -0.0856 -1.1287
15493TIP3    H267971   0.075   6.363   3.384  0.0484 -1.4430  0.3143
15494TIP3   OH267972   4.541   5.930   0.859  0.3231 -0.3442 -0.1246
15494TIP3    H167973   4.485   5.928   0.937  0.8233  0.0556  0.2523
15494TIP3    H267974   4.583   5.844   0.858 -0.4796 -0.7405 -0.5526
15495TIP3   OH267975   5.475   2.189   1.924 -0.0216  0.1085 -0.3379
15495TIP3    H167976   5.561   2.184   1.881  0.6465 -1.1916  1.0572
15495TIP3    H267977   5.488   2.251   1.995 -0.7227  1.1403 -1.0761
15496TIP3   OH267978   2.618   4.838   2.538  0.1782  0.5468  0.0035
15496TIP3    H167979   2.696   4.869   2.492 -0.6406  1.0539 -1.0978
15496TIP3    H267980   2.563   4.801   2.469 -1.6940  2.5386  0.3215
15497TIP3   OH267981   3.806   0.550  15.018  0.0271 -0.2947  0.3910
15497TIP3    H167982   3.874   0.513  15.075  0.0851  0.4110  0.7953
15497TIP3    H267983   3.725   0.542  15.069  0.1661  0.8450  0.8361
15498TIP3   OH267984   2.666   3.508  15.458  0.5051  0.5697 -0.4874
15498TIP3    H167985   2.641   3.563  15.532 -1.6621 -2.4183  1.2365
15498TIP3    H267986   2.689   3.424  15.497  0.3109 -0.8393 -3.1419
15499TIP3   OH267987   0.066   0.846   6.176 -0.3968 -0.0557  0.4636
15499TIP3    H167988   0.080   0.940   6.188  0.3652 -0.1590  0.4197
15499TIP3    H267989   0.065   0.810   6.265 -2.0515  0.1634  0.5664
15500TIP3   OH267990   2.964   0.983  12.021  0.0661  0.3773 -0.3548
15500TIP3    H167991   3.059   0.976  12.029  0.2434  2.0375 -0.6948
15500TIP3    H267992   2.930   0.903  12.061  1.5067  0.7889  1.8272
15501TIP3   OH267993   5.712   0.613  14.325 -0.0262  0.1783  0.2935
15501TIP3    H167994   5.706   0.519  14.310  1.3839 -0.1544  1.6302
15501TIP3    H267995   5.671   0.627  14.411 -0.1695  0.7864  0.1341
15502TIP3   OH267996   1.507   4.215   3.311 -0.5098 -0.4573 -0.2379
15502TIP3    H167997   1.497   4.294   3.364  0.2583 -0.5322  0.0448
15502TIP3    H267998   1.541   4.246   3.227 -2.1134 -0.2959 -0.8607
15503TIP3   OH267999   3.439   1.251  16.205 -0.1646  0.3894  0.3956
15503TIP3    H168000   3.393   1.317  16.257 -1.0206  0.7459 -0.7835
15503TIP3    H268001   3.372   1.216  16.147  0.5877 -0.6067  0.1170
15504TIP3   OH268002   5.000   6.501  12.490  0.2183 -0.6931  0.3564
15504TIP3    H168003   4.911   6.467  12.474 -0.5520  1.1412  0.5715
15504TIP3    H268004   5.050   6.423  12.515 -0.9359 -2.0361 -1.2367
15505TIP3   OH268005   0.785   1.988  11.720 -0.2424  0.3048  0.1008
15505TIP3    H168006   0.857   2.050  11.730  0.2649  0.1652 -2.1015
15505TIP3    H268007   0.827   1.905  11.702 -0.9087  0.3220 -1.7435
15506TIP3   OH268008   5.665   2.984  14.856  0.1391  0.2969 -0.1094
15506TIP3    H168009   5.641   3.051  14.920 -0.1762  0.0724  0.0040
15506TIP3    H268010   5.737   2.936  14.898 -0.7155 -0.4809  0.4902
15507TIP3   OH268011   4.163   4.456  15.255 -0.1687 -0.2230 -0.3960
15507TIP3    H168012   4.144   4.432  15.345  0.0223  1.1969  0.0529
15507TIP3    H268013   4.239   4.403  15.231  0.3634  0.0586  0.6090
15508TIP3   OH268014   5.801   3.259   5.693 -0.3526  0.2987 -0.1149
15508TIP3    H168015   5.793   3.176   5.740  2.4746 -0.2097 -0.3975
15508TIP3    H268016   5.713   3.276   5.660 -1.8772 -0.6746  3.0278
15509TIP3   OH268017   4.379   5.837   2.509  0.0707 -0.7384 -0.1812
15509TIP3    H168018   4.416   5.836   2.597 -2.0213 -1.1504  0.7637
15509TIP3    H268019   4.427   5.907   2.463  0.6854  0.0011  1.5202
15510TIP3   OH268020   6.295   0.003   6.041  0.2009 -0.0215  0.4870
15510TIP3    H168021   6.226  -0.062   6.028  1.2759 -1.3841  1.2240
15510TIP3    H268022   6.289   0.061   5.966 -1.5026 -0.3230  0.3637
15511TIP3   OH268023   1.438   3.981   0.850 -0.6620 -0.6098 -0.3529
15511TIP3    H168024   1.492   3.903   0.834 -1.9863 -1.4648 -0.7853
15511TIP3    H268025   1.401   3.967   0.937  0.0693  0.1414  0.0910
15512TIP3   OH268026   6.703   4.507  11.973  0.4058  0.1696 -0.2019
15512TIP3    H168027   6.635   4.540  11.914  2.3307  3.3112 -0.8731
15512TIP3    H268028   6.769   4.470  11.915  2.2017  3.0659 -0.2111
15513TIP3   OH268029   1.912   4.859  11.275  0.7407 -0.1474 -0.0891
15513TIP3    H168030   1.832   4.897  11.238  1.1851  0.2603 -0.6522
15513TIP3    H268031   1.883   4.816  11.356  0.0589  0.5511  0.0533
15514TIP3   OH268032   6.321   1.261  12.099  0.7279  0.2149  0.5145
15514TIP3    H168033   6.293   1.171  12.081 -3.9622  1.6643 -0.7848
15514TIP3    H268034   6.338   1.299  12.013  1.2204  1.0158  0.9475
15515TIP3   OH268035   1.226   2.087   4.175  0.2455  0.0612  0.3896
15515TIP3    H168036   1.221   2.144   4.252  0.6720  0.0082  0.4589
15515TIP3    H268037   1.177   2.009   4.199  0.5320 -0.0303  0.6702
15516TIP3   OH268038   4.171   4.780   1.022 -0.7544  0.2951  0.0060
15516TIP3    H168039   4.204   4.691   1.009 -1.9692 -0.4133  1.3735
15516TIP3    H268040   4.076   4.771   1.015 -0.8246  2.0338 -2.5886
15517TIP3   OH268041   4.585   3.816  16.578 -0.0602  0.2010 -0.6832
15517TIP3    H168042   4.518   3.749  16.585 -0.1524  0.3396 -0.1411
15517TIP3    H268043   4.668   3.768  16.581 -0.0779  0.1856  1.3575
15518TIP3   OH268044   2.491   4.467   4.449  0.3419  0.2775  0.1492
15518TIP3    H168045   2.426   4.417   4.498  1.0558 -0.1823  0.6456
15518TIP3    H268046   2.485   4.433   4.359 -2.1011  2.2197 -0.5534
15519TIP3   OH268047   2.619   3.909  12.301 -0.1961 -0.0587 -0.3397
15519TIP3    H168048   2.609   3.819  12.330 -0.8556  0.2198  0.3431
15519TIP3    H268049   2.572   3.912  12.217 -0.1860 -0.3416 -0.3568
15520TIP3   OH268050   0.317   1.727  10.911  0.2441  0.3365  0.0319
15520TIP3    H168051   0.354   1.638  10.916 -0.6135 -0.0336  0.0210
15520TIP3    H268052   0.314   1.746  10.817 -1.9755 -0.6941 -0.1654
15521TIP3   OH268053   3.260   2.330  15.465  0.1059  0.2319  0.5934
15521TIP3    H168054   3.303   2.244  15.461 -0.6026 -0.1672  1.2361
15521TIP3    H268055   3.203   2.331  15.389  1.3391  0.8289 -0.3536
15522TIP3   OH268056   1.690   3.244   4.596 -0.2081  0.3545  0.5006
15522TIP3    H168057   1.606   3.204   4.618 -0.4409  0.0452 -0.8852
15522TIP3    H268058   1.674   3.292   4.515  0.8013  0.8465  0.5639
15523TIP3   OH268059   4.482   5.953   5.316 -0.6465  0.7504  0.3646
15523TIP3    H168060   4.566   5.907   5.323 -0.9121  0.3079  0.7969
15523TIP3    H268061   4.481   5.989   5.228  0.4079  1.5698  0.6691
15524TIP3   OH268062   5.464   2.512   3.988 -0.6831 -0.9745  0.1286
15524TIP3    H168063   5.546   2.472   4.017 -0.2911  0.8270  1.6717
15524TIP3    H268064   5.396   2.470   4.042 -0.3374 -0.0156  1.3557
15525TIP3   OH268065   2.611   3.246  13.531 -0.1192 -0.0590 -0.4762
15525TIP3    H168066   2.692   3.246  13.583 -0.5352 -1.2153  0.2137
15525TIP3    H268067   2.638   3.276  13.444  0.9594  0.0188 -0.1290
15526TIP3   OH268068   1.976   1.500   3.416 -0.0325  0.3809  0.1579
15526TIP3    H168069   1.969   1.576   3.473 -1.7452  0.3725  0.0199
15526TIP3    H268070   1.930   1.525   3.336 -0.7572 -0.8320  0.1654
15527TIP3   OH268071   5.245   4.485   0.979  0.3526 -0.7318  0.4854
15527TIP3    H168072   5.267   4.570   0.942  1.7540 -0.7401  1.2387
15527TIP3    H268073   5.247   4.500   1.074 -1.7373 -1.0487  0.6260
15528TIP3   OH268074   3.751   0.650   0.472 -0.4791 -0.1405  0.6557
15528TIP3    H168075   3.839   0.627   0.501 -0.3192  0.1462  0.4012
15528TIP3    H268076   3.728   0.727   0.525 -0.2871  0.2276  0.2151
15529TIP3   OH268077   4.094   4.125  16.274 -0.4946  0.7606  0.3660
15529TIP3    H168078   4.077   4.051  16.332 -1.6321 -0.6029 -1.5679
15529TIP3    H268079   4.189   4.130  16.268 -0.3699 -1.2645 -0.2446
15530TIP3   OH268080   3.340   1.680  13.498 -0.9731 -0.2001 -0.3467
15530TIP3    H168081   3.272   1.744  13.521 -0.1466  0.6490 -0.2202
15530TIP3    H268082   3.293   1.612  13.450 -2.1781 -0.3574  0.9822
15531TIP3   OH268083   3.576   3.852  14.591  0.5435 -0.1786  0.1750
15531TIP3    H168084   3.641   3.797  14.547 -0.3635 -0.4739 -0.8504
15531TIP3    H268085   3.570   3.930  14.536  0.4365  0.0904  0.5659
15532TIP3   OH268086   5.189   2.833  15.026  0.0863  0.9740  0.1698
15532TIP3    H168087   5.163   2.754  15.075 -0.4509  0.5452 -0.7856
15532TIP3    H268088   5.147   2.823  14.941  0.8773  1.7986 -0.3255
15533TIP3   OH268089   4.548   5.071  16.970  0.4829 -0.5501  0.7645
15533TIP3    H168090   4.642   5.088  16.983  0.2182  1.7746  0.0619
15533TIP3    H268091   4.545   5.010  16.896  1.4390 -0.8058  0.9212
15534TIP3   OH268092   6.787   3.329   1.915  0.2778  0.2277 -0.1358
15534TIP3    H168093   6.760   3.414   1.879  0.4573  0.1707 -0.4019
15534TIP3    H268094   6.710   3.273   1.903  0.4425  0.1233 -0.7050
15535TIP3   OH268095   0.485   3.131   5.081  0.2730 -0.1321  0.1588
15535TIP3    H168096   0.500   3.208   5.136 -2.2956 -0.2542  1.1930
15535TIP3    H268097   0.487   3.057   5.143  0.0568 -0.5898 -0.3757
15536TIP3   OH268098   3.935   3.212   3.315  0.0608  0.3351 -0.4504
15536TIP3    H168099   3.842   3.193   3.301 -0.2458  0.9377  0.6784
15536TIP3    H268100   3.936   3.288   3.373  1.2426 -0.7499  1.0476
15537TIP3   OH268101   3.893   5.117   6.090 -0.1481  0.1564  0.3057
15537TIP3    H168102   3.963   5.052   6.084 -1.4095 -1.3394  0.9739
15537TIP3    H268103   3.931   5.190   6.138  1.8240  0.7061 -1.8883
15538TIP3   OH268104   5.939   3.025  12.917 -0.1707  0.2649  0.0130
15538TIP3    H168105   6.013   3.070  12.877  0.8056 -1.0266  0.2922
15538TIP3    H268106   5.862   3.075  12.889  0.7052  0.9766 -1.2068
15539TIP3   OH268107   1.091   2.726   0.876  1.3423 -0.7570  0.0796
15539TIP3    H168108   1.088   2.703   0.783  2.0941  0.8785 -0.3826
15539TIP3    H268109   1.116   2.819   0.877  1.0532 -0.6659  1.9072
15540TIP3   OH268110   1.156   2.800  13.850  0.3639 -0.1980  0.1294
15540TIP3    H168111   1.131   2.893  13.847  2.1637  0.3188  0.2066
15540TIP3    H268112   1.077   2.754  13.821 -0.8491  1.2877  0.8765
15541TIP3   OH268113   4.409   2.525  16.003 -0.7729  0.5308  0.0156
15541TIP3    H168114   4.314   2.531  15.991 -0.6063  1.0973 -1.1837
15541TIP3    H268115   4.440   2.479  15.925 -0.0093  0.7781  0.1655
15542TIP3   OH268116   4.339   0.547   0.023  0.3082 -0.7318  0.2781
15542TIP3    H168117   4.392   0.487   0.075 -2.0320 -2.3839  0.9306
15542TIP3    H268118   4.368   0.532  -0.067 -0.2471 -2.9654  0.4141
15543TIP3   OH268119   4.486   2.430   2.246 -0.5123  0.1738  0.3173
15543TIP3    H168120   4.580   2.427   2.264 -0.7503  1.2700  1.9950
15543TIP3    H268121   4.449   2.357   2.296 -0.4334 -1.2572 -1.5998
15544TIP3   OH268122   3.563   0.222   2.951 -0.1844  0.0560 -0.4186
15544TIP3    H168123   3.591   0.152   2.891 -2.6485 -1.7858  0.3969
15544TIP3    H268124   3.519   0.175   3.022 -2.0481  2.4475  0.1251
15545TIP3   OH268125   6.669   2.473  14.878  0.5735 -0.1244 -0.7794
15545TIP3    H168126   6.659   2.562  14.845  0.0429 -0.1895 -0.8011
15545TIP3    H268127   6.597   2.424  14.838  1.5167 -0.8332 -1.6741
15546TIP3   OH268128   2.943   4.506   0.143 -0.6557 -0.3215 -0.2001
15546TIP3    H168129   2.912   4.592   0.116  1.5461  0.6189  0.0869
15546TIP3    H268130   3.023   4.492   0.093 -0.7345 -2.0058  0.0897
15547TIP3   OH268131   4.910   3.061  16.050  0.2499  0.5429 -0.4230
15547TIP3    H168132   4.982   3.042  16.110 -0.8001 -1.2749  0.3638
15547TIP3    H268133   4.952   3.073  15.965  1.4786 -0.7488 -0.0400
15548TIP3   OH268134   1.643   4.442   0.561  0.6800 -0.2125 -0.2914
15548TIP3    H168135   1.647   4.452   0.656  2.5940 -1.8684 -0.1462
15548TIP3    H268136   1.733   4.456   0.531  0.1363  0.1280 -1.8656
15549TIP3   OH268137   4.347   0.737   0.583  0.4580 -0.1364 -0.0684
15549TIP3    H168138   4.413   0.777   0.526  0.5417 -0.6921 -0.3708
15549TIP3    H268139   4.319   0.658   0.536 -0.6166  0.2223 -0.0759
15550TIP3   OH268140   1.767   2.589  12.432 -0.0871 -0.5071  0.2802
15550TIP3    H168141   1.737   2.557  12.517  0.2987  0.7147  0.9111
15550TIP3    H268142   1.813   2.515  12.393  0.6127 -0.7984  1.5879
15551TIP3   OH268143   5.405   1.048  10.434 -0.6121  0.1298  0.3721
15551TIP3    H168144   5.411   0.956  10.462 -1.3389  0.1333  0.5611
15551TIP3    H268145   5.462   1.095  10.495 -0.3182 -0.1789  0.3396
15552TIP3   OH268146   4.151   6.613  11.580  0.5450 -0.0739 -0.3042
15552TIP3    H168147   4.078   6.647  11.527 -0.3237 -2.0821 -0.4853
15552TIP3    H268148   4.155   6.520  11.559  2.3595 -0.2679  0.6892
15553TIP3   OH268149   5.564   2.579  14.880 -0.4257  0.1008 -0.4873
15553TIP3    H168150   5.560   2.510  14.814 -1.9640  0.6380 -1.0014
15553TIP3    H268151   5.581   2.659  14.829  0.2888  0.2620 -0.0131
15554TIP3   OH268152   6.456   4.588  16.241  0.1203  0.2642 -0.1226
15554TIP3    H168153   6.413   4.516  16.195 -0.9783  1.1353 -0.5175
15554TIP3    H268154   6.384   4.648  16.263  0.9593  1.0572  0.5376
15555TIP3   OH268155   2.587   5.924  16.811  0.2114  0.2994 -0.2274
15555TIP3    H168156   2.645   5.912  16.886 -1.0384  0.2943  0.7703
15555TIP3    H268157   2.522   5.855  16.820 -0.2285  0.5954 -1.0503
15556TIP3   OH268158   2.001   1.016   2.492  0.3057  0.1630  0.1964
15556TIP3    H168159   2.043   0.997   2.576 -0.7979 -1.3056  0.4660
15556TIP3    H268160   1.924   1.067   2.516  1.6491  2.5224 -0.2591
15557TIP3   OH268161   0.606   5.671  15.148 -0.1168 -0.5497 -0.2386
15557TIP3    H168162   0.554   5.660  15.227  0.4019 -1.7265 -0.0373
15557TIP3    H268163   0.659   5.750  15.164 -0.9895 -0.0082  0.0137
15558TIP3   OH268164   4.391   1.179  10.673 -0.2355 -0.2812 -0.0516
15558TIP3    H168165   4.446   1.242  10.718  0.0160  0.3207 -1.1615
15558TIP3    H268166   4.306   1.186  10.717  0.4151 -0.8911  1.3683
15559TIP3   OH268167   6.795   1.624   0.050 -0.4490 -0.0007  0.2008
15559TIP3    H168168   6.861   1.595  -0.014  0.9582  1.6312  0.8163
15559TIP3    H268169   6.743   1.689   0.003  0.4500  1.0407  0.5827
15560TIP3   OH268170   4.245   5.813   2.010 -0.3350  0.0176 -0.2846
15560TIP3    H168171   4.173   5.806   2.072 -0.2687 -0.8496 -0.3054
15560TIP3    H268172   4.222   5.889   1.956 -0.7144  0.3791  0.3656
15561TIP3   OH268173   0.758   1.935   3.993  0.0051  0.3767  0.3359
15561TIP3    H168174   0.663   1.945   3.999  0.1505  1.5174  1.1278
15561TIP3    H268175   0.772   1.880   3.916 -1.2904  0.2426  0.1798
15562TIP3   OH268176   4.834   1.897  10.712  0.4883 -0.0831  0.8877
15562TIP3    H168177   4.793   1.960  10.652 -1.9029 -2.4067 -0.1113
15562TIP3    H268178   4.780   1.901  10.791  0.8003 -0.3472  1.1143
15563TIP3   OH268179   3.366   4.738  13.761  0.2348 -0.2051  0.0342
15563TIP3    H168180   3.379   4.822  13.806 -0.1531  0.0771 -0.3611
15563TIP3    H268181   3.312   4.761  13.685 -0.2515 -0.8851  0.1645
15564TIP3   OH268182   0.801   2.516  10.110 -0.7386  0.2728  0.0730
15564TIP3    H168183   0.770   2.606  10.095 -0.9247  0.0268 -1.1065
15564TIP3    H268184   0.829   2.516  10.201 -3.3155  0.7946  0.9737
15565TIP3   OH268185   3.454   6.823  11.254  0.4745  0.1452  0.0840
15565TIP3    H168186   3.366   6.792  11.235  0.5800  0.9237 -1.9907
15565TIP3    H268187   3.473   6.790  11.341 -1.7260 -0.3402  0.4466
15566TIP3   OH268188   2.464   6.197  11.759  0.5724 -0.6214  0.2009
15566TIP3    H168189   2.541   6.145  11.734  2.8664  0.8349  3.5297
15566TIP3    H268190   2.485   6.286  11.731  1.2016  0.1905  2.9777
15567TIP3   OH268191   3.946   1.156   3.489  0.3703  0.8452 -0.0802
15567TIP3    H168192   3.920   1.115   3.407  0.7213  1.4708 -0.5157
15567TIP3    H268193   3.889   1.232   3.498 -0.2802  0.2736  0.7220
15568TIP3   OH268194   1.105   0.038   2.402  0.1742 -0.3222  0.1370
15568TIP3    H168195   1.025  -0.010   2.422  1.6063 -1.9233  2.5564
15568TIP3    H268196   1.097   0.119   2.453 -0.8146  0.6163 -1.4111
15569TIP3   OH268197   5.641   3.895  16.987  0.3902  0.4022 -0.2079
15569TIP3    H168198   5.555   3.894  17.028  0.3830  1.0713 -0.2040
15569TIP3    H268199   5.631   3.949  16.909  0.6719  0.0180 -0.5198
15570TIP3   OH268200   0.591   0.508  13.557 -0.7496 -0.0570 -0.3693
15570TIP3    H168201   0.528   0.466  13.615  0.9474 -0.3288  1.3949
15570TIP3    H268202   0.610   0.442  13.491 -2.2612  0.0295 -0.9240
15571TIP3   OH268203   0.590   3.218  13.589 -0.2414 -0.4733 -0.6118
15571TIP3    H168204   0.557   3.293  13.538  0.2525  0.9327  1.0246
15571TIP3    H268205   0.517   3.195  13.647 -0.4934 -1.4910 -1.3019
15572TIP3   OH268206   6.252   1.525   5.923 -0.3703 -0.2990  0.2431
15572TIP3    H168207   6.200   1.499   5.847  0.1590  0.8061 -0.5228
15572TIP3    H268208   6.342   1.500   5.901 -0.3331 -0.7462  0.8758
15573TIP3   OH268209   2.703   2.031  11.210  0.0070  0.2744 -0.1222
15573TIP3    H168210   2.632   1.974  11.182 -0.5370  0.0410  1.6222
15573TIP3    H268211   2.668   2.078  11.286  1.3201  0.9992  0.0689
15574TIP3   OH268212   0.010   2.817   0.049 -0.0375  0.4263  0.0992
15574TIP3    H168213  -0.001   2.802  -0.045 -0.4833  0.9802  0.0594
15574TIP3    H268214   0.049   2.736   0.082  0.1842  0.2555 -0.5742
15575TIP3   OH268215   1.485   0.909   0.289  0.1885  0.8077  0.1626
15575TIP3    H168216   1.529   0.962   0.355 -1.7354  1.5692  0.8900
15575TIP3    H268217   1.418   0.861   0.337  1.0916 -1.4818 -0.6630
15576TIP3   OH268218   0.679   1.986  15.458  0.1095 -0.8809 -0.3275
15576TIP3    H168219   0.726   1.934  15.393  0.1255 -1.3164  0.0336
15576TIP3    H268220   0.748   2.032  15.506  0.0542  0.6413 -1.5884
15577TIP3   OH268221   6.258   4.510  11.113  0.4553 -0.6501  0.0271
15577TIP3    H168222   6.349   4.501  11.083  0.3815 -1.1087 -0.0637
15577TIP3    H268223   6.205   4.475  11.042  0.2941 -2.0005  0.7753
15578TIP3   OH268224   6.533   1.743   1.207 -0.1022 -0.1449 -0.2415
15578TIP3    H168225   6.497   1.728   1.120  1.3640  0.4523 -0.9684
15578TIP3    H268226   6.621   1.777   1.192  1.3345 -2.7002  1.4360
15579TIP3   OH268227   3.163   5.882  15.682 -0.6607  0.1766  0.2596
15579TIP3    H168228   3.070   5.877  15.661 -1.1156 -2.9956  2.2858
15579TIP3    H268229   3.172   5.963  15.733 -3.0800 -0.9803  2.7609
15580TIP3   OH268230   4.396   1.881  10.694 -0.6750  0.2705  0.0070
15580TIP3    H168231   4.308   1.843  10.691 -0.4912 -0.3178  1.3510
15580TIP3    H268232   4.404   1.929  10.612 -2.8594  1.6945  0.5476
15581TIP3   OH268233   5.210   2.515  14.892  0.2485 -0.1332 -0.2018
15581TIP3    H168234   5.273   2.570  14.940  0.4757  0.0202 -0.6710
15581TIP3    H268235   5.244   2.426  14.900 -1.1145 -0.5345  2.1973
15582TIP3   OH268236   2.026   6.127   4.400  0.3743 -0.5716  0.1645
15582TIP3    H168237   2.074   6.209   4.386 -0.9894  0.1976 -0.1815
15582TIP3    H268238   2.025   6.086   4.314 -0.1079 -0.2930  0.0361
15583TIP3   OH268239   2.212   3.284  14.373  0.1623  0.1945  0.5484
15583TIP3    H168240   2.268   3.318  14.304 -0.3684  1.0601  0.5255
15583TIP3    H268241   2.124   3.312  14.348 -0.2085 -0.6601  0.8685
15584TIP3   OH268242   6.801   2.364   3.191  0.2017 -0.4625  0.6295
15584TIP3    H168243   6.803   2.410   3.275  1.3616 -0.8163  0.8143
15584TIP3    H268244   6.892   2.339   3.175  0.3376  1.1720 -1.6159
15585TIP3   OH268245   5.007   1.851  15.021  0.7071 -0.5077 -0.5566
15585TIP3    H168246   5.076   1.798  14.981 -1.2868 -1.0747 -3.5899
15585TIP3    H268247   5.036   1.942  15.009  1.4293 -0.7622 -0.7453
15586TIP3   OH268248   1.955   2.932   3.933  0.1274  0.1213 -0.8958
15586TIP3    H168249   1.929   3.024   3.931 -2.5368 -0.5173 -0.5336
15586TIP3    H268250   1.915   2.898   4.013  2.1056 -1.1177 -0.3664
15587TIP3   OH268251   6.278   6.733  14.917 -0.0918 -0.0078  0.2019
15587TIP3    H168252   6.214   6.691  14.974  1.7118  0.7402  2.9869
15587TIP3    H268253   6.267   6.827  14.934  0.3573  0.2465 -0.8476
15588TIP3   OH268254   0.124   6.725  16.725  0.3462 -0.3244 -0.8057
15588TIP3    H168255   0.045   6.676  16.701 -0.0775  0.4422 -1.0357
15588TIP3    H268256   0.109   6.812  16.688 -0.3506  0.9642  2.1937
15589TIP3   OH268257   1.976   1.550  16.381  0.1819  0.1003  0.1869
15589TIP3    H168258   2.019   1.556  16.295 -1.9149 -0.6207 -0.9753
15589TIP3    H268259   1.973   1.641  16.412 -1.7247  0.8814 -1.9647
15590TIP3   OH268260   0.862   6.053   3.887 -0.2771  0.4363 -0.1217
15590TIP3    H168261   0.944   6.027   3.929  0.6735  1.3614 -1.3427
15590TIP3    H268262   0.799   6.058   3.959  1.0244  0.8567  1.0220
15591TIP3   OH268263   0.781   3.719   1.345  0.3421  0.5662 -0.8416
15591TIP3    H168264   0.734   3.643   1.311  0.8247 -0.4479  0.6593
15591TIP3    H268265   0.864   3.719   1.298  0.8039 -0.5345 -0.0802
15592TIP3   OH268266   2.409   5.576  13.316  0.0463  0.1645 -0.4130
15592TIP3    H168267   2.421   5.537  13.403  0.5736 -0.3747 -0.7201
15592TIP3    H268268   2.476   5.534  13.262 -0.4407  0.3199 -1.1404
15593TIP3   OH268269   0.666   1.348  12.347  0.5347  0.3810 -0.1684
15593TIP3    H168270   0.576   1.380  12.343 -0.3288 -1.8844 -0.1138
15593TIP3    H268271   0.663   1.274  12.408  2.4352  0.2407 -0.1746
15594TIP3   OH268272   1.568   3.643   2.668 -0.0302 -0.7669 -0.5804
15594TIP3    H168273   1.608   3.608   2.747  1.8971  0.6177 -0.8761
15594TIP3    H268274   1.495   3.697   2.700 -1.9352 -3.4742 -0.0535
15595TIP3   OH268275   5.380   2.855  15.506 -0.9202 -0.1015 -0.4997
15595TIP3    H168276   5.470   2.874  15.533 -0.7224 -0.9455 -0.5158
15595TIP3    H268277   5.369   2.762  15.526 -1.8563  0.0448 -0.3299
15596TIP3   OH268278   1.932   6.381  14.801 -0.5661 -0.3445 -0.5097
15596TIP3    H168279   1.897   6.458  14.755 -1.0385  1.1153  2.0787
15596TIP3    H268280   1.855   6.326  14.818 -0.6248 -0.1866 -0.2562
15597TIP3   OH268281   3.885   2.062   3.600 -0.0345  0.3229 -0.5039
15597TIP3    H168282   3.898   2.006   3.676 -0.3820 -2.2250 -2.2036
15597TIP3    H268283   3.969   2.062   3.555 -0.7044 -0.9541 -1.8232
15598TIP3   OH268284   0.394   1.281   2.494  0.0264 -0.3654 -0.2366
15598TIP3    H168285   0.450   1.354   2.469 -0.6992  0.4892  0.5557
15598TIP3    H268286   0.454   1.212   2.521  0.7258 -0.1056 -1.0937
15599TIP3   OH268287   3.082   4.482   6.582  0.3308  0.1199 -0.6495
15599TIP3    H168288   3.165   4.525   6.560  0.6207  0.1613  0.4670
15599TIP3    H268289   3.106   4.390   6.595 -0.0231 -0.1050 -1.5358
15600TIP3   OH268290   1.599   3.628   4.327  0.0105 -0.1364 -0.4011
15600TIP3    H168291   1.682   3.636   4.373 -0.8593 -0.4845  1.2988
15600TIP3    H268292   1.533   3.655   4.391 -1.3632 -1.9735 -0.9546
15601TIP3   OH268293   1.723   3.778   3.239  0.2742 -0.0717 -0.1694
15601TIP3    H168294   1.695   3.865   3.211  0.5704 -0.2415 -1.0097
15601TIP3    H268295   1.661   3.718   3.196  0.9524 -0.3529 -0.7760
15602TIP3   OH268296   1.102   2.467   0.409 -0.3210  0.3402 -0.8785
15602TIP3    H168297   1.189   2.504   0.394 -0.9649  1.5244 -1.8318
15602TIP3    H268298   1.093   2.396   0.345 -1.2868  2.3858 -3.1693
15603TIP3   OH268299   4.178   0.853  16.483 -0.5172  0.4251 -0.1321
15603TIP3    H168300   4.228   0.773  16.495 -1.8347 -0.0243  3.4803
15603TIP3    H268301   4.244   0.920  16.461  1.1770 -0.8381  0.8801
15604TIP3   OH268302   1.711   3.382  14.244  0.2306 -0.5275 -0.3574
15604TIP3    H168303   1.668   3.458  14.283  0.6144  1.1994 -3.0224
15604TIP3    H268304   1.797   3.379  14.286 -0.1630 -0.1364  0.5021
15605TIP3   OH268305   1.972   1.321   0.585  0.1431  0.3874  0.9814
15605TIP3    H168306   1.994   1.411   0.612  0.8914  0.6366 -0.4005
15605TIP3    H268307   2.049   1.291   0.537 -1.0015 -0.1472 -0.5693
15606TIP3   OH268308   5.085   3.480  13.763  0.0068  0.5406 -0.6927
15606TIP3    H168309   5.124   3.395  13.784  1.8740  1.0996 -1.6396
15606TIP3    H268310   4.994   3.472  13.790  0.4318 -1.3370  0.3687
15607TIP3   OH268311   1.300   4.253   6.548 -0.5731  0.1931  0.0346
15607TIP3    H168312   1.383   4.238   6.502 -0.0722  2.4041  0.0975
15607TIP3    H268313   1.327   4.287   6.634 -1.5006  1.9481 -0.3223
15608TIP3   OH268314   2.442   4.976  17.132 -0.2169  0.4232  0.4931
15608TIP3    H168315   2.432   4.895  17.081  0.2586  0.5288  0.2222
15608TIP3    H268316   2.353   5.001  17.156 -0.9275  2.2933 -3.3052
15609TIP3   OH268317   1.125   3.761   0.251  0.0274  0.4438  0.2295
15609TIP3    H168318   1.218   3.754   0.274  0.2400  0.0057 -0.7181
15609TIP3    H268319   1.125   3.783   0.158 -0.8057 -1.2705 -0.2286
15610TIP3   OH268320   2.553   3.650  10.979 -0.3666 -0.0492 -0.0787
15610TIP3    H168321   2.618   3.626  10.913 -0.8518  1.6577 -1.2326
15610TIP3    H268322   2.498   3.573  10.988  0.6562 -0.8501 -0.4930
15611TIP3   OH268323   4.689   5.526   4.808 -0.4255  0.6177 -0.0376
15611TIP3    H168324   4.705   5.477   4.727 -2.5556  0.9406 -0.7067
15611TIP3    H268325   4.776   5.534   4.848  0.1991 -2.5492 -0.5172
15612TIP3   OH268326   4.672   1.598   1.114 -0.1950 -0.0210 -0.0842
15612TIP3    H168327   4.732   1.670   1.136  0.2899  0.0927 -1.6305
15612TIP3    H268328   4.625   1.580   1.196  0.2338  1.5145  0.5448
15613TIP3   OH268329   5.891   0.188   0.669 -0.4280 -0.0611 -0.7139
15613TIP3    H168330   5.817   0.175   0.729  1.6120 -0.7199  1.8517
15613TIP3    H268331   5.928   0.101   0.658  0.6481  0.4076 -0.9609
15614TIP3   OH268332   1.569   4.658  15.768 -0.0502 -0.0129  0.1625
15614TIP3    H168333   1.487   4.648  15.720  0.4527 -2.6499 -0.3056
15614TIP3    H268334   1.592   4.569  15.795  1.9890  0.8277  1.4314
15615TIP3   OH268335   3.680   3.969  10.505 -0.1015 -0.3756 -0.1544
15615TIP3    H168336   3.676   3.905  10.575 -1.5987 -1.4750 -1.1821
15615TIP3    H268337   3.677   4.054  10.549 -1.3333 -1.0381  1.0860
15616TIP3   OH268338   3.597   5.385  14.552  0.0022  0.5957  1.0266
15616TIP3    H168339   3.667   5.389  14.618  0.7041 -1.9068  0.5358
15616TIP3    H268340   3.536   5.455  14.577  0.5863  0.1831  3.9367
15617TIP3   OH268341   1.078   5.162   0.173  0.4564  0.4141  0.3680
15617TIP3    H168342   0.988   5.136   0.153  0.9529 -1.5198  0.4615
15617TIP3    H268343   1.096   5.122   0.258  1.7103 -0.0364 -0.0974
15618TIP3   OH268344   4.815   3.103  14.485  0.2311  0.4999  0.4340
15618TIP3    H168345   4.907   3.100  14.460 -0.1040 -0.2384 -0.7902
15618TIP3    H268346   4.816   3.116  14.580  1.6069 -0.3716  0.5636
15619TIP3   OH268347   2.657   1.225  16.417  0.0902 -0.5589 -0.0149
15619TIP3    H168348   2.652   1.140  16.373  1.7254 -0.3146 -0.7573
15619TIP3    H268349   2.735   1.219  16.472 -0.0372  0.3087  0.2770
15620TIP3   OH268350   3.898   3.177   0.919  0.3181  0.2605  0.2507
15620TIP3    H168351   3.981   3.129   0.921  1.3530  2.0029  0.8413
15620TIP3    H268352   3.835   3.119   0.963  0.9995 -1.4128 -0.8863
15621TIP3   OH268353   0.188   3.065   2.888  0.3437 -0.0329 -0.6600
15621TIP3    H168354   0.093   3.074   2.888  0.1739 -1.5173 -0.1131
15621TIP3    H268355   0.207   3.014   2.809  0.6435 -0.0165 -0.5987
15622TIP3   OH268356   6.195   4.190   2.979  0.2157  0.6608  0.3857
15622TIP3    H168357   6.276   4.227   2.947  0.0980 -1.1200 -2.2801
15622TIP3    H268358   6.126   4.247   2.945  0.2031  0.0382 -0.6656
15623TIP3   OH268359   3.249   2.793  11.996 -0.2258  0.0469  0.3051
15623TIP3    H168360   3.308   2.763  12.065  0.3964  0.6274  0.0445
15623TIP3    H268361   3.265   2.887  11.990 -0.8640  0.1380 -0.0756
15624TIP3   OH268362   0.461   2.104  12.140  0.3752  0.3946 -0.2773
15624TIP3    H168363   0.538   2.072  12.187 -0.0019  1.0766  0.8318
15624TIP3    H268364   0.457   2.198  12.161  0.0671  0.6804 -1.4991
15625TIP3   OH268365   2.885   1.189   4.072  0.0087  0.0141  0.3973
15625TIP3    H168366   2.799   1.149   4.087 -1.2236  2.6874  1.1606
15625TIP3    H268367   2.924   1.195   4.159  0.0637  0.6451  0.3353
15626TIP3   OH268368   0.662   3.503   5.124  0.0557  0.7510  0.5997
15626TIP3    H168369   0.697   3.583   5.084  2.5900 -0.0995  0.9429
15626TIP3    H268370   0.653   3.525   5.216 -0.3232  0.9605  0.5166
15627TIP3   OH268371   3.688   0.545  15.945  0.7592  0.2639  0.2985
15627TIP3    H168372   3.744   0.470  15.963  0.7523 -0.1164 -1.1459
15627TIP3    H268373   3.747   0.620  15.943  1.1715 -0.0710 -0.7558
15628TIP3   OH268374   4.131   5.124  16.080  0.5038 -0.2107 -1.0716
15628TIP3    H168375   4.066   5.192  16.063  0.5569 -0.2826 -1.5733
15628TIP3    H268376   4.112   5.056  16.016  1.4000 -0.0004 -1.5755
15629TIP3   OH268377   3.019   5.780   2.333 -0.3796 -0.5885 -0.0263
15629TIP3    H168378   2.971   5.863   2.324 -1.4534 -1.1931 -0.0925
15629TIP3    H268379   3.091   5.787   2.271  0.6607  1.0366  1.2863
15630TIP3   OH268380   6.474   5.537  16.730  0.3797  0.2736  0.3556
15630TIP3    H168381   6.520   5.465  16.772 -1.7964 -0.7119  1.1908
15630TIP3    H268382   6.540   5.577  16.672  1.8828 -1.8414  0.4876
15631TIP3   OH268383   4.451   0.619   1.403  0.1295  0.0991  0.2038
15631TIP3    H168384   4.493   0.542   1.365 -0.4959 -0.0180 -0.2827
15631TIP3    H268385   4.430   0.674   1.327 -1.1943 -0.1686  0.3442
15632TIP3   OH268386   5.274   5.915  16.870  0.5255  0.0431 -0.9612
15632TIP3    H168387   5.247   5.847  16.932  2.8640  1.1007  1.3960
15632TIP3    H268388   5.271   5.872  16.784 -3.7392 -1.2197 -0.4143
15633TIP3   OH268389   5.818   5.955   0.327  0.5657 -0.0805  0.4421
15633TIP3    H168390   5.823   5.867   0.290  0.9241 -0.3638  1.1346
15633TIP3    H268391   5.779   5.942   0.414  0.0062  0.5288  0.2923
15634TIP3   OH268392   3.928   5.465   0.556  0.1386 -0.3203  0.2641
15634TIP3    H168393   3.984   5.398   0.595  1.0743 -0.2488 -0.9231
15634TIP3    H268394   3.847   5.419   0.535 -0.0088 -0.5890  1.3366
15635TIP3   OH268395   4.042   1.590  11.138  0.3764  0.1826 -0.6666
15635TIP3    H168396   4.088   1.511  11.110 -0.0387  0.1993 -1.4265
15635TIP3    H268397   3.987   1.614  11.063 -2.1325 -0.7535  0.7806
15636TIP3   OH268398   5.322   1.527  10.374 -0.0661  0.1205  0.8501
15636TIP3    H168399   5.369   1.447  10.351 -0.1630  0.1244  0.6364
15636TIP3    H268400   5.386   1.597  10.359  0.0347  0.0779  1.0863
15637TIP3   OH268401   3.414   0.200  15.503  0.2280  0.7602 -0.2624
15637TIP3    H168402   3.491   0.211  15.559 -0.0566 -0.7797  0.5026
15637TIP3    H268403   3.341   0.192  15.564 -0.1292 -0.6550 -0.8264
15638TIP3   OH268404   6.565   5.832  16.120 -0.7274  0.6775  0.2683
15638TIP3    H168405   6.473   5.834  16.093 -0.0601  3.1011 -2.3304
15638TIP3    H268406   6.611   5.796  16.044  0.4657 -1.1033  1.7742
15639TIP3   OH268407   1.968   6.793   2.979  0.6276 -0.3263 -0.2659
15639TIP3    H168408   1.923   6.819   2.898  1.1944  0.6562 -0.2735
15639TIP3    H268409   2.034   6.730   2.950 -0.3901 -1.4255 -0.3134
15640TIP3   OH268410   1.241   5.964   5.098  0.4093  0.6916 -0.0528
15640TIP3    H168411   1.314   5.926   5.146  0.3915  0.4789 -0.1962
15640TIP3    H268412   1.206   6.032   5.157  0.4228  0.4688  0.2114
15641TIP3   OH268413   5.415   2.811  16.538  0.4855 -0.4877 -0.7379
15641TIP3    H168414   5.347   2.796  16.602  0.7264  0.4908 -0.2343
15641TIP3    H268415   5.372   2.799  16.453 -0.1611 -0.4608 -0.4159
15642TIP3   OH268416   3.514   0.767   3.379 -0.2629 -0.4692  0.3234
15642TIP3    H168417   3.593   0.820   3.379  0.7352 -1.8937  1.0448
15642TIP3    H268418   3.514   0.725   3.293 -0.6533  0.0834  0.0423
15643TIP3   OH268419   6.704   4.658   3.276 -0.6861  0.1065 -0.2462
15643TIP3    H168420   6.624   4.664   3.224 -0.6100 -0.1956 -0.3977
15643TIP3    H268421   6.674   4.648   3.366 -0.8320 -1.4180 -0.4391
15644TIP3   OH268422   1.614   4.632   1.593 -0.7749  0.0881 -0.5424
15644TIP3    H168423   1.676   4.674   1.533  1.5203  0.4789  1.9151
15644TIP3    H268424   1.576   4.705   1.642 -1.2251 -0.3417 -0.2501
15645TIP3   OH268425   4.977   0.627  12.182 -0.2844 -0.5230  0.0721
15645TIP3    H168426   4.924   0.634  12.102 -1.1662 -0.2730  0.6666
15645TIP3    H268427   4.933   0.684  12.245  0.7657 -0.2134  0.5488
15646TIP3   OH268428   0.674   1.867  11.941 -0.4684  0.5019  0.0650
15646TIP3    H168429   0.637   1.954  11.960  1.2143  1.2260  0.2032
15646TIP3    H268430   0.692   1.870  11.847  0.6027  0.7233  0.2702
15647TIP3   OH268431   5.791   5.100  16.789 -0.3581  0.3472 -0.6078
15647TIP3    H168432   5.751   5.041  16.725 -0.5218  0.7086 -0.8474
15647TIP3    H268433   5.790   5.186  16.746  0.7838  0.3519 -0.6690
15648TIP3   OH268434   5.678   2.581   0.017  0.0708  0.0212  0.2131
15648TIP3    H168435   5.721   2.652   0.064  0.0648  0.9803 -1.1503
15648TIP3    H268436   5.668   2.614  -0.072 -1.3163 -1.1093 -0.0939
15649TIP3   OH268437   1.574   1.341  15.327  0.8854 -0.9140 -0.1449
15649TIP3    H168438   1.618   1.426  15.315 -3.0040  1.6208  1.3463
15649TIP3    H268439   1.546   1.342  15.419 -2.8385 -1.8175 -1.1144
15650TIP3   OH268440   0.693   1.682  14.835  0.6075 -0.3056  0.7219
15650TIP3    H168441   0.776   1.706  14.793 -0.2270  0.2051 -0.6931
15650TIP3    H268442   0.685   1.743  14.909  0.8470  0.5668  0.0509
15651TIP3   OH268443   2.101   6.126  16.644 -0.3399 -0.4873  0.5574
15651TIP3    H168444   2.090   6.052  16.584 -2.1623  0.1969 -0.0205
15651TIP3    H268445   2.096   6.088  16.731  3.0738 -1.6175  0.4355
15652TIP3   OH268446   6.281   4.088   2.220  0.2290  0.2430  0.1314
15652TIP3    H168447   6.361   4.119   2.177  0.2052  1.6265  1.0410
15652TIP3    H268448   6.212   4.147   2.191 -0.3475 -0.5061 -0.0785
15653TIP3   OH268449   6.401   6.322  15.905 -0.2038  0.0462 -0.1742
15653TIP3    H168450   6.411   6.228  15.889 -0.6678  0.3654 -2.9770
15653TIP3    H268451   6.341   6.328  15.979  0.5781 -1.8356  0.6836
15654TIP3   OH268452   4.512   5.225  14.353  0.1409  0.0974 -0.1372
15654TIP3    H168453   4.507   5.225  14.257 -0.4017 -2.2955 -0.1450
15654TIP3    H268454   4.426   5.197  14.382  0.8925 -1.1613  0.9741
15655TIP3   OH268455   1.539   2.911   4.079  0.5120  0.5794  0.3083
15655TIP3    H168456   1.475   2.927   4.010  0.6528  0.7579  0.2193
15655TIP3    H268457   1.610   2.973   4.062 -0.6613  2.6024  2.1429
15656TIP3   OH268458   5.214   3.011  14.021  0.3362 -0.2426 -0.3510
15656TIP3    H168459   5.197   2.928  14.065 -0.0766  0.0840  0.1080
15656TIP3    H268460   5.269   3.061  14.082  0.5098 -0.1421 -0.5871
15657TIP3   OH268461   5.623   1.139   6.124  0.2381  0.2078  0.1268
15657TIP3    H168462   5.574   1.091   6.191  0.7480  0.9218  1.0549
15657TIP3    H268463   5.617   1.231   6.152  1.5918  0.3732 -0.0453
15658TIP3   OH268464   2.244   0.244   1.105 -0.1182  0.0451 -0.2827
15658TIP3    H168465   2.301   0.315   1.133  0.3112 -0.0260 -0.9403
15658TIP3    H268466   2.156   0.273   1.127  0.0022  0.9972 -0.9806
15659TIP3   OH268467   4.843   5.793  11.498 -0.1122  0.2558 -0.8125
15659TIP3    H168468   4.921   5.771  11.447  0.9661 -0.0745  0.8852
15659TIP3    H268469   4.834   5.721  11.560  0.7335  2.1770  1.7621
15660TIP3   OH268470   4.529   3.615  10.901 -0.0678  0.1836 -0.0249
15660TIP3    H168471   4.556   3.536  10.855 -2.0684 -0.7918  0.3779
15660TIP3    H268472   4.529   3.684  10.834  1.5329 -0.1602 -0.4096
15661TIP3   OH268473   4.426   2.873  11.505 -0.4432 -0.3981  0.3289
15661TIP3    H168474   4.369   2.873  11.428  1.6841 -0.8341 -1.3122
15661TIP3    H268475   4.440   2.966  11.524 -0.8728 -0.2889  0.1245
15662TIP3   OH268476   5.609   6.450  12.492  0.6867  0.0817  0.6193
15662TIP3    H168477   5.536   6.512  12.489 -0.7027 -1.5185  0.5800
15662TIP3    H268478   5.601   6.408  12.578  0.3705 -1.4858 -0.1526
15663TIP3   OH268479   2.023   0.084  13.665 -0.3688 -0.2074 -0.2931
15663TIP3    H168480   2.113   0.087  13.696 -0.7817 -1.2730  1.1606
15663TIP3    H268481   1.978   0.027  13.729 -1.9469 -0.1014 -1.2567
15664TIP3   OH268482   0.321   2.618  12.284  0.0852  0.4218  0.1900
15664TIP3    H168483   0.249   2.680  12.280  0.3102  0.8661  2.0178
15664TIP3    H268484   0.399   2.672  12.301  0.2027 -0.3444  2.3609
15665TIP3   OH268485   2.936   3.408   4.883  0.1664 -0.3473  0.1739
15665TIP3    H168486   2.967   3.476   4.823 -1.1939  1.8000  1.7112
15665TIP3    H268487   2.996   3.415   4.958 -0.2894 -0.4891  0.5508
15666TIP3   OH268488   3.306   3.523   2.061  0.1231  0.2774  0.1160
15666TIP3    H168489   3.280   3.565   1.978  1.3946  0.1208 -0.3826
15666TIP3    H268490   3.295   3.429   2.044  0.8642  0.2162 -0.0608
15667TIP3   OH268491   1.855   1.629   5.461  0.6079  0.3105 -0.3100
15667TIP3    H168492   1.825   1.719   5.471 -0.9636 -0.1480 -0.6669
15667TIP3    H268493   1.817   1.600   5.379 -1.8723 -1.7528  1.4088
15668TIP3   OH268494   2.163   1.432   1.822  0.1560  0.4814  0.5798
15668TIP3    H168495   2.119   1.456   1.741 -1.5238 -1.6898  0.7525
15668TIP3    H268496   2.188   1.340   1.810 -0.9049 -0.1814  2.7898
15669TIP3   OH268497   0.621   0.492  11.635  0.1709  0.0933 -0.2967
15669TIP3    H168498   0.550   0.522  11.578  0.6071 -1.1487 -1.5542
15669TIP3    H268499   0.682   0.448  11.576  0.6434 -1.2664  1.1383
15670TIP3   OH268500   4.596   4.194  16.699  0.0208 -0.5007  0.0575
15670TIP3    H168501   4.648   4.269  16.728  2.7710 -1.8342 -1.0699
15670TIP3    H268502   4.569   4.216  16.610  0.2176 -0.5431 -0.0139
15671TIP3   OH268503   6.232   4.891   0.207  0.3660 -0.3279 -0.0584
15671TIP3    H168504   6.264   4.817   0.156 -1.2872 -1.0080 -0.1583
15671TIP3    H268505   6.137   4.889   0.197  0.3049  2.5375 -1.0811
15672TIP3   OH268506   0.734   2.031  12.188 -0.0177 -0.0013  0.2565
15672TIP3    H168507   0.827   2.054  12.177 -0.3965  2.5660  1.7883
15672TIP3    H268508   0.730   1.938  12.163  2.4844  0.4135 -2.2258
15673TIP3   OH268509   6.822   6.088  13.069 -0.6110  0.2759  0.1235
15673TIP3    H168510   6.839   6.158  13.006 -1.1836 -0.9318 -1.4515
15673TIP3    H268511   6.840   6.127  13.154 -1.9628  2.6524 -0.5941
15674TIP3   OH268512   5.681   3.598  11.055 -0.3600 -0.2009 -0.0074
15674TIP3    H168513   5.627   3.523  11.080 -0.3233 -0.2714 -0.1362
15674TIP3    H268514   5.661   3.612  10.962  0.0271 -0.3819 -0.1212
15675TIP3   OH268515   3.741   3.212  13.428  0.0899  0.0090 -0.3282
15675TIP3    H168516   3.834   3.195  13.444 -0.1901 -1.9996 -0.6082
15675TIP3    H268517   3.739   3.303  13.398  1.7499  0.6432  1.2677
15676TIP3   OH268518   5.557   3.709  16.464 -0.2374 -0.2916 -0.0856
15676TIP3    H168519   5.608   3.785  16.438  1.2207 -1.1048  0.2950
15676TIP3    H268520   5.552   3.655  16.385  2.4368 -1.7894  0.6515
15677TIP3   OH268521   3.783   6.345   1.078 -0.6224  0.1841 -0.0682
15677TIP3    H168522   3.862   6.316   1.122 -0.9062  1.0277  1.0503
15677TIP3    H268523   3.814   6.397   1.003 -0.1096 -2.8441 -2.1199
15678TIP3   OH268524   2.960   5.051  12.970 -0.1660  0.2317 -0.3361
15678TIP3    H168525   2.905   4.977  12.947 -0.1668 -0.0360  0.4881
15678TIP3    H268526   3.049   5.015  12.974  0.1402  0.7328 -2.0029
15679TIP3   OH268527   0.889   2.380   1.637  0.1228 -0.1042  0.4848
15679TIP3    H168528   0.842   2.374   1.554 -0.9847  1.1372  0.9836
15679TIP3    H268529   0.963   2.320   1.628 -1.7361 -2.3945 -0.1830
15680TIP3   OH268530   2.882   2.972   4.638  0.1408 -0.3544 -0.1983
15680TIP3    H168531   2.893   2.909   4.567 -0.7922  0.6935 -1.3235
15680TIP3    H268532   2.911   3.056   4.600  2.2340 -0.1892  1.5412
15681TIP3   OH268533   5.371   3.492  13.079  0.1950  0.5456 -0.6138
15681TIP3    H168534   5.420   3.488  13.161 -1.4898  2.7065  0.6275
15681TIP3    H268535   5.433   3.528  13.015  1.3418 -0.5691 -0.1674
15682TIP3   OH268536   1.561   0.772  10.588  0.7997  0.6572  0.2122
15682TIP3    H168537   1.645   0.768  10.542 -0.0257 -0.5197 -1.2863
15682TIP3    H268538   1.505   0.712  10.540 -0.6292  0.6614  1.7924
15683TIP3   OH268539   1.831   2.638   4.766 -0.3847 -0.3304 -0.2624
15683TIP3    H168540   1.744   2.630   4.804  0.0397 -2.5343  0.3772
15683TIP3    H268541   1.820   2.699   4.693 -1.8819  1.5076  1.4152
15684TIP3   OH268542   1.670   4.206   0.879 -0.6380  0.0939  0.4920
15684TIP3    H168543   1.582   4.170   0.886 -0.6187  0.0864  0.7204
15684TIP3    H268544   1.702   4.177   0.794 -0.5478 -0.5969  0.7564
15685TIP3   OH268545   3.951   5.311   2.740 -0.4759  0.1467 -0.0886
15685TIP3    H168546   3.952   5.239   2.803 -0.9144 -0.5357 -0.8472
15685TIP3    H268547   3.895   5.377   2.781  0.3672  0.3003  0.8597
15686TIP3   OH268548   4.158   1.581   0.560  0.1862 -0.7797 -0.4053
15686TIP3    H168549   4.179   1.531   0.639  1.9933  0.4215 -0.0585
15686TIP3    H268550   4.198   1.667   0.575 -1.9968  0.4747 -1.3942
15687TIP3   OH268551   6.389   6.582  17.075 -0.2263 -0.1079  0.3842
15687TIP3    H168552   6.323   6.604  17.010 -0.2997 -0.7141  0.2428
15687TIP3    H268553   6.346   6.519  17.133  0.1783 -0.4115  0.3663
15688TIP3   OH268554   6.586   3.906   0.190  0.0148 -0.3043 -0.4363
15688TIP3    H168555   6.553   3.964   0.121  0.8263 -0.0559 -0.6246
15688TIP3    H268556   6.578   3.818   0.153 -0.6456 -0.2700 -0.3872
15689TIP3   OH268557   3.932   0.652   2.275  0.1339  0.3732  0.3856
15689TIP3    H168558   3.998   0.720   2.260 -1.4475  2.2644  1.4928
15689TIP3    H268559   3.966   0.601   2.348  0.9505  0.4865  0.0986
15690TIP3   OH268560   4.228   5.062   4.040  0.4487 -0.0925  0.2953
15690TIP3    H168561   4.291   4.990   4.046  2.4644  1.5450  0.0245
15690TIP3    H268562   4.276   5.138   4.073 -1.5256  1.1785  0.3590
15691TIP3   OH268563   5.218   2.278   3.921 -0.1668  0.1428 -0.1133
15691TIP3    H168564   5.158   2.204   3.931  1.2821 -1.0741 -0.0870
15691TIP3    H268565   5.264   2.261   3.838 -0.1586  1.2855 -0.3654
15692TIP3   OH268566   2.256   2.063  12.384  1.0145  0.3503 -0.3055
15692TIP3    H168567   2.179   2.119  12.395  1.4149  0.7947  0.2872
15692TIP3    H268568   2.221   1.974  12.378  0.4616  0.5427  0.0525
15693TIP3   OH268569   5.338   5.841  13.169 -0.0738  0.0698  0.3126
15693TIP3    H168570   5.367   5.837  13.078 -0.6259  1.0426  0.0841
15693TIP3    H268571   5.277   5.768  13.178  0.2169 -0.2161  0.0025
15694TIP3   OH268572   1.816   2.355  16.595  0.3393 -0.4408  0.1935
15694TIP3    H168573   1.802   2.413  16.669  1.1767 -0.1374  0.1214
15694TIP3    H268574   1.736   2.303  16.590 -0.8000  1.2858 -0.2774
15695TIP3   OH268575   3.825   2.695   1.131 -0.1789 -0.2957 -0.9085
15695TIP3    H168576   3.845   2.760   1.199 -0.4318  0.3624 -1.4569
15695TIP3    H268577   3.809   2.747   1.052 -1.7646 -0.9395 -1.0406
15696TIP3   OH268578   5.731   0.099  17.071 -0.2897  0.1846  0.0163
15696TIP3    H168579   5.672   0.027  17.092 -0.5258  0.2740 -0.3325
15696TIP3    H268580   5.798   0.096  17.139 -1.7118  1.2723  1.5299
15697TIP3   OH268581   4.176   1.514  14.516 -0.1269 -0.2362  0.2803
15697TIP3    H168582   4.118   1.466  14.456 -0.2303  0.8266 -0.5171
15697TIP3    H268583   4.135   1.601  14.523  1.4472  0.6229 -0.4822
15698TIP3   OH268584   2.871   5.784  12.020 -0.0772 -0.1710 -0.0229
15698TIP3    H168585   2.874   5.689  12.008 -0.9336 -0.2980  0.6561
15698TIP3    H268586   2.954   5.815  11.984  0.1752 -1.1618 -0.3418
15699TIP3   OH268587   2.018   3.687  12.401  0.0156  0.1788 -0.4346
15699TIP3    H168588   1.942   3.634  12.377  0.8812 -0.8094 -1.0343
15699TIP3    H268589   2.083   3.624  12.432  0.1299  1.1173  1.4119
15700TIP3   OH268590   1.371   3.764   4.441 -0.6361 -0.6320 -0.0213
15700TIP3    H168591   1.412   3.801   4.519 -1.9167  0.0476  0.3629
15700TIP3    H268592   1.297   3.823   4.423 -0.0429 -0.4318 -2.0894
15701TIP3   OH268593   3.259   2.028  15.517  0.0793  0.0962  0.3926
15701TIP3    H168594   3.310   1.972  15.458  1.0569  0.2375  1.0701
15701TIP3    H268595   3.169   2.022  15.485  0.5887  0.2198 -1.1470
15702TIP3   OH268596   1.537   3.715   2.021 -0.4557  0.4340 -0.1989
15702TIP3    H168597   1.455   3.730   1.973 -0.5106  0.0345 -0.2358
15702TIP3    H268598   1.598   3.683   1.954  0.0859  1.8460 -0.4059
15703TIP3   OH268599   3.897   6.109  11.637  0.2031 -0.6604  0.2332
15703TIP3    H168600   3.939   6.037  11.683  2.8902  0.8740  0.4028
15703TIP3    H268601   3.898   6.182  11.699 -2.4624 -0.3697  0.0903
15704TIP3   OH268602   2.184   0.818   0.207 -0.6878 -0.7897  0.3890
15704TIP3    H168603   2.166   0.787   0.118  0.2085  2.4269 -1.0428
15704TIP3    H268604   2.272   0.856   0.202 -0.2566 -1.2501  2.9206
15705TIP3   OH268605   6.766   1.583   4.748 -0.1610  0.0651  0.5529
15705TIP3    H168606   6.691   1.574   4.806 -0.0066  1.0629  0.9378
15705TIP3    H268607   6.728   1.608   4.664 -0.3317 -0.5547  0.4434
15706TIP3   OH268608   0.165   0.918  13.031 -0.2712 -0.3675  0.1598
15706TIP3    H168609   0.135   0.927  12.941 -0.3501  3.0481  0.3715
15706TIP3    H268610   0.085   0.926  13.084  0.0662  0.8341  0.5359
15707TIP3   OH268611   1.600   2.248  16.713 -0.5321  0.1951 -0.2289
15707TIP3    H168612   1.513   2.266  16.678 -1.5423 -1.9651  0.9653
15707TIP3    H268613   1.584   2.212  16.800  1.4515 -1.7038 -0.5621
15708TIP3   OH268614   1.239   5.603   3.132 -0.3742  0.2118 -0.1085
15708TIP3    H168615   1.250   5.655   3.211  0.4135  0.0623 -0.1086
15708TIP3    H268616   1.302   5.640   3.070  0.3751 -0.8882 -0.0292
15709TIP3   OH268617   2.632   0.593  16.885  0.6188  0.4215  0.8115
15709TIP3    H168618   2.581   0.514  16.866  1.1601  0.0953  0.7007
15709TIP3    H268619   2.702   0.592  16.821 -0.2875  1.8588 -0.2389
15710TIP3   OH268620   3.324   3.586   1.109 -0.2837 -0.6202  0.0625
15710TIP3    H168621   3.297   3.563   1.198 -0.7905 -2.3091 -0.4982
15710TIP3    H268622   3.330   3.502   1.063  0.3126  0.1926 -1.4113
15711TIP3   OH268623   6.396   2.881  11.893 -0.0269 -0.7098  0.1554
15711TIP3    H168624   6.331   2.821  11.931  0.6772 -0.3903  1.9660
15711TIP3    H268625   6.477   2.829  11.891  0.0101 -0.6253 -0.6788
15712TIP3   OH268626   4.554   5.453  16.586  0.0027 -0.1883 -0.2109
15712TIP3    H168627   4.526   5.405  16.664 -1.5958 -0.4163 -0.8824
15712TIP3    H268628   4.650   5.450  16.588 -0.0379 -1.3113  1.0419
15713TIP3   OH268629   1.972   1.535   0.831  0.0776  0.2049  0.6072
15713TIP3    H168630   1.960   1.626   0.804  0.5081 -0.1681 -0.9292
15713TIP3    H268631   2.065   1.526   0.848  0.5284 -0.5535 -1.8210
15714TIP3   OH268632   2.036   4.059  14.999 -0.1790 -0.4524 -0.3313
15714TIP3    H168633   2.005   4.013  15.077 -0.3659  0.7014  0.3059
15714TIP3    H268634   2.003   4.149  15.011  1.0325  0.0996 -1.0223
15715TIP3   OH268635   5.372   3.456  14.843 -0.3706 -0.4377  0.1403
15715TIP3    H168636   5.381   3.546  14.875 -1.2315 -0.3611  0.1915
15715TIP3    H268637   5.458   3.434  14.809 -0.2661  0.5640 -0.2763
15716TIP3   OH268638   2.886   4.547  15.970  0.5195 -0.4934  0.4319
15716TIP3    H168639   2.815   4.595  16.013  0.4552 -1.5813  1.6177
15716TIP3    H268640   2.841   4.482  15.916  0.5787  1.4613 -2.1311
15717TIP3   OH268641   6.478   3.832   3.968  0.1469  0.6312 -0.3369
15717TIP3    H168642   6.559   3.883   3.967  0.7669 -0.3073  0.4395
15717TIP3    H268643   6.507   3.741   3.964 -0.8133  0.2403  0.9854
15718TIP3   OH268644   3.891   4.296   5.835  0.6681 -0.1692  0.6146
15718TIP3    H168645   3.876   4.220   5.780  0.5526 -0.2374  0.7382
15718TIP3    H268646   3.813   4.300   5.891  0.1089  0.7242 -0.1946
15719TIP3   OH268647   5.039   3.587   3.355 -0.6080 -0.1012 -0.4239
15719TIP3    H168648   5.023   3.664   3.300  2.8594  0.6667 -0.5959
15719TIP3    H268649   5.099   3.533   3.304 -0.5132 -1.3869  0.9681
15720TIP3   OH268650   5.767   4.316  12.762 -0.1527  0.0095  0.1729
15720TIP3    H168651   5.681   4.292  12.795  0.1261 -1.6635 -0.2586
15720TIP3    H268652   5.784   4.256  12.690  0.9678  0.9553 -0.4060
15721TIP3   OH268653   6.448   0.296   4.109  0.0278  0.1118 -0.2134
15721TIP3    H168654   6.466   0.205   4.135 -0.4129  0.5147  1.6194
15721TIP3    H268655   6.531   0.341   4.122 -0.1047  0.2434  0.1919
15722TIP3   OH268656   5.064   2.256   3.485 -0.6218 -0.0853  0.1460
15722TIP3    H168657   5.143   2.308   3.469  0.1918 -1.4621 -0.6273
15722TIP3    H268658   4.992   2.317   3.478  0.3462  1.0875  0.1434
15723TIP3   OH268659   4.852   3.234  15.588  0.0463  0.2657 -0.5193
15723TIP3    H168660   4.917   3.270  15.527 -0.5709  1.1657 -0.6753
15723TIP3    H268661   4.768   3.264  15.553 -0.4157 -0.4068 -0.0064
15724TIP3   OH268662   4.983   4.249  12.937  0.0265  0.3341  0.3015
15724TIP3    H168663   4.927   4.326  12.936 -0.9214 -0.3187 -1.3787
15724TIP3    H268664   5.011   4.239  12.846  0.3665 -1.1364  0.5438
15725TIP3   OH268665   1.184   6.116   0.408  0.6505  0.4799  0.0633
15725TIP3    H168666   1.177   6.028   0.371 -1.8394  0.8817 -0.5831
15725TIP3    H268667   1.271   6.146   0.382  0.8682 -1.1157 -1.2133
15726TIP3   OH268668   0.716   1.646  11.542 -0.3578  0.3355  0.0249
15726TIP3    H168669   0.730   1.715  11.477 -1.1385  0.5287  0.0458
15726TIP3    H268670   0.767   1.674  11.618  1.9496 -0.7253 -1.0312
15727TIP3   OH268671   1.178   5.607   3.643  0.2195  1.0061  0.1990
15727TIP3    H168672   1.181   5.579   3.551  0.0976 -1.0863  0.7671
15727TIP3    H268673   1.213   5.696   3.643 -0.8300  1.4937 -2.0139
15728TIP3   OH268674   4.947   4.818  14.603  0.1615 -0.0736 -0.1460
15728TIP3    H168675   4.864   4.825  14.556  0.9533  1.6535 -1.4202
15728TIP3    H268676   5.013   4.848  14.540  1.4915  0.6732  1.5069
15729TIP3   OH268677   6.818   4.047  11.933  0.2378  0.1582  0.3512
15729TIP3    H168678   6.790   4.128  11.975 -0.0122 -0.5776  1.6576
15729TIP3    H268679   6.898   4.023  11.980  0.3067 -0.3542 -0.0232
15730TIP3   OH268680   1.589   4.512   3.729  0.0498  0.1202  0.3181
15730TIP3    H168681   1.601   4.419   3.709  0.1554  0.2054 -0.0174
15730TIP3    H268682   1.644   4.527   3.806 -0.3814 -0.2159  0.6972
15731TIP3   OH268683   0.235   2.271  12.849  0.0085 -0.2466 -0.0352
15731TIP3    H168684   0.252   2.256  12.756 -2.4687 -0.6453 -0.5174
15731TIP3    H268685   0.225   2.183  12.886 -0.7695 -0.0789  0.1887
15732TIP3   OH268686   4.832   1.338   1.875  0.4359 -0.5968  0.0927
15732TIP3    H168687   4.852   1.261   1.821 -0.6230 -1.2496  0.5809
15732TIP3    H268688   4.818   1.302   1.963 -0.7138  0.0425  0.1970
15733TIP3   OH268689   4.024   5.561  16.817  0.3010  0.0808  0.7078
15733TIP3    H168690   3.938   5.605  16.817  0.1277  0.1137 -3.0283
15733TIP3    H268691   4.087   5.632  16.829 -0.1126  0.8692 -1.3805
15734TIP3   OH268692   4.554   1.139  14.951  0.9567  0.1340 -0.2690
15734TIP3    H168693   4.521   1.055  14.919  0.8212 -0.0917  0.4411
15734TIP3    H268694   4.481   1.176  15.000  1.3870  0.1547  0.3590
15735TIP3   OH268695   0.774   3.592  15.814  0.1321  0.0722  0.8510
15735TIP3    H168696   0.836   3.558  15.879  0.4643 -0.1138  0.4377
15735TIP3    H268697   0.826   3.607  15.736 -0.5220 -1.0536  0.1744
15736TIP3   OH268698   0.942   5.343  12.203  0.6543 -0.3839  0.3296
15736TIP3    H168699   0.999   5.269  12.228  0.0850 -0.5322  1.2421
15736TIP3    H268700   0.855   5.305  12.195  0.1791  0.3421  1.7581
15737TIP3   OH268701   5.516   1.692   5.085  0.3436  0.4125 -0.4664
15737TIP3    H168702   5.582   1.631   5.052 -1.1311 -0.8250 -1.2732
15737TIP3    H268703   5.497   1.661   5.174  0.4610  0.4411 -0.4311
15738TIP3   OH268704   5.594   4.265   5.795  0.0300  0.3033 -0.4015
15738TIP3    H168705   5.569   4.176   5.772  0.3038 -0.4386  1.9344
15738TIP3    H268706   5.512   4.314   5.794 -0.0498  0.2197 -2.2372
15739TIP3   OH268707   5.597   2.265  13.037 -0.4630 -0.3498  1.2164
15739TIP3    H168708   5.582   2.196  13.102 -1.5472  0.0560  1.4126
15739TIP3    H268709   5.535   2.244  12.966 -1.0739  0.6211  1.4470
15740TIP3   OH268710   6.734   5.907   5.050  0.0546  0.1829  0.6059
15740TIP3    H168711   6.791   5.845   5.096  0.3289  1.4307  2.0300
15740TIP3    H268712   6.795   5.972   5.013 -0.3496  0.9407  1.2314
15741TIP3   OH268713   3.317   3.099   0.614 -0.2783  0.0648 -0.2806
15741TIP3    H168714   3.341   3.059   0.698 -0.1024 -0.4615 -0.5770
15741TIP3    H268715   3.301   3.191   0.635  0.6687  0.1418  0.1644
15742TIP3   OH268716   3.786   2.308  13.716  0.1028 -0.5004 -0.5903
15742TIP3    H168717   3.876   2.276  13.709 -0.1448 -1.5721  0.6309
15742TIP3    H268718   3.738   2.260  13.649  0.4344  0.1288 -1.2962
15743TIP3   OH268719   4.697   5.057   4.233  0.3442 -0.2404 -0.5310
15743TIP3    H168720   4.767   5.000   4.262 -0.6938 -0.8495  0.8898
15743TIP3    H268721   4.733   5.145   4.239 -0.0063 -0.1875  3.6395
15744TIP3   OH268722   3.148   5.944   3.009 -0.2094  0.0944  0.2818
15744TIP3    H168723   3.172   5.855   3.035 -1.9227 -0.8568 -1.1785
15744TIP3    H268724   3.226   5.978   2.966  0.4137 -0.7693  0.6873
15745TIP3   OH268725   4.516   3.517   0.530  0.2481 -0.5311 -0.2004
15745TIP3    H168726   4.592   3.573   0.547 -0.4547 -0.1006  1.7422
15745TIP3    H268727   4.442   3.563   0.570 -0.6588 -1.9762 -0.1285
15746TIP3   OH268728   0.597   3.438  12.352  0.4751 -0.3949  0.1193
15746TIP3    H168729   0.662   3.435  12.422  2.8091  1.7808 -1.7360
15746TIP3    H268730   0.596   3.349  12.317 -0.3980 -1.4029  2.4930
15747TIP3   OH268731   2.642   4.102  13.967 -0.2716  0.0718  0.1593
15747TIP3    H168732   2.621   4.066  14.053  0.5996  0.3757  0.5161
15747TIP3    H268733   2.585   4.055  13.907  0.8099 -1.9243  0.5997
15748TIP3   OH268734   4.015   3.323  16.917 -0.1517  0.3013 -0.2806
15748TIP3    H168735   3.927   3.355  16.936 -0.3676 -0.6709  0.3944
15748TIP3    H268736   4.004   3.264  16.843 -0.5321 -1.8929  1.4138
15749TIP3   OH268737   3.098   6.577  12.095 -0.0529  0.3362  0.1283
15749TIP3    H168738   3.167   6.643  12.104 -0.7164  0.9368  1.0186
15749TIP3    H268739   3.141   6.503  12.053  1.0758  0.7802  0.4634
15750TIP3   OH268740   5.986   5.205   3.395 -0.0603 -0.4590  0.4723
15750TIP3    H168741   5.967   5.113   3.415 -1.9701 -0.5839 -1.5649
15750TIP3    H268742   6.064   5.224   3.447  0.5277 -3.2626  0.8203
15751TIP3   OH268743   2.544   6.096  12.010  0.2493  0.2948  0.0376
15751TIP3    H168744   2.483   6.140  11.950  0.4824 -0.6721 -0.9348
15751TIP3    H268745   2.558   6.010  11.971  1.9080  0.3431  0.4760
15752TIP3   OH268746   3.582   2.477   5.158 -0.2614  0.1606  0.2494
15752TIP3    H168747   3.533   2.468   5.076 -0.6619  0.3922  0.4599
15752TIP3    H268748   3.580   2.571   5.176 -0.9078  0.0148  0.9652
15753TIP3   OH268749   4.727   2.308   4.638  0.1655  0.6029 -0.7661
15753TIP3    H168750   4.811   2.275   4.669  0.1489  0.5505 -0.7760
15753TIP3    H268751   4.714   2.390   4.686  0.5482  0.9704 -1.2786
15754TIP3   OH268752   1.355   2.518   0.300 -0.0017  0.0646 -0.3065
15754TIP3    H168753   1.333   2.432   0.263  0.3289  0.1225 -0.6418
15754TIP3    H268754   1.434   2.544   0.254  1.7645 -0.8712  1.9846
15755TIP3   OH268755   0.966   4.254   5.431  0.4758 -0.0260  0.0157
15755TIP3    H168756   0.960   4.291   5.519 -1.8767 -1.5310  0.5701
15755TIP3    H268757   0.928   4.320   5.374  1.6506  0.7890  0.1235
15756TIP3   OH268758   5.010   4.963   4.993  0.1699 -0.1867  0.6529
15756TIP3    H168759   4.924   4.921   4.989 -0.1048  0.0898  2.7730
15756TIP3    H268760   5.061   4.917   4.926 -1.1975 -1.3428  0.3399
15757TIP3   OH268761   5.919   6.577   2.627  0.2532 -0.1242  0.2770
15757TIP3    H168762   5.872   6.530   2.696  0.7746 -2.3096 -0.7587
15757TIP3    H268763   5.909   6.522   2.549  1.3391  1.2628 -0.9131
15758TIP3   OH268764   3.343   3.406  15.298  0.1786 -0.1735 -0.2373
15758TIP3    H168765   3.434   3.391  15.273 -0.6210 -1.6038 -2.5947
15758TIP3    H268766   3.331   3.356  15.379  1.5524  0.3794  0.3425
15759TIP3   OH268767   5.312   0.846  16.574 -0.8218 -0.5268 -0.3813
15759TIP3    H168768   5.228   0.801  16.564 -1.3140 -0.1840  1.6824
15759TIP3    H268769   5.304   0.893  16.657  1.5941 -0.9272  0.1627
15760TIP3   OH268770   4.390   2.910   4.739 -0.1528  0.0912 -0.0841
15760TIP3    H168771   4.450   2.938   4.671  1.0160  3.7060  2.1628
15760TIP3    H268772   4.304   2.944   4.713  0.0520  0.4377 -0.2972
15761TIP3   OH268773   5.415   2.801  15.825 -0.4504  0.5466 -0.0904
15761TIP3    H168774   5.380   2.730  15.772 -0.5452  0.0119  0.6835
15761TIP3    H268775   5.475   2.847  15.766  0.1226 -0.5710 -0.4053
15762TIP3   OH268776   4.056   1.991   2.680 -0.3824 -0.4968 -0.4103
15762TIP3    H168777   4.014   1.921   2.729 -1.0211 -0.1966 -0.5137
15762TIP3    H268778   4.118   1.947   2.622  1.8474 -0.7464  2.0023
15763TIP3   OH268779   4.192   1.668  16.041  0.0332 -0.6423  0.1150
15763TIP3    H168780   4.274   1.650  16.087  0.6795 -1.2986 -1.2187
15763TIP3    H268781   4.128   1.610  16.083  0.5596 -1.0922  0.3141
15764TIP3   OH268782   6.590   6.372  13.058  0.0297 -0.4980  0.0400
15764TIP3    H168783   6.535   6.316  13.113  0.8590  1.4981  3.1813
15764TIP3    H268784   6.535   6.449  13.041 -0.0773 -0.9199 -1.7691
15765TIP3   OH268785   3.246   6.514   0.363 -0.1307 -0.0840 -0.0992
15765TIP3    H168786   3.319   6.525   0.423  0.3206 -1.3854 -0.3863
15765TIP3    H268787   3.242   6.596   0.314 -0.2397  0.8307  1.3829
15766TIP3   OH268788   5.981   4.578   0.759 -0.6721  0.0034 -0.8167
15766TIP3    H168789   5.983   4.483   0.748 -0.0601  0.1394 -2.0174
15766TIP3    H268790   5.983   4.591   0.854  1.0971 -1.1731 -0.6403
15767TIP3   OH268791   3.731   2.844   4.235  0.8916  0.0862  0.0104
15767TIP3    H168792   3.703   2.928   4.270 -0.3924 -0.0213 -0.7038
15767TIP3    H268793   3.823   2.837   4.260  0.7972  1.3260  0.7766
15768TIP3   OH268794   2.276   4.432  11.235  0.5575  0.1760  0.0013
15768TIP3    H168795   2.289   4.363  11.170 -0.9289  0.8519 -1.0693
15768TIP3    H268796   2.263   4.511  11.184  0.8928  1.0137  1.1795
15769TIP3   OH268797   0.490   3.306  15.476 -0.5363  0.2795 -0.1355
15769TIP3    H168798   0.481   3.286  15.382 -0.9712 -0.4738  0.0585
15769TIP3    H268799   0.417   3.259  15.517 -1.4368  2.0427  0.3932
15770TIP3   OH268800   6.005   2.696   4.020 -0.2918  0.1127 -0.7868
15770TIP3    H168801   5.971   2.780   4.051 -0.3900  0.1791 -1.0698
15770TIP3    H268802   6.025   2.647   4.100 -0.8106  0.1718 -0.6175
15771TIP3   OH268803   5.323   0.946   5.682  0.5270  0.5744  0.8661
15771TIP3    H168804   5.381   0.986   5.617  1.6790 -1.9343  0.2314
15771TIP3    H268805   5.377   0.935   5.760  1.4956 -2.9843 -0.1401
15772TIP3   OH268806   0.817   5.887   5.116 -0.2145  0.3245 -0.4168
15772TIP3    H168807   0.809   5.966   5.168  3.6822  0.7796 -0.1840
15772TIP3    H268808   0.868   5.827   5.171  0.2583 -0.8209 -2.0183
15773TIP3   OH268809   4.240   4.115  12.758  0.0752  0.1555 -0.4886
15773TIP3    H168810   4.263   4.090  12.669 -1.6056 -0.1624 -0.8714
15773TIP3    H268811   4.321   4.151  12.795  1.4521 -1.8789 -1.3436
15774TIP3   OH268812   1.696   2.109  11.762  0.1889  0.4510 -0.9534
15774TIP3    H168813   1.673   2.195  11.798  0.2149  0.4243 -0.8750
15774TIP3    H268814   1.774   2.126  11.709  0.6534  0.3296 -0.3108
15775TIP3   OH268815   6.081   5.639  11.624 -0.4071  0.2247  0.1656
15775TIP3    H168816   6.090   5.560  11.676 -0.3950  0.4464  0.4997
15775TIP3    H268817   6.165   5.684  11.632 -0.0506 -0.2218 -0.8470
15776TIP3   OH268818   2.629   3.169   2.753  0.4155 -0.3832 -0.4546
15776TIP3    H168819   2.549   3.221   2.747  0.1958 -0.6630  0.0053
15776TIP3    H268820   2.606   3.083   2.718  0.9884  0.0444 -1.9413
15777TIP3   OH268821   5.960   1.469   3.641 -0.4740 -1.1670  0.8280
15777TIP3    H168822   5.882   1.505   3.682  1.3643  1.2534  2.4820
15777TIP3    H268823   5.961   1.507   3.553 -0.9029 -0.8221  0.9742
15778TIP3   OH268824   0.976   4.422  11.792  0.1897 -0.1268 -0.0203
15778TIP3    H168825   0.903   4.479  11.816  0.2652  0.7226 -1.6283
15778TIP3    H268826   1.048   4.482  11.772  1.1633 -0.9232  0.9523
15779TIP3   OH268827   0.257   6.017   2.338  0.5000  0.2017 -0.5141
15779TIP3    H168828   0.220   5.982   2.257  0.5170 -0.7803 -0.1087
15779TIP3    H268829   0.339   5.969   2.350  0.2121 -0.0785  0.3851
15780TIP3   OH268830   0.428   4.039  12.966 -0.0380  0.2220 -0.3992
15780TIP3    H168831   0.501   4.031  13.028 -0.5344 -0.7603  0.0933
15780TIP3    H268832   0.462   4.003  12.884 -0.4633 -1.8618  0.2856
15781TIP3   OH268833   1.024   0.128   3.901  0.0178  0.4677 -0.0406
15781TIP3    H168834   1.089   0.121   3.831 -0.4073  0.2507 -0.4193
15781TIP3    H268835   0.953   0.178   3.863  0.2119  1.2185  0.5664
15782TIP3   OH268836   3.940   2.988   1.885 -0.4772 -0.1819  0.2395
15782TIP3    H168837   4.016   2.931   1.871  0.3066  0.7995  0.3505
15782TIP3    H268838   3.920   3.024   1.799 -2.0614 -1.9104 -0.1612
15783TIP3   OH268839   0.306   2.475   4.575 -0.5625  0.6409  0.0106
15783TIP3    H168840   0.285   2.567   4.589  1.0107  1.0685 -0.2461
15783TIP3    H268841   0.391   2.463   4.618  0.8739  0.1769 -2.7185
15784TIP3   OH268842   1.539   1.305   5.590 -0.0006 -0.3390 -0.4213
15784TIP3    H168843   1.627   1.311   5.627 -0.4326  0.0409  0.5769
15784TIP3    H268844   1.499   1.390   5.608 -0.6872 -0.6188 -0.5863
15785TIP3   OH268845   4.884   0.217   2.059 -0.5059  0.2165 -0.5116
15785TIP3    H168846   4.815   0.162   2.022 -1.4517  0.8747  0.2165
15785TIP3    H268847   4.863   0.306   2.029  0.7201  0.2714 -1.2701
15786TIP3   OH268848   0.867   3.851  16.852  0.2034 -0.1002  0.6316
15786TIP3    H168849   0.939   3.792  16.833  0.2752 -0.2937  1.4778
15786TIP3    H268850   0.899   3.906  16.924 -1.0706 -1.2898  2.1615
15787TIP3   OH268851   6.031   6.531  16.559  0.0252  0.1934  0.2266
15787TIP3    H168852   5.989   6.607  16.518  0.3275  0.3019  0.1152
15787TIP3    H268853   6.103   6.509  16.501 -1.1378 -1.3165 -0.7275
15788TIP3   OH268854   1.822   6.311  12.610  0.2861  0.4297 -0.4245
15788TIP3    H168855   1.913   6.295  12.631 -0.1312 -1.4098  0.1997
15788TIP3    H268856   1.798   6.390  12.659  0.9981 -0.2528  1.0710
15789TIP3   OH268857   5.983   1.496  15.196 -0.1567 -0.0854  0.2179
15789TIP3    H168858   5.979   1.572  15.255 -1.4454 -1.6282  2.2418
15789TIP3    H268859   5.967   1.533  15.109  1.1562  2.1971  0.8324
15790TIP3   OH268860   2.513   1.342  16.862  0.0962  0.4394  0.0748
15790TIP3    H168861   2.505   1.436  16.880 -1.6764  0.3835 -0.2449
15790TIP3    H268862   2.465   1.329  16.780  1.4246 -0.5600 -0.5841
15791TIP3   OH268863   3.413   0.483  14.309  0.0378 -0.0175  0.1575
15791TIP3    H168864   3.364   0.511  14.386  0.4207  0.6358  0.1721
15791TIP3    H268865   3.347   0.471  14.241 -0.0246  2.6586 -0.3711
15792TIP3   OH268866   2.632   4.664  13.076 -0.3331  0.1379  0.2540
15792TIP3    H168867   2.598   4.675  13.165 -0.6002  1.9199 -0.0336
15792TIP3    H268868   2.560   4.692  13.020  0.6740  1.4677 -0.4318
15793TIP3   OH268869   4.753   6.445   6.320  0.0776 -0.1710 -0.1993
15793TIP3    H168870   4.757   6.350   6.319 -0.8611 -0.3653 -4.4651
15793TIP3    H268871   4.682   6.466   6.380 -2.4075 -2.5032 -2.0966
15794TIP3   OH268872   4.495   4.938   2.454 -0.1027 -0.0340  0.3212
15794TIP3    H168873   4.546   4.899   2.525 -0.0988  0.7792  0.7783
15794TIP3    H268874   4.467   4.864   2.401  1.2142 -0.5148  0.2863
15795TIP3   OH268875   0.560   4.077   4.823  0.3169  0.5415 -0.2735
15795TIP3    H168876   0.519   4.164   4.822 -0.5706  0.1655 -2.3228
15795TIP3    H268877   0.648   4.093   4.788 -0.6912  0.3420 -3.1497
15796TIP3   OH268878   4.692   4.604  14.909  0.1297  0.3625  0.1775
15796TIP3    H168879   4.660   4.689  14.938  0.9324  0.7912 -0.1728
15796TIP3    H268880   4.782   4.620  14.881  0.1159 -0.4937 -0.4054
15797TIP3   OH268881   5.133   5.466  15.373  0.0555 -0.4681 -0.3164
15797TIP3    H168882   5.110   5.384  15.329 -0.5398 -0.5369  0.1051
15797TIP3    H268883   5.173   5.520  15.305  1.0837 -1.3607 -0.4477
15798TIP3   OH268884   6.786   5.036  13.991 -0.1291 -0.2860  0.5504
15798TIP3    H168885   6.798   4.952  13.948  0.1174 -1.0207  1.9781
15798TIP3    H268886   6.727   5.085  13.934  0.9569 -0.8095 -1.0977
15799TIP3   OH268887   0.257   1.153  16.976  0.5390 -0.4416  0.4024
15799TIP3    H168888   0.284   1.242  16.952  1.8075 -1.2299 -1.3157
15799TIP3    H268889   0.339   1.110  17.002 -0.2268 -0.8186  2.3582
15800TIP3   OH268890   1.768   0.983   2.786 -0.1739 -0.2255 -0.0351
15800TIP3    H168891   1.828   0.913   2.811  0.5426  0.6790  0.9111
15800TIP3    H268892   1.825   1.058   2.769 -1.0288  1.0263  2.0954
15801TIP3   OH268893   3.320   6.613  14.510 -0.1515 -0.0092 -0.3412
15801TIP3    H168894   3.282   6.643  14.427 -0.2983 -0.3083 -0.3858
15801TIP3    H268895   3.282   6.526  14.523 -0.5048  0.2363  0.2872
15802TIP3   OH268896   0.920   2.498  15.920  0.7553 -0.4756  0.0249
15802TIP3    H168897   0.846   2.555  15.942 -0.4405 -1.2759 -1.7178
15802TIP3    H268898   0.997   2.548  15.947 -0.3750  0.5193  1.6056
15803TIP3   OH268899   5.056   1.161   4.597 -0.2551  0.0620  0.3144
15803TIP3    H168900   5.041   1.166   4.503  0.5040  1.4038  0.2523
15803TIP3    H268901   4.975   1.124   4.632 -0.3430 -0.9520 -0.9028
15804TIP3   OH268902   6.329   3.034   1.560 -0.6144 -0.6107 -0.7018
15804TIP3    H168903   6.239   3.025   1.527 -0.6465 -0.4032 -0.6680
15804TIP3    H268904   6.334   2.970   1.631 -0.8043 -0.4618 -0.5530
15805TIP3   OH268905   2.962   2.025   5.871 -0.1664 -0.4271 -0.1075
15805TIP3    H168906   2.907   1.990   5.940  0.1571 -1.0849 -0.1775
15805TIP3    H268907   3.035   2.067   5.916 -0.0830 -0.6422 -0.0410
15806TIP3   OH268908   3.506   2.054   2.844 -0.0038  0.7639 -0.3925
15806TIP3    H168909   3.590   2.012   2.828  0.0544  0.7931 -0.1656
15806TIP3    H268910   3.500   2.123   2.778  0.1374  0.7436 -0.4261
15807TIP3   OH268911   3.783   5.229   3.323 -0.8316 -0.3375 -0.0883
15807TIP3    H168912   3.767   5.137   3.301 -1.8832  0.0901 -1.2971
15807TIP3    H268913   3.736   5.243   3.405 -1.2058 -0.7305 -0.2324
15808TIP3   OH268914   6.082   4.222   1.634  0.4652 -0.3188  0.5744
15808TIP3    H168915   6.063   4.175   1.715 -2.1157  0.3225  0.4277
15808TIP3    H268916   6.060   4.160   1.564  0.1730 -0.0102  0.3864
15809TIP3   OH268917   6.296   2.214   5.544  0.1670  0.2515 -0.9983
15809TIP3    H168918   6.201   2.202   5.553  0.6213 -2.3241  1.5188
15809TIP3    H268919   6.313   2.197   5.451 -1.6277 -1.3046 -1.0968
15810TIP3   OH268920   1.057   6.512   2.322  0.7254  0.6728 -0.2860
15810TIP3    H168921   1.150   6.532   2.330  0.5567  2.1157 -1.4159
15810TIP3    H268922   1.015   6.597   2.306 -0.8667  0.1324  0.6913
15811TIP3   OH268923   4.919   0.889   4.654 -0.3674 -0.1225 -0.0422
15811TIP3    H168924   4.931   0.894   4.749  0.5959  0.5817 -0.1864
15811TIP3    H268925   4.856   0.818   4.642  0.4349 -1.0648  1.0457
15812TIP3   OH268926   5.432   3.383   0.622  0.4380  0.3990 -0.3618
15812TIP3    H168927   5.468   3.355   0.706  2.4326  1.2606 -0.8888
15812TIP3    H268928   5.439   3.306   0.566  0.7836  0.3483 -0.2507
15813TIP3   OH268929   2.833   2.192  13.678  0.8435 -0.1853 -0.1130
15813TIP3    H168930   2.795   2.234  13.755  0.6832  1.6997 -1.1765
15813TIP3    H268931   2.912   2.242  13.659  1.6787 -1.5370 -0.3405
15814TIP3   OH268932   3.197   5.001   3.186  0.0797 -0.8505  0.1787
15814TIP3    H168933   3.238   5.072   3.236  0.2577 -0.1577 -0.9048
15814TIP3    H268934   3.134   4.963   3.246 -0.4174  0.6057  0.6301
15815TIP3   OH268935   5.129   3.979  13.719 -0.0463  0.0151 -0.4701
15815TIP3    H168936   5.216   4.012  13.741  0.8730 -2.0717 -0.7769
15815TIP3    H268937   5.101   3.932  13.797  1.0972 -3.1419 -1.7923
15816TIP3   OH268938   5.432   4.861  10.546 -0.3225 -0.0038  0.4883
15816TIP3    H168939   5.351   4.812  10.537 -0.2742 -0.1945  1.0234
15816TIP3    H268940   5.405   4.952  10.551 -0.5925 -0.1373  1.6978
15817TIP3   OH268941   6.111   6.781   0.363 -0.2241 -0.7170  0.3830
15817TIP3    H168942   6.097   6.762   0.270  0.9601 -1.4111  0.3296
15817TIP3    H268943   6.137   6.698   0.401  1.0453 -0.0736  0.9761
15818TIP3   OH268944   5.533   4.381   2.247 -0.4959 -0.0127  0.0518
15818TIP3    H168945   5.475   4.406   2.175 -0.5848  0.3024  0.2323
15818TIP3    H268946   5.584   4.308   2.212 -0.0515  0.5810 -0.5787
15819TIP3   OH268947   4.393   5.041  11.883  0.0543  0.8816 -0.2082
15819TIP3    H168948   4.361   4.954  11.903  1.5726  0.3296 -0.0303
15819TIP3    H268949   4.322   5.100  11.908 -0.5101 -0.2133  0.8483
15820TIP3   OH268950   5.078   4.785  12.033  0.3720 -0.3458  0.1541
15820TIP3    H168951   4.984   4.782  12.015  0.2042 -0.9935  1.0395
15820TIP3    H268952   5.101   4.878  12.029 -0.2726 -0.1961 -0.1914
15821TIP3   OH268953   4.114   5.546  15.263  0.1820  0.0854 -0.5944
15821TIP3    H168954   4.128   5.488  15.188 -0.2491  1.8315 -2.0733
15821TIP3    H268955   4.160   5.502  15.336  2.7054 -0.4912 -2.3956
15822TIP3   OH268956   4.226   5.702   0.937 -0.1176  0.1651 -0.6127
15822TIP3    H168957   4.263   5.765   0.998  0.3840  0.9192 -1.6737
15822TIP3    H268958   4.158   5.657   0.988  1.2370 -0.2296  0.9203
15823TIP3   OH268959   6.553   3.058   5.308 -0.1981  0.4661  0.6894
15823TIP3    H168960   6.466   3.047   5.268  0.0706  0.8112 -0.0095
15823TIP3    H268961   6.546   3.014   5.393 -1.1624  0.7908  0.7940
15824TIP3   OH268962   1.521   5.823   0.188  0.2322  0.6535  0.1482
15824TIP3    H168963   1.580   5.755   0.222 -0.2643  0.0693 -0.1403
15824TIP3    H268964   1.519   5.889   0.256  2.0499  1.1959 -0.2587
15825TIP3   OH268965   4.319   0.825   4.804  0.1110  0.4710  0.2092
15825TIP3    H168966   4.378   0.898   4.822  0.6872 -0.0208  0.3425
15825TIP3    H268967   4.240   0.866   4.767  0.4085  1.1576  0.3257
15826TIP3   OH268968   1.582   6.298  12.476 -1.1129  0.0047  0.1283
15826TIP3    H168969   1.513   6.318  12.540 -2.0732 -0.6726 -0.6601
15826TIP3    H268970   1.663   6.302  12.526 -1.8550 -0.7074  1.4371
15827TIP3   OH268971   0.853   2.402  13.537  0.0902  0.2733 -0.0098
15827TIP3    H168972   0.808   2.360  13.611 -0.0899  0.7713  0.1693
15827TIP3    H268973   0.945   2.405  13.564 -0.0756  1.0529  0.4831
15828TIP3   OH268974   4.949   4.055   2.795 -0.2000 -0.0140 -0.1035
15828TIP3    H168975   4.995   4.109   2.731 -1.6663 -0.3266 -1.4858
15828TIP3    H268976   5.008   3.981   2.809  0.7558  0.7434 -0.0249
15829TIP3   OH268977   0.622   0.935  11.956  0.3606  0.2896 -0.0518
15829TIP3    H168978   0.529   0.945  11.976  0.7083  1.2948  1.2234
15829TIP3    H268979   0.625   0.883  11.876 -1.2337 -2.3619  1.4652
15830TIP3   OH268980   3.471   6.717   3.688 -0.2287  0.2568 -0.8805
15830TIP3    H168981   3.454   6.686   3.599  0.9725 -1.3147 -0.6126
15830TIP3    H268982   3.396   6.688   3.739  0.4154 -1.4149 -0.8404
15831TIP3   OH268983   1.705   4.436   4.891 -0.0516  0.4044 -0.7708
15831TIP3    H168984   1.689   4.378   4.965 -0.2745 -0.1354 -1.2318
15831TIP3    H268985   1.620   4.441   4.847 -0.0856  1.2478 -0.6183
15832TIP3   OH268986   3.240   5.438  14.328  0.0876  0.1026 -0.8066
15832TIP3    H168987   3.180   5.509  14.352  0.9454  1.2833 -1.9806
15832TIP3    H268988   3.191   5.386  14.264 -0.1459  0.3127 -0.8015
15833TIP3   OH268989   3.461   5.234  16.035  0.3841  0.4534 -0.5251
15833TIP3    H168990   3.480   5.157  15.981  4.0243  0.3280  0.7173
15833TIP3    H268991   3.379   5.211  16.080  0.3667 -1.8735 -1.5819
15834TIP3   OH268992   3.771   5.550  16.448  0.2803 -0.6351  0.5072
15834TIP3    H168993   3.705   5.556  16.517 -0.5233 -1.2947 -0.1874
15834TIP3    H268994   3.831   5.622  16.466  0.4907 -1.2082  2.3031
15835TIP3   OH268995   0.701   3.155   2.084  0.3942  0.0075  0.3313
15835TIP3    H168996   0.701   3.230   2.024 -1.1876  0.4869  0.8688
15835TIP3    H268997   0.775   3.101   2.056  2.0005  2.0772  0.3334
15836TIP3   OH268998   6.610   1.756  11.630  0.0124  0.1180  0.4000
15836TIP3    H168999   6.628   1.707  11.549  2.0082 -0.5489  1.1837
15836TIP3    H269000   6.605   1.847  11.602  1.3420 -0.0351 -0.4139
15837TIP3   OH269001   0.799   2.760  12.589  0.4103 -0.3836 -0.3146
15837TIP3    H169002   0.711   2.753  12.627 -0.0074  2.2385 -0.5992
15837TIP3    H269003   0.858   2.758  12.665 -0.0454 -0.2135  0.0477
15838TIP3   OH269004   4.079   2.295  11.169  0.2611  0.2480  0.4271
15838TIP3    H169005   4.055   2.284  11.077  3.2677  0.0351 -0.4551
15838TIP3    H269006   4.063   2.209  11.208 -0.1919  0.0814 -0.1130
15839TIP3   OH269007   0.682   0.501  14.564  0.5062  0.1308  0.8749
15839TIP3    H169008   0.749   0.555  14.605  0.6689  0.6638 -0.0702
15839TIP3    H269009   0.729   0.451  14.497 -0.1175  1.0004 -0.2561
15840TIP3   OH269010   5.633   6.495  16.556  0.2293  0.1499  0.1185
15840TIP3    H169011   5.597   6.582  16.574 -1.1656 -0.0842 -1.3083
15840TIP3    H269012   5.661   6.462  16.642  2.1662  2.5412  0.5201
15841TIP3   OH269013   5.161   3.184   6.527  0.1015 -0.2891 -0.2513
15841TIP3    H169014   5.227   3.175   6.458  0.6749  1.7146 -0.0273
15841TIP3    H269015   5.132   3.275   6.521  0.7078  0.1910  2.6047
15842TIP3   OH269016   6.556   3.822   0.901 -0.4875  0.0798 -0.2034
15842TIP3    H169017   6.640   3.862   0.924  0.1806 -1.7937  0.8350
15842TIP3    H269018   6.578   3.763   0.829 -1.2174  0.6335 -0.8953
15843TIP3   OH269019   1.975   0.648   1.949 -0.1535 -0.3342  0.0068
15843TIP3    H169020   1.926   0.634   1.868  0.6818 -1.6607 -0.2995
15843TIP3    H269021   1.910   0.683   2.011 -1.5610 -2.1823 -0.3274
15844TIP3   OH269022   2.425   4.770  12.844  0.2293 -0.4132 -0.0307
15844TIP3    H169023   2.518   4.795  12.842  0.5056 -1.3416  0.5852
15844TIP3    H269024   2.393   4.793  12.757  0.8850  0.4627 -0.0627
15845TIP3   OH269025   4.532   5.921  13.771 -0.1241 -0.2752  0.7048
15845TIP3    H169026   4.523   5.872  13.689 -0.1687  0.1458  0.4576
15845TIP3    H269027   4.454   5.977  13.774 -0.8902 -1.3104  1.7384
15846TIP3   OH269028   2.079   6.772   3.834 -0.0822 -0.0238 -0.6577
15846TIP3    H169029   2.161   6.823   3.832 -1.3832  2.2706  0.4544
15846TIP3    H269030   2.023   6.816   3.770 -1.7281  0.9236  1.3152
15847TIP3   OH269031   6.646   0.366   6.504 -0.9446  0.6092  0.3936
15847TIP3    H169032   6.560   0.407   6.491 -1.4189 -0.5562 -0.3585
15847TIP3    H269033   6.626   0.277   6.533  0.0494  0.6923  1.4056
15848TIP3   OH269034   0.801   4.670   3.936  0.2860 -0.0197 -0.2350
15848TIP3    H169035   0.753   4.660   4.018 -1.8364  1.0637 -1.2474
15848TIP3    H269036   0.859   4.744   3.951  0.8850 -0.6390  0.6566
15849TIP3   OH269037   3.820   2.249   2.106  0.5464 -0.4715  1.0243
15849TIP3    H169038   3.828   2.307   2.181  2.0753 -1.2712  1.5182
15849TIP3    H269039   3.726   2.232   2.098  0.2684  0.4961  2.0668
15850TIP3   OH269040   3.380   3.996  11.958 -0.0616  0.0847  0.3232
15850TIP3    H169041   3.301   4.027  12.002 -1.8732 -2.5333 -0.8656
15850TIP3    H269042   3.358   3.993  11.865  2.2797  1.4990 -0.3696
15851TIP3   OH269043   3.112   5.623   0.537 -0.5908 -0.1453  0.2258
15851TIP3    H169044   3.132   5.582   0.453 -0.2398 -0.4435  0.4522
15851TIP3    H269045   3.047   5.565   0.577 -0.5459 -0.1562  0.2833
15852TIP3   OH269046   2.937   0.504   3.149 -0.2473  0.7336  0.4002
15852TIP3    H169047   2.889   0.528   3.070 -0.1770  0.6091  0.3209
15852TIP3    H269048   2.870   0.474   3.210 -0.5741  2.7095  1.1120
15853TIP3   OH269049   1.319   1.801   4.785  0.0564  0.4800  0.2435
15853TIP3    H169050   1.313   1.755   4.869 -0.4695 -2.0524 -1.0898
15853TIP3    H269051   1.229   1.805   4.753  0.3181  0.8770 -0.4657
15854TIP3   OH269052   1.858   3.202   0.876  0.8398 -0.0113  0.0955
15854TIP3    H169053   1.882   3.162   0.792  2.6844  1.0341  0.0632
15854TIP3    H269054   1.787   3.148   0.909  0.4809 -0.8186 -1.8525
15855TIP3   OH269055   1.398   2.650   3.400 -0.1773 -0.2874 -0.3813
15855TIP3    H169056   1.335   2.704   3.447  0.4150  0.1384 -0.0605
15855TIP3    H269057   1.457   2.617   3.467  2.0092  2.0824 -0.9368
15856TIP3   OH269058   4.970   4.656  14.282  0.6730 -0.6904 -0.3019
15856TIP3    H169059   5.025   4.627  14.209  1.0024 -1.4996  0.2424
15856TIP3    H269060   4.881   4.654  14.247  1.0301  1.6457 -1.5128
15857TIP3   OH269061   0.598   3.096   6.695  0.4082 -0.2278  0.7130
15857TIP3    H169062   0.528   3.158   6.673  2.0763  1.4812  0.0286
15857TIP3    H269063   0.566   3.012   6.663  0.0870  1.0806 -2.7777
15858TIP3   OH269064   1.394   0.505  16.224 -0.9426  0.0784  0.1906
15858TIP3    H169065   1.357   0.545  16.145 -2.5685 -0.3100  0.7088
15858TIP3    H269066   1.383   0.411  16.212  1.1138 -0.1552 -0.1831
15859TIP3   OH269067   6.327   0.105  16.679 -0.1314 -0.0171  0.1652
15859TIP3    H169068   6.236   0.103  16.708 -0.4430 -0.7374 -0.8027
15859TIP3    H269069   6.336   0.188  16.631 -0.0938  0.3534  0.8061
15860TIP3   OH269070   5.246   5.763  12.739  0.2731  0.3094  0.0589
15860TIP3    H169071   5.165   5.725  12.774  0.3466 -1.2294 -1.3025
15860TIP3    H269072   5.228   5.857  12.735 -1.6038 -0.0155 -0.5322
15861TIP3   OH269073   2.413   3.665  11.666 -0.5927  0.1639  0.1963
15861TIP3    H169074   2.358   3.741  11.683 -0.6072  0.3924 -0.8037
15861TIP3    H269075   2.500   3.703  11.648 -0.1069 -0.1836  1.6798
15862TIP3   OH269076   6.034   2.476  11.368  0.4516 -0.2182  0.0210
15862TIP3    H169077   6.024   2.464  11.274 -0.1932  1.3719 -0.1419
15862TIP3    H269078   5.975   2.548  11.390 -1.0455 -1.9540  2.0326
15863TIP3   OH269079   3.272   4.505  16.853 -0.3025  0.2122 -0.0343
15863TIP3    H169080   3.356   4.523  16.811 -0.7452 -0.9443 -1.4640
15863TIP3    H269081   3.210   4.561  16.807 -0.1370  2.3766  2.1370
15864TIP3   OH269082   6.527   5.196  14.171 -0.2699 -0.0402 -0.4271
15864TIP3    H169083   6.610   5.219  14.213 -0.7231 -0.1319  0.5711
15864TIP3    H269084   6.464   5.194  14.244 -0.6396 -2.5091 -0.7304
15865TIP3   OH269085   1.708   0.107   4.723  0.0667  0.1519  0.3670
15865TIP3    H169086   1.666   0.022   4.737  1.9829 -1.4475 -2.5987
15865TIP3    H269087   1.676   0.135   4.637  0.0326  2.1675  0.9732
15866TIP3   OH269088   4.329   5.276  16.152 -0.4357  0.6083 -0.4533
15866TIP3    H169089   4.250   5.225  16.141 -1.2179  1.7595 -0.3915
15866TIP3    H269090   4.309   5.361  16.111  0.0850  1.5522  1.1343
15867TIP3   OH269091   6.650   6.325  12.523 -0.3747  0.1300  0.3168
15867TIP3    H169092   6.588   6.381  12.477  0.4785  0.4786 -0.4536
15867TIP3    H269093   6.641   6.349  12.615 -2.1584 -0.6175  0.3630
15868TIP3   OH269094   0.334   1.474   4.094  0.0958  0.0685 -0.0992
15868TIP3    H169095   0.346   1.430   4.011 -0.0293 -0.3729  0.1158
15868TIP3    H269096   0.311   1.405   4.156  2.6991 -0.0321  0.8929
15869TIP3   OH269097   4.267   6.455   0.628 -0.1555 -0.3888  0.7549
15869TIP3    H169098   4.303   6.367   0.638 -1.4955 -1.0247  0.2433
15869TIP3    H269099   4.191   6.444   0.570  0.4102  1.3097 -0.4103
15870TIP3   OH269100   2.938   4.808  15.448 -0.6633 -1.1514  0.2082
15870TIP3    H169101   2.860   4.862  15.438 -0.6084 -0.7991  1.5160
15870TIP3    H269102   2.904   4.719  15.458 -0.9850 -0.8815  1.7549
15871TIP3   OH269103   4.213   1.822   6.516 -0.0784 -0.5545  0.1617
15871TIP3    H169104   4.145   1.827   6.449 -0.1842 -4.1395 -0.2187
15871TIP3    H269105   4.292   1.796   6.469  0.0556 -2.2972  1.2231
15872TIP3   OH269106   6.311   5.919  14.230  0.1977 -0.6324  0.0485
15872TIP3    H169107   6.399   5.953  14.215 -0.4192  1.0360  0.0678
15872TIP3    H269108   6.278   5.900  14.142  0.4630 -0.9968  0.0233
15873TIP3   OH269109   0.854   1.864   0.191  0.6757  0.1973  0.0486
15873TIP3    H169110   0.841   1.897   0.102  0.0558  1.9170  0.7307
15873TIP3    H269111   0.767   1.838   0.220  0.9320 -0.6899  0.0565
15874TIP3   OH269112   6.391   3.754   4.729  0.1435 -0.1705  0.5573
15874TIP3    H169113   6.304   3.718   4.717  0.3366 -0.2565 -0.7275
15874TIP3    H269114   6.409   3.744   4.823 -0.9227 -0.8039  0.7055
15875TIP3   OH269115   2.701   4.826  15.894  0.1071 -0.3092  0.3131
15875TIP3    H169116   2.688   4.757  15.958  1.9874  0.7328  1.9302
15875TIP3    H269117   2.642   4.896  15.921  1.8035  0.6372  1.7995
15876TIP3   OH269118   5.614   1.772  13.396 -0.4941  0.3794 -0.3245
15876TIP3    H169119   5.621   1.840  13.330  1.0668  0.2904 -0.2843
15876TIP3    H269120   5.700   1.730  13.397 -1.2320 -1.2251  0.0518
15877TIP3   OH269121   4.544   2.457  12.429 -0.1654 -0.3121 -0.2983
15877TIP3    H169122   4.524   2.389  12.365  0.5235 -0.3448 -0.4906
15877TIP3    H269123   4.586   2.526  12.378 -1.0553  0.3654 -0.1432
15878TIP3   OH269124   5.386   0.008  13.646  0.3049 -0.0550 -0.4733
15878TIP3    H169125   5.472   0.028  13.683 -0.0856  1.2724 -0.2187
15878TIP3    H269126   5.388  -0.086  13.628  2.1858  0.1345 -1.4519
15879TIP3   OH269127   4.032   5.009  13.417 -0.6969  0.4276  0.0273
15879TIP3    H169128   4.073   5.094  13.432  1.0300 -0.4151  0.2517
15879TIP3    H269129   3.944   5.030  13.386 -0.2867  2.2899  0.0462
15880TIP3   OH269130   6.140   5.298   1.515  0.5178  0.2095 -0.4695
15880TIP3    H169131   6.084   5.303   1.592 -0.5060  0.6792 -1.2056
15880TIP3    H269132   6.079   5.286   1.442  1.4411 -0.0237 -1.2291
15881TIP3   OH269133   4.782   1.799   3.504  0.3133  0.7420 -0.2481
15881TIP3    H169134   4.782   1.717   3.554 -1.5130 -0.0303 -1.3987
15881TIP3    H269135   4.868   1.838   3.521  0.6893 -0.7049  1.4550
15882TIP3   OH269136   2.768   5.526  11.008  0.4378  0.7457  0.4569
15882TIP3    H169137   2.834   5.548  10.943 -0.9792  0.6642 -1.0709
15882TIP3    H269138   2.718   5.454  10.969  1.5190 -1.6180  3.0071
15883TIP3   OH269139   4.608   2.036   0.997 -0.7875 -0.0831  0.1361
15883TIP3    H169140   4.528   2.006   1.040 -0.5688  0.9451  1.3299
15883TIP3    H269141   4.638   1.961   0.946 -2.2214 -0.6503  0.0913
15884TIP3   OH269142   6.770   1.089  17.121 -0.0920  0.3588  0.2467
15884TIP3    H169143   6.811   1.007  17.091  0.7029  1.5411 -2.2251
15884TIP3    H269144   6.842   1.139  17.158 -0.1469  0.7275 -0.1338
15885TIP3   OH269145   2.865   3.562  11.729 -0.3128 -0.0803  0.4087
15885TIP3    H169146   2.867   3.492  11.794  0.6200 -1.6763 -1.2178
15885TIP3    H269147   2.888   3.518  11.647 -2.7820  1.5199 -1.2955
15886TIP3   OH269148   3.967   2.869   2.733 -0.0583  0.4747  0.2772
15886TIP3    H169149   3.990   2.913   2.651 -0.1149  2.2545  1.1798
15886TIP3    H269150   3.909   2.930   2.778 -0.6528 -0.8058  1.3216
15887TIP3   OH269151   1.259   2.507   1.612  0.2396  0.2170  0.1864
15887TIP3    H169152   1.209   2.515   1.531 -0.2113  0.6420  0.5019
15887TIP3    H269153   1.286   2.597   1.633 -0.2917  0.2148  0.9103
15888TIP3   OH269154   2.851   4.451   0.976 -0.4417  0.2615 -0.4646
15888TIP3    H169155   2.780   4.507   1.009 -0.3290  0.4922 -0.6079
15888TIP3    H269156   2.847   4.461   0.881 -0.8874 -0.5477 -0.5402
15889TIP3   OH269157   5.886   5.078  15.802  0.0477  0.0481  0.1567
15889TIP3    H169158   5.887   5.110  15.893  1.5636  1.4075 -0.2944
15889TIP3    H269159   5.824   5.005  15.804 -2.1441  1.8000  1.6737
15890TIP3   OH269160   1.856   6.566  15.629  0.0799  0.0343 -0.1000
15890TIP3    H169161   1.933   6.622  15.640 -0.0777  0.1025  0.6957
15890TIP3    H269162   1.883   6.502  15.563  0.3367  0.9038 -0.8747
15891TIP3   OH269163   1.123   0.860  12.646 -0.0896 -0.1867  0.8631
15891TIP3    H169164   1.046   0.894  12.691 -0.6363 -0.6512  0.2985
15891TIP3    H269165   1.105   0.766  12.635  0.6760 -0.3542  0.9690
15892TIP3   OH269166   1.974   2.855   5.418 -0.1491 -0.7115  0.7825
15892TIP3    H169167   1.942   2.783   5.472 -2.1834  0.4433  1.2672
15892TIP3    H269168   1.894   2.895   5.382  0.8677  1.3881  0.6836
15893TIP3   OH269169   2.133   1.092   5.031  0.3486  0.0129 -0.3880
15893TIP3    H169170   2.186   1.035   5.087  1.8211  0.5013 -1.2178
15893TIP3    H269171   2.190   1.167   5.013 -0.0034 -0.1756 -2.6107
15894TIP3   OH269172   1.897   1.006  15.291 -0.2858 -0.0543  0.3306
15894TIP3    H169173   1.864   0.920  15.266  0.9991 -0.4113 -0.2055
15894TIP3    H269174   1.910   1.052  15.208  0.9679 -0.0952  0.4887
15895TIP3   OH269175   6.261   2.299   3.678  0.1408  0.3813 -0.3082
15895TIP3    H169176   6.251   2.207   3.704 -0.5419  0.7031  0.6140
15895TIP3    H269177   6.317   2.337   3.746 -0.4368  0.8852 -0.1076
15896TIP3   OH269178   5.187   2.243  10.633  0.0700 -0.0182  0.8861
15896TIP3    H169179   5.134   2.171  10.666 -0.3335  0.9725  2.5665
15896TIP3    H269180   5.236   2.207  10.559 -1.6027 -1.4380  0.4344
15897TIP3   OH269181   1.459   0.218  16.121 -0.0820  0.0023 -0.4346
15897TIP3    H169182   1.427   0.199  16.209  1.4940  0.6329  0.2956
15897TIP3    H269183   1.380   0.216  16.066 -0.8665 -2.1645  0.6552
15898TIP3   OH269184   0.752   0.383   2.737 -0.3132  0.4542  0.6816
15898TIP3    H169185   0.747   0.446   2.665  0.6815  0.6680  0.7919
15898TIP3    H269186   0.829   0.330   2.718 -0.3095  0.2074  1.3490
15899TIP3   OH269187   3.316   1.734   5.910  0.2268 -0.1435 -0.9434
15899TIP3    H169188   3.383   1.713   5.845 -0.0104  1.6610 -1.8372
15899TIP3    H269189   3.271   1.811   5.874 -1.4462 -0.4931  0.2627
15900TIP3   OH269190   1.091   4.017  14.000  0.1404  0.2663 -0.2739
15900TIP3    H169191   1.061   4.102  14.032  3.0343  1.0871  0.6337
15900TIP3    H269192   1.056   4.011  13.911  1.4280  3.4283 -1.1670
15901TIP3   OH269193   2.455   0.432  14.706  0.5419 -0.4970  0.4493
15901TIP3    H169194   2.537   0.404  14.748 -0.6883 -0.5800  2.9774
15901TIP3    H269195   2.432   0.514  14.750 -0.6371 -0.3745 -0.3491
15902TIP3   OH269196   3.438   6.770  15.531 -0.1939  0.4258 -0.1704
15902TIP3    H169197   3.469   6.861  15.539 -0.6542  0.6427 -0.7496
15902TIP3    H269198   3.344   6.778  15.519 -0.4951 -0.2370  1.5646
15903TIP3   OH269199   6.189   6.137  15.594  0.1486 -0.0038 -0.4423
15903TIP3    H169200   6.231   6.142  15.509  1.7936  1.7115  0.3850
15903TIP3    H269201   6.261   6.125  15.656 -0.7497  1.0005  0.8679
15904TIP3   OH269202   5.473   6.207   3.637 -0.5491 -0.3801 -0.1932
15904TIP3    H169203   5.424   6.267   3.580  0.2522  1.7248  1.2318
15904TIP3    H269204   5.539   6.262   3.679  0.2753 -2.2979  1.1711
15905TIP3   OH269205   1.475   3.642   4.049  0.5460  0.2168 -0.4497
15905TIP3    H169206   1.523   3.641   4.132  0.4149  2.8718 -0.2541
15905TIP3    H269207   1.524   3.704   3.994  0.2537 -0.9990 -2.1516
15906TIP3   OH269208   0.423   5.929   0.153 -0.1202  0.1987  0.3941
15906TIP3    H169209   0.495   5.908   0.211  1.7329 -1.7029 -2.3390
15906TIP3    H269210   0.434   6.022   0.132 -0.8132  0.9145  2.8813
15907TIP3   OH269211   6.555   0.978   3.438  0.0459 -0.8192  0.0999
15907TIP3    H169212   6.571   0.893   3.396  0.8265 -0.7066  0.1425
15907TIP3    H269213   6.460   0.990   3.434 -0.0304 -1.4990 -0.2851
15908TIP3   OH269214   3.453   5.098   1.201 -0.2872  0.1290  0.5960
15908TIP3    H169215   3.530   5.109   1.145 -1.0827  1.6071 -0.2505
15908TIP3    H269216   3.448   5.178   1.252 -1.1910 -0.0060  0.7333
15909TIP3   OH269217   3.951   2.631  17.100  0.1432 -0.1114 -0.2627
15909TIP3    H169218   3.975   2.681  17.021  1.5638  0.7018  0.6333
15909TIP3    H269219   3.858   2.650  17.113  0.3933  1.4838 -0.5619
15910TIP3   OH269220   5.940   4.238   5.790 -0.1504  0.8869 -0.2320
15910TIP3    H169221   5.903   4.239   5.878 -0.4652 -0.9869 -0.3127
15910TIP3    H269222   6.028   4.201   5.801  0.1437  1.4609 -0.5947
15911TIP3   OH269223   3.326   6.508   0.993  0.3621  0.3994  0.0338
15911TIP3    H169224   3.362   6.585   0.949 -0.2789  1.3418  1.1043
15911TIP3    H269225   3.287   6.543   1.073  0.1958 -1.0716  0.6131
15912TIP3   OH269226   4.079   6.597  10.317  0.8821  0.0580 -0.4278
15912TIP3    H169227   4.086   6.587  10.412 -0.5466 -1.4347 -0.4300
15912TIP3    H269228   4.024   6.674  10.305 -0.4654 -0.7986  0.0355
15913TIP3   OH269229   0.851   1.673  15.079 -0.7546  0.8342 -0.6965
15913TIP3    H169230   0.920   1.615  15.109 -0.5051  2.3151  1.8254
15913TIP3    H269231   0.878   1.698  14.990  1.8241  1.1292  0.0897
15914TIP3   OH269232   4.580   3.571  13.303 -0.1469 -0.0630  0.3768
15914TIP3    H169233   4.632   3.627  13.361 -2.1126  1.1306  1.1007
15914TIP3    H269234   4.489   3.601  13.316 -1.2491 -3.0755  0.3709
15915TIP3   OH269235   5.064   1.788  12.382  0.4200 -0.0984  0.0199
15915TIP3    H169236   5.126   1.759  12.316  0.1730  1.3532 -0.8922
15915TIP3    H269237   5.092   1.876  12.405 -1.6816  0.8959 -0.9668
15916TIP3   OH269238   5.726   4.233  13.438 -0.2113  0.0870  0.3804
15916TIP3    H169239   5.809   4.278  13.454 -0.5171  0.9793 -0.4198
15916TIP3    H269240   5.666   4.302  13.411 -0.4344 -0.8902 -1.8551
15917TIP3   OH269241   0.366   2.876   3.767  0.3330 -0.5042  0.3233
15917TIP3    H169242   0.455   2.850   3.743 -0.3441 -1.1881 -1.6059
15917TIP3    H269243   0.315   2.795   3.763 -0.4623 -0.0638  1.1052
15918TIP3   OH269244   2.696   2.613   1.079 -0.2590  0.2397 -0.6724
15918TIP3    H169245   2.756   2.677   1.117 -0.2910 -0.4198  0.5171
15918TIP3    H269246   2.752   2.546   1.041 -0.2410  0.1297 -0.4494
15919TIP3   OH269247   6.310   4.592  15.190 -0.1525  0.1221  0.0175
15919TIP3    H169248   6.279   4.511  15.228  1.9016 -0.5035  0.4742
15919TIP3    H269249   6.250   4.659  15.224 -1.4031 -1.0685  0.2461
15920TIP3   OH269250   1.615   5.782  12.633 -0.0073 -0.0317  0.1239
15920TIP3    H169251   1.535   5.819  12.596  0.0576 -0.6213 -0.6193
15920TIP3    H269252   1.658   5.857  12.675 -0.1208  0.6461 -0.9227
15921TIP3   OH269253   3.687   5.509   5.905 -0.1702 -0.8323 -0.3607
15921TIP3    H169254   3.748   5.436   5.912  1.1174  0.3263  2.2690
15921TIP3    H269255   3.740   5.587   5.923 -2.3346  0.2399  2.2390
15922TIP3   OH269256   0.513   3.375  10.960  0.4306  0.3542 -0.2963
15922TIP3    H169257   0.477   3.446  11.012  0.3581 -0.3375  0.6491
15922TIP3    H269258   0.490   3.395  10.870  0.4245  1.5203 -0.0473
15923TIP3   OH269259   4.409   0.209  14.346 -0.4665  0.3413  0.6900
15923TIP3    H169260   4.411   0.190  14.440  3.4000  0.4644  0.7858
15923TIP3    H269261   4.499   0.231  14.324 -1.2462  0.4472 -3.0740
15924TIP3   OH269262   0.143   5.185  12.900 -0.0634 -0.6426  0.3013
15924TIP3    H169263   0.168   5.103  12.944 -0.0857 -0.3508  0.8629
15924TIP3    H269264   0.048   5.180  12.892 -0.2718  0.1103  1.9472
15925TIP3   OH269265   5.165   0.796  13.546 -0.0740  0.2099 -0.4783
15925TIP3    H169266   5.122   0.752  13.620  1.0155 -0.2082 -0.0745
15925TIP3    H269267   5.116   0.877  13.535 -1.4632 -0.5973 -0.5447
15926TIP3   OH269268   5.081   1.120  12.632 -0.1296 -0.4008 -0.1848
15926TIP3    H169269   4.991   1.128  12.664 -1.5840 -0.8062 -3.7355
15926TIP3    H269270   5.102   1.207  12.598  0.2512 -0.7068 -0.7338
15927TIP3   OH269271   1.859   0.348   1.763 -0.0124 -0.6767 -0.1900
15927TIP3    H169272   1.872   0.273   1.705 -1.1865  0.8240 -2.5536
15927TIP3    H269273   1.947   0.373   1.789  0.6014 -1.1992 -1.6418
15928TIP3   OH269274   1.243   5.065  17.146  0.5179 -0.0330  0.1647
15928TIP3    H169275   1.184   5.005  17.100  0.5791  0.0964 -0.0824
15928TIP3    H269276   1.185   5.125  17.192  0.4494 -0.7919  1.0936
15929TIP3   OH269277   1.871   5.342   0.158  0.2172 -0.3484  0.1348
15929TIP3    H169278   1.793   5.298   0.190  1.5834 -2.6794  0.4344
15929TIP3    H269279   1.846   5.375   0.072 -0.9858 -1.3450  0.0765
15930TIP3   OH269280   5.531   5.484  15.494  0.0566 -0.4209 -0.3468
15930TIP3    H169281   5.460   5.443  15.544 -0.3848 -0.2944 -0.8581
15930TIP3    H269282   5.594   5.513  15.560  0.7017 -2.4643  0.0157
15931TIP3   OH269283   5.715   5.626  15.003  0.8100  0.0871 -0.0033
15931TIP3    H169284   5.646   5.633  14.937  0.3002  2.1942  0.6914
15931TIP3    H269285   5.715   5.711  15.047  4.2494  0.4189 -0.3632
15932TIP3   OH269286   2.052   0.529   2.916  0.1779  0.1269 -0.2678
15932TIP3    H169287   2.138   0.495   2.941  0.2203 -0.5839 -1.3050
15932TIP3    H269288   2.024   0.472   2.844 -0.8963  0.7232 -0.3395
15933TIP3   OH269289   3.611   5.964   1.892  0.5881  0.3404 -0.1055
15933TIP3    H169290   3.548   5.949   1.822 -3.2176  1.1534  2.8036
15933TIP3    H269291   3.613   6.060   1.903 -0.0247  0.1929  1.6947
15934TIP3   OH269292   3.791   1.811   0.695 -0.1881 -0.2414  0.5700
15934TIP3    H169293   3.845   1.747   0.649 -0.5261 -0.5474  0.5960
15934TIP3    H269294   3.823   1.896   0.664 -2.2512 -0.3917 -2.5154
15935TIP3   OH269295   2.895   0.057   5.330 -0.4073  0.2659  0.3142
15935TIP3    H169296   2.839   0.088   5.401 -1.0644 -3.5191  1.7008
15935TIP3    H269297   2.980   0.039   5.372 -0.4542 -0.9399 -0.0673
15936TIP3   OH269298   5.409   1.687   2.614  0.5619 -0.0078  0.3252
15936TIP3    H169299   5.370   1.705   2.529  0.1102 -0.2382  0.4810
15936TIP3    H269300   5.498   1.721   2.607  0.3400  0.5132 -0.0381
15937TIP3   OH269301   2.610   4.129   5.489 -0.0772 -0.1170 -0.7444
15937TIP3    H169302   2.699   4.155   5.466 -0.3757  1.7976  0.1142
15937TIP3    H269303   2.609   4.034   5.475  1.5314  0.0717 -2.5189
15938TIP3   OH269304   2.545   2.359   5.810 -0.3446  0.3992  0.4525
15938TIP3    H169305   2.499   2.423   5.864  1.0180 -0.0455  2.2493
15938TIP3    H269306   2.510   2.372   5.722 -2.0939  1.6964  1.2799
15939TIP3   OH269307   0.904   2.342   3.256 -0.2198  0.0179  0.0323
15939TIP3    H169308   0.910   2.400   3.331 -1.0925 -1.4688  1.3038
15939TIP3    H269309   0.850   2.390   3.193  0.1752  1.1075  0.4998
15940TIP3   OH269310   2.330   1.431   5.432  0.0097 -0.0118  0.3952
15940TIP3    H169311   2.412   1.390   5.407  0.5322  0.2448  1.6019
15940TIP3    H269312   2.355   1.515   5.470 -1.0027  1.2744 -1.5969
15941TIP3   OH269313   4.789   3.103   1.733  0.2306  0.0034  0.4375
15941TIP3    H169314   4.861   3.122   1.673 -0.8779  0.3597 -0.8092
15941TIP3    H269315   4.753   3.188   1.756 -0.4808 -0.2182  0.1791
15942TIP3   OH269316   3.813   1.544  14.743  0.0422 -0.0517 -0.2965
15942TIP3    H169317   3.742   1.598  14.707 -0.0678 -0.3330 -0.5012
15942TIP3    H269318   3.807   1.462  14.694  0.7300  0.0508 -0.5611
15943TIP3   OH269319   3.615   0.776   0.272  0.8438 -0.1923 -0.4279
15943TIP3    H169320   3.689   0.834   0.255  2.0974 -1.4361  0.5477
15943TIP3    H269321   3.655   0.694   0.302 -0.9628 -0.4439  1.4974
15944TIP3   OH269322   5.972   4.028   2.944  0.5191  0.0508 -0.1772
15944TIP3    H169323   6.043   4.090   2.959  0.7774 -0.7044  1.9712
15944TIP3    H269324   6.011   3.942   2.960 -0.7555 -0.3978  0.6331
15945TIP3   OH269325   5.305   2.979   2.779  0.3723  0.0064 -0.2114
15945TIP3    H169326   5.235   2.923   2.746 -1.2856  1.9552 -0.2277
15945TIP3    H269327   5.305   2.963   2.874  1.2042 -1.3617 -0.4245
15946TIP3   OH269328   1.951   1.322  17.154 -0.0186 -0.4953  0.0451
15946TIP3    H169329   2.032   1.360  17.189 -0.9703  0.8035  0.8940
15946TIP3    H269330   1.975   1.231  17.133  2.1691  0.3608 -1.5442
15947TIP3   OH269331   6.278   6.073   4.603  0.1341  0.6889  0.6451
15947TIP3    H169332   6.345   6.067   4.671  1.8120  1.0886 -0.8947
15947TIP3    H269333   6.198   6.097   4.650  1.1161  0.4625  2.5183
15948TIP3   OH269334   3.751   1.598   5.850  0.3746 -0.4332 -0.1768
15948TIP3    H169335   3.793   1.573   5.767 -0.6984 -0.5229 -0.7096
15948TIP3    H269336   3.824   1.607   5.912  1.0899 -1.7028 -0.7811
15949TIP3   OH269337   5.281   3.291  16.775  0.3321  0.4689  0.0708
15949TIP3    H169338   5.343   3.233  16.819 -0.1024  1.0380  1.4717
15949TIP3    H269339   5.301   3.378  16.809 -0.2506  0.8793 -0.6121
15950TIP3   OH269340   2.812   4.355  16.990 -0.3899  0.2555 -0.1698
15950TIP3    H169341   2.733   4.337  16.939  0.5041 -1.7076 -1.0039
15950TIP3    H269342   2.781   4.400  17.068 -2.2051  0.3844 -0.9160
15951TIP3   OH269343   4.866   6.305  16.388 -0.1808  0.2856  0.7481
15951TIP3    H169344   4.939   6.349  16.345  1.3238 -0.1904  2.6579
15951TIP3    H269345   4.864   6.218  16.348  0.0363  0.4359  0.4064
15952TIP3   OH269346   0.583   1.672  11.033  0.2746 -0.2562  0.2599
15952TIP3    H169347   0.519   1.602  11.038  0.3702 -0.2941  0.9965
15952TIP3    H269348   0.541   1.747  11.074 -0.6590  0.7931 -2.3721
15953TIP3   OH269349   4.879   4.736   2.353  0.7344 -0.1829 -0.2635
15953TIP3    H169350   4.851   4.759   2.264 -0.0557 -2.7788 -0.7723
15953TIP3    H269351   4.907   4.819   2.392 -1.5368  1.5258 -1.9831
15954TIP3   OH269352   1.330   1.207  16.291  0.2038 -0.0831  0.3195
15954TIP3    H169353   1.287   1.182  16.209  0.1260 -0.8333  0.5795
15954TIP3    H269354   1.319   1.131  16.348 -1.0564  0.9775  1.5589
15955TIP3   OH269355   4.030   1.641   5.653  0.1455 -0.1246  0.1293
15955TIP3    H169356   4.040   1.718   5.709 -0.7058  0.3848 -0.3891
15955TIP3    H269357   4.118   1.607   5.642  0.6847  1.3405 -0.4055
15956TIP3   OH269358   4.707   2.361  13.287  0.2409 -0.0484 -0.6251
15956TIP3    H169359   4.707   2.290  13.352 -0.9082 -0.4594 -1.0511
15956TIP3    H269360   4.796   2.362  13.253  1.3053  1.1265  1.9506
15957TIP3   OH269361   2.568   1.902  14.932 -0.5035 -0.1841  0.9124
15957TIP3    H169362   2.602   1.973  14.877  1.1928 -0.8341  1.0697
15957TIP3    H269363   2.473   1.915  14.931 -0.2986  1.6431  0.3427
15958TIP3   OH269364   2.748   3.121   0.273  0.0021 -0.0152 -0.6045
15958TIP3    H169365   2.802   3.156   0.202 -1.4285 -0.3857 -1.9433
15958TIP3    H269366   2.713   3.039   0.237  0.2354 -0.8514  1.0186
15959TIP3   OH269367   2.290   2.164   0.825  0.0535  0.0113 -0.2939
15959TIP3    H169368   2.332   2.151   0.910  2.0449  0.4080 -1.1697
15959TIP3    H269369   2.209   2.211   0.846 -0.3901 -1.4495  1.5272
15960TIP3   OH269370   2.795   4.914  14.977 -0.4633  0.7430  0.1836
15960TIP3    H169371   2.878   4.957  14.993 -0.0384  0.9050 -2.0521
15960TIP3    H269372   2.817   4.836  14.926 -1.5839  0.1127  0.6062
15961TIP3   OH269373   0.622   4.357   5.572 -0.2822 -0.1510 -0.5402
15961TIP3    H169374   0.567   4.419   5.524  0.4281 -0.0823 -1.2919
15961TIP3    H269375   0.712   4.385   5.553  0.0261 -0.8185 -0.0930
15962TIP3   OH269376   4.159   2.775  16.645  0.2873  0.2740  0.1736
15962TIP3    H169377   4.157   2.784  16.740 -0.0812 -0.6850  0.2673
15962TIP3    H269378   4.211   2.697  16.629  0.2120  0.3352 -0.4024
15963TIP3   OH269379   4.591   0.352   4.691  0.3396  0.9655  0.0605
15963TIP3    H169380   4.524   0.419   4.680  0.0198  0.8067  0.9798
15963TIP3    H269381   4.629   0.370   4.777  1.0755  0.6962 -0.2050
15964TIP3   OH269382   0.609   4.167   1.337 -0.0652 -0.2098 -0.0616
15964TIP3    H169383   0.526   4.164   1.290 -0.8915  0.3449  1.2982
15964TIP3    H269384   0.619   4.080   1.374 -0.5258 -0.0068  0.5532
15965TIP3   OH269385   1.842   5.631  12.737  0.1988 -0.4498 -0.7627
15965TIP3    H169386   1.759   5.679  12.742  0.7559  0.5532 -0.7579
15965TIP3    H269387   1.823   5.546  12.776 -0.7333 -0.0971 -0.4168
15966TIP3   OH269388   3.465   0.674   5.682 -0.3647  0.3897  0.3419
15966TIP3    H169389   3.481   0.765   5.705 -1.1122  0.1598  1.9195
15966TIP3    H269390   3.512   0.624   5.748  0.2232 -0.3936 -0.6429
15967TIP3   OH269391   2.553   1.927   5.106  0.5251 -0.2037  0.4511
15967TIP3    H169392   2.489   1.918   5.177 -0.1469 -0.8487 -0.2215
15967TIP3    H269393   2.517   1.996   5.050 -0.3716 -1.5448 -0.7087
15968TIP3   OH269394   3.896   4.523   6.227 -0.1950 -0.0252  0.3341
15968TIP3    H169395   3.812   4.510   6.183  0.0766 -0.6841 -0.0039
15968TIP3    H269396   3.915   4.617   6.215 -0.7565  0.0752  0.1963
15969TIP3   OH269397   3.205   0.840  13.280  0.2329 -0.4058 -0.2796
15969TIP3    H169398   3.151   0.879  13.349 -0.7861 -2.2504  0.0448
15969TIP3    H269399   3.280   0.802  13.326  0.8492  0.5023 -0.5094
15970TIP3   OH269400   3.128   4.032   3.802  0.3607 -0.0527  0.1889
15970TIP3    H169401   3.198   3.967   3.798 -0.9069 -1.4768  0.6410
15970TIP3    H269402   3.048   3.982   3.820 -0.9325  1.4201 -1.1196
15971TIP3   OH269403   5.640   4.466   0.908  0.2000  0.1345 -0.2799
15971TIP3    H169404   5.668   4.399   0.846  0.8791 -0.7872  0.9857
15971TIP3    H269405   5.596   4.417   0.978 -0.8533  1.1794 -0.1655
15972TIP3   OH269406   4.839   1.563   0.174  0.4424 -0.4056  0.0600
15972TIP3    H169407   4.758   1.606   0.146  0.0418 -0.3210  1.2925
15972TIP3    H269408   4.825   1.543   0.266  1.2147 -1.8478 -0.1085
15973TIP3   OH269409   0.157   4.632  16.466  0.4192 -0.0291  0.0250
15973TIP3    H169410   0.173   4.611  16.374  0.0478  0.5588 -0.1763
15973TIP3    H269411   0.164   4.548  16.512 -0.7092 -0.5463 -0.7146
15974TIP3   OH269412   3.111   0.956  15.719  0.2753 -0.2320  0.5003
15974TIP3    H169413   3.123   0.942  15.625  0.1720 -0.6660  0.5473
15974TIP3    H269414   3.107   0.867  15.755 -0.1977 -0.0695  0.8496
15975TIP3   OH269415   1.944   3.993  14.158 -0.2263  0.0676 -0.8548
15975TIP3    H169416   1.906   3.906  14.172 -1.3089  0.7021  0.3480
15975TIP3    H269417   2.031   3.987  14.197 -1.6324  0.5377  2.8520
15976TIP3   OH269418   1.166   4.176  16.340 -0.1352  0.7831 -0.2284
15976TIP3    H169419   1.160   4.193  16.246  0.2601 -0.7228 -0.5529
15976TIP3    H269420   1.242   4.119  16.349 -0.8249 -0.0031  0.8640
15977TIP3   OH269421   2.855   4.528   2.554 -0.0301 -0.0975  0.5303
15977TIP3    H169422   2.819   4.464   2.492  1.4784 -0.2975 -0.1924
15977TIP3    H269423   2.864   4.608   2.503 -1.4701  0.5852  1.3078
15978TIP3   OH269424   0.747   0.982  15.754 -0.2030 -0.2677 -0.1664
15978TIP3    H169425   0.702   0.898  15.748  0.7372 -0.6798 -3.5041
15978TIP3    H269426   0.697   1.031  15.818 -3.5494 -1.7945 -1.3776
15979TIP3   OH269427   0.532   4.728   3.835 -0.0914 -0.1536  0.0372
15979TIP3    H169428   0.549   4.750   3.744  0.8616 -2.2524 -0.3541
15979TIP3    H269429   0.614   4.692   3.867  0.1223  2.0251  2.2837
15980TIP3   OH269430   4.609   3.947   2.215 -0.0446 -0.8430 -0.1101
15980TIP3    H169431   4.650   3.877   2.164 -1.4509 -0.6253 -1.6227
15980TIP3    H269432   4.653   3.943   2.300  2.5200 -1.1183 -1.3437
15981TIP3   OH269433   6.588   1.280  13.891  0.2156 -0.6557 -0.5881
15981TIP3    H169434   6.541   1.214  13.840 -0.6419 -0.4068 -0.1310
15981TIP3    H269435   6.680   1.270  13.864  0.0691 -1.8948 -0.6697
15982TIP3   OH269436   1.209   3.674  13.815  0.1166  0.5500  0.2286
15982TIP3    H169437   1.121   3.666  13.778  1.1149 -1.5339 -1.9673
15982TIP3    H269438   1.238   3.584  13.829  1.7854  1.1916  1.2591
15983TIP3   OH269439   2.248   4.781  14.622 -0.0588 -0.3773 -0.1751
15983TIP3    H169440   2.259   4.772  14.717  0.0634 -0.6234 -0.2108
15983TIP3    H269441   2.336   4.795  14.588  0.0621 -1.4976 -0.3727
15984TIP3   OH269442   0.188   1.333   2.923 -0.1830 -0.1631 -0.2930
15984TIP3    H169443   0.167   1.419   2.886  1.4402  0.7291  0.7736
15984TIP3    H269444   0.188   1.346   3.018  0.9093 -1.1355 -0.1361
15985TIP3   OH269445   3.326   6.820   3.184  0.2016  0.1859 -0.3735
15985TIP3    H169446   3.396   6.785   3.130  1.3018  1.6894 -0.0058
15985TIP3    H269447   3.270   6.868   3.123  0.9510  1.1382 -0.3401
15986TIP3   OH269448   4.262   3.826   5.359  0.0706 -0.4558  0.2194
15986TIP3    H169449   4.204   3.857   5.429  1.1619 -1.0317  1.4124
15986TIP3    H269450   4.305   3.905   5.327 -1.3540 -0.0073 -0.7239
15987TIP3   OH269451   0.600   0.267  13.881  0.1245  0.0195 -0.3551
15987TIP3    H169452   0.591   0.343  13.938 -0.3271 -0.3910  0.1283
15987TIP3    H269453   0.683   0.281  13.835 -0.2028  1.0583 -0.6617
15988TIP3   OH269454   0.550   1.441   3.183 -0.1308 -0.3714  0.4405
15988TIP3    H169455   0.540   1.346   3.172 -1.1770 -0.0883 -1.6294
15988TIP3    H269456   0.549   1.475   3.094  0.5775  1.5729  1.1336
15989TIP3   OH269457   5.959   6.757   4.173  0.2920 -0.4409 -0.0346
15989TIP3    H169458   6.043   6.743   4.218 -0.0713  2.0464  1.6029
15989TIP3    H269459   5.894   6.751   4.243 -1.2277 -4.0091 -1.5101
15990TIP3   OH269460   0.472   4.517  14.611 -0.0490 -0.6680 -0.2446
15990TIP3    H169461   0.542   4.454  14.623  0.9259  0.6932  1.7876
15990TIP3    H269462   0.391   4.465  14.614  0.7709 -1.9895 -0.4467
15991TIP3   OH269463   2.757   0.250   4.400 -0.0139  0.1862  0.1788
15991TIP3    H169464   2.820   0.282   4.465  2.1423  0.7759 -2.0360
15991TIP3    H269465   2.702   0.326   4.381 -0.1502  0.2343  0.7699
15992TIP3   OH269466   0.364   2.839  15.985 -0.7077  0.5893  0.2441
15992TIP3    H169467   0.449   2.869  16.018 -1.1901  1.5499  0.6715
15992TIP3    H269468   0.312   2.825  16.063 -0.3883 -1.8918  0.0864
15993TIP3   OH269469   2.546   6.625   3.107  0.5493 -0.1935 -0.0361
15993TIP3    H169470   2.478   6.633   3.174  0.3086  2.3272 -0.4809
15993TIP3    H269471   2.628   6.619   3.157  0.3288  1.1275  0.5189
15994TIP3   OH269472   5.549   5.428   1.439 -0.3539 -0.3032 -0.6603
15994TIP3    H169473   5.612   5.500   1.442 -0.0910 -0.5398 -0.3623
15994TIP3    H269474   5.464   5.470   1.451 -0.1229 -0.1371  0.5980
15995TIP3   OH269475   3.289   6.518  10.661  0.3761  0.3216 -0.6375
15995TIP3    H169476   3.332   6.485  10.740 -1.0935 -1.2804 -0.4558
15995TIP3    H269477   3.277   6.611  10.677  1.2235  0.2569  0.4795
15996TIP3   OH269478   5.494   1.494   2.791  0.0910  0.0800 -0.0816
15996TIP3    H169479   5.429   1.530   2.731  0.9649  1.2102 -0.3734
15996TIP3    H269480   5.574   1.543   2.774  0.4401  0.2967  1.8527
15997TIP3   OH269481   0.458   6.175  15.375  0.4041  0.1242 -0.1892
15997TIP3    H169482   0.411   6.241  15.323  1.9617 -0.5675 -2.6518
15997TIP3    H269483   0.398   6.101  15.380 -0.6024  0.9777  0.9244
15998TIP3   OH269484   0.514   3.313   5.277  0.2666 -0.3552  0.3493
15998TIP3    H169485   0.461   3.381   5.318 -1.4255 -0.6734 -1.1697
15998TIP3    H269486   0.581   3.360   5.228  1.7429  0.0450  2.5789
15999TIP3   OH269487   1.903   3.967  17.052  0.0029 -0.0397 -0.1526
15999TIP3    H169488   1.975   4.004  17.001  0.2118 -1.3306 -0.8439
15999TIP3    H269489   1.942   3.894  17.099 -0.6995 -0.2919  0.0474
16000TIP3   OH269490   5.450   4.934   2.117  0.3562 -0.4401  0.5797
16000TIP3    H169491   5.413   4.988   2.187 -0.3463 -1.5492  1.1010
16000TIP3    H269492   5.470   4.850   2.159 -0.7986 -1.4046 -0.6934
16001TIP3   OH269493   0.836   2.006   2.946  0.6019 -0.0730 -0.2456
16001TIP3    H169494   0.874   1.918   2.944 -0.6645 -0.6434 -0.9528
16001TIP3    H269495   0.750   1.995   2.906  0.1987  1.3979  0.1644
16002TIP3   OH269496   0.401   4.186   1.587 -0.1588  0.7764 -0.6952
16002TIP3    H169497   0.412   4.093   1.607 -0.0543  0.8755 -0.2771
16002TIP3    H269498   0.477   4.228   1.627  0.2434  0.9478 -1.6163
16003TIP3   OH269499   6.217   4.372   4.743  0.1692 -0.0664 -0.5423
16003TIP3    H169500   6.166   4.292   4.731 -0.4449  0.2170  0.1170
16003TIP3    H269501   6.300   4.343   4.781  0.5769 -0.5476 -1.7411
16004TIP3   OH269502   5.424   1.909   3.755  0.1810 -0.6960 -0.5344
16004TIP3    H169503   5.490   1.941   3.693  0.0692 -2.1732 -1.4623
16004TIP3    H269504   5.349   1.965   3.742  0.7118  0.0082 -0.6005
16005TIP3   OH269505   0.556   0.160  10.818 -0.5179 -0.0547  0.0165
16005TIP3    H169506   0.471   0.199  10.841 -1.0247  0.1865 -2.0600
16005TIP3    H269507   0.618   0.200  10.879 -1.2952  2.7757 -0.9201
16006TIP3   OH269508   2.397   4.286   2.228 -0.0295  0.7988  0.4669
16006TIP3    H169509   2.331   4.354   2.218 -0.7674 -0.1126 -1.4275
16006TIP3    H269510   2.378   4.223   2.158 -0.2072 -2.0636  2.8637
16007TIP3   OH269511   1.785   2.673  14.541  0.2104 -0.1899 -0.0181
16007TIP3    H169512   1.831   2.624  14.609 -1.4518 -0.0375  1.2765
16007TIP3    H269513   1.817   2.635  14.458  2.7274  0.0226  0.7629
16008TIP3   OH269514   5.481   5.824   6.055  0.5060 -0.5322 -0.4052
16008TIP3    H169515   5.482   5.842   6.149 -1.0583  0.3309 -0.5133
16008TIP3    H269516   5.409   5.762   6.044 -0.6037  0.8387 -1.2207
16009TIP3   OH269517   5.482   0.274  10.440  0.2855  0.5411  0.3197
16009TIP3    H169518   5.528   0.339  10.494 -1.4246  1.8010  0.3400
16009TIP3    H269519   5.473   0.198  10.497  0.8346  0.8803  0.8787
16010TIP3   OH269520   1.890   2.557  14.799 -0.4835 -0.4368  0.2212
16010TIP3    H169521   1.845   2.477  14.827  0.6130 -1.4489 -0.7806
16010TIP3    H269522   1.957   2.526  14.738 -1.1598  1.4052 -1.5914
16011TIP3   OH269523   4.902   4.905  12.713 -0.5061  0.4193  0.4299
16011TIP3    H169524   4.915   4.837  12.780  0.3071 -1.2409 -1.3205
16011TIP3    H269525   4.817   4.884  12.674 -0.5838  0.8508  0.3629
16012TIP3   OH269526   2.171   6.716   4.183  0.2012  0.1559  0.6977
16012TIP3    H169527   2.079   6.721   4.209 -0.2826  1.8314 -1.1283
16012TIP3    H269528   2.214   6.783   4.236  0.2552 -0.1681  1.0678
16013TIP3   OH269529   2.335   0.226  14.336 -0.0629  0.2065 -0.1703
16013TIP3    H169530   2.332   0.320  14.355  0.5248  0.7221 -2.3617
16013TIP3    H269531   2.316   0.219  14.243  0.6197 -1.7948 -0.2257
16014TIP3   OH269532   0.891   2.073   3.689 -0.4067  0.0326 -0.0834
16014TIP3    H169533   0.938   2.104   3.611 -1.7544  0.0644 -0.9147
16014TIP3    H269534   0.948   2.096   3.762  0.8042  0.1858 -1.0425
16015TIP3   OH269535   0.958   1.476  15.868  0.4267  0.1652  0.1510
16015TIP3    H169536   1.004   1.419  15.807  1.1535  1.0077 -0.0994
16015TIP3    H269537   0.996   1.456  15.953 -0.6310 -1.0550  0.3639
16016TIP3   OH269538   5.706   6.705  13.910  0.2641  0.4266  0.8095
16016TIP3    H169539   5.730   6.693  13.818 -0.4955  0.3785  0.6049
16016TIP3    H269540   5.789   6.718  13.956  0.7604 -0.9518  0.3312
16017TIP3   OH269541   4.814   2.332  16.023 -0.2694  0.4223  0.0067
16017TIP3    H169542   4.806   2.413  15.973 -1.7873  1.3884  1.6981
16017TIP3    H269543   4.906   2.308  16.014 -0.2516  1.0664 -2.3645
16018TIP3   OH269544   0.892   3.457  12.248  0.6069  0.2107  0.4653
16018TIP3    H169545   0.907   3.409  12.166  0.6717 -0.0213  0.6144
16018TIP3    H269546   0.801   3.485  12.242  0.3525 -0.5512  0.7038
16019TIP3   OH269547   5.654   3.440  13.137 -0.4391  0.5375  0.2268
16019TIP3    H169548   5.605   3.472  13.213 -0.9933  2.4890 -0.9110
16019TIP3    H269549   5.691   3.356  13.167 -4.8807 -1.4590  1.0074
16020TIP3   OH269550   5.114   1.090  15.492  0.1640  0.1763  0.2229
16020TIP3    H169551   5.074   1.155  15.550 -0.4540  0.0297 -0.0287
16020TIP3    H269552   5.208   1.108  15.498  0.0109  1.0616  0.2040
16021TIP3   OH269553   2.718   6.020  16.563 -0.2830  0.6086 -0.1904
16021TIP3    H169554   2.699   5.989  16.652  0.8586  0.8991  0.1689
16021TIP3    H269555   2.805   5.985  16.544 -0.8549 -0.1530 -1.5361
16022TIP3   OH269556   1.247   1.705   3.442  0.1887  0.2498  0.2381
16022TIP3    H169557   1.332   1.668   3.418  1.0750  2.2237  0.1044
16022TIP3    H269558   1.199   1.632   3.481  1.8022 -1.0013  0.0087
16023TIP3   OH269559   3.415   5.461  12.588 -0.4300 -0.1310  0.0802
16023TIP3    H169560   3.351   5.514  12.541  0.3189 -0.9790 -1.9995
16023TIP3    H269561   3.445   5.396  12.525  3.6856  1.2106  0.3089
16024TIP3   OH269562   6.087   5.297  11.358  0.0189  0.2974  0.5483
16024TIP3    H169563   6.040   5.289  11.441 -1.3896 -0.5051 -0.2913
16024TIP3    H269564   6.043   5.368  11.311 -0.0016 -0.0657  0.0005
16025TIP3   OH269565   1.036   2.142   3.454 -0.1688  0.4962  0.2895
16025TIP3    H169566   1.063   2.233   3.460  0.9878  0.3224 -1.3900
16025TIP3    H269567   0.970   2.141   3.385 -1.9205  0.3685  1.8969
16026TIP3   OH269568   5.417   3.547  16.908  0.3135 -0.2940  0.7276
16026TIP3    H169569   5.361   3.598  16.967 -1.4315 -0.9589 -0.2791
16026TIP3    H269570   5.455   3.479  16.964  0.3196  0.3167  1.4839
16027TIP3   OH269571   4.300   2.410  15.689 -0.3112  0.0481  0.2688
16027TIP3    H169572   4.394   2.412  15.674 -0.1959  1.6329  0.9504
16027TIP3    H269573   4.263   2.377  15.607  0.7978 -0.1138 -0.1823
16028TIP3   OH269574   6.624   5.327  15.912 -0.0432  0.7470  0.6299
16028TIP3    H169575   6.572   5.398  15.951 -1.2043 -0.9954  2.4249
16028TIP3    H269576   6.590   5.318  15.823 -0.6090  1.7216  0.7335
16029TIP3   OH269577   4.181   6.679   2.031 -0.5773 -0.1436  0.2034
16029TIP3    H169578   4.179   6.772   2.053  0.6387  0.2873 -1.3195
16029TIP3    H269579   4.137   6.673   1.946  2.0739 -0.3933 -1.2861
16030TIP3   OH269580   4.578   4.315  15.733 -0.0789 -0.0342  0.0510
16030TIP3    H169581   4.643   4.269  15.679  0.9457 -0.1272  1.2952
16030TIP3    H269582   4.605   4.406  15.731 -0.5621  0.1036 -0.3014
16031TIP3   OH269583   0.103   4.583  15.660  0.7674  0.3380  0.1606
16031TIP3    H169584   0.095   4.632  15.741 -0.7728  0.1289  0.1746
16031TIP3    H269585   0.072   4.495  15.682 -0.7159  0.5639 -0.8651
16032TIP3   OH269586   4.952   1.388  11.356  0.3673  0.4591  0.0916
16032TIP3    H169587   4.966   1.421  11.445 -0.5928 -1.1101  0.8770
16032TIP3    H269588   4.999   1.305  11.354 -1.1099 -0.4149 -0.2330
16033TIP3   OH269589   1.657   4.987  12.821 -0.4037  0.1112  1.0590
16033TIP3    H169590   1.585   5.007  12.881 -0.3811 -1.4149  1.6266
16033TIP3    H269591   1.709   5.068  12.819 -1.3429  0.7550  1.7491
16034TIP3   OH269592   1.193   4.796  16.300 -0.0079 -0.4262 -0.0844
16034TIP3    H169593   1.115   4.851  16.289 -1.4792 -2.5238 -1.0429
16034TIP3    H269594   1.258   4.853  16.339 -1.0108  2.3162 -2.0990
16035TIP3   OH269595   6.484   1.626  11.256 -0.7126  0.2929 -0.3436
16035TIP3    H169596   6.569   1.670  11.252  0.5963 -1.9393  0.9350
16035TIP3    H269597   6.423   1.695  11.281  0.8823  1.7633 -0.2846
16036TIP3   OH269598   5.298   1.000  14.637  0.2095  0.3168 -0.6325
16036TIP3    H169599   5.269   1.091  14.652  1.9523  0.6415  1.1522
16036TIP3    H269600   5.268   0.980  14.548 -1.5489  2.0960 -0.5270
16037TIP3   OH269601   1.803   0.793   2.102 -0.2337  0.1997  0.0962
16037TIP3    H169602   1.862   0.856   2.142 -0.2444 -0.5728  1.3772
16037TIP3    H269603   1.767   0.743   2.175  0.9618 -2.3723 -0.9250
16038TIP3   OH269604   6.260   6.495   2.051  0.2356  0.2959 -0.4736
16038TIP3    H169605   6.200   6.570   2.047 -0.2437  0.0842  1.4293
16038TIP3    H269606   6.203   6.419   2.061  0.7627  0.0214  0.6896
16039TIP3   OH269607   1.490   0.767   3.539  0.2385  0.0171  0.5166
16039TIP3    H169608   1.517   0.767   3.447  0.2071 -0.8688  0.4939
16039TIP3    H269609   1.400   0.735   3.537  0.1176  0.3331  0.8272
16040TIP3   OH269610   1.034   4.408   4.461 -0.2000  0.5565  0.1340
16040TIP3    H169611   0.950   4.362   4.449 -0.0787  0.5438 -0.6953
16040TIP3    H269612   1.041   4.465   4.385  0.0544  1.3412  0.7389
16041TIP3   OH269613   5.875   1.939  13.288  0.1115 -0.1184 -0.4766
16041TIP3    H169614   5.787   1.970  13.306  0.1128 -0.7812  0.8037
16041TIP3    H269615   5.931   1.991  13.346  0.5146 -0.0346 -0.9315
16042TIP3   OH269616   4.661   2.627  12.252 -0.0188 -0.4356  0.3896
16042TIP3    H169617   4.608   2.610  12.175 -0.4506  0.9905  0.3422
16042TIP3    H269618   4.737   2.570  12.242 -0.2732 -0.5763 -0.8775
16043TIP3   OH269619   2.217   4.759  12.455 -0.0873 -0.7560 -0.1711
16043TIP3    H169620   2.203   4.701  12.530  0.6551 -0.5098  0.1663
16043TIP3    H269621   2.290   4.815  12.481  0.6033 -1.0787 -1.3253
16044TIP3   OH269622   1.158   5.174  16.342  0.0339 -0.1632 -0.7736
16044TIP3    H169623   1.130   5.265  16.343 -0.7507 -0.3784 -1.6262
16044TIP3    H269624   1.224   5.169  16.274  1.3773  0.1010  0.4543
16045TIP3   OH269625   2.088   4.735  13.519  0.2051 -0.1903  0.2163
16045TIP3    H169626   2.042   4.661  13.481  0.4654 -0.9436  1.2964
16045TIP3    H269627   2.167   4.745  13.465 -1.0639  0.9776 -1.5077
16046TIP3   OH269628   4.979   1.184  16.259 -0.4256  0.4524 -0.3544
16046TIP3    H169629   5.045   1.117  16.238 -2.6008 -1.5242 -1.3004
16046TIP3    H269630   4.902   1.134  16.285 -0.8136  2.6638  3.6166
16047TIP3   OH269631   6.690   0.074  16.487  0.1501 -0.3803 -0.8682
16047TIP3    H169632   6.675   0.141  16.554 -1.0645  1.6144 -3.0013
16047TIP3    H269633   6.606   0.029  16.478  0.2545 -0.5196 -1.1709
16048TIP3   OH269634   2.767   5.225  13.574  0.1795  0.2536  0.2811
16048TIP3    H169635   2.791   5.142  13.534  1.1083 -0.0253  1.3514
16048TIP3    H269636   2.728   5.201  13.658  2.0109  0.8821  1.3920
16049TIP3   OH269637   6.560   0.503   3.406  0.4989  0.2005 -0.0324
16049TIP3    H169638   6.613   0.426   3.426 -1.4234 -1.0069  0.6357
16049TIP3    H269639   6.565   0.557   3.485 -1.5800 -1.3286  1.2338
16050TIP3   OH269640   2.390   5.272   4.298 -0.0455  0.5984 -0.3358
16050TIP3    H169641   2.484   5.254   4.302 -0.1830  0.0903  0.9654
16050TIP3    H269642   2.349   5.187   4.313 -0.7235  0.8959 -0.4668
16051TIP3   OH269643   3.131   4.290   3.840  0.0369  0.3993 -0.3612
16051TIP3    H169644   3.127   4.195   3.829  0.1980  0.1026  1.7806
16051TIP3    H269645   3.040   4.319   3.838 -0.1100  0.0033  0.3227
16052TIP3   OH269646   1.487   1.476   0.883  0.2149 -0.1651  0.1423
16052TIP3    H169647   1.458   1.561   0.917 -1.1668 -1.0494  1.2801
16052TIP3    H269648   1.493   1.420   0.960  3.8439 -0.4405 -0.1875
16053TIP3   OH269649   2.761   4.362   4.327 -0.6009 -0.3909  0.5406
16053TIP3    H169650   2.779   4.279   4.284 -1.7522 -0.0781 -0.5817
16053TIP3    H269651   2.677   4.349   4.371 -0.5671  0.0375  0.7362
16054TIP3   OH269652   3.596   4.787   4.370  0.0488  0.0640 -0.5134
16054TIP3    H169653   3.523   4.728   4.354 -0.2841 -0.4242  2.2870
16054TIP3    H269654   3.555   4.872   4.390  0.3851  0.4280 -1.3180
16055TIP3   OH269655   6.304   6.237   2.752 -1.0685 -0.2307  0.3400
16055TIP3    H169656   6.336   6.316   2.797 -0.0429 -1.8471  2.6853
16055TIP3    H269657   6.209   6.238   2.768 -0.8805 -0.1503  1.6241
16056TIP3   OH269658   1.924   5.779   0.672  0.0196  0.2169  0.3433
16056TIP3    H169659   1.860   5.850   0.667 -0.2362 -0.1100 -3.0370
16056TIP3    H269660   1.995   5.815   0.725 -0.7590  2.4685 -0.0361
16057TIP3   OH269661   0.756   6.715   4.142 -0.3987  0.1549  0.0505
16057TIP3    H169662   0.849   6.707   4.122 -0.1193  0.0666  1.3352
16057TIP3    H269663   0.712   6.677   4.066  0.5994  0.4283 -0.6834
16058TIP3   OH269664   4.946   0.894   5.384  0.4985  0.1136 -0.3862
16058TIP3    H169665   4.974   0.881   5.475  0.8574 -0.9410 -0.6380
16058TIP3    H269666   4.962   0.810   5.342 -0.1301  0.4493 -1.3125
16059TIP3   OH269667   0.216   6.031  11.637  0.3646 -0.5662  0.1978
16059TIP3    H169668   0.157   5.957  11.649 -0.1541 -0.4328 -1.2336
16059TIP3    H269669   0.292   6.011  11.691 -0.6806 -1.0826  1.5378
16060TIP3   OH269670   2.324   3.521  13.953  0.2404  0.2062  0.5720
16060TIP3    H169671   2.242   3.567  13.975  0.7525  1.4622 -0.0407
16060TIP3    H269672   2.392   3.587  13.964  1.2414 -0.9201  1.4079
16061TIP3   OH269673   4.410   5.448  13.501 -0.4780  0.2369  0.0344
16061TIP3    H169674   4.460   5.461  13.420  1.7341  2.1497  1.5557
16061TIP3    H269675   4.345   5.518  13.501  0.4746  1.1603  0.5037
16062TIP3   OH269676   5.995   1.596  16.694 -0.5103  0.0565 -0.1411
16062TIP3    H169677   6.011   1.629  16.605  0.9360 -1.0216 -0.3177
16062TIP3    H269678   5.927   1.530  16.683  0.2255 -0.6477 -0.5980
16063TIP3   OH269679   0.694   0.827  12.743 -0.0091 -0.5156  0.4627
16063TIP3    H169680   0.759   0.858  12.681  0.1590 -0.9347  0.4290
16063TIP3    H269681   0.656   0.907  12.780  0.8306 -0.2690  0.8051
16064TIP3   OH269682   6.796   6.156  12.289 -0.5225 -0.4189 -0.2242
16064TIP3    H169683   6.852   6.114  12.224  1.3327 -1.7810  2.1017
16064TIP3    H269684   6.709   6.120  12.273  0.4156 -2.8617 -0.2920
16065TIP3   OH269685   2.274   4.370   0.983  0.5469  0.1712  0.1647
16065TIP3    H169686   2.233   4.440   0.931  1.9011  2.0131  1.4432
16065TIP3    H269687   2.214   4.356   1.056 -0.7698 -1.5865 -1.1533
16066TIP3   OH269688   4.856   5.358   3.075 -0.4220 -0.7135  0.1578
16066TIP3    H169689   4.854   5.390   3.165 -0.1190 -0.1316 -0.0371
16066TIP3    H269690   4.945   5.326   3.062  0.2479  1.3307 -0.6422
16067TIP3   OH269691   5.025   4.259  15.602  0.1192  0.0810  0.7445
16067TIP3    H169692   5.054   4.170  15.587 -0.3888  0.1773 -0.9318
16067TIP3    H269693   5.100   4.314  15.578 -0.0193  0.1590  0.4908
16068TIP3   OH269694   6.639   3.782   2.811  0.4688  0.1059  0.1304
16068TIP3    H169695   6.631   3.696   2.852 -0.8545  0.0041 -0.2927
16068TIP3    H269696   6.709   3.773   2.747 -0.5280 -1.0551 -0.8444
16069TIP3   OH269697   6.048   3.697  12.307 -0.2548 -0.4438  0.0950
16069TIP3    H169698   6.116   3.653  12.358 -0.7718  0.0848  1.2915
16069TIP3    H269699   6.080   3.695  12.217  0.8784 -1.0588  0.4900
16070TIP3   OH269700   6.790   1.005   2.663  0.2911 -0.5795 -0.0902
16070TIP3    H169701   6.740   0.941   2.613  0.6207 -0.2284 -0.8982
16070TIP3    H269702   6.881   0.984   2.645  0.4024  0.3366 -0.6753
16071TIP3   OH269703   2.553   2.315   5.323 -0.7307 -0.1638 -0.0589
16071TIP3    H169704   2.551   2.409   5.339 -0.9446 -0.2576  0.5114
16071TIP3    H269705   2.604   2.305   5.243 -1.4915  0.5043 -0.6405
16072TIP3   OH269706   6.222   4.233  17.091  0.2004  0.1359 -0.4733
16072TIP3    H169707   6.229   4.218  17.186 -1.6044  3.5051  0.3609
16072TIP3    H269708   6.145   4.182  17.065  0.0212  0.0990  0.1019
16073TIP3   OH269709   0.823   6.477  14.731 -0.2097 -0.0867  0.4755
16073TIP3    H169710   0.864   6.423  14.663 -1.0757  0.0223 -0.1367
16073TIP3    H269711   0.897   6.519  14.775  0.3660 -0.2097 -0.3477
16074TIP3   OH269712   1.071   6.730  10.746  0.4665 -0.0018 -0.3988
16074TIP3    H169713   1.019   6.797  10.701  1.7257  1.2554 -0.0446
16074TIP3    H269714   1.110   6.679  10.675 -1.7574 -1.4333 -0.6742
16075TIP3   OH269715   3.097   0.435  16.708 -0.4840 -0.1037 -0.3178
16075TIP3    H169716   3.151   0.511  16.733  0.3976 -0.8508  0.1388
16075TIP3    H269717   3.073   0.451  16.617  0.1096  0.4903 -0.3766
16076TIP3   OH269718   5.246   1.860  15.382 -0.2610  0.5532 -0.1099
16076TIP3    H169719   5.181   1.920  15.345 -0.6658  1.1018  1.4217
16076TIP3    H269720   5.194   1.793  15.426  0.2043  0.5410  0.4322
16077TIP3   OH269721   4.259   0.263  13.610  0.0581 -0.7430  0.0464
16077TIP3    H169722   4.176   0.248  13.566 -1.0021  0.0468  1.6790
16077TIP3    H269723   4.318   0.294  13.542 -0.8508 -1.7264 -1.2194
16078TIP3   OH269724   6.349   6.439  14.521  0.5063  0.0893 -0.5678
16078TIP3    H169725   6.401   6.519  14.522 -0.9806  1.0925 -1.2625
16078TIP3    H269726   6.262   6.465  14.550  0.5489 -1.7309  1.4548
16079TIP3   OH269727   4.092   3.729   0.090  0.0666 -0.1236  0.0812
16079TIP3    H169728   4.048   3.682   0.019 -1.3355 -0.2738  1.0359
16079TIP3    H269729   4.149   3.792   0.044 -2.1232  1.0221 -1.2307
16080TIP3   OH269730   1.741   4.510  16.638  0.5239 -0.5904  0.0128
16080TIP3    H169731   1.817   4.458  16.663 -0.0800 -1.2474  0.5186
16080TIP3    H269732   1.673   4.446  16.619  0.4345 -0.0450 -1.6101
16081TIP3   OH269733   5.330   1.759   2.909 -0.2835  0.1951 -0.3848
16081TIP3    H169734   5.333   1.724   2.820 -2.3653 -0.2541 -0.3243
16081TIP3    H269735   5.255   1.716   2.949  0.9350 -0.0256  1.8051
16082TIP3   OH269736   5.756   0.960  15.503 -0.3061 -0.2909  0.9833
16082TIP3    H169737   5.838   0.997  15.537  0.0381 -0.8530  0.7751
16082TIP3    H269738   5.688   1.011  15.547  0.1454 -0.0890  1.4764
16083TIP3   OH269739   2.755   3.988  16.089  0.2791  0.6769 -0.2290
16083TIP3    H169740   2.830   3.949  16.045  0.5484  1.6658 -0.6672
16083TIP3    H269741   2.679   3.950  16.045  0.5218  0.1107 -0.1676
16084TIP3   OH269742   6.683   3.901   1.304  0.0035 -0.7455 -0.1428
16084TIP3    H169743   6.721   3.974   1.353 -2.2577  0.4876 -0.1030
16084TIP3    H269744   6.686   3.827   1.364  1.1328 -0.3807  0.2809
16085TIP3   OH269745   0.254   2.789   5.464 -0.4150 -0.5474  0.4609
16085TIP3    H169746   0.297   2.717   5.509  1.2782 -0.3478 -0.7062
16085TIP3    H269747   0.183   2.816   5.522  0.5192 -1.4737  2.0990
16086TIP3   OH269748   3.725   3.466   5.074  0.2266  0.2157 -0.3587
16086TIP3    H169749   3.742   3.548   5.119 -0.4684  0.2628 -0.1768
16086TIP3    H269750   3.703   3.404   5.144  0.2417  0.0051 -0.5392
16087TIP3   OH269751   1.633   6.337   3.323 -0.0414 -0.6044 -0.2871
16087TIP3    H169752   1.641   6.380   3.238 -1.7715  1.5230  0.5217
16087TIP3    H269753   1.594   6.252   3.303  1.4651 -1.0072 -1.7572
16088TIP3   OH269754   4.667   0.242   3.353  0.0516  0.3371 -0.3930
16088TIP3    H169755   4.716   0.294   3.417 -1.9386  1.6316  0.1453
16088TIP3    H269756   4.712   0.157   3.352  2.3214  1.4515  0.0124
16089TIP3   OH269757   5.852   4.387   1.554  0.0735  0.3939 -0.1234
16089TIP3    H169758   5.819   4.432   1.632 -2.1636 -1.3220  0.0248
16089TIP3    H269759   5.926   4.335   1.586 -0.7423 -0.2016  0.8741
16090TIP3   OH269760   6.399   4.393   3.253 -0.0742 -1.1208 -0.0401
16090TIP3    H169761   6.312   4.352   3.256 -0.8082  0.3936  0.4292
16090TIP3    H269762   6.409   4.435   3.338 -0.3748  1.5740 -1.2363
16091TIP3   OH269763   1.287   5.942   0.759  0.4185  0.2234 -0.8823
16091TIP3    H169764   1.347   6.008   0.795  1.0398 -0.1210 -1.2688
16091TIP3    H269765   1.290   5.870   0.821 -0.5807  0.7121 -0.2433
16092TIP3   OH269766   0.887   3.398   0.976  0.0403 -0.1612 -0.6872
16092TIP3    H169767   0.880   3.329   0.910  1.9235  0.1096 -1.2240
16092TIP3    H269768   0.872   3.353   1.060  1.3625 -1.2706 -1.0191
16093TIP3   OH269769   4.119   3.440  13.498 -1.3422  0.0860  0.3011
16093TIP3    H169770   4.213   3.422  13.500 -1.4856 -0.7307 -0.0853
16093TIP3    H269771   4.095   3.436  13.405 -1.9949 -1.0255  0.5020
16094TIP3   OH269772   4.053   2.734  15.261  0.4502 -0.1583 -0.5495
16094TIP3    H169773   4.141   2.762  15.284  0.2111 -0.6668  1.1121
16094TIP3    H269774   4.041   2.763  15.170  1.9249  0.8622 -0.4454
16095TIP3   OH269775   3.833   4.246  15.412 -0.0960 -0.2953 -0.2825
16095TIP3    H169776   3.778   4.212  15.482  0.4029 -1.4099 -0.4081
16095TIP3    H269777   3.775   4.300  15.359 -0.8445 -0.7219  0.0935
16096TIP3   OH269778   6.606   3.379  14.654  0.0146  0.5121  0.5021
16096TIP3    H169779   6.572   3.431  14.581 -0.1184 -0.1357  0.0998
16096TIP3    H269780   6.553   3.299  14.653  3.5091 -2.0718 -2.1655
16097TIP3   OH269781   1.061   4.910   5.571  0.3489  0.2295 -0.1857
16097TIP3    H169782   0.971   4.939   5.555  0.2121  0.0887  0.3160
16097TIP3    H269783   1.072   4.834   5.514  0.0982  0.1550 -0.1374
16098TIP3   OH269784   2.530   4.090   3.799  0.3644 -0.5950 -0.2438
16098TIP3    H169785   2.460   4.050   3.849  0.9768  0.7170  1.7460
16098TIP3    H269786   2.503   4.181   3.785  1.6151 -0.0754  0.5298
16099TIP3   OH269787   5.145   3.629   0.890 -0.2267  0.2076  0.3073
16099TIP3    H169788   5.222   3.642   0.836  0.2547 -0.7120  0.7494
16099TIP3    H269789   5.104   3.716   0.896  1.3348  0.9253  0.9372
16100TIP3   OH269790   0.913   1.738   2.994  0.0891  0.3612 -0.0203
16100TIP3    H169791   0.847   1.672   2.974  1.7135 -1.0297 -1.0030
16100TIP3    H269792   0.950   1.710   3.078  1.4093 -0.5452 -0.8756
16101TIP3   OH269793   3.619   4.174  11.962 -0.4796  0.1222  0.2566
16101TIP3    H169794   3.534   4.131  11.955  0.1009 -0.7634 -2.2880
16101TIP3    H269795   3.669   4.141  11.887  1.5136  1.9560  0.6885
16102TIP3   OH269796   5.743   0.065   3.298 -0.3963  0.3640  0.1371
16102TIP3    H169797   5.780   0.076   3.210  1.8467 -1.0500  0.8087
16102TIP3    H269798   5.751   0.151   3.339 -1.7415  1.1174 -1.0905
16103TIP3   OH269799   5.623   1.301  16.201 -0.3132  0.3393  0.0097
16103TIP3    H169800   5.593   1.389  16.177  1.0448  1.5359  2.3484
16103TIP3    H269801   5.716   1.301  16.180 -0.1920 -0.3660  0.5113
16104TIP3   OH269802   6.248   5.923  15.375 -0.3104  0.3090 -0.0746
16104TIP3    H169803   6.302   5.845  15.361 -1.1637 -0.6873  1.7038
16104TIP3    H269804   6.302   5.996  15.344  1.7384 -0.7128  0.8807
16105TIP3   OH269805   6.662   1.598  14.499 -0.3795  0.1802  0.1304
16105TIP3    H169806   6.688   1.688  14.514  2.9379 -0.0560 -3.0279
16105TIP3    H269807   6.592   1.604  14.433 -1.5296  0.4050  1.3122
16106TIP3   OH269808   5.012   6.791   1.680 -0.3985  0.0151  0.4627
16106TIP3    H169809   4.927   6.824   1.709  0.1479  3.5792 -1.4723
16106TIP3    H269810   5.076   6.838   1.733  0.3889  1.2221 -1.4258
16107TIP3   OH269811   3.085   1.010   5.161  0.3827  0.2922  0.2062
16107TIP3    H169812   3.051   1.045   5.244 -3.8109  0.4650 -1.3376
16107TIP3    H269813   3.033   0.931   5.145  2.2426 -0.6864 -1.5378
16108TIP3   OH269814   1.009   6.778  13.944 -0.1493  0.2486  0.3955
16108TIP3    H169815   0.991   6.687  13.965  0.4998  0.2702  1.1147
16108TIP3    H269816   1.038   6.777  13.853 -0.6589 -0.1899  0.2367
16109TIP3   OH269817   1.281   2.300  14.423  0.7066  0.7333 -0.3862
16109TIP3    H169818   1.351   2.290  14.487  0.0972 -1.1665  0.0727
16109TIP3    H269819   1.308   2.246  14.349 -1.1936 -2.0294  0.7303
16110TIP3   OH269820   6.497   5.891   4.391  0.5850  0.4580  0.4447
16110TIP3    H169821   6.454   5.816   4.432  1.1058 -0.6486 -0.9188
16110TIP3    H269822   6.544   5.934   4.462 -2.8734  1.9229  2.1028
16111TIP3   OH269823   4.033   5.387  13.688  0.1028 -0.6705  0.0764
16111TIP3    H169824   3.974   5.314  13.703 -1.3720  0.6412  1.0974
16111TIP3    H269825   3.983   5.464  13.715  1.6972  0.6915 -0.6364
16112TIP3   OH269826   1.755   0.934   1.043  0.5402 -0.5412 -0.4295
16112TIP3    H169827   1.725   0.999   0.979  0.3546  0.3267  0.5143
16112TIP3    H269828   1.676   0.884   1.064  0.0403  0.7096  0.8583
16113TIP3   OH269829   2.781   6.364  13.262 -0.0598  0.1178 -0.0144
16113TIP3    H169830   2.810   6.273  13.272  0.0824 -0.1412 -2.3163
16113TIP3    H269831   2.855   6.416  13.292  1.9744 -0.5560 -3.4214
16114TIP3   OH269832   1.405   4.861  11.572 -0.4298  0.1708 -0.0564
16114TIP3    H169833   1.352   4.880  11.494  1.5096  0.2257 -1.4525
16114TIP3    H269834   1.350   4.806  11.627 -1.0359 -2.0351 -2.6502
16115TIP3   OH269835   2.477   5.716  12.120  0.2909  0.0723  0.2728
16115TIP3    H169836   2.445   5.632  12.153 -2.9280  1.0548 -0.0093
16115TIP3    H269837   2.481   5.772  12.197  1.2001  0.0192  0.2693
16116TIP3   OH269838   2.775   6.602  11.787 -0.2053  0.2757  0.5610
16116TIP3    H169839   2.837   6.532  11.771 -1.4104 -0.4682 -1.2239
16116TIP3    H269840   2.698   6.558  11.823  0.0652  1.1098  2.2464
16117TIP3   OH269841   4.701   5.377  10.915 -0.3141 -0.2389 -0.5586
16117TIP3    H169842   4.734   5.404  11.001  0.3269 -1.8554 -0.2536
16117TIP3    H269843   4.778   5.339  10.871 -0.8564 -0.3055 -1.4759
16118TIP3   OH269844   3.127   0.053   0.687  0.6899 -0.0370  0.3256
16118TIP3    H169845   3.093  -0.037   0.688 -2.3794  1.0102  0.5675
16118TIP3    H269846   3.083   0.093   0.612  0.9380  1.6427  1.0537
16119TIP3   OH269847   0.336   0.267  15.434 -0.3294  0.1953  0.2412
16119TIP3    H169848   0.330   0.300  15.524 -2.2184 -0.3483  0.3522
16119TIP3    H269849   0.256   0.215  15.422  0.2501 -0.3513 -1.5155
16120TIP3   OH269850   0.690   0.892   4.566  0.2298 -0.0681  0.7580
16120TIP3    H169851   0.597   0.869   4.566  0.2274 -0.5381  3.8624
16120TIP3    H269852   0.695   0.971   4.621  1.5297  0.9488 -0.7266
16121TIP3   OH269853   6.631   0.475   2.388  0.3948 -0.1342 -0.2326
16121TIP3    H169854   6.695   0.412   2.423 -0.6740 -1.3117 -0.3202
16121TIP3    H269855   6.684   0.548   2.355  2.0458 -2.6491 -3.7776
16122TIP3   OH269856   2.260   2.754   0.961 -0.1100  0.3052 -0.2198
16122TIP3    H169857   2.167   2.777   0.951 -0.2473 -0.9369 -2.6051
16122TIP3    H269858   2.262   2.660   0.946  1.6252  0.4106 -0.7762
16123TIP3   OH269859   4.134   1.189  13.876 -0.4626  0.0599 -0.3349
16123TIP3    H169860   4.131   1.102  13.836  1.7469 -0.0227 -0.4893
16123TIP3    H269861   4.222   1.221  13.856 -0.4696  1.4464  1.5551
16124TIP3   OH269862   1.284   2.056   2.427 -0.1407 -0.7205 -0.4030
16124TIP3    H169863   1.215   2.019   2.371 -0.4581 -1.4084  0.4155
16124TIP3    H269864   1.241   2.069   2.511 -0.6476  3.4893 -1.1095
16125TIP3   OH269865   3.471   1.102   4.294 -0.2805 -0.3369  0.1249
16125TIP3    H169866   3.468   1.029   4.357 -2.5401  1.1422  1.9219
16125TIP3    H269867   3.428   1.068   4.216 -1.5648 -0.9033  1.0418
16126TIP3   OH269868   0.895   6.663  14.969  0.1229 -0.3097 -0.2464
16126TIP3    H169869   0.863   6.594  15.028  0.2755  0.6675  1.0119
16126TIP3    H269870   0.990   6.662  14.981  0.1569 -0.1179 -0.5079
16127TIP3   OH269871   2.069   3.243  16.490 -0.4220 -0.1654 -0.1011
16127TIP3    H169872   2.146   3.190  16.472  0.8936  1.4932  0.3958
16127TIP3    H269873   2.041   3.274  16.404  0.5738  0.6542 -0.1543
16128TIP3   OH269874   5.939   1.618   0.205 -0.3061 -0.0215  0.0775
16128TIP3    H169875   5.873   1.687   0.200 -1.5538 -1.0115  1.6714
16128TIP3    H269876   5.970   1.607   0.115 -2.8024  0.0497 -0.8703
16129TIP3   OH269877   0.020   5.832  14.672 -0.2128 -0.4717  0.0465
16129TIP3    H169878  -0.038   5.846  14.747 -1.5966  1.0509 -1.2492
16129TIP3    H269879   0.025   5.917  14.629 -0.0678 -1.4825 -2.0214
16130TIP3   OH269880   2.789   4.101  11.224 -0.2777  0.0476  0.0013
16130TIP3    H169881   2.851   4.045  11.271  1.4478  1.3650 -0.6002
16130TIP3    H269882   2.840   4.138  11.152 -1.6540  1.5498 -0.2543
16131TIP3   OH269883   3.486   1.571  14.928 -0.5549 -0.0264 -0.4378
16131TIP3    H169884   3.541   1.650  14.934 -1.3698  0.5307 -0.1571
16131TIP3    H269885   3.513   1.518  15.004 -0.0572  0.0075 -0.5853
16132TIP3   OH269886   6.541   4.825  14.479  0.1206 -0.4853 -0.9588
16132TIP3    H169887   6.493   4.830  14.396 -0.9499 -1.3272 -0.4061
16132TIP3    H269888   6.474   4.823  14.547  0.9886  2.5754  0.1507
16133TIP3   OH269889   1.743   0.073   2.794 -0.5635 -0.7860  0.4392
16133TIP3    H169890   1.715  -0.016   2.771  2.8284 -1.9671  0.2784
16133TIP3    H269891   1.664   0.116   2.826 -2.7498 -3.2221 -1.2758
16134TIP3   OH269892   2.579   5.884   4.421  0.6773  0.3656 -0.2685
16134TIP3    H169893   2.636   5.859   4.494 -0.2110  0.9807  0.6582
16134TIP3    H269894   2.556   5.975   4.439 -2.9946 -0.6451  1.0675
16135TIP3   OH269895   0.652   4.199   3.985  0.1678 -0.4023  0.0703
16135TIP3    H169896   0.605   4.167   4.062  0.9240  0.6147  0.9841
16135TIP3    H269897   0.744   4.190   4.007  0.4195  1.9653  0.2185
16136TIP3   OH269898   6.258   0.439  11.876 -0.5375  0.0373  0.0581
16136TIP3    H169899   6.302   0.516  11.913 -0.4588  2.6136 -4.6870
16136TIP3    H269900   6.166   0.451  11.901 -0.5054  1.7022 -0.4640
16137TIP3   OH269901   1.396   5.495   4.797 -0.1411  0.0912 -0.3533
16137TIP3    H169902   1.423   5.458   4.713 -1.2479  0.4983 -0.9165
16137TIP3    H269903   1.427   5.585   4.795 -1.8485  0.6997 -1.1993
16138TIP3   OH269904   6.572   2.872  14.079 -0.0491 -0.2032  0.1237
16138TIP3    H169905   6.663   2.876  14.110 -0.4143  0.4979  1.1715
16138TIP3    H269906   6.566   2.943  14.015 -0.2554  0.8360  1.2477
16139TIP3   OH269907   3.139   5.752  12.202  0.1597  0.2453  0.2615
16139TIP3    H169908   3.070   5.810  12.234  0.4750 -0.0713  1.5783
16139TIP3    H269909   3.161   5.786  12.115 -0.5190  1.3333  0.5012
16140TIP3   OH269910   0.329   0.395  11.935 -0.3872  0.3542 -0.1343
16140TIP3    H169911   0.353   0.452  12.008  1.0573 -1.2379  0.7141
16140TIP3    H269912   0.389   0.321  11.942 -0.1879  0.1440 -2.9718
16141TIP3   OH269913   6.730   3.960   5.615  0.1530  0.1032  0.3509
16141TIP3    H169914   6.654   3.993   5.665  0.9579 -0.7885  2.2447
16141TIP3    H269915   6.691   3.905   5.547 -0.9410  0.4252  0.6817
16142TIP3   OH269916   0.977   0.984  15.151 -0.6554  0.4544 -0.1060
16142TIP3    H169917   1.021   0.962  15.069 -1.0380 -0.6359 -0.0284
16142TIP3    H269918   0.887   0.955  15.138 -0.5489 -0.3721  0.9589
16143TIP3   OH269919   2.976   2.186   0.730 -0.3617 -0.3386 -0.2468
16143TIP3    H169920   3.004   2.239   0.656  0.0783 -0.0055  0.1500
16143TIP3    H269921   2.900   2.232   0.766 -0.1766 -0.1482 -0.0975
16144TIP3   OH269922   6.253   0.575  13.607  0.6942 -0.4214 -0.1122
16144TIP3    H169923   6.177   0.554  13.661  0.8395 -1.7550 -0.3952
16144TIP3    H269924   6.329   0.554  13.661  0.8416 -2.1628 -0.9356
16145TIP3   OH269925   2.603   6.206  14.785 -0.0529 -0.2167 -0.3354
16145TIP3    H169926   2.600   6.191  14.690  0.8543 -0.0226 -0.4021
16145TIP3    H269927   2.630   6.122  14.822  2.0095  0.3437 -0.4629
16146TIP3   OH269928   6.210   2.648  14.104 -0.2809 -0.0466  0.3429
16146TIP3    H169929   6.164   2.585  14.160 -1.4360 -0.3580 -0.9121
16146TIP3    H269930   6.253   2.707  14.166 -3.2534  0.9377  1.6747
16147TIP3   OH269931   2.889   2.053  14.829  0.5131 -0.0921 -0.9944
16147TIP3    H169932   2.824   2.054  14.899  1.9845 -0.2397  0.4246
16147TIP3    H269933   2.922   2.142  14.826 -0.1368  0.1305 -2.1190
16148TIP3   OH269934   1.786   5.396  16.877  0.4125  0.0264  0.3406
16148TIP3    H169935   1.784   5.473  16.821 -2.5286 -0.5662 -0.5426
16148TIP3    H269936   1.810   5.430  16.963  1.4883  1.5263 -0.5183
16149TIP3   OH269937   4.240   4.122  11.141  0.2333 -0.0823  0.2142
16149TIP3    H169938   4.231   4.216  11.124 -0.2349 -0.1929 -0.1592
16149TIP3    H269939   4.202   4.080  11.064 -0.8709 -0.5800  1.0085
16150TIP3   OH269940   2.496   4.610  15.471 -0.0348 -0.5648  0.8675
16150TIP3    H169941   2.590   4.626  15.471 -0.0518 -0.4640  1.0530
16150TIP3    H269942   2.480   4.554  15.547 -0.2602  0.2494  1.4400
16151TIP3   OH269943   3.169   1.893   5.718 -0.5524  0.3093 -0.4995
16151TIP3    H169944   3.192   1.957   5.649 -2.1720 -2.2780 -3.7253
16151TIP3    H269945   3.087   1.925   5.754  0.5998  2.0025  0.8132
16152TIP3   OH269946   3.634   5.215   2.682  0.1008 -0.0844 -0.7140
16152TIP3    H169947   3.546   5.220   2.646  0.0749 -0.9188 -0.7842
16152TIP3    H269948   3.669   5.132   2.649  0.1296 -0.8334  1.0744
16153TIP3   OH269949   3.575   3.553   0.514 -0.3903  0.1788  0.8247
16153TIP3    H169950   3.660   3.578   0.477 -0.1036 -0.3851  1.0912
16153TIP3    H269951   3.511   3.598   0.459  0.0047 -1.1606 -0.7974
16154TIP3   OH269952   2.684   3.072  11.776  0.1104  0.1444 -0.3341
16154TIP3    H169953   2.608   3.024  11.809 -0.2625  0.8942 -0.0847
16154TIP3    H269954   2.750   3.062  11.845 -1.2321  3.1561  1.6055
16155TIP3   OH269955   1.267   5.461   5.351 -0.0678 -0.5086 -0.2816
16155TIP3    H169956   1.233   5.518   5.419 -0.4991 -0.2310 -0.7218
16155TIP3    H269957   1.256   5.511   5.270 -0.9274 -1.4144 -0.7433
16156TIP3   OH269958   2.434   1.609  12.413 -0.0726 -0.1799 -0.1751
16156TIP3    H169959   2.455   1.561  12.492 -0.2720 -1.7068 -1.0075
16156TIP3    H269960   2.503   1.585  12.351  1.4289  2.7813  0.1518
16157TIP3   OH269961   5.787   4.147   5.593 -0.5373  0.0895 -0.7568
16157TIP3    H169962   5.732   4.085   5.642  0.7761 -3.1241 -2.9592
16157TIP3    H269963   5.844   4.185   5.659 -1.0214 -1.5332  0.6865
16158TIP3   OH269964   1.068   2.904   5.966 -0.0819 -0.5121 -0.5575
16158TIP3    H169965   0.995   2.861   6.012  1.4461 -1.1620  1.4289
16158TIP3    H269966   1.103   2.966   6.030  0.9245  0.0079 -1.5837
16159TIP3   OH269967   5.897   4.779  10.118  0.7148 -0.0469  0.4051
16159TIP3    H169968   5.873   4.869  10.144  0.5375 -0.1970  0.7726
16159TIP3    H269969   5.987   4.769  10.150  1.2562  0.4862 -0.8940
16160TIP3   OH269970   3.134   0.746   1.061 -0.2387 -0.1429 -0.2799
16160TIP3    H169971   3.219   0.733   1.020 -0.3772 -0.2914 -0.5215
16160TIP3    H269972   3.145   0.826   1.113  0.1774 -0.4115  0.0491
16161TIP3   OH269973   5.717   2.767   1.686 -0.2252 -0.4646 -0.3282
16161TIP3    H169974   5.719   2.830   1.614 -1.9341 -0.3221 -0.2921
16161TIP3    H269975   5.769   2.693   1.654  1.6408  0.8110 -0.4567
16162TIP3   OH269976   3.515   6.817  16.380  0.2260  0.2259 -0.6458
16162TIP3    H169977   3.456   6.746  16.407  0.8069 -0.0664 -0.1364
16162TIP3    H269978   3.592   6.806  16.435  0.8621  0.4633 -1.4850
16163TIP3   OH269979   2.345   4.589   2.567 -0.2180  0.4897  0.3503
16163TIP3    H169980   2.287   4.564   2.639  1.1100 -0.0290  1.2818
16163TIP3    H269981   2.418   4.633   2.610  1.5782 -1.5391 -0.4220
16164TIP3   OH269982   1.955   5.517  16.213  0.3009  0.0942  0.1541
16164TIP3    H169983   2.037   5.508  16.166  0.2186  0.5175 -0.0770
16164TIP3    H269984   1.932   5.610  16.204  0.0350  0.0760  0.6076
16165TIP3   OH269985   2.285   2.557  16.228 -0.1669 -0.1512 -0.0226
16165TIP3    H169986   2.374   2.523  16.238  0.2801  1.5057  2.4515
16165TIP3    H269987   2.229   2.488  16.265  0.1296 -0.8672 -0.8804
16166TIP3   OH269988   4.730   2.628  16.450  0.3015 -0.3731 -0.0274
16166TIP3    H169989   4.708   2.566  16.380  0.4156 -1.5253  0.9236
16166TIP3    H269990   4.712   2.580  16.531  2.0175  0.2328  0.7654
16167TIP3   OH269991   5.787   6.452   2.824  0.0903 -0.4281 -0.3056
16167TIP3    H169992   5.773   6.505   2.902  0.3647  0.6415 -0.9622
16167TIP3    H269993   5.731   6.375   2.836  2.2391 -1.7266  2.2398
16168TIP3   OH269994   5.416   2.118   1.210 -0.4043 -0.1883 -0.2587
16168TIP3    H169995   5.423   2.172   1.289  0.9848 -1.5544  0.6015
16168TIP3    H269996   5.328   2.081   1.214 -1.0138  1.2067 -0.3518
16169TIP3   OH269997   1.291   4.507  11.774  0.2474  0.1762 -0.5237
16169TIP3    H169998   1.288   4.474  11.864  2.6583 -0.4321 -0.6000
16169TIP3    H269999   1.282   4.602  11.783 -1.5499 -0.0294  0.1504
16170TIP3   OH270000   2.070   5.329   2.388  0.0460 -0.4300  0.3720
16170TIP3    H170001   2.073   5.374   2.303 -0.8679 -0.5743  0.2467
16170TIP3    H270002   2.060   5.236   2.365 -1.3410 -0.3648  0.6163
16171TIP3   OH270003   2.187   0.027   2.655  0.2414  0.9553  0.0214
16171TIP3    H170004   2.122   0.092   2.626  1.3365  1.9668 -0.2122
16171TIP3    H270005   2.145  -0.057   2.636 -2.3737  1.4395  2.7875
16172TIP3   OH270006   6.081   4.135   4.737 -0.1355  0.0248  0.2104
16172TIP3    H170007   6.018   4.147   4.666 -0.0385  1.4949  0.3426
16172TIP3    H270008   6.036   4.166   4.816  0.3178 -0.0726  0.5183
16173TIP3   OH270009   2.414   1.921   4.524  0.4455  0.2293  0.3019
16173TIP3    H170010   2.343   1.858   4.512  0.2526  0.2661  1.1695
16173TIP3    H270011   2.378   1.987   4.583  0.8229  0.8758 -0.1804
16174TIP3   OH270012   1.707   4.930   2.600  0.0933  0.4883 -0.1316
16174TIP3    H170013   1.632   4.971   2.644 -0.9538 -0.2980 -1.1313
16174TIP3    H270014   1.697   4.953   2.508  0.7299 -0.1522 -0.3679
16175TIP3   OH270015   3.209   1.181   5.526 -0.1423  0.2120 -0.0924
16175TIP3    H170016   3.232   1.266   5.563 -1.1795  0.5180 -0.1219
16175TIP3    H270017   3.117   1.190   5.501 -0.5875 -1.2562  0.8973
16176TIP3   OH270018   5.561   1.568  16.115 -0.7817  0.3228  0.9660
16176TIP3    H170019   5.558   1.642  16.176 -0.5451  2.2527 -1.2090
16176TIP3    H270020   5.470   1.555  16.088 -0.9215 -0.6956  1.8758
16177TIP3   OH270021   6.062   3.212  16.262  0.2400 -0.4042  0.0471
16177TIP3    H170022   6.061   3.143  16.328 -0.6060 -0.2578  0.2055
16177TIP3    H270023   6.037   3.168  16.181 -0.1601 -0.3201  0.1204
16178TIP3   OH270024   3.210   1.268   2.167 -0.1252  0.1305  0.4895
16178TIP3    H170025   3.130   1.315   2.189 -0.8893 -0.4934 -0.8204
16178TIP3    H270026   3.239   1.229   2.250 -0.3453  1.5611  1.2667
16179TIP3   OH270027   6.435   0.729  15.670  0.1107  0.4236 -0.6234
16179TIP3    H170028   6.523   0.702  15.642 -0.3403 -0.0179 -1.6657
16179TIP3    H270029   6.377   0.698  15.601 -0.6351  2.5692 -1.0531
16180TIP3   OH270030   0.619   2.205  13.484 -0.5433 -0.4515  0.3120
16180TIP3    H170031   0.650   2.135  13.541  0.0105 -1.1432 -0.7993
16180TIP3    H270032   0.697   2.232  13.435 -1.2410 -0.7675 -1.0303
16181TIP3   OH270033   4.931   1.874   1.812 -0.2139  0.5850  0.4139
16181TIP3    H170034   4.943   1.873   1.717 -5.5587 -1.5219 -0.5569
16181TIP3    H270035   4.876   1.950   1.829 -3.1737 -1.5223  0.9513
16182TIP3   OH270036   6.244   4.727   2.082 -0.0876 -0.5846  0.6577
16182TIP3    H170037   6.244   4.787   2.007  3.1988 -2.8714 -1.4604
16182TIP3    H270038   6.152   4.714   2.103 -1.0141  3.1394 -0.3874
16183TIP3   OH270039   3.101   6.099  16.114 -0.5096  0.7059  0.2873
16183TIP3    H170040   3.008   6.076  16.107 -0.1333 -0.7678 -0.3010
16183TIP3    H270041   3.146   6.015  16.112  0.9778  1.4791 -1.5137
16184TIP3   OH270042   4.427   3.939   3.740  0.1303  0.6165  0.0471
16184TIP3    H170043   4.374   3.976   3.810  0.2829  0.0793  0.4511
16184TIP3    H270044   4.504   3.995   3.736  0.8438 -0.2188  1.3406
16185TIP3   OH270045   1.602   6.508  12.267 -0.6995 -0.4987 -0.0757
16185TIP3    H170046   1.633   6.435  12.213 -1.9341 -1.9439  1.0657
16185TIP3    H270047   1.610   6.476  12.357  0.6261  1.5786  0.6006
16186TIP3   OH270048   4.989   0.698   0.951 -0.0373 -0.2299  0.0623
16186TIP3    H170049   5.022   0.777   0.908 -0.9534  0.9205  1.3738
16186TIP3    H270050   4.954   0.644   0.880 -1.8758  1.7752 -0.6764
16187TIP3   OH270051   1.986   2.213   0.199 -0.3835 -0.2299  0.0955
16187TIP3    H170052   1.892   2.229   0.205 -0.6323 -1.7676  0.6128
16187TIP3    H270053   1.993   2.123   0.169  0.9025 -0.6227  1.4573
16188TIP3   OH270054   6.339   3.821  15.425 -0.1730 -0.5042 -0.2602
16188TIP3    H170055   6.271   3.763  15.391 -0.4874  0.5575 -1.5186
16188TIP3    H270056   6.420   3.788  15.387 -0.3561 -0.0924 -1.0078
16189TIP3   OH270057   5.741   5.872   3.844  0.6292  0.5316 -0.0910
16189TIP3    H170058   5.733   5.802   3.780 -1.7953  1.6879 -1.1614
16189TIP3    H270059   5.662   5.866   3.897  1.3349  1.2466  1.1003
16190TIP3   OH270060   1.351   0.843  11.310  0.2562  0.0654  0.2496
16190TIP3    H170061   1.371   0.856  11.403 -0.3212  2.4599  0.1119
16190TIP3    H270062   1.436   0.829  11.269  0.4630 -1.6722  1.1894
16191TIP3   OH270063   0.746   4.950   4.972  0.0978 -0.2994  0.3908
16191TIP3    H170064   0.829   4.941   4.926 -1.3962  0.9984 -2.8935
16191TIP3    H270065   0.746   5.040   5.004 -0.3960  0.0372 -0.5130
16192TIP3   OH270066   2.469   1.190  13.925 -0.1213 -0.6756 -0.0701
16192TIP3    H170067   2.556   1.184  13.962  0.2691  1.3530 -0.5652
16192TIP3    H270068   2.417   1.126  13.974  1.2554 -0.7791  1.3072
16193TIP3   OH270069   0.779   4.923  17.142 -0.2045  0.4751  0.4186
16193TIP3    H170070   0.730   5.001  17.115 -1.0202 -0.1390  0.0776
16193TIP3    H270071   0.804   4.941  17.232 -2.9759 -0.0553  1.4073
16194TIP3   OH270072   2.009   0.078  10.702  0.4872 -0.4393  0.4072
16194TIP3    H170073   1.943   0.009  10.717 -2.2369  2.3005  2.4382
16194TIP3    H270074   2.000   0.101  10.610 -0.8635 -0.6714  0.4627
16195TIP3   OH270075   1.400   6.120  16.960 -0.1776  0.3791 -0.4293
16195TIP3    H170076   1.470   6.147  16.901  0.6620  0.6781  0.6695
16195TIP3    H270077   1.323   6.110  16.903  0.8454 -0.4097 -1.7249
16196TIP3   OH270078   2.489   2.214   1.700  0.9790  0.2094 -0.5205
16196TIP3    H170079   2.506   2.216   1.605 -1.0806 -2.3837 -1.0722
16196TIP3    H270080   2.558   2.158   1.736 -0.8650 -2.8570 -1.3632
16197TIP3   OH270081   3.437   3.818  11.375 -0.9762  0.1809  0.1726
16197TIP3    H170082   3.481   3.877  11.314 -1.1019  0.6368  0.5205
16197TIP3    H270083   3.378   3.874  11.425 -1.0587 -0.2288  0.5432
16198TIP3   OH270084   0.037   0.455   2.162  0.0651  0.5978 -0.5953
16198TIP3    H170085   0.034   0.430   2.254  0.9241 -1.2712 -1.0311
16198TIP3    H270086   0.067   0.546   2.163  1.2383  0.2379  0.9422
16199TIP3   OH270087   2.483   2.326  15.636 -0.2357  0.1242 -0.4756
16199TIP3    H170088   2.531   2.398  15.676  0.1967  0.6585 -1.8621
16199TIP3    H270089   2.549   2.281  15.582 -0.9750  0.0383 -1.3363
16200TIP3   OH270090   6.787   1.018   0.852 -0.3075  0.2156 -0.1815
16200TIP3    H170091   6.779   0.944   0.912 -1.7272 -0.3549 -1.0285
16200TIP3    H270092   6.878   1.047   0.862  0.7990 -2.6532 -0.9829
16201TIP3   OH270093   0.986   6.584   4.267  0.2083 -0.6455  0.0283
16201TIP3    H170094   0.995   6.493   4.297 -0.2075 -1.0623 -1.0511
16201TIP3    H270095   1.027   6.584   4.180 -1.1984 -0.1939 -0.6627
16202TIP3   OH270096   0.622   4.702   2.926 -0.5173  0.0915 -0.0100
16202TIP3    H170097   0.704   4.749   2.915  0.8736 -1.8771  1.2215
16202TIP3    H270098   0.557   4.756   2.881  1.3378  1.9619 -0.6123
16203TIP3   OH270099   5.198   5.961   0.266 -0.1141  0.0814  0.3485
16203TIP3    H170100   5.196   6.005   0.181 -2.6570 -1.6055 -0.5504
16203TIP3    H270101   5.266   6.008   0.315  1.0869  1.4307 -2.3963
16204TIP3   OH270102   1.462   1.744  15.112  0.9335  0.0270  0.2119
16204TIP3    H170103   1.460   1.839  15.109  0.1755  0.0868  1.6827
16204TIP3    H270104   1.372   1.717  15.092  0.9405 -0.3320  0.6311
16205TIP3   OH270105   3.261   6.311  14.364 -0.5062  0.6491  0.5545
16205TIP3    H170106   3.352   6.286  14.384 -0.2897  1.4998  0.6749
16205TIP3    H270107   3.222   6.326  14.450 -0.6079  0.8157  0.4779
16206TIP3   OH270108   1.307   0.808   1.901  0.0988  0.2143 -0.2227
16206TIP3    H170109   1.305   0.823   1.807 -1.9874  1.2700 -0.0721
16206TIP3    H270110   1.233   0.748   1.917 -1.4872  2.3465  1.0181
16207TIP3   OH270111   3.178   5.801   1.139  0.4667  0.2169 -0.0291
16207TIP3    H170112   3.249   5.843   1.186  1.1237 -1.4692  0.5531
16207TIP3    H270113   3.221   5.748   1.073 -0.1677 -1.4436  0.8433
16208TIP3   OH270114   3.762   2.303   3.670  0.5418 -0.7219 -0.0527
16208TIP3    H170115   3.820   2.227   3.662  0.7824 -0.5559  0.1115
16208TIP3    H270116   3.706   2.299   3.592 -0.0732 -1.5948  0.4184
16209TIP3   OH270117   5.874   1.762   1.832  0.2426  0.6200  0.0600
16209TIP3    H170118   5.794   1.726   1.870 -0.6154  0.8076 -1.4901
16209TIP3    H270119   5.883   1.719   1.747  1.4900  1.0046 -0.0374
16210TIP3   OH270120   5.365   5.078  15.526 -0.3381  0.4619  0.0234
16210TIP3    H170121   5.338   5.005  15.582 -2.5506  1.4877  0.3986
16210TIP3    H270122   5.359   5.042  15.437  1.3830 -0.6172  0.2994
16211TIP3   OH270123   1.403   5.882  12.840  0.5155  0.2162 -0.2973
16211TIP3    H170124   1.365   5.870  12.753 -0.9073 -3.1880  0.6170
16211TIP3    H270125   1.487   5.836  12.836  0.5272  0.1982  0.0968
16212TIP3   OH270126   0.436   3.767   4.062  0.2971 -0.2817  0.3759
16212TIP3    H170127   0.528   3.744   4.050  0.2299  0.1476 -1.2099
16212TIP3    H270128   0.395   3.749   3.977 -0.8306  0.6458  0.6914
16213TIP3   OH270129   0.246   3.890  13.732 -0.7020 -0.0772 -0.0193
16213TIP3    H170130   0.237   3.969  13.679  2.4034  0.2910 -0.2073
16213TIP3    H270131   0.221   3.917  13.821 -0.7005  0.8211 -0.2858
16214TIP3   OH270132   6.828   0.094   3.312 -0.2172  0.0365 -0.3392
16214TIP3    H170133   6.782   0.116   3.231  0.6034 -0.6160 -1.0074
16214TIP3    H270134   6.913   0.137   3.303 -0.1754  0.0764  0.2472
16215TIP3   OH270135   5.449   0.138   3.411  0.1343  0.4586  0.0136
16215TIP3    H170136   5.460   0.111   3.320 -0.8576  0.1886 -0.0424
16215TIP3    H270137   5.537   0.136   3.448  0.2068 -2.4632 -0.0797
16216TIP3   OH270138   1.434   0.962  14.208  0.1623 -0.1087  0.0685
16216TIP3    H170139   1.389   0.885  14.243 -0.1803  0.6587  1.3950
16216TIP3    H270140   1.522   0.931  14.187 -0.6048 -1.3673 -1.5046
16217TIP3   OH270141   6.424   0.974  15.865  0.0501 -0.3776  0.1805
16217TIP3    H170142   6.440   0.893  15.816  1.5866 -0.9721  1.5495
16217TIP3    H270143   6.495   1.033  15.837 -0.3982  0.0909  0.0236
16218TIP3   OH270144   1.848   3.450  13.071 -0.7931  0.1770  0.0601
16218TIP3    H170145   1.791   3.382  13.035  0.4095 -0.7530 -0.1369
16218TIP3    H270146   1.851   3.517  13.004 -3.5646  1.4168  1.0364
16219TIP3   OH270147   6.629   6.564  13.359 -0.2513 -0.4549 -0.9186
16219TIP3    H170148   6.548   6.599  13.398  0.1505 -0.9325  0.3991
16219TIP3    H270149   6.608   6.473  13.339 -0.2204 -0.4169 -1.1211
16220TIP3   OH270150   0.931   2.439   2.714 -0.1528  0.3025 -0.0306
16220TIP3    H170151   0.974   2.450   2.629 -0.8347  0.3437 -0.3738
16220TIP3    H270152   0.877   2.517   2.723  0.9062  0.9415  1.0399
16221TIP3   OH270153   6.260   5.604   2.047 -0.0946 -0.1201 -0.1661
16221TIP3    H170154   6.283   5.688   2.086 -0.2035 -0.2640  0.2169
16221TIP3    H270155   6.344   5.562   2.030 -0.0526 -0.1983  0.2333
16222TIP3   OH270156   6.829   1.750  11.833 -0.3114 -0.0182 -0.2708
16222TIP3    H170157   6.769   1.777  11.764  0.3046  1.6746 -0.1979
16222TIP3    H270158   6.903   1.712  11.787 -0.1457  0.6018 -0.5228
16223TIP3   OH270159   0.464   1.537  11.333  0.0668 -0.1447  0.2111
16223TIP3    H170160   0.555   1.562  11.349  1.1236 -2.9225 -0.7566
16223TIP3    H270161   0.455   1.537  11.238 -0.1387 -2.1409  0.1754
16224TIP3   OH270162   2.336   2.866  15.602 -0.0106  0.2133  0.6542
16224TIP3    H170163   2.420   2.904  15.574 -0.0638  0.2082  0.4874
16224TIP3    H270164   2.278   2.942  15.610 -0.2079  0.1359  0.0014
16225TIP3   OH270165   4.191   5.335  15.112  0.0312 -0.3932 -0.3529
16225TIP3    H170166   4.284   5.332  15.133 -0.2473 -1.3830  0.8398
16225TIP3    H270167   4.159   5.246  15.130 -1.0111 -0.2490 -1.3865
16226TIP3   OH270168   6.372   4.653   2.339 -0.5888  0.5791  0.1130
16226TIP3    H170169   6.330   4.641   2.254  2.4629 -2.0591 -1.2531
16226TIP3    H270170   6.425   4.733   2.328 -2.0362  1.6275  0.4654
16227TIP3   OH270171   0.782   0.609  14.178  0.4667 -0.1861 -0.5281
16227TIP3    H170172   0.711   0.550  14.206 -0.5831  0.2275 -2.1357
16227TIP3    H270173   0.852   0.550  14.151  0.5899 -0.6195  0.6743
16228TIP3   OH270174   0.580   3.982  12.762 -0.2821 -0.2148 -0.1508
16228TIP3    H170175   0.673   4.005  12.771  0.0010 -0.3781 -2.1175
16228TIP3    H270176   0.553   4.027  12.682 -1.7357 -0.7006  0.0541
16229TIP3   OH270177   6.335   1.227   0.215 -0.4791 -0.1826  0.3884
16229TIP3    H170178   6.268   1.277   0.168  0.3284  1.9615  1.3466
16229TIP3    H270179   6.414   1.237   0.161 -0.4833 -1.1745  0.1760
16230TIP3   OH270180   4.217   5.235   0.489  0.2543  0.1628 -0.2857
16230TIP3    H170181   4.289   5.247   0.552 -0.4899  1.3327  0.3718
16230TIP3    H270182   4.198   5.323   0.457 -1.3793 -0.0149  0.1223
16231TIP3   OH270183   4.044   5.048   5.765  0.0581  0.0302 -0.3847
16231TIP3    H170184   4.095   5.129   5.773 -1.5079  0.9629  0.7004
16231TIP3    H270185   4.109   4.982   5.742  1.8433  1.1024  1.1972
16232TIP3   OH270186   4.215   1.464   4.888 -0.1789 -0.0109  0.3705
16232TIP3    H170187   4.228   1.551   4.852 -0.0648  0.0155  0.4786
16232TIP3    H270188   4.120   1.450   4.884 -0.0964 -0.3440 -0.7405
16233TIP3   OH270189   6.203   4.486  16.745 -0.4780 -0.8302 -0.0556
16233TIP3    H170190   6.254   4.438  16.679 -0.6964 -0.5740 -0.4154
16233TIP3    H270191   6.261   4.557  16.772 -0.8273 -0.2235 -0.8504
16234TIP3   OH270192   2.643   2.566  14.710 -0.3917  0.4501  0.4281
16234TIP3    H170193   2.700   2.643  14.706 -1.7712  1.5556  1.3267
16234TIP3    H270194   2.611   2.564  14.800  1.2880 -2.4897  1.0998
16235TIP3   OH270195   3.967   3.447   0.628 -0.0661 -0.8191  0.1460
16235TIP3    H170196   3.918   3.510   0.574  0.6425  0.8889  1.4118
16235TIP3    H270197   3.960   3.365   0.580 -3.8992 -0.6528  0.0601
16236TIP3   OH270198   4.693   4.215   4.855  0.7773 -0.2258 -0.0833
16236TIP3    H170199   4.620   4.247   4.909  0.3537  0.7785 -1.2090
16236TIP3    H270200   4.668   4.125   4.833  0.1184 -0.0662 -0.0303
16237TIP3   OH270201   3.017   5.232   4.119  0.2214 -0.2373  0.2901
16237TIP3    H170202   2.985   5.318   4.148  1.5092  0.5992 -0.6514
16237TIP3    H270203   3.089   5.253   4.060  0.1239 -1.9705 -0.4799
16238TIP3   OH270204   1.351   1.928  16.682  0.1855  0.1278  0.4032
16238TIP3    H170205   1.285   1.864  16.656  0.9804 -0.5362 -0.0164
16238TIP3    H270206   1.335   2.004  16.626  0.1003 -0.2197 -0.0472
16239TIP3   OH270207   5.735   6.707   5.463 -0.3402 -0.0444  0.7039
16239TIP3    H170208   5.794   6.782   5.469 -0.4809  0.1211  0.0655
16239TIP3    H270209   5.675   6.718   5.537 -0.9305  0.9842  0.1071
16240TIP3   OH270210   5.884   0.420   4.194 -0.0765  0.2049  0.6692
16240TIP3    H170211   5.849   0.424   4.105 -0.2005  0.1913  0.7180
16240TIP3    H270212   5.960   0.479   4.192  0.7142 -0.8023  0.2038
16241TIP3   OH270213   4.002   0.832  10.734  0.7049  0.0380 -0.0548
16241TIP3    H170214   3.945   0.797  10.666 -0.9420  0.3867  1.0885
16241TIP3    H270215   4.028   0.756  10.786 -1.3440  0.1890  1.3003
16242TIP3   OH270216   6.739   1.171  15.024  0.1667  0.2342  0.3993
16242TIP3    H170217   6.722   1.259  15.058  1.2187  0.2145  1.0199
16242TIP3    H270218   6.823   1.179  14.978 -0.4209 -0.1351 -0.7822
16243TIP3   OH270219   3.893   2.380  16.797 -0.2803 -0.4218  0.4460
16243TIP3    H170220   3.913   2.313  16.732 -1.8733 -1.2555  0.7588
16243TIP3    H270221   3.977   2.400  16.838  0.4240 -1.2789 -0.5346
16244TIP3   OH270222   6.517   5.783  15.373  1.1832  0.3747 -0.7908
16244TIP3    H170223   6.563   5.708  15.412  0.1850  0.4363  0.5690
16244TIP3    H270224   6.543   5.858  15.428  0.2977  0.5975 -0.6694
16245TIP3   OH270225   1.114   3.153   5.708 -0.2213  0.3831  0.1036
16245TIP3    H170226   1.160   3.155   5.792 -1.3475  2.5774  0.7543
16245TIP3    H270227   1.101   3.060   5.689  1.7447 -0.2110  1.3739
16246TIP3   OH270228   6.642   5.729   6.928 -0.0125 -0.0064 -0.5552
16246TIP3    H170229   6.652   5.815   6.889  0.4552 -0.3124 -1.1133
16246TIP3    H270230   6.639   5.668   6.854  0.8263 -0.5849 -0.1328
16247TIP3   OH270231   0.731   2.448  10.555 -0.2665 -0.6337 -0.6205
16247TIP3    H170232   0.787   2.376  10.582 -0.6333 -0.2327  1.3618
16247TIP3    H270233   0.787   2.504  10.502  1.9683  0.8284  2.9285
16248TIP3   OH270234   3.089   0.814  17.030 -0.0151  0.0997 -1.1889
16248TIP3    H170235   3.179   0.848  17.037  0.7250 -1.5254 -2.2362
16248TIP3    H270236   3.100   0.724  16.999 -2.0517  0.1855 -2.3077
16249TIP3   OH270237   2.344   1.283   5.776  0.7425 -0.0805 -0.4196
16249TIP3    H170238   2.256   1.271   5.812  0.6475 -1.4076 -1.0491
16249TIP3    H270239   2.332   1.282   5.681  0.9623  3.6237 -0.6399
16250TIP3   OH270240   3.298   2.563   4.058  0.3346 -0.2848 -0.5493
16250TIP3    H170241   3.388   2.571   4.089 -0.1094 -0.2199  0.8066
16250TIP3    H270242   3.269   2.478   4.092 -0.4244  0.1430 -0.0909
16251TIP3   OH270243   2.398   5.230   2.390  0.7068  0.1033 -0.0790
16251TIP3    H170244   2.377   5.264   2.477  2.0301 -0.3789  0.4499
16251TIP3    H270245   2.487   5.260   2.373  0.6185 -0.1741 -1.0893
16252TIP3   OH270246   1.634   6.605   5.048  0.1946 -0.5965  0.5130
16252TIP3    H170247   1.669   6.525   5.007  0.1362  0.0785 -0.9199
16252TIP3    H270248   1.561   6.630   4.992 -0.5085 -0.1533  1.6071
16253TIP3   OH270249   3.664   0.087   4.547 -0.9921 -0.4244 -0.1978
16253TIP3    H170250   3.601   0.016   4.561  0.5404 -2.2623 -2.0670
16253TIP3    H270251   3.734   0.070   4.610 -0.6070 -0.6208 -0.6705
16254TIP3   OH270252   2.619   0.748  13.865  0.7457 -0.4870 -0.4620
16254TIP3    H170253   2.655   0.784  13.784 -0.3994  0.1996 -0.6900
16254TIP3    H270254   2.641   0.655  13.862  2.7883 -0.0414 -0.4060
16255TIP3   OH270255   2.424   1.131  12.685  0.0504  0.1461  0.9698
16255TIP3    H170256   2.368   1.099  12.615  1.0885  0.2258  0.0747
16255TIP3    H270257   2.495   1.177  12.640  1.0302 -0.2633  2.0391
16256TIP3   OH270258   1.523   3.285  14.023 -0.6568 -0.1066  0.3278
16256TIP3    H170259   1.490   3.198  14.003  0.5255 -0.5101  0.0751
16256TIP3    H270260   1.602   3.270  14.074  1.0656  0.7123 -1.9490
16257TIP3   OH270261   6.118   5.079  11.997 -0.3960  0.4639 -0.1638
16257TIP3    H170262   6.078   5.014  12.054 -0.1492 -1.0094 -1.6108
16257TIP3    H270263   6.064   5.079  11.918  1.8181 -0.8887 -1.7820
16258TIP3   OH270264   1.351   6.291   4.746 -0.2615  0.1983  0.4092
16258TIP3    H170265   1.300   6.216   4.776 -0.7000 -0.0037 -0.7490
16258TIP3    H270266   1.300   6.367   4.774 -0.0654  0.0569  1.1650
16259TIP3   OH270267   3.482   6.389   3.895 -0.1688  0.4232  0.1154
16259TIP3    H170268   3.428   6.460   3.861  0.6032  0.1599 -1.7870
16259TIP3    H270269   3.525   6.426   3.972 -2.0803  1.0186  0.9416
16260TIP3   OH270270   5.533   4.692   0.244  0.3070  0.5575 -0.7806
16260TIP3    H170271   5.514   4.714   0.153 -0.3463 -0.1911 -0.8338
16260TIP3    H270272   5.530   4.597   0.247 -2.1238  0.6091  0.5330
16261TIP3   OH270273   2.131   4.770   4.868 -0.1171 -0.2850  0.6589
16261TIP3    H170274   2.138   4.847   4.924 -0.0341  0.7884 -0.7726
16261TIP3    H270275   2.221   4.741   4.854 -0.1286 -0.4685  0.9670
16262TIP3   OH270276   6.081   2.506  17.072  0.0374  0.2794  0.0693
16262TIP3    H170277   6.163   2.550  17.049 -0.0939  0.8161  0.6322
16262TIP3    H270278   6.018   2.537  17.007  0.4659 -0.8086 -0.9213
16263TIP3   OH270279   4.569   6.435   1.501  0.0795 -0.2788  0.4892
16263TIP3    H170280   4.617   6.379   1.440 -0.6310 -0.9831  0.5652
16263TIP3    H270281   4.534   6.505   1.446  2.0497  0.8785  0.5827
16264TIP3   OH270282   5.828   2.131   4.881 -0.8558  0.4159 -0.0351
16264TIP3    H170283   5.781   2.086   4.951  0.0180  0.2069  0.4441
16264TIP3    H270284   5.810   2.079   4.803 -1.2592  0.2343  0.1744
16265TIP3   OH270285   1.695   0.190   4.437 -0.3921 -0.6636  0.8610
16265TIP3    H170286   1.715   0.209   4.345 -0.0797  1.0686  1.2607
16265TIP3    H270287   1.605   0.157   4.436 -0.9921  0.8959  0.0744
16266TIP3   OH270288   6.090   2.317   1.155  0.1262 -0.0288 -0.3397
16266TIP3    H170289   6.056   2.232   1.185 -0.0287  0.1572  0.0200
16266TIP3    H270290   6.075   2.376   1.229  0.9519  0.1282 -0.2804
16267TIP3   OH270291   1.967   2.075   1.846  0.0451  0.2247  0.5946
16267TIP3    H170292   1.924   2.147   1.802  0.8175 -0.7243 -1.9096
16267TIP3    H270293   2.061   2.093   1.836  0.2466 -0.9408  0.1836
16268TIP3   OH270294   3.625   0.560  12.776  0.2376 -0.5351 -0.2873
16268TIP3    H170295   3.547   0.525  12.734 -0.9908  0.5286  1.0276
16268TIP3    H270296   3.626   0.653  12.752  0.5147 -0.3137  0.5415
16269TIP3   OH270297   5.148   4.869   1.632 -0.3683 -0.3214  0.1654
16269TIP3    H170298   5.108   4.854   1.718 -1.0667  0.2649 -0.0477
16269TIP3    H270299   5.117   4.956   1.606 -0.0482 -0.4347 -0.6163
16270TIP3   OH270300   0.461   5.948   6.337 -0.0640 -0.6185  0.5024
16270TIP3    H170301   0.531   5.936   6.401  0.1896  2.4163  0.9569
16270TIP3    H270302   0.501   5.925   6.253 -0.0537 -3.5326  1.2077
16271TIP3   OH270303   3.162   2.426   1.205 -0.2428 -0.2083  0.1253
16271TIP3    H170304   3.147   2.485   1.131 -2.1345 -1.2949 -0.4377
16271TIP3    H270305   3.193   2.345   1.165  3.4590  0.6247  0.9721
16272TIP3   OH270306   2.853   3.268   3.711  0.4877 -0.7115 -0.2265
16272TIP3    H170307   2.932   3.252   3.660  0.1117  4.2331 -2.9914
16272TIP3    H270308   2.884   3.314   3.789  0.4750  0.5232 -0.9267
16273TIP3   OH270309   5.631   3.028   1.204 -0.2823 -0.4856  0.0910
16273TIP3    H170310   5.701   2.975   1.165  0.1040 -0.1642  0.3346
16273TIP3    H270311   5.551   2.979   1.187 -0.4449  0.6150 -2.9801
16274TIP3   OH270312   2.063   6.094   0.920 -0.1084 -0.1571  0.3774
16274TIP3    H170313   1.986   6.095   0.977 -0.2669 -1.5385  0.2309
16274TIP3    H270314   2.136   6.115   0.978 -0.5886  1.2584  0.5005
16275TIP3   OH270315   3.925   3.437  14.225 -0.5742  0.1529  0.2255
16275TIP3    H170316   3.901   3.360  14.276  1.0257  0.1109  0.9783
16275TIP3    H270317   3.970   3.494  14.287 -0.6498  1.1550 -0.6150
16276TIP3   OH270318   2.413   5.469  15.247  0.3691 -0.1021 -0.2311
16276TIP3    H170319   2.468   5.472  15.169  0.1195 -0.5527 -0.4266
16276TIP3    H270320   2.470   5.499  15.318  0.2647  1.4210 -0.7622
16277TIP3   OH270321   6.627   3.241   0.433  0.6786 -0.4751  0.3528
16277TIP3    H170322   6.546   3.194   0.452  0.0559  0.5465  0.3015
16277TIP3    H270323   6.656   3.275   0.518  1.1140 -0.9223  0.3879
16278TIP3   OH270324   2.535   4.569  16.500 -0.4246  0.3735 -0.0307
16278TIP3    H170325   2.618   4.609  16.524  0.1602 -1.5940  1.4297
16278TIP3    H270326   2.473   4.642  16.498  1.1292  1.7492 -0.3326
16279TIP3   OH270327   1.837   0.391  16.258 -0.0628  0.3869 -0.1175
16279TIP3    H170328   1.813   0.478  16.290 -0.8571  0.4560 -0.8622
16279TIP3    H270329   1.854   0.404  16.165  2.5947  0.2649  0.2987
16280TIP3   OH270330   2.779   0.577   3.400  0.1444 -0.4214 -0.0841
16280TIP3    H170331   2.861   0.610   3.438  0.2873 -0.1025 -0.6615
16280TIP3    H270332   2.791   0.482   3.396  0.1040 -0.4653  0.7205
16281TIP3   OH270333   3.404   6.200  16.378  0.2612 -0.2723  0.4536
16281TIP3    H170334   3.340   6.267  16.403  0.6120 -0.3543  1.6309
16281TIP3    H270335   3.473   6.249  16.333 -0.0700 -0.0222  0.2090
16282TIP3   OH270336   3.574   2.208   5.324  0.7545 -0.2423  0.0858
16282TIP3    H170337   3.579   2.136   5.263  0.6288 -0.5459  0.4297
16282TIP3    H270338   3.613   2.282   5.278 -0.4133 -0.1621 -0.8025
16283TIP3   OH270339   4.469   3.032  10.488 -0.2211  0.1619 -0.5810
16283TIP3    H170340   4.487   3.003  10.398  2.6432  1.8961 -0.6769
16283TIP3    H270341   4.496   2.958  10.543 -0.6225 -0.3620 -1.0724
16284TIP3   OH270342   6.631   5.614  10.756 -0.3757 -0.2155  0.7401
16284TIP3    H170343   6.550   5.581  10.719  0.6138 -0.6302 -1.1946
16284TIP3    H270344   6.604   5.673  10.827 -2.3757  0.5723 -0.6122
16285TIP3   OH270345   3.267   2.350  12.809 -0.2935 -1.1625 -0.9116
16285TIP3    H170346   3.190   2.386  12.852 -0.5589 -0.7344 -1.7248
16285TIP3    H270347   3.233   2.308  12.730  0.5735  2.1421 -3.2797
16286TIP3   OH270348   3.851   3.160   1.668  0.0261 -0.6965 -0.0580
16286TIP3    H170349   3.914   3.136   1.599  1.5855  0.5845  0.8482
16286TIP3    H270350   3.766   3.138   1.631  0.5569  1.8691 -3.3141
16287TIP3   OH270351   3.415   4.094   1.130 -0.7252  0.3596  0.1280
16287TIP3    H170352   3.397   4.024   1.068 -0.2060  0.1795  0.1749
16287TIP3    H270353   3.487   4.060   1.184  0.5430  1.4827 -0.7905
16288TIP3   OH270354   0.885   2.433  16.627 -0.2386 -0.8594  0.0341
16288TIP3    H170355   0.793   2.431  16.602  0.0985 -1.0011 -1.2956
16288TIP3    H270356   0.913   2.342  16.624  0.5479 -0.6335 -2.1730
16289TIP3   OH270357   2.324   2.977   2.492 -0.0294 -0.4754  0.4476
16289TIP3    H170358   2.266   2.958   2.565 -1.2991  0.1271 -0.3676
16289TIP3    H270359   2.385   2.903   2.491  1.0805  0.2959  3.0871
16290TIP3   OH270360   1.527   0.214   2.877 -0.2999  0.4142 -0.2062
16290TIP3    H170361   1.525   0.254   2.964 -0.0411 -1.0134  0.4854
16290TIP3    H270362   1.436   0.222   2.846 -1.1649 -1.7422  1.5059
16291TIP3   OH270363   6.797   4.097   5.120  0.4240 -0.0630 -0.0366
16291TIP3    H170364   6.770   4.184   5.149 -0.1532 -0.3472  0.2921
16291TIP3    H270365   6.720   4.041   5.134 -0.1621 -0.0833 -2.8155
16292TIP3   OH270366   5.364   1.191  12.469  0.1176 -0.2136 -0.1101
16292TIP3    H170367   5.458   1.195  12.487 -0.6056  1.6232  4.9790
16292TIP3    H270368   5.343   1.097  12.471  1.6667 -0.5854 -0.1550
16293TIP3   OH270369   3.287   5.805  16.761  0.5679 -0.4616 -0.1739
16293TIP3    H170370   3.281   5.898  16.737 -2.5812  0.0882  2.1512
16293TIP3    H270371   3.343   5.804  16.838  0.0729 -0.3902  0.1887
16294TIP3   OH270372   5.418   3.403  10.845  0.0056  0.0452  0.5279
16294TIP3    H170373   5.443   3.365  10.761  1.3997 -1.9885  1.7540
16294TIP3    H270374   5.324   3.390  10.850 -0.0549 -0.0454 -0.5923
16295TIP3   OH270375   2.588   0.305   0.517  0.4224  0.1488  0.6589
16295TIP3    H170376   2.670   0.352   0.535  0.4698  0.1660  0.4000
16295TIP3    H270377   2.539   0.312   0.599  0.1152  1.2788  0.4023
16296TIP3   OH270378   0.698   6.028   2.003 -0.4098  0.3145 -0.0028
16296TIP3    H170379   0.762   5.957   1.996 -0.2527  0.6138 -2.7378
16296TIP3    H270380   0.617   5.992   1.967 -0.8310  0.9834  0.2474
16297TIP3   OH270381   0.629   1.619  13.627  0.0189  0.3975 -0.7418
16297TIP3    H170382   0.715   1.580  13.641  0.3522  1.8139  1.9981
16297TIP3    H270383   0.628   1.644  13.535  2.3845 -0.0067 -0.9375
16298TIP3   OH270384   0.191   3.097  12.110 -0.5661  0.0293  0.7744
16298TIP3    H170385   0.124   3.163  12.126 -1.3541 -0.3754 -0.7312
16298TIP3    H270386   0.223   3.074  12.198 -2.2358  0.3770  1.5169
16299TIP3   OH270387   1.253   3.110   3.352  0.2352  0.1821  0.0191
16299TIP3    H170388   1.244   3.016   3.337 -1.7074  0.3962 -0.4590
16299TIP3    H270389   1.275   3.146   3.266  0.1011  0.2510  0.0129
16300TIP3   OH270390   2.381   5.313  11.303 -0.0763 -0.7130 -0.1243
16300TIP3    H170391   2.418   5.292  11.388 -0.3091 -1.8217 -0.2784
16300TIP3    H270392   2.439   5.380  11.267  1.4859 -2.0165 -0.1467
16301TIP3   OH270393   3.094   0.931  13.507 -0.3681 -0.2075  0.0059
16301TIP3    H170394   3.149   0.935  13.585 -0.2926  0.7164 -0.0810
16301TIP3    H270395   3.031   0.862  13.526 -0.1849 -0.1766  0.7731
16302TIP3   OH270396   4.183   1.123  15.667  0.1349 -0.3868 -0.5939
16302TIP3    H170397   4.109   1.090  15.617  1.2769 -2.0866 -1.2422
16302TIP3    H270398   4.182   1.072  15.748 -0.4066  0.8268  0.2033
16303TIP3   OH270399   6.224   5.654  13.000  0.2075 -0.3994  0.0241
16303TIP3    H170400   6.141   5.621  12.965  0.4948  0.1706 -1.2479
16303TIP3    H270401   6.199   5.711  13.073 -0.4252 -1.3516  0.5746
16304TIP3   OH270402   6.627   2.114   0.902 -0.5610  0.9900 -0.7614
16304TIP3    H170403   6.670   2.132   0.818  1.3280  0.4434  0.0322
16304TIP3    H270404   6.567   2.042   0.882  0.1910  0.5562 -1.5733
16305TIP3   OH270405   0.448   5.184  11.526 -0.1577 -0.2666 -0.1915
16305TIP3    H170406   0.459   5.164  11.619 -1.3071  0.8044  0.2054
16305TIP3    H270407   0.355   5.164  11.509  0.0710 -0.5674 -1.1485
16306TIP3   OH270408   2.289   4.087  15.069  0.8856  0.5743 -0.0633
16306TIP3    H170409   2.340   4.026  15.015  0.3611  1.8750 -2.1666
16306TIP3    H270410   2.198   4.063  15.051  0.6668  1.9877 -1.0360
16307TIP3   OH270411   3.583   2.694   5.315 -0.1094  0.2744  0.2203
16307TIP3    H170412   3.650   2.762   5.310 -0.6437  0.8842  0.9782
16307TIP3    H270413   3.603   2.647   5.397  0.4889 -0.7512 -0.4898
16308TIP3   OH270414   1.502   5.354   4.566  0.5257 -0.6000  0.2775
16308TIP3    H170415   1.544   5.430   4.525  0.6792  0.5604  2.4532
16308TIP3    H270416   1.575   5.305   4.606  0.1400 -0.2837  1.3842
16309TIP3   OH270417   3.762   0.511   3.507 -0.2435 -0.2971  0.4404
16309TIP3    H170418   3.803   0.476   3.586 -0.7833  0.9252  1.2858
16309TIP3    H270419   3.778   0.444   3.440 -0.4783 -1.7256  1.7653
16310TIP3   OH270420   0.694   2.803  14.018 -0.6080 -0.4879  0.1714
16310TIP3    H170421   0.712   2.843  13.933  1.6115 -2.6591 -0.5065
16310TIP3    H270422   0.738   2.859  14.081 -0.0898 -0.2168 -0.4137
16311TIP3   OH270423   2.931   2.344  14.796 -0.0647 -0.6416  0.2501
16311TIP3    H170424   3.023   2.343  14.771  0.8022 -1.4183  3.0576
16311TIP3    H270425   2.931   2.376  14.886 -2.7521  0.9736 -0.2152
16312TIP3   OH270426   4.143   3.853   4.225 -0.2108 -0.0950  0.1488
16312TIP3    H170427   4.182   3.857   4.312 -1.6938 -0.6084  0.8753
16312TIP3    H270428   4.076   3.785   4.232 -0.6215  0.1305 -1.2881
16313TIP3   OH270429   4.196   6.122  11.868  0.8110 -0.2725 -0.2391
16313TIP3    H170430   4.275   6.083  11.830  1.4027 -0.9866  1.6279
16313TIP3    H270431   4.223   6.149  11.956 -0.7476  0.5003  0.0270
16314TIP3   OH270432   4.547   0.369  13.118  0.1467 -0.7435  0.3267
16314TIP3    H170433   4.492   0.375  13.040  0.6410 -0.3415  0.0011
16314TIP3    H270434   4.632   0.403  13.090 -0.0738  0.8159  1.4068
16315TIP3   OH270435   6.650   0.543   5.938  0.0300 -0.7283 -0.7452
16315TIP3    H170436   6.575   0.559   5.880  0.1909  1.4951 -0.4262
16315TIP3    H270437   6.613   0.498   6.014 -0.7789 -0.6371 -1.0777
16316TIP3   OH270438   4.306   4.496  12.702 -0.2188 -0.0372  0.1731
16316TIP3    H170439   4.314   4.491  12.797 -1.0444 -0.6567  0.2231
16316TIP3    H270440   4.225   4.450  12.682 -0.3058  0.4975 -0.7965
16317TIP3   OH270441   2.783   5.251  11.447  0.1753 -0.1127  0.2103
16317TIP3    H170442   2.857   5.229  11.503  0.0737  0.5405  0.6077
16317TIP3    H270443   2.817   5.244  11.357  1.1265  1.5585  0.4038
16318TIP3   OH270444   1.458   6.718   4.616 -0.1955 -0.0976 -0.5294
16318TIP3    H170445   1.524   6.712   4.546  0.3045  2.1244 -0.3079
16318TIP3    H270446   1.374   6.716   4.570  0.0865 -0.2936 -1.0456
16319TIP3   OH270447   3.389   1.036   5.319  0.2054  0.6726 -0.2364
16319TIP3    H170448   3.312   1.082   5.354 -0.0666 -1.1556  1.7329
16319TIP3    H270449   3.415   0.976   5.389  0.0191 -2.8109 -2.9194
16320TIP3   OH270450   1.476   2.709  16.292  0.2995  0.0236 -0.0555
16320TIP3    H170451   1.388   2.736  16.269 -0.7370 -1.6537  1.6209
16320TIP3    H270452   1.501   2.768  16.363 -0.1858 -0.5750  0.6249
16321TIP3   OH270453   5.599   5.969   3.022  0.0269  0.0399 -0.5171
16321TIP3    H170454   5.686   5.929   3.029 -0.0259  0.1200  0.7713
16321TIP3    H270455   5.539   5.895   3.016  0.0834 -0.0398 -0.1047
16322TIP3   OH270456   2.103   1.051   2.751 -0.9004 -0.1184  0.4485
16322TIP3    H170457   2.139   0.973   2.794  0.8881 -0.1260 -0.9254
16322TIP3    H270458   2.179   1.107   2.735 -2.0862  1.7082  0.9426
16323TIP3   OH270459   5.729   5.778   2.813  0.0595  0.0252  0.3007
16323TIP3    H170460   5.669   5.707   2.788  0.1064 -0.0152  0.3040
16323TIP3    H270461   5.739   5.767   2.908  0.8209 -0.5437  0.1623
16324TIP3   OH270462   4.330   4.506  14.366  0.0990  0.4518 -0.4667
16324TIP3    H170463   4.252   4.451  14.373 -0.1820  0.8549 -0.4218
16324TIP3    H270464   4.397   4.447  14.333 -0.4147  0.2738 -1.2252
16325TIP3   OH270465   0.241   5.082   5.958 -0.5151  0.8870  0.0528
16325TIP3    H170466   0.303   5.031   6.011 -0.4913  2.3037  1.4849
16325TIP3    H270467   0.155   5.052   5.986 -0.5257 -0.3443 -1.1875
16326TIP3   OH270468   1.691   2.954  12.027 -0.1826  0.6384 -0.2568
16326TIP3    H170469   1.638   3.023  11.986 -0.5329  0.8787  0.5716
16326TIP3    H270470   1.628   2.904  12.078 -0.2999 -1.5524 -2.3649
16327TIP3   OH270471   6.437   1.060  15.581  0.8482  0.3124  0.2760
16327TIP3    H170472   6.432   1.152  15.606  0.8957  1.2961 -2.8231
16327TIP3    H270473   6.511   1.025  15.630  1.3095  2.1481  0.9627
16328TIP3   OH270474   4.097   5.886   0.774 -0.1826 -0.0643 -0.5505
16328TIP3    H170475   4.136   5.806   0.809 -1.3738 -0.1446  0.6641
16328TIP3    H270476   4.043   5.920   0.845 -1.7285  0.4476 -1.9064
16329TIP3   OH270477   2.602   4.314  12.917  0.0763 -0.4325 -0.3089
16329TIP3    H170478   2.530   4.358  12.872 -0.9409 -2.4314 -0.7650
16329TIP3    H270479   2.614   4.363  12.998 -1.2440  0.4385 -0.6124
16330TIP3   OH270480   3.851   6.050   5.352 -0.2889  0.2882 -0.3958
16330TIP3    H170481   3.838   5.956   5.363  0.0686  0.1950 -0.7259
16330TIP3    H270482   3.944   6.058   5.329  0.0910  0.8515  1.1947
16331TIP3   OH270483   6.070   2.938  15.398 -0.5993  0.2489  0.2799
16331TIP3    H170484   6.029   2.971  15.318 -0.0062 -1.5606 -0.8421
16331TIP3    H270485   6.164   2.948  15.383 -0.5072  1.3721  1.4577
16332TIP3   OH270486   0.721   4.079   5.097  0.7692  0.3141 -0.4539
16332TIP3    H170487   0.667   4.003   5.117 -0.8888  0.7476 -2.8839
16332TIP3    H270488   0.660   4.153   5.094  2.2268  1.6779  1.1516
16333TIP3   OH270489   1.817   5.542  15.509  0.3323 -0.0681  0.3097
16333TIP3    H170490   1.746   5.573  15.564 -0.7806  1.5973 -1.8836
16333TIP3    H270491   1.775   5.517  15.427  2.0929 -0.6643 -0.4737
16334TIP3   OH270492   5.867   2.684  14.087 -0.1891  0.0772 -0.2180
16334TIP3    H170493   5.847   2.596  14.119  1.1286 -0.0225  0.4301
16334TIP3    H270494   5.807   2.697  14.013 -1.1038 -0.9552  0.3071
16335TIP3   OH270495   4.969   4.609  11.299 -0.1359  0.7365 -0.0472
16335TIP3    H170496   4.947   4.624  11.207 -0.9434  0.6497  0.1212
16335TIP3    H270497   5.058   4.573  11.297  0.6466  2.6093 -0.6546
16336TIP3   OH270498   3.133   2.279  16.480  0.0433 -0.1706  0.0784
16336TIP3    H170499   3.202   2.222  16.514 -0.9029 -0.9082  0.8216
16336TIP3    H270500   3.054   2.225  16.485 -0.5481  0.5844 -0.9684
16337TIP3   OH270501   5.904   0.974   6.596  0.6583 -0.4210  0.2181
16337TIP3    H170502   5.919   0.993   6.504  0.3066  2.8161  0.6958
16337TIP3    H270503   5.818   1.011   6.615  0.8949 -0.6472  1.9322
16338TIP3   OH270504   4.036   0.042  13.739 -0.0544 -0.5487 -0.2366
16338TIP3    H170505   4.036  -0.005  13.822  0.3337  0.2057  0.1964
16338TIP3    H270506   3.984  -0.013  13.681 -2.6355  0.1330  1.2213
16339TIP3   OH270507   2.899   5.910  14.232 -0.0739  0.5683 -0.1004
16339TIP3    H170508   2.923   5.829  14.278 -0.1053  1.3110  1.2772
16339TIP3    H270509   2.966   5.920  14.165  1.3235  0.6459  1.2653
16340TIP3   OH270510   4.533   4.332  12.624  0.4379 -0.2956 -0.5283
16340TIP3    H170511   4.468   4.288  12.569 -0.3874 -1.7754  1.4682
16340TIP3    H270512   4.484   4.403  12.666  0.9293  0.5097 -1.2972
16341TIP3   OH270513   1.383   2.233   0.690  0.4172 -0.0113 -0.0230
16341TIP3    H170514   1.370   2.199   0.779  0.0421  1.2481  0.4323
16341TIP3    H270515   1.367   2.327   0.699  0.7256  0.1771 -1.3644
16342TIP3   OH270516   1.491   4.948  15.224  0.4799  0.0285  0.4107
16342TIP3    H170517   1.509   4.911  15.138 -1.5243  1.7371 -0.8495
16342TIP3    H270518   1.519   4.881  15.286 -2.1065 -3.2156 -1.6457
16343TIP3   OH270519   1.078   2.582   0.651 -0.5340  0.1144  0.2008
16343TIP3    H170520   1.024   2.524   0.705 -1.3285  0.8120  0.1793
16343TIP3    H270521   1.065   2.549   0.562 -2.1557  1.1747  0.0005
16344TIP3   OH270522   5.861   2.328   4.630  0.1528 -0.2794  0.3518
16344TIP3    H170523   5.841   2.348   4.721  0.0780  1.7940 -0.0852
16344TIP3    H270524   5.954   2.347   4.620  0.1977 -0.6462  0.0139
16345TIP3   OH270525   2.283   3.123  16.036 -0.2387  0.1343  0.6425
16345TIP3    H170526   2.373   3.100  16.060 -0.3630  0.5380  1.5248
16345TIP3    H270527   2.251   3.046  15.989  0.5062 -0.0842  0.4697
16346TIP3   OH270528   0.196   5.220  14.632  0.1076  0.2210  0.3334
16346TIP3    H170529   0.229   5.151  14.689  1.6075  2.1524  1.9171
16346TIP3    H270530   0.129   5.177  14.579  1.1482 -2.4864  1.0664
16347TIP3   OH270531   3.417   3.783  16.055 -0.4667 -0.0223 -0.4224
16347TIP3    H170532   3.447   3.780  15.964  0.5606  2.5428 -0.2580
16347TIP3    H270533   3.425   3.875  16.079  0.4917 -0.7946  2.6630
16348TIP3   OH270534   4.777   5.575   4.145 -0.0247 -0.0765  0.1246
16348TIP3    H170535   4.691   5.606   4.115  0.1783 -0.3159 -0.7292
16348TIP3    H270536   4.808   5.643   4.204 -1.8007 -1.0102  2.2832
16349TIP3   OH270537   3.266   1.974  14.839  0.3187  0.2936  0.2208
16349TIP3    H170538   3.245   1.915  14.912  0.0966  1.3926  1.0761
16349TIP3    H270539   3.283   2.059  14.881 -0.0134  0.9995 -1.0250
16350TIP3   OH270540   2.332   3.191   0.766 -0.0316  0.0087  0.0714
16350TIP3    H170541   2.366   3.277   0.744  1.5533 -0.3940  0.7744
16350TIP3    H270542   2.340   3.186   0.862 -1.1304 -0.5165  0.1555
16351TIP3   OH270543   2.566   2.080  16.786 -0.5589 -0.3778 -0.7238
16351TIP3    H170544   2.653   2.075  16.747  0.8469  0.5706  2.0316
16351TIP3    H270545   2.539   2.171  16.773  0.1121  0.0678  0.7208
16352TIP3   OH270546   4.422   3.627  16.024 -0.2305  0.0757 -0.7089
16352TIP3    H170547   4.486   3.611  15.954  0.3430  1.2332 -0.4637
16352TIP3    H270548   4.350   3.673  15.981 -0.0462  0.4521 -0.6192
16353TIP3   OH270549   2.265   2.698  14.658  0.3029  0.0558 -0.2310
16353TIP3    H170550   2.289   2.606  14.648  0.4854 -0.0793  1.1391
16353TIP3    H270551   2.299   2.722  14.745 -0.6228  1.1249 -0.1340
16354TIP3   OH270552   6.699   0.477  13.966  0.0922 -0.3710  0.3244
16354TIP3    H170553   6.734   0.451  13.881 -0.4868 -1.5343  0.4156
16354TIP3    H270554   6.610   0.508  13.946  0.8009  1.7197  0.2069
16355TIP3   OH270555   1.790   6.020  14.377 -0.0261  0.0724 -0.1039
16355TIP3    H170556   1.774   6.112  14.400 -1.1925  0.2732 -1.6113
16355TIP3    H270557   1.833   5.984  14.455  0.8634  1.9852  0.3644
16356TIP3   OH270558   2.207   6.093   1.752  0.5301  0.1328  0.1282
16356TIP3    H170559   2.184   6.157   1.685 -0.4453  0.1428  0.4502
16356TIP3    H270560   2.302   6.089   1.751  0.6306  1.9126  0.4115
16357TIP3   OH270561   3.556   6.350  12.391 -0.3406  0.0785  0.2478
16357TIP3    H170562   3.511   6.268  12.414  0.3106 -0.0492  1.1253
16357TIP3    H270563   3.532   6.411  12.460 -1.8842  1.0777 -1.0842
16358TIP3   OH270564   5.814   2.126   0.299  0.1932 -0.1816 -0.1477
16358TIP3    H170565   5.820   2.216   0.268  2.4753 -0.0547  0.4568
16358TIP3    H270566   5.810   2.134   0.395 -1.7378 -0.7030 -0.1456
16359TIP3   OH270567   3.113   3.535   5.361  0.3429  0.0609 -0.2737
16359TIP3    H170568   3.190   3.520   5.416 -1.0762 -1.2571  1.4782
16359TIP3    H270569   3.061   3.599   5.409 -0.5001 -0.4136 -0.5273
16360TIP3   OH270570   2.410   0.955  16.375 -0.0019  0.2485 -0.1044
16360TIP3    H170571   2.356   1.016  16.325  0.5203  0.9947  0.2291
16360TIP3    H270572   2.367   0.950  16.460 -1.2702 -1.5282 -0.7765
16361TIP3   OH270573   6.776   2.967   1.414  0.0705 -0.0472 -0.0048
16361TIP3    H170574   6.798   3.016   1.494 -1.8036  0.5383  0.1999
16361TIP3    H270575   6.745   2.882   1.445 -1.0484  0.3256 -0.0457
16362TIP3   OH270576   0.845   4.171  15.714  0.1386 -0.1430  0.5262
16362TIP3    H170577   0.786   4.115  15.763 -0.9377  0.7692  0.2984
16362TIP3    H270578   0.864   4.122  15.634 -1.7757  0.3048 -0.2399
16363TIP3   OH270579   6.566   0.841  12.930  0.6624 -0.4308 -0.9031
16363TIP3    H170580   6.554   0.749  12.907 -0.5732 -0.3625 -0.6303
16363TIP3    H270581   6.629   0.840  13.002 -0.2879 -1.1818 -0.0512
16364TIP3   OH270582   0.139   1.360   4.694 -0.4704  0.0029 -0.3341
16364TIP3    H170583   0.127   1.274   4.733  2.0740  1.0699  3.2557
16364TIP3    H270584   0.234   1.371   4.688 -0.6157  3.3088  1.3581
16365TIP3   OH270585   2.763   0.780   0.717 -0.1704 -0.0859  0.4482
16365TIP3    H170586   2.784   0.692   0.750  0.6815 -0.4543 -0.9804
16365TIP3    H270587   2.790   0.778   0.625 -4.7189  0.0142 -1.1464
16366TIP3   OH270588   6.558   2.638  15.803  0.0707  0.2163 -0.3473
16366TIP3    H170589   6.500   2.631  15.878 -1.0541  1.7449 -1.0287
16366TIP3    H270590   6.507   2.685  15.737  1.6809  0.5906 -1.3888
16367TIP3   OH270591   5.948   2.258  17.155  0.1093 -0.0323  0.6692
16367TIP3    H170592   5.992   2.328  17.106  0.2032  0.1119  0.9546
16367TIP3    H270593   5.987   2.263  17.242  0.9892 -1.2289  0.3600
16368TIP3   OH270594   2.906   2.747   3.342 -0.1572 -0.3110  0.7422
16368TIP3    H170595   2.844   2.686   3.301  0.2946 -0.7703  0.7366
16368TIP3    H270596   2.966   2.691   3.391  0.5373  0.0932  0.3780
16369TIP3   OH270597   1.617   6.000  13.658 -0.3603  0.7622  0.8786
16369TIP3    H170598   1.684   6.058  13.695 -0.1474  3.0500 -2.6524
16369TIP3    H270599   1.648   5.982  13.569 -2.2327 -1.9649  0.6850
16370TIP3   OH270600   5.828   0.727   6.291  0.0499  0.1320 -0.3030
16370TIP3    H170601   5.887   0.728   6.216  0.2786 -0.4245 -0.1354
16370TIP3    H270602   5.741   0.743   6.253 -0.0053 -1.3272 -0.8585
16371TIP3   OH270603   6.187   2.801   2.275 -0.2633  0.2472  0.3288
16371TIP3    H170604   6.233   2.750   2.342 -0.8574  0.5547  0.9883
16371TIP3    H270605   6.108   2.750   2.256 -0.4642  0.5262  0.4071
16372TIP3   OH270606   0.142   0.275   6.098 -0.0624 -0.2265  0.7273
16372TIP3    H170607   0.103   0.193   6.069  1.0866 -0.6147  0.2125
16372TIP3    H270608   0.081   0.310   6.162 -1.5555 -0.4892 -0.4997
16373TIP3   OH270609   2.721   3.238   2.348 -0.2562 -0.7126  0.1067
16373TIP3    H170610   2.673   3.251   2.266 -2.6926 -4.3594  0.6801
16373TIP3    H270611   2.667   3.282   2.414  0.5479  0.3733  0.0638
16374TIP3   OH270612   0.465   1.071   1.531 -0.3174 -0.1860 -0.0148
16374TIP3    H170613   0.474   1.094   1.439 -1.2363 -1.6182 -0.4852
16374TIP3    H270614   0.394   1.007   1.534  1.7789 -2.6611  1.2304
16375TIP3   OH270615   5.943   6.497   0.584 -0.0691  0.3990 -0.5108
16375TIP3    H170616   5.985   6.411   0.593  0.9577  0.9105 -0.2411
16375TIP3    H270617   5.866   6.491   0.640  1.0320  0.2753  1.0860
16376TIP3   OH270618   1.916   1.086  11.396 -0.0290 -0.1593 -0.0147
16376TIP3    H170619   1.827   1.059  11.419 -0.3678 -0.2818 -1.4035
16376TIP3    H270620   1.948   1.016  11.338  1.1312 -0.3174  0.7643
16377TIP3   OH270621   3.431   6.543  13.798 -0.3979 -0.1708 -0.3035
16377TIP3    H170622   3.417   6.604  13.726  0.3284 -0.5545 -0.7871
16377TIP3    H270623   3.408   6.458  13.762  1.3881 -0.5715 -0.5823
16378TIP3   OH270624   0.145   4.935  14.459  0.3054  0.2106 -0.3083
16378TIP3    H170625   0.184   4.911  14.375 -1.2035  0.4865 -1.1279
16378TIP3    H270626   0.170   4.864  14.518  1.7630  0.2380 -0.8530
16379TIP3   OH270627   2.508   0.565   1.832 -0.1499 -0.4273  0.0747
16379TIP3    H170628   2.531   0.475   1.855  1.1946 -0.4725 -1.2621
16379TIP3    H270629   2.413   0.570   1.846 -0.3941 -2.2943 -0.5790
16380TIP3   OH270630   6.688   1.179   3.152 -0.4180  0.7900  0.3079
16380TIP3    H170631   6.615   1.119   3.138 -1.1333  1.8523 -0.6755
16380TIP3    H270632   6.730   1.186   3.066  0.1980  1.0066  0.6203
16381TIP3   OH270633   0.788   3.654  11.381 -0.0503 -0.2984  0.1587
16381TIP3    H170634   0.769   3.711  11.307  0.9883 -0.6259 -0.3868
16381TIP3    H270635   0.763   3.705  11.458  0.0864  0.5724 -0.3580
16382TIP3   OH270636   3.430   1.375  14.537  0.1249 -0.1824 -0.1054
16382TIP3    H170637   3.496   1.306  14.537 -0.5332 -0.8316 -1.3126
16382TIP3    H270638   3.372   1.353  14.464 -0.6040  1.1623  0.0449
16383TIP3   OH270639   2.357   5.725   1.853 -0.3258  0.4561  0.7398
16383TIP3    H170640   2.420   5.788   1.889 -0.3247  1.5633 -1.0486
16383TIP3    H270641   2.273   5.771   1.854 -0.5738  0.0182  0.5590
16384TIP3   OH270642   3.916   4.533   6.542 -0.3081 -0.0143  0.1163
16384TIP3    H170643   3.883   4.448   6.513 -0.4643 -0.1589  0.6997
16384TIP3    H270644   4.008   4.533   6.516 -0.5254  0.0100 -0.6895
16385TIP3   OH270645   3.799   2.856   5.254  0.0721  0.0621 -0.0090
16385TIP3    H170646   3.845   2.926   5.300 -1.1164  0.6215  0.3832
16385TIP3    H270647   3.868   2.807   5.209  1.2149 -0.0897  1.7905
16386TIP3   OH270648   6.511   3.515  14.167  0.0287 -0.1476  0.3299
16386TIP3    H170649   6.581   3.562  14.122  0.0463  0.5506  1.0533
16386TIP3    H270650   6.432   3.535  14.117 -0.0933  1.3157  1.0551
16387TIP3   OH270651   0.821   1.762   4.358 -0.1244  0.4422  0.4020
16387TIP3    H170652   0.734   1.795   4.334  0.9985  2.2864 -1.4518
16387TIP3    H270653   0.881   1.832   4.333  2.0134 -1.1055  0.8824
16388TIP3   OH270654   4.603   1.212  16.750  0.2332 -0.2687 -0.5778
16388TIP3    H170655   4.663   1.248  16.815 -0.0001 -1.1375  0.1459
16388TIP3    H270656   4.612   1.270  16.674  0.0528  1.1360  0.4344
16389TIP3   OH270657   5.244   3.661  11.170  0.3906  0.2086  0.0159
16389TIP3    H170658   5.165   3.607  11.163  1.3766 -1.7577  2.4871
16389TIP3    H270659   5.316   3.600  11.156  1.5249  1.6410 -0.5710
16390TIP3   OH270660   0.875   6.533  13.446  0.2962  0.0827  0.1650
16390TIP3    H170661   0.847   6.492  13.364 -0.6762  0.0985  0.4714
16390TIP3    H270662   0.809   6.506  13.510 -1.1110  3.0424  0.1417
16391TIP3   OH270663   5.966   2.329  16.276  0.2866 -0.0903  0.0732
16391TIP3    H170664   5.878   2.297  16.255  0.0408 -0.9614  2.2446
16391TIP3    H270665   5.950   2.410  16.326  0.7198 -0.2571  0.4833
16392TIP3   OH270666   6.056   3.947   0.863 -0.0989  0.0047  0.1358
16392TIP3    H170667   6.094   4.032   0.843 -0.5473 -0.2877 -2.3428
16392TIP3    H270668   6.090   3.889   0.794 -1.0191 -1.4481  0.8418
16393TIP3   OH270669   6.106   2.599  14.975  0.0644  0.5977  0.2765
16393TIP3    H170670   6.117   2.603  15.070 -0.6972 -0.6984  0.4560
16393TIP3    H270671   6.133   2.684  14.944  1.4831  0.6536  1.5456
16394TIP3   OH270672   4.473   0.278   2.330  0.2875 -0.7215 -0.0142
16394TIP3    H170673   4.566   0.291   2.347  0.7725 -2.7377 -0.8682
16394TIP3    H270674   4.436   0.366   2.333  1.8449 -0.0495  2.3520
16395TIP3   OH270675   0.230   3.708   3.809 -1.0232  0.3917 -0.2978
16395TIP3    H170676   0.184   3.785   3.842 -1.1925  1.4480 -2.7697
16395TIP3    H270677   0.161   3.651   3.775 -0.7784 -0.0842 -0.0091
16396TIP3   OH270678   5.078   4.390   1.234  0.2013 -0.2301  0.4686
16396TIP3    H170679   5.114   4.312   1.277  1.6147 -0.0092 -0.2732
16396TIP3    H270680   5.129   4.463   1.271  0.9062  0.0369 -0.9774
16397TIP3   OH270681   3.798   1.462   1.245 -0.1205 -0.2053  0.1977
16397TIP3    H170682   3.775   1.375   1.279  0.6067 -1.0040 -1.2618
16397TIP3    H270683   3.727   1.519   1.275 -1.0310 -1.4594  0.5173
16398TIP3   OH270684   4.788   0.673   2.711 -0.0671  0.3592 -0.0743
16398TIP3    H170685   4.845   0.694   2.637  1.0099  0.6195  0.7992
16398TIP3    H270686   4.742   0.755   2.729 -0.5171  0.2282 -0.5961
16399TIP3   OH270687   6.080   6.206  12.067  0.5612  0.0965 -1.0578
16399TIP3    H170688   6.008   6.184  12.125  0.2760  3.4070  0.0329
16399TIP3    H270689   6.159   6.176  12.113  0.1318 -0.0308 -0.3968
16400TIP3   OH270690   2.716   4.404  14.646  0.0395  0.1245 -0.0919
16400TIP3    H170691   2.772   4.352  14.704 -2.7873 -0.6519  2.1430
16400TIP3    H270692   2.707   4.350  14.568  0.4692 -0.8515  0.5027
16401TIP3   OH270693   5.684   3.111  13.740 -0.3166  0.4088  0.4346
16401TIP3    H170694   5.674   3.016  13.731 -0.0685  0.4670 -0.6968
16401TIP3    H270695   5.768   3.122  13.784 -1.0442  0.0929  1.9745
16402TIP3   OH270696   2.665   5.822  12.525  0.2640 -0.1343 -0.4913
16402TIP3    H170697   2.729   5.773  12.474  0.3824 -1.4526  0.8667
16402TIP3    H270698   2.582   5.776  12.511  0.1542 -0.0642 -0.0938
16403TIP3   OH270699   5.008   6.502  11.613  0.6656 -0.0966  0.2540
16403TIP3    H170700   5.011   6.436  11.544 -0.2119  0.2603 -0.1384
16403TIP3    H270701   4.962   6.460  11.685  0.4605 -0.0502  0.1508
16404TIP3   OH270702   1.308   1.619   4.042 -0.0180 -0.2155 -0.3329
16404TIP3    H170703   1.376   1.667   3.995 -0.1078  0.4780  0.2164
16404TIP3    H270704   1.356   1.554   4.093  0.0348 -1.3898 -1.8190
16405TIP3   OH270705   4.495   3.768  13.516 -0.5088  0.0727  0.4008
16405TIP3    H170706   4.549   3.792  13.591 -0.6889 -2.9070  1.6268
16405TIP3    H270707   4.406   3.787  13.543 -0.5359 -0.5783  0.7815
16406TIP3   OH270708   2.113   0.629   4.030  0.2169 -0.0571 -0.0877
16406TIP3    H170709   2.058   0.669   4.097  0.3315  1.0329 -0.6256
16406TIP3    H270710   2.173   0.699   4.004  1.4136 -1.0218  0.0076
16407TIP3   OH270711   1.697   6.265  13.231  0.3706  0.0959 -0.5038
16407TIP3    H170712   1.789   6.294  13.225  0.3701  0.0290 -0.8328
16407TIP3    H270713   1.658   6.325  13.294  0.7032 -0.0311 -0.1684
16408TIP3   OH270714   5.765   0.436  16.724  0.2349  0.4309  0.4901
16408TIP3    H170715   5.854   0.406  16.708  0.3761  1.2741 -0.4785
16408TIP3    H270716   5.774   0.512  16.782  0.3530  1.6319 -1.0108
16409TIP3   OH270717   4.888   0.555   3.340  0.5252 -0.1564 -0.0645
16409TIP3    H170718   4.840   0.497   3.399  1.6624  0.8184  1.8970
16409TIP3    H270719   4.845   0.640   3.349  1.5345  0.3185  0.4235
16410TIP3   OH270720   1.938   3.693   5.802  0.1663  0.4753  0.3054
16410TIP3    H170721   1.936   3.769   5.860  1.3110  0.7019  0.0720
16410TIP3    H270722   2.025   3.695   5.762  0.0864 -0.7496  0.0121
16411TIP3   OH270723   3.456   6.782   1.427 -0.2088  0.3349  0.1174
16411TIP3    H170724   3.435   6.874   1.440  1.2659  0.6379  0.5266
16411TIP3    H270725   3.397   6.735   1.486  0.1678  1.1265  1.1508
16412TIP3   OH270726   1.319   6.807   3.499 -0.0327 -0.0793  0.4402
16412TIP3    H170727   1.345   6.754   3.424 -0.6188 -0.2062  0.3222
16412TIP3    H270728   1.334   6.750   3.575  0.9420  0.1896  0.4654
16413TIP3   OH270729   3.243   0.963  11.955 -0.3403  0.0657 -0.1320
16413TIP3    H170730   3.270   0.884  12.003 -1.9095 -0.9122 -0.8093
16413TIP3    H270731   3.325   0.996  11.917  0.5653 -0.4334  1.2794
16414TIP3   OH270732   3.004   4.408   6.243 -0.2108  0.2941  0.2758
16414TIP3    H170733   3.098   4.399   6.257  0.2656  0.2500 -2.3602
16414TIP3    H270734   2.976   4.321   6.214 -1.4574 -0.1507  2.5481
16415TIP3   OH270735   4.783   5.229  11.755  0.4584  0.5153  0.0024
16415TIP3    H170736   4.698   5.202  11.718  1.3995 -0.9858 -1.1721
16415TIP3    H270737   4.762   5.308  11.806 -0.9935  2.9657 -3.8714
16416TIP3   OH270738   2.323   6.100  15.512 -0.1318 -0.1265 -0.0616
16416TIP3    H170739   2.304   6.087  15.419 -0.3714 -1.8859  0.2022
16416TIP3    H270740   2.354   6.015  15.542  1.6022  0.8569  1.1035
16417TIP3   OH270741   4.566   4.145  13.612 -0.6404  0.3888 -0.0887
16417TIP3    H170742   4.505   4.215  13.636  0.4807  1.4200 -0.1556
16417TIP3    H270743   4.518   4.064  13.632 -2.3001  1.1337 -0.8092
16418TIP3   OH270744   4.820   0.885  16.506 -0.5448 -0.8170 -0.2931
16418TIP3    H170745   4.751   0.882  16.573  0.4351  0.7457  0.8592
16418TIP3    H270746   4.881   0.952  16.538  1.5513 -2.1710 -1.2501
16419TIP3   OH270747   5.359   3.570   6.130 -0.2199  0.8481  0.2165
16419TIP3    H170748   5.403   3.489   6.155  1.2127  1.5702  0.0893
16419TIP3    H270749   5.429   3.631   6.110 -1.2841  1.9246 -0.3751
16420TIP3   OH270750   3.467   2.186   1.791  0.0686  0.5702  0.2803
16420TIP3    H170751   3.542   2.220   1.742  0.1888  0.2463  0.2366
16420TIP3    H270752   3.396   2.249   1.774  0.3644  0.9523  0.4317
16421TIP3   OH270753   3.886   3.727   5.007  0.4558 -0.1563 -0.2650
16421TIP3    H170754   3.971   3.727   5.050  1.2268  0.9472 -1.6590
16421TIP3    H270755   3.856   3.636   5.010  1.0863 -0.3308  1.3370
16422TIP3   OH270756   1.761   5.805   2.201 -0.2509  0.1239 -0.1797
16422TIP3    H170757   1.729   5.827   2.114 -0.2507 -0.5342 -0.3527
16422TIP3    H270758   1.758   5.887   2.250 -1.5097  0.2298 -0.4083
16423TIP3   OH270759   0.488   6.691   0.195 -0.5015 -0.5437 -0.2864
16423TIP3    H170760   0.547   6.707   0.122 -0.5326 -1.4683 -0.5289
16423TIP3    H270761   0.505   6.762   0.257  2.3112 -1.8316  0.5828
16424TIP3   OH270762   1.623   5.812   1.306 -0.3180 -0.2935  0.6026
16424TIP3    H170763   1.688   5.864   1.353  0.7932  0.6626 -1.8625
16424TIP3    H270764   1.669   5.779   1.229 -2.5200 -0.2515 -0.8164
16425TIP3   OH270765   6.545   5.524  12.176  0.2631  0.3349 -0.3741
16425TIP3    H170766   6.491   5.575  12.115 -2.0708 -1.3082  0.1586
16425TIP3    H270767   6.587   5.458  12.120  1.7501  1.5628 -0.7776
16426TIP3   OH270768   3.546   0.667   4.757 -0.0324 -0.3961 -0.3599
16426TIP3    H170769   3.561   0.585   4.805 -2.3861  0.0253  1.2549
16426TIP3    H270770   3.634   0.703   4.744  1.0702 -3.0641 -1.0016
16427TIP3   OH270771   0.370   0.775   3.154 -0.0481 -0.8068  0.1491
16427TIP3    H170772   0.377   0.681   3.144  2.2002 -0.7958  1.1003
16427TIP3    H270773   0.456   0.803   3.186 -0.4875  1.6314 -0.5690
16428TIP3   OH270774   4.881   5.057  15.922  0.1792 -0.2461  0.3032
16428TIP3    H170775   4.842   5.134  15.881  0.4540  0.7328  1.7759
16428TIP3    H270776   4.822   4.985  15.900 -0.5621  0.5458 -0.3683
16429TIP3   OH270777   0.111   4.845  16.843 -0.1959  0.5390 -0.1563
16429TIP3    H170778   0.126   4.859  16.937  1.1633 -0.7592 -0.1270
16429TIP3    H270779   0.037   4.785  16.839 -1.3615  1.9156 -0.0115
16430TIP3   OH270780   0.144   5.652  12.178  0.7933  0.5660  0.2597
16430TIP3    H170781   0.124   5.734  12.132 -3.7863 -0.2291  0.3565
16430TIP3    H270782   0.128   5.584  12.112 -2.8116 -0.4224  1.8772
16431TIP3   OH270783   2.772   3.276   1.453 -0.7939 -0.3342  0.3953
16431TIP3    H170784   2.743   3.193   1.489  0.3601 -1.8449 -1.9433
16431TIP3    H270785   2.692   3.327   1.442 -1.6577 -1.5563  0.8346
16432TIP3   OH270786   4.534   5.876  15.101  0.4474 -0.4693 -0.2170
16432TIP3    H170787   4.547   5.945  15.166 -0.3976 -1.1137  0.6661
16432TIP3    H270788   4.578   5.800  15.138 -1.1374 -1.1938  0.2415
16433TIP3   OH270789   6.352   2.345  13.234 -0.2566 -0.6989 -0.6386
16433TIP3    H170790   6.360   2.413  13.166  2.0217 -2.2425 -2.0416
16433TIP3    H270791   6.291   2.282  13.197 -1.5321 -0.0212  0.2111
16434TIP3   OH270792   4.731   6.086   3.101  0.2119  0.4101 -0.2909
16434TIP3    H170793   4.817   6.100   3.141 -0.1761  1.5647  0.1653
16434TIP3    H270794   4.670   6.084   3.175  0.0552 -2.7260 -0.3743
16435TIP3   OH270795   5.890   6.768  12.876  0.1909 -0.1128 -0.0492
16435TIP3    H170796   5.885   6.730  12.789  0.1501 -2.0722  0.7538
16435TIP3    H270797   5.849   6.702  12.933  0.5285  0.9581  1.4934
16436TIP3   OH270798   6.773   0.541   1.758 -0.3125  0.4379 -0.0092
16436TIP3    H170799   6.747   0.459   1.801 -2.4034  0.5854 -0.8629
16436TIP3    H270800   6.730   0.537   1.672 -0.3437  2.3778 -0.1149
16437TIP3   OH270801   1.929   1.856   2.581  0.7443 -0.5513  0.2634
16437TIP3    H170802   1.968   1.825   2.663  0.4189 -3.1408 -0.4737
16437TIP3    H270803   2.000   1.903   2.538  1.7306 -1.4264  0.8713
16438TIP3   OH270804   2.116   5.354  11.323  0.0088  0.2066 -0.3780
16438TIP3    H170805   2.137   5.408  11.399  0.5974  0.0513 -0.4265
16438TIP3    H270806   2.201   5.319  11.294 -0.0777  0.9823 -1.6548
16439TIP3   OH270807   3.647   6.064  14.950  0.2404  0.4059  0.2155
16439TIP3    H170808   3.695   6.136  14.992  0.5088 -0.4366  1.4032
16439TIP3    H270809   3.704   5.988  14.961 -0.3882 -0.1596 -0.3356
16440TIP3   OH270810   1.701   1.524  11.824  0.1319 -0.2636 -0.2696
16440TIP3    H170811   1.695   1.587  11.753 -0.4515 -0.6406 -0.5623
16440TIP3    H270812   1.771   1.464  11.798 -1.5639 -1.7702 -1.6671
16441TIP3   OH270813   0.679   1.842  16.277 -0.0038 -0.5260 -0.3137
16441TIP3    H170814   0.602   1.841  16.220  0.4244  1.7879 -1.0491
16441TIP3    H270815   0.751   1.813  16.222 -0.0840 -1.1815 -0.0777
16442TIP3   OH270816   1.317   5.309   1.698 -0.0910  0.1526 -0.1050
16442TIP3    H170817   1.345   5.398   1.717  0.5218 -0.0876  0.1433
16442TIP3    H270818   1.386   5.274   1.641 -1.0120  0.2804 -1.3373
16443TIP3   OH270819   4.249   0.402   1.322  0.4193  0.4448  0.0413
16443TIP3    H170820   4.324   0.448   1.358  1.2198 -1.2953  0.7005
16443TIP3    H270821   4.206   0.467   1.266  2.5040  1.4378 -0.5210
16444TIP3   OH270822   4.741   4.210  15.532 -0.0292  0.3515  0.7671
16444TIP3    H170823   4.762   4.198  15.439 -2.6296  0.1275  0.1076
16444TIP3    H270824   4.820   4.247  15.570  1.9723 -1.7432 -1.0073
16445TIP3   OH270825   2.658   3.676   1.982  0.5622 -0.6828  0.2651
16445TIP3    H170826   2.570   3.665   1.947 -0.2718  3.5271  0.4263
16445TIP3    H270827   2.658   3.630   2.065 -1.5695 -0.6783  0.3038
16446TIP3   OH270828   1.141   1.722  16.580  0.1247  0.0768 -0.3887
16446TIP3    H170829   1.143   1.724  16.485 -1.7189  1.2602 -0.4515
16446TIP3    H270830   1.153   1.630  16.603  1.8592 -0.0639 -1.6820
16447TIP3   OH270831   4.014   6.184  12.767 -0.1507  0.1225  0.2027
16447TIP3    H170832   3.996   6.117  12.701  0.0568  1.3737 -1.1757
16447TIP3    H270833   4.070   6.141  12.831 -0.4496 -1.1579 -0.3734
16448TIP3   OH270834   3.498   3.262  17.021  0.2167  0.5334 -0.3688
16448TIP3    H170835   3.503   3.183  16.967  0.1763  0.2150  0.0915
16448TIP3    H270836   3.405   3.273  17.039  0.0074  1.7173 -1.9317
16449TIP3   OH270837   1.728   1.733  14.509 -0.1039 -0.3854 -0.2730
16449TIP3    H170838   1.667   1.806  14.521 -1.0480 -1.2455  0.3250
16449TIP3    H270839   1.693   1.683  14.436  1.3272  0.5068 -1.6284
16450TIP3   OH270840   4.544   3.203   5.323  0.4731  0.4141 -0.4845
16450TIP3    H170841   4.580   3.289   5.304  0.6114  0.4626 -0.0314
16450TIP3    H270842   4.450   3.212   5.309  0.3557  0.9220  0.5345
16451TIP3   OH270843   2.066   3.746   0.127  0.2078 -0.3846 -0.2899
16451TIP3    H170844   2.116   3.805   0.072  2.1456 -0.8518  0.8451
16451TIP3    H270845   2.070   3.661   0.082 -1.0109 -0.0853 -1.0069
16452TIP3   OH270846   5.642   0.120  14.838  0.0849 -0.0673  0.3456
16452TIP3    H170847   5.734   0.123  14.866 -0.0731  0.0150  0.8565
16452TIP3    H270848   5.640   0.172  14.758  0.0948  1.7531  1.4630
16453TIP3   OH270849   1.738   0.231  10.756 -0.1360 -0.3470 -0.3122
16453TIP3    H170850   1.806   0.188  10.706  1.0626  0.3931  0.6325
16453TIP3    H270851   1.704   0.162  10.814 -1.5914 -1.2284 -2.0970
16454TIP3   OH270852   4.911   0.272   0.770 -0.7141  0.1123 -0.2925
16454TIP3    H170853   4.837   0.289   0.829 -0.0094  2.9100 -0.0834
16454TIP3    H270854   4.899   0.181   0.742 -2.6182 -0.4394  1.9683
16455TIP3   OH270855   3.163   2.559  11.852  0.2501  0.2929 -0.0387
16455TIP3    H170856   3.095   2.536  11.915 -0.8474  1.6450 -0.6885
16455TIP3    H270857   3.207   2.635  11.890 -0.7618  1.4532 -1.0712
16456TIP3   OH270858   5.922   1.418  13.663 -0.0211  0.9729  0.2894
16456TIP3    H170859   5.865   1.415  13.586  1.7529  2.6319 -1.1837
16456TIP3    H270860   5.861   1.413  13.737 -1.7289 -1.7073 -1.1120
16457TIP3   OH270861   2.547   5.386   5.038  0.1781 -0.4188  0.4047
16457TIP3    H170862   2.575   5.302   5.002  1.1769  0.1883 -0.2683
16457TIP3    H270863   2.607   5.450   5.001 -0.9474  0.6921  0.4280
16458TIP3   OH270864   2.143   3.474  11.188  0.3493 -0.0500 -0.3460
16458TIP3    H170865   2.238   3.486  11.195 -0.0654  4.1992  0.5632
16458TIP3    H270866   2.131   3.430  11.104  3.0829  0.4156 -1.0877
16459TIP3   OH270867   6.329   0.398  11.427 -0.8049 -0.8556 -1.2283
16459TIP3    H170868   6.379   0.378  11.506  0.3211 -0.7506 -1.8863
16459TIP3    H270869   6.240   0.416  11.458 -0.3132 -0.5135  0.0411
16460TIP3   OH270870   2.210   3.605   4.034 -0.0192  0.7199  0.1084
16460TIP3    H170871   2.264   3.540   3.990  0.9218  1.3207  0.3565
16460TIP3    H270872   2.153   3.554   4.092  1.2685  0.1547  0.9236
16461TIP3   OH270873   0.145   5.135  15.220 -0.4743  0.1232 -0.2585
16461TIP3    H170874   0.153   5.154  15.126 -2.1182 -1.7983 -0.8578
16461TIP3    H270875   0.231   5.102  15.245  0.3372  1.7615 -0.7806
16462TIP3   OH270876   0.846   0.231   1.204  0.1766 -0.5809 -0.5517
16462TIP3    H170877   0.842   0.162   1.269  1.5610 -0.9106 -0.7739
16462TIP3    H270878   0.870   0.309   1.253 -1.4426 -0.2100 -0.2921
16463TIP3   OH270879   1.839   4.524  16.117 -0.6118 -0.3950  0.0178
16463TIP3    H170880   1.747   4.549  16.109 -0.2315  0.9045 -0.6582
16463TIP3    H270881   1.883   4.571  16.046  0.8215  0.3673  1.3471
16464TIP3   OH270882   0.194   0.279  14.387 -0.0029  0.0935  0.0484
16464TIP3    H170883   0.252   0.210  14.418  0.6144  0.8240  0.5437
16464TIP3    H270884   0.183   0.337  14.462 -0.5677  0.4960 -0.3409
16465TIP3   OH270885   0.796   3.410  12.590 -0.3900  0.0076  0.6691
16465TIP3    H170886   0.889   3.389  12.598 -0.4527 -0.2219  0.8117
16465TIP3    H270887   0.794   3.504  12.574 -0.0540 -0.2166 -0.8971
16466TIP3   OH270888   2.677   6.399   1.156 -0.7383 -0.1401  0.0290
16466TIP3    H170889   2.642   6.334   1.217 -0.4733 -2.6232 -2.3144
16466TIP3    H270890   2.746   6.443   1.205 -0.1757 -2.3869  1.3969
16467TIP3   OH270891   1.923   0.012   0.903 -0.3615 -0.1726  0.2101
16467TIP3    H170892   1.871  -0.034   0.969  0.5177  0.7941  1.6489
16467TIP3    H270893   1.868   0.084   0.874 -0.2450  0.2446  0.9787
16468TIP3   OH270894   1.717   5.968   3.515  0.3071 -0.3775 -0.0320
16468TIP3    H170895   1.775   5.978   3.440  1.0538  0.0668  0.5833
16468TIP3    H270896   1.761   5.904   3.571  1.8777  2.2005  1.9251
16469TIP3   OH270897   3.009   1.900   1.033  0.2039  0.3833 -0.2613
16469TIP3    H170898   2.995   1.807   1.049 -1.9753  0.5787 -0.7241
16469TIP3    H270899   3.028   1.906   0.940  1.4054  0.3224 -0.0312
16470TIP3   OH270900   5.877   6.722   1.224  0.6094  0.0478  0.0342
16470TIP3    H170901   5.803   6.734   1.164  0.6631 -1.0356 -0.2908
16470TIP3    H270902   5.890   6.807   1.265 -0.5768  0.3513 -0.1838
16471TIP3   OH270903   2.859   4.233   5.391 -0.1772  0.5510 -0.2466
16471TIP3    H170904   2.927   4.270   5.446 -1.3244  1.1095  0.8555
16471TIP3    H270905   2.842   4.300   5.324  1.2704 -0.1599 -1.3695
16472TIP3   OH270906   0.420   1.678   5.393  0.1019 -0.0748  0.1376
16472TIP3    H170907   0.412   1.649   5.302  0.2701 -0.3921  0.2223
16472TIP3    H270908   0.481   1.616   5.433 -1.0558 -0.7856  0.8329
16473TIP3   OH270909   4.072   0.623   4.625 -0.1158 -0.0077  0.0111
16473TIP3    H170910   4.036   0.578   4.549  0.3689  1.5117 -1.1782
16473TIP3    H270911   3.998   0.667   4.665 -0.2562 -0.2632  0.0365
16474TIP3   OH270912   0.177   4.991   5.379  0.0183 -0.5970 -0.9387
16474TIP3    H170913   0.268   5.019   5.369 -0.6047  1.4538 -1.4309
16474TIP3    H270914   0.156   5.011   5.470 -1.1062  3.0011 -1.8546
16475TIP3   OH270915   5.641   3.672   1.584  0.6450  0.4994  0.0175
16475TIP3    H170916   5.680   3.727   1.516 -1.2491  1.0435 -0.6676
16475TIP3    H270917   5.664   3.582   1.558 -0.0761  0.6962 -1.3747
16476TIP3   OH270918   3.564   2.102  15.323 -0.3159 -0.1215  0.3828
16476TIP3    H170919   3.545   2.116  15.231  2.1881 -1.3939 -0.4117
16476TIP3    H270920   3.525   2.178  15.367 -0.8831  0.9211 -1.7894
16477TIP3   OH270921   2.254   1.675  16.500  0.5205  0.1752  0.2405
16477TIP3    H170922   2.260   1.682  16.595 -0.5438  0.0295  0.3226
16477TIP3    H270923   2.325   1.731  16.468  0.3161  0.9488  1.1074
16478TIP3   OH270924   2.478   0.596  16.495 -0.1692  0.2539  0.5410
16478TIP3    H170925   2.413   0.658  16.528 -0.3665  0.2529  0.1645
16478TIP3    H270926   2.430   0.542  16.433 -0.3016 -1.1063  1.7718
16479TIP3   OH270927   5.072   5.972   4.849 -0.4204  0.1729 -0.2097
16479TIP3    H170928   5.089   5.977   4.755  2.4143  1.5538  0.2523
16479TIP3    H270929   5.035   6.058   4.871  0.4845  0.4898  0.1381
16480TIP3   OH270930   4.515   0.483   5.768 -0.0591 -0.0239  0.0077
16480TIP3    H170931   4.507   0.519   5.856  0.5617  0.8770 -0.2912
16480TIP3    H270932   4.431   0.502   5.726 -0.5972 -1.0183  0.5840
16481TIP3   OH270933   6.353   6.178   2.403 -0.8294  0.5290  0.3409
16481TIP3    H170934   6.430   6.176   2.459  0.1016  0.9488 -0.8836
16481TIP3    H270935   6.292   6.116   2.443  0.6700 -0.8212  0.6021
16482TIP3   OH270936   2.484   0.948   5.795 -0.4739 -0.1918 -0.4425
16482TIP3    H170937   2.553   1.011   5.817  0.1670 -0.4800 -1.5339
16482TIP3    H270938   2.493   0.878   5.859 -1.3601  0.9127  0.9519
16483TIP3   OH270939   2.148   3.883  15.761  0.2396  0.5563 -0.2348
16483TIP3    H170940   2.080   3.821  15.788 -0.3098  1.4283  0.4356
16483TIP3    H270941   2.103   3.968  15.756  1.2646  1.1500  0.1984
16484TIP3   OH270942   5.634   0.810   5.394  0.4956  0.1264 -0.1300
16484TIP3    H170943   5.709   0.824   5.451 -1.2793  0.4234  2.3213
16484TIP3    H270944   5.564   0.781   5.453 -1.1966 -0.6116 -2.3486
16485TIP3   OH270945   3.693   5.229  14.084 -0.0328  0.3392  0.0956
16485TIP3    H170946   3.676   5.204  14.175 -0.5565  1.5369  0.3528
16485TIP3    H270947   3.724   5.320  14.090 -0.9946  0.7567 -0.9925
16486TIP3   OH270948   0.084   2.326   4.609 -0.0793 -0.4419 -0.2452
16486TIP3    H170949   0.103   2.244   4.654 -1.8256  0.6102  2.7303
16486TIP3    H270950   0.168   2.371   4.605  0.4117 -1.2518  0.6075
16487TIP3   OH270951   1.269   0.263  10.922 -0.1170  0.9469 -0.7506
16487TIP3    H170952   1.245   0.238  10.832 -0.9199  0.4878 -0.4248
16487TIP3    H270953   1.204   0.218  10.976 -0.3755  2.1748 -0.0143
16488TIP3   OH270954   3.967   1.619  12.372 -0.1116 -0.5801  0.2932
16488TIP3    H170955   3.971   1.540  12.426 -0.8686 -1.1040 -0.4027
16488TIP3    H270956   3.881   1.657  12.392 -1.1046 -1.6379 -1.6826
16489TIP3   OH270957   6.341   5.021  13.595 -0.1534  0.1114 -0.6055
16489TIP3    H170958   6.412   4.981  13.645 -1.1170  1.1460  1.7192
16489TIP3    H270959   6.273   4.954  13.593 -0.8343  0.6980  1.1862
16490TIP3   OH270960   0.558   4.893   4.637 -0.2429 -0.1965 -0.1392
16490TIP3    H170961   0.574   4.841   4.715 -0.1733 -2.8597 -1.7986
16490TIP3    H270962   0.467   4.923   4.646  0.5867  1.9032  2.1505
16491TIP3   OH270963   6.292   2.691   0.348  0.7033 -0.3750  0.4568
16491TIP3    H170964   6.292   2.622   0.415 -0.6060  0.3901  1.2913
16491TIP3    H270965   6.230   2.659   0.282  2.1456 -1.2234 -0.5407
16492TIP3   OH270966   5.367   1.042   1.173 -0.2266  0.8553 -0.0017
16492TIP3    H170967   5.356   1.085   1.258  1.0126  1.2192 -0.0017
16492TIP3    H270968   5.290   1.068   1.122 -0.7604  0.9904  0.8566
16493TIP3   OH270969   4.826   0.167  13.459  0.8971 -0.0333  0.3528
16493TIP3    H170970   4.880   0.098  13.498  1.5258 -1.6144 -2.9844
16493TIP3    H270971   4.889   0.225  13.417  0.1528 -0.3616 -1.2705
16494TIP3   OH270972   3.881   0.986  11.787 -0.2474 -0.0395 -0.3553
16494TIP3    H170973   3.934   0.995  11.708  1.1085  2.5233  0.7288
16494TIP3    H270974   3.918   0.910  11.833  2.9305  1.8628  0.5459
16495TIP3   OH270975   0.379   1.076   1.272  0.1123  0.4055  0.7755
16495TIP3    H170976   0.349   1.166   1.260 -2.0163 -0.0526  2.0710
16495TIP3    H270977   0.328   1.026   1.208 -0.1446 -0.1071  1.3719
16496TIP3   OH270978   4.147   1.236  16.975 -0.0431 -0.2487  0.4021
16496TIP3    H170979   4.237   1.241  17.006 -0.6223  2.2684  1.9818
16496TIP3    H270980   4.154   1.198  16.888  2.3602 -1.4519  1.0147
16497TIP3   OH270981   1.619   5.509   1.435  0.1233 -0.4362 -0.8687
16497TIP3    H170982   1.540   5.480   1.389 -0.0229 -1.6752  0.1055
16497TIP3    H270983   1.650   5.431   1.481  0.0581  0.7980  1.4141
16498TIP3   OH270984   3.613   0.389   0.988  0.3050  0.2253 -0.0264
16498TIP3    H170985   3.591   0.398   1.080 -0.3601 -1.1781 -0.0259
16498TIP3    H270986   3.689   0.331   0.986  0.5569  0.5558 -0.3459
16499TIP3   OH270987   6.577   2.644  14.369 -0.9219 -0.2014  0.2655
16499TIP3    H170988   6.661   2.656  14.325 -0.9196  0.4846  0.4367
16499TIP3    H270989   6.587   2.564  14.420 -0.6416 -0.5477 -0.3243
16500TIP3   OH270990   4.388   0.476  15.151 -0.0905 -0.5273 -0.1851
16500TIP3    H170991   4.417   0.518  15.070 -1.2775 -0.3647 -0.5499
16500TIP3    H270992   4.305   0.519  15.171  0.5740  0.0221  1.5937
16501TIP3   OH270993   3.722   2.313   1.782 -0.1838 -0.3087 -0.0816
16501TIP3    H170994   3.783   2.341   1.714  0.5805  0.0971  0.7393
16501TIP3    H270995   3.683   2.394   1.815 -0.1078 -0.4460  0.3544
16502TIP3   OH270996   4.141   2.155  13.813 -0.1748  0.2055  0.5616
16502TIP3    H170997   4.155   2.239  13.857  1.0942  0.2633  0.0985
16502TIP3    H270998   4.214   2.100  13.844 -0.8116 -0.6296  0.6151
16503TIP3   OH270999   5.413   5.246  15.065  0.2311  0.3958 -0.3269
16503TIP3    H171000   5.487   5.297  15.032 -0.5000  1.0865 -0.9069
16503TIP3    H271001   5.436   5.227  15.156  0.6023  1.5977 -0.1527
16504TIP3   OH271002   6.370   4.509  13.346  0.4719 -0.2441 -0.3434
16504TIP3    H171003   6.371   4.562  13.266  0.8708 -0.0492 -0.2145
16504TIP3    H271004   6.393   4.421  13.317 -0.4235 -0.4018 -0.5934
16505TIP3   OH271005   3.093   0.054   5.844 -0.3738  0.0599 -0.2317
16505TIP3    H171006   3.096   0.087   5.933  0.3335  0.2283 -0.3066
16505TIP3    H271007   3.116  -0.038   5.851  0.2430  0.2004 -0.2863
16506TIP3   OH271008   5.646   4.356  10.298 -0.2149  1.1056  0.4484
16506TIP3    H171009   5.706   4.295  10.341  0.9624 -0.1528 -2.6802
16506TIP3    H271010   5.695   4.438  10.293 -0.5767  1.4320  1.8888
16507TIP3   OH271011   4.589   3.100   3.699 -0.1111  0.4682  0.2946
16507TIP3    H171012   4.515   3.051   3.661 -0.2709  1.4114 -0.6475
16507TIP3    H271013   4.661   3.085   3.638 -0.6604  2.8807 -1.0772
16508TIP3   OH271014   1.431   2.233  11.544 -0.1580 -0.2574 -0.3621
16508TIP3    H171015   1.456   2.322  11.521  1.1540 -0.5339 -0.0791
16508TIP3    H271016   1.499   2.203  11.604 -0.5573 -1.4634 -0.4675
16509TIP3   OH271017   6.353   4.367  11.736 -0.3282 -0.0373  0.0779
16509TIP3    H171018   6.440   4.360  11.697 -0.3665  1.5180 -0.3533
16509TIP3    H271019   6.296   4.320  11.676  0.1442 -0.7341  0.1625
16510TIP3   OH271020   0.325   4.172   1.182 -0.5915 -0.5838 -0.4259
16510TIP3    H171021   0.300   4.192   1.092  0.6389 -1.1811 -0.9236
16510TIP3    H271022   0.317   4.077   1.189 -0.2558 -0.5866 -0.0401
16511TIP3   OH271023   0.721   2.330   0.826  0.0792  0.7842 -0.2963
16511TIP3    H171024   0.816   2.339   0.842 -0.1194  1.0176  0.8686
16511TIP3    H271025   0.705   2.384   0.749  1.4245 -1.8554 -2.5939
16512TIP3   OH271026   3.461   5.299  12.394  0.5833  0.4175 -0.5187
16512TIP3    H171027   3.513   5.220  12.410  0.1533  0.2202 -0.0306
16512TIP3    H271028   3.488   5.329  12.308  0.7234 -0.2944 -0.7307
16513TIP3   OH271029   0.669   5.633   6.402 -0.4957 -0.5553  0.1969
16513TIP3    H171030   0.731   5.630   6.330 -1.0022  1.4980 -0.3641
16513TIP3    H271031   0.684   5.551   6.450  2.1097 -0.4503 -0.3385
16514TIP3   OH271032   2.560   4.273  11.332  0.3971 -0.1675  0.0210
16514TIP3    H171033   2.497   4.240  11.268 -1.0718  0.2799  1.1626
16514TIP3    H271034   2.606   4.195  11.363 -0.0254 -0.5818 -0.3816
16515TIP3   OH271035   0.849   1.230  17.129  0.3260  0.4972  0.0560
16515TIP3    H171036   0.852   1.191  17.041 -0.1523  0.8741 -0.1315
16515TIP3    H271037   0.846   1.155  17.188 -1.5196  0.2173 -0.3281
16516TIP3   OH271038   4.156   3.029  12.159 -0.3438 -0.1086 -0.2301
16516TIP3    H171039   4.229   2.970  12.178 -0.2585  0.3536  0.8927
16516TIP3    H271040   4.093   2.973  12.112 -0.3460 -1.1739  0.9656
16517TIP3   OH271041   4.312   3.515   4.096  0.0910 -0.0319  0.0506
16517TIP3    H171042   4.285   3.577   4.163 -0.1339  0.9520 -0.9175
16517TIP3    H271043   4.331   3.570   4.020 -0.5122 -1.1896 -0.9614
16518TIP3   OH271044   1.476   2.366   4.753 -0.2227 -0.2014 -0.8266
16518TIP3    H171045   1.508   2.456   4.757  1.5750 -0.7675 -1.5703
16518TIP3    H271046   1.479   2.336   4.844  2.2059 -0.4664 -0.9342
16519TIP3   OH271047   5.954   3.130  13.839 -0.0644  0.2629 -0.5833
16519TIP3    H171048   5.995   3.194  13.896  1.2026 -1.3006  0.3566
16519TIP3    H271049   5.995   3.047  13.863 -0.8921 -0.7528 -2.4505
16520TIP3   OH271050   0.919   5.307  16.160 -0.0134 -0.7809 -0.0941
16520TIP3    H171051   0.928   5.259  16.078  0.3751 -0.9943  0.0693
16520TIP3    H271052   0.911   5.239  16.227 -0.8412 -0.6059 -0.0061
16521TIP3   OH271053   5.759   1.093  15.940 -0.1038  0.2851 -0.2246
16521TIP3    H171054   5.667   1.112  15.924 -0.4889 -0.1535  1.3732
16521TIP3    H271055   5.797   1.178  15.964 -0.7970 -0.0112  2.1777
16522TIP3   OH271056   0.120   3.034  14.782  0.5815  0.0617  0.0635
16522TIP3    H171057   0.118   3.014  14.688 -0.8734  0.2478  0.0295
16522TIP3    H271058   0.067   3.113  14.791  0.4091 -0.1559  1.0864
16523TIP3   OH271059   2.703   3.317  14.981  0.0105  0.7096 -0.3698
16523TIP3    H171060   2.755   3.322  14.901  1.4858  1.8417  0.5859
16523TIP3    H271061   2.652   3.398  14.982 -1.1825 -0.0156 -0.8942
16524TIP3   OH271062   6.282   6.780   4.171  0.1466 -0.2540  0.1971
16524TIP3    H171063   6.358   6.736   4.210  1.8964  0.7805 -1.8104
16524TIP3    H271064   6.259   6.849   4.233  2.1710  0.6938 -0.0327
16525TIP3   OH271065   2.864   2.907  17.048 -0.3115  0.3555  0.1921
16525TIP3    H171066   2.821   2.822  17.041  0.2747 -0.0091  0.9103
16525TIP3    H271067   2.868   2.939  16.958  0.5161 -0.9158 -0.2599
16526TIP3   OH271068   1.721   3.845  12.343  0.3569  0.3418 -0.0897
16526TIP3    H171069   1.762   3.786  12.406  1.1621  1.8925  0.9187
16526TIP3    H271070   1.793   3.899  12.311 -0.1190 -0.1029 -2.0498
16527TIP3   OH271071   0.573   1.054   2.640 -0.7141 -0.2205  0.6605
16527TIP3    H171072   0.642   1.120   2.631 -0.2675 -0.1134  3.9646
16527TIP3    H271073   0.507   1.095   2.695 -1.7264 -1.6054  0.5257
16528TIP3   OH271074   3.964   4.710  11.384 -0.5852 -0.0993 -0.6964
16528TIP3    H171075   3.875   4.732  11.412  0.6426  2.8936  1.3653
16528TIP3    H271076   3.972   4.749  11.297 -0.4506  2.3242  0.3281
16529TIP3   OH271077   5.987   4.179  12.008  0.2019  0.2948  0.5950
16529TIP3    H171078   5.976   4.182  12.103  0.8592 -0.6688  0.7197
16529TIP3    H271079   5.900   4.198  11.973 -0.2568 -0.2553  1.4015
16530TIP3   OH271080   1.794   5.099  15.312 -0.1217 -0.4978  0.1922
16530TIP3    H171081   1.862   5.165  15.327 -0.5362 -0.0807  0.2788
16530TIP3    H271082   1.842   5.018  15.297  0.3956 -0.1956  0.1807
16531TIP3   OH271083   3.196   4.059  16.740 -0.0876  0.2123  0.2938
16531TIP3    H171084   3.198   4.074  16.835  2.2494  1.5455  0.1041
16531TIP3    H271085   3.221   3.967  16.730  0.2817  0.2302  0.9743
16532TIP3   OH271086   0.058   1.689  14.330 -0.2711 -0.2066 -0.0061
16532TIP3    H171087   0.153   1.697  14.318 -0.0272  3.0011  2.4985
16532TIP3    H271088   0.046   1.599  14.362  1.8837 -0.7537 -0.5511
16533TIP3   OH271089   0.875   5.196   0.778  0.6809  0.0034 -0.0893
16533TIP3    H171090   0.849   5.172   0.689  0.9876  0.4077 -0.2942
16533TIP3    H271091   0.970   5.187   0.778  0.7255  0.4562  0.0572
16534TIP3   OH271092   3.579   4.483   1.924 -0.1845  0.3152  0.8818
16534TIP3    H171093   3.648   4.528   1.972 -0.3501  1.4781  0.0674
16534TIP3    H271094   3.607   4.487   1.833 -0.8121 -0.1434  0.6646
16535TIP3   OH271095   6.335   2.279  11.052  0.0023 -0.3223  0.3751
16535TIP3    H171096   6.421   2.253  11.019  0.6638  1.0190  0.9656
16535TIP3    H271097   6.296   2.329  10.981 -0.1707 -0.6798  0.2171
16536TIP3   OH271098   5.380   3.604   0.246  0.1434 -0.3114  0.0570
16536TIP3    H171099   5.334   3.653   0.178  0.3671  1.0703  0.8630
16536TIP3    H271100   5.472   3.612   0.222  0.1742 -0.4570  0.1268
16537TIP3   OH271101   5.851   6.179   2.105 -0.6032  0.1557  0.5652
16537TIP3    H171102   5.922   6.129   2.064 -1.9169 -1.5061  0.2032
16537TIP3    H271103   5.779   6.174   2.042 -1.6966  0.1137  1.7775
16538TIP3   OH271104   6.595   5.623   1.500 -0.5229  0.1628 -0.1595
16538TIP3    H171105   6.677   5.585   1.532 -0.6567 -0.2057 -0.2519
16538TIP3    H271106   6.536   5.548   1.492 -0.8749  0.4314 -0.0735
16539TIP3   OH271107   4.972   3.788   4.592 -0.2064  0.3425 -0.2116
16539TIP3    H171108   4.919   3.772   4.514  1.5891  0.5603 -1.5559
16539TIP3    H271109   4.946   3.874   4.623  1.8019  2.1478 -3.0602
16540TIP3   OH271110   4.128   2.997  16.460  0.4673 -0.1446 -0.5771
16540TIP3    H171111   4.136   2.958  16.372 -0.4438 -1.5223 -0.0857
16540TIP3    H271112   4.130   2.922  16.519  0.4889  0.7244  0.5548
16541TIP3   OH271113   1.743   1.934  14.876  0.0219  0.3329 -0.1419
16541TIP3    H171114   1.686   2.008  14.895  1.7622  1.6534  0.1950
16541TIP3    H271115   1.796   1.962  14.801 -1.0883 -1.6384 -1.7851
16542TIP3   OH271116   0.954   1.761  16.795  0.9213 -0.6481 -0.1214
16542TIP3    H171117   0.995   1.783  16.711 -0.0780  0.3641 -0.3629
16542TIP3    H271118   0.961   1.666  16.800  1.4701 -0.6791 -1.0960
16543TIP3   OH271119   0.302   5.164   4.804 -0.0016  0.2344  0.6036
16543TIP3    H171120   0.217   5.204   4.825 -0.8688 -0.5998 -1.0744
16543TIP3    H271121   0.297   5.077   4.842 -1.0106 -0.7663 -1.6528
16544TIP3   OH271122   6.106   6.388   4.980 -0.1060  0.1240  0.1273
16544TIP3    H171123   6.177   6.449   4.960 -1.2395  1.6738  0.6497
16544TIP3    H271124   6.065   6.425   5.059 -1.3810 -0.8407 -0.0600
16545TIP3   OH271125   0.106   2.206   2.005  0.7584  0.1488  0.3375
16545TIP3    H171126   0.121   2.174   1.917  2.1137  2.3392 -0.3203
16545TIP3    H271127   0.011   2.207   2.015  0.5445  0.6277 -1.4390
16546TIP3   OH271128   5.833   1.339  16.725 -0.9448 -0.5494 -0.1468
16546TIP3    H171129   5.781   1.259  16.719 -0.2640 -1.1947  1.7807
16546TIP3    H271130   5.922   1.309  16.743 -0.8191  0.6294  1.4174
16547TIP3   OH271131   2.457   3.120   5.224  0.1120  0.0900  0.1981
16547TIP3    H171132   2.399   3.049   5.252 -0.4784  0.0476 -1.0675
16547TIP3    H271133   2.407   3.167   5.157  0.7326  1.3387  0.5743
16548TIP3   OH271134   2.547   2.404   4.997  0.4508 -0.2282  0.2758
16548TIP3    H171135   2.492   2.476   4.966  1.4044  0.1014 -0.7287
16548TIP3    H271136   2.602   2.443   5.065 -0.3403 -0.4958  1.0954
16549TIP3   OH271137   1.724   5.742   4.151 -0.0651  0.2241  0.3474
16549TIP3    H171138   1.798   5.761   4.093 -0.9566  0.2958 -0.8148
16549TIP3    H271139   1.761   5.744   4.239  1.3090  0.2651 -0.2035
16550TIP3   OH271140   1.387   2.539  15.203 -0.2141  0.2279  0.2064
16550TIP3    H171141   1.460   2.587  15.164 -0.2330  0.6776  0.7171
16550TIP3    H271142   1.311   2.594  15.187 -0.1266  0.7176  1.4062
16551TIP3   OH271143   3.177   1.912  13.470  0.6052  0.3597 -0.3884
16551TIP3    H171144   3.238   1.979  13.439 -0.2314  0.7221 -1.3125
16551TIP3    H271145   3.117   1.899  13.397  0.2505 -0.8075  0.0873
16552TIP3   OH271146   5.484   3.696  12.631 -0.0426  0.3384  0.0358
16552TIP3    H171147   5.401   3.652  12.646  0.3852 -0.9675 -1.2328
16552TIP3    H271148   5.550   3.629  12.650  0.7818  1.5049  1.5619
16553TIP3   OH271149   5.031   0.860   3.465  0.4421  0.6534  0.1791
16553TIP3    H171150   4.968   0.906   3.521 -0.3691 -0.8669  0.5796
16553TIP3    H271151   5.116   0.883   3.502 -0.0828 -0.9222  2.6446
16554TIP3   OH271152   3.821   5.895  15.971  0.0430  0.4067 -0.2441
16554TIP3    H171153   3.789   5.929  16.055  1.0450 -1.6431  1.0562
16554TIP3    H271154   3.753   5.833  15.944  0.1421  0.4052 -0.4869
16555TIP3   OH271155   3.777   3.361  14.507 -0.0099  0.3873 -0.2753
16555TIP3    H171156   3.863   3.321  14.501  0.7531  1.4808  2.1188
16555TIP3    H271157   3.716   3.287  14.509  0.9923 -0.4601 -0.2911
16556TIP3   OH271158   6.327   3.578  11.060  0.6872  0.5997  0.3108
16556TIP3    H171159   6.239   3.605  11.087  0.3126  1.2585 -1.4970
16556TIP3    H271160   6.342   3.622  10.977  0.5011 -3.7106 -2.2938
16557TIP3   OH271161   4.238   0.519   0.454 -0.0565 -0.7429 -0.5426
16557TIP3    H171162   4.242   0.424   0.463 -1.3473 -0.7012  0.8805
16557TIP3    H271163   4.145   0.540   0.459  0.3082  0.7391  1.0240
16558TIP3   OH271164   6.793   4.619  15.929 -0.0758  0.0434  0.4402
16558TIP3    H171165   6.804   4.571  16.011 -0.9476 -0.7664  0.1057
16558TIP3    H271166   6.710   4.587  15.893 -1.7919  3.2581  1.1436
16559TIP3   OH271167   5.119   5.778   5.808  0.2885  0.0321 -0.1538
16559TIP3    H171168   5.066   5.699   5.820  0.1155  0.2832  0.7708
16559TIP3    H271169   5.072   5.828   5.740 -0.6131  0.1990  0.5686
16560TIP3   OH271170   3.677   4.650   6.549 -0.3566  0.4211  0.1281
16560TIP3    H171171   3.712   4.727   6.503 -1.1545 -0.3739 -1.9336
16560TIP3    H271172   3.747   4.585   6.541 -1.1326 -0.2691 -1.5603
16561TIP3   OH271173   1.552   1.409  12.053 -0.3453 -0.6921  0.5307
16561TIP3    H171174   1.596   1.349  12.113 -0.6402 -1.0916  0.3502
16561TIP3    H271175   1.621   1.440  11.994 -0.3001 -1.3061  0.2555
16562TIP3   OH271176   5.204   5.730  14.365  0.4634 -0.1809 -0.2163
16562TIP3    H171177   5.211   5.682  14.282 -1.1614 -0.1465 -0.4031
16562TIP3    H271178   5.125   5.783  14.355  1.4847  1.5485  0.5067
16563TIP3   OH271179   4.989   1.289   3.705  0.0006  0.0320  0.1363
16563TIP3    H171180   5.022   1.360   3.761 -1.1388 -1.1056  2.4154
16563TIP3    H271181   5.060   1.225   3.705 -0.0428 -0.0204  0.4237
16564TIP3   OH271182   5.851   4.182   2.435 -0.3097 -0.3527  0.0007
16564TIP3    H171183   5.934   4.134   2.430 -0.1459 -0.5646  3.0592
16564TIP3    H271184   5.789   4.118   2.469 -1.3104  0.3065 -0.5480
16565TIP3   OH271185   4.142   4.845  15.958  0.0549  0.0029  0.7719
16565TIP3    H171186   4.186   4.782  15.901 -1.5487  0.0021 -0.5397
16565TIP3    H271187   4.171   4.822  16.046  1.8939 -0.5759  0.0582
16566TIP3   OH271188   4.751   5.273  12.337 -1.0979 -0.4712 -0.3907
16566TIP3    H171189   4.718   5.206  12.397 -1.0696 -0.9264 -0.8674
16566TIP3    H271190   4.763   5.226  12.254 -2.0819  0.3656 -1.0252
16567TIP3   OH271191   3.886   6.212  16.350  0.1484  0.2283  0.2850
16567TIP3    H171192   3.965   6.227  16.403 -0.4824  1.6692  0.8626
16567TIP3    H271193   3.824   6.277  16.381 -1.0318 -0.4102 -0.6774
16568TIP3   OH271194   1.082   2.575  16.476  0.3796  0.5879 -0.3121
16568TIP3    H171195   1.013   2.542  16.533  0.9528  0.8342  0.5507
16568TIP3    H271196   1.157   2.590  16.535  0.6216  1.9674 -0.9234
16569TIP3   OH271197   1.972   3.371  16.710  0.7536 -0.0945 -0.1728
16569TIP3    H171198   2.017   3.362  16.794  1.0674 -0.3739 -0.3678
16569TIP3    H271199   2.019   3.312  16.651  0.4613  0.0119 -0.5151
16570TIP3   OH271200   2.997   3.151  16.671  0.4287 -0.3849  0.1245
16570TIP3    H171201   3.003   3.242  16.697  1.1852 -0.6011  0.7420
16570TIP3    H271202   3.086   3.117  16.682  0.3768 -0.9419 -1.0573
16571TIP3   OH271203   2.144   2.726  12.555 -0.3640  0.3199  0.8551
16571TIP3    H171204   2.208   2.739  12.626  0.7890  1.5052 -0.3462
16571TIP3    H271205   2.174   2.784  12.485 -2.5027  0.5195  0.0498
16572TIP3   OH271206   2.971   6.227   5.439 -0.1199 -0.1226 -0.8026
16572TIP3    H171207   2.994   6.137   5.415 -1.3589 -1.3279  2.0090
16572TIP3    H271208   3.025   6.245   5.516  0.3471  1.7194 -1.5095
16573TIP3   OH271209   4.974   4.125  14.611  0.7557  0.6146 -0.0760
16573TIP3    H171210   4.929   4.209  14.615 -1.1851 -0.3919  0.9214
16573TIP3    H271211   5.038   4.128  14.683  0.3950  1.0743  0.2292
16574TIP3   OH271212   5.870   1.886   4.344  0.2393  0.2005  0.7367
16574TIP3    H171213   5.816   1.817   4.385  0.1332 -1.0935 -1.4265
16574TIP3    H271214   5.860   1.961   4.402 -2.6778 -0.4459  1.2643
16575TIP3   OH271215   1.049   5.857  15.710 -0.3212  0.5162  0.1713
16575TIP3    H171216   0.989   5.924  15.678 -1.7026 -0.6431  0.2016
16575TIP3    H271217   1.095   5.827  15.631 -0.5625  0.6685 -0.0289
16576TIP3   OH271218   3.338   1.886   4.274  0.2266 -0.4404  0.1842
16576TIP3    H171219   3.367   1.941   4.201  0.7992 -2.9082 -1.5533
16576TIP3    H271220   3.254   1.851   4.246  0.6256 -1.7112  0.5066
16577TIP3   OH271221   2.092   2.348   2.894  0.9683 -0.2728 -0.9188
16577TIP3    H171222   2.002   2.377   2.881  0.9188 -0.2800 -0.6095
16577TIP3    H271223   2.086   2.252   2.898  0.3613 -0.2521  3.1587
16578TIP3   OH271224   6.237   6.154   5.061 -0.1029  0.0439  0.1561
16578TIP3    H171225   6.227   6.102   4.982  0.0471 -1.3348  0.9958
16578TIP3    H271226   6.183   6.231   5.048  1.5431  0.9113 -2.1348
16579TIP3   OH271227   6.740   2.985  11.495 -0.6027  0.2445  0.5933
16579TIP3    H171228   6.779   2.947  11.416 -0.8260  0.5407  0.3373
16579TIP3    H271229   6.653   2.945  11.500 -0.8354  0.7146  0.3276
16580TIP3   OH271230   6.081   1.441  13.420 -0.2059 -0.3699 -0.0633
16580TIP3    H171231   6.138   1.516  13.403  1.3628 -1.7995 -1.5205
16580TIP3    H271232   6.057   1.451  13.512  1.3024  1.0409  0.2472
16581TIP3   OH271233   0.544   4.123  13.243  0.1866  0.0724  0.0940
16581TIP3    H171234   0.569   4.189  13.307  1.2817  0.3163 -0.5524
16581TIP3    H271235   0.483   4.066  13.290  0.1962  0.8074  1.0400
16582TIP3   OH271236   5.181   0.958  10.298 -0.2128  0.5020 -0.2300
16582TIP3    H171237   5.244   1.025  10.323 -0.3220  1.2280 -1.7841
16582TIP3    H271238   5.235   0.884  10.269 -0.0965  0.3765  0.2912
16583TIP3   OH271239   4.594   0.872  13.971 -0.1453 -0.3845  0.0376
16583TIP3    H171240   4.617   0.878  14.064 -1.2020 -2.6804  0.5272
16583TIP3    H271241   4.633   0.789  13.942  0.5178  0.4851 -1.7185
16584TIP3   OH271242   4.827   1.343  12.372  0.6607  0.2650 -0.4153
16584TIP3    H171243   4.808   1.341  12.278  1.2976 -3.0075 -0.5718
16584TIP3    H271244   4.741   1.342  12.414  0.3881  0.7215 -0.9425
16585TIP3   OH271245   4.560   0.733   5.300 -0.1240 -0.6812 -0.2196
16585TIP3    H171246   4.525   0.759   5.385  0.5260  0.7159 -0.3589
16585TIP3    H271247   4.529   0.800   5.239 -1.1273 -2.0109 -1.2434
16586TIP3   OH271248   4.434   0.287  11.003 -0.2283 -0.1208 -0.5928
16586TIP3    H171249   4.340   0.300  10.989  0.0627  0.0624 -2.7640
16586TIP3    H271250   4.469   0.375  11.014 -0.4148 -0.2479  1.4030
16587TIP3   OH271251   4.253   6.462  15.598  0.0351 -0.0325 -0.6839
16587TIP3    H171252   4.239   6.381  15.647 -2.1809  0.6015 -0.1818
16587TIP3    H271253   4.225   6.532  15.658  1.0043  1.0509 -1.4511
16588TIP3   OH271254   5.651   5.417   2.081 -0.0755 -0.2183 -1.1807
16588TIP3    H171255   5.666   5.346   2.019 -0.8952 -0.8773 -0.6378
16588TIP3    H271256   5.563   5.448   2.062 -0.2877 -0.3447 -0.4211
16589TIP3   OH271257   6.392   3.080  14.982  0.3247  0.7997 -0.1896
16589TIP3    H171258   6.361   3.098  15.071  0.6496 -0.2896  0.1574
16589TIP3    H271259   6.432   2.993  14.988  0.1985  0.6458 -1.4412
16590TIP3   OH271260   6.401   4.216  14.128  0.0035  0.0338 -0.3102
16590TIP3    H171261   6.495   4.211  14.110  0.1753 -0.4839  0.6544
16590TIP3    H271262   6.391   4.170  14.211 -1.0112  0.7145 -0.0495
16591TIP3   OH271263   0.351   4.426   5.789 -0.2086  0.4047  0.3649
16591TIP3    H171264   0.344   4.453   5.881 -1.0994 -1.9574  1.0591
16591TIP3    H271265   0.338   4.507   5.740  0.4177  1.7640  2.2990
16592TIP3   OH271266   3.614   0.352   5.306  0.0340  0.1540  0.2639
16592TIP3    H171267   3.653   0.278   5.260 -2.4297  1.3194 -4.3574
16592TIP3    H271268   3.528   0.322   5.333  0.8597 -0.0091  2.9461
16593TIP3   OH271269   3.753   2.597   5.526 -0.3144  0.0609 -0.3532
16593TIP3    H171270   3.732   2.506   5.545  0.9671  0.1921  2.0673
16593TIP3    H271271   3.842   2.594   5.491  1.0396  0.5371  2.7677
16594TIP3   OH271272   0.232   5.593   4.050  1.0644 -0.3018  0.3020
16594TIP3    H171273   0.256   5.528   3.984 -0.3378  0.2240 -0.7755
16594TIP3    H271274   0.140   5.576   4.068  0.8098  1.0467  0.3672
16595TIP3   OH271275   1.281   4.908  14.107 -0.6411 -0.9656 -0.1210
16595TIP3    H171276   1.321   4.988  14.140 -4.3713 -0.2138  3.4146
16595TIP3    H271277   1.321   4.838  14.159  0.7526 -1.1658 -1.3931
16596TIP3   OH271278   4.705   5.130   1.582  0.0556 -0.3692 -0.1511
16596TIP3    H171279   4.728   5.199   1.519  0.9550  1.5308  2.1312
16596TIP3    H271280   4.622   5.159   1.620  0.4080 -0.5771  0.7812
16597TIP3   OH271281   1.744   2.295   1.122 -0.2255 -0.1051 -0.6414
16597TIP3    H171282   1.829   2.339   1.125 -0.2878  0.1764 -2.0664
16597TIP3    H271283   1.765   2.202   1.113 -0.0881 -0.2461  0.9582
16598TIP3   OH271284   2.805   0.428  16.157  0.1306  0.2688 -0.3405
16598TIP3    H171285   2.865   0.502  16.145 -0.7041  1.2957  1.4078
16598TIP3    H271286   2.731   0.448  16.099 -0.7958  1.6728  1.2376
16599TIP3   OH271287   6.723   3.551   3.008 -0.3615  0.0553  0.1339
16599TIP3    H171288   6.817   3.568   3.004 -0.4492  0.3917 -2.4351
16599TIP3    H271289   6.716   3.457   3.024  0.4307 -0.0302  0.0157
16600TIP3   OH271290   2.013   0.186   2.529  0.1191  0.5572 -0.3697
16600TIP3    H171291   2.061   0.254   2.481 -0.3304  0.1752 -1.3990
16600TIP3    H271292   1.984   0.229   2.610 -1.0241  1.9296 -1.4451
16601TIP3   OH271293   5.208   2.717   0.316 -0.5998 -0.2102 -0.1278
16601TIP3    H171294   5.301   2.699   0.309 -0.2428  1.1716  0.6537
16601TIP3    H271295   5.193   2.731   0.410 -1.1992  1.4485 -0.4428
16602TIP3   OH271296   3.841   5.502   3.676 -0.0489 -0.6916  0.1562
16602TIP3    H171297   3.769   5.523   3.735 -0.2438 -1.2583  0.1270
16602TIP3    H271298   3.918   5.501   3.733  0.1114  0.8961  0.0177
16603TIP3   OH271299   1.155   1.042   4.715 -0.3677  0.4077  0.4102
16603TIP3    H171300   1.148   1.031   4.810  2.1454 -3.2417  0.3937
16603TIP3    H271301   1.086   0.986   4.680  0.3361 -0.3245  0.1587
16604TIP3   OH271302   5.006   5.283  12.784  0.7236 -0.4266 -0.0210
16604TIP3    H171303   5.066   5.213  12.759  0.8419 -0.1409 -0.5592
16604TIP3    H271304   4.994   5.334  12.704  2.2623  1.3646  0.7964
16605TIP3   OH271305   3.741   5.940  12.722  0.3524  0.6073 -0.1438
16605TIP3    H171306   3.736   6.035  12.730  1.2646  0.5787  1.0101
16605TIP3    H271307   3.689   5.919  12.644  2.0933  2.2615 -1.8410
16606TIP3   OH271308   5.999   3.159   1.163 -0.3060 -0.3122 -0.5076
16606TIP3    H171309   6.023   3.216   1.236  0.5204  0.0405 -1.0415
16606TIP3    H271310   5.975   3.076   1.204 -2.4041  0.6569  0.3542
16607TIP3   OH271311   1.022   2.869  16.909 -0.5076  0.0548  0.2762
16607TIP3    H171312   0.959   2.859  16.981 -0.7347 -2.0236 -0.1502
16607TIP3    H271313   1.107   2.874  16.953 -0.5176 -2.4935  0.7307
16608TIP3   OH271314   0.604   2.281   6.445  0.2824 -0.0670 -0.4074
16608TIP3    H171315   0.645   2.311   6.526  1.0431  2.5641 -1.6672
16608TIP3    H271316   0.515   2.316   6.448  0.0689 -0.5951 -0.4007
16609TIP3   OH271317   4.311   6.318  12.540  0.3052 -0.1289  0.3591
16609TIP3    H171318   4.231   6.276  12.507  1.4625 -0.6796 -2.0486
16609TIP3    H271319   4.340   6.262  12.612 -0.8014 -0.6424  0.4233
16610TIP3   OH271320   2.030   1.649   5.071  0.2751 -0.9329 -0.0462
16610TIP3    H171321   2.004   1.721   5.128 -1.4242 -0.7755 -0.9609
16610TIP3    H271322   2.065   1.583   5.130  0.5296  0.0541  0.9510
16611TIP3   OH271323   6.688   5.631  14.018  0.1521 -0.0436  0.1269
16611TIP3    H171324   6.655   5.571  14.085 -0.6889 -1.5709 -1.5732
16611TIP3    H271325   6.742   5.576  13.961  0.0067  0.9698 -1.0360
16612TIP3   OH271326   5.302   0.352  13.184 -0.0508  0.4916 -0.4037
16612TIP3    H171327   5.373   0.368  13.123 -0.2923 -0.6029 -1.0098
16612TIP3    H271328   5.236   0.419  13.164  1.2281  2.2161  0.9068
16613TIP3   OH271329   0.631   6.571   0.925  0.0366 -0.2642 -0.4277
16613TIP3    H171330   0.680   6.503   0.973  1.4269 -1.0957 -2.8615
16613TIP3    H271331   0.667   6.654   0.959  0.3455 -0.7807  0.5647
16614TIP3   OH271332   1.090   4.547  16.472 -0.2218 -0.3564  0.1803
16614TIP3    H171333   1.015   4.508  16.428 -1.2227  0.0874  1.4361
16614TIP3    H271334   1.127   4.607  16.408 -0.7267 -0.8428 -0.5745
16615TIP3   OH271335   3.661   3.570   2.758  0.1357 -0.0982  0.1244
16615TIP3    H171336   3.663   3.545   2.850 -0.3205  0.8059  0.3960
16615TIP3    H271337   3.599   3.643   2.754 -1.7470 -1.6440 -1.2920
16616TIP3   OH271338   3.704   1.698   4.975  0.2208 -0.9192  0.3642
16616TIP3    H171339   3.784   1.663   4.936  1.5177  1.7480  0.4281
16616TIP3    H271340   3.715   1.683   5.069  0.5758 -0.6838  0.3601
16617TIP3   OH271341   1.502   4.736  10.927  0.5928 -0.1899 -0.3952
16617TIP3    H171342   1.551   4.808  10.965  0.9581 -1.2873  1.3383
16617TIP3    H271343   1.528   4.659  10.978 -0.5140 -1.3839 -1.5303
16618TIP3   OH271344   2.816   0.451  10.426 -0.1492  0.4806  0.5562
16618TIP3    H171345   2.876   0.377  10.433 -0.8383 -0.0982  0.3895
16618TIP3    H271346   2.847   0.513  10.493  0.6617  0.2183  0.4346
16619TIP3   OH271347   3.193   2.584  12.429 -0.4220  1.2859  0.3535
16619TIP3    H171348   3.287   2.596  12.446 -0.4632 -0.6078  2.3631
16619TIP3    H271349   3.158   2.552  12.512 -2.3337 -0.7461 -1.1201
16620TIP3   OH271350   5.831   0.754   3.376  0.0690 -0.2644  0.5714
16620TIP3    H171351   5.897   0.684   3.379 -1.3394 -1.6248  1.6245
16620TIP3    H271352   5.846   0.796   3.292  1.8191 -0.9728  0.4626
16621TIP3   OH271353   1.489   5.474   2.605  0.5102  0.7715  0.0087
16621TIP3    H171354   1.414   5.476   2.665 -1.2655  0.0431 -2.0581
16621TIP3    H271355   1.485   5.558   2.559 -0.0057  0.1106 -1.1869
16622TIP3   OH271356   4.482   4.597  13.760  0.8801  0.0019  0.0346
16622TIP3    H171357   4.551   4.615  13.697  0.6144 -0.4143 -0.3831
16622TIP3    H271358   4.447   4.683  13.783  0.7668  0.1414 -0.6335
16623TIP3   OH271359   2.398   4.465  12.809 -0.3924  0.6772  0.3326
16623TIP3    H171360   2.413   4.557  12.834 -2.0130  0.7311  1.2669
16623TIP3    H271361   2.347   4.471  12.728 -1.1420  0.6319  0.7926
16624TIP3   OH271362   4.232   2.543   2.554  0.0152 -0.2131 -0.5592
16624TIP3    H171363   4.292   2.491   2.607 -0.0286  0.5440  0.2660
16624TIP3    H271364   4.145   2.509   2.576  0.0183 -0.0904 -0.3473
16625TIP3   OH271365   6.738   1.565   3.521 -0.0255  0.5032  0.0041
16625TIP3    H171366   6.663   1.537   3.575  1.2884 -0.4084  1.4597
16625TIP3    H271367   6.721   1.526   3.435 -0.3427 -1.2993  0.8312
16626TIP3   OH271368   1.924   4.158   0.988 -0.3472  0.3832 -0.1167
16626TIP3    H171369   1.835   4.165   0.954 -0.4413  1.7400  0.3636
16626TIP3    H271370   1.928   4.070   1.025 -0.6790 -0.6236 -2.3226
16627TIP3   OH271371   1.781   3.410   3.687  0.1273  0.1184  0.1625
16627TIP3    H171372   1.856   3.355   3.709  0.4536  0.0392 -1.0641
16627TIP3    H271373   1.738   3.364   3.614  0.4676  1.5041 -0.9560
16628TIP3   OH271374   6.113   5.323  16.524  0.0581  0.2152 -0.5069
16628TIP3    H171375   6.132   5.236  16.560  1.6924 -0.2498 -2.3365
16628TIP3    H271376   6.162   5.383  16.580  0.6063 -0.2547 -0.4726
16629TIP3   OH271377   6.584   3.235  12.338 -0.0258  0.4517 -0.2491
16629TIP3    H171378   6.527   3.185  12.397 -0.1938  0.9500  0.0246
16629TIP3    H271379   6.667   3.241  12.385  1.5093 -3.2429 -2.0692
16630TIP3   OH271380   0.846   4.772  13.849  0.0773 -0.2549  0.2168
16630TIP3    H171381   0.794   4.824  13.911 -0.2410  0.6108 -0.7629
16630TIP3    H271382   0.923   4.747  13.899  1.5001  3.2639  0.0658
16631TIP3   OH271383   0.463   0.610   2.841 -0.2834  0.2191 -0.2619
16631TIP3    H171384   0.525   0.559   2.894 -0.4419 -1.1892 -1.3712
16631TIP3    H271385   0.377   0.575   2.865 -0.5649  1.2891  0.3367
16632TIP3   OH271386   3.685   2.929  16.020  0.0467  0.0360 -0.3595
16632TIP3    H171387   3.621   2.867  15.984 -0.2259 -0.1284  0.3997
16632TIP3    H271388   3.668   3.011  15.973  1.6390 -0.8877 -2.7670
16633TIP3   OH271389   3.313   0.617   4.382  0.3371 -0.0713  0.5980
16633TIP3    H171390   3.311   0.658   4.468 -0.8993 -1.3172  1.2063
16633TIP3    H271391   3.405   0.597   4.367  0.7697  1.4816  0.9420
16634TIP3   OH271392   5.184   5.609  12.279 -0.3000  0.1248 -0.0469
16634TIP3    H171393   5.173   5.522  12.316  1.6492 -0.6289 -1.1174
16634TIP3    H271394   5.263   5.644  12.322  2.1942 -0.8714 -3.3886
16635TIP3   OH271395   1.388   0.840   4.971 -0.4122 -0.0209 -0.3826
16635TIP3    H171396   1.316   0.901   4.987 -1.2998 -1.1341  0.0363
16635TIP3    H271397   1.466   0.885   5.004 -0.8032  1.4205 -1.3028
16636TIP3   OH271398   2.894   1.033   2.475 -0.2884 -0.5842 -0.3387
16636TIP3    H171399   2.929   0.945   2.468  0.6379 -0.1805 -0.9226
16636TIP3    H271400   2.853   1.036   2.562  0.9431 -1.1296  0.2743
16637TIP3   OH271401   2.421   6.726   5.638 -0.1749 -0.5508 -0.3908
16637TIP3    H171402   2.465   6.751   5.719  0.2426 -0.7539 -0.5529
16637TIP3    H271403   2.338   6.687   5.667 -0.1523 -0.3722 -0.0760
16638TIP3   OH271404   3.358   5.841  13.569  0.1205  0.6088 -0.3766
16638TIP3    H171405   3.325   5.834  13.479 -0.5431  0.3840 -0.1189
16638TIP3    H271406   3.280   5.836  13.624  0.5945 -0.0899  0.2559
16639TIP3   OH271407   4.760   4.877   5.256 -0.0881 -0.3130  0.1039
16639TIP3    H171408   4.700   4.918   5.194 -0.7471  0.5857  1.2976
16639TIP3    H271409   4.801   4.950   5.302  0.3529 -0.9566  0.7606
16640TIP3   OH271410   4.312   4.825  10.867 -0.0892  0.1799 -0.1416
16640TIP3    H171411   4.401   4.794  10.852  0.5398  1.8867 -0.0893
16640TIP3    H271412   4.265   4.802  10.787 -0.1413 -2.4085  0.5419
16641TIP3   OH271413   4.726   3.509   2.245  0.2245  0.6147  1.0978
16641TIP3    H171414   4.727   3.419   2.212 -0.6686  0.4415  1.4904
16641TIP3    H271415   4.779   3.507   2.325  1.5262  0.8052  0.2673
16642TIP3   OH271416   2.413   4.922  12.241 -0.2652  0.5301 -0.1285
16642TIP3    H171417   2.366   4.984  12.297 -0.7096  0.2694 -0.2073
16642TIP3    H271418   2.344   4.870  12.201  0.1568 -1.5369  1.6776
16643TIP3   OH271419   1.487   0.935  16.727 -0.1641 -0.4864 -0.0376
16643TIP3    H171420   1.552   0.981  16.779  0.7372 -0.4839 -1.1197
16643TIP3    H271421   1.437   0.882  16.790 -1.3924  2.0801  1.2818
16644TIP3   OH271422   0.763   3.049   2.540  0.8316 -0.8721 -0.0318
16644TIP3    H171423   0.754   3.136   2.579 -0.6788 -1.1441  0.2855
16644TIP3    H271424   0.718   2.991   2.601  1.1360 -1.7541 -0.6375
16645TIP3   OH271425   3.538   2.577  11.074  0.0564  0.2354  0.8627
16645TIP3    H171426   3.558   2.652  11.017  1.8276  0.1273  1.3038
16645TIP3    H271427   3.588   2.505  11.038 -1.7956 -0.8461  0.3253
16646TIP3   OH271428   2.043   5.505  14.271  0.1027 -0.2072  0.3018
16646TIP3    H171429   1.963   5.550  14.299 -0.2087 -0.5789  0.0162
16646TIP3    H271430   2.100   5.575  14.239 -0.2298  0.0242  0.2139
16647TIP3   OH271431   0.973   4.276  14.094 -0.1773  0.2693  0.1641
16647TIP3    H171432   0.916   4.279  14.171 -0.0193  3.1898  0.2684
16647TIP3    H271433   0.920   4.314  14.024  1.8865  4.3860  0.5765
16648TIP3   OH271434   0.762   6.308  13.611  0.3284  0.0050 -0.3042
16648TIP3    H171435   0.809   6.280  13.690  0.8644  0.0116 -0.6212
16648TIP3    H271436   0.739   6.227  13.567  1.9746  0.0195 -1.2787
16649TIP3   OH271437   6.087   1.245   6.448  0.2385 -0.0754 -0.3578
16649TIP3    H171438   6.170   1.245   6.400  1.2510  1.0394  1.3013
16649TIP3    H271439   6.089   1.325   6.500 -0.8402 -1.1743  1.4746
16650TIP3   OH271440   4.935   0.241   2.636 -0.0502 -0.0612  0.0926
16650TIP3    H171441   4.893   0.174   2.690  0.1587 -0.0911  0.2172
16650TIP3    H271442   5.028   0.236   2.659 -0.0889  0.5481  0.3991
16651TIP3   OH271443   0.017   3.135  16.983  0.3208 -0.2468 -0.6980
16651TIP3    H171444   0.084   3.067  16.974 -0.5681 -1.0035 -1.9462
16651TIP3    H271445  -0.049   3.113  16.917 -2.2649 -0.8383  1.8363
16652TIP3   OH271446   1.255   5.039   0.939 -0.6891  0.1501  0.8216
16652TIP3    H171447   1.198   4.964   0.956 -2.7896  1.2832 -0.8288
16652TIP3    H271448   1.203   5.116   0.960  1.0927  1.2244  1.5796
16653TIP3   OH271449   1.648   5.685  11.003 -0.0572 -0.8020  0.5983
16653TIP3    H171450   1.692   5.755  10.954 -0.8178 -0.0979  0.9003
16653TIP3    H271451   1.651   5.715  11.094 -2.6419  0.1321  0.4601
16654TIP3   OH271452   6.702   3.752  12.840 -0.1146  0.0803 -0.1565
16654TIP3    H171453   6.746   3.676  12.803 -0.3624 -0.8726  1.4159
16654TIP3    H271454   6.608   3.734  12.829 -0.2169 -0.5221  1.4029
16655TIP3   OH271455   2.293   5.484  13.568 -0.1710 -0.2314 -0.3339
16655TIP3    H171456   2.305   5.418  13.637  0.7384  0.0685 -0.1891
16655TIP3    H271457   2.212   5.459  13.524  0.3414 -1.6492 -0.5034
16656TIP3   OH271458   5.029   5.309   4.459  0.0537 -0.3444 -0.7494
16656TIP3    H171459   5.013   5.289   4.551  1.1180 -2.2363 -0.9149
16656TIP3    H271460   5.109   5.262   4.438  0.2631  0.6840 -2.4612
16657TIP3   OH271461   5.306   4.790  12.950  0.0365  0.4830  0.1793
16657TIP3    H171462   5.238   4.821  12.890  1.5619  0.4923 -1.6640
16657TIP3    H271463   5.384   4.783  12.895  0.6881 -3.0898  1.2803
16658TIP3   OH271464   6.544   3.629   1.184 -0.1220 -0.3287 -0.0694
16658TIP3    H171465   6.525   3.721   1.205  0.5214 -0.1774 -0.1423
16658TIP3    H271466   6.459   3.593   1.159 -0.6933 -0.2017  1.5943
16659TIP3   OH271467   0.146   3.596  16.697  0.3561  0.2618  0.6470
16659TIP3    H171468   0.197   3.672  16.726  1.0295  0.1905 -0.3050
16659TIP3    H271469   0.055   3.626  16.699  0.5857  0.9814  0.6344
16660TIP3   OH271470   1.760   5.984  15.365  0.2336 -0.4855 -0.0902
16660TIP3    H171471   1.739   6.072  15.395  1.9911 -0.2728  0.6559
16660TIP3    H271472   1.686   5.930  15.393 -0.4267  0.5937  0.2698
16661TIP3   OH271473   3.562   4.949  14.460  0.6787  0.0709 -0.0904
16661TIP3    H171474   3.471   4.976  14.445  0.4523 -0.5123  0.2052
16661TIP3    H271475   3.614   5.025  14.433 -0.0038  1.5431  2.3811
16662TIP3   OH271476   1.531   3.453  15.660 -0.1167  0.0561  0.4289
16662TIP3    H171477   1.539   3.411  15.746 -3.3690  0.3298  1.0030
16662TIP3    H271478   1.476   3.530  15.677  0.4381  0.9602 -1.6575
16663TIP3   OH271479   0.770   4.767   2.372  0.2865 -0.3958  0.7505
16663TIP3    H171480   0.765   4.793   2.280  0.6469  1.3703  1.1889
16663TIP3    H271481   0.860   4.788   2.397 -0.7997  2.9762  2.4927
16664TIP3   OH271482   6.535   2.528   2.229  0.0019 -0.5862 -0.6905
16664TIP3    H171483   6.569   2.613   2.199  0.2534 -0.2442  0.5113
16664TIP3    H271484   6.466   2.507   2.167  0.0046  0.4576 -1.0765
16665TIP3   OH271485   2.824   2.503   2.800 -0.1047 -0.3029  0.2798
16665TIP3    H171486   2.905   2.467   2.764 -0.5457  0.5745 -1.7040
16665TIP3    H271487   2.765   2.428   2.806  0.4817 -0.7406  0.6638
16666TIP3   OH271488   3.136   6.696  13.884  0.0254 -0.2628  0.1078
16666TIP3    H171489   3.115   6.750  13.960  2.7431  0.3252  0.5636
16666TIP3    H271490   3.224   6.725  13.858 -1.1383  0.2774 -3.9384
16667TIP3   OH271491   3.264   3.114  13.040  0.0948 -0.8419  0.5461
16667TIP3    H171492   3.246   3.145  13.129 -0.6324 -1.0395  0.4706
16667TIP3    H271493   3.349   3.153  13.018 -0.2540  0.1459  0.8970
16668TIP3   OH271494   3.589   4.696   3.812 -0.2507  0.4571  0.1938
16668TIP3    H171495   3.577   4.685   3.906  0.8174 -0.5904  0.2285
16668TIP3    H271496   3.683   4.705   3.800 -0.0989 -1.9660 -0.9839
16669TIP3   OH271497   0.990   0.474  15.157  0.0829  0.1219  0.0615
16669TIP3    H171498   0.943   0.392  15.142  1.0187 -0.3418 -0.4779
16669TIP3    H271499   1.039   0.459  15.238  2.0753 -0.7689 -1.2222
16670TIP3   OH271500   6.048   2.430  15.246 -0.1379 -0.3458 -0.4823
16670TIP3    H171501   6.037   2.462  15.336  0.1499  2.4916 -1.3684
16670TIP3    H271502   5.958   2.416  15.215 -0.3043  0.0386 -0.1883
16671TIP3   OH271503   5.868   1.692   4.570  0.0345 -0.1847 -0.6869
16671TIP3    H171504   5.892   1.604   4.539  0.3167 -1.2025  2.1316
16671TIP3    H271505   5.952   1.738   4.579  0.0803 -0.3780 -0.1119
16672TIP3   OH271506   1.468   3.626   0.965 -0.2702  0.5192 -0.2916
16672TIP3    H171507   1.400   3.685   0.998 -0.1343 -0.6319  2.3450
16672TIP3    H271508   1.491   3.660   0.879 -2.3302  2.4701 -0.1447
16673TIP3   OH271509   4.364   5.283   5.119  0.7393 -0.1494  0.2148
16673TIP3    H171510   4.331   5.231   5.046  2.0602  0.4802 -0.8787
16673TIP3    H271511   4.348   5.228   5.196 -0.5693 -0.8883 -0.5398
16674TIP3   OH271512   6.740   3.884   4.145 -0.2503  0.3077  0.9826
16674TIP3    H171513   6.682   3.953   4.114 -0.1467 -0.1896 -0.3822
16674TIP3    H271514   6.827   3.924   4.147 -0.2602  0.3412  0.6493
16675TIP3   OH271515   5.505   4.830  11.533 -0.2777 -0.0666  0.2633
16675TIP3    H171516   5.450   4.752  11.522  0.7665 -0.7322 -0.5827
16675TIP3    H271517   5.593   4.795  11.548  0.6158  0.8852 -2.2203
16676TIP3   OH271518   0.756   1.193   5.970  0.1472  0.9815  0.2270
16676TIP3    H171519   0.823   1.187   6.038 -0.0189  0.0819  0.3253
16676TIP3    H271520   0.673   1.185   6.018  0.0568 -1.5121 -0.2155
16677TIP3   OH271521   1.586   2.336  11.909  0.0871 -0.4486 -0.3791
16677TIP3    H171522   1.526   2.403  11.877  0.9498  0.8994  0.7118
16677TIP3    H271523   1.543   2.301  11.987 -1.1184 -2.3833 -1.8115
16678TIP3   OH271524   4.608   3.240  14.404 -0.2676 -0.0154 -0.0697
16678TIP3    H171525   4.543   3.181  14.441 -0.9200 -1.4421 -3.1329
16678TIP3    H271526   4.692   3.202  14.429 -0.6003  0.3781  1.7595
16679TIP3   OH271527   3.306   4.502   1.288  0.0426  0.0583 -0.5016
16679TIP3    H171528   3.250   4.564   1.335  1.3927  0.2455  0.9465
16679TIP3    H271529   3.331   4.438   1.355  0.6898 -0.6226 -1.3724
16680TIP3   OH271530   1.177   5.821   4.896  0.2309  0.1936 -0.3729
16680TIP3    H171531   1.261   5.777   4.898  0.2079  0.1616  1.3206
16680TIP3    H271532   1.162   5.849   4.987 -1.1786  0.9516 -0.8045
16681TIP3   OH271533   4.081   1.344  15.530  0.5390 -0.8323 -0.6574
16681TIP3    H171534   4.088   1.273  15.466  1.5571 -1.2744 -0.0709
16681TIP3    H271535   4.131   1.314  15.605 -0.3433 -0.1684  0.2304
16682TIP3   OH271536   0.384   4.905  12.341  0.1364  0.0470 -0.5171
16682TIP3    H171537   0.371   5.000  12.344  0.7173  0.1438 -0.8366
16682TIP3    H271538   0.297   4.868  12.354 -0.0787  0.6254 -0.3058
16683TIP3   OH271539   2.894   3.009   3.371 -0.3932  0.0852  0.1185
16683TIP3    H171540   2.880   2.917   3.352 -1.0309  0.1317  0.3586
16683TIP3    H271541   2.901   3.013   3.467 -0.7877  0.3434  0.1375
16684TIP3   OH271542   0.820   5.636  10.671 -0.1594 -0.3158 -0.7609
16684TIP3    H171543   0.757   5.588  10.725 -0.3569  0.7079 -0.0503
16684TIP3    H271544   0.829   5.583  10.592 -0.9389 -1.1289 -0.3287
16685TIP3   OH271545   0.804   5.530  11.738 -0.5431 -0.2648 -0.1857
16685TIP3    H171546   0.821   5.536  11.644  0.1614  0.9144 -0.0050
16685TIP3    H271547   0.891   5.529  11.778 -0.8353 -0.8276  0.4572
16686TIP3   OH271548   4.479   5.606  15.210 -0.3063  0.0024  0.3030
16686TIP3    H171549   4.409   5.553  15.171  0.0528 -0.3014  0.0649
16686TIP3    H271550   4.438   5.648  15.286 -1.5358  1.9686 -1.3224
16687TIP3   OH271551   2.979   0.277  14.071 -0.0038  0.4244  0.0998
16687TIP3    H171552   2.893   0.235  14.080  0.0008  0.5427  0.7218
16687TIP3    H271553   2.985   0.299  13.978  0.8401 -2.7715 -0.7399
16688TIP3   OH271554   1.753   1.262  16.574 -0.0455  0.5370  0.3822
16688TIP3    H171555   1.667   1.303  16.581 -1.1576 -1.8469  1.9288
16688TIP3    H271556   1.769   1.256  16.479 -1.9201  0.3739  0.0522
16689TIP3   OH271557   4.355   6.063   0.009  0.2590 -0.2391 -0.2948
16689TIP3    H171558   4.341   6.143   0.060  0.1159 -0.1120 -0.5311
16689TIP3    H271559   4.301   6.074  -0.069  2.4680  0.7801 -1.7789
16690TIP3   OH271560   3.852   5.530   1.982 -0.3915 -0.3741 -0.4270
16690TIP3    H171561   3.833   5.607   2.036  1.4176 -0.9015  1.0417
16690TIP3    H271562   3.859   5.458   2.044 -0.2911 -1.4143 -1.6058
16691TIP3   OH271563   2.290   4.239  11.045 -0.7980  0.2510 -0.5771
16691TIP3    H171564   2.359   4.178  11.070 -0.7596  0.6300  0.2950
16691TIP3    H271565   2.303   4.253  10.951  1.2152  1.3800 -0.2038
16692TIP3   OH271566   6.376   0.626   0.154 -0.3674  0.2568  0.2226
16692TIP3    H171567   6.437   0.555   0.135 -2.0220 -1.3308  0.5806
16692TIP3    H271568   6.384   0.640   0.249  0.9606  1.5775 -0.0390
16693TIP3   OH271569   6.003   6.205   0.720 -0.1534  0.1982  0.4072
16693TIP3    H171570   5.945   6.257   0.774 -0.4386  0.2598  0.0462
16693TIP3    H271571   6.057   6.156   0.782 -0.2573  0.5107  0.7428
16694TIP3   OH271572   5.971   3.694  12.700  0.0329  0.0287  0.3470
16694TIP3    H171573   6.049   3.740  12.672  0.8833 -1.5385  0.0458
16694TIP3    H271574   5.999   3.644  12.777 -1.3632  1.4975  1.8932
16695TIP3   OH271575   1.806   4.189   5.304  0.7150 -0.5193  0.0372
16695TIP3    H171576   1.844   4.238   5.377 -1.6227  2.0295 -0.2809
16695TIP3    H271577   1.743   4.130   5.346 -1.5309  1.8045  0.1913
16696TIP3   OH271578   0.856   3.809   0.838  0.1306  0.0831  0.2427
16696TIP3    H171579   0.884   3.894   0.871 -0.1309 -0.2928  1.5065
16696TIP3    H271580   0.807   3.829   0.758  0.8465  1.0272  0.0256
16697TIP3   OH271581   4.285   5.395  12.933 -0.1241 -0.1591  0.5221
16697TIP3    H171582   4.276   5.356  12.847 -0.5768  0.1295  0.4379
16697TIP3    H271583   4.360   5.350  12.972 -0.1444 -0.5429  0.1205
16698TIP3   OH271584   0.213   0.889  13.336 -0.1834  0.1967 -0.0336
16698TIP3    H171585   0.240   0.954  13.400  0.7919 -0.6763  0.4701
16698TIP3    H271586   0.130   0.855  13.371  0.0867  0.0819  0.5118
16699TIP3   OH271587   1.746   2.257  16.130 -0.4604  0.6091  0.4635
16699TIP3    H171588   1.711   2.346  16.127 -0.2987  0.6495 -0.8792
16699TIP3    H271589   1.809   2.258  16.201 -0.5894  1.5204  0.5720
16700TIP3   OH271590   1.841   1.297   5.190  1.0740 -0.6703 -0.1941
16700TIP3    H171591   1.825   1.385   5.223  1.3336 -0.5818 -0.3079
16700TIP3    H271592   1.869   1.247   5.267 -1.5269 -1.3066  0.4292
16701TIP3   OH271593   0.163   6.126   1.148 -0.3836  0.0278  0.0517
16701TIP3    H171594   0.244   6.166   1.180  0.1280 -1.1723  0.3073
16701TIP3    H271595   0.190   6.078   1.070 -1.3334  1.6313 -1.3273
16702TIP3   OH271596   6.629   4.200   4.465  0.8742 -0.5356 -0.1010
16702TIP3    H171597   6.607   4.107   4.472  2.6498 -0.8888  1.2976
16702TIP3    H271598   6.572   4.243   4.529  0.6566 -0.7639 -0.1377
16703TIP3   OH271599   3.235   6.120   5.350  0.4035  0.4006  0.2366
16703TIP3    H171600   3.302   6.052   5.349  0.7893  0.7672 -1.2607
16703TIP3    H271601   3.283   6.202   5.360 -0.0004  0.5442  1.2017
16704TIP3   OH271602   0.507   3.817   5.691 -0.2367 -0.1148  0.5154
16704TIP3    H171603   0.581   3.857   5.646  0.5215 -0.4270  1.4687
16704TIP3    H271604   0.541   3.735   5.726 -1.4307 -1.0220 -0.3135
16705TIP3   OH271605   0.919   1.789  14.483  0.5378 -0.1987 -0.0490
16705TIP3    H171606   0.998   1.747  14.516  0.5906 -0.6900 -0.7782
16705TIP3    H271607   0.927   1.783  14.388  0.4357  1.2477 -0.1732
16706TIP3   OH271608   1.261   1.314  14.545  0.1491  0.3553 -0.3808
16706TIP3    H171609   1.205   1.326  14.468  0.4805 -0.6305 -0.7959
16706TIP3    H271610   1.328   1.381  14.537 -0.6188  1.1751 -0.1863
16707TIP3   OH271611   1.784   1.244   5.862 -0.1168  0.3227  0.1802
16707TIP3    H171612   1.725   1.313   5.831  0.0412  0.4439  0.1449
16707TIP3    H271613   1.732   1.164   5.858 -0.2323  0.4049  0.0029
16708TIP3   OH271614   6.714   3.882   1.676  0.2794  0.2781 -0.2631
16708TIP3    H171615   6.662   3.953   1.637 -1.2627 -0.2688  0.7111
16708TIP3    H271616   6.687   3.804   1.628  1.5435  0.2405 -0.9409
16709TIP3   OH271617   2.550   3.383   4.266 -0.1072  0.0333 -0.1756
16709TIP3    H171618   2.596   3.326   4.327 -2.2737 -0.9568  0.6260
16709TIP3    H271619   2.605   3.384   4.188  1.3707 -0.8609  0.8158
16710TIP3   OH271620   4.486   0.207  16.399  0.0214  0.3123  0.1469
16710TIP3    H171621   4.532   0.247  16.473 -0.3043 -0.6160  0.8637
16710TIP3    H271622   4.544   0.221  16.324 -0.0360  2.0368  0.3717
16711TIP3   OH271623   0.612   0.395  16.881  0.3234 -0.2608  0.0853
16711TIP3    H171624   0.692   0.445  16.895 -0.3895  0.8477  0.2585
16711TIP3    H271625   0.544   0.442  16.930 -1.2312  0.9899 -2.9710
16712TIP3   OH271626   3.579   1.409  15.121  0.2109 -0.0703  0.3232
16712TIP3    H171627   3.578   1.441  15.211 -0.5950  1.2756 -0.1365
16712TIP3    H271628   3.529   1.327  15.124  0.5093 -0.2278  1.1597
16713TIP3   OH271629   0.362   3.999  15.218 -0.5251  0.2399 -0.0655
16713TIP3    H171630   0.373   4.002  15.313  0.3465  0.0040 -0.1501
16713TIP3    H271631   0.290   3.938  15.204  0.3223 -0.9216  0.3940
16714TIP3   OH271632   0.705   5.318   1.626  0.3453 -0.0331  0.5896
16714TIP3    H171633   0.687   5.225   1.609 -2.6277  0.8107 -1.7023
16714TIP3    H271634   0.638   5.345   1.688 -1.2353  1.3123 -1.5611
16715TIP3   OH271635   1.132   3.221  14.096  0.1281 -0.8373 -0.0828
16715TIP3    H171636   1.066   3.181  14.040 -0.1894 -0.4189 -0.0143
16715TIP3    H271637   1.158   3.152  14.156  0.9191 -1.4835 -1.1241
16716TIP3   OH271638   1.772   2.007  16.475  0.6298 -0.3994 -0.2011
16716TIP3    H171639   1.847   1.951  16.457  0.4506 -0.6166 -0.2776
16716TIP3    H271640   1.797   2.055  16.554  1.8437  1.3170 -1.5503
16717TIP3   OH271641   3.364   4.425  12.244 -0.0793 -0.3648 -0.0402
16717TIP3    H171642   3.278   4.455  12.213  0.3815 -0.6336 -1.6264
16717TIP3    H271643   3.426   4.454  12.177  1.2266  0.6351  1.5277
16718TIP3   OH271644   1.847   6.094   1.134 -0.2368  0.7927  0.5894
16718TIP3    H171645   1.804   6.151   1.197  0.5465  1.3616  0.6266
16718TIP3    H271646   1.833   6.005   1.167  1.3345  1.1341  2.3541
16719TIP3   OH271647   2.632   0.427  11.938  0.3294  0.6413 -0.0357
16719TIP3    H171648   2.651   0.398  12.027  0.3535  1.2549  0.1620
16719TIP3    H271649   2.659   0.354  11.882  0.5715  0.3658  0.4422
16720TIP3   OH271650   4.363   3.229   1.252 -0.7651 -0.1904  0.1437
16720TIP3    H171651   4.311   3.149   1.244 -1.2658  0.1380  0.1150
16720TIP3    H271652   4.335   3.284   1.179  1.8589 -1.2483 -1.8354
16721TIP3   OH271653   2.159   5.594   6.176 -0.5490  0.6145 -0.1092
16721TIP3    H171654   2.129   5.515   6.130  1.4629  0.6861 -1.7024
16721TIP3    H271655   2.124   5.585   6.264 -0.4609 -2.0185 -0.2572
16722TIP3   OH271656   4.907   0.495   2.508  0.3810 -0.7406  0.0626
16722TIP3    H171657   4.987   0.540   2.536 -0.0719 -0.3581  0.7538
16722TIP3    H271658   4.915   0.407   2.544  1.8457 -1.7062 -2.2893
16723TIP3   OH271659   4.421   4.449  12.180 -0.3446 -0.1777  0.3568
16723TIP3    H171660   4.344   4.392  12.175  0.3885 -1.1451 -0.2787
16723TIP3    H271661   4.450   4.459  12.089  0.4541 -0.0730  0.6106
16724TIP3   OH271662   2.712   2.536  13.639 -0.2067  0.3682 -0.4625
16724TIP3    H171663   2.701   2.571  13.727  3.0137  1.0434 -0.1986
16724TIP3    H271664   2.664   2.453  13.640 -1.2545  0.9365  1.5072
16725TIP3   OH271665   5.210   1.959   0.432 -0.3011 -0.2598 -0.5338
16725TIP3    H171666   5.214   1.869   0.401 -0.0733 -0.0872 -1.0376
16725TIP3    H271667   5.116   1.979   0.438 -0.3842 -1.0935  1.3333
16726TIP3   OH271668   2.079   5.005   3.880  0.4524 -0.3170  0.1350
16726TIP3    H171669   2.045   4.951   3.951  0.6856 -1.9668 -0.9532
16726TIP3    H271670   2.027   4.980   3.804  0.2194  1.4025 -0.3209
16727TIP3   OH271671   5.154   0.061   4.720 -0.0114 -0.0947  0.1476
16727TIP3    H171672   5.084   0.024   4.774 -1.0271 -0.4672 -1.3808
16727TIP3    H271673   5.234   0.041   4.769 -0.8169 -1.3477  1.0110
16728TIP3   OH271674   1.352   5.710   4.346 -0.0579  0.4293  0.1372
16728TIP3    H171675   1.360   5.736   4.438  0.6090  1.3418 -0.1648
16728TIP3    H271676   1.343   5.615   4.349 -0.5786  0.4963  1.1714
16729TIP3   OH271677   4.905   3.478   4.247  0.7915 -0.1092 -0.2015
16729TIP3    H171678   5.000   3.473   4.234  0.5429 -1.4239 -1.9787
16729TIP3    H271679   4.869   3.445   4.165 -1.1895 -1.3975  1.1134
16730TIP3   OH271680   5.196   2.872   3.749  0.1137  0.1181  0.3365
16730TIP3    H171681   5.219   2.817   3.824 -2.5154 -0.1072  1.0719
16730TIP3    H271682   5.156   2.950   3.788  1.6983  1.5668 -0.7746
16731TIP3   OH271683   1.123   4.724  11.517 -0.8487 -0.6523  0.3829
16731TIP3    H171684   1.081   4.730  11.603  1.0071 -0.9850  1.3605
16731TIP3    H271685   1.130   4.815  11.487 -2.3320 -0.5961  0.1164
16732TIP3   OH271686   0.148   0.969   1.141  0.3324  0.3247  0.3882
16732TIP3    H171687   0.105   1.045   1.182 -2.3187  1.3353 -3.7047
16732TIP3    H271688   0.091   0.895   1.163  1.5130 -0.0980  2.2388
16733TIP3   OH271689   2.253   3.894  11.585 -0.3778 -0.6558  0.0488
16733TIP3    H171690   2.208   3.971  11.550  1.1232 -0.5955 -1.9180
16733TIP3    H271691   2.333   3.888  11.533  0.4014 -2.5235  1.3747
16734TIP3   OH271692   6.429   4.543  14.137  0.2965  0.0233  0.1589
16734TIP3    H171693   6.394   4.503  14.217  0.1776  2.5361  1.4526
16734TIP3    H271694   6.351   4.562  14.085  0.0738  1.3548  0.9439
16735TIP3   OH271695   4.858   2.424  12.241  0.4493  0.2523 -0.0425
16735TIP3    H171696   4.786   2.368  12.271 -0.1766  0.5216 -1.0012
16735TIP3    H271697   4.937   2.380  12.272 -0.1421  0.7232  2.3770
16736TIP3   OH271698   1.223   5.999   1.054 -0.2723 -0.2180  0.3061
16736TIP3    H171699   1.198   5.972   1.142 -1.0519 -1.2785 -0.2239
16736TIP3    H271700   1.158   6.063   1.028  0.9770  1.4749  1.1567
16737TIP3   OH271701   3.217   0.532  16.112  0.1800  0.7976  0.4189
16737TIP3    H171702   3.200   0.438  16.103 -1.5120  1.0462  0.6795
16737TIP3    H271703   3.312   0.538  16.123  0.6169 -0.6866 -1.8175
16738TIP3   OH271704   2.361   5.424  11.769 -0.0436  0.5861  0.7668
16738TIP3    H171705   2.413   5.503  11.786 -0.2430  0.8034  0.3964
16738TIP3    H271706   2.384   5.400  11.679 -2.4879  2.2006 -0.4056
16739TIP3   OH271707   2.713   0.973  12.681 -0.0695 -0.1650 -0.3455
16739TIP3    H171708   2.696   0.966  12.587 -0.7087  1.0043 -0.3300
16739TIP3    H271709   2.635   0.936  12.723  0.2887 -0.8449 -0.2643
16740TIP3   OH271710   3.749   4.809  14.636 -0.4505 -0.1295 -0.4616
16740TIP3    H171711   3.705   4.828  14.718  3.6347  1.2940  1.6595
16740TIP3    H271712   3.699   4.857  14.570 -3.0900 -0.2568  1.2993
16741TIP3   OH271713   2.167   5.445   2.140  0.2594  0.4810 -0.3434
16741TIP3    H171714   2.195   5.537   2.144  1.4950  0.1188  0.0152
16741TIP3    H271715   2.184   5.419   2.049  2.6473 -0.1424  0.1918
16742TIP3   OH271716   0.714   6.393  14.283 -0.3313 -0.3933  0.5178
16742TIP3    H171717   0.731   6.487  14.294 -0.8841  0.5436 -4.2703
16742TIP3    H271718   0.801   6.353  14.290  0.3445  0.9010 -0.0288
16743TIP3   OH271719   5.769   2.588   5.907  0.7849 -0.5582  0.2836
16743TIP3    H171720   5.840   2.651   5.895 -0.7276  0.8711 -1.6894
16743TIP3    H271721   5.792   2.515   5.849 -0.1312  0.6587 -1.6919
16744TIP3   OH271722   3.123   4.784  14.111 -0.2387 -0.1557 -0.2248
16744TIP3    H171723   3.139   4.721  14.041  0.2832 -0.6548  0.3215
16744TIP3    H271724   3.028   4.796  14.112 -0.2127  0.2823 -1.3627
16745TIP3   OH271725   3.022   3.018   1.756 -0.4249 -0.0511  0.0737
16745TIP3    H171726   3.019   2.923   1.742  0.4390 -0.0362 -0.2174
16745TIP3    H271727   3.113   3.042   1.744 -0.9200  1.1146 -1.7609
16746TIP3   OH271728   1.291   0.344  11.780  0.1916  0.1400 -0.1177
16746TIP3    H171729   1.283   0.413  11.846 -0.9402  0.9684 -1.0750
16746TIP3    H271730   1.381   0.351  11.749  0.1211  1.1781 -0.1518
16747TIP3   OH271731   5.144   2.457   2.730  0.4684 -0.5055  0.1823
16747TIP3    H171732   5.114   2.368   2.747  0.5795 -0.4552  0.6457
16747TIP3    H271733   5.233   2.447   2.696  0.6549 -0.5500  0.6754
16748TIP3   OH271734   5.206   3.196   3.089  0.2394  0.1116  0.0346
16748TIP3    H171735   5.202   3.153   3.003 -1.7722  0.0097  0.1489
16748TIP3    H271736   5.259   3.274   3.073 -0.6697  0.4627 -1.4822
16749TIP3   OH271737   0.805   2.739   1.173 -0.2510 -0.1822  0.0869
16749TIP3    H171738   0.727   2.701   1.212 -0.0470  0.5813  1.3000
16749TIP3    H271739   0.809   2.703   1.085 -1.0248 -1.5490  0.5953
16750TIP3   OH271740   6.572   2.655   0.332  0.4598 -0.1258  0.0947
16750TIP3    H171741   6.591   2.724   0.269  2.4547  1.2034  2.0199
16750TIP3    H271742   6.479   2.666   0.352  0.6602  1.8740  0.1411
16751TIP3   OH271743   2.012   3.845  14.833  0.9904  0.5519 -0.1444
16751TIP3    H171744   1.966   3.807  14.908 -0.0095  1.7464 -0.1066
16751TIP3    H271745   2.031   3.935  14.861  1.7063  0.6333 -0.8741
16752TIP3   OH271746   6.481   1.341  13.477  0.1372 -0.0549 -0.1560
16752TIP3    H171747   6.434   1.259  13.492 -1.7963  0.7331 -1.4600
16752TIP3    H271748   6.418   1.409  13.497  0.5211  1.0632 -2.3626
16753TIP3   OH271749   4.214   1.917  14.351  0.4180  0.1214  0.3622
16753TIP3    H171750   4.266   1.900  14.429  1.9675 -0.3878 -0.7453
16753TIP3    H271751   4.166   1.835  14.335  0.8326 -0.1007  0.2479
16754TIP3   OH271752   2.510   4.049  11.137  0.0692  0.0892 -0.0467
16754TIP3    H171753   2.603   4.026  11.143  0.3689  1.0107 -0.8849
16754TIP3    H271754   2.464   3.966  11.152  1.0767 -0.8087 -1.5765
16755TIP3   OH271755   0.583   5.416   4.389 -0.2098 -0.0859  0.3116
16755TIP3    H171756   0.601   5.416   4.483  0.3203 -2.8882  0.2892
16755TIP3    H271757   0.599   5.326   4.361 -1.7431  0.3216 -2.2134
16756TIP3   OH271758   2.390   5.807  11.625  0.1631 -0.8889  0.3277
16756TIP3    H171759   2.325   5.854  11.676  0.1096 -0.9837  0.3459
16756TIP3    H271760   2.377   5.838  11.535  1.4721  0.6932  0.6239
16757TIP3   OH271761   0.851   5.071   5.849 -0.1126  0.1449 -0.0224
16757TIP3    H171762   0.775   5.128   5.861 -1.5288 -2.1319  3.2831
16757TIP3    H271763   0.816   4.992   5.809  1.2353  0.2347 -1.5228
16758TIP3   OH271764   5.592   0.924  12.182 -0.3255 -0.0477 -0.7354
16758TIP3    H171765   5.622   1.013  12.162  0.9681 -0.3850 -0.3972
16758TIP3    H271766   5.616   0.873  12.105 -0.0272 -0.3224 -0.4646
16759TIP3   OH271767   1.788   6.415   2.028 -0.3703 -0.6190 -0.1044
16759TIP3    H171768   1.761   6.327   2.000 -1.5123 -0.3335  0.0621
16759TIP3    H271769   1.769   6.418   2.122  1.6295 -0.8936  0.3659
16760TIP3   OH271770   2.481   5.172   3.067 -0.1875  0.2057  0.0741
16760TIP3    H171771   2.395   5.133   3.057  0.7903 -1.8328 -1.0761
16760TIP3    H271772   2.531   5.107   3.117  1.0856  0.6260 -0.6002
16761TIP3   OH271773   3.824   3.960  13.257 -0.0005  0.6391  0.2790
16761TIP3    H171774   3.787   3.941  13.171  0.2662  1.3915 -0.0067
16761TIP3    H271775   3.914   3.927  13.252 -0.2819 -0.2204  0.6152
16762TIP3   OH271776   0.648   4.514   1.534  0.1160  0.2166  0.3836
16762TIP3    H171777   0.689   4.539   1.617  0.6824  0.7002 -0.0310
16762TIP3    H271778   0.588   4.586   1.515 -1.4491 -0.8016  1.3190
16763TIP3   OH271779   5.584   2.533  14.482  0.4893 -0.2793  0.0331
16763TIP3    H171780   5.545   2.481  14.412 -0.3081  0.0832  0.1961
16763TIP3    H271781   5.672   2.552  14.451  0.0282  0.2046 -1.0674
16764TIP3   OH271782   2.518   0.113   4.438 -0.4108 -0.4692 -0.5750
16764TIP3    H171783   2.466   0.169   4.495  1.1435 -0.5323  0.9975
16764TIP3    H271784   2.596   0.165   4.418 -0.5694 -0.7562 -2.0372
16765TIP3   OH271785   0.687   5.902   0.279 -0.1676 -0.0766  0.4816
16765TIP3    H171786   0.705   5.835   0.345 -2.4118  0.6574  1.9552
16765TIP3    H271787   0.709   5.985   0.321  0.2608  0.2859 -0.4289
16766TIP3   OH271788   1.430   0.145  12.015  0.0121  0.0624 -0.2778
16766TIP3    H171789   1.518   0.176  12.034  0.5340 -1.7520  0.5130
16766TIP3    H271790   1.373   0.220  12.034  1.0129  0.1404  3.1897
16767TIP3   OH271791   2.742   2.178  13.395  0.0580 -0.5462  0.0226
16767TIP3    H171792   2.805   2.186  13.467  1.0625 -0.3273 -0.8526
16767TIP3    H271793   2.793   2.140  13.323 -1.1275 -1.5426 -0.3244
16768TIP3   OH271794   2.747   1.403  11.862 -0.5504 -0.1171  0.1423
16768TIP3    H171795   2.835   1.368  11.876  0.4665  2.5768  1.1582
16768TIP3    H271796   2.754   1.496  11.887 -2.9028  0.9847 -2.6940
16769TIP3   OH271797   6.412   3.965  14.743 -0.1673 -0.6592  0.9431
16769TIP3    H171798   6.362   4.014  14.808 -1.6188 -1.5719  0.5616
16769TIP3    H271799   6.475   3.914  14.794  0.9143  1.0113  1.3855
16770TIP3   OH271800   3.983   6.759  14.007 -0.4267  0.1338 -0.5450
16770TIP3    H171801   3.950   6.792  14.090  1.2369 -1.4240  0.8192
16770TIP3    H271802   4.072   6.731  14.026  0.9279  1.9567 -3.4632
16771TIP3   OH271803   1.516   4.202  12.010 -0.2136  0.1765 -0.1144
16771TIP3    H171804   1.561   4.280  12.045  0.8556 -0.4679 -0.0021
16771TIP3    H271805   1.523   4.137  12.080 -1.2074  0.0085 -0.1594
16772TIP3   OH271806   1.712   2.313  12.573  0.0185  0.0408  0.1245
16772TIP3    H171807   1.766   2.236  12.554 -1.6359 -1.0380 -0.4169
16772TIP3    H271808   1.642   2.311  12.507 -1.2384  0.8333  1.3602
16773TIP3   OH271809   0.439   5.716  12.226  0.6381 -0.1653 -0.4879
16773TIP3    H171810   0.522   5.719  12.178  0.9834  0.8746  0.1255
16773TIP3    H271811   0.383   5.780  12.181  0.8951  0.6644  0.3285
16774TIP3   OH271812   2.129   4.280  12.448  0.8415 -0.1653 -0.1295
16774TIP3    H171813   2.090   4.241  12.526  0.6465  1.4332  0.6334
16774TIP3    H271814   2.184   4.211  12.411  1.1112 -0.9026  1.5588
16775TIP3   OH271815   4.692   6.278   5.382  0.1603  0.0748  0.3312
16775TIP3    H171816   4.613   6.239   5.420 -0.3877 -0.3282 -1.1183
16775TIP3    H271817   4.748   6.299   5.457 -1.3013  0.3313  1.3983
16776TIP3   OH271818   4.121   4.042  15.270 -0.0871 -0.4123  0.2443
16776TIP3    H171819   4.181   3.968  15.277 -0.8537 -1.2174 -1.1410
16776TIP3    H271820   4.037   4.002  15.247 -0.5329  0.8687 -0.4552
16777TIP3   OH271821   3.212   6.280   0.904 -0.5309  0.0822  0.7428
16777TIP3    H171822   3.286   6.230   0.871 -0.7956  0.6750 -0.8222
16777TIP3    H271823   3.252   6.357   0.946 -0.2328  1.1064 -1.2843
16778TIP3   OH271824   6.115   4.892   5.600  0.5757 -0.4721  0.3725
16778TIP3    H171825   6.079   4.922   5.516 -0.4774 -2.2187  0.1656
16778TIP3    H271826   6.210   4.887   5.585  0.4078 -0.6994 -0.6834
16779TIP3   OH271827   3.156   1.708   3.506 -0.8703  0.1689 -0.1073
16779TIP3    H171828   3.103   1.650   3.560 -1.1333 -0.8272 -1.3759
16779TIP3    H271829   3.192   1.651   3.438  1.6150  0.8620  0.5312
16780TIP3   OH271830   6.697   0.397  15.927  0.6576  0.1963  0.3256
16780TIP3    H171831   6.759   0.371  15.995 -0.4686  1.3758  1.8734
16780TIP3    H271832   6.685   0.491  15.940 -0.2782  0.2774 -0.9430
16781TIP3   OH271833   4.756   6.256  12.667 -0.2657 -0.2521 -0.0311
16781TIP3    H171834   4.798   6.241  12.582 -1.2452 -1.5130 -0.3091
16781TIP3    H271835   4.829   6.267  12.728  0.4640 -0.7329 -0.7971
16782TIP3   OH271836   1.556   3.778  13.348 -0.1183  0.0194 -0.0887
16782TIP3    H171837   1.651   3.785  13.344  0.2947 -2.5209  2.0989
16782TIP3    H271838   1.529   3.844  13.412  0.4765 -0.6983  0.9297
16783TIP3   OH271839   0.970   5.038   1.171 -0.9916  0.2660 -0.5598
16783TIP3    H171840   1.030   4.971   1.205 -0.3700 -0.2689 -2.5455
16783TIP3    H271841   0.908   5.054   1.243  0.7468 -0.0932  1.1013
16784TIP3   OH271842   4.089   1.510   5.890 -0.7201  0.5204  0.4858
16784TIP3    H171843   4.164   1.505   5.949 -0.4435 -0.6245  0.0647
16784TIP3    H271844   4.082   1.603   5.868  1.5547  0.4922 -0.6557
16785TIP3   OH271845   0.430   3.130  11.757 -0.0437  0.0932  0.1583
16785TIP3    H171846   0.417   3.039  11.731 -0.0519  0.2979 -0.5650
16785TIP3    H271847   0.343   3.162  11.780  0.0914 -0.3634  1.3883
16786TIP3   OH271848   1.431   5.919   6.529 -0.6136  0.0610  0.5995
16786TIP3    H171849   1.426   5.868   6.609 -0.9273  0.0674  0.5872
16786TIP3    H271850   1.373   5.873   6.468 -1.1030  0.5734  0.6723
16787TIP3   OH271851   1.725   2.764   1.514 -0.3490  0.2353  0.3274
16787TIP3    H171852   1.718   2.838   1.574  2.1194 -0.1188  1.1858
16787TIP3    H271853   1.679   2.792   1.435 -3.2932  0.8913  2.1595
16788TIP3   OH271854   1.601   0.214  13.225 -0.4812  0.0868 -0.6961
16788TIP3    H171855   1.517   0.259  13.232 -1.0766 -0.9840 -0.7600
16788TIP3    H271856   1.666   0.285  13.224 -1.4617  1.0306 -2.1888
16789TIP3   OH271857   1.407   5.047   0.218 -0.4049  0.1113 -0.6302
16789TIP3    H171858   1.342   5.088   0.161 -0.4396 -0.2057 -0.8195
16789TIP3    H271859   1.375   5.064   0.307 -0.5262  0.3161 -0.7129
16790TIP3   OH271860   0.410   5.695  16.302 -0.0781 -0.0497  0.7091
16790TIP3    H171861   0.469   5.638  16.352 -0.4267 -1.5915 -0.5699
16790TIP3    H271862   0.348   5.635  16.261 -1.2994  1.3801  0.3859
16791TIP3   OH271863   5.005   1.690  15.620  0.5602  0.2208  0.2019
16791TIP3    H171864   4.993   1.733  15.705  0.5619  1.1260 -0.2495
16791TIP3    H271865   4.917   1.661  15.595  0.7646 -1.3605  1.1742
16792TIP3   OH271866   6.726   0.155  14.231  0.4525  0.2117  0.1570
16792TIP3    H171867   6.751   0.234  14.279  0.4444  0.2609  0.0811
16792TIP3    H271868   6.795   0.092  14.249  0.3831  0.1869  0.3386
16793TIP3   OH271869   3.896   6.728   5.561  0.2103  0.6613 -0.4074
16793TIP3    H171870   3.982   6.734   5.601  0.5357  0.4231 -1.0534
16793TIP3    H271871   3.862   6.817   5.562  0.4946  0.7687 -0.2197
16794TIP3   OH271872   3.636   6.478  16.644 -0.2685 -0.3822  0.2478
16794TIP3    H171873   3.652   6.425  16.722  3.9148  1.8036  1.2027
16794TIP3    H271874   3.711   6.459  16.587 -1.3722  0.6840 -1.6679
16795TIP3   OH271875   4.989   6.498  14.688 -0.1454  0.5113 -0.1531
16795TIP3    H171876   5.039   6.485  14.607 -0.1445 -0.1626 -0.0486
16795TIP3    H271877   4.989   6.412  14.730  0.3187  0.9759  0.8363
16796TIP3   OH271878   2.609   3.681  14.388 -0.1703 -0.0143 -0.0235
16796TIP3    H171879   2.701   3.702  14.404  0.1415 -0.2329 -1.3299
16796TIP3    H271880   2.561   3.724  14.458  0.9977 -0.6064  1.1733
16797TIP3   OH271881   0.475   2.064  13.732  0.4672 -0.1201 -0.1198
16797TIP3    H171882   0.545   2.000  13.746  0.0969 -0.2812  1.1825
16797TIP3    H271883   0.417   2.052  13.808 -1.5842 -0.7590 -1.6848
16798TIP3   OH271884   2.823   1.512  14.290  0.6921  0.6189 -0.6194
16798TIP3    H171885   2.906   1.549  14.259  0.6593  0.9642 -0.3009
16798TIP3    H271886   2.759   1.542  14.226  0.2792  3.0243  0.8116
16799TIP3   OH271887   5.083   6.271  12.617  0.7262  0.0501 -0.5483
16799TIP3    H171888   5.072   6.282  12.711  0.3678 -0.6084 -0.5105
16799TIP3    H271889   5.030   6.194  12.595  0.9067  0.1228 -1.2659
16800TIP3   OH271890   4.930   4.559   4.821  0.5072  0.0095 -0.2418
16800TIP3    H171891   4.952   4.473   4.858  0.1657 -0.2911 -0.7266
16800TIP3    H271892   4.914   4.614   4.898  0.1703 -0.5108  0.0716
16801TIP3   OH271893   4.950   5.036  15.321 -0.1230 -0.4233  0.3941
16801TIP3    H171894   4.999   5.092  15.261  0.0804 -1.0053  0.0133
16801TIP3    H271895   4.859   5.063  15.309  0.0923  0.7431  1.1937
16802TIP3   OH271896   4.599   0.088   3.643  0.0153  0.2355 -0.1471
16802TIP3    H171897   4.653   0.153   3.688 -0.3378 -0.2171  0.9771
16802TIP3    H271898   4.662   0.027   3.604  0.3796 -0.6417  1.6753
16803TIP3   OH271899   3.174   4.816   5.046  0.5790 -0.4226  0.2146
16803TIP3    H171900   3.130   4.896   5.075 -0.1777 -1.2891  1.5436
16803TIP3    H271901   3.145   4.803   4.956  0.9068  0.9080 -0.1131
16804TIP3   OH271902   2.274   6.758  17.109  0.3400  0.4191 -0.3364
16804TIP3    H171903   2.330   6.682  17.096  0.2558  0.4669 -1.0109
16804TIP3    H271904   2.326   6.832  17.077 -0.5989  0.2996 -2.2795
16805TIP3   OH271905   3.743   4.288  10.500 -0.1258  0.3492 -0.2747
16805TIP3    H171906   3.814   4.238  10.460  0.2843  1.4707 -0.9574
16805TIP3    H271907   3.719   4.354  10.435 -0.2493  1.4434  0.8434
16806TIP3   OH271908   4.419   3.964  15.771 -0.0049  0.1639  0.6357
16806TIP3    H171909   4.508   3.959  15.735 -1.1197  1.3789 -2.6210
16806TIP3    H271910   4.400   3.876  15.801  2.7416  0.1594  2.8140
16807TIP3   OH271911   3.464   5.429  17.164 -0.0684 -0.3847 -0.6179
16807TIP3    H171912   3.442   5.342  17.130 -0.3845 -0.9731  1.0067
16807TIP3    H271913   3.560   5.431  17.164 -0.0548 -0.0952 -2.1616
16808TIP3   OH271914   5.011   3.127  15.787 -0.1633  0.0269  0.0608
16808TIP3    H171915   4.964   3.156  15.709 -0.0587 -0.0789 -0.0436
16808TIP3    H271916   5.050   3.043  15.761 -2.0461 -1.2027  0.9604
16809TIP3   OH271917   3.984   1.548  11.896 -0.0211 -0.1337  0.2941
16809TIP3    H171918   3.968   1.516  11.807  1.8156  0.8856 -0.4619
16809TIP3    H271919   4.051   1.616  11.885  1.4583 -1.0983  2.6418
16810TIP3   OH271920   0.003   3.571   0.528  0.8090 -0.1838  0.6353
16810TIP3    H171921  -0.083   3.540   0.557  0.4282  1.0708  0.9129
16810TIP3    H271922   0.064   3.538   0.594  0.2561  0.6044  1.5737
16811TIP3   OH271923   0.033   6.532   4.590  0.1720 -0.0547  0.2492
16811TIP3    H171924  -0.029   6.491   4.529  0.3903  0.1856 -0.1337
16811TIP3    H271925   0.109   6.554   4.537 -0.4275  2.0332  0.1408
16812TIP3   OH271926   1.748   2.825  11.508 -0.6730 -0.6317  0.8197
16812TIP3    H171927   1.764   2.765  11.435 -1.3373 -0.1768  0.2883
16812TIP3    H271928   1.807   2.899  11.491 -0.2103 -0.9083  1.2084
16813TIP3   OH271929   4.841   4.058   0.615  0.2532 -0.5449  0.3093
16813TIP3    H171930   4.927   4.054   0.573  0.9720  2.2404  1.3499
16813TIP3    H271931   4.781   4.029   0.547  1.8558 -1.1503 -0.9306
16814TIP3   OH271932   3.388   3.447  11.296  0.3636  0.6072  0.2296
16814TIP3    H171933   3.292   3.453  11.292  0.4151  0.9726 -0.6621
16814TIP3    H271934   3.406   3.353  11.295  0.0764  0.5106 -2.0987
16815TIP3   OH271935   4.425   5.098  11.567 -0.0179 -0.1021 -0.4675
16815TIP3    H171936   4.416   5.135  11.655 -1.4339  1.4724 -1.2134
16815TIP3    H271937   4.471   5.015  11.580 -0.4528 -0.0432  1.7874
16816TIP3   OH271938   2.666   3.207  10.866 -0.0365  0.4248 -0.3538
16816TIP3    H171939   2.728   3.240  10.801  0.3848 -1.2020 -0.8325
16816TIP3    H271940   2.582   3.205  10.821 -0.1226  1.0842 -0.2295
16817TIP3   OH271941   0.487   1.751   4.560 -0.0246 -0.1280 -0.2623
16817TIP3    H171942   0.446   1.665   4.555 -2.3062  0.8834 -0.3063
16817TIP3    H271943   0.468   1.781   4.650  1.4126  0.0421  0.0082
16818TIP3   OH271944   1.329   6.263  12.897  0.3871 -0.2152 -0.2303
16818TIP3    H171945   1.402   6.323  12.914  0.9088 -1.0820  0.7442
16818TIP3    H271946   1.306   6.278  12.806  0.6831  1.2603 -0.0885
16819TIP3   OH271947   1.070   3.395  15.173 -0.3887  0.0974  0.2818
16819TIP3    H171948   1.086   3.307  15.209  0.1364 -1.0448 -2.5131
16819TIP3    H271949   0.990   3.385  15.122 -0.5665  1.3885  0.2935
16820TIP3   OH271950   4.388   2.264   3.359  0.0326  0.1203  0.1433
16820TIP3    H171951   4.416   2.352   3.336 -0.4699  0.1865 -0.2262
16820TIP3    H271952   4.355   2.227   3.277  1.8024 -1.0272 -0.1127
16821TIP3   OH271953   5.727   4.527  15.894 -0.3074  0.2643  0.0884
16821TIP3    H171954   5.665   4.568  15.834  0.1414  0.0482 -0.5369
16821TIP3    H271955   5.794   4.594  15.910 -0.5656  0.4153  0.5740
16822TIP3   OH271956   1.300   3.390   2.022 -0.6652  0.5737 -0.3378
16822TIP3    H171957   1.348   3.430   1.950  0.3084 -0.2551 -0.1774
16822TIP3    H271958   1.361   3.391   2.096 -1.2718  0.4607  0.1752
16823TIP3   OH271959   6.007   4.699  12.335 -0.3140 -0.3113 -0.2348
16823TIP3    H171960   6.053   4.649  12.267 -0.2444 -0.9804  0.2873
16823TIP3    H271961   6.064   4.693  12.412 -0.5097  0.2222 -0.0432
16824TIP3   OH271962   0.424   1.397  14.369  0.3619  0.4244  0.3398
16824TIP3    H171963   0.465   1.312  14.357 -0.1667  0.4121 -1.7081
16824TIP3    H271964   0.498   1.459  14.370  0.7557 -0.0333  1.9971
16825TIP3   OH271965   1.470   1.503   4.864 -0.0651  0.0643 -0.0300
16825TIP3    H171966   1.437   1.562   4.932  1.2379 -0.5296  1.1467
16825TIP3    H271967   1.391   1.457   4.833 -0.7091  0.4886  0.9255
16826TIP3   OH271968   6.251   3.250  16.457 -0.6466 -0.4599  0.1803
16826TIP3    H171969   6.183   3.264  16.392 -0.8734 -0.5731  0.3926
16826TIP3    H271970   6.204   3.243  16.540 -0.3866 -0.6661  0.3089
16827TIP3   OH271971   5.729   3.489   5.311  0.3066  0.7484  0.1942
16827TIP3    H171972   5.676   3.424   5.264 -0.1722  1.5384 -0.3935
16827TIP3    H271973   5.665   3.541   5.359  0.8188 -0.3051  2.1097
16828TIP3   OH271974   6.240   2.871   0.069 -0.1689 -0.7051  0.2354
16828TIP3    H171975   6.270   2.942   0.012  0.9131  1.4092  3.1337
16828TIP3    H271976   6.317   2.815   0.080  0.2525  0.0169  1.1148
16829TIP3   OH271977   6.129   6.471   3.755  0.3732  0.9302 -0.1609
16829TIP3    H171978   6.155   6.537   3.690  0.2765  1.7972  0.6556
16829TIP3    H271979   6.132   6.518   3.839  0.0752 -0.0505  0.4096
16830TIP3   OH271980   2.785   4.559  15.393  0.0238 -0.1811  0.1224
16830TIP3    H171981   2.794   4.520  15.306 -0.1575  0.9842 -0.4380
16830TIP3    H271982   2.783   4.485  15.452  0.9424 -0.9755 -0.7959
16831TIP3   OH271983   1.798   4.598  12.851 -0.0474 -0.1070  0.1591
16831TIP3    H171984   1.729   4.556  12.800 -0.4749  0.0594  0.5942
16831TIP3    H271985   1.840   4.525  12.898  2.0516 -0.6465 -2.3581
16832TIP3   OH271986   0.213   5.945   0.948 -0.0119  0.2623  0.4219
16832TIP3    H171987   0.167   5.977   0.871 -0.8731  1.7836  1.5029
16832TIP3    H271988   0.178   5.857   0.963  0.0699  0.0107 -0.8206
16833TIP3   OH271989   3.966   0.717   2.633 -0.1271  0.5709 -0.1065
16833TIP3    H171990   4.027   0.709   2.706 -2.0262 -1.0541  1.4211
16833TIP3    H271991   3.969   0.632   2.590 -0.0927  1.0397 -1.0548
16834TIP3   OH271992   1.776   6.525  11.953  0.0596 -0.1115 -0.2979
16834TIP3    H171993   1.689   6.535  11.914 -0.9057 -1.2604  1.3846
16834TIP3    H271994   1.761   6.465  12.027  2.2927 -0.3161  0.0368
16835TIP3   OH271995   4.741   0.905  14.231 -0.2831  0.5982 -0.1218
16835TIP3    H171996   4.761   0.812  14.237 -1.6607  0.2197 -0.9939
16835TIP3    H271997   4.694   0.925  14.313  1.3377  0.9160  0.7745
16836TIP3   OH271998   1.172   3.277   1.090 -0.1446 -0.1969 -0.2133
16836TIP3    H171999   1.111   3.329   1.141  0.3625  0.0117  0.1988
16836TIP3    H272000   1.118   3.230   1.027 -0.8448 -0.8816  0.8790
16837TIP3   OH272001   3.370   5.284   2.711 -0.1991  0.5032 -0.1410
16837TIP3    H172002   3.343   5.292   2.802  1.9864  1.2310  0.5068
16837TIP3    H272003   3.327   5.356   2.666 -0.5980  0.6582  0.4855
16838TIP3   OH272004   1.349   2.509   0.661  0.1003  0.2409 -0.1316
16838TIP3    H172005   1.261   2.548   0.663  0.3579  0.8227  1.2238
16838TIP3    H272006   1.402   2.570   0.611  0.5410  1.8013  2.1175
16839TIP3   OH272007   0.504   4.764  10.289  0.1017  0.0260 -0.7018
16839TIP3    H172008   0.586   4.750  10.337 -0.5333  1.8914  1.0172
16839TIP3    H272009   0.453   4.685  10.306  1.3546 -1.0131 -1.5152
16840TIP3   OH272010   6.104   3.044  15.661  0.3732  0.0139  0.4054
16840TIP3    H172011   6.083   3.043  15.568  1.3080 -0.9808  0.1797
16840TIP3    H272012   6.167   2.972  15.672  1.9126  1.4444  1.4157
16841TIP3   OH272013   0.086   1.047  15.582 -0.6376 -0.0644 -0.1325
16841TIP3    H172014   0.044   1.057  15.497 -0.1929 -0.4202 -0.4004
16841TIP3    H272015   0.164   0.995  15.564  0.5164  1.5076  0.1781
16842TIP3   OH272016   6.704   0.802   3.711 -0.1197  0.3388 -0.3743
16842TIP3    H172017   6.645   0.837   3.777 -0.7782  1.8115 -1.6721
16842TIP3    H272018   6.653   0.734   3.667 -0.0241  0.0189  0.0110
16843TIP3   OH272019   5.309   1.966  13.808  0.1646 -0.2328  0.3470
16843TIP3    H172020   5.361   1.953  13.728  0.3749  1.0747  0.2528
16843TIP3    H272021   5.322   1.885  13.858  2.3377  0.0381  0.3356
16844TIP3   OH272022   3.805   4.785  16.176 -0.8278  0.1525  0.3715
16844TIP3    H172023   3.793   4.876  16.204  1.0691  1.0364 -1.4372
16844TIP3    H272024   3.874   4.752  16.234 -0.9829  0.0864  0.5223
16845TIP3   OH272025   0.889   3.998   5.326 -0.0621 -0.3195 -0.0438
16845TIP3    H172026   0.905   4.090   5.345  1.6965 -0.7724  0.9109
16845TIP3    H272027   0.858   3.997   5.235  0.7382  1.1362 -0.3604
16846TIP3   OH272028   4.553   2.665  12.620 -1.0422 -1.2803 -0.0655
16846TIP3    H172029   4.547   2.605  12.546  2.8851 -0.1745 -1.5870
16846TIP3    H272030   4.584   2.611  12.693  0.1239 -1.5946 -0.7587
16847TIP3   OH272031   1.804   4.559   0.768 -0.6512 -0.2241 -0.5869
16847TIP3    H172032   1.843   4.490   0.822 -0.3039  0.8032  0.5276
16847TIP3    H272033   1.879   4.613   0.741 -1.0702  0.5791 -0.1733
16848TIP3   OH272034   4.738   1.604  15.577  0.5655 -0.0510  0.3554
16848TIP3    H172035   4.695   1.520  15.562  0.6660 -0.0008 -0.2357
16848TIP3    H272036   4.668   1.669  15.569  0.5668 -0.0456  0.3869
16849TIP3   OH272037   1.161   5.996   4.512  0.2249  0.4235  0.1235
16849TIP3    H172038   1.080   5.995   4.563  0.1826  1.7448  0.1170
16849TIP3    H272039   1.221   5.939   4.561 -1.4112 -2.5923 -1.1460
16850TIP3   OH272040   0.050   6.433  10.957  0.1204  0.6498 -0.0064
16850TIP3    H172041   0.046   6.374  10.882 -0.3670  1.7808 -0.8982
16850TIP3    H272042   0.143   6.434  10.980  0.1335 -0.4898  0.0647
16851TIP3   OH272043   4.744   6.125   5.853 -0.1493  0.3440 -0.1586
16851TIP3    H172044   4.762   6.153   5.763  0.4937  0.3613 -0.0286
16851TIP3    H272045   4.653   6.096   5.851 -0.2438  0.6587 -0.7372
16852TIP3   OH272046   6.674   4.811  16.462  0.1185  0.2112 -0.0545
16852TIP3    H172047   6.631   4.727  16.479 -0.8578  0.5284 -0.7945
16852TIP3    H272048   6.601   4.873  16.452  0.8346  1.2438  0.9241
16853TIP3   OH272049   2.588   5.813  14.433  0.0816  0.3232 -0.3019
16853TIP3    H172050   2.647   5.780  14.501 -0.6774  0.4612  0.4452
16853TIP3    H272051   2.645   5.860  14.373  0.9160 -0.7060 -0.3506
16854TIP3   OH272052   1.814   5.240  12.863 -0.1707 -0.1525  0.7197
16854TIP3    H172053   1.851   5.229  12.951  0.1112  1.2079  0.7911
16854TIP3    H272054   1.888   5.271  12.810 -0.3585 -0.8929  0.0117
16855TIP3   OH272055   5.979   5.133  13.767  0.3960  0.5245  0.2968
16855TIP3    H172056   6.042   5.175  13.708 -1.1589  1.8169 -0.5290
16855TIP3    H272057   6.005   5.163  13.854  0.8523  1.1408 -0.0431
16856TIP3   OH272058   2.827   4.375  10.389  0.0569  0.1623  0.2276
16856TIP3    H172059   2.816   4.322  10.468  1.8506 -0.1853  0.2830
16856TIP3    H272060   2.809   4.464  10.417  1.6386  0.1727  1.2888
16857TIP3   OH272061   5.285   5.891   3.350 -0.0072  0.2316 -0.3175
16857TIP3    H172062   5.283   5.846   3.435 -3.4984 -1.4613 -1.1230
16857TIP3    H272063   5.344   5.839   3.297  3.2979  2.0477  1.2443
16858TIP3   OH272064   3.913   6.823  10.347 -0.2797  0.1877  0.1121
16858TIP3    H172065   3.818   6.810  10.348 -0.1144 -1.1740 -0.0222
16858TIP3    H272066   3.939   6.809  10.438 -0.1149 -0.2169  0.0020
16859TIP3   OH272067   0.219   4.233   5.140  0.4209  0.2137 -0.4483
16859TIP3    H172068   0.198   4.189   5.223  2.3382  0.6447  0.3235
16859TIP3    H272069   0.166   4.188   5.075  0.0991 -1.2577  0.7676
16860TIP3   OH272070   0.505   2.121   3.738  0.1383  0.9813 -0.0436
16860TIP3    H172071   0.418   2.159   3.740  0.6054  2.1459 -0.7267
16860TIP3    H272072   0.502   2.049   3.801 -0.9794  1.7139  0.7725
16861TIP3   OH272073   6.413   5.375  16.481  0.0528 -0.0696  0.2587
16861TIP3    H172074   6.425   5.468  16.460  0.6635  0.0076  0.9091
16861TIP3    H272075   6.494   5.350  16.526 -0.1072 -0.9179  0.0853
16862TIP3   OH272076   0.916   6.525   4.751  0.0014 -0.7331  0.3467
16862TIP3    H172077   0.928   6.464   4.823 -0.7365 -1.2827  0.0213
16862TIP3    H272078   0.946   6.477   4.673 -1.9843 -1.2788 -0.1371
16863TIP3   OH272079   6.707   1.217   5.822 -0.1373 -0.2373 -0.0085
16863TIP3    H172080   6.684   1.177   5.738 -0.0025  0.3028 -0.3121
16863TIP3    H272081   6.776   1.161   5.857 -0.8226 -0.9860  0.1800
16864TIP3   OH272082   2.460   1.265   3.872  0.3066  0.2453  0.1298
16864TIP3    H172083   2.464   1.187   3.926  0.3424 -0.3363 -0.6852
16864TIP3    H272084   2.437   1.232   3.785  0.8459  1.0859 -0.3413
16865TIP3   OH272085   1.423   4.170   4.466 -0.3080 -0.6250  0.3532
16865TIP3    H172086   1.378   4.106   4.521  1.0481 -1.5007  0.4910
16865TIP3    H272087   1.504   4.126   4.439 -0.5858  0.0370 -1.7634
16866TIP3   OH272088   5.189   1.221  14.770  0.0633 -0.1018 -0.0660
16866TIP3    H172089   5.138   1.272  14.833 -0.9302 -0.3873 -0.6171
16866TIP3    H272090   5.267   1.274  14.754 -0.7821  1.0910 -0.3711
16867TIP3   OH272091   3.399   3.383   0.940 -0.0095 -0.3137  0.1904
16867TIP3    H172092   3.472   3.369   1.000 -0.4941  2.1229  1.4862
16867TIP3    H272093   3.438   3.377   0.853  1.4991 -0.2804  0.8329
16868TIP3   OH272094   6.306   3.438   2.630  0.0079  0.1496  0.1760
16868TIP3    H172095   6.337   3.410   2.543 -0.0812  0.8361 -0.0817
16868TIP3    H272096   6.386   3.449   2.681  0.2330  1.9642 -0.5029
16869TIP3   OH272097   5.673   5.394   0.717 -0.5368  0.6232  0.2449
16869TIP3    H172098   5.625   5.395   0.799 -0.4466 -0.1451  0.3127
16869TIP3    H272099   5.691   5.302   0.701  2.1003  0.9616  0.8950
16870TIP3   OH272100   4.264   0.722   0.834 -0.3381  0.5631 -0.6398
16870TIP3    H172101   4.294   0.722   0.743 -2.8870  0.3590 -1.5761
16870TIP3    H272102   4.172   0.750   0.829 -0.7313 -0.0349  1.8075
16871TIP3   OH272103   1.011   6.345   1.314 -0.4911  0.0224  0.6153
16871TIP3    H172104   0.929   6.306   1.344 -0.3471 -0.4745  0.3633
16871TIP3    H272105   1.079   6.292   1.353 -0.2976 -0.3581 -0.2128
16872TIP3   OH272106   5.632   1.245  11.365 -0.0748 -0.9102 -0.1134
16872TIP3    H172107   5.656   1.337  11.350 -1.4249 -0.3834  0.7967
16872TIP3    H272108   5.622   1.209  11.277 -1.2979  0.3160 -0.5162
16873TIP3   OH272109   1.489   3.941  13.112 -0.3464  0.3604  0.5751
16873TIP3    H172110   1.518   3.876  13.176  0.7336  0.9987  0.7517
16873TIP3    H272111   1.557   4.008  13.113 -0.8092  0.8690 -0.5319
16874TIP3   OH272112   2.473   3.845  14.563  0.4453  0.1397 -0.5293
16874TIP3    H172113   2.546   3.899  14.593  0.3018  0.4467 -0.7347
16874TIP3    H272114   2.399   3.870  14.619  0.3627  0.2013 -0.6638
16875TIP3   OH272115   6.121   3.880   0.155  0.4627  0.2998 -0.1512
16875TIP3    H172116   6.066   3.820   0.104 -3.1172  1.8001  1.5299
16875TIP3    H272117   6.149   3.829   0.231 -1.5095  0.2886  0.6381
16876TIP3   OH272118   5.182   5.989  11.408  0.4017  0.1152 -0.6294
16876TIP3    H172119   5.140   6.072  11.430 -0.3822 -0.3465 -0.3334
16876TIP3    H272120   5.185   5.941  11.491  0.8622 -0.1497 -0.7969
16877TIP3   OH272121   1.013   0.540  16.565  0.8777  0.2528 -0.3175
16877TIP3    H172122   1.040   0.457  16.525  1.5288  0.6982 -0.8234
16877TIP3    H272123   0.933   0.564  16.518 -0.3639 -0.9680  1.0448
16878TIP3   OH272124   3.636   0.932  12.392 -0.1006  0.1814 -0.0960
16878TIP3    H172125   3.610   0.854  12.441 -1.3790  0.3528 -0.4455
16878TIP3    H272126   3.553   0.973  12.368  0.5542  1.6454  0.0655
16879TIP3   OH272127   2.489   5.329  12.743  0.5095 -0.5828  0.0407
16879TIP3    H172128   2.581   5.303  12.733  0.8308  0.2688  0.6274
16879TIP3    H272129   2.468   5.307  12.834  0.7624  0.9902  0.5316
16880TIP3   OH272130   3.372   5.980   1.000 -0.7487  0.0497 -0.0151
16880TIP3    H172131   3.334   6.019   1.079 -0.6238 -1.4346  0.8307
16880TIP3    H272132   3.467   5.990   1.012 -0.7593  0.9276 -0.5934
16881TIP3   OH272133   4.218   1.835   4.129 -0.9176 -0.2329 -0.2614
16881TIP3    H172134   4.250   1.901   4.192  0.0849 -1.3551  0.4481
16881TIP3    H272135   4.136   1.804   4.167 -0.1448 -1.1544  0.7157
16882TIP3   OH272136   3.765   2.742  10.580  0.0355  0.4248 -0.5351
16882TIP3    H172137   3.828   2.806  10.545  0.5945  0.8313  1.1129
16882TIP3    H272138   3.798   2.657  10.550  1.2341  0.6559  0.0724
16883TIP3   OH272139   0.572   4.442   4.148  0.2301  0.0394  0.0141
16883TIP3    H172140   0.557   4.468   4.057 -2.3697  0.4384  0.4765
16883TIP3    H272141   0.587   4.524   4.194  1.5188 -0.1602 -0.0233
16884TIP3   OH272142   1.414   1.499   5.328  0.8034 -0.8076 -0.6536
16884TIP3    H172143   1.486   1.557   5.352 -0.1373 -0.3618  1.3074
16884TIP3    H272144   1.364   1.488   5.409 -0.0659 -2.9222 -1.4085
16885TIP3   OH272145   5.834   6.380   0.864  0.4165  0.0860 -0.4003
16885TIP3    H172146   5.765   6.414   0.807  0.4883 -0.1366 -0.6248
16885TIP3    H272147   5.799   6.390   0.952  0.7217  1.4091 -0.3994
16886TIP3   OH272148   6.644   0.663  15.977 -0.0167  0.7719 -0.7522
16886TIP3    H172149   6.563   0.645  15.930  0.2594  0.1630 -1.0052
16886TIP3    H272150   6.616   0.684  16.066 -0.4108 -0.1646 -0.6414
16887TIP3   OH272151   5.006   3.763  14.943  0.4378 -0.7168  0.0485
16887TIP3    H172152   4.917   3.782  14.915 -0.2142 -0.3811  2.2170
16887TIP3    H272153   5.061   3.797  14.872 -1.0288  1.6259 -0.0447
16888TIP3   OH272154   0.166   4.052  12.942 -0.0735  0.4291  0.2808
16888TIP3    H172155   0.261   4.066  12.943  0.1630 -0.8234 -1.2032
16888TIP3    H272156   0.156   3.957  12.942 -1.2752  0.5242 -1.0130
16889TIP3   OH272157   0.893   2.879  15.710  0.3067 -0.2050 -0.0699
16889TIP3    H172158   0.931   2.792  15.695 -0.3483 -0.7845  1.4260
16889TIP3    H272159   0.841   2.896  15.631 -0.6292 -1.7893  0.1413
16890TIP3   OH272160   2.729   5.709   0.571 -0.2323  0.2260  0.1919
16890TIP3    H172161   2.745   5.624   0.611  0.6623  0.1063 -0.3956
16890TIP3    H272162   2.760   5.773   0.635  0.0173  0.0772  0.2201
16891TIP3   OH272163   2.545   6.127  16.378 -0.0167  0.4799 -0.3236
16891TIP3    H172164   2.590   6.211  16.377  1.5930 -0.3104  0.5677
16891TIP3    H272165   2.601   6.071  16.433 -0.1731 -1.6337 -2.1831
16892TIP3   OH272166   3.823   3.770  11.219 -0.2764  0.0108 -0.2955
16892TIP3    H172167   3.890   3.768  11.287 -2.1049  0.7294  1.6503
16892TIP3    H272168   3.752   3.715  11.253 -0.2329 -1.8590 -2.8969
16893TIP3   OH272169   4.066   5.473   1.484  0.3557 -0.1667 -0.2252
16893TIP3    H172170   4.017   5.438   1.410 -0.5463 -1.3986  0.9008
16893TIP3    H272171   4.114   5.398   1.520  2.4235  0.8275 -0.7515
16894TIP3   OH272172   2.891   3.087   1.258 -0.0879 -0.1228 -0.5172
16894TIP3    H172173   2.939   3.147   1.201  0.2080 -0.0259 -0.1762
16894TIP3    H272174   2.850   3.144   1.323 -1.1889 -0.1513 -1.1681
16895TIP3   OH272175   1.534   0.850   4.114 -0.6722 -0.0815 -0.4923
16895TIP3    H172176   1.526   0.766   4.157 -0.8034 -0.2759 -0.8925
16895TIP3    H272177   1.521   0.915   4.183  1.6368 -0.3632  0.2944
16896TIP3   OH272178   0.679   4.621  11.295  0.0232  0.3227  0.7489
16896TIP3    H172179   0.603   4.641  11.349  1.3908  1.9061  2.2246
16896TIP3    H272180   0.691   4.699  11.241  0.2958 -0.1167  0.1707
16897TIP3   OH272181   0.234   3.548   2.129 -0.0345  0.0082  0.5597
16897TIP3    H172182   0.209   3.515   2.215 -2.7919  1.4339  0.4209
16897TIP3    H272183   0.231   3.471   2.072  0.6649 -0.7345  1.4927
16898TIP3   OH272184   6.643   5.070  11.586 -0.9869  0.3021  0.0087
16898TIP3    H172185   6.606   4.982  11.578 -0.3111  0.0189 -0.1466
16898TIP3    H272186   6.701   5.079  11.510 -0.1769  0.4327  0.6155
16899TIP3   OH272187   3.576   4.168  11.014 -0.3364 -0.2970 -0.2083
16899TIP3    H172188   3.553   4.111  10.941 -0.1183  0.0837 -0.5817
16899TIP3    H272189   3.564   4.257  10.980 -0.3872 -0.1194  0.2697
16900TIP3   OH272190   3.709   4.578  15.029  0.4494  0.1234  1.0807
16900TIP3    H172191   3.660   4.660  15.027  0.3748  0.0723  0.5913
16900TIP3    H272192   3.792   4.598  14.987  1.0971  0.3515  2.4047
16901TIP3   OH272193   3.149   5.378   3.289 -0.1453  0.0774 -0.0792
16901TIP3    H172194   3.181   5.466   3.307 -1.2800  0.8668 -1.5989
16901TIP3    H272195   3.190   5.322   3.355  1.1410  1.6290  0.4852
16902TIP3   OH272196   5.328   4.667  13.906 -0.5011  0.5335  0.0744
16902TIP3    H172197   5.290   4.726  13.971  0.1394  0.7916  0.2192
16902TIP3    H272198   5.255   4.609  13.880 -0.7252  0.3401  1.1126
16903TIP3   OH272199   1.316   3.130   1.286  0.7920 -0.4782 -0.0291
16903TIP3    H172200   1.354   3.212   1.316  1.8411  0.1090 -2.6804
16903TIP3    H272201   1.252   3.156   1.220  0.0364 -1.7367  0.1746
16904TIP3   OH272202   4.700   0.412  13.452 -0.1255  0.1442  0.1825
16904TIP3    H172203   4.714   0.319  13.434 -0.3954  0.2016 -0.3854
16904TIP3    H272204   4.787   0.448  13.466  0.0890  0.0081 -0.6927
16905TIP3   OH272205   3.597   2.134  16.777 -0.1979  0.1821  0.1824
16905TIP3    H172206   3.678   2.096  16.741 -0.6475  0.3345 -1.0542
16905TIP3    H272207   3.542   2.150  16.700 -0.7662  1.6122  0.8568
16906TIP3   OH272208   0.957   3.816   4.615 -0.3391 -0.1053  0.1763
16906TIP3    H172209   1.026   3.808   4.680 -1.5014 -1.6182  1.3036
16906TIP3    H272210   1.002   3.814   4.531  1.2540  2.3990  0.8592
16907TIP3   OH272211   5.558   4.272  16.976  0.0421  0.1500 -0.2528
16907TIP3    H172212   5.565   4.368  16.973  1.4553  0.0906  0.4746
16907TIP3    H272213   5.635   4.241  16.927 -1.0599 -0.6249 -1.5503
16908TIP3   OH272214   2.801   4.607   4.181 -0.4946  0.4099 -0.0622
16908TIP3    H172215   2.881   4.581   4.136  0.1126  1.7365  0.2090
16908TIP3    H272216   2.783   4.535   4.242 -0.3331 -0.5653 -1.1280
16909TIP3   OH272217   1.587   4.080   4.855 -0.2887  0.0774  0.7774
16909TIP3    H172218   1.537   4.162   4.849 -0.7223 -0.2099  0.4180
16909TIP3    H272219   1.652   4.097   4.923 -1.3023  0.2334  1.7362
16910TIP3   OH272220   3.527   6.662   2.228 -0.3871 -0.4784 -0.1929
16910TIP3    H172221   3.453   6.697   2.278 -0.4542 -0.3428 -0.3847
16910TIP3    H272222   3.514   6.568   2.228 -1.2820 -0.3652 -1.3545
16911TIP3   OH272223   5.634   5.855  10.510  0.0689 -0.2944 -0.1145
16911TIP3    H172224   5.568   5.852  10.441  0.5632 -1.1186 -0.5677
16911TIP3    H272225   5.690   5.780  10.493 -0.9764 -1.7996  2.3834
16912TIP3   OH272226   2.346   5.940  13.338  0.0277  1.4525  0.3286
16912TIP3    H172227   2.365   6.012  13.278 -0.4758  0.3157 -1.2988
16912TIP3    H272228   2.432   5.907  13.363  0.2600  1.5774 -0.2755
16913TIP3   OH272229   1.725   2.078  15.933  0.5396  0.0733 -0.1601
16913TIP3    H172230   1.630   2.065  15.928  0.6156 -0.1460 -1.3894
16913TIP3    H272231   1.737   2.137  16.008 -0.7119  1.4286 -0.9606
16914TIP3   OH272232   0.911   2.223  13.244 -0.5667 -0.6712 -1.0407
16914TIP3    H172233   0.988   2.225  13.186 -1.5293  0.4294 -2.3705
16914TIP3    H272234   0.937   2.168  13.318  2.0008  0.8158 -0.7325
16915TIP3   OH272235   2.986   1.381   3.907  0.8369 -0.7923  0.7473
16915TIP3    H172236   2.951   1.303   3.865 -0.3079  0.7306 -1.3168
16915TIP3    H272237   2.955   1.375   3.998 -0.0235 -2.2658  0.3886
16916TIP3   OH272238   2.289   0.581   6.237 -0.5168 -0.1742  0.5423
16916TIP3    H172239   2.211   0.607   6.188 -0.6107 -0.2632  0.6423
16916TIP3    H272240   2.353   0.650   6.219 -0.4215 -0.3981 -0.0090
16917TIP3   OH272241   0.857   5.492  11.458  0.0279 -0.3129 -0.5309
16917TIP3    H172242   0.862   5.579  11.419  0.5896 -0.8877 -1.8006
16917TIP3    H272243   0.782   5.451  11.417 -0.6574 -0.2094  0.5747
16918TIP3   OH272244   0.985   6.285   5.206 -0.7499 -0.4412  0.3755
16918TIP3    H172245   0.915   6.228   5.236 -1.7978  1.3067  1.3780
16918TIP3    H272246   1.058   6.266   5.265 -1.3427 -0.2211  1.2045
16919TIP3   OH272247   3.211   3.787  12.710 -0.6203 -0.0161  0.5517
16919TIP3    H172248   3.230   3.704  12.754 -0.1470  0.1009  0.5756
16919TIP3    H272249   3.294   3.812  12.668  0.1800  1.9044  2.9972
16920TIP3   OH272250   5.450   6.166  14.540  0.1570 -0.2450  0.1545
16920TIP3    H172251   5.418   6.248  14.579  0.0189 -0.6426  0.9104
16920TIP3    H272252   5.446   6.104  14.612 -1.3205 -1.3424 -0.8067
16921TIP3   OH272253   5.474   5.871  11.418 -0.4318  0.0884  0.3329
16921TIP3    H172254   5.514   5.859  11.504  1.0068  0.4394 -0.2521
16921TIP3    H272255   5.397   5.814  11.418 -0.4372  0.0760  1.8328
16922TIP3   OH272256   1.803   4.050   3.515 -0.0855 -0.3478 -0.3007
16922TIP3    H172257   1.804   4.074   3.423 -0.0127 -1.0295 -0.4844
16922TIP3    H272258   1.867   3.979   3.522  0.1273 -0.1049  0.3314
16923TIP3   OH272259   1.416   1.631  12.863  0.2879 -0.3481 -0.0473
16923TIP3    H172260   1.473   1.664  12.793  1.3342 -3.2284 -0.6965
16923TIP3    H272261   1.328   1.640  12.828  0.8153 -2.1273 -2.0448
16924TIP3   OH272262   2.910   5.696  15.022 -0.2719 -0.5999 -0.1402
16924TIP3    H172263   2.817   5.695  15.048 -0.4017 -2.2710 -0.5418
16924TIP3    H272264   2.909   5.734  14.934 -0.8052 -2.0080 -0.7786
16925TIP3   OH272265   1.416   2.886   6.031 -0.2268  0.4414  0.0572
16925TIP3    H172266   1.438   2.954   5.968  1.0088  0.1949  0.1900
16925TIP3    H272267   1.434   2.804   5.985  2.4143  0.2602  1.2451
16926TIP3   OH272268   6.427   5.842  12.397 -0.7330 -0.0616 -0.6969
16926TIP3    H172269   6.490   5.831  12.327  0.5726 -2.0410  0.7040
16926TIP3    H272270   6.459   5.917  12.447 -0.8220  0.3944 -1.3161
16927TIP3   OH272271   4.666   2.385  11.776  0.4569 -0.3451 -0.6249
16927TIP3    H172272   4.668   2.311  11.837 -0.0580 -1.8315 -2.3285
16927TIP3    H272273   4.757   2.397  11.750  0.2800 -2.2249 -2.3753
16928TIP3   OH272274   3.913   1.849  15.955 -0.4544 -0.6504  0.2849
16928TIP3    H172275   3.965   1.884  16.028 -0.0039 -0.9052  0.0884
16928TIP3    H272276   3.836   1.810  15.998 -1.2974  1.1119  0.4690
16929TIP3   OH272277   3.751   2.346   2.601  0.2494  0.1711 -0.2576
16929TIP3    H172278   3.748   2.274   2.664  0.5553  0.0133 -0.4194
16929TIP3    H272279   3.660   2.360   2.576  0.0825  0.4789  0.4912
16930TIP3   OH272280   3.562   5.979  15.645 -0.4463  0.4834 -0.5458
16930TIP3    H172281   3.619   5.905  15.625 -1.4333 -0.2181 -0.8475
16930TIP3    H272282   3.586   6.046  15.582 -0.3516 -0.0268 -1.0682
16931TIP3   OH272283   4.576   4.504   1.102 -0.1379 -0.2265 -0.3998
16931TIP3    H172284   4.641   4.466   1.044 -0.2250 -0.3202 -0.4373
16931TIP3    H272285   4.543   4.580   1.055 -0.2456 -0.3318 -0.4980
16932TIP3   OH272286   3.542   0.533  16.700  0.1633 -0.1921 -0.0429
16932TIP3    H172287   3.586   0.607  16.657 -1.8069  1.5004  0.6877
16932TIP3    H272288   3.457   0.568  16.726 -0.6883 -2.6466  0.6947
16933TIP3   OH272289   5.413   0.715   5.883 -0.2865  0.4478 -0.4273
16933TIP3    H172290   5.339   0.686   5.936  0.9091 -1.7438  0.1618
16933TIP3    H272291   5.440   0.798   5.922 -1.8908  0.8849 -0.1655
16934TIP3   OH272292   5.345   2.018   2.822  0.0230  0.3510 -0.0172
16934TIP3    H172293   5.403   2.053   2.890 -0.9872  0.8767  0.5948
16934TIP3    H272294   5.304   1.941   2.863 -0.1356  0.3124 -0.2470
16935TIP3   OH272295   3.316   3.588   5.574  0.3820 -0.2676 -0.2009
16935TIP3    H172296   3.280   3.530   5.640 -0.6159 -0.9576 -1.3016
16935TIP3    H272297   3.356   3.660   5.623 -0.1186 -0.8802  1.1332
16936TIP3   OH272298   0.252   3.276  16.328  0.0598  0.1423 -0.2887
16936TIP3    H172299   0.166   3.276  16.286 -0.3650 -1.4373  0.5031
16936TIP3    H272300   0.252   3.354  16.384 -0.2633  0.9658 -1.4146
16937TIP3   OH272301   5.201   3.521  12.516  0.5080 -0.0801  0.0323
16937TIP3    H172302   5.132   3.489  12.458  2.2344 -0.5009 -1.9105
16937TIP3    H272303   5.207   3.615  12.497  0.5030 -0.0540  0.1595
16938TIP3   OH272304   3.055   3.533   2.546 -0.4346 -0.4631 -0.2330
16938TIP3    H172305   3.106   3.551   2.467  0.1463 -0.3660  0.1589
16938TIP3    H272306   3.019   3.618   2.571 -1.1567 -0.6049 -0.7510
16939TIP3   OH272307   2.764   0.705   5.709 -0.0635  0.0212 -0.2824
16939TIP3    H172308   2.795   0.795   5.717 -0.8662  0.2115  0.8585
16939TIP3    H272309   2.792   0.662   5.789 -1.6511 -0.1182  0.2279
16940TIP3   OH272310   3.318   3.700   4.207 -0.4541  0.0487 -0.6827
16940TIP3    H172311   3.366   3.765   4.156 -0.5750  1.8536  1.3463
16940TIP3    H272312   3.332   3.726   4.298  1.1547 -3.9535  0.4234
16941TIP3   OH272313   4.426   5.869  16.309 -0.0166 -0.2480  0.0663
16941TIP3    H172314   4.444   5.783  16.273 -0.5866  0.0031 -0.8584
16941TIP3    H272315   4.512   5.907  16.326  0.2699 -0.4647 -0.8438
16942TIP3   OH272316   0.787   4.014  13.131  0.4645 -0.2532 -0.3620
16942TIP3    H172317   0.763   4.083  13.193 -0.3749  0.6905 -1.6766
16942TIP3    H272318   0.742   3.936  13.162  1.1785 -0.1598  0.9774
16943TIP3   OH272319   1.542   4.701   4.831  0.6261  0.3853 -1.0403
16943TIP3    H172320   1.532   4.696   4.735  0.6643  1.3054 -1.0952
16943TIP3    H272321   1.636   4.717   4.844  0.9649 -1.5557 -0.7631
16944TIP3   OH272322   1.659   6.633   5.335 -0.8340  0.0674 -0.4751
16944TIP3    H172323   1.648   6.634   5.240 -0.2104 -1.0007 -0.5833
16944TIP3    H272324   1.721   6.703   5.353  1.1592 -1.4171 -1.1968
16945TIP3   OH272325   5.949   5.742   2.589 -0.2608 -0.0484 -0.1252
16945TIP3    H172326   5.885   5.779   2.650  1.4091 -1.6283  2.7991
16945TIP3    H272327   6.015   5.811   2.579  0.5256 -0.4977  1.6406
16946TIP3   OH272328   5.512   4.319   1.127  0.0351  0.5212  0.4039
16946TIP3    H172329   5.471   4.376   1.192 -1.8498  0.0356 -0.3080
16946TIP3    H272330   5.590   4.284   1.171 -0.0988  1.7626  1.6689
16947TIP3   OH272331   4.361   4.692  11.225 -0.0440 -0.6963 -0.4377
16947TIP3    H172332   4.442   4.693  11.174  0.2951 -0.2799  0.1021
16947TIP3    H272333   4.389   4.669  11.314 -0.2652  1.1202  0.1490
16948TIP3   OH272334   6.027   1.103  11.298  0.4630  0.6621  0.0770
16948TIP3    H172335   6.084   1.107  11.221  0.2810 -0.7298 -0.1555
16948TIP3    H272336   6.080   1.061  11.365 -0.2566 -0.6864 -0.1548
16949TIP3   OH272337   3.173   5.494  16.103 -0.2293  0.2365 -0.3502
16949TIP3    H172338   3.078   5.501  16.093 -0.3492 -0.7700 -0.1217
16949TIP3    H272339   3.206   5.492  16.013 -0.4308  0.5410 -0.4331
16950TIP3   OH272340   5.217   3.781  12.479 -0.5964  0.0988 -0.4030
16950TIP3    H172341   5.200   3.823  12.564 -0.0086 -0.0567 -0.2006
16950TIP3    H272342   5.290   3.830  12.443 -0.0819 -0.5669 -0.2903
16951TIP3   OH272343   5.961   3.569   0.808 -0.7783 -0.9395 -0.6123
16951TIP3    H172344   5.883   3.603   0.853 -1.3252 -0.3301 -1.9695
16951TIP3    H272345   6.015   3.646   0.791 -0.6974 -1.1265 -1.2189
16952TIP3   OH272346   4.823   5.520  13.445  0.1186 -0.3043 -0.0336
16952TIP3    H172347   4.779   5.574  13.510  1.6804  0.3211  0.5423
16952TIP3    H272348   4.823   5.432  13.483 -0.1219 -0.2001  0.2127
16953TIP3   OH272349   5.358   4.279  11.974  0.0710  0.1462  0.0414
16953TIP3    H172350   5.354   4.185  11.989  1.0595  0.2128  0.8446
16953TIP3    H272351   5.316   4.292  11.889 -0.9332 -0.9012  0.3583
16954TIP3   OH272352   2.384   4.466   5.306 -0.1612  0.2823  0.1120
16954TIP3    H172353   2.409   4.554   5.334 -0.5443  0.2112  0.6987
16954TIP3    H272354   2.349   4.478   5.218 -0.8079  0.8189  0.4299
16955TIP3   OH272355   3.533   6.423   3.321  0.2636  0.2808 -0.1804
16955TIP3    H172356   3.554   6.513   3.344  2.5051 -0.0413 -0.6713
16955TIP3    H272357   3.558   6.415   3.229 -1.5670 -0.3986 -0.6534
16956TIP3   OH272358   1.154   2.417   3.504 -0.0487  0.0408 -0.1013
16956TIP3    H172359   1.181   2.447   3.591  0.5055  1.9310 -0.8797
16956TIP3    H272360   1.064   2.448   3.495 -1.8111 -3.9388  1.4252
16957TIP3   OH272361   5.077   4.866   2.636 -0.1572  0.3938 -0.0314
16957TIP3    H172362   4.991   4.905   2.620 -1.7655 -1.7558  2.4667
16957TIP3    H272363   5.058   4.789   2.689  3.2431 -1.0065 -0.6312
16958TIP3   OH272364   5.643   2.824  12.469  0.2768 -0.7035 -0.0888
16958TIP3    H172365   5.694   2.883  12.414 -2.1952  1.2710 -0.4660
16958TIP3    H272366   5.681   2.738  12.454  3.4535  0.6002 -0.2473
16959TIP3   OH272367   2.949   2.492   4.366  0.1091  0.1997 -0.1681
16959TIP3    H172368   2.927   2.422   4.304  2.5610  0.4285 -1.4124
16959TIP3    H272369   3.039   2.475   4.391  0.1400  1.8362  1.0155
16960TIP3   OH272370   4.809   0.313  15.520 -0.5455 -0.5440  0.6248
16960TIP3    H172371   4.871   0.257  15.474 -2.5629 -1.7039 -0.8607
16960TIP3    H272372   4.775   0.371  15.452 -1.6562 -0.4747  1.2179
16961TIP3   OH272373   2.139   1.220   2.227  0.4900  0.3545 -0.0001
16961TIP3    H172374   2.046   1.236   2.245  0.8950  0.7670  1.9735
16961TIP3    H272375   2.185   1.284   2.280  1.9259  2.5220 -3.5293
16962TIP3   OH272376   5.200   1.278  14.465  0.2528 -0.1607  0.0533
16962TIP3    H172377   5.207   1.194  14.418  0.9061  1.3593 -2.7641
16962TIP3    H272378   5.109   1.305  14.452 -0.1326 -0.6715  1.5005
16963TIP3   OH272379   2.241   1.971  16.830  0.3449 -0.6185 -0.4040
16963TIP3    H172380   2.279   2.027  16.762 -0.0983 -0.2833 -0.3848
16963TIP3    H272381   2.274   2.007  16.912  0.2860 -0.5571 -0.4068
16964TIP3   OH272382   5.254   4.372  11.711 -0.3614 -0.1461 -0.4938
16964TIP3    H172383   5.215   4.333  11.633  2.8904  0.4402 -2.6215
16964TIP3    H272384   5.181   4.411  11.758 -2.5050 -0.7773 -3.0886
16965TIP3   OH272385   3.382   2.826  16.883  0.4202  0.2272  0.0036
16965TIP3    H172386   3.296   2.819  16.927  1.3516  0.3177  1.9491
16965TIP3    H272387   3.427   2.745  16.908  2.0711  1.5881  1.7907
16966TIP3   OH272388   4.507   4.409  14.675  0.7647 -0.0322 -0.0130
16966TIP3    H172389   4.504   4.371  14.763 -1.5575 -1.1121 -0.4896
16966TIP3    H272390   4.501   4.503  14.690  1.7592 -0.1069  1.0225
16967TIP3   OH272391   6.545   0.312  15.036  0.5042  0.7356  0.3166
16967TIP3    H172392   6.582   0.372  14.971 -1.7956  1.8427 -0.0967
16967TIP3    H272393   6.476   0.363  15.079 -0.8918 -1.2955  0.6357
16968TIP3   OH272394   2.463   3.034   3.622  0.2263  0.3234 -0.5082
16968TIP3    H172395   2.501   3.047   3.535  0.5995  0.8355 -0.2734
16968TIP3    H272396   2.502   2.951   3.653  0.5849  0.4657 -0.5713
16969TIP3   OH272397   0.201   4.645   4.083  0.2669 -0.5133 -0.1042
16969TIP3    H172398   0.122   4.679   4.125  0.0169  0.0407 -1.0031
16969TIP3    H272399   0.258   4.622   4.157 -0.3942 -0.1216  0.5504
16970TIP3   OH272400   0.821   0.251  16.076  0.4707 -1.0698  0.9640
16970TIP3    H172401   0.857   0.211  15.997  0.4766 -0.5655  0.7057
16970TIP3    H272402   0.849   0.194  16.147  3.3750  0.2598  1.0139
16971TIP3   OH272403   5.623   0.056   3.599  0.6277  0.3872 -0.1818
16971TIP3    H172404   5.651  -0.021   3.551  2.2815  0.5113  0.5233
16971TIP3    H272405   5.602   0.024   3.687  0.1673  0.5717 -0.2177
16972TIP3   OH272406   5.904   5.906   2.244  0.3088  0.1597  0.0631
16972TIP3    H172407   5.853   5.831   2.213  0.1505  0.3383 -0.1035
16972TIP3    H272408   5.965   5.925   2.173 -0.5377  1.0296 -0.4558
16973TIP3   OH272409   6.699   0.372  11.562  0.7730 -0.3788  0.1701
16973TIP3    H172410   6.630   0.328  11.612  0.6950  0.4956  0.8434
16973TIP3    H272411   6.662   0.458  11.541  1.4826 -0.0803  0.1292
16974TIP3   OH272412   5.546   2.775  11.998  0.1722 -0.1745  0.1215
16974TIP3    H172413   5.486   2.716  12.044 -1.2724  1.8395  1.0062
16974TIP3    H272414   5.606   2.806  12.066  2.2385 -2.0627 -0.7300
16975TIP3   OH272415   0.596   4.221  16.740 -0.5075 -0.0487  0.6100
16975TIP3    H172416   0.646   4.146  16.772 -1.8071 -1.0045  0.4505
16975TIP3    H272417   0.651   4.259  16.671  0.6270 -0.2044  1.3910
16976TIP3   OH272418   6.836   4.217   0.297  0.6038 -0.4744 -0.0426
16976TIP3    H172419   6.924   4.224   0.334 -0.2811 -1.2614  2.4047
16976TIP3    H272420   6.810   4.308   0.278  1.2895 -0.0669  0.8973
16977TIP3   OH272421   6.440   4.742   3.202  0.7012  0.5481 -0.0008
16977TIP3    H172422   6.387   4.684   3.147  0.6876  0.2983  0.2764
16977TIP3    H272423   6.390   4.753   3.282  1.4123 -0.3133  0.5780
16978TIP3   OH272424   5.382   6.660   3.404  0.4223  0.3702 -0.3181
16978TIP3    H172425   5.478   6.658   3.405  0.4268 -2.7074  0.3932
16978TIP3    H272426   5.357   6.676   3.496  0.2498  0.4950 -0.3854
16979TIP3   OH272427   5.194   3.001  14.551  0.6444 -0.5437 -0.2994
16979TIP3    H172428   5.288   3.010  14.537  0.5945 -1.3622 -1.3084
16979TIP3    H272429   5.159   3.090  14.540  1.2830 -0.2547 -0.0153
16980TIP3   OH272430   2.049   2.768   4.892  0.3000  0.2309 -0.0720
16980TIP3    H172431   1.984   2.705   4.861 -0.3352  0.7856  0.0927
16980TIP3    H272432   2.043   2.763   4.988 -0.4723  1.2418 -0.0531
16981TIP3   OH272433   5.781   6.362  15.078 -0.6415  0.0351  0.4704
16981TIP3    H172434   5.765   6.301  15.150  2.5345 -1.3387  0.1695
16981TIP3    H272435   5.806   6.444  15.121 -2.4914  0.4610  0.8539
16982TIP3   OH272436   3.857   0.708  15.667 -0.0810 -0.2404 -0.1677
16982TIP3    H172437   3.838   0.723  15.574  2.9943 -0.5898 -0.9656
16982TIP3    H272438   3.915   0.632  15.667  0.3427  0.0374  2.0021
16983TIP3   OH272439   3.881   0.335   1.777  0.4055  0.3672  0.4845
16983TIP3    H172440   3.845   0.401   1.836 -1.4152  1.8290 -2.0888
16983TIP3    H272441   3.973   0.359   1.767  0.1795  1.4450  0.9150
16984TIP3   OH272442   2.248   6.668  10.466  0.1409 -0.0517  0.1332
16984TIP3    H172443   2.343   6.674  10.456  0.0674 -1.7653 -2.9162
16984TIP3    H272444   2.214   6.736  10.408 -0.4582 -0.4758 -0.0189
16985TIP3   OH272445   2.202   5.847   6.096 -0.0505 -0.0206 -0.3567
16985TIP3    H172446   2.171   5.909   6.162 -1.4578 -0.2061 -0.7916
16985TIP3    H272447   2.169   5.762   6.126 -0.9036 -0.0761 -1.3809
16986TIP3   OH272448   2.647   2.508  10.877  0.5398  0.2416 -0.6645
16986TIP3    H172449   2.603   2.588  10.904 -0.7232 -0.8580  0.7603
16986TIP3    H272450   2.684   2.473  10.959  0.6358 -0.8607 -1.1567
16987TIP3   OH272451   0.568   3.312   0.993 -0.3497 -0.0361  0.3673
16987TIP3    H172452   0.552   3.382   0.929 -0.8239 -0.9686 -0.5748
16987TIP3    H272453   0.620   3.248   0.945 -1.9207 -1.4196  0.4143
16988TIP3   OH272454   3.282   2.851  14.877  0.1927  0.0474  0.5093
16988TIP3    H172455   3.189   2.838  14.899 -0.0426 -0.7652 -0.8765
16988TIP3    H272456   3.291   2.946  14.868 -1.2839  0.0292 -2.3197
16989TIP3   OH272457   5.404   0.248   0.873  0.4547  0.1536  1.0243
16989TIP3    H172458   5.449   0.281   0.795 -0.1994 -0.6746  0.2733
16989TIP3    H272459   5.326   0.302   0.881 -0.7157 -1.2416 -0.3160
16990TIP3   OH272460   6.582   2.586   3.253  0.1307  0.0702 -0.2354
16990TIP3    H172461   6.613   2.652   3.191  1.2335 -0.2438 -0.0377
16990TIP3    H272462   6.656   2.525   3.262 -0.8203 -1.1381 -0.3337
16991TIP3   OH272463   0.742   2.882  11.524  0.2858  0.0220 -0.2157
16991TIP3    H172464   0.708   2.967  11.551  1.4139 -0.0193  1.4505
16991TIP3    H272465   0.774   2.841  11.604  2.6695 -0.6508 -1.4113
16992TIP3   OH272466   6.769   0.537  13.213 -0.7084  0.7162 -0.1730
16992TIP3    H172467   6.852   0.536  13.165  0.0855  0.4151  1.1621
16992TIP3    H272468   6.703   0.550  13.145  0.1438 -2.0033 -1.6583
16993TIP3   OH272469   3.549   4.982  12.264  0.1235  0.4825 -0.0301
16993TIP3    H172470   3.613   4.925  12.306  1.0890  1.7927  0.3293
16993TIP3    H272471   3.555   4.960  12.171 -1.1660 -1.5731  0.3114
16994TIP3   OH272472   1.893   3.512   5.423  0.2597  0.6350  0.7255
16994TIP3    H172473   1.939   3.594   5.442  0.1167  0.7390  0.6219
16994TIP3    H272474   1.944   3.445   5.469 -0.2230  0.9158  1.7001
16995TIP3   OH272475   1.313   5.109   5.571  0.1480 -0.0491 -0.3189
16995TIP3    H172476   1.223   5.088   5.547  0.8320 -0.6181 -2.6447
16995TIP3    H272477   1.349   5.026   5.603 -0.6225  0.6012  2.4935
16996TIP3   OH272478   4.953   1.983  12.704  0.1712 -0.0677  0.2552
16996TIP3    H172479   4.858   1.990  12.705  0.0684 -1.1480  0.1874
16996TIP3    H272480   4.974   1.927  12.779  0.5964 -1.1759 -0.6587
16997TIP3   OH272481   3.038   2.083  11.419 -0.5981 -0.4377 -0.2464
16997TIP3    H172482   3.131   2.077  11.397 -0.7849 -0.1555 -1.1379
16997TIP3    H272483   3.020   2.003  11.468  0.4688  0.2167  1.2879
16998TIP3   OH272484   1.961   3.958  15.248 -0.1976  0.2406  0.6205
16998TIP3    H172485   2.029   3.938  15.312 -0.6395  2.6735  1.9618
16998TIP3    H272486   1.927   3.872  15.222  1.9203 -0.9437  1.4799
16999TIP3   OH272487   0.418   6.020  10.761 -0.1082  0.1089  0.8417
16999TIP3    H172488   0.507   6.040  10.732  0.0073 -1.8263 -0.3649
16999TIP3    H272489   0.379   5.972  10.688 -2.2848  1.1746  1.2124
17000TIP3   OH272490   2.985   5.647   3.120  0.1610  0.3184 -0.3791
17000TIP3    H172491   3.078   5.655   3.101  0.4929 -0.5720  0.7227
17000TIP3    H272492   2.951   5.588   3.053 -0.0688  2.1917 -2.0040
17001TIP3   OH272493   0.858   5.336  14.741 -0.0518 -0.0326 -0.2934
17001TIP3    H172494   0.930   5.375  14.791  2.0247 -3.3836 -0.3755
17001TIP3    H272495   0.868   5.372  14.653  2.9304 -1.7837 -0.8365
17002TIP3   OH272496   0.949   0.131   2.902 -0.2237 -0.4259  0.2692
17002TIP3    H172497   0.959   0.127   2.807 -0.0962 -2.1590  0.3252
17002TIP3    H272498   1.034   0.102   2.936 -1.4262 -3.6947  0.8351
17003TIP3   OH272499   3.468   6.081  13.537  0.1121  0.3940 -0.0742
17003TIP3    H172500   3.439   6.003  13.585 -0.5475  0.5106 -0.2638
17003TIP3    H272501   3.528   6.047  13.471  1.3746  0.2849  1.0880
17004TIP3   OH272502   5.726   3.460   1.421 -0.1378 -0.4030 -0.3383
17004TIP3    H172503   5.701   3.413   1.341  0.0119  0.3109 -0.8108
17004TIP3    H272504   5.815   3.490   1.405 -0.0727 -0.3360  0.1366
17005TIP3   OH272505   5.003   1.258   5.692  0.3145  0.4389 -0.2216
17005TIP3    H172506   5.082   1.212   5.665  0.8434  1.2915 -0.1736
17005TIP3    H272507   4.940   1.241   5.622  0.7044  0.1829 -0.5177
17006TIP3   OH272508   4.848   3.654  16.288  0.3387  0.2948  0.2659
17006TIP3    H172509   4.753   3.646  16.299  0.0662  2.1357 -0.3783
17006TIP3    H272510   4.878   3.693  16.370  1.0790 -3.1300  1.8000
17007TIP3   OH272511   0.762   0.642  15.178 -0.3353 -0.1346  0.0733
17007TIP3    H172512   0.696   0.572  15.175  0.3810 -0.8658  0.8744
17007TIP3    H272513   0.845   0.596  15.167  0.0393  0.8355 -1.4766
17008TIP3   OH272514   4.145   6.383   4.863 -0.4916 -0.4814 -0.0423
17008TIP3    H172515   4.167   6.472   4.891 -3.7496  0.4286  0.1414
17008TIP3    H272516   4.085   6.351   4.931  0.2606 -2.6819 -0.3396
17009TIP3   OH272517   2.761   6.753   2.908 -0.0030 -0.2825  0.3440
17009TIP3    H172518   2.822   6.803   2.854  1.6271 -1.7958  0.7044
17009TIP3    H272519   2.749   6.806   2.986  0.5822  0.2022  0.1152
17010TIP3   OH272520   3.972   3.265  13.640 -0.2781  0.1049 -0.1130
17010TIP3    H172521   3.889   3.281  13.685 -0.3011 -1.2561  0.3946
17010TIP3    H272522   4.001   3.351  13.610 -0.9907  0.8496  1.2476
17011TIP3   OH272523   4.474   0.650  15.629  0.2728  0.2240 -0.9799
17011TIP3    H172524   4.454   0.556  15.632  0.9950  0.0736 -0.5757
17011TIP3    H272525   4.515   0.663  15.544 -1.2646  0.4873 -1.7088
17012TIP3   OH272526   0.252   6.807   2.572 -0.5753  0.0190  0.2210
17012TIP3    H172527   0.247   6.899   2.600  1.2816  0.1659  0.1679
17012TIP3    H272528   0.163   6.787   2.541 -0.7132  2.2287 -1.0446
17013TIP3   OH272529   2.780   0.685   0.124  0.0289  0.1676 -0.1761
17013TIP3    H172530   2.761   0.725   0.039 -0.6511  0.9683  0.3347
17013TIP3    H272531   2.703   0.632   0.144 -0.0325  0.3751  0.1574
17014TIP3   OH272532   6.702   0.363   4.635  0.9231 -0.3307  0.2748
17014TIP3    H172533   6.753   0.378   4.714  1.4374 -0.2391 -0.0693
17014TIP3    H272534   6.701   0.448   4.590 -0.5124 -0.0229  0.8344
17015TIP3   OH272535   6.718   5.174  12.944 -0.1304 -0.0886  0.1522
17015TIP3    H172536   6.736   5.080  12.939 -1.6212 -0.3620 -0.6289
17015TIP3    H272537   6.644   5.187  12.886  1.1048  1.8736 -1.0776
17016TIP3   OH272538   1.788   2.960  13.732  0.1450 -0.7977 -0.6016
17016TIP3    H172539   1.871   2.968  13.685  0.8269  1.5389  0.8424
17016TIP3    H272540   1.723   2.950  13.663  1.2276  1.2358 -2.0479
17017TIP3   OH272541   5.102   1.736  11.483 -0.2678  0.3771  0.3822
17017TIP3    H172542   5.053   1.753  11.403 -2.6983  1.7029  2.0221
17017TIP3    H272543   5.054   1.665  11.526  0.0314  0.7778  1.4059
17018TIP3   OH272544   5.865   0.169  14.458  0.0871  0.6699  0.1808
17018TIP3    H172545   5.819   0.105  14.403  0.1832  0.7720 -0.0219
17018TIP3    H272546   5.938   0.120  14.495  0.1015  0.6344  0.1069
17019TIP3   OH272547   1.386   0.206  14.257  0.1658 -0.5314  0.1394
17019TIP3    H172548   1.317   0.162  14.207  2.4734 -1.3253 -2.6061
17019TIP3    H272549   1.452   0.228  14.192  1.8047  1.7092  2.3779
17020TIP3   OH272550   2.071   5.168   2.835  0.1228  0.0883  0.1816
17020TIP3    H172551   2.027   5.246   2.870 -0.0943  0.2790 -0.5000
17020TIP3    H272552   1.999   5.109   2.811  0.2847 -0.2939  0.6143
17021TIP3   OH272553   4.919   2.036   0.039 -0.1743 -0.1287 -0.4476
17021TIP3    H172554   4.962   1.965  -0.009  0.0911 -0.7037  0.6147
17021TIP3    H272555   4.978   2.111   0.027  1.2367 -0.9272  1.0535
17022TIP3   OH272556   4.577   5.534   5.317 -0.1285  0.2261  0.1547
17022TIP3    H172557   4.635   5.508   5.246  1.0573  0.1787  1.1154
17022TIP3    H272558   4.635   5.570   5.384 -1.3571  1.6568  0.5022
17023TIP3   OH272559   0.606   3.787   4.958 -0.2960  0.2911 -0.4068
17023TIP3    H172560   0.581   3.868   4.915  2.2175  2.8030  2.3597
17023TIP3    H272561   0.552   3.783   5.037 -1.4310 -1.6288 -1.1999
17024TIP3   OH272562   2.854   0.901   1.972 -0.1044  0.3694  0.3060
17024TIP3    H172563   2.793   0.865   2.036  0.4384  1.3671  1.4369
17024TIP3    H272564   2.804   0.971   1.928 -0.5114 -0.3864 -0.4645
17025TIP3   OH272565   2.692   2.817  13.167  0.0455 -0.6313 -0.1305
17025TIP3    H172566   2.613   2.867  13.147  0.8577  0.3948 -0.8509
17025TIP3    H272567   2.758   2.883  13.189  0.8899 -1.4348 -0.1872
17026TIP3   OH272568   4.393   2.905   1.119 -1.0152 -0.0419 -0.2742
17026TIP3    H172569   4.467   2.964   1.131 -1.1540 -0.1541  1.4189
17026TIP3    H272570   4.428   2.818   1.136 -1.6832 -0.0167  1.3646
17027TIP3   OH272571   2.011   5.299  15.395 -0.1311 -0.0274  0.1819
17027TIP3    H172572   1.970   5.376  15.356 -1.4820 -1.0767 -0.5785
17027TIP3    H272573   2.098   5.329  15.421 -1.2965  2.2768  1.7631
17028TIP3   OH272574   0.007   4.906  15.560 -0.0417  0.3309 -0.1990
17028TIP3    H172575  -0.005   4.874  15.650  1.2397  1.4775  0.4229
17028TIP3    H272576  -0.066   4.869  15.511 -0.4908 -0.7281  1.2130
17029TIP3   OH272577   6.722   6.117   5.290 -0.1022 -0.0269 -0.3819
17029TIP3    H172578   6.732   6.040   5.345 -0.8981  0.3709  0.3324
17029TIP3    H272579   6.633   6.148   5.307  0.4440  1.4608 -0.1200
17030TIP3   OH272580   4.846   4.708   5.058  0.0918  0.2439  0.0955
17030TIP3    H172581   4.804   4.761   5.125  0.3225 -0.1428  0.5494
17030TIP3    H272582   4.830   4.617   5.085  1.4648  0.0897  0.4332
17031TIP3   OH272583   2.523   0.170  14.578 -0.6541 -0.2606 -0.0831
17031TIP3    H172584   2.576   0.232  14.527  0.2994 -0.8926  0.1181
17031TIP3    H272585   2.441   0.217  14.594 -0.2945  0.6133 -0.6917
17032TIP3   OH272586   2.030   2.642  16.019 -0.2276  0.2889 -0.4523
17032TIP3    H172587   2.090   2.608  16.085  1.3506  0.8266 -1.5442
17032TIP3    H272588   2.024   2.735  16.037  0.7868  0.5775 -1.4272
17033TIP3   OH272589   0.357   0.978  15.767 -0.5177 -0.1769  0.2272
17033TIP3    H172590   0.349   0.954  15.675 -0.2973  0.3855  0.0583
17033TIP3    H272591   0.407   1.060  15.766  1.4334 -1.2852  0.9628
17034TIP3   OH272592   3.104   0.814  15.996  0.0638 -0.2176 -0.1542
17034TIP3    H172593   3.142   0.874  16.060  0.0046 -0.0376 -0.2888
17034TIP3    H272594   3.017   0.795  16.031  0.4695 -1.0648  0.4431
17035TIP3   OH272595   2.621   2.331   4.018  0.6566 -0.0232 -0.0172
17035TIP3    H172596   2.604   2.364   4.106  0.2612  1.3089 -0.5756
17035TIP3    H272597   2.716   2.322   4.013  0.6583 -0.4617  0.6592
17036TIP3   OH272598   1.448   3.157   1.673 -0.0046  0.1606  0.2337
17036TIP3    H172599   1.542   3.143   1.666  0.0815  0.4979  0.6675
17036TIP3    H272600   1.426   3.130   1.762 -0.4194 -0.4570 -0.0478
17037TIP3   OH272601   5.844   3.911  15.018  0.2085  0.1145  0.2397
17037TIP3    H172602   5.886   3.989  15.055  3.8101 -0.8129 -1.4736
17037TIP3    H272603   5.830   3.853  15.093  0.2909  1.1722  1.1066
17038TIP3   OH272604   2.132   6.414   4.026 -0.9260 -0.1667 -0.2731
17038TIP3    H172605   2.050   6.434   3.983  0.0389  0.9216 -1.6938
17038TIP3    H272606   2.198   6.464   3.978  0.3324  0.5150  1.9781
17039TIP3   OH272607   4.444   5.199   4.258  0.4049 -0.2409 -0.0489
17039TIP3    H172608   4.486   5.272   4.213  0.4591 -0.8929 -1.0709
17039TIP3    H272609   4.504   5.125   4.246  0.8600 -0.2375  1.8565
17040TIP3   OH272610   3.349   1.621   0.924 -0.0629 -0.1240  0.6383
17040TIP3    H172611   3.337   1.655   0.836 -0.1583 -0.7733  0.4013
17040TIP3    H272612   3.316   1.531   0.921  1.5446 -0.7456  0.8808
17041TIP3   OH272613   1.374   6.253   2.434 -0.1528  0.1824 -0.2459
17041TIP3    H172614   1.321   6.291   2.365  0.4383  0.3707 -0.6087
17041TIP3    H272615   1.358   6.158   2.428  0.1703  0.1590 -0.8873
17042TIP3   OH272616   3.624   0.226  14.689 -0.2301  0.0726  0.2113
17042TIP3    H172617   3.621   0.321  14.701 -1.0736  0.0720  0.0947
17042TIP3    H272618   3.591   0.212  14.600 -0.5780 -0.3572  0.4005
17043TIP3   OH272619   4.348   4.905   5.477  0.1297  0.1860  0.1511
17043TIP3    H172620   4.439   4.901   5.446  0.0662  1.0599 -0.2117
17043TIP3    H272621   4.312   4.980   5.430 -0.9460 -0.4986 -0.1336
17044TIP3   OH272622   0.586   2.864   5.587 -1.3296 -0.4991 -0.0121
17044TIP3    H172623   0.571   2.953   5.556 -0.9465  0.0347  1.3027
17044TIP3    H272624   0.679   2.861   5.609 -0.8907 -1.7937 -1.7684
17045TIP3   OH272625   2.772   1.182  12.845  0.2688 -0.2075  0.0060
17045TIP3    H172626   2.731   1.121  12.784 -0.0128 -1.6145  1.5387
17045TIP3    H272627   2.704   1.203  12.908  1.1194 -0.4697  1.0463
17046TIP3   OH272628   5.228   6.248  12.873  0.7487 -0.0354  0.1578
17046TIP3    H172629   5.166   6.320  12.882 -0.2059 -0.7451 -0.5486
17046TIP3    H272630   5.246   6.221  12.964  1.0403  1.0023  0.4230
17047TIP3   OH272631   3.480   5.737  11.643  0.3000  0.4557  0.0936
17047TIP3    H172632   3.393   5.708  11.671  1.1501 -1.4363  0.9312
17047TIP3    H272633   3.493   5.820  11.688 -1.2508  1.0623 -0.4668
17048TIP3   OH272634   0.494   4.949   6.456  0.4545 -0.4625  0.1297
17048TIP3    H172635   0.531   5.013   6.517 -1.1657  0.4797  0.1923
17048TIP3    H272636   0.532   4.865   6.483 -0.0197 -0.0391  2.2864
17049TIP3   OH272637   2.285   6.537  11.841  0.1105 -0.1993  0.2183
17049TIP3    H172638   2.374   6.513  11.865  0.4819  0.7348 -0.1632
17049TIP3    H272639   2.287   6.633  11.836 -1.0136 -0.1481  0.5872
17050TIP3   OH272640   1.500   4.012   2.110  0.2239 -0.3053 -0.3858
17050TIP3    H172641   1.484   3.920   2.089  1.1609 -0.2890 -1.2100
17050TIP3    H272642   1.431   4.034   2.173 -0.5144 -1.3366 -0.8044
17051TIP3   OH272643   1.054   2.027   0.315  0.1544 -0.3921  0.2996
17051TIP3    H172644   1.133   2.035   0.261  1.0594 -0.6955  1.5280
17051TIP3    H272645   0.990   1.985   0.258  0.5939  0.6106 -0.9880
17052TIP3   OH272646   4.410   1.532  15.358  0.2236 -0.1879  0.1493
17052TIP3    H172647   4.459   1.609  15.328  1.0048 -0.2560  1.2071
17052TIP3    H272648   4.446   1.459  15.308  0.9270 -0.1720  0.6269
17053TIP3   OH272649   2.425   4.723   4.527 -0.6686  0.6718 -0.1784
17053TIP3    H172650   2.467   4.647   4.488  0.4021  1.8567 -1.4813
17053TIP3    H272651   2.385   4.769   4.453 -1.4303  1.2998  0.5995
17054TIP3   OH272652   3.352   3.411  14.695  0.2344 -0.6542 -0.0303
17054TIP3    H172653   3.280   3.456  14.739  1.4760  1.4201  0.0011
17054TIP3    H272654   3.336   3.424  14.602  0.7606  0.1604 -0.0136
17055TIP3   OH272655   0.799   1.501   2.947 -0.1300 -0.7192  0.7927
17055TIP3    H172656   0.841   1.444   3.011 -0.7340  2.2826  4.2097
17055TIP3    H272657   0.711   1.463   2.935 -0.7136 -0.3933  3.3777
17056TIP3   OH272658   0.096   6.254   6.002 -0.5985 -0.0685 -0.0006
17056TIP3    H172659   0.032   6.240   5.932  2.0139 -1.0084 -2.3691
17056TIP3    H272660   0.118   6.166   6.032 -0.9433  0.2855  1.3531
17057TIP3   OH272661   3.091   3.912   4.057 -0.4130 -0.0765 -0.1367
17057TIP3    H172662   3.158   3.945   3.996 -0.3417  0.3126  0.1499
17057TIP3    H272663   3.015   3.895   4.002 -0.2727  0.0463 -0.3725
17058TIP3   OH272664   6.352   0.223   6.189  0.0466 -0.2936 -0.2383
17058TIP3    H172665   6.343   0.147   6.132 -1.1227 -1.8975  1.9337
17058TIP3    H272666   6.342   0.189   6.277  1.6944  2.0874  0.9966
17059TIP3   OH272667   3.037   5.568  13.090 -0.2757  0.1732 -0.2867
17059TIP3    H172668   2.966   5.583  13.027 -0.6217 -0.1630  0.0180
17059TIP3    H272669   3.000   5.507  13.154 -0.0784  0.8659  0.5032
17060TIP3   OH272670   5.458   5.339   2.777  0.4466 -0.1264  0.3062
17060TIP3    H172671   5.498   5.424   2.757  0.0342  0.5376  2.1171
17060TIP3    H272672   5.470   5.328   2.871  1.4558 -2.6196 -0.0268
17061TIP3   OH272673   1.037   4.447  11.504  0.1253 -0.0853 -0.1153
17061TIP3    H172674   1.073   4.531  11.532  0.5619  0.7244 -2.8506
17061TIP3    H272675   1.015   4.402  11.586  0.9984  2.1731  1.4554
17062TIP3   OH272676   3.136   0.141   2.168 -0.2510  0.8835  0.2923
17062TIP3    H172677   3.087   0.079   2.114 -1.9572  1.7433  0.7749
17062TIP3    H272678   3.197   0.086   2.218 -1.1010 -0.3168  0.0725
17063TIP3   OH272679   1.494   0.144   3.776 -0.3710 -0.2666  0.0327
17063TIP3    H172680   1.584   0.176   3.770  0.4646 -2.1877  1.4672
17063TIP3    H272681   1.501   0.049   3.762 -2.4511 -0.2403 -1.7988
17064TIP3   OH272682   1.852   6.216  12.920 -0.3522  0.3109 -0.1040
17064TIP3    H172683   1.943   6.203  12.894 -0.5827 -1.7140 -0.0654
17064TIP3    H272684   1.854   6.290  12.980  1.5487 -0.6954  1.1923
17065TIP3   OH272685   5.933   1.303   4.686 -0.3265  0.3591  0.7244
17065TIP3    H172686   5.865   1.362   4.652 -0.6333  0.1450  0.9604
17065TIP3    H272687   5.992   1.290   4.612 -1.3014 -0.5681  0.0756
17066TIP3   OH272688   5.634   0.138  15.980  0.1056 -0.0973  0.1753
17066TIP3    H172689   5.591   0.106  16.059 -0.0625 -0.4985 -0.0775
17066TIP3    H272690   5.653   0.059  15.929 -1.4392  0.2593 -1.0274
17067TIP3   OH272691   6.372   1.576  16.205 -0.0840 -0.0823 -0.6213
17067TIP3    H172692   6.453   1.600  16.160  0.1927 -0.0268 -0.1026
17067TIP3    H272693   6.305   1.583  16.138 -0.0364  2.2558 -0.5016
17068TIP3   OH272694   3.215   0.950   5.740  0.0558 -0.0615 -0.3604
17068TIP3    H172695   3.310   0.959   5.736  0.0019  0.7273 -0.1139
17068TIP3    H272696   3.182   1.010   5.672 -0.2149 -1.9919 -2.0340
17069TIP3   OH272697   3.885   0.930  12.680  0.2122  0.0272  0.2103
17069TIP3    H172698   3.832   0.953  12.604  0.6157  1.1714  0.2571
17069TIP3    H272699   3.838   0.967  12.755  1.6087  2.1078  0.1424
17070TIP3   OH272700   2.866   0.836  14.068 -0.0607 -0.0086  0.1646
17070TIP3    H172701   2.850   0.925  14.038 -1.2021 -0.4303 -0.5888
17070TIP3    H272702   2.789   0.787  14.038  0.5126 -1.2296  0.6146
17071TIP3   OH272703   5.143   6.324  16.115  0.0562 -0.2941  0.0719
17071TIP3    H172704   5.108   6.324  16.026  1.1313  1.0622 -0.3875
17071TIP3    H272705   5.218   6.264  16.112 -0.4149 -0.9140  0.3096
17072TIP3   OH272706   6.599   4.365  13.522 -0.2396 -0.8196 -0.4188
17072TIP3    H172707   6.562   4.397  13.604 -0.1480 -0.7541 -0.4022
17072TIP3    H272708   6.523   4.343  13.468 -0.2964 -1.1846 -0.1898
17073TIP3   OH272709   4.976   1.832  13.896 -0.0409  0.0268  0.0207
17073TIP3    H172710   5.006   1.792  13.978  0.8104 -0.2933 -0.4363
17073TIP3    H272711   5.002   1.924  13.903 -0.8528  0.2352  0.5171
17074TIP3   OH272712   1.248   2.002  14.354 -0.1788  0.0892 -0.0324
17074TIP3    H172713   1.170   2.052  14.374 -1.6179 -1.1289 -2.1543
17074TIP3    H272714   1.270   2.026  14.264 -1.1203 -3.1256 -1.2770
17075TIP3   OH272715   4.989   3.532   0.479  0.0425 -0.4454  0.0208
17075TIP3    H172716   5.007   3.441   0.456  0.7665 -0.9897  2.4563
17075TIP3    H272717   5.075   3.572   0.485 -0.1761 -0.0591  0.6484
17076TIP3   OH272718   4.606   1.769  13.660 -0.0337 -0.1734 -0.3570
17076TIP3    H172719   4.676   1.734  13.604 -0.3480 -1.3259 -0.0745
17076TIP3    H272720   4.651   1.791  13.742  0.2180  0.3318 -0.6288
17077TIP3   OH272721   6.108   3.056   2.179 -0.0399  0.6236  0.0084
17077TIP3    H172722   6.037   3.037   2.117  0.9289  0.1440 -0.9908
17077TIP3    H272723   6.113   2.979   2.234  0.5032  0.1324 -0.7167
17078TIP3   OH272724   5.211   0.133   4.469  0.4394  0.2459  0.1419
17078TIP3    H172725   5.212   0.077   4.547  1.5451  0.8645  0.5841
17078TIP3    H272726   5.118   0.144   4.449  0.1460  0.0243  1.3258
17079TIP3   OH272727   4.273   5.375  14.711 -0.6012 -0.3908 -0.2739
17079TIP3    H172728   4.228   5.446  14.757  2.8086  0.0751  2.8870
17079TIP3    H272729   4.366   5.396  14.721  0.5229 -4.0395 -1.4073
17080TIP3   OH272730   6.424   2.812   6.253 -0.2479 -0.2428 -0.7243
17080TIP3    H172731   6.427   2.818   6.348 -1.1517  0.9994 -0.7527
17080TIP3    H272732   6.344   2.859   6.228 -0.1078 -0.6717 -2.0897
17081TIP3   OH272733   6.139   1.155   5.787 -0.0362 -0.0651  0.1871
17081TIP3    H172734   6.232   1.158   5.813 -0.3705  0.2129  1.4138
17081TIP3    H272735   6.099   1.093   5.848 -0.9305  0.8968  0.5992
17082TIP3   OH272736   2.000   0.420   4.679  0.4538 -0.6320  0.1684
17082TIP3    H172737   1.906   0.437   4.683  0.3207 -1.2955 -0.1079
17082TIP3    H272738   2.008   0.334   4.637  1.2584  0.2040 -1.4713
17083TIP3   OH272739   5.954   3.531   2.953  0.2604  0.2776 -0.4094
17083TIP3    H172740   6.019   3.476   2.996  1.4993  2.2581  0.3973
17083TIP3    H272741   6.003   3.606   2.921 -1.7413  2.4533  1.2755
17084TIP3   OH272742   6.446   6.715   0.359 -0.0206  0.5213 -0.2545
17084TIP3    H172743   6.418   6.783   0.297 -1.0282  0.1046 -0.2682
17084TIP3    H272744   6.368   6.662   0.373  0.5769 -0.2232  0.3003
17085TIP3   OH272745   0.882   5.225  13.905 -0.1714 -0.2912 -0.3843
17085TIP3    H172746   0.944   5.284  13.862  0.4882 -0.8227 -0.1728
17085TIP3    H272747   0.888   5.143  13.854 -1.2719 -0.1123 -0.8422
17086TIP3   OH272748   3.096   2.299  15.258  0.6331 -0.6408  0.1090
17086TIP3    H172749   3.024   2.249  15.297  0.9688 -1.2184 -0.0026
17086TIP3    H272750   3.058   2.336  15.178  0.1957 -0.1719  0.5255
17087TIP3   OH272751   3.364   3.771  16.953 -0.7344 -0.0721 -0.3533
17087TIP3    H172752   3.409   3.741  17.032  0.7699 -1.2597 -1.5714
17087TIP3    H272753   3.346   3.864  16.969  2.3702  0.5618  0.2046
17088TIP3   OH272754   1.311   5.804  15.468  0.1685 -0.2998 -0.3744
17088TIP3    H172755   1.323   5.735  15.534  1.0611 -0.2969 -0.5227
17088TIP3    H272756   1.379   5.868  15.487 -0.6710  0.5721 -0.2262
17089TIP3   OH272757   3.564   6.830   1.710 -0.3241  0.2139  0.2687
17089TIP3    H172758   3.609   6.765   1.656  1.0203 -0.3871  2.0029
17089TIP3    H272759   3.592   6.809   1.799 -1.3424  2.0346  1.0500
17090TIP3   OH272760   0.668   2.815  10.711  0.2346  0.1411 -0.0591
17090TIP3    H172761   0.713   2.790  10.631  0.1001 -0.2879 -0.0029
17090TIP3    H272762   0.578   2.784  10.698 -0.6243  2.7766 -1.0468
17091TIP3   OH272763   6.037   2.582  14.690 -0.7732  0.0915 -0.5122
17091TIP3    H172764   5.964   2.542  14.737  0.2890 -1.2451  0.0783
17091TIP3    H272765   6.020   2.562  14.598 -1.9392  1.1716 -0.5550
17092TIP3   OH272766   4.626   1.525   2.141 -0.1098 -0.2436 -0.6445
17092TIP3    H172767   4.666   1.597   2.092  2.5338 -0.4793  0.9882
17092TIP3    H272768   4.683   1.451   2.126 -0.9685 -1.1358  0.3551
17093TIP3   OH272769   1.581   0.505   3.599 -0.0667 -0.3629 -0.1829
17093TIP3    H172770   1.654   0.536   3.652 -0.3142  0.3138 -0.2288
17093TIP3    H272771   1.537   0.585   3.570 -1.7279 -0.7505  1.0881
17094TIP3   OH272772   0.976   4.784  15.395  0.2256 -0.0113  0.6217
17094TIP3    H172773   1.045   4.788  15.328 -0.8086  0.3885 -0.4573
17094TIP3    H272774   0.971   4.873  15.430 -0.8582  0.3903 -0.4945
17095TIP3   OH272775   1.925   2.187  15.101 -1.0021  0.4195 -0.0723
17095TIP3    H172776   1.979   2.130  15.046 -1.6075 -0.4791  0.2423
17095TIP3    H272777   1.923   2.271  15.054 -1.4495 -0.2957 -1.3956
17096TIP3   OH272778   0.025   3.580   4.145 -0.0747 -0.4077  0.1197
17096TIP3    H172779  -0.023   3.662   4.132 -0.5305 -0.9303 -1.8558
17096TIP3    H272780  -0.036   3.524   4.193  0.4518  0.5510  2.0012
17097TIP3   OH272781   0.222   0.699   1.208 -0.1555  0.0167 -0.5989
17097TIP3    H172782   0.269   0.680   1.290 -0.5603  1.4544  0.0031
17097TIP3    H272783   0.130   0.707   1.235  0.0247  3.2907 -0.6401
17098TIP3   OH272784   5.606   1.962   5.542 -0.1468  0.3399  0.1212
17098TIP3    H172785   5.694   1.971   5.579  0.1485 -1.6898 -0.0023
17098TIP3    H272786   5.620   1.945   5.449 -0.6747  0.0386  0.0943
17099TIP3   OH272787   1.853   0.934  10.804  0.8432  0.2762  0.3720
17099TIP3    H172788   1.923   0.879  10.770  0.1209 -0.0841 -0.6172
17099TIP3    H272789   1.880   1.023  10.783  0.7736  0.1051 -0.5064
17100TIP3   OH272790   6.011   4.842   5.332  0.4583  0.2956 -0.2675
17100TIP3    H172791   5.974   4.754   5.337  2.6921 -0.6542  1.3690
17100TIP3    H272792   5.957   4.888   5.268 -1.5728 -1.8524 -0.2055
17101TIP3   OH272793   3.848   0.819   4.718 -0.1571  0.0485  0.2793
17101TIP3    H172794   3.838   0.781   4.806 -2.5019 -1.2774 -0.4603
17101TIP3    H272795   3.817   0.909   4.727 -1.0196 -0.2731  0.7147
17102TIP3   OH272796   4.907   0.569  16.714  0.0639  0.1315  0.0486
17102TIP3    H172797   4.857   0.566  16.796  1.6527  1.0156  1.1095
17102TIP3    H272798   4.988   0.522  16.734 -0.7258 -2.2912 -1.9825
17103TIP3   OH272799   6.067   3.310   0.810  0.2353 -0.1512 -0.1411
17103TIP3    H172800   6.030   3.398   0.803 -1.6689 -0.9258 -0.5872
17103TIP3    H272801   6.146   3.314   0.757  1.7468  1.9927  2.0423
17104TIP3   OH272802   5.594   3.006  12.815  0.3216  0.4066  0.2212
17104TIP3    H172803   5.564   3.074  12.875 -0.0772  0.2180  0.2423
17104TIP3    H272804   5.514   2.961  12.788  0.4286  0.8127 -0.8536
17105TIP3   OH272805   4.012   4.142  16.964 -0.5106  0.2263 -0.4657
17105TIP3    H172806   3.970   4.064  17.000  1.5860 -0.6106  0.3315
17105TIP3    H272807   3.968   4.215  17.007 -1.8706 -0.5351 -0.5132
17106TIP3   OH272808   1.162   1.453   3.504 -0.0132  0.0958  0.0490
17106TIP3    H172809   1.232   1.415   3.558  0.0073 -1.1842 -0.8246
17106TIP3    H272810   1.085   1.452   3.560  0.4998  0.9302  0.8089
17107TIP3   OH272811   0.997   3.442  11.936 -0.0553 -0.7184  0.2734
17107TIP3    H172812   0.935   3.400  11.877  0.0564 -0.5886  0.0654
17107TIP3    H272813   1.055   3.370  11.964 -0.4230 -0.8791  0.6302
17108TIP3   OH272814   2.346   0.642  14.834  0.1586 -0.2112  0.1397
17108TIP3    H172815   2.254   0.616  14.840  0.8611 -2.6389  2.0749
17108TIP3    H272816   2.355   0.713  14.897  0.0471 -1.6534  1.8664
17109TIP3   OH272817   2.136   3.776   0.608  0.1772  0.1866  0.8345
17109TIP3    H172818   2.088   3.839   0.554 -1.7769 -0.9678  1.1341
17109TIP3    H272819   2.179   3.718   0.546  0.4261  0.6633  0.5547
17110TIP3   OH272820   1.149   1.613  14.559  0.2817 -0.4741  0.3606
17110TIP3    H172821   1.228   1.579  14.602  0.6979 -0.4041 -0.3216
17110TIP3    H272822   1.182   1.677  14.496 -0.3817  0.0488  0.5444
17111TIP3   OH272823   3.020   5.170   0.528 -0.5143 -0.1568 -0.9229
17111TIP3    H172824   3.004   5.182   0.435  0.0004 -2.3679 -1.3478
17111TIP3    H272825   2.952   5.108   0.556 -0.2172 -0.0737  0.0270
17112TIP3   OH272826   1.206   1.082  17.117  0.4028  0.0872  0.3447
17112TIP3    H172827   1.196   1.152  17.054  1.4477  0.1923  0.2877
17112TIP3    H272828   1.117   1.047  17.129 -0.6714  3.1112  2.3753
17113TIP3   OH272829   1.426   3.139   5.006 -0.4973 -0.9530  0.2174
17113TIP3    H172830   1.391   3.129   5.095 -0.4822 -1.5629  0.1618
17113TIP3    H272831   1.387   3.067   4.957  0.3463 -1.2809  0.0049
17114TIP3   OH272832   0.134   5.907  12.292  0.4179  0.2085 -0.0712
17114TIP3    H172833   0.157   5.816  12.272 -2.6631 -0.2169 -2.3614
17114TIP3    H272834   0.063   5.901  12.357 -1.5693  0.7233 -2.0683
17115TIP3   OH272835   5.838   5.827   4.428  0.5622  0.2066 -0.2519
17115TIP3    H172836   5.921   5.841   4.473  0.8812 -1.9079 -0.0767
17115TIP3    H272837   5.863   5.810   4.337  0.6081 -2.6215  0.1999
17116TIP3   OH272838   6.210   5.040   2.893 -0.4620 -0.3806  1.0835
17116TIP3    H172839   6.288   5.087   2.922 -1.0954  0.1643  1.9580
17116TIP3    H272840   6.185   5.082   2.811 -0.8148  0.5870  1.6747
17117TIP3   OH272841   3.312   2.062  10.918  0.1442  0.3154  0.0943
17117TIP3    H172842   3.361   2.042  10.998 -0.9426 -0.7414  0.5246
17117TIP3    H272843   3.261   1.983  10.901 -0.7794  1.0850 -0.8113
17118TIP3   OH272844   6.235   5.245  12.340 -0.8114  0.0864  0.2413
17118TIP3    H172845   6.292   5.172  12.364  1.6668  1.9339  0.3762
17118TIP3    H272846   6.151   5.224  12.380  0.1454 -2.0861  1.2859
17119TIP3   OH272847   3.458   2.265   2.671 -0.1013 -0.1469 -0.0362
17119TIP3    H172848   3.382   2.264   2.612 -0.4628  0.1999  0.4192
17119TIP3    H272849   3.461   2.355   2.705 -0.0399 -0.4004  0.6491
17120TIP3   OH272850   1.333   4.816  15.483  0.6174 -0.4617  0.2958
17120TIP3    H172851   1.320   4.795  15.576  1.1314 -0.3562  0.3938
17120TIP3    H272852   1.367   4.906  15.483 -2.7677  0.9698 -0.1769
17121TIP3   OH272853   2.111   2.455  16.406 -0.1573 -0.1851  0.7593
17121TIP3    H172854   2.111   2.474  16.500 -0.5704 -0.3741  0.8028
17121TIP3    H272855   2.034   2.502  16.372  0.2200  0.2085  0.4459
17122TIP3   OH272856   2.914   1.100  15.356  0.2917  0.4856 -0.6714
17122TIP3    H172857   3.003   1.126  15.382  0.4159 -1.1116  0.7020
17122TIP3    H272858   2.889   1.034  15.421 -1.4591  0.0627 -1.7205
17123TIP3   OH272859   3.721   1.082   1.564  0.2859 -0.3674 -0.1343
17123TIP3    H172860   3.764   1.022   1.625  0.5263  0.3890  0.4624
17123TIP3    H272861   3.627   1.066   1.578  0.3505 -1.2740 -0.6772
17124TIP3   OH272862   4.014   0.391  14.250  0.2534  0.0739  0.0210
17124TIP3    H172863   4.088   0.331  14.259 -0.1077 -0.6428 -1.4884
17124TIP3    H272864   3.949   0.357  14.311  0.0349 -1.1268 -0.8440
17125TIP3   OH272865   3.544   4.283  10.661  0.0010 -0.6777  0.2782
17125TIP3    H172866   3.539   4.197  10.704  1.3508  0.0172  1.8875
17125TIP3    H272867   3.623   4.278  10.607 -0.4329 -0.7445 -0.3654
17126TIP3   OH272868   2.648   4.813   4.048  0.1984  0.0045 -0.4634
17126TIP3    H172869   2.683   4.841   3.963  2.0744  2.3552  0.9280
17126TIP3    H272870   2.716   4.756   4.084  0.4155  0.7127  0.2802
17127TIP3   OH272871   5.173   4.613   4.018 -0.0458  0.5941  0.4413
17127TIP3    H172872   5.224   4.689   4.045 -0.1976  0.3557  1.4473
17127TIP3    H272873   5.203   4.593   3.929  0.4210  1.4567  0.4019
17128TIP3   OH272874   0.504   2.516  10.688 -0.8625  0.0445  0.2723
17128TIP3    H172875   0.586   2.490  10.646 -1.5982 -0.1267 -1.1267
17128TIP3    H272876   0.467   2.583  10.631 -3.1592 -2.0250 -0.8670
17129TIP3   OH272877   0.292   3.899   4.386  0.4706 -0.4859  0.3268
17129TIP3    H172878   0.382   3.885   4.416  0.6736 -2.3260 -0.9281
17129TIP3    H272879   0.259   3.811   4.368 -1.2319  0.2242 -0.2368
17130TIP3   OH272880   3.912   2.512   1.936 -0.3795  0.0910  0.2200
17130TIP3    H172881   3.997   2.517   1.892 -0.5344  0.6649 -0.0201
17130TIP3    H272882   3.901   2.419   1.956 -0.5202 -0.2816 -1.3972
17131TIP3   OH272883   1.654   2.937   1.720 -0.0369  0.2501  0.7466
17131TIP3    H172884   1.700   3.015   1.688 -0.8590  0.6250  0.4392
17131TIP3    H272885   1.709   2.904   1.791 -0.6698  2.3302  2.3251
17132TIP3   OH272886   5.911   5.561  16.532 -0.2334  0.1072  0.1644
17132TIP3    H172887   5.943   5.477  16.499 -1.6240 -1.0949  1.7320
17132TIP3    H272888   5.922   5.556  16.627  1.8298  2.6827  0.1959
17133TIP3   OH272889   1.826   6.483   1.276 -0.3528  0.1116 -0.1868
17133TIP3    H172890   1.754   6.539   1.247  0.0991  1.5134  1.2832
17133TIP3    H272891   1.892   6.543   1.310  1.5341 -1.1476 -1.4326
17134TIP3   OH272892   4.194   3.256  13.127 -0.4903  1.1435  0.3652
17134TIP3    H172893   4.130   3.232  13.060 -3.6876  4.0435  2.0362
17134TIP3    H272894   4.278   3.258  13.081 -1.8737 -0.6502 -2.5474
17135TIP3   OH272895   3.193   6.095  12.573 -0.3702  0.2160  0.8634
17135TIP3    H172896   3.218   6.024  12.632 -2.2730 -2.5211 -1.3315
17135TIP3    H272897   3.136   6.151  12.624 -2.6040 -2.4807  1.5998
17136TIP3   OH272898   0.150   2.571  15.345 -0.4126  0.1534  0.2824
17136TIP3    H172899   0.205   2.586  15.422  3.5849  0.4509 -2.3205
17136TIP3    H272900   0.164   2.479  15.323  0.5009  0.6412 -1.3691
17137TIP3   OH272901   4.540   2.990  14.142  0.2401  0.4532  0.1392
17137TIP3    H172902   4.602   2.957  14.207 -0.3879 -2.3008 -0.5051
17137TIP3    H272903   4.591   2.995  14.061  0.8589  3.2743  0.5975
17138TIP3   OH272904   6.447   2.485  12.523 -0.2700 -0.2424  0.0910
17138TIP3    H172905   6.447   2.460  12.430  1.2707  0.2114 -0.0652
17138TIP3    H272906   6.509   2.424  12.564 -0.9979 -0.4874  0.8419
17139TIP3   OH272907   3.584   6.485  14.613  0.2218  0.2443  0.2859
17139TIP3    H172908   3.678   6.467  14.609  0.0681 -0.4235 -0.5879
17139TIP3    H272909   3.556   6.483  14.522 -0.7738 -0.2430  0.5961
17140TIP3   OH272910   5.333   2.636  14.567 -0.0768  0.4099 -0.2831
17140TIP3    H172911   5.420   2.611  14.534  0.1646 -1.4664  1.5687
17140TIP3    H272912   5.346   2.722  14.606  0.6181  0.7485 -1.2204
17141TIP3   OH272913   2.009   4.007   3.172 -0.0622 -0.2625 -0.0240
17141TIP3    H172914   2.089   4.006   3.225  0.7635  1.1819 -1.1899
17141TIP3    H272915   2.031   4.060   3.096 -1.8039 -0.7628 -0.9223
17142TIP3   OH272916   5.971   0.968   5.336  0.5872 -0.1561  0.3482
17142TIP3    H172917   5.915   1.022   5.281  1.1146  0.9085  0.8181
17142TIP3    H272918   5.958   0.879   5.305 -1.7673 -0.0194  0.7860
17143TIP3   OH272919   1.428   4.912   0.754 -0.4728 -0.1816  0.0284
17143TIP3    H172920   1.523   4.899   0.763 -0.3406  0.4363 -0.3586
17143TIP3    H272921   1.399   4.937   0.842 -0.1948  0.0881  0.0449
17144TIP3   OH272922   6.544   0.657   2.047  0.2916  0.1201 -0.0383
17144TIP3    H172923   6.525   0.566   2.069 -2.1770  0.4228 -0.6492
17144TIP3    H272924   6.525   0.664   1.953  0.4070  1.2795  0.0070
17145TIP3   OH272925   5.117   1.869   5.795  0.5139 -0.2488 -0.7427
17145TIP3    H172926   5.192   1.815   5.820  0.9511  0.3935 -0.6088
17145TIP3    H272927   5.152   1.929   5.728 -0.0604 -0.4069 -1.1920
17146TIP3   OH272928   0.345   3.544  11.448 -0.1336  0.0987 -0.1555
17146TIP3    H172929   0.398   3.467  11.468 -0.1093  0.0967 -0.2273
17146TIP3    H272930   0.257   3.523  11.480 -0.4420 -0.4688 -1.3062
17147TIP3   OH272931   3.419   3.169  16.361 -0.8869  0.7071  0.0084
17147TIP3    H172932   3.468   3.217  16.427  0.6032  0.1719 -0.6563
17147TIP3    H272933   3.356   3.232  16.326 -0.4443  1.5201  0.6564
17148TIP3   OH272934   1.325   1.817  14.792 -0.0901 -0.0422 -0.0641
17148TIP3    H172935   1.345   1.723  14.796 -0.7954 -0.1692  0.8151
17148TIP3    H272936   1.313   1.843  14.883  1.1762  1.1647 -0.2039
17149TIP3   OH272937   3.357   5.412   1.710  0.7018  0.3787  0.3812
17149TIP3    H172938   3.361   5.464   1.790  0.7214  0.3579  0.3936
17149TIP3    H272939   3.403   5.464   1.645 -0.4841  1.0456  0.0315
17150TIP3   OH272940   3.635   5.040  15.479  0.3690  0.3695 -0.3296
17150TIP3    H172941   3.639   5.098  15.403 -1.8570  0.9542 -0.0769
17150TIP3    H272942   3.637   4.952  15.443  1.9597  0.5904 -0.8454
17151TIP3   OH272943   3.383   0.816   0.105 -0.6518  0.2699  0.8865
17151TIP3    H172944   3.350   0.728   0.089 -0.4732  0.4557 -0.7649
17151TIP3    H272945   3.469   0.803   0.145 -0.3498 -0.3440  0.0671
17152TIP3   OH272946   2.209   2.652   1.865  0.2978  0.5798  0.3330
17152TIP3    H172947   2.281   2.666   1.927  2.6646 -1.8212 -1.6514
17152TIP3    H272948   2.145   2.601   1.914  2.6751 -2.3736  0.6585
17153TIP3   OH272949   3.919   0.439   3.725 -0.0712  0.1833 -0.0903
17153TIP3    H172950   3.981   0.420   3.654 -0.9217 -1.0279 -0.5361
17153TIP3    H272951   3.929   0.367   3.787  0.3602  1.0159  0.8304
17154TIP3   OH272952   2.468   4.214  13.414 -0.3880 -0.0520  0.0845
17154TIP3    H172953   2.522   4.253  13.483 -2.1968  0.7666  1.1099
17154TIP3    H272954   2.408   4.284  13.388  1.7713  0.5322 -4.1773
17155TIP3   OH272955   6.107   0.538  16.804  0.1801  0.3926  0.2637
17155TIP3    H172956   6.090   0.626  16.838  1.5303  0.3751  1.1001
17155TIP3    H272957   6.203   0.533  16.800  0.1056 -0.8094 -0.4181
17156TIP3   OH272958   2.062   2.560   4.075 -0.4329 -0.3095 -0.2339
17156TIP3    H172959   2.041   2.647   4.110  0.5715 -0.2294  0.1798
17156TIP3    H272960   1.998   2.502   4.116 -0.2583  0.0277  0.5178
17157TIP3   OH272961   4.465   6.596   6.355  0.5120  0.6265 -0.2202
17157TIP3    H172962   4.492   6.687   6.352  0.9231  0.5143 -0.0440
17157TIP3    H272963   4.372   6.599   6.377  0.4555  1.0095 -0.5194
17158TIP3   OH272964   5.513   3.166  12.172  0.2924 -0.6769 -0.5433
17158TIP3    H172965   5.570   3.212  12.110 -1.0217  2.1171  0.1812
17158TIP3    H272966   5.424   3.193  12.149 -0.4026 -1.3172  1.1652
17159TIP3   OH272967   4.517   0.923   0.411  0.2515 -0.0019  0.0049
17159TIP3    H172968   4.437   0.974   0.399  0.0455 -0.0939  0.8689
17159TIP3    H272969   4.582   0.987   0.440  0.7098  0.2040 -1.4318
17160TIP3   OH272970   6.417   4.191  11.302 -0.6122  0.2108  0.5327
17160TIP3    H172971   6.440   4.282  11.320 -0.3893  0.0672  1.0136
17160TIP3    H272972   6.494   4.141  11.331  0.1177 -0.0071 -1.5791
17161TIP3   OH272973   3.323   2.918   4.770 -0.5950  0.5324 -0.2361
17161TIP3    H172974   3.358   3.005   4.790 -2.4658  1.2762  0.0716
17161TIP3    H272975   3.279   2.892   4.851  1.2692 -1.4420  0.2124
17162TIP3   OH272976   6.432   5.903   5.490  0.1368  0.1476  0.0190
17162TIP3    H172977   6.487   5.871   5.418 -1.1695  0.2301 -1.0482
17162TIP3    H272978   6.428   5.829   5.551  2.5527  0.6011  0.8482
17163TIP3   OH272979   2.292   2.021   5.500  0.1556  0.1408 -0.1418
17163TIP3    H172980   2.323   2.111   5.505 -0.7173  0.5440 -1.6023
17163TIP3    H272981   2.197   2.028   5.494  0.0725 -0.8827 -0.1732
17164TIP3   OH272982   0.802   5.366   2.828 -0.0465  0.6948  0.9693
17164TIP3    H172983   0.835   5.370   2.917 -1.3487  1.0695  1.4562
17164TIP3    H272984   0.829   5.280   2.795  0.3012  0.4963  1.7687
17165TIP3   OH272985   3.688   4.700   0.063 -0.2601  0.3553 -0.3119
17165TIP3    H172986   3.782   4.715   0.055  0.1087 -1.4499  0.1565
17165TIP3    H272987   3.660   4.762   0.131  0.2865  1.8600 -1.3905
17166TIP3   OH272988   5.920   4.165  12.267 -1.1578 -0.1269  0.5992
17166TIP3    H172989   5.994   4.112  12.296 -1.4239 -0.9739 -0.2295
17166TIP3    H272990   5.925   4.245  12.320  2.7832  1.7716 -2.1032
17167TIP3   OH272991   4.757   4.527  17.055 -0.0231 -0.3073  0.0122
17167TIP3    H172992   4.820   4.466  17.093  1.0394  0.4314 -0.5054
17167TIP3    H272993   4.805   4.570  16.984 -1.0173  0.4967 -0.1996
17168TIP3   OH272994   3.482   2.541   2.619  0.0920 -0.5807  0.1607
17168TIP3    H172995   3.568   2.576   2.644 -0.1826 -0.1141  0.4817
17168TIP3    H272996   3.494   2.509   2.530  0.3083  0.5146 -0.2131
17169TIP3   OH272997   4.787   2.279  10.225 -0.6008  0.8340  0.0292
17169TIP3    H172998   4.808   2.309  10.314 -2.0238  0.7298  0.4210
17169TIP3    H272999   4.732   2.202  10.238  1.1104 -0.6572 -0.9644
17170TIP3   OH273000   6.305   4.513  14.906  0.5117  0.1762  0.6076
17170TIP3    H173001   6.320   4.550  14.993 -2.2213  4.2788 -0.3598
17170TIP3    H273002   6.220   4.472  14.911  1.0996 -1.1360  0.2405
17171TIP3   OH273003   0.870   6.028  15.629  0.2746 -0.5244 -0.2827
17171TIP3    H173004   0.784   5.987  15.641 -0.5184  1.3137  0.7138
17171TIP3    H273005   0.854   6.100  15.568  0.9803  0.2194  0.3935
17172TIP3   OH273006   5.607   2.758  17.002 -0.3328 -0.0697 -0.1521
17172TIP3    H173007   5.642   2.834  17.049  2.4123 -1.4740  0.2847
17172TIP3    H273008   5.618   2.780  16.910 -1.0715  0.6837 -0.0733
17173TIP3   OH273009   5.585   0.013   4.089 -0.4788 -0.7656 -0.1765
17173TIP3    H173010   5.618   0.093   4.130 -1.9238 -0.5196  0.5666
17173TIP3    H273011   5.499  -0.001   4.129 -0.8066 -1.9817 -1.2354
17174TIP3   OH273012   2.471   0.548   3.231 -0.2549  0.5247  0.0649
17174TIP3    H173013   2.422   0.511   3.157  0.9101  0.4797 -0.7190
17174TIP3    H273014   2.549   0.586   3.191  1.5073 -1.3853  1.4719
17175TIP3   OH273015   1.368   3.702   1.270 -0.5528 -0.3618  0.5353
17175TIP3    H173016   1.463   3.707   1.277 -0.4950  2.9454 -0.6171
17175TIP3    H273017   1.352   3.669   1.181 -0.1018  5.0351 -1.9629
17176TIP3   OH273018   3.873   3.230  15.079 -0.3655  0.5767  0.6334
17176TIP3    H173019   3.915   3.257  15.161 -0.2172  1.7318  0.2007
17176TIP3    H273020   3.907   3.291  15.013 -2.3234  1.2866  0.1805
17177TIP3   OH273021   2.524   2.860  11.869  0.8626  0.2691 -0.0365
17177TIP3    H173022   2.521   2.799  11.795  2.7652  0.8056 -0.6098
17177TIP3    H273023   2.540   2.803  11.945  1.2849 -0.0750 -0.3763
17178TIP3   OH273024   3.387   1.472   6.711 -0.2956 -0.0932  0.4164
17178TIP3    H173025   3.394   1.498   6.619  1.4434 -0.8108  0.3046
17178TIP3    H273026   3.362   1.379   6.708  0.5033 -0.3184  0.6463
17179TIP3   OH273027   5.473   3.425  14.415 -0.0460 -0.0236 -0.1820
17179TIP3    H173028   5.486   3.438  14.321  0.8580 -1.9364 -0.3760
17179TIP3    H273029   5.555   3.387  14.446 -1.2943 -2.1875  0.7580
17180TIP3   OH273030   6.819   2.783  15.250 -0.9373  0.0169 -0.0873
17180TIP3    H173031   6.863   2.865  15.273 -1.5509  0.6977 -1.2808
17180TIP3    H273032   6.864   2.716  15.302  0.6821  0.8597 -0.3506
17181TIP3   OH273033   0.667   0.739   0.999 -0.8865 -0.0442  0.5298
17181TIP3    H173034   0.605   0.757   1.069 -0.8330 -2.0742  1.1722
17181TIP3    H273035   0.738   0.802   1.012 -2.1073  1.3656  0.6443
17182TIP3   OH273036   4.412   0.612  16.059  0.1158 -0.0107  0.4933
17182TIP3    H173037   4.337   0.566  16.097 -0.3292  1.9222  2.1228
17182TIP3    H273038   4.473   0.623  16.131  1.3391 -0.2711 -0.4771
17183TIP3   OH273039   1.390   2.752  10.358 -0.4607  0.0690 -0.2985
17183TIP3    H173040   1.379   2.824  10.296 -0.8229 -0.0676 -0.3922
17183TIP3    H273041   1.485   2.741  10.365 -0.3867  0.8741  0.0894
17184TIP3   OH273042   1.972   1.498   1.642 -0.0663  0.6568 -0.1782
17184TIP3    H173043   1.987   1.443   1.564  0.9618 -0.2281  0.6083
17184TIP3    H273044   1.928   1.576   1.608 -0.0022  0.1095 -1.5923
17185TIP3   OH273045   5.323   5.506   4.965  0.0085  0.1947  0.3422
17185TIP3    H173046   5.408   5.532   4.930  2.2237  0.2306  5.1022
17185TIP3    H273047   5.274   5.589   4.970  0.1312  0.3924 -1.1442
17186TIP3   OH273048   0.250   1.886   2.079 -0.0070 -0.7823  0.2834
17186TIP3    H173049   0.263   1.934   1.997 -1.3367  0.4672  0.7679
17186TIP3    H273050   0.188   1.816   2.057 -0.9085 -0.0214  0.3471
17187TIP3   OH273051   1.682   6.195  14.817 -0.6663 -0.5054 -0.0520
17187TIP3    H173052   1.723   6.139  14.883  1.6362  0.9948 -0.1113
17187TIP3    H273053   1.632   6.259  14.867 -0.7790 -0.7283  0.1245
17188TIP3   OH273054   2.292   2.135  15.609  0.1893 -0.1160  0.2343
17188TIP3    H173055   2.374   2.087  15.615  0.1978 -0.0216  0.9226
17188TIP3    H273056   2.318   2.227  15.598  0.1790 -0.2876 -1.6228
17189TIP3   OH273057   5.756   0.058  16.594  0.1082  0.2378 -0.2762
17189TIP3    H173058   5.746   0.086  16.685  1.4843  1.0369 -0.3435
17189TIP3    H273059   5.730  -0.034  16.594 -0.4197  0.3714  0.8057
17190TIP3   OH273060   1.016   3.972  11.877  0.5428  0.0038 -0.2238
17190TIP3    H173061   0.921   3.964  11.884  0.7922 -1.8769  1.9993
17190TIP3    H273062   1.049   3.883  11.883  2.4497  0.3902 -2.8082
17191TIP3   OH273063   4.638   6.007  16.050 -0.2498  0.2223 -0.2039
17191TIP3    H173064   4.643   5.922  16.007 -0.0737 -0.5022  1.1873
17191TIP3    H273065   4.565   6.051  16.007  0.4051 -0.1328 -1.7657
17192TIP3   OH273066   3.159   1.108   4.151 -0.1585 -0.1013  0.1897
17192TIP3    H173067   3.151   1.037   4.215  2.1332  0.4898  1.2824
17192TIP3    H273068   3.211   1.070   4.080  0.5372  0.2725  0.4869
17193TIP3   OH273069   4.615   1.685  16.374  0.1074 -0.0920  0.1220
17193TIP3    H173070   4.548   1.710  16.437  0.9011  0.2690  0.8455
17193TIP3    H273071   4.697   1.711  16.416  0.5492  2.6863 -2.1392
17194TIP3   OH273072   3.546   1.753   0.514  0.7463  0.0515 -0.0130
17194TIP3    H173073   3.539   1.828   0.454  0.2310 -1.7436 -2.3739
17194TIP3    H273074   3.640   1.744   0.530  0.8635  0.8155 -0.2404
17195TIP3   OH273075   4.510   3.364   3.523 -0.1551  0.3831 -0.0505
17195TIP3    H173076   4.526   3.383   3.615  2.0875 -0.1782 -0.2690
17195TIP3    H273077   4.595   3.377   3.480 -1.1221  0.5842 -2.0471
17196TIP3   OH273078   0.174   1.353   1.112  0.0504 -0.0925  0.0474
17196TIP3    H173079   0.206   1.329   1.199  1.4329  0.6933 -0.2209
17196TIP3    H273080   0.079   1.357   1.122  0.0683 -1.5579  1.1158
17197TIP3   OH273081   1.034   0.896   3.011 -0.2861  0.4422  0.0962
17197TIP3    H173082   1.058   0.809   2.979  0.2435 -0.3720  2.4532
17197TIP3    H273083   0.992   0.879   3.096 -1.4702  2.4149 -0.0297
17198TIP3   OH273084   5.194   3.603  13.480  0.8522  0.1993  0.2487
17198TIP3    H173085   5.130   3.639  13.541  0.3086 -0.0806 -0.1444
17198TIP3    H273086   5.191   3.662  13.404 -2.3911 -2.2595 -1.8154
17199TIP3   OH273087   2.568   3.694  15.700 -0.3001  0.0292 -0.1928
17199TIP3    H173088   2.499   3.683  15.766  0.3479 -2.0260  0.2138
17199TIP3    H273089   2.649   3.688  15.750  0.1913 -0.6761 -1.0470
17200TIP3   OH273090   0.342   4.552  15.118  0.4841  0.4000 -0.8664
17200TIP3    H173091   0.399   4.629  15.113  1.6781 -0.4931 -1.6002
17200TIP3    H273092   0.400   4.478  15.102 -0.0552 -0.9401  2.4605
17201TIP3   OH273093   2.667   1.140  13.523  0.7011  0.2936  0.4701
17201TIP3    H173094   2.579   1.111  13.545  0.5374  0.6128  0.2408
17201TIP3    H273095   2.722   1.062  13.536  0.3770  0.0767  0.5463
17202TIP3   OH273096   6.326   2.866   5.214  0.1200  0.2569  0.6346
17202TIP3    H173097   6.264   2.796   5.235 -0.4544  1.1129  1.9078
17202TIP3    H273098   6.341   2.856   5.120  0.8104 -2.1596  0.9341
17203TIP3   OH273099   2.657   5.313  13.094 -0.1929  0.3808  0.1103
17203TIP3    H173100   2.705   5.353  13.022 -0.1286  0.7352  0.3409
17203TIP3    H273101   2.599   5.249  13.053 -0.4607  0.8759 -0.2964
17204TIP3   OH273102   2.624   2.732  15.509 -0.1278 -0.4287  0.0972
17204TIP3    H173103   2.662   2.744  15.596  0.9870  0.0136 -0.4304
17204TIP3    H273104   2.699   2.734  15.450 -0.9590  0.2125 -0.9645
17205TIP3   OH273105   5.859   1.296   0.666 -0.2900  0.0639  0.0472
17205TIP3    H173106   5.904   1.315   0.584 -0.7616  0.9266 -0.0223
17205TIP3    H273107   5.929   1.269   0.726  0.0639 -0.5071 -0.6132
17206TIP3   OH273108   3.810   6.735  12.533 -0.5086 -0.5695 -0.2097
17206TIP3    H173109   3.746   6.710  12.600 -1.9138 -0.3593 -1.4255
17206TIP3    H273110   3.795   6.828  12.518  0.2177 -0.4741 -0.3966
17207TIP3   OH273111   1.735   6.408  13.871 -0.0821  0.0825 -0.5548
17207TIP3    H173112   1.711   6.470  13.940 -2.6570 -0.1183 -1.1593
17207TIP3    H273113   1.772   6.462  13.802  1.4061  0.4288  0.4713
17208TIP3   OH273114   6.381   5.674   3.999 -0.2634 -0.6350  0.0627
17208TIP3    H173115   6.390   5.742   4.066 -0.6586  0.1086 -0.6290
17208TIP3    H273116   6.289   5.675   3.976  0.2675  0.9772 -2.3849
17209TIP3   OH273117   0.954   2.596  11.140 -0.4608  0.0938  0.0706
17209TIP3    H173118   0.893   2.528  11.167 -1.7055  0.8936 -0.6529
17209TIP3    H273119   0.915   2.634  11.062  0.2175  1.6127  0.4251
17210TIP3   OH273120   4.520   4.952   3.875 -0.1705 -0.3892  0.2419
17210TIP3    H173121   4.557   5.029   3.919  1.6731 -1.0938 -0.0198
17210TIP3    H273122   4.517   4.977   3.783  0.7748 -0.7466  0.1073
17211TIP3   OH273123   0.539   2.719  15.105  0.5946 -0.0624  0.0896
17211TIP3    H173124   0.522   2.643  15.050 -0.3317  0.4822 -0.4077
17211TIP3    H273125   0.455   2.740  15.145  0.9681  0.3506  0.6747
17212TIP3   OH273126   6.827   2.785  15.605 -0.2342  0.5769  0.5040
17212TIP3    H173127   6.784   2.856  15.556  0.4748  0.8382  0.2455
17212TIP3    H273128   6.819   2.811  15.697  0.8826  1.5019  0.3582
17213TIP3   OH273129   5.759   6.759   5.108 -0.4131 -0.1018  0.1892
17213TIP3    H173130   5.718   6.736   5.024  0.2650 -1.3378  0.1704
17213TIP3    H273131   5.717   6.700   5.171  0.1110 -0.1804  0.4652
17214TIP3   OH273132   0.133   0.241  12.529 -0.0295 -0.2632  0.4050
17214TIP3    H173133   0.209   0.297  12.514 -0.5001 -0.2248 -2.4409
17214TIP3    H273134   0.165   0.152  12.512 -0.4667 -0.2936 -0.3068
17215TIP3   OH273135   5.685   2.012   1.171 -0.3949 -0.1126 -0.6978
17215TIP3    H173136   5.749   2.063   1.221 -0.3140 -0.4915 -0.4069
17215TIP3    H273137   5.601   2.030   1.213 -0.5426  0.6603 -1.2962
17216TIP3   OH273138   3.698   6.730   5.336 -0.3005  0.5462 -0.2620
17216TIP3    H173139   3.740   6.654   5.295 -1.4576  0.3041 -1.0461
17216TIP3    H273140   3.722   6.724   5.428 -0.2589 -0.6961 -0.3406
17217TIP3   OH273141   3.030   4.783   2.165  0.0044 -0.1912 -0.1756
17217TIP3    H173142   2.935   4.790   2.151  0.1037  0.6616 -0.4625
17217TIP3    H273143   3.056   4.708   2.112  0.0049  1.5817 -2.9108
17218TIP3   OH273144   6.446   4.691   0.110  0.8920  0.8564  0.3021
17218TIP3    H173145   6.496   4.656   0.036 -0.2642 -0.0043 -0.1050
17218TIP3    H273146   6.398   4.616   0.144 -0.0603  1.6397  0.7281
17219TIP3   OH273147   5.419   1.523  13.625  0.2308 -0.5471  0.6182
17219TIP3    H173148   5.444   1.442  13.669 -0.1845 -1.0725 -0.0936
17219TIP3    H273149   5.501   1.571  13.615  0.5252 -1.0068  0.7930
17220TIP3   OH273150   6.236   5.297   5.372  0.1568  0.5890 -0.2102
17220TIP3    H173151   6.317   5.266   5.330  0.5027  0.0001  0.8457
17220TIP3    H273152   6.255   5.293   5.466 -1.7653 -1.4502  0.1505
17221TIP3   OH273153   3.539   6.023  11.709 -0.1098 -0.2849  0.2383
17221TIP3    H173154   3.568   6.054  11.794 -0.7792  0.4723  0.2063
17221TIP3    H273155   3.447   6.049  11.704 -0.5898 -1.9053  0.0171
17222TIP3   OH273156   2.138   4.542   3.129  0.1222  0.2891 -0.1783
17222TIP3    H173157   2.112   4.507   3.215  0.1804  0.8445  0.0736
17222TIP3    H273158   2.146   4.636   3.144 -0.8365  0.5188 -1.0447
17223TIP3   OH273159   0.854   0.476   0.956  0.3623  0.1062  0.2564
17223TIP3    H173160   0.882   0.551   0.903 -0.6965 -0.1778 -0.7527
17223TIP3    H273161   0.824   0.515   1.038 -1.4907  0.9802 -0.7735
17224TIP3   OH273162   0.716   4.690   5.241 -0.4607 -0.4589 -0.4059
17224TIP3    H173163   0.677   4.703   5.155 -1.1288 -0.8669 -0.1732
17224TIP3    H273164   0.810   4.708   5.228 -0.8017  1.1552 -0.8380
17225TIP3   OH273165   0.799   4.712  16.263  0.3207  0.1569 -0.1508
17225TIP3    H173166   0.845   4.628  16.262  0.2153  0.0944 -1.2335
17225TIP3    H273167   0.724   4.697  16.321  1.5462  0.2131  1.4880
17226TIP3   OH273168   2.785   4.039   5.175  0.2991 -0.6843  0.6099
17226TIP3    H173169   2.879   4.021   5.170  0.0386 -1.6989 -1.7022
17226TIP3    H273170   2.778   4.109   5.241  2.4633 -1.6911  2.0390
17227TIP3   OH273171   0.436   2.256   5.789  0.1884  0.4069  0.0692
17227TIP3    H173172   0.530   2.251   5.767 -0.0068  0.1454 -0.7560
17227TIP3    H273173   0.433   2.248   5.884  0.8915 -1.4776 -0.0195
17228TIP3   OH273174   5.655   1.091   6.470  0.2121 -0.3872  0.1884
17228TIP3    H173175   5.737   1.085   6.422  0.4954 -1.3544  0.7606
17228TIP3    H273176   5.587   1.079   6.404  0.4994  0.8973 -0.3675
17229TIP3   OH273177   4.024   1.095  12.932 -0.2483 -0.1942  0.2157
17229TIP3    H173178   4.081   1.160  12.972  1.0099 -0.3560 -1.2397
17229TIP3    H273179   3.964   1.069  13.002  1.0468  0.4497  1.6076
17230TIP3   OH273180   0.812   5.901  16.315 -0.3114  0.3936 -0.4224
17230TIP3    H173181   0.793   5.811  16.287 -0.1107  0.4450 -0.7231
17230TIP3    H273182   0.727   5.945  16.312 -0.0804  0.7905 -2.3745
17231TIP3   OH273183   2.343   4.929  10.499  0.6634  0.5114 -0.2367
17231TIP3    H173184   2.400   4.856  10.475  0.5227 -0.0860  1.1371
17231TIP3    H273185   2.255   4.891  10.497  0.5106  0.8712 -0.3373
17232TIP3   OH273186   1.017   6.403   5.622 -0.6376  0.1563  0.6303
17232TIP3    H173187   0.966   6.397   5.541 -2.2961  0.5889  1.5834
17232TIP3    H273188   1.047   6.493   5.626 -1.0553  0.2948  0.7575
17233TIP3   OH273189   2.704   2.629  17.053 -0.1686 -0.0564  0.3256
17233TIP3    H173190   2.705   2.583  16.969  0.5353  0.7401 -0.1144
17233TIP3    H273191   2.614   2.620  17.084  0.1127 -2.3676  0.6278
17234TIP3   OH273192   1.604   4.928  11.330 -0.5495  0.4134  0.4425
17234TIP3    H173193   1.586   4.835  11.319 -0.5498  0.5216 -0.5407
17234TIP3    H273194   1.529   4.961  11.380  0.1496 -0.3694  2.0846
17235TIP3   OH273195   3.237   5.137   5.452  0.0540  0.3821 -0.2991
17235TIP3    H173196   3.146   5.111   5.465  0.0109  0.5310 -0.3020
17235TIP3    H273197   3.283   5.100   5.528  0.1305 -0.3700 -0.7031
17236TIP3   OH273198   6.710   1.779  10.776 -0.2622 -0.6002 -0.3364
17236TIP3    H173199   6.753   1.736  10.850 -1.3338 -0.2910  0.4964
17236TIP3    H273200   6.776   1.780  10.707  0.9193 -0.4785  0.7641
17237TIP3   OH273201   0.285   0.826   2.329  0.2734 -0.4116 -0.2574
17237TIP3    H173202   0.357   0.854   2.273 -0.9218 -0.0392 -1.6895
17237TIP3    H273203   0.323   0.761   2.388  1.8239  0.0217 -0.7532
17238TIP3   OH273204   3.890   3.846   3.300 -0.3550  0.1002 -0.4159
17238TIP3    H173205   3.903   3.907   3.227  0.6293  0.7134  0.2528
17238TIP3    H273206   3.977   3.833   3.336 -0.6486 -1.1970 -0.1197
17239TIP3   OH273207   1.089   2.985  15.879 -0.2202 -0.1425 -0.1886
17239TIP3    H173208   1.009   2.936  15.860  0.2065 -0.3010 -1.6642
17239TIP3    H273209   1.160   2.927  15.854  0.4566 -0.5456  2.3929
17240TIP3   OH273210   5.668   0.436  13.244  0.3439 -0.5753  0.2559
17240TIP3    H173211   5.654   0.486  13.325  0.1908  0.7418 -0.5608
17240TIP3    H273212   5.751   0.468  13.209  1.3081 -2.3710  0.7278
17241TIP3   OH273213   2.701   5.454  14.330  0.2317 -0.0922 -0.3908
17241TIP3    H173214   2.741   5.483  14.248 -0.9893 -0.3884 -1.1126
17241TIP3    H273215   2.633   5.518  14.347  1.4629  0.8475  1.2433
17242TIP3   OH273216   4.209   4.344  16.050  0.0592  0.0734  0.3650
17242TIP3    H173217   4.128   4.299  16.027  0.0309 -0.1999  0.9799
17242TIP3    H273218   4.266   4.275  16.082 -0.7438  0.7148  3.4413
17243TIP3   OH273219   0.751   0.365   1.584  0.1008 -0.0524  0.5039
17243TIP3    H173220   0.837   0.346   1.547 -0.6152 -0.7382 -0.8322
17243TIP3    H273221   0.697   0.389   1.509 -0.2101  3.1199  1.5786
17244TIP3   OH273222   2.469   3.860   0.067 -0.6113 -0.2768 -0.4433
17244TIP3    H173223   2.471   3.876   0.162 -3.0888 -0.2525 -0.3388
17244TIP3    H273224   2.493   3.768   0.058  0.8609  0.0175  0.0495
17245TIP3   OH273225   4.055   6.039   4.259  0.1312  0.9540 -0.4699
17245TIP3    H173226   4.090   5.950   4.253 -1.8031  0.1370 -0.2855
17245TIP3    H273227   3.969   6.029   4.300 -1.0162  2.6793 -2.2823
17246TIP3   OH273228   4.319   4.243  16.518 -0.1458  0.9153  0.5585
17246TIP3    H173229   4.391   4.267  16.460 -1.0605  1.7586 -0.2835
17246TIP3    H273230   4.299   4.152  16.495  0.7873  0.6012  0.9633
17247TIP3   OH273231   0.489   6.269  11.637  0.2876  0.0966 -0.1298
17247TIP3    H173232   0.492   6.276  11.542 -0.0851 -3.2170 -0.4834
17247TIP3    H273233   0.580   6.273  11.665  0.5393 -0.8078 -0.8196
17248TIP3   OH273234   0.805   1.092  14.753 -0.4692  0.1292  0.4735
17248TIP3    H173235   0.847   1.065  14.672 -1.5720  1.5150 -0.5999
17248TIP3    H273236   0.823   1.186  14.760 -1.9830  0.4173  0.8307
17249TIP3   OH273237   5.262   1.832  14.220  0.0155 -0.0398  0.3500
17249TIP3    H173238   5.259   1.837  14.125 -0.5116 -0.2241  0.3562
17249TIP3    H273239   5.342   1.782  14.239  0.3434  0.3512  0.0235
17250TIP3   OH273240   5.849   4.329   4.346 -0.3758  0.0385  0.1867
17250TIP3    H173241   5.927   4.336   4.292 -0.6318 -0.2803 -0.2282
17250TIP3    H273242   5.846   4.411   4.395  0.6122 -0.2457  0.7416
17251TIP3   OH273243   5.526   4.716  14.303 -0.2489 -0.2897 -0.2307
17251TIP3    H173244   5.513   4.635  14.352 -0.4719  0.6521  1.3562
17251TIP3    H273245   5.617   4.714  14.275 -0.4027 -1.3277 -0.6772
17252TIP3   OH273246   1.626   0.188  16.632 -0.6840 -0.8079  0.4719
17252TIP3    H173247   1.668   0.263  16.589 -0.4410  0.1010  2.2268
17252TIP3    H273248   1.562   0.226  16.691 -1.7502 -2.0816  0.1953
17253TIP3   OH273249   3.811   4.455  15.754 -0.6278 -0.2766  0.2675
17253TIP3    H173250   3.835   4.537  15.796 -0.9607  0.2399 -0.5123
17253TIP3    H273251   3.731   4.428  15.798 -0.1838 -0.5100  0.9424
17254TIP3   OH273252   1.359   4.099   1.142 -0.1339 -0.0860 -0.2136
17254TIP3    H173253   1.357   4.185   1.099 -0.6320 -0.4435 -0.9127
17254TIP3    H273254   1.448   4.067   1.125 -0.7371 -0.8574 -2.2960
17255TIP3   OH273255   3.346   5.195  15.077 -0.8382 -0.1404 -0.1836
17255TIP3    H173256   3.393   5.277  15.093 -0.6034 -0.0481 -1.2745
17255TIP3    H273257   3.404   5.145  15.019 -1.4104 -0.6796 -0.3009
17256TIP3   OH273258   2.447   4.547   6.058  0.5369  0.4142 -0.1425
17256TIP3    H173259   2.542   4.533   6.054  0.2306 -2.2145 -0.0932
17256TIP3    H273260   2.431   4.576   6.148  1.0818 -1.6556  0.6811
17257TIP3   OH273261   2.135   6.594   1.553 -0.3074 -0.1689  0.1311
17257TIP3    H173262   2.159   6.595   1.461  2.6334 -0.2445  0.7925
17257TIP3    H273263   2.148   6.504   1.581  0.8981  0.2337  1.0114
17258TIP3   OH273264   6.017   0.277   2.542  0.1890  0.1086  0.2324
17258TIP3    H173265   5.989   0.219   2.471 -0.6962 -0.0082  0.6604
17258TIP3    H273266   6.094   0.321   2.507  0.2364 -0.5260 -0.5075
17259TIP3   OH273267   0.637   4.777   0.468  0.0308 -0.1975 -0.0202
17259TIP3    H173268   0.632   4.873   0.459 -0.1427 -0.3221 -1.5123
17259TIP3    H273269   0.725   4.760   0.500 -0.1410  0.4847  0.8764
17260TIP3   OH273270   3.693   5.803  15.112  0.1975 -0.0171  0.2378
17260TIP3    H173271   3.762   5.855  15.152  0.4828  0.1092 -0.4025
17260TIP3    H273272   3.661   5.747  15.183 -0.1857  1.0921  0.9562
17261TIP3   OH273273   1.660   2.453   3.341  0.1775  0.2172  0.4345
17261TIP3    H173274   1.604   2.416   3.409  0.6586 -0.7790  0.3012
17261TIP3    H273275   1.733   2.492   3.388 -0.0748  0.5602  0.5463
17262TIP3   OH273276   1.874   3.112   4.311 -0.2205 -0.0974  0.7417
17262TIP3    H173277   1.817   3.184   4.282 -1.8130 -1.2881  0.8153
17262TIP3    H273278   1.962   3.146   4.298 -0.9150  1.7801  0.5191
17263TIP3   OH273279   5.875   4.740   0.030 -0.3525 -0.4484 -0.1357
17263TIP3    H173280   5.869   4.719   0.124 -0.8476 -0.1165 -0.0868
17263TIP3    H273281   5.810   4.809   0.018  0.5094  0.3148 -0.4960
17264TIP3   OH273282   3.284   1.898  11.639 -0.3603  0.5176  0.4040
17264TIP3    H173283   3.264   1.805  11.656 -0.7477  0.5962  0.3976
17264TIP3    H273284   3.257   1.943  11.719  2.8360  0.2674  1.7560
17265TIP3   OH273285   3.711   0.846  16.956  0.1767  0.0273 -0.0466
17265TIP3    H173286   3.675   0.902  17.025  1.8798 -0.5120  1.3624
17265TIP3    H273287   3.681   0.758  16.980 -0.6679  0.0504 -0.9973
17266TIP3   OH273288   2.936   3.552  15.302  0.1704  0.4959  0.1838
17266TIP3    H173289   2.857   3.531  15.352 -0.3604 -0.2675 -0.9353
17266TIP3    H273290   2.975   3.466  15.283  2.2814  0.8901  2.2238
17267TIP3   OH273291   6.102   3.771   0.644  0.4197 -0.0865  0.7531
17267TIP3    H173292   6.047   3.794   0.570  2.2553 -0.1041 -0.7025
17267TIP3    H273293   6.191   3.792   0.615  1.6987 -3.7627  1.3784
17268TIP3   OH273294   2.271   4.469  14.933 -0.2194 -0.0266 -0.2341
17268TIP3    H173295   2.355   4.443  14.970 -1.1732 -1.1374  1.2526
17268TIP3    H273296   2.291   4.549  14.884  1.9293 -0.9354 -0.9949
17269TIP3   OH273297   3.306   6.592  12.390 -0.2017 -0.1624 -0.4729
17269TIP3    H173298   3.355   6.642  12.456  0.7871  1.3412 -2.2628
17269TIP3    H273299   3.372   6.568  12.325 -1.4770  0.0481 -1.8867
17270TIP3   OH273300   3.844   6.355  10.329  0.5229 -0.1551 -0.2076
17270TIP3    H173301   3.915   6.408  10.294 -0.0284  0.2004 -0.8190
17270TIP3    H273302   3.884   6.271  10.350  1.0080 -0.1509 -1.0842
17271TIP3   OH273303   2.683   4.338  15.566  0.7119  0.4446 -0.4763
17271TIP3    H173304   2.626   4.296  15.502  1.3117 -1.8360  0.3891
17271TIP3    H273305   2.623   4.384  15.625 -0.0667 -0.1014 -0.8186
17272TIP3   OH273306   0.205   6.516   1.793 -0.2248  0.7530  0.0554
17272TIP3    H173307   0.269   6.477   1.734 -1.2021  1.1495 -1.2990
17272TIP3    H273308   0.241   6.501   1.881  2.4232  2.2088 -0.6844
17273TIP3   OH273309   2.406   4.548   1.200  0.4167  0.1318  1.0577
17273TIP3    H173310   2.462   4.518   1.272  2.4595  1.7501  0.2599
17273TIP3    H273311   2.389   4.470   1.148  2.4803 -0.3561  1.0293
17274TIP3   OH273312   2.198   5.260   1.206  0.2716  0.1359 -0.2704
17274TIP3    H173313   2.188   5.349   1.240 -1.6154  0.0498 -0.5127
17274TIP3    H273314   2.166   5.264   1.117 -2.6707 -1.3463  0.6056
17275TIP3   OH273315   5.759   1.367  15.521  0.2224 -0.3551  0.2672
17275TIP3    H173316   5.695   1.409  15.464 -1.3677 -1.4281  1.1725
17275TIP3    H273317   5.716   1.365  15.607  1.8416 -0.3335  1.1113
17276TIP3   OH273318   0.137   1.305  12.500  0.0609  0.1674 -0.0227
17276TIP3    H173319   0.072   1.327  12.434  0.2309 -0.5262 -0.4255
17276TIP3    H273320   0.220   1.337  12.465 -0.1532  1.7980  0.8568
17277TIP3   OH273321   5.025   4.822   1.861 -0.0129 -0.7315  0.3554
17277TIP3    H173322   5.055   4.760   1.927 -0.6010  0.2198  1.5431
17277TIP3    H273323   5.023   4.907   1.906  0.8426  0.1950 -1.2404
17278TIP3   OH273324   2.315   1.911  12.779 -0.1123 -0.1424  0.1559
17278TIP3    H173325   2.332   1.930  12.687 -1.6494 -1.0000 -0.3416
17278TIP3    H273326   2.246   1.845  12.777 -0.8266  0.5054  1.9401
17279TIP3   OH273327   4.581   5.996  11.308  0.3489  0.1513  0.0152
17279TIP3    H173328   4.517   5.959  11.369  0.3589  1.4531  0.8618
17279TIP3    H273329   4.661   6.006  11.360  0.1797  1.8573  0.0245
17280TIP3   OH273330   0.792   4.313  16.546  0.4244  0.2221 -0.4276
17280TIP3    H173331   0.859   4.245  16.545  1.1275  0.9023 -0.3437
17280TIP3    H273332   0.765   4.321  16.454  0.7662  0.2359 -0.5303
17281TIP3   OH273333   4.525   3.430  16.955 -0.2136  0.0198 -0.1960
17281TIP3    H173334   4.452   3.386  16.912 -1.3943 -0.6723  2.3599
17281TIP3    H273335   4.562   3.364  17.013  0.5543  1.2275  0.7308
17282TIP3   OH273336   2.702   1.173   5.549  0.3350  0.0464 -0.0454
17282TIP3    H173337   2.728   1.265   5.554  0.6294 -0.0830  1.1110
17282TIP3    H273338   2.626   1.172   5.491 -0.7825  1.2830  1.3503
17283TIP3   OH273339   6.644   4.309   1.542 -0.4120  0.2219  0.0383
17283TIP3    H173340   6.620   4.401   1.540 -1.9402 -0.1573 -0.5621
17283TIP3    H273341   6.596   4.274   1.618  0.0578 -0.1092  0.1868
17284TIP3   OH273342   6.090   1.516   2.867 -0.0678 -0.0112 -0.2921
17284TIP3    H173343   6.123   1.478   2.785 -0.2058  0.5209 -0.5932
17284TIP3    H273344   6.169   1.538   2.917  0.0641 -2.5152  0.7663
17285TIP3   OH273345   3.094   1.141   1.894 -0.5862  0.6729 -0.2570
17285TIP3    H173346   3.142   1.109   1.971 -0.0387  1.0448 -0.4373
17285TIP3    H273347   3.054   1.062   1.856 -0.7001  0.4610  0.2972
17286TIP3   OH273348   4.362   1.907   1.317  0.2750 -0.8404 -0.3474
17286TIP3    H173349   4.309   1.965   1.371  1.3701  1.1927 -1.3367
17286TIP3    H273350   4.446   1.901   1.363  1.4200  1.3696 -1.9330
17287TIP3   OH273351   0.848   1.476   2.150  0.0407  0.0506 -0.2667
17287TIP3    H173352   0.815   1.560   2.181  1.2138  0.2087  0.6642
17287TIP3    H273353   0.890   1.495   2.066 -2.3511 -0.2053 -1.6083
17288TIP3   OH273354   6.396   0.515   5.779 -0.0143 -0.2638  0.1040
17288TIP3    H173355   6.317   0.568   5.788  0.2419  0.0811  0.3522
17288TIP3    H273356   6.402   0.498   5.685 -0.1519  0.0707  0.0323
17289TIP3   OH273357   1.090   4.964  14.395 -0.1986 -0.1826 -0.1226
17289TIP3    H173358   1.172   4.916  14.398  0.7172  1.2874  2.8414
17289TIP3    H273359   1.029   4.912  14.447 -0.6886 -0.4848 -0.9815
17290TIP3   OH273360   2.032   6.145  15.619 -0.4345  0.4070  0.1628
17290TIP3    H173361   2.121   6.136  15.585  0.2081  2.0434  1.3006
17290TIP3    H273362   2.009   6.057  15.649  1.0205  0.0592  0.3366
17291TIP3   OH273363   6.286   4.684   5.483  0.0630 -0.2820  0.2150
17291TIP3    H173364   6.222   4.756   5.479  0.4280  0.0893  0.8174
17291TIP3    H273365   6.359   4.714   5.430 -0.1162 -0.5600 -0.1935
17292TIP3   OH273366   6.253   0.056   0.651  0.1291  0.0921  0.7593
17292TIP3    H173367   6.168   0.014   0.664  0.2788 -0.5969 -0.3430
17292TIP3    H273368   6.236   0.123   0.585  0.5307 -0.3998  0.1398
17293TIP3   OH273369   6.270   3.779  14.263 -0.5650  0.0148  0.4252
17293TIP3    H173370   6.323   3.763  14.341 -1.2776  0.6713  1.0573
17293TIP3    H273371   6.317   3.847  14.215  0.8924 -1.7100 -0.7404
17294TIP3   OH273372   5.399   4.590   1.929 -0.6645 -0.0820 -0.5313
17294TIP3    H173373   5.481   4.639   1.934 -0.1706 -0.9229 -0.1501
17294TIP3    H273374   5.335   4.645   1.974  0.6669 -1.3220  3.2985
17295TIP3   OH273375   6.116   1.423  11.138 -0.2724 -0.1780 -0.3455
17295TIP3    H173376   6.116   1.328  11.126 -1.0706 -0.0906 -1.0867
17295TIP3    H273377   6.039   1.454  11.090  0.8968  1.0156 -1.5554
17296TIP3   OH273378   3.186   2.034  16.683  0.2299  0.1630  0.7565
17296TIP3    H173379   3.101   1.994  16.665  0.3742  0.4704 -0.7384
17296TIP3    H273380   3.249   1.977  16.639  0.4914  1.5924 -0.8586
17297TIP3   OH273381   6.233   4.498   1.861 -0.1594 -0.3452  0.4023
17297TIP3    H173382   6.308   4.519   1.804 -0.2307  0.2089  0.5020
17297TIP3    H273383   6.235   4.566   1.928 -2.8678  1.9498 -1.5834
17298TIP3   OH273384   1.233   0.462  14.344 -0.0680  0.1060 -0.4415
17298TIP3    H173385   1.208   0.384  14.393 -0.2152  1.1265  1.2086
17298TIP3    H273386   1.328   0.459  14.339 -0.0535 -0.0520 -0.1131
17299TIP3   OH273387   4.159   5.170  12.211 -0.5986 -0.4238 -0.6353
17299TIP3    H173388   4.115   5.173  12.296 -0.4661 -0.4685 -0.5638
17299TIP3    H273389   4.199   5.083  12.208  1.1052  0.2807  0.1402
17300TIP3   OH273390   5.992   6.756  16.127 -0.0135  0.3214  0.4467
17300TIP3    H173391   5.931   6.755  16.054  1.7660 -0.5741 -1.0974
17300TIP3    H273392   5.993   6.847  16.157  0.6624  1.1614 -1.9360
17301TIP3   OH273393   4.164   5.673   2.523  0.6407 -0.0258 -0.4381
17301TIP3    H173394   4.242   5.728   2.512  0.1756  0.9624  0.9013
17301TIP3    H273395   4.141   5.682   2.615  0.4621 -2.4189 -0.1809
17302TIP3   OH273396   5.346   4.837  12.321  0.5677 -0.7585 -0.2642
17302TIP3    H173397   5.357   4.752  12.279 -1.0519 -1.1961  0.1061
17302TIP3    H273398   5.317   4.895  12.251  2.3031 -0.3149 -0.6543
17303TIP3   OH273399   4.560   0.546  15.398  0.2958  0.0793 -0.0811
17303TIP3    H173400   4.491   0.505  15.451 -0.6325  1.2737 -0.3319
17303TIP3    H273401   4.516   0.575  15.319  1.2327  0.2793 -0.5447
17304TIP3   OH273402   1.048   4.738  12.756  0.0559 -0.2139 -0.6829
17304TIP3    H173403   1.072   4.823  12.719 -0.3180  0.7050  1.0836
17304TIP3    H273404   0.974   4.709  12.702 -0.5712  1.1522 -0.6120
17305TIP3   OH273405   0.588   0.834  14.662 -0.5567  0.3287  0.1507
17305TIP3    H173406   0.669   0.860  14.619 -0.5381 -0.5587 -0.3752
17305TIP3    H273407   0.614   0.813  14.752  0.0876 -1.4505 -0.4269
17306TIP3   OH273408   1.931   2.335   5.429  0.1626  1.2766 -0.0063
17306TIP3    H173409   1.986   2.391   5.374 -0.8897  0.0206 -2.5082
17306TIP3    H273410   1.862   2.303   5.370 -0.0801 -1.5207  1.5949
17307TIP3   OH273411   6.640   2.979  13.110  0.3061 -0.5287 -0.1720
17307TIP3    H173412   6.567   2.985  13.049  0.6532 -1.3180 -0.6841
17307TIP3    H273413   6.601   2.951  13.193  0.2098 -2.8028 -0.9107
17308TIP3   OH273414   5.002   0.325  14.899  0.1075 -0.1559  0.3921
17308TIP3    H173415   4.996   0.358  14.989  0.9545  2.2807 -0.3807
17308TIP3    H273416   5.094   0.334  14.876 -0.2483  0.0449 -1.0203
17309TIP3   OH273417   0.581   0.456  14.085  0.0802  0.1045  0.0569
17309TIP3    H173418   0.499   0.457  14.135 -0.4578  1.2460 -0.8220
17309TIP3    H273419   0.582   0.539  14.038  1.2424 -0.3529 -0.7700
17310TIP3   OH273420   4.819   5.336  12.999  0.6052  0.4202 -0.0366
17310TIP3    H173421   4.868   5.352  13.080 -0.2426  0.6158  0.4392
17310TIP3    H273422   4.880   5.285  12.945  1.2021  0.3404  0.6876
17311TIP3   OH273423   3.152   4.239   0.341  0.3561 -0.3532  0.3742
17311TIP3    H173424   3.103   4.301   0.396 -0.1584  0.2013 -0.6763
17311TIP3    H273425   3.085   4.181   0.305  0.5623 -0.0805 -0.4565
17312TIP3   OH273426   0.792   4.925   5.372 -0.3744  0.1493 -0.2591
17312TIP3    H173427   0.738   4.856   5.334  1.2756 -1.7760  0.7083
17312TIP3    H273428   0.777   4.919   5.467  2.5662 -1.5597  0.2460
17313TIP3   OH273429   4.117   3.018  11.103 -0.3415  0.1277 -0.1533
17313TIP3    H173430   4.087   3.037  11.192 -0.1522  0.1103 -0.0858
17313TIP3    H273431   4.036   3.003  11.054 -0.4003 -1.5922  0.3963
17314TIP3   OH273432   2.736   4.817   3.733 -0.1669  0.1071 -0.5076
17314TIP3    H173433   2.802   4.776   3.788  0.0991  0.1394 -0.7998
17314TIP3    H273434   2.782   4.890   3.690  0.6240 -1.9577 -3.4561
17315TIP3   OH273435   5.961   0.254  13.737  0.1724 -0.0273  0.2756
17315TIP3    H173436   5.903   0.285  13.668  1.1584 -0.3067 -0.6994
17315TIP3    H273437   5.932   0.165  13.755 -0.8097  0.4232  1.0484
17316TIP3   OH273438   5.385   0.106   3.016 -0.3292 -0.0171 -0.5207
17316TIP3    H173439   5.342   0.043   3.074  1.3409 -1.3736 -0.6693
17316TIP3    H273440   5.335   0.102   2.935 -0.5168 -0.8303 -0.3744
17317TIP3   OH273441   3.081   1.211  13.454  0.1985 -0.6442 -0.3869
17317TIP3    H173442   3.047   1.252  13.533  0.6669 -2.4447  0.8081
17317TIP3    H273443   3.040   1.124  13.452 -1.3466  0.0118 -3.2174
17318TIP3   OH273444   0.942   4.018  16.150 -0.3270  0.6220  0.0569
17318TIP3    H173445   0.986   3.940  16.117  0.1862  0.6576  0.6455
17318TIP3    H273446   1.008   4.088  16.142  0.1283  0.4642  1.9312
17319TIP3   OH273447   5.750   1.799  12.473 -0.4645 -0.3915  0.2759
17319TIP3    H173448   5.709   1.885  12.463  0.3536 -0.2470 -3.3454
17319TIP3    H273449   5.694   1.741  12.422  1.5185 -0.9823 -1.3581
17320TIP3   OH273450   1.254   0.349   0.382 -0.1348 -0.2043  0.0953
17320TIP3    H173451   1.301   0.307   0.311  0.2234 -0.3646  0.4217
17320TIP3    H273452   1.301   0.431   0.398 -1.4242  0.8305 -1.2091
17321TIP3   OH273453   2.179   1.302  12.239  0.2483 -0.3574 -0.2438
17321TIP3    H173454   2.124   1.304  12.160  1.7508  0.4400 -1.3141
17321TIP3    H273455   2.153   1.381  12.288 -0.3911 -0.6301 -0.1254
17322TIP3   OH273456   5.236   0.915   0.808  0.2268  0.0054  0.3882
17322TIP3    H173457   5.236   0.934   0.714  1.5683 -0.1347  0.3358
17322TIP3    H273458   5.325   0.883   0.826 -0.4088 -1.2999  1.4402
17323TIP3   OH273459   0.419   3.389  10.694  0.9558 -0.3174 -0.3945
17323TIP3    H173460   0.339   3.394  10.641  0.2881  0.1491  0.6124
17323TIP3    H273461   0.482   3.344  10.639 -0.5568 -2.3366 -0.5644
17324TIP3   OH273462   5.946   4.394   1.840 -0.1733 -0.3726  0.3332
17324TIP3    H173463   6.011   4.378   1.771 -0.9609  0.6110 -0.6639
17324TIP3    H273464   5.972   4.477   1.878 -1.7035  0.8422 -1.1372
17325TIP3   OH273465   1.117   3.957   3.345 -0.3736  0.5191 -0.0303
17325TIP3    H173466   1.195   3.904   3.325 -0.8912 -0.1086 -0.4189
17325TIP3    H273467   1.132   3.988   3.434  0.1561  0.0981  0.0328
17326TIP3   OH273468   2.668   1.197  17.012 -0.6118  0.7826 -0.1136
17326TIP3    H173469   2.721   1.118  17.003 -1.2827  0.0701  1.7591
17326TIP3    H273470   2.626   1.207  16.926 -1.2034 -1.4109 -0.1469
17327TIP3   OH273471   0.859   5.188   5.540 -0.2810  0.0066 -0.4010
17327TIP3    H173472   0.939   5.179   5.488 -0.3688 -1.0559 -0.3820
17327TIP3    H273473   0.877   5.261   5.599  1.8143 -1.9116  1.5463
17328TIP3   OH273474   5.927   2.477   2.249 -0.8430 -0.4493  0.7651
17328TIP3    H173475   5.990   2.410   2.222 -0.9330 -1.3957  2.7311
17328TIP3    H273476   5.886   2.440   2.327 -1.3476  1.6544  1.5430
17329TIP3   OH273477   2.368   3.596   5.414  0.6182  0.0636  0.1338
17329TIP3    H173478   2.350   3.567   5.504 -1.1824  1.0622  0.1535
17329TIP3    H273479   2.302   3.551   5.361 -0.0717  1.5057 -0.2845
17330TIP3   OH273480   3.062   2.734   1.603  0.1640  0.0413 -0.3601
17330TIP3    H173481   2.977   2.703   1.635  1.1157 -1.9509  0.4118
17330TIP3    H273482   3.124   2.713   1.673  1.3501  1.1891 -1.0187
17331TIP3   OH273483   5.984   0.163   4.669 -0.0927  0.0585  0.8814
17331TIP3    H173484   5.925   0.228   4.708 -0.7059 -0.0206  0.1108
17331TIP3    H273485   6.059   0.213   4.640  0.4587  0.0973  2.2995
17332TIP3   OH273486   5.778   3.219  15.238  0.3475  0.7262  0.3692
17332TIP3    H173487   5.719   3.223  15.163  1.0999  0.5506 -0.2483
17332TIP3    H273488   5.773   3.306  15.277  1.1094  1.3327 -0.8139
17333TIP3   OH273489   1.230   2.052   0.097  0.0168 -0.1115  0.6669
17333TIP3    H173490   1.224   2.010   0.011 -2.9749  1.3212  0.0350
17333TIP3    H273491   1.312   2.020   0.134  1.4027 -0.8203 -2.6747
17334TIP3   OH273492   1.065   4.124  12.093  0.2247 -0.1704  0.3186
17334TIP3    H173493   1.080   4.206  12.045  1.5161  1.3675  3.0893
17334TIP3    H273494   1.036   4.062  12.026  0.4586  2.1751 -2.1380
17335TIP3   OH273495   2.716   2.669  15.041 -0.2063 -0.6207  0.1983
17335TIP3    H173496   2.656   2.742  15.025 -0.6098 -0.8610  0.5990
17335TIP3    H273497   2.752   2.648  14.955 -1.0384 -0.7661 -0.1223
17336TIP3   OH273498   5.605   4.560  16.987  0.9920 -0.5311 -0.0246
17336TIP3    H173499   5.568   4.631  16.936 -0.0514  0.3249  1.8411
17336TIP3    H273500   5.689   4.593  17.018  1.2099 -0.7116 -0.4097
17337TIP3   OH273501   4.356   6.133   4.067 -0.4404 -0.0077 -0.8806
17337TIP3    H173502   4.441   6.174   4.048  0.3009 -1.4893 -0.9033
17337TIP3    H273503   4.312   6.196   4.125  2.4998 -1.0490  2.9146
17338TIP3   OH273504   5.392   6.430  12.251  0.3540 -0.5559  0.0881
17338TIP3    H173505   5.476   6.471  12.275  0.7132 -0.2562 -1.5783
17338TIP3    H273506   5.327   6.476  12.305  0.9875  0.8764 -0.3078
17339TIP3   OH273507   1.658   4.908   3.934  0.6138  0.4104  0.2080
17339TIP3    H173508   1.625   4.985   3.980 -1.3466  0.1836 -0.7183
17339TIP3    H273509   1.691   4.942   3.851  1.9698  0.5259  0.7784
17340TIP3   OH273510   6.147   5.278   3.600  0.4047 -0.0956 -0.5590
17340TIP3    H173511   6.145   5.234   3.685 -1.5823 -1.3215 -1.1687
17340TIP3    H273512   6.232   5.254   3.563  1.3436  0.5407  1.0814
17341TIP3   OH273513   3.248   0.950  15.206 -0.4932  0.0297 -0.7298
17341TIP3    H173514   3.185   0.965  15.135  0.6463 -0.3863 -1.8514
17341TIP3    H273515   3.198   0.969  15.286 -1.1547  2.8198 -1.6906
17342TIP3   OH273516   1.080   2.608  15.235  0.0229 -0.4179 -0.1248
17342TIP3    H173517   0.999   2.655  15.215  0.6660 -0.2811 -2.8741
17342TIP3    H273518   1.133   2.671  15.285 -0.0784  0.9673 -1.6686
17343TIP3   OH273519   1.936   0.787  15.105  0.3369  0.2252 -0.2229
17343TIP3    H173520   1.921   0.708  15.054  2.0014  0.3378 -0.9574
17343TIP3    H273521   1.920   0.859  15.043  2.4246  0.3616 -0.6731
17344TIP3   OH273522   3.222   2.767   1.873 -0.4380 -0.3541  0.0736
17344TIP3    H173523   3.250   2.708   1.943  0.5356 -0.0466 -0.0475
17344TIP3    H273524   3.270   2.737   1.796  0.1109  0.6234  0.0201
17345TIP3   OH273525   5.317   5.755   3.604 -0.2076 -0.5263  1.0657
17345TIP3    H173526   5.344   5.842   3.633 -0.1335 -0.3569  0.5079
17345TIP3    H273527   5.241   5.734   3.658  0.1181 -0.3553  1.5907
17346TIP3   OH273528   3.513   4.915   0.506 -0.3259  0.2832  0.5451
17346TIP3    H173529   3.526   4.926   0.600  2.3502  3.2434  0.0353
17346TIP3    H273530   3.600   4.892   0.473 -1.2831 -1.0561 -1.2067
17347TIP3   OH273531   3.230   0.012   4.376 -0.1725  0.4416  0.0573
17347TIP3    H173532   3.155  -0.044   4.353 -1.0820  1.1110  1.2886
17347TIP3    H273533   3.238   0.003   4.471  2.2041 -0.6700 -0.1838
17348TIP3   OH273534   3.793   5.981  16.760  0.1046 -0.0703 -0.1322
17348TIP3    H173535   3.812   6.008  16.850 -1.0520 -1.2938  0.5068
17348TIP3    H273536   3.709   6.022  16.740  0.3664  0.2071 -0.6709
17349TIP3   OH273537   5.563   1.047   2.225 -0.0730 -0.0203  0.3877
17349TIP3    H173538   5.602   1.018   2.142  0.7370  1.1316  0.3480
17349TIP3    H273539   5.472   1.066   2.203  0.0100 -0.1926 -0.1206
17350TIP3   OH273540   6.656   4.393   0.674 -0.0017 -0.4190 -0.1989
17350TIP3    H173541   6.608   4.314   0.699  0.7015 -0.9484 -0.5080
17350TIP3    H273542   6.739   4.361   0.639  0.3068  0.4605 -0.2904
17351TIP3   OH273543   6.794   6.341   1.683 -0.0322  0.3098 -0.0842
17351TIP3    H173544   6.775   6.324   1.775  0.8070  2.0526  0.4596
17351TIP3    H273545   6.889   6.330   1.677 -0.0805  0.2342 -0.7483
17352TIP3   OH273546   3.167   4.808  15.589  0.2292 -0.0036  0.0731
17352TIP3    H173547   3.107   4.798  15.515 -1.0943  0.1757  1.0829
17352TIP3    H273548   3.161   4.725  15.636 -1.3503  0.9604  1.6724
17353TIP3   OH273549   1.727   5.078  11.999 -0.1952 -0.3465  0.4476
17353TIP3    H173550   1.733   5.159  12.048 -0.5514 -0.2894  0.3982
17353TIP3    H273551   1.786   5.090  11.925 -1.8073  0.7132 -0.7377
17354TIP3   OH273552   1.757   0.016   2.457 -0.0012 -0.3969  0.2601
17354TIP3    H173553   1.804   0.090   2.495  0.2054  0.1659 -1.0374
17354TIP3    H273554   1.791  -0.061   2.503  0.9211  0.1682  0.5435
17355TIP3   OH273555   5.215   0.959   1.711 -0.1747  0.0798  0.2894
17355TIP3    H173556   5.213   0.880   1.764  1.8140  1.3208  2.3986
17355TIP3    H273557   5.300   0.999   1.729  0.2782  1.1091 -3.1912
17356TIP3   OH273558   0.303   0.881  15.522  0.5174  0.2495  0.9042
17356TIP3    H173559   0.320   0.789  15.540  0.3130  0.4283  2.1065
17356TIP3    H273560   0.348   0.898  15.440 -2.4200 -1.8357 -1.3429
17357TIP3   OH273561   4.094   2.509   5.037 -0.1150  0.2263  0.1731
17357TIP3    H173562   4.010   2.490   4.997  0.1044  1.8227 -1.1717
17357TIP3    H273563   4.135   2.423   5.051 -1.3246 -0.4876 -0.5504
17358TIP3   OH273564   5.015   3.584   3.068 -0.2622 -0.1698  0.0038
17358TIP3    H173565   5.042   3.526   2.996 -0.7727 -1.1042  0.5512
17358TIP3    H273566   5.090   3.643   3.079  0.0656 -0.3918 -0.9013
17359TIP3   OH273567   1.796   6.079   4.915 -0.2376  0.6012  0.0451
17359TIP3    H173568   1.863   6.139   4.885  0.7804 -0.5372 -0.0209
17359TIP3    H273569   1.824   6.052   5.002 -1.5417  1.4550  0.7730
17360TIP3   OH273570   2.228   0.366  13.699  0.1305 -0.3766  0.0075
17360TIP3    H173571   2.220   0.317  13.617  0.8019  0.7035 -0.7375
17360TIP3    H273572   2.320   0.358  13.724  0.0459 -0.2614  0.3646
17361TIP3   OH273573   0.383   0.451  13.175  0.2028  0.0629 -0.3804
17361TIP3    H173574   0.411   0.455  13.083  0.4640  1.2545 -0.2672
17361TIP3    H273575   0.319   0.380  13.177 -1.3190  1.3000 -1.9169
17362TIP3   OH273576   6.476   0.916  14.450 -0.7789  0.0866 -0.3057
17362TIP3    H173577   6.392   0.870  14.449 -0.5731 -0.3549 -2.5376
17362TIP3    H273578   6.501   0.921  14.358  1.8098 -0.0505  0.3301
17363TIP3   OH273579   4.126   1.227  16.259  0.3223 -0.1233  0.3240
17363TIP3    H173580   4.061   1.158  16.246  1.0182 -1.0675  1.5489
17363TIP3    H273581   4.206   1.180  16.282  1.1685  1.0530 -0.1100
17364TIP3   OH273582   4.857   5.163  15.045  0.2572 -0.2030  0.1925
17364TIP3    H173583   4.769   5.159  15.007  0.3826  0.7600 -0.2190
17364TIP3    H273584   4.915   5.183  14.971  0.5549  1.2941  0.7999
17365TIP3   OH273585   6.508   3.510  14.435 -0.4026 -0.1618 -0.3222
17365TIP3    H173586   6.487   3.517  14.341 -1.4996  1.9276  0.0200
17365TIP3    H273587   6.480   3.594  14.472 -3.0777 -2.0812  2.4711
17366TIP3   OH273588   1.645   6.531  13.615  0.6668 -0.3908 -0.4518
17366TIP3    H173589   1.584   6.566  13.679  0.1798 -3.2337  0.7961
17366TIP3    H273590   1.591   6.509  13.539  0.2013 -2.0979  0.3234
17367TIP3   OH273591   5.746   3.623  16.962 -0.2346  0.2235 -0.9136
17367TIP3    H173592   5.737   3.605  16.868  0.3025 -0.6961 -0.7994
17367TIP3    H273593   5.698   3.704  16.975  0.6477  1.0001 -2.2070
17368TIP3   OH273594   4.879   1.849   0.929 -0.5581 -0.0631 -0.2149
17368TIP3    H173595   4.968   1.833   0.896  1.2100  3.0104  2.5486
17368TIP3    H273596   4.885   1.836   1.023 -3.0070  0.5608  0.1040
17369TIP3   OH273597   4.793   0.025   2.708 -0.0937 -0.3376 -0.1535
17369TIP3    H173598   4.801  -0.005   2.799 -1.1375  0.1595  0.1271
17369TIP3    H273599   4.702   0.005   2.685  0.2346 -0.6794 -1.1795
17370TIP3   OH273600   3.829   4.799   1.848  0.1578 -0.4182 -0.1567
17370TIP3    H173601   3.895   4.836   1.791 -0.4004  0.2098 -0.4119
17370TIP3    H273602   3.827   4.858   1.924  1.1066 -1.4080  0.6822
17371TIP3   OH273603   0.209   0.115   1.112 -0.1729  0.0192 -0.3750
17371TIP3    H173604   0.294   0.134   1.071  0.4926  0.9363  1.3285
17371TIP3    H273605   0.211   0.021   1.129  0.2121 -0.0820 -0.9562
17372TIP3   OH273606   2.144   4.977  11.240  0.3975  0.7010  0.1392
17372TIP3    H173607   2.188   4.893  11.247  1.4907  1.1920 -0.4899
17372TIP3    H273608   2.052   4.959  11.260  0.0119 -1.1837 -2.7841
17373TIP3   OH273609   2.744   6.151   4.199 -0.1276 -0.8251  0.2884
17373TIP3    H173610   2.721   6.240   4.225  0.4005 -0.7069  0.3625
17373TIP3    H273611   2.838   6.144   4.218  0.4869 -0.4853 -2.1566
17374TIP3   OH273612   3.089   2.651  16.830 -0.0011  0.1660  0.6786
17374TIP3    H173613   3.141   2.606  16.763 -1.0962 -1.1746  0.6985
17374TIP3    H273614   3.025   2.702  16.780 -0.4257 -0.3549  0.6839
17375TIP3   OH273615   1.263   5.234   3.159  0.0665 -0.6025 -0.5075
17375TIP3    H173616   1.352   5.269   3.169 -0.2166  0.0826 -0.3048
17375TIP3    H273617   1.268   5.144   3.192  0.2228  0.0922  1.4828
17376TIP3   OH273618   1.890   4.197  12.184  0.4171 -0.3516 -0.1358
17376TIP3    H173619   1.796   4.184  12.173  0.0046  1.3290  1.0728
17376TIP3    H273620   1.901   4.216  12.278  1.4195  3.1606 -0.8157
17377TIP3   OH273621   1.094   4.752   6.562  0.0769  0.4045 -0.6856
17377TIP3    H173622   1.167   4.805   6.595  0.0980 -0.3809  0.5978
17377TIP3    H273623   1.017   4.809   6.574  0.0150 -0.0145  1.2394
17378TIP3   OH273624   5.833   2.658  12.924 -0.4533 -0.3581 -0.2767
17378TIP3    H173625   5.784   2.697  12.997  1.1054  1.7209 -0.2148
17378TIP3    H273626   5.833   2.726  12.857 -0.7633 -1.7506 -1.7436
17379TIP3   OH273627   4.132   0.642  14.446 -0.2373 -0.1163  0.3456
17379TIP3    H173628   4.037   0.635  14.439 -0.2025  0.3517 -0.9108
17379TIP3    H273629   4.162   0.553  14.465 -0.8466 -0.4617 -0.2882
17380TIP3   OH273630   0.140   3.703  17.104  0.0578 -0.1725 -0.0006
17380TIP3    H173631   0.095   3.782  17.074 -0.0502 -0.3718 -0.3639
17380TIP3    H273632   0.088   3.631  17.069 -0.1394 -0.4136  0.7518
17381TIP3   OH273633   3.430   1.414   5.181  0.2849 -0.2807  0.5142
17381TIP3    H173634   3.522   1.439   5.169  0.1398  0.7610  1.3913
17381TIP3    H273635   3.403   1.381   5.095  1.1552  0.4827 -0.0786
17382TIP3   OH273636   4.846   6.698  12.184  0.5390  0.2273  0.0445
17382TIP3    H173637   4.879   6.615  12.150  1.3893  0.3110  0.6402
17382TIP3    H273638   4.766   6.675  12.231  0.0460 -0.0624 -0.9154
17383TIP3   OH273639   6.455   3.725  12.857 -0.2299 -0.0952  0.3679
17383TIP3    H173640   6.389   3.688  12.798  0.2236 -0.4566  0.0886
17383TIP3    H273641   6.408   3.737  12.940 -1.1616  1.3433 -0.3047
17384TIP3   OH273642   0.807   6.444   5.378  0.2125 -0.5456  0.0234
17384TIP3    H173643   0.812   6.350   5.364 -0.4986 -0.7937  1.2303
17384TIP3    H273644   0.726   6.471   5.335 -0.5008 -0.8094  1.1699
17385TIP3   OH273645   6.623   1.630   5.203  0.2977  0.2663  0.2185
17385TIP3    H173646   6.718   1.626   5.192  0.2867  0.6155 -0.0458
17385TIP3    H273647   6.590   1.637   5.113 -0.0816 -1.6751  0.1693
17386TIP3   OH273648   5.493   2.699   0.887  0.2812  0.0309 -0.2387
17386TIP3    H173649   5.538   2.701   0.802 -0.9966 -0.6620 -0.9574
17386TIP3    H273650   5.453   2.612   0.891 -1.7716  0.9357 -0.0568
17387TIP3   OH273651   0.253   5.245  14.979  0.0905 -0.4785 -0.0256
17387TIP3    H173652   0.218   5.319  14.929 -0.9665 -0.0892  1.2278
17387TIP3    H273653   0.244   5.170  14.920 -0.8404  0.0117 -0.5417
17388TIP3   OH273654   0.591   0.107  15.254  0.1831  0.2488 -0.1203
17388TIP3    H173655   0.503   0.133  15.279 -1.0949 -2.6917 -1.0935
17388TIP3    H273656   0.613   0.036  15.315  0.9213 -0.5333 -1.2610
17389TIP3   OH273657   1.584   4.965  15.504 -0.3604 -0.3972  0.6545
17389TIP3    H173658   1.649   4.896  15.516 -0.4016 -1.2854 -3.0014
17389TIP3    H273659   1.627   5.028  15.446 -2.0749 -0.0140 -0.2632
17390TIP3   OH273660   1.501   5.757  14.471 -0.0540  0.4753 -0.7414
17390TIP3    H173661   1.584   5.784  14.513 -1.1329  0.7429  1.3573
17390TIP3    H273662   1.443   5.832  14.484 -1.0787 -0.2821 -0.8903
17391TIP3   OH273663   5.048   4.099   0.243 -0.4705 -0.2227 -0.4952
17391TIP3    H173664   5.123   4.145   0.204 -1.0429  0.8011 -0.4359
17391TIP3    H273665   5.039   4.020   0.191 -0.3510  0.4393 -1.5647
17392TIP3   OH273666   0.116   0.804  17.006  0.2264 -0.3276 -0.0731
17392TIP3    H173667   0.152   0.774  16.923 -0.4531  0.5623 -0.7044
17392TIP3    H273668   0.028   0.765  17.010  0.5343 -0.9866  0.5991
17393TIP3   OH273669   6.018   3.555   5.205  0.1942  0.2501  0.0982
17393TIP3    H173670   5.928   3.527   5.223  0.1877 -0.1137 -0.4994
17393TIP3    H273671   6.049   3.589   5.289  0.3154 -1.8058  0.9294
17394TIP3   OH273672   2.381   6.367  16.799 -0.1382  0.1539  0.6187
17394TIP3    H173673   2.356   6.441  16.745 -0.0234  1.2353  1.9863
17394TIP3    H273674   2.298   6.331  16.831 -0.1464  0.7135  1.2481
17395TIP3   OH273675   6.033   2.548  13.898 -0.1195 -0.3104 -0.3993
17395TIP3    H173676   6.066   2.583  13.980  0.2564  0.0256 -0.6866
17395TIP3    H273677   5.969   2.613  13.869 -0.2175 -0.4046 -0.3918
17396TIP3   OH273678   5.407   3.121  12.480 -0.5771 -0.5157 -0.4675
17396TIP3    H173679   5.376   3.071  12.555 -1.3553 -2.2760 -1.8679
17396TIP3    H273680   5.475   3.066  12.442  0.2058  0.6160 -0.7278
17397TIP3   OH273681   6.811   4.309   2.453  0.4638 -0.4747 -0.5028
17397TIP3    H173682   6.892   4.356   2.431  0.1015  0.0892 -0.6681
17397TIP3    H273683   6.747   4.379   2.468 -0.2341 -0.9250 -1.3181
17398TIP3   OH273684   5.270   3.421  11.886 -0.5731  0.2966 -0.3620
17398TIP3    H173685   5.259   3.516  11.877 -2.3324  0.0352 -1.2799
17398TIP3    H273686   5.239   3.402  11.975  1.4301  0.7533  0.5017
17399TIP3   OH273687   5.961   5.925  14.542  0.3173  0.0116  0.5251
17399TIP3    H173688   5.950   5.926  14.447  0.2886 -0.5466  0.5175
17399TIP3    H273689   5.985   5.834  14.562 -1.6721 -0.4139  1.2677
17400TIP3   OH273690   0.186   3.034  11.571  0.5668  0.6817  0.4619
17400TIP3    H173691   0.133   2.998  11.500 -0.8237  3.2809  0.0497
17400TIP3    H273692   0.124   3.053  11.641  1.6276 -0.0590  1.6369
17401TIP3   OH273693   4.628   1.099   6.087 -0.5569  0.9611  0.0782
17401TIP3    H173694   4.560   1.151   6.045 -1.5711  0.6738  1.3045
17401TIP3    H273695   4.603   1.097   6.180 -0.5598 -1.6678  0.0869
17402TIP3   OH273696   3.465   5.721   0.543 -0.7373 -0.1956  0.5581
17402TIP3    H173697   3.487   5.772   0.466 -0.5924  0.1816  0.8468
17402TIP3    H273698   3.486   5.630   0.519 -1.7246 -0.2392 -0.2350
17403TIP3   OH273699   6.010   1.296   2.179 -0.3258  0.3408 -0.2345
17403TIP3    H173700   6.096   1.264   2.207 -0.0945  0.8583 -0.3428
17403TIP3    H273701   5.951   1.273   2.251 -0.1752 -0.3668 -0.3327
17404TIP3   OH273702   6.344   6.486  16.532 -0.2766  0.1896  0.1286
17404TIP3    H173703   6.309   6.398  16.519  0.5377 -0.2263  0.7168
17404TIP3    H273704   6.424   6.488  16.481  0.3886  0.1499  1.1391
17405TIP3   OH273705   3.820   0.762  13.359 -0.2830 -0.4574  0.2547
17405TIP3    H173706   3.743   0.808  13.325  0.3637  0.3285 -0.1873
17405TIP3    H273707   3.785   0.703  13.425 -1.1790  0.4192  0.5931
17406TIP3   OH273708   2.337   3.389   1.757  0.0270 -0.8690 -0.6726
17406TIP3    H173709   2.431   3.370   1.761  0.1378 -0.1275  1.9500
17406TIP3    H273710   2.295   3.303   1.756  0.7027 -1.3006  1.9915
17407TIP3   OH273711   5.797   3.985   4.082 -0.3271 -0.1713 -0.6998
17407TIP3    H173712   5.838   4.071   4.082 -0.7185  0.0723 -2.5650
17407TIP3    H273713   5.739   3.986   4.158 -1.1387  1.6551 -1.2811
17408TIP3   OH273714   5.868   3.051   0.655 -0.0459 -0.4451  0.5792
17408TIP3    H173715   5.953   3.080   0.688 -0.2945 -1.3113  2.1101
17408TIP3    H273716   5.848   2.972   0.707 -0.8904 -1.3927 -1.0917
17409TIP3   OH273717   3.331   4.016   0.822  0.1909  0.2788 -0.1802
17409TIP3    H173718   3.262   3.949   0.817  0.2194  0.2460 -0.1338
17409TIP3    H273719   3.283   4.099   0.821  0.1681  0.2635 -0.4615
17410TIP3   OH273720   6.287   4.198   4.266 -0.0216 -0.6417 -0.3989
17410TIP3    H173721   6.297   4.105   4.248 -1.0533 -0.9464  0.4590
17410TIP3    H273722   6.307   4.206   4.359 -0.0518 -0.0221 -0.4442
17411TIP3   OH273723   2.894   1.969   3.741 -0.4086  0.0509  0.1723
17411TIP3    H173724   2.828   1.929   3.797  0.4784  0.2251  1.3883
17411TIP3    H273725   2.870   2.061   3.738 -1.0192 -0.1249 -0.5604
17412TIP3   OH273726   4.799   1.287   2.139 -0.3556  0.5897 -0.6754
17412TIP3    H173727   4.883   1.300   2.184 -1.5116  1.9396  1.2502
17412TIP3    H273728   4.745   1.240   2.203 -0.9377 -0.8026 -2.1118
17413TIP3   OH273729   2.087   4.320   1.146  0.2048 -0.4960 -0.1373
17413TIP3    H173730   2.122   4.271   1.220 -0.3439 -1.8998 -0.7760
17413TIP3    H273731   2.027   4.259   1.103  0.1156  0.4649 -1.4329
17414TIP3   OH273732   2.984   1.776   0.133 -0.1777 -0.3261 -0.1402
17414TIP3    H173733   2.993   1.819   0.047 -0.9109  0.4821  0.1805
17414TIP3    H273734   2.908   1.818   0.173  1.1116  0.4624  1.5863
17415TIP3   OH273735   2.782   4.669  12.743  0.3831  0.2695 -0.2936
17415TIP3    H173736   2.802   4.621  12.823 -1.9656 -0.3714 -0.0293
17415TIP3    H273737   2.853   4.732  12.734  0.3741  0.8204  2.6429
17416TIP3   OH273738   1.582   4.287  10.841 -0.1737  0.0285 -0.1188
17416TIP3    H173739   1.491   4.266  10.863  0.5798 -3.7896  0.0030
17416TIP3    H273740   1.620   4.316  10.924 -0.7290 -0.5861  0.3631
17417TIP3   OH273741   3.256   4.325  15.449  0.5518  0.1020 -0.1708
17417TIP3    H173742   3.272   4.375  15.529  0.3396 -0.0142 -0.0541
17417TIP3    H273743   3.161   4.331  15.435  0.0135 -2.7048  1.5092
17418TIP3   OH273744   0.470   5.878   1.043 -0.2234  0.3350 -0.1963
17418TIP3    H173745   0.547   5.898   0.990  0.1760 -2.5097 -0.8698
17418TIP3    H273746   0.408   5.948   1.023  1.1103  1.1002 -1.9172
17419TIP3   OH273747   3.745   4.862   0.279  0.1912 -0.1963  0.2206
17419TIP3    H173748   3.782   4.948   0.301  0.7177 -0.8392  1.9912
17419TIP3    H273749   3.791   4.801   0.336 -2.1143 -1.3266  0.9735
17420TIP3   OH273750   0.431   5.880  12.615 -0.3369  0.1985 -0.1419
17420TIP3    H173751   0.392   5.912  12.534 -1.5278  1.2522  0.8121
17420TIP3    H273752   0.412   5.786  12.614  0.3828  0.0420 -1.4495
17421TIP3   OH273753   1.417   2.001  12.037 -0.3746  0.0359  0.1015
17421TIP3    H173754   1.418   1.920  12.088  2.0498  0.2726  0.5513
17421TIP3    H273755   1.430   1.973  11.947  0.1014 -0.0929  0.2106
17422TIP3   OH273756   4.073   2.627  14.669  0.3005 -0.5596  0.1048
17422TIP3    H173757   4.018   2.705  14.666  0.0997 -0.7083 -0.1520
17422TIP3    H273758   4.101   2.613  14.579  0.1859 -0.8879  0.1178
17423TIP3   OH273759   2.054   2.672  16.635  0.4233 -0.1882  0.4483
17423TIP3    H173760   2.140   2.708  16.659  0.0510  1.5211 -0.6380
17423TIP3    H273761   2.024   2.728  16.564 -1.3966 -1.0688  0.4839
17424TIP3   OH273762   0.149   3.809   0.474  0.5405  0.2485 -0.3107
17424TIP3    H173763   0.089   3.735   0.484 -1.2475  1.4374 -1.6132
17424TIP3    H273764   0.095   3.879   0.438  2.6759  1.4580 -1.3943
17425TIP3   OH273765   3.472   1.142  16.475 -0.5027  0.2211  0.0105
17425TIP3    H173766   3.501   1.186  16.554  1.1970 -2.2573  0.8781
17425TIP3    H273767   3.472   1.211  16.408  0.7907  1.7887  1.5216
17426TIP3   OH273768   4.610   1.756  11.617 -0.6904  0.0604 -0.1059
17426TIP3    H173769   4.541   1.692  11.637 -0.0625 -1.1543 -1.5878
17426TIP3    H273770   4.607   1.763  11.521  1.8240 -0.7383 -0.3157
17427TIP3   OH273771   0.560   2.025  11.249  0.6184  0.1978 -0.5715
17427TIP3    H173772   0.502   1.953  11.225 -2.5810  2.1982  0.4713
17427TIP3    H273773   0.552   2.087  11.177  0.6996  0.9057  0.0117
17428TIP3   OH273774   6.074   0.993   6.010 -0.2215  0.8597  0.1714
17428TIP3    H173775   5.979   0.993   6.005 -0.2290 -0.2064  0.2519
17428TIP3    H273776   6.094   0.948   6.092  0.3389  2.0216  0.7042
17429TIP3   OH273777   2.047   6.719  10.951 -0.5654 -0.1877  0.2690
17429TIP3    H173778   1.996   6.739  10.873  0.9584 -0.4111 -0.8142
17429TIP3    H273779   2.054   6.623  10.951 -0.3836 -0.1755  0.5785
17430TIP3   OH273780   5.416   6.340   2.681  0.0491 -0.2013  0.4055
17430TIP3    H173781   5.430   6.263   2.737  1.6283 -1.1863 -1.2068
17430TIP3    H273782   5.416   6.304   2.592 -0.7940  1.4960 -0.3102
17431TIP3   OH273783   2.785   6.036  12.354 -0.0679  0.1661  0.3630
17431TIP3    H173784   2.766   5.943  12.359  1.9067 -0.2552  0.8587
17431TIP3    H273785   2.763   6.070  12.441  2.2693 -0.5244  1.2963
17432TIP3   OH273786   3.540   0.747  14.459  0.0229  0.4677  0.1578
17432TIP3    H173787   3.553   0.739  14.364 -1.7443 -2.2888  0.0566
17432TIP3    H273788   3.451   0.779  14.468  0.3975  1.3331  0.9278
17433TIP3   OH273789   1.750   5.329  16.178 -0.3308 -0.2125 -0.2057
17433TIP3    H173790   1.795   5.413  16.175 -1.4767  0.3926 -1.1620
17433TIP3    H273791   1.820   5.264  16.191  0.6626  0.7934 -0.4332
17434TIP3   OH273792   6.611   2.010  15.426  0.0754  0.0316 -0.2833
17434TIP3    H173793   6.590   2.096  15.462 -0.2876 -0.9852  2.1623
17434TIP3    H273794   6.653   2.028  15.342 -3.6164  2.4673 -1.8974
17435TIP3   OH273795   6.714   1.979  13.972 -0.8626  0.4227 -0.2638
17435TIP3    H173796   6.724   2.044  14.042  0.7752  1.7590 -1.6293
17435TIP3    H273797   6.730   1.895  14.015  1.1761  1.2878  0.8450
17436TIP3   OH273798   5.870   0.988   4.604 -0.0126  0.2561  0.4798
17436TIP3    H173799   5.844   1.080   4.599  0.7912  0.5423  1.1637
17436TIP3    H273800   5.867   0.957   4.514  0.2489  1.1209  0.1596
17437TIP3   OH273801   2.949   5.636   5.846  1.0278  0.9146  0.6656
17437TIP3    H173802   2.947   5.699   5.774 -0.6594  1.2920  0.9964
17437TIP3    H273803   3.042   5.617   5.859  1.3886  0.8984 -1.5405
17438TIP3   OH273804   4.537   5.175   0.761 -0.0214  0.5962  0.0340
17438TIP3    H173805   4.481   5.181   0.838 -2.6341 -0.0585 -1.6548
17438TIP3    H273806   4.517   5.254   0.711  0.7452  0.4528 -0.5160
17439TIP3   OH273807   5.124   1.283   3.304 -0.5027  0.1564  0.0299
17439TIP3    H173808   5.204   1.266   3.255 -0.5185 -1.4081  0.4980
17439TIP3    H273809   5.148   1.350   3.368  0.4025 -0.2384  0.1095
17440TIP3   OH273810   4.978   4.369  17.128 -0.0234  0.6922 -0.0188
17440TIP3    H173811   5.033   4.361  17.206  1.0141  1.3262 -0.6462
17440TIP3    H273812   5.039   4.396  17.059 -0.8160 -0.3477 -1.1779
17441TIP3   OH273813   1.792   2.015  12.639 -0.0401 -0.2158  0.0717
17441TIP3    H173814   1.859   2.061  12.689  0.5464 -0.5493 -0.3914
17441TIP3    H273815   1.807   1.923  12.658 -1.4288 -0.2206  1.2706
17442TIP3   OH273816   6.578   5.515   3.924  0.4341 -0.2576 -0.1927
17442TIP3    H173817   6.494   5.556   3.941  0.0370 -1.1858  0.1542
17442TIP3    H273818   6.563   5.458   3.848  1.2322  0.9542 -1.3205
17443TIP3   OH273819   3.759   5.253   5.581  0.2128 -0.5776 -0.0447
17443TIP3    H173820   3.667   5.279   5.581  0.2543 -0.4330  0.2726
17443TIP3    H273821   3.758   5.163   5.547  0.1091 -0.0593 -1.4794
17444TIP3   OH273822   5.666   1.687   4.286 -0.2973  0.2711  0.5097
17444TIP3    H173823   5.585   1.736   4.268  0.7764  2.1176  0.4488
17444TIP3    H273824   5.665   1.615   4.222 -1.3948  0.8756 -0.1881
17445TIP3   OH273825   5.296   0.461   2.169 -0.2087  0.1670 -0.0602
17445TIP3    H173826   5.299   0.420   2.255 -0.4765 -0.0011 -0.1272
17445TIP3    H273827   5.386   0.487   2.151 -0.4583  1.9972  1.1128
17446TIP3   OH273828   6.174   4.680  15.774  0.2793  0.1812 -1.0943
17446TIP3    H173829   6.207   4.635  15.697 -1.1351  0.1210 -1.6899
17446TIP3    H273830   6.234   4.655  15.845  1.6028  0.2491 -2.1513
17447TIP3   OH273831   0.638   1.060  12.206  0.0769 -0.3099  0.2918
17447TIP3    H173832   0.651   1.007  12.127  0.6257 -0.9113  0.7725
17447TIP3    H273833   0.565   1.118  12.184 -0.5639 -1.2810 -0.2622
17448TIP3   OH273834   2.702   5.815  12.816  0.0361  0.0410  0.2797
17448TIP3    H173835   2.612   5.789  12.832  0.0291 -1.3281 -1.6063
17448TIP3    H273836   2.707   5.828  12.721  1.3733  1.9854  0.5401
17449TIP3   OH273837   1.855   2.166  12.345  0.2830  0.0216  0.1064
17449TIP3    H173838   1.855   2.093  12.283 -2.0004  0.5186 -0.5708
17449TIP3    H273839   1.892   2.239  12.295  0.1211 -0.0289 -0.0905
17450TIP3   OH273840   1.523   3.735   5.583 -0.2458  0.4641 -0.1800
17450TIP3    H173841   1.607   3.690   5.593 -1.5983 -2.2134  0.0859
17450TIP3    H273842   1.516   3.791   5.660  1.6399  1.4081 -0.6549
17451TIP3   OH273843   4.855   0.942   0.948  0.4318 -0.3246  0.1652
17451TIP3    H173844   4.775   0.951   0.897  0.6858  1.1649 -0.0204
17451TIP3    H273845   4.854   0.852   0.979  0.1836 -1.2551 -2.3381
17452TIP3   OH273846   5.394   5.629   1.678 -0.0307 -0.3166  0.2062
17452TIP3    H173847   5.405   5.544   1.720 -1.5582 -0.4865  0.3302
17452TIP3    H273848   5.390   5.692   1.751 -0.0402 -0.2860  0.1793
17453TIP3   OH273849   3.899   4.524  16.550  0.1239  0.0778 -0.8283
17453TIP3    H173850   3.871   4.532  16.459 -1.6580  0.5355 -0.2825
17453TIP3    H273851   3.840   4.582  16.598  0.8539 -0.3638  0.6484
17454TIP3   OH273852   5.819   2.695  15.657  0.0113 -0.0312  0.3853
17454TIP3    H173853   5.856   2.628  15.714 -1.9345 -1.0017  0.5795
17454TIP3    H273854   5.894   2.731  15.610  1.1555 -2.0495  0.5798
17455TIP3   OH273855   6.005   0.189  16.171  0.2277  0.8422  0.1001
17455TIP3    H173856   5.918   0.217  16.200  0.4175  1.2911  0.2501
17455TIP3    H273857   6.025   0.248  16.098  0.6268  1.0922  0.4077
17456TIP3   OH273858   0.279   1.192  12.910 -0.2643 -0.5059 -0.8197
17456TIP3    H173859   0.225   1.231  12.979  1.2330 -0.4885  0.3825
17456TIP3    H273860   0.230   1.114  12.883 -0.5594 -0.8945  0.7536
17457TIP3   OH273861   5.493   5.707   1.241  0.2903  0.4139  0.2534
17457TIP3    H173862   5.536   5.720   1.156  1.7513  0.4006  0.9622
17457TIP3    H273863   5.563   5.714   1.305 -0.8938  1.0945  1.5355
17458TIP3   OH273864   1.247   6.474  12.016  0.7246 -0.5757  0.3286
17458TIP3    H173865   1.268   6.564  11.992  0.8738 -0.4165  1.0464
17458TIP3    H273866   1.194   6.442  11.943  0.0606  0.3235  0.4046
17459TIP3   OH273867   2.129   3.042  12.165 -0.1365 -0.1272 -0.1025
17459TIP3    H173868   2.035   3.049  12.182 -0.3176  0.4733 -1.2992
17459TIP3    H273869   2.167   3.121  12.204 -0.3560  0.4890 -1.1202
17460TIP3   OH273870   4.027   5.663  11.638 -0.2069  0.4558  0.4844
17460TIP3    H173871   4.010   5.750  11.675 -1.3498 -0.0215  1.1458
17460TIP3    H273872   3.996   5.602  11.705 -2.6548 -0.4617 -1.3076
17461TIP3   OH273873   3.952   2.469  13.394  0.5595 -0.1459  0.2576
17461TIP3    H173874   3.903   2.390  13.373  0.7284  0.0519 -0.9511
17461TIP3    H273875   3.974   2.507  13.309  0.9336  0.9232  0.8117
17462TIP3   OH273876   4.816   2.596   2.678  0.0874 -0.3223  0.6251
17462TIP3    H173877   4.826   2.503   2.699  2.5542  0.5322  4.3937
17462TIP3    H273878   4.790   2.636   2.761 -0.5131  2.4280 -0.7805
17463TIP3   OH273879   4.847   2.549   1.850  0.3179 -0.1726  0.0009
17463TIP3    H173880   4.854   2.644   1.858 -1.7113 -0.0335  0.5309
17463TIP3    H273881   4.904   2.528   1.776  0.1417  1.5720 -0.6970
17464TIP3   OH273882   5.801   6.526   0.025 -0.0309  0.1367  0.3282
17464TIP3    H173883   5.812   6.511   0.119  1.5072 -1.7601 -0.0931
17464TIP3    H273884   5.741   6.457  -0.004  1.4734 -0.9010 -0.4569
17465TIP3   OH273885   6.545   2.710   4.829 -0.7218 -0.2061  0.0708
17465TIP3    H173886   6.595   2.691   4.909 -0.1043 -1.6734 -0.6192
17465TIP3    H273887   6.545   2.627   4.781  1.3178  1.2597 -2.7746
17466TIP3   OH273888   6.328   4.136   4.540  0.3555 -0.7879 -0.3950
17466TIP3    H173889   6.261   4.138   4.608 -0.7968 -2.8844 -1.3406
17466TIP3    H273890   6.406   4.102   4.583  0.3678  0.2202  0.3913
17467TIP3   OH273891   5.679   1.906   5.014 -0.5357  0.1008 -0.3333
17467TIP3    H173892   5.676   1.868   4.926  2.0171  0.1775 -0.5057
17467TIP3    H273893   5.634   1.841   5.069 -2.2326  0.0859 -1.6478
17468TIP3   OH273894   2.486   4.009   2.329  0.7784 -0.2288  0.5948
17468TIP3    H173895   2.463   3.963   2.409 -2.1532 -2.6038 -1.4012
17468TIP3    H273896   2.427   4.084   2.326  2.6133  1.3726  1.7327
17469TIP3   OH273897   3.581   3.180  15.902 -0.3473  0.0799  0.1281
17469TIP3    H173898   3.602   3.273  15.910 -1.5682  0.3787  0.0653
17469TIP3    H273899   3.582   3.163  15.808 -0.8180  0.2159  0.0926
17470TIP3   OH273900   4.487   0.875  14.695  0.3636  0.0229  0.1320
17470TIP3    H173901   4.483   0.789  14.654 -0.2675 -0.5550  1.3619
17470TIP3    H273902   4.415   0.876  14.758  1.6214  0.6465  1.6374
17471TIP3   OH273903   3.867   2.439   0.844  0.0972 -0.0001  0.3127
17471TIP3    H173904   3.773   2.449   0.831  0.0384 -0.3746  0.4321
17471TIP3    H273905   3.904   2.525   0.824 -0.3012  0.2329  0.5639
17472TIP3   OH273906   4.550   2.177   0.384 -0.3487 -0.1891  0.1972
17472TIP3    H173907   4.565   2.117   0.457 -0.9626 -0.0476  0.4527
17472TIP3    H273908   4.585   2.261   0.414  0.2596 -0.3484 -0.0515
17473TIP3   OH273909   2.027   5.291  11.836  0.7948  0.0131 -0.5923
17473TIP3    H173910   2.057   5.241  11.912  0.2145 -0.0846 -0.4179
17473TIP3    H273911   2.025   5.227  11.764  0.5056 -0.1094 -0.4785
17474TIP3   OH273912   0.651   0.160   0.636  0.1554 -0.5165  0.8267
17474TIP3    H173913   0.633   0.160   0.542  1.3341 -2.8139  0.5494
17474TIP3    H273914   0.567   0.183   0.676 -0.3436  0.6074 -0.7535
17475TIP3   OH273915   2.513   3.854  15.196 -0.0492  0.8075  0.6547
17475TIP3    H173916   2.458   3.863  15.274  0.1833  0.3188  0.8834
17475TIP3    H273917   2.471   3.783  15.146  0.0327  0.8425  0.5362
17476TIP3   OH273918   6.728   5.914   6.392 -0.2906  0.3255 -0.0500
17476TIP3    H173919   6.806   5.901   6.446 -0.7489  1.3087  0.8620
17476TIP3    H273920   6.683   5.988   6.431 -1.0712  0.5425 -1.2980
17477TIP3   OH273921   5.077   6.088  15.334 -0.0455 -0.3443  1.1120
17477TIP3    H173922   5.064   6.150  15.262  0.7124 -0.7398  0.6234
17477TIP3    H273923   5.014   6.018  15.317 -1.6529  0.7768  2.2500
17478TIP3   OH273924   3.146   2.700  16.240  0.6250 -0.2933 -0.7892
17478TIP3    H173925   3.073   2.704  16.302  1.1930  1.3566 -0.1910
17478TIP3    H273926   3.141   2.611  16.204 -1.0418 -0.5589 -0.0077
17479TIP3   OH273927   3.474   6.575   5.586 -0.2517 -0.0640  0.0779
17479TIP3    H173928   3.534   6.512   5.626 -0.7271 -0.2814  0.4469
17479TIP3    H273929   3.499   6.659   5.625 -2.7217 -0.6614  3.2919
17480TIP3   OH273930   3.364   4.138   0.477  0.0808  0.0590  0.1500
17480TIP3    H173931   3.383   4.167   0.566 -2.2105 -2.5255  1.6209
17480TIP3    H273932   3.283   4.182   0.454  0.0391 -0.1994 -0.2063
17481TIP3   OH273933   6.366   2.926   1.321 -0.2679  1.1325  0.6984
17481TIP3    H173934   6.326   2.984   1.257 -2.9483  1.0992  2.2063
17481TIP3    H273935   6.365   2.975   1.403  2.1624  0.7993  1.0208
17482TIP3   OH273936   2.056   5.788  13.742  0.2655 -0.3196 -0.4093
17482TIP3    H173937   2.039   5.724  13.674  0.0582  0.9995 -1.6579
17482TIP3    H273938   2.129   5.752  13.793  3.8811  0.7039 -4.2948
17483TIP3   OH273939   6.256   4.969  16.810 -0.1786  0.7775  0.2975
17483TIP3    H173940   6.245   5.061  16.837  1.9523  1.4614 -0.9033
17483TIP3    H273941   6.280   4.924  16.891  0.2986  1.5969  0.6285
17484TIP3   OH273942   0.672   5.840   0.615 -0.2283  0.1667  0.5299
17484TIP3    H173943   0.661   5.748   0.642  0.0306 -0.1352 -0.3330
17484TIP3    H273944   0.748   5.838   0.556 -0.4294  0.8811  0.2415
17485TIP3   OH273945   5.930   2.158  15.069  0.1851  0.8160 -0.3403
17485TIP3    H173946   5.908   2.102  15.143  1.0824 -2.3023 -2.2383
17485TIP3    H273947   5.883   2.240  15.085 -1.0885 -0.3865  2.7041
17486TIP3   OH273948   1.304   6.687   3.931  0.2738  0.7689  0.5512
17486TIP3    H173949   1.335   6.614   3.985  0.6217  0.8704  0.4907
17486TIP3    H273950   1.346   6.673   3.846 -0.3065  0.5842  0.2905
17487TIP3   OH273951   6.043   0.991  12.139  0.0803  0.4108  0.5837
17487TIP3    H173952   5.976   1.035  12.191 -1.4219 -1.1303  0.0294
17487TIP3    H273953   6.022   0.898  12.146 -0.6890  0.1259 -3.3972
17488TIP3   OH273954   6.366   5.398   0.520  0.2349  0.2037 -0.1680
17488TIP3    H173955   6.310   5.425   0.593 -2.1806 -1.6347 -1.2008
17488TIP3    H273956   6.378   5.477   0.467 -2.5254  0.4210 -0.5791
17489TIP3   OH273957   2.603   3.859   3.423  0.4760  0.2710  0.0900
17489TIP3    H173958   2.643   3.800   3.358  1.9625  0.9431  0.3462
17489TIP3    H273959   2.538   3.909   3.373  1.7628  0.9542 -0.9704
17490TIP3   OH273960   1.232   4.070  10.122 -0.5448 -0.3106 -0.2579
17490TIP3    H173961   1.324   4.084  10.144 -0.8823  3.5595 -0.6006
17490TIP3    H273962   1.189   4.052  10.206  0.0047  1.9676  0.5847
17491TIP3   OH273963   2.363   2.978  14.476  0.0023  0.5640 -0.0844
17491TIP3    H173964   2.374   2.904  14.535  1.8398  0.3283 -0.6539
17491TIP3    H273965   2.334   3.050  14.533 -1.1498 -0.3963  0.5794
17492TIP3   OH273966   6.375   0.490  12.944 -0.0648  0.4930  0.1665
17492TIP3    H173967   6.390   0.397  12.960  1.8050  1.0266  1.9138
17492TIP3    H273968   6.318   0.518  13.016 -0.7460  0.6893 -0.4368
17493TIP3   OH273969   0.441   5.809   5.222  0.5218  0.5492  0.1544
17493TIP3    H173970   0.495   5.732   5.206  0.0719 -0.0696  1.4157
17493TIP3    H273971   0.357   5.774   5.252  0.1694  1.5231  0.3561
17494TIP3   OH273972   2.845   4.328   2.941  0.2313  0.1322 -0.2037
17494TIP3    H173973   2.903   4.253   2.928  2.0565  0.9763  2.2209
17494TIP3    H273974   2.820   4.322   3.033 -1.4191  1.3018 -0.5389
17495TIP3   OH273975   3.115   5.338   1.224 -0.4276  0.1552  0.0197
17495TIP3    H173976   3.115   5.422   1.177  1.1069  1.1282  1.6536
17495TIP3    H273977   3.120   5.272   1.155  3.1349  1.5526 -1.2505
17496TIP3   OH273978   2.275   6.189   3.484 -0.0031  0.4809 -0.3295
17496TIP3    H173979   2.354   6.224   3.443  0.9179 -1.7684 -0.6128
17496TIP3    H273980   2.287   6.208   3.577 -0.0617  1.8344 -0.5820
17497TIP3   OH273981   6.375   6.787  12.360  0.3710  0.5927  0.0634
17497TIP3    H173982   6.375   6.735  12.279  2.3297 -2.5131  1.8442
17497TIP3    H273983   6.282   6.791  12.385  0.0845 -2.3428 -0.1275
17498TIP3   OH273984   3.318   6.117  13.322 -0.0528  0.5148 -0.0311
17498TIP3    H173985   3.386   6.160  13.269 -0.1041 -0.4238 -0.8970
17498TIP3    H273986   3.351   6.121  13.411  1.2816 -0.1538 -0.4685
17499TIP3   OH273987   3.024   0.966  15.037  0.0401 -0.5107 -0.5459
17499TIP3    H173988   3.007   1.027  14.966  1.3073 -1.7649 -2.0034
17499TIP3    H273989   2.938   0.943  15.071 -0.4515  2.4035  0.3849
17500TIP3   OH273990   5.121   2.190  15.509 -0.0422  0.2187  0.0605
17500TIP3    H173991   5.094   2.137  15.584  0.4764  0.2545  0.2797
17500TIP3    H273992   5.214   2.169  15.498 -0.2410 -0.2170 -0.9235
17501TIP3   OH273993   2.430   4.028  13.832  0.1622  0.7109 -0.1389
17501TIP3    H173994   2.377   4.098  13.794 -1.3050  1.7488  3.4112
17501TIP3    H273995   2.366   3.968  13.871  1.4477 -1.9320 -1.7957
17502TIP3   OH273996   6.556   2.261   1.531  0.2438  0.3031  0.5406
17502TIP3    H173997   6.551   2.351   1.561  1.7364  0.2356  1.0672
17502TIP3    H273998   6.627   2.261   1.466 -0.4014 -0.3039 -0.1854
17503TIP3   OH273999   4.468   2.114   2.617  0.2287  0.5020  0.2873
17503TIP3    H174000   4.450   2.079   2.705  0.9988  0.9878  0.6558
17503TIP3    H274001   4.558   2.084   2.599  0.5993  1.5984  0.2734
17504TIP3   OH274002   2.665   4.379  16.270 -0.5773 -0.0397  0.0087
17504TIP3    H174003   2.656   4.472  16.293 -4.0585 -0.3374  0.4632
17504TIP3    H274004   2.651   4.376  16.176 -1.9404 -0.1631  0.1895
17505TIP3   OH274005   4.037   4.032   2.537  0.1567 -0.2623  0.1439
17505TIP3    H174006   4.106   4.092   2.510  0.5016 -0.0739  1.3811
17505TIP3    H274007   4.067   3.996   2.621  1.7366 -4.9924 -2.0822
17506TIP3   OH274008   6.047   0.661   2.327  0.4045  0.3964  0.1277
17506TIP3    H174009   5.954   0.670   2.310  0.5249  0.9535 -0.2902
17506TIP3    H274010   6.088   0.727   2.270  1.1672 -0.9094 -0.8800
17507TIP3   OH274011   0.438   5.256   4.598  0.0367  0.6502  0.1973
17507TIP3    H174012   0.400   5.227   4.681 -2.4622  2.2738 -0.2603
17507TIP3    H274013   0.439   5.351   4.603 -0.1276  0.7921 -1.5948
17508TIP3   OH274014   2.610   0.099  15.871 -0.5003 -0.2150 -0.0216
17508TIP3    H174015   2.567   0.074  15.953 -1.1500 -1.2000 -0.6639
17508TIP3    H274016   2.632   0.017  15.828 -0.0640  0.2941 -0.8063
17509TIP3   OH274017   2.590   1.278   0.973 -0.0032 -0.6845 -0.1297
17509TIP3    H174018   2.564   1.353   1.027  1.6226  0.9683 -1.5201
17509TIP3    H274019   2.508   1.244   0.938 -0.8109  0.2121  0.8280
17510TIP3   OH274020   4.976   1.360  16.769  0.1770  0.1407 -0.0053
17510TIP3    H174021   5.004   1.314  16.848 -0.1626 -0.0076  0.0310
17510TIP3    H274022   5.057   1.388  16.727  0.4301 -1.0776 -0.3777
17511TIP3   OH274023   0.735   3.067  16.870  0.6629 -0.0693  0.4713
17511TIP3    H174024   0.823   3.032  16.882 -0.7089 -3.5894  1.5821
17511TIP3    H274025   0.706   3.091  16.958  0.5301  1.2315  0.0958
17512TIP3   OH274026   4.348   4.669   2.576  0.2901  0.1210  0.2422
17512TIP3    H174027   4.433   4.630   2.556 -0.5969 -1.0973 -1.3915
17512TIP3    H274028   4.288   4.595   2.577 -1.0083  1.1367 -0.1961
17513TIP3   OH274029   3.900   5.040  12.337 -0.6428 -0.4669  0.0639
17513TIP3    H174030   3.887   5.129  12.304  1.8548 -0.3187 -0.6861
17513TIP3    H274031   3.901   4.985  12.259 -0.6489 -0.9501  0.3971
17514TIP3   OH274032   0.808   5.780   1.732  0.6607  0.1275 -0.1536
17514TIP3    H174033   0.812   5.800   1.825  1.7754 -1.8300  0.2860
17514TIP3    H274034   0.843   5.857   1.688  0.8718  0.7603  1.0993
17515TIP3   OH274035   4.755   2.381   3.791  0.0680 -0.5299 -0.2382
17515TIP3    H174036   4.752   2.286   3.799  0.5733 -0.4909  0.5112
17515TIP3    H274037   4.730   2.413   3.878 -1.4304  0.0465 -0.8455
17516TIP3   OH274038   5.243   2.381   2.416 -0.0856 -0.5392  0.5205
17516TIP3    H174039   5.289   2.394   2.333 -0.1570 -1.6791  0.2885
17516TIP3    H274040   5.155   2.415   2.399  0.5612  1.4614  0.9047
17517TIP3   OH274041   4.472   5.734   4.754  0.4144  0.7701  0.0078
17517TIP3    H174042   4.473   5.784   4.673  1.6816  1.1699  0.2478
17517TIP3    H274043   4.558   5.691   4.757 -0.4636 -1.0706  0.0272
17518TIP3   OH274044   5.594   4.471   4.081 -0.4636 -0.3579 -0.1254
17518TIP3    H174045   5.539   4.468   4.003 -2.3462 -0.5848  1.1468
17518TIP3    H274046   5.607   4.379   4.106 -0.0957 -0.2780 -0.0039
17519TIP3   OH274047   2.999   6.442  12.918  0.0520  0.0718  0.2042
17519TIP3    H174048   2.987   6.525  12.963 -1.4829 -0.2187  0.3734
17519TIP3    H274049   2.912   6.402  12.917  0.7306 -1.4596 -0.0122
17520TIP3   OH274050   4.658   5.255   5.580 -0.0259  0.0122  0.0203
17520TIP3    H174051   4.747   5.259   5.546  0.6372  1.1202  1.8040
17520TIP3    H274052   4.603   5.273   5.504  1.3901  2.3380 -0.5360
17521TIP3   OH274053   3.782   0.277  15.270 -1.1305 -0.4991  0.3951
17521TIP3    H174054   3.830   0.359  15.285 -1.9712 -0.1209  1.0981
17521TIP3    H274055   3.850   0.210  15.270 -0.1162  0.3872 -2.5168
17522TIP3   OH274056   6.340   0.663   6.046 -0.0629  0.2214  0.4649
17522TIP3    H174057   6.345   0.570   6.023 -0.3989  0.1872  0.5331
17522TIP3    H274058   6.297   0.664   6.132 -0.3966  0.4649  0.2936
17523TIP3   OH274059   1.212   4.973   4.196  0.7009 -0.0592 -0.1644
17523TIP3    H174060   1.300   4.938   4.206  0.3755 -1.2159 -1.1308
17523TIP3    H274061   1.219   5.034   4.122  0.9197  0.7601  0.5075
17524TIP3   OH274062   4.685   4.299  12.333 -0.4304 -0.4230  0.6982
17524TIP3    H174063   4.622   4.370  12.319  1.1508  0.8577 -0.2608
17524TIP3    H274064   4.734   4.293  12.251  1.8304 -0.1792  1.9388
17525TIP3   OH274065   3.807   3.209   5.617  0.1418 -0.0256 -0.2224
17525TIP3    H174066   3.822   3.170   5.703  1.1478  1.1576  0.1482
17525TIP3    H274067   3.745   3.280   5.633  3.4838  3.0079  0.3468
17526TIP3   OH274068   5.113   1.853  13.328 -0.0407  0.0453 -0.0636
17526TIP3    H174069   5.076   1.838  13.415  3.3484 -1.3188  1.3315
17526TIP3    H274070   5.174   1.926  13.340  1.4485 -1.0003 -0.9134
17527TIP3   OH274071   5.926   4.207   4.945 -0.5326  0.9197 -0.2673
17527TIP3    H174072   5.901   4.249   5.028 -2.1288  0.3179 -0.4043
17527TIP3    H274073   5.890   4.264   4.877  1.3489  1.7685 -0.6054
17528TIP3   OH274074   5.643   0.081  15.648 -0.0491 -0.0578  0.4573
17528TIP3    H174075   5.583   0.030  15.703  0.3994 -0.5729  0.4831
17528TIP3    H274076   5.704   0.121  15.710 -0.6921  0.9192  0.4746
17529TIP3   OH274077   4.931   3.098  12.440 -0.5004  0.5834  0.0269
17529TIP3    H174078   4.916   3.082  12.533 -2.5081  1.3031 -0.1245
17529TIP3    H274079   5.018   3.062  12.423 -0.9134 -1.3673  1.7314
17530TIP3   OH274080   0.386   2.894  12.567 -0.1397  0.1528 -0.1641
17530TIP3    H174081   0.318   2.839  12.606 -0.4444  0.2267 -0.5841
17530TIP3    H274082   0.442   2.918  12.641 -1.7368  1.8242  0.5858
17531TIP3   OH274083   5.927   0.424   1.321 -0.6416  0.0130 -0.1896
17531TIP3    H174084   5.965   0.469   1.397  3.0779 -1.4017 -0.9899
17531TIP3    H274085   5.959   0.472   1.245 -0.7610 -1.0289 -0.9321
17532TIP3   OH274086   6.651   5.146  13.557  0.7423  0.3957 -0.0063
17532TIP3    H174087   6.570   5.186  13.526  1.1078  1.4032  0.2935
17532TIP3    H274088   6.660   5.066  13.505 -0.8096 -0.1125  0.4686
17533TIP3   OH274089   3.584   0.867  13.700 -0.3657  0.4096  0.0676
17533TIP3    H174090   3.508   0.815  13.725 -0.2432 -0.7954 -1.8333
17533TIP3    H274091   3.547   0.941  13.652 -0.3714 -0.1677 -0.8420
17534TIP3   OH274092   0.754   6.752   1.119 -0.5318 -0.0733 -0.0237
17534TIP3    H174093   0.812   6.776   1.191  0.1314 -0.5542 -0.3869
17534TIP3    H274094   0.731   6.835   1.077 -0.1234  0.1206  0.1414
17535TIP3   OH274095   2.413   3.382   5.768  0.3085  0.0079  0.2402
17535TIP3    H174096   2.336   3.413   5.720  0.8297  0.1627 -0.5060
17535TIP3    H274097   2.401   3.416   5.856 -0.0823  0.7080 -0.0760
17536TIP3   OH274098   2.020   4.397  15.051 -0.2341  0.2198 -0.1397
17536TIP3    H174099   2.101   4.428  15.009 -0.5224  0.8327 -0.2490
17536TIP3    H274100   2.022   4.435  15.139 -0.0664 -0.3402  0.1062
17537TIP3   OH274101   5.207   4.051  14.109 -0.5973  0.0706 -0.3865
17537TIP3    H174102   5.302   4.059  14.101 -0.2239 -1.7028  1.4699
17537TIP3    H274103   5.181   4.130  14.156  0.3741 -0.6194  1.4193
17538TIP3   OH274104   0.368   4.994   2.091  0.5058  0.2238  0.5277
17538TIP3    H174105   0.308   4.993   2.017  0.3352  2.1709  0.5705
17538TIP3    H274106   0.446   4.949   2.059 -0.9921 -2.6509  0.5838
17539TIP3   OH274107   5.831   0.062   3.046 -0.6616  0.0010 -0.3685
17539TIP3    H174108   5.870   0.071   2.960 -0.8639  0.2178 -0.4374
17539TIP3    H274109   5.840  -0.031   3.066 -0.7481 -0.0777 -0.6872
17540TIP3   OH274110   5.475   3.315  16.147  0.1543 -0.3132  0.3101
17540TIP3    H174111   5.516   3.243  16.098 -0.4073 -0.4621  0.0578
17540TIP3    H274112   5.457   3.381  16.080  1.3775  0.4108  0.6464
17541TIP3   OH274113   5.553   4.998   6.604  0.2205 -0.0937  0.4081
17541TIP3    H174114   5.621   4.966   6.545  1.1848  0.2514  1.2986
17541TIP3    H274115   5.520   4.919   6.649  0.3610 -0.2050  0.3144
17542TIP3   OH274116   3.612   4.940  17.010  0.4540 -0.9585 -0.4099
17542TIP3    H174117   3.693   4.934  16.959 -0.1675 -0.8586 -1.4465
17542TIP3    H274118   3.595   4.851  17.039  0.1478 -1.2698 -1.4804
17543TIP3   OH274119   6.191   6.618   2.685 -0.0832  0.1102  0.0521
17543TIP3    H174120   6.098   6.632   2.668  0.1007  1.7744  0.2860
17543TIP3    H274121   6.202   6.636   2.778  0.3338 -1.0168  0.2460
17544TIP3   OH274122   0.528   0.184   2.805  0.0331 -0.4767  0.1630
17544TIP3    H174123   0.545   0.148   2.718 -0.7155  0.9529 -0.6132
17544TIP3    H274124   0.609   0.230   2.828 -0.8346  1.9783 -1.2963
17545TIP3   OH274125   5.332   2.272   1.433 -0.2534 -0.1452 -0.5176
17545TIP3    H174126   5.264   2.212   1.466 -0.6218 -0.6537 -2.1117
17545TIP3    H274127   5.346   2.333   1.505 -2.6431  0.1750 -0.2311
17546TIP3   OH274128   5.425   1.146   1.704  0.3933 -0.3879 -0.1341
17546TIP3    H174129   5.461   1.120   1.619 -1.6461 -1.1227 -0.8370
17546TIP3    H274130   5.375   1.226   1.686 -1.5873 -1.5520 -0.0734
17547TIP3   OH274131   2.407   2.330   4.491  0.4863  0.3519 -0.1024
17547TIP3    H174132   2.371   2.256   4.539 -2.7355  0.5987 -1.8127
17547TIP3    H274133   2.435   2.392   4.558  0.6203 -1.2419  1.3672
17548TIP3   OH274134   6.800   0.228   1.092  0.0341  0.3372 -0.0377
17548TIP3    H174135   6.887   0.205   1.059  0.4949  0.7935  0.8233
17548TIP3    H274136   6.817   0.284   1.167 -1.0168  1.0133 -0.2758
17549TIP3   OH274137   0.178   1.043  10.964 -0.0895  0.3307  0.4250
17549TIP3    H174138   0.202   1.134  10.979 -0.8621  0.8629 -1.2717
17549TIP3    H274139   0.083   1.045  10.949  0.0430 -0.5569 -0.7371
17550TIP3   OH274140   0.750   4.507  16.753  0.0937 -0.5593  0.1312
17550TIP3    H174141   0.745   4.445  16.681 -0.1640  0.2496 -0.5676
17550TIP3    H274142   0.802   4.580  16.719  0.4297 -0.4023  0.9460
17551TIP3   OH274143   1.873   2.696  12.718  0.4222  0.4191 -0.1655
17551TIP3    H174144   1.795   2.697  12.662 -0.9422 -0.2677  1.6328
17551TIP3    H274145   1.946   2.703  12.656 -0.9362 -1.4060 -2.1476
17552TIP3   OH274146   1.961   2.165   0.733 -0.0152  0.1558 -0.2964
17552TIP3    H174147   2.035   2.177   0.673 -0.3994  3.4720 -0.2771
17552TIP3    H274148   1.995   2.193   0.819  0.0312 -2.9165  0.8056
17553TIP3   OH274149   1.532   4.502  12.337 -0.1842 -0.2652  0.5711
17553TIP3    H174150   1.583   4.533  12.412  1.1398  1.0186 -0.7816
17553TIP3    H274151   1.462   4.567  12.327 -1.4728 -1.4031  1.7193
17554TIP3   OH274152   2.480   3.134   1.024  0.6033  0.9043  0.2958
17554TIP3    H174153   2.503   3.043   1.044 -0.5273  0.8083  1.2766
17554TIP3    H274154   2.501   3.182   1.104 -2.4807  0.7985  1.2881
17555TIP3   OH274155   0.832   6.239   1.479 -0.5059  0.5302  0.0246
17555TIP3    H174156   0.749   6.285   1.471 -1.1148 -0.2046  1.7160
17555TIP3    H274157   0.879   6.286   1.547 -0.3975 -0.2635  0.5118
17556TIP3   OH274158   2.026   6.681  14.275 -0.2484 -0.0493  0.4629
17556TIP3    H174159   1.957   6.633  14.322  0.5146  0.3077  2.0077
17556TIP3    H274160   2.065   6.738  14.342 -0.1002  1.5936 -0.9654
17557TIP3   OH274161   5.216   3.773  15.749 -0.7331  0.5174 -0.1998
17557TIP3    H174162   5.233   3.758  15.656 -0.5743 -0.5281 -0.0199
17557TIP3    H274163   5.301   3.800  15.785 -0.6452  0.3169 -0.2521
17558TIP3   OH274164   1.583   4.108  16.372  0.9109  0.1166 -0.1680
17558TIP3    H174165   1.618   4.089  16.459  2.0293 -0.6094 -0.7623
17558TIP3    H274166   1.600   4.201  16.359  0.1852  0.3776  0.6144
17559TIP3   OH274167   6.470   2.158   4.258 -0.1461 -0.3815 -0.5200
17559TIP3    H174168   6.541   2.219   4.240  1.1038 -1.3861  0.7029
17559TIP3    H274169   6.471   2.097   4.183  0.2210 -0.3315 -0.5568
17560TIP3   OH274170   1.540   3.501  16.824 -0.2166 -0.3311 -1.2072
17560TIP3    H174171   1.528   3.570  16.758 -0.7109  0.0760 -0.6989
17560TIP3    H274172   1.573   3.426  16.774 -1.1985 -0.2425 -2.0327
17561TIP3   OH274173   0.818   3.134   6.457  0.0061 -0.1432 -0.1934
17561TIP3    H174174   0.884   3.066   6.443 -0.6885 -0.8351 -0.1961
17561TIP3    H274175   0.791   3.123   6.549  0.4055  0.6040  0.0181
17562TIP3   OH274176   4.242   0.567   5.685 -0.1223  0.4017 -0.1066
17562TIP3    H174177   4.185   0.502   5.643 -2.4333  2.7165 -0.8239
17562TIP3    H274178   4.224   0.558   5.778  1.1554 -1.2873  0.0361
17563TIP3   OH274179   0.974   5.405   1.997 -0.2564  0.4598 -0.7877
17563TIP3    H174180   1.043   5.338   2.001 -2.5505 -2.0554  0.0679
17563TIP3    H274181   0.913   5.371   1.932 -1.9283  1.2662  0.3092
17564TIP3   OH274182   0.670   5.775  13.428  0.5095  0.6686 -0.0442
17564TIP3    H174183   0.724   5.725  13.367 -0.0557 -1.3705  1.0559
17564TIP3    H274184   0.603   5.713  13.458  0.6036  1.6523  2.4513
17565TIP3   OH274185   4.952   6.115   5.345 -0.0664 -0.1332  0.2091
17565TIP3    H174186   4.947   6.037   5.289  0.2020  0.7832 -1.1343
17565TIP3    H274187   4.863   6.151   5.343 -0.5846 -1.1470  2.0168
17566TIP3   OH274188   3.015   0.900   6.616 -0.2903  0.8475 -0.5114
17566TIP3    H174189   3.100   0.937   6.639 -0.3403  0.7004 -0.0934
17566TIP3    H274190   3.013   0.904   6.520  0.2965  0.6093 -0.5398
17567TIP3   OH274191   3.069   1.010   2.769  0.8725 -0.0363 -0.8383
17567TIP3    H174192   3.086   1.079   2.705  1.1373 -0.3537 -1.1155
17567TIP3    H274193   2.982   0.977   2.746  0.4109  0.7191 -0.2222
17568TIP3   OH274194   4.501   6.299   6.386 -0.2622 -0.1705  0.2113
17568TIP3    H174195   4.408   6.278   6.394 -0.2103 -0.3545  0.3574
17568TIP3    H274196   4.503   6.388   6.352 -0.4941 -0.0130  0.6030
17569TIP3   OH274197   3.379   6.118   1.857 -0.6837  0.3506 -0.3354
17569TIP3    H174198   3.399   6.100   1.948  0.6345 -0.1990 -0.7142
17569TIP3    H274199   3.322   6.047   1.830  0.3869 -0.5039 -0.4165
17570TIP3   OH274200   5.576   0.827   1.317 -0.2180  0.1772  0.3163
17570TIP3    H174201   5.638   0.765   1.354 -0.3515 -0.2369 -0.1476
17570TIP3    H274202   5.490   0.796   1.348 -0.4106 -0.6352 -0.9471
17571TIP3   OH274203   6.763   0.166   2.123  0.5482  0.0683 -0.0063
17571TIP3    H174204   6.699   0.237   2.113  1.5705  1.2865  1.5997
17571TIP3    H274205   6.823   0.177   2.049 -0.4281 -0.3959 -0.8928
17572TIP3   OH274206   0.038   1.726  12.703  0.0638 -0.2958  0.2465
17572TIP3    H174207   0.123   1.718  12.747  0.0881 -2.1209 -0.0206
17572TIP3    H274208   0.012   1.635  12.685 -1.1499  0.2907 -1.1992
17573TIP3   OH274209   6.721   5.079  16.805  0.4030 -0.2720  0.3463
17573TIP3    H174210   6.650   5.020  16.779 -1.0193  1.7048 -0.4328
17573TIP3    H274211   6.773   5.091  16.726  1.2381 -1.1454  0.7359
17574TIP3   OH274212   3.582   1.488  15.380 -0.5526 -0.1689  0.3986
17574TIP3    H174213   3.675   1.481  15.398 -0.8067  0.2553  2.0104
17574TIP3    H274214   3.555   1.569  15.421 -1.5611 -0.0453 -0.4550
17575TIP3   OH274215   1.709   5.524   2.291  0.4166  0.5587 -0.2612
17575TIP3    H174216   1.615   5.508   2.306  0.6093  0.6363  1.0910
17575TIP3    H274217   1.712   5.609   2.247 -0.0452  1.7614  1.9075
17576TIP3   OH274218   3.096   3.556   4.424  0.0649  0.0235  0.0377
17576TIP3    H174219   3.095   3.643   4.382 -1.1308 -0.0160 -0.0257
17576TIP3    H274220   3.094   3.494   4.351 -4.1455 -0.0781 -0.0013
17577TIP3   OH274221   4.228   6.092  16.479  0.0206 -0.5112 -0.0536
17577TIP3    H174222   4.319   6.121  16.489 -0.7857  2.2650 -0.0787
17577TIP3    H274223   4.190   6.154  16.417 -1.4116 -2.8894 -1.7438
17578TIP3   OH274224   2.628   1.112   2.224 -0.0718  0.5110  0.0719
17578TIP3    H174225   2.617   1.086   2.315  1.2161 -0.0351  0.0895
17578TIP3    H274226   2.658   1.203   2.228  0.3581  0.3626  0.2042
17579TIP3   OH274227   6.540   1.456   2.815  0.0074  0.4663 -0.6997
17579TIP3    H174228   6.544   1.379   2.758  3.0920 -0.1443  0.1695
17579TIP3    H274229   6.509   1.526   2.758  0.3532 -0.6936 -2.4065
17580TIP3   OH274230   1.151   1.871  13.321  0.0430  0.1368  0.3969
17580TIP3    H174231   1.237   1.898  13.290 -0.2596  2.5691  1.4075
17580TIP3    H274232   1.169   1.804  13.387  0.9847 -0.9302 -0.8868
17581TIP3   OH274233   4.643   3.177   0.751 -0.4035 -0.1486 -0.0474
17581TIP3    H174234   4.697   3.254   0.739 -1.0067  0.0904 -1.5015
17581TIP3    H274235   4.571   3.189   0.689 -1.0848 -1.3579  0.4811
17582TIP3   OH274236   5.293   2.379   4.162  0.1733 -0.1988 -0.2934
17582TIP3    H174237   5.217   2.425   4.197  0.6116  1.5717 -1.5332
17582TIP3    H274238   5.258   2.328   4.088  0.1504  0.4575 -0.7395
17583TIP3   OH274239   1.850   1.708  16.911 -0.9422 -0.5649 -0.5748
17583TIP3    H174240   1.812   1.773  16.969 -1.7246 -0.7658 -0.8593
17583TIP3    H274241   1.918   1.755  16.864 -1.4017  0.0088 -0.6762
17584TIP3   OH274242   3.759   4.452   3.585  0.1882 -0.7220 -0.1565
17584TIP3    H174243   3.685   4.465   3.646  0.6893 -2.3673  0.8650
17584TIP3    H274244   3.743   4.366   3.546  1.7547 -1.2768  0.3776
17585TIP3   OH274245   4.303   0.878   3.586 -0.1457 -0.1898 -0.2543
17585TIP3    H174246   4.220   0.880   3.635 -0.1302  0.1426 -0.2394
17585TIP3    H274247   4.305   0.791   3.546  1.1912 -1.5979  2.6211
17586TIP3   OH274248   3.799   0.218   1.321 -0.6040  0.1100  0.2296
17586TIP3    H174249   3.748   0.234   1.400 -0.7063  1.9977 -0.1847
17586TIP3    H274250   3.738   0.234   1.249  0.0673  0.5481 -0.2508
17587TIP3   OH274251   3.268   2.031   4.729 -0.1147 -0.6484 -0.0629
17587TIP3    H174252   3.335   1.995   4.670 -1.1658 -1.9723 -0.5047
17587TIP3    H274253   3.219   2.092   4.674 -0.9697 -1.7362 -0.5604
17588TIP3   OH274254   2.973   3.913  14.481 -0.4075  0.6088 -0.1985
17588TIP3    H174255   2.943   3.966  14.407 -0.1453 -0.9711 -1.4920
17588TIP3    H274256   2.979   3.824  14.446 -0.0011 -0.1404  1.6611
17589TIP3   OH274257   6.788   2.835  15.869 -0.1412 -0.0708 -0.0892
17589TIP3    H174258   6.727   2.761  15.875 -1.4972  1.0024 -0.1634
17589TIP3    H274259   6.765   2.891  15.944  0.1231  0.8108 -0.6540
17590TIP3   OH274260   5.045   2.888  16.217 -0.1717  0.1243 -0.2583
17590TIP3    H174261   5.108   2.960  16.206  1.0795 -0.5922  1.7374
17590TIP3    H274262   5.051   2.839  16.134  2.3145 -0.1940  0.0186
17591TIP3   OH274263   3.807   2.471  12.398 -0.2165 -0.7461  0.1168
17591TIP3    H174264   3.818   2.517  12.315  1.4902 -0.3567  0.5148
17591TIP3    H274265   3.850   2.527  12.462 -0.0524 -1.8237  0.9823
17592TIP3   OH274266   0.492   3.057   4.580  0.0892 -0.1274  0.5781
17592TIP3    H174267   0.493   2.992   4.651  3.1712  1.4723  2.2514
17592TIP3    H274268   0.436   3.127   4.613 -1.6050 -0.9876 -0.3511
17593TIP3   OH274269   3.976   5.804  16.304 -0.0076 -0.2319 -0.0534
17593TIP3    H174270   4.052   5.814  16.247  0.7774  0.1696  1.0517
17593TIP3    H274271   3.913   5.868  16.271  0.1878 -0.4507 -0.8685
17594TIP3   OH274272   5.540   4.450  11.281  0.3045 -0.2306  0.3623
17594TIP3    H174273   5.522   4.430  11.373  2.3662 -0.5665  0.7475
17594TIP3    H274274   5.468   4.507  11.254 -0.6713 -0.6173  1.9911
17595TIP3   OH274275   5.954   3.779   2.752  0.3871  0.3435  0.2377
17595TIP3    H174276   6.045   3.753   2.737  1.0226  2.9832 -1.1392
17595TIP3    H274277   5.953   3.811   2.842  0.8481  0.4005  0.2260
17596TIP3   OH274278   1.193   3.160  15.655 -0.7700 -0.2612  0.5486
17596TIP3    H174279   1.162   3.099  15.723 -0.3024 -0.2191  0.8043
17596TIP3    H274280   1.259   3.110  15.607 -0.8372 -0.1660  0.3575
17597TIP3   OH274281   0.934   2.597   4.825  0.4565  0.4939  0.2052
17597TIP3    H174282   0.927   2.546   4.906  2.0662 -2.5998 -1.4280
17597TIP3    H274283   0.884   2.547   4.761  0.8523  1.8034 -1.1939
17598TIP3   OH274284   5.377   1.182   0.544 -0.4249 -0.1791 -0.1679
17598TIP3    H174285   5.362   1.211   0.454  0.1926  1.3462  0.1697
17598TIP3    H274286   5.473   1.178   0.551 -0.3751  1.6158  0.9131
17599TIP3   OH274287   4.892   6.022  16.641 -0.3796  0.0902  0.4057
17599TIP3    H174288   4.950   6.085  16.684 -0.3794 -0.2740  0.9474
17599TIP3    H274289   4.805   6.060  16.648 -0.2051  0.6854 -0.4953
17600TIP3   OH274290   4.430   6.012  15.825 -0.3196  0.1538  0.0032
17600TIP3    H174291   4.367   5.942  15.810  0.0229 -0.2287  0.3188
17600TIP3    H274292   4.449   6.048  15.738 -1.7306  0.9510 -0.0044
17601TIP3   OH274293   4.305   6.485   3.867  0.2502  0.0108 -0.0070
17601TIP3    H174294   4.337   6.512   3.953 -1.4311 -0.7379  0.8976
17601TIP3    H274295   4.279   6.394   3.878 -0.6084  0.0908 -1.1429
17602TIP3   OH274296   3.635   5.045   6.199 -0.0556  0.1461  0.1568
17602TIP3    H174297   3.724   5.077   6.182  0.1037  0.7986  1.9781
17602TIP3    H274298   3.647   4.971   6.258 -0.7485  0.6486  0.9432
17603TIP3   OH274299   0.677   3.762  15.064  0.5342  0.8590 -0.1728
17603TIP3    H174300   0.668   3.667  15.076  0.7183  0.7791 -0.6354
17603TIP3    H274301   0.637   3.779  14.978 -2.1926  1.6329  1.1620
17604TIP3   OH274302   3.009   0.920   5.944  0.3865  0.3784 -0.5494
17604TIP3    H174303   3.070   0.868   5.996  0.1161 -0.1962 -0.8042
17604TIP3    H274304   3.064   0.967   5.881  0.4162 -1.8084 -2.2550
17605TIP3   OH274305   1.550   4.110   2.441  0.0815 -0.3064  0.0699
17605TIP3    H174306   1.590   4.083   2.359 -0.5419 -0.5891 -0.1505
17605TIP3    H274307   1.499   4.188   2.419  0.7678  0.2543  0.4173
17606TIP3   OH274308   1.610   3.483  12.721  0.4697  0.6714  0.4489
17606TIP3    H174309   1.579   3.536  12.794  0.3387  1.8699 -0.4253
17606TIP3    H274310   1.531   3.441  12.687  0.2201  1.5324 -0.0782
17607TIP3   OH274311   4.044   4.982   4.795 -0.2486 -0.0444 -0.1527
17607TIP3    H174312   3.985   5.007   4.724 -0.6134  0.0523  0.1783
17607TIP3    H274313   3.994   4.917   4.845 -0.3746  0.5895  0.5629
17608TIP3   OH274314   6.404   6.560   2.538 -0.0759 -0.1306  0.0317
17608TIP3    H174315   6.365   6.510   2.467  0.8793  1.5666 -1.8016
17608TIP3    H274316   6.331   6.578   2.598 -0.8219 -1.9338 -0.2675
17609TIP3   OH274317   2.176   1.686   1.338 -0.0619  0.1769  0.3307
17609TIP3    H174318   2.119   1.670   1.263 -0.8426  0.1307  0.9130
17609TIP3    H274319   2.209   1.600   1.362  2.5571  0.4902 -1.7206
17610TIP3   OH274320   2.296   4.763  15.584  0.6531 -0.1873 -0.2443
17610TIP3    H174321   2.371   4.716  15.547  0.5984 -1.2710  0.9700
17610TIP3    H274322   2.329   4.851  15.600  2.2963 -1.1076  1.9738
17611TIP3   OH274323   4.288   2.777  10.642  0.4583 -0.0415  0.6178
17611TIP3    H174324   4.375   2.782  10.682  0.4874 -1.2056  0.7112
17611TIP3    H274325   4.290   2.844  10.573  1.2002  0.3788  1.0301
17612TIP3   OH274326   4.125   4.625   5.097  0.0087 -0.4997 -0.7196
17612TIP3    H174327   4.176   4.549   5.068  2.0103  0.5135  0.0040
17612TIP3    H274328   4.109   4.609   5.190 -0.7248 -0.6298 -0.8579
17613TIP3   OH274329   4.190   6.219   5.995  0.1195  0.2012 -0.0251
17613TIP3    H174330   4.216   6.127   5.987 -1.5125 -0.4042  1.1833
17613TIP3    H274331   4.099   6.221   5.966 -0.4084  1.1144  1.5945
17614TIP3   OH274332   0.895   4.704   0.241 -0.3227  0.0687  0.3699
17614TIP3    H174333   0.889   4.799   0.251  1.6833  0.4661 -1.3841
17614TIP3    H274334   0.934   4.692   0.154 -1.7305 -2.4091 -0.0043
17615TIP3   OH274335   1.668   5.465  15.941  0.1092  0.1843 -0.2875
17615TIP3    H174336   1.605   5.407  15.898  0.0590  0.8637 -1.1564
17615TIP3    H274337   1.683   5.424  16.027 -2.4165  0.6208  0.4509
17616TIP3   OH274338   6.416   4.921   0.940 -0.2579  0.5802 -0.2426
17616TIP3    H174339   6.488   4.948   0.997  0.6322 -0.4766 -0.8354
17616TIP3    H274340   6.375   5.003   0.912  0.3062  1.1661  0.6095
17617TIP3   OH274341   1.285   2.610  15.575  0.2593  0.1623  0.3106
17617TIP3    H174342   1.196   2.615  15.541 -0.4190  1.6337  2.0890
17617TIP3    H274343   1.279   2.549  15.649  1.4070 -1.9772 -1.2613
17618TIP3   OH274344   3.594   2.952  13.704 -0.2144 -0.0080 -0.3746
17618TIP3    H174345   3.540   2.979  13.630  0.3515  0.0854 -0.7586
17618TIP3    H274346   3.633   2.869  13.677  2.1359  1.2937 -1.3380
17619TIP3   OH274347   5.976   0.716  12.149 -0.7047  0.6766  0.1020
17619TIP3    H174348   6.011   0.644  12.096  0.6092  2.1910 -1.1796
17619TIP3    H274349   5.883   0.695  12.159 -0.3658 -1.1554 -0.2789
17620TIP3   OH274350   2.926   3.410  14.571  0.1106  0.1566 -0.5627
17620TIP3    H174351   2.963   3.408  14.659 -0.2607  2.0629 -0.3325
17620TIP3    H274352   2.953   3.326  14.532 -0.6357 -1.2284  1.6954
17621TIP3   OH274353   5.108   2.620  12.415 -0.1859 -0.2935  0.4690
17621TIP3    H174354   5.068   2.707  12.407 -2.2642 -1.1548  0.7705
17621TIP3    H274355   5.053   2.564  12.360  0.3057 -1.6744  1.3500
17622TIP3   OH274356   2.178   4.626  12.114 -0.7559  0.4870  0.1298
17622TIP3    H174357   2.116   4.576  12.061  2.8611  0.0360 -4.4031
17622TIP3    H274358   2.246   4.563  12.136  0.3244  1.8447  0.8360
17623TIP3   OH274359   0.609   6.090   3.657 -0.1031 -0.4284  0.4680
17623TIP3    H174360   0.614   6.055   3.746 -1.4544 -0.2952  0.6137
17623TIP3    H274361   0.522   6.064   3.625 -0.6660  1.6812  0.1209
17624TIP3   OH274362   1.578   3.473  13.677 -0.8607  0.0592  0.3045
17624TIP3    H174363   1.604   3.524  13.754 -0.6967  1.9929 -0.9603
17624TIP3    H274364   1.631   3.393  13.682  0.5267  0.9908  1.2209
17625TIP3   OH274365   4.800   2.890  15.045 -0.5224 -0.4822  0.1546
17625TIP3    H174366   4.715   2.919  15.013 -0.4905 -0.5645 -0.0045
17625TIP3    H274367   4.854   2.881  14.967 -0.4087 -0.5659  0.2413
17626TIP3   OH274368   2.040   4.912   0.885 -0.3709  0.5080  0.2597
17626TIP3    H174369   2.131   4.883   0.873 -0.3799  0.8615 -0.7561
17626TIP3    H274370   2.005   4.853   0.952  0.2110 -0.5105 -0.2957
17627TIP3   OH274371   1.413   4.205  11.736  0.0724  0.5738 -0.0742
17627TIP3    H174372   1.317   4.207  11.738 -0.1501 -2.2294  4.0345
17627TIP3    H274373   1.439   4.214  11.828  3.4888 -2.6532 -0.4844
17628TIP3   OH274374   4.940   0.630  11.705 -0.2743  0.0218 -0.4459
17628TIP3    H174375   5.016   0.615  11.762  0.2072  0.3450 -0.9825
17628TIP3    H274376   4.864   0.619  11.762  0.1905  0.1581  0.2162
17629TIP3   OH274377   2.084   2.294   0.948  0.0530  0.2177  0.4511
17629TIP3    H174378   2.081   2.265   1.039 -3.2436 -0.5187  0.2221
17629TIP3    H274379   2.030   2.373   0.945 -0.2873 -0.0337 -0.9289
17630TIP3   OH274380   6.713   1.216  13.247  0.9232 -0.0710 -0.4399
17630TIP3    H174381   6.761   1.280  13.195  1.2463  0.7818  0.8567
17630TIP3    H274382   6.705   1.257  13.334  2.1968 -2.2600  0.7938
17631TIP3   OH274383   4.711   4.874   3.372  0.2193  0.0300 -0.1251
17631TIP3    H174384   4.785   4.815   3.381 -1.3503 -1.9081  0.9516
17631TIP3    H274385   4.679   4.886   3.462  0.0930  2.0776 -0.3755
17632TIP3   OH274386   0.354   5.483  13.744  0.0243  0.9332  0.7842
17632TIP3    H174387   0.296   5.556  13.765  0.0345  0.3499  3.2079
17632TIP3    H274388   0.420   5.484  13.814  1.0956 -0.3094 -0.1452
17633TIP3   OH274389   4.158   2.019   3.546 -0.1700  0.2527  0.6398
17633TIP3    H174390   4.178   1.993   3.456  0.5220  1.6462  0.3701
17633TIP3    H274391   4.243   2.030   3.588 -0.4819  0.0825  1.3241
17634TIP3   OH274392   2.976   0.190   0.961  0.2209  0.6146  0.0042
17634TIP3    H174393   3.028   0.238   1.025  0.0420  2.2130 -0.9686
17634TIP3    H274394   3.040   0.152   0.900  0.3280  1.1959 -0.2575
17635TIP3   OH274395   4.012   3.189   4.141 -0.1132 -0.1682  0.2934
17635TIP3    H174396   4.082   3.143   4.189 -1.2612 -0.7814  1.4589
17635TIP3    H274397   4.055   3.224   4.064  1.3312 -1.1787  0.5895
17636TIP3   OH274398   3.376   3.431  14.088 -0.2554  0.0132 -0.0448
17636TIP3    H174399   3.372   3.482  14.007  0.5143 -0.0168 -0.1163
17636TIP3    H274400   3.457   3.381  14.080  0.5803  1.0660  1.3468
17637TIP3   OH274401   6.245   1.444   4.367  0.0666 -0.2757  0.6998
17637TIP3    H174402   6.308   1.390   4.319 -0.7965  0.0587 -0.8857
17637TIP3    H274403   6.161   1.402   4.349 -0.6673  1.6893 -0.8248
17638TIP3   OH274404   5.329   0.028  14.751  0.2120  0.1817  0.1168
17638TIP3    H174405   5.394  -0.003  14.813  1.4922  0.2314 -1.1467
17638TIP3    H274406   5.307   0.116  14.781  0.5112  0.0566  0.7154
17639TIP3   OH274407   1.360   6.597  15.671  0.1008 -0.5774  0.9008
17639TIP3    H174408   1.404   6.677  15.701  0.7792 -0.5824 -0.0461
17639TIP3    H274409   1.360   6.604  15.576 -0.2471 -1.4940  0.8238
17640TIP3   OH274410   0.277   4.295   0.902  0.2601  0.0143 -0.4315
17640TIP3    H174411   0.302   4.220   0.849 -1.4944 -0.6136 -0.4126
17640TIP3    H274412   0.331   4.367   0.868 -0.6743 -0.3878 -2.9834
17641TIP3   OH274413   2.464   4.284   0.100  0.1663  0.0491  0.3154
17641TIP3    H174414   2.462   4.308   0.007  2.8723  1.7417  0.5883
17641TIP3    H274415   2.471   4.367   0.146  2.0909 -0.8773  1.8160
17642TIP3   OH274416   0.116   1.492  15.574 -0.2770 -0.0273 -0.0850
17642TIP3    H174417   0.181   1.557  15.600 -0.4480 -0.1099  0.5656
17642TIP3    H274418   0.132   1.478  15.481  1.5402 -1.0565  0.3393
17643TIP3   OH274419   5.575   3.717  11.626 -0.7612 -0.1429 -0.1020
17643TIP3    H174420   5.586   3.778  11.699  0.2165 -0.2710 -0.1313
17643TIP3    H274421   5.657   3.724  11.576  0.1615 -2.7949  0.8705
17644TIP3   OH274422   3.183   6.710  15.401  0.0324 -0.0125  0.3151
17644TIP3    H174423   3.229   6.655  15.338  0.1864 -0.9786  1.2369
17644TIP3    H274424   3.130   6.769  15.348 -0.0081 -0.9464 -0.7012
17645TIP3   OH274425   1.653   6.791  16.543  0.4471 -0.0734 -0.2504
17645TIP3    H174426   1.620   6.873  16.578  0.0593  0.5675 -2.0145
17645TIP3    H274427   1.581   6.729  16.556  0.4008  0.0960  0.2942
17646TIP3   OH274428   2.091   3.168   0.987 -0.2541 -0.1703  0.0944
17646TIP3    H174429   2.131   3.253   1.006  0.6841 -0.6055  0.1147
17646TIP3    H274430   1.996   3.186   0.985 -0.4729  0.1215  4.2817
17647TIP3   OH274431   5.514   3.725  14.810  0.2751  0.1386 -0.7532
17647TIP3    H174432   5.603   3.744  14.780  0.6031 -0.0446  0.0660
17647TIP3    H274433   5.492   3.799  14.866  1.7474 -1.8882  2.8597
17648TIP3   OH274434   1.514   1.705   2.945 -0.1937  0.1920  0.1303
17648TIP3    H174435   1.449   1.707   3.016 -0.5436 -3.7191  0.1297
17648TIP3    H274436   1.471   1.658   2.874  1.5425  0.4772 -1.1735
17649TIP3   OH274437   4.340   0.558   2.185  0.2859 -0.4209  0.1063
17649TIP3    H174438   4.287   0.634   2.211 -1.4315 -1.1287 -1.1316
17649TIP3    H274439   4.299   0.526   2.105  1.5773 -2.0717  0.0439
17650TIP3   OH274440   5.288   4.573  14.630 -0.7372  0.1073  0.4307
17650TIP3    H174441   5.348   4.642  14.658  1.7318 -1.0640 -1.5738
17650TIP3    H274442   5.247   4.608  14.550  0.9047 -0.8050 -0.8880
17651TIP3   OH274443   3.038   3.404   5.627  0.1912  0.3758  0.0136
17651TIP3    H174444   3.067   3.432   5.714 -1.0458 -0.3155  0.6742
17651TIP3    H274445   2.998   3.483   5.589 -2.0513 -0.0244  1.3306
17652TIP3   OH274446   2.585   3.187   5.743  1.1404  0.0237 -0.1802
17652TIP3    H174447   2.520   3.258   5.739 -1.1493 -1.8314  1.3553
17652TIP3    H274448   2.534   3.107   5.729  2.9201 -1.6114  1.9802
17653TIP3   OH274449   2.236   6.281  14.672  0.4556 -0.6324  0.0995
17653TIP3    H174450   2.163   6.324  14.628 -0.8515 -0.3824  2.3286
17653TIP3    H274451   2.232   6.190  14.643  0.7160 -0.1577 -1.5287
17654TIP3   OH274452   2.474   1.699   2.078 -0.0143  0.0113  0.1386
17654TIP3    H174453   2.423   1.767   2.122  0.5233  0.7301 -0.3157
17654TIP3    H274454   2.505   1.741   1.997 -1.5083 -1.4643 -1.2652
17655TIP3   OH274455   2.043   2.729  11.699  0.6018  0.4432  0.0448
17655TIP3    H174456   2.033   2.762  11.788 -2.3230  1.9334 -0.6960
17655TIP3    H274457   1.986   2.652  11.695  1.2663 -0.0337 -0.3492
17656TIP3   OH274458   0.253   0.532   0.506 -0.0866 -0.0489 -0.1052
17656TIP3    H174459   0.248   0.517   0.412 -2.0210  2.0974 -0.4446
17656TIP3    H274460   0.253   0.444   0.544  0.3816 -0.9627 -2.0777
17657TIP3   OH274461   5.511   1.023   3.604  0.4180 -0.1794  0.1332
17657TIP3    H174462   5.430   0.988   3.567 -0.4851  0.1096  1.7564
17657TIP3    H274463   5.550   1.073   3.531 -1.5735  0.8406 -0.3242
17658TIP3   OH274464   1.951   5.253   3.765  0.6140  0.4202  0.3380
17658TIP3    H174465   1.940   5.175   3.712 -0.3728 -0.1739  1.3788
17658TIP3    H274466   1.873   5.256   3.820  1.6871  0.8966  1.8939
17659TIP3   OH274467   1.432   0.485  12.892  0.6208  0.2000 -0.0616
17659TIP3    H174468   1.528   0.482  12.893  0.7546  2.7511  0.3779
17659TIP3    H274469   1.407   0.471  12.983  0.7370  1.8764  0.2550
17660TIP3   OH274470   3.089   2.435   2.760  0.5247  0.3927 -0.7314
17660TIP3    H174471   3.138   2.378   2.819  0.9302  1.4536  0.0093
17660TIP3    H274472   3.132   2.521   2.769 -0.7648  1.0872 -0.9373
17661TIP3   OH274473   0.489   0.011  16.902 -0.2877  0.2226  0.2110
17661TIP3    H174474   0.463   0.101  16.883 -0.2273 -0.0562 -1.2600
17661TIP3    H274475   0.585   0.011  16.893 -0.1052  0.3385  1.7515
17662TIP3   OH274476   0.671   1.320   6.344 -0.1845  0.0726 -0.1089
17662TIP3    H174477   0.693   1.284   6.429  1.6352 -0.9729 -0.9647
17662TIP3    H274478   0.751   1.362   6.313 -0.9583  0.9035 -1.0834
17663TIP3   OH274479   6.232   4.715  13.145  0.5501  0.4261 -0.4499
17663TIP3    H174480   6.319   4.713  13.105  0.6684 -0.4468 -0.1582
17663TIP3    H274481   6.177   4.665  13.085  0.3814  0.4408 -0.3063
17664TIP3   OH274482   6.264   5.656   0.965 -0.2229  0.0655  0.3486
17664TIP3    H174483   6.270   5.720   1.036  1.2107  0.0508  0.2673
17664TIP3    H274484   6.281   5.706   0.885 -1.3053 -0.0178  0.0467
17665TIP3   OH274485   0.202   1.635   1.298 -0.2875  0.6427 -0.2027
17665TIP3    H174486   0.242   1.574   1.236 -0.8480  1.7081 -1.6686
17665TIP3    H274487   0.263   1.708   1.303  0.2712  0.1250  1.3738
17666TIP3   OH274488   1.102   3.219   5.183 -0.2137  0.0276 -0.1171
17666TIP3    H174489   1.057   3.303   5.168  2.5134  1.3839 -1.4729
17666TIP3    H274490   1.122   3.187   5.095 -1.5921 -2.3835  0.3631
17667TIP3   OH274491   5.815   6.347   4.614 -0.1518  0.0147  0.2017
17667TIP3    H174492   5.816   6.251   4.622  1.6789 -0.2872 -2.1931
17667TIP3    H274493   5.739   6.365   4.558  0.7043 -0.3407 -1.1477
17668TIP3   OH274494   1.352   5.754  13.078 -0.2693 -0.3027  0.1966
17668TIP3    H174495   1.275   5.698  13.085  1.2435 -2.3816  1.1745
17668TIP3    H274496   1.352   5.783  12.987 -2.4170  0.1382  0.2863
17669TIP3   OH274497   5.677   6.331  14.554  0.0136  0.3702  0.1096
17669TIP3    H174498   5.759   6.307  14.511  0.8525  3.3168 -0.1303
17669TIP3    H274499   5.619   6.257  14.536  1.9320 -0.8421 -1.6005
17670TIP3   OH274500   6.683   2.758   2.214 -0.2532 -0.1462 -0.1609
17670TIP3    H174501   6.670   2.826   2.281 -1.7422 -0.6387  0.0945
17670TIP3    H274502   6.706   2.806   2.135  0.1648  0.5396  0.3636
17671TIP3   OH274503   5.583   3.591   4.025  0.6511  0.4837  0.1586
17671TIP3    H174504   5.663   3.590   4.078  0.3241  3.2458  0.8852
17671TIP3    H274505   5.516   3.625   4.084 -0.7168 -0.3011 -0.8868
17672TIP3   OH274506   1.630   3.612  13.895  0.2241  0.4278  0.3857
17672TIP3    H174507   1.710   3.663  13.884  0.8364 -0.5499  0.1525
17672TIP3    H274508   1.598   3.636  13.982  1.0097  0.5295  0.6629
17673TIP3   OH274509   0.254   2.284   3.731  0.0389  0.3014  0.4040
17673TIP3    H174510   0.311   2.341   3.680 -1.0729  0.2874 -0.9145
17673TIP3    H274511   0.214   2.342   3.796 -0.3229  0.8412 -0.2874
17674TIP3   OH274512   2.176   3.027   5.500 -0.2276 -0.7183  0.3822
17674TIP3    H174513   2.101   2.975   5.530  0.9135 -1.8461  1.4288
17674TIP3    H274514   2.225   3.046   5.580 -1.4645  3.6246  0.3814
17675TIP3   OH274515   3.463   3.576   3.614 -0.5969  0.1239  0.0533
17675TIP3    H174516   3.378   3.565   3.572 -1.0672  0.9101  0.7558
17675TIP3    H274517   3.518   3.618   3.548 -1.0515  0.4971 -0.0903
17676TIP3   OH274518   0.948   3.377   2.533  0.4128  0.4465 -0.2766
17676TIP3    H174519   0.944   3.471   2.521 -0.0985  0.2295 -1.9352
17676TIP3    H274520   0.988   3.343   2.453  0.1904 -0.7896  0.1036
17677TIP3   OH274521   1.137   3.646   5.384  0.2607  0.4404 -0.3485
17677TIP3    H174522   1.107   3.650   5.475 -1.0759 -1.0069 -0.6863
17677TIP3    H274523   1.232   3.658   5.391  0.1914  0.3869  1.2437
17678TIP3   OH274524   1.737   3.706  17.139  0.1228 -0.5459  0.3099
17678TIP3    H174525   1.689   3.761  17.200  1.4760  0.2816  0.6645
17678TIP3    H274526   1.748   3.761  17.061  0.4063 -0.7602  0.1986
17679TIP3   OH274527   6.640   2.295   1.832 -0.7295 -0.1181  0.0840
17679TIP3    H174528   6.639   2.233   1.905 -1.5184  0.0205  0.2000
17679TIP3    H274529   6.568   2.354   1.850  1.2330  2.1396  1.0745
17680TIP3   OH274530   2.698   2.113  14.418 -0.6183 -0.4025 -0.3420
17680TIP3    H174531   2.742   2.176  14.476  0.1544 -0.4404 -0.8664
17680TIP3    H274532   2.658   2.167  14.350 -0.0676 -0.4619 -0.7183
17681TIP3   OH274533   2.506   4.014  14.198 -0.0763  0.7616  0.5063
17681TIP3    H174534   2.426   4.063  14.216 -0.5926 -0.0238  0.3985
17681TIP3    H274535   2.477   3.923  14.189  0.9366  0.3315  1.3265
17682TIP3   OH274536   5.403   1.270   3.965  0.3650 -0.4849  0.4305
17682TIP3    H174537   5.367   1.211   4.031  0.3123 -0.4123  0.4662
17682TIP3    H274538   5.386   1.358   3.998 -0.2109 -0.4413  0.0257
17683TIP3   OH274539   1.844   0.049   5.190  0.8562  0.0976 -0.3088
17683TIP3    H174540   1.897  -0.024   5.159 -1.9156 -1.6423 -1.3278
17683TIP3    H274541   1.801   0.083   5.112  1.7252  2.5885  0.2108
17684TIP3   OH274542   0.152   1.919  15.900 -0.2098 -0.0196  0.1010
17684TIP3    H174543   0.085   1.923  15.969  0.7939 -2.6440  1.3433
17684TIP3    H274544   0.170   1.826  15.889  1.1941  0.4547 -2.2765
17685TIP3   OH274545   4.396   5.511  13.201 -0.6284 -0.0376 -0.0490
17685TIP3    H174546   4.439   5.447  13.144  0.5445 -1.9783  2.7590
17685TIP3    H274547   4.448   5.591  13.190  0.8505 -0.9687 -0.2190
17686TIP3   OH274548   0.740   0.776  12.426  0.6225 -0.6991  0.0507
17686TIP3    H174549   0.769   0.703  12.480  2.5784  0.5845  0.8575
17686TIP3    H274550   0.806   0.843  12.440 -0.6512  0.9226 -1.3322
17687TIP3   OH274551   6.832   5.775   4.694 -0.3909 -0.3292 -0.3679
17687TIP3    H174552   6.754   5.745   4.649 -0.0760 -0.2812 -0.9632
17687TIP3    H274553   6.871   5.696   4.732 -0.8055 -0.3297  0.0609
17688TIP3   OH274554   0.615   2.964  14.998  0.2432 -0.0757  0.1451
17688TIP3    H174555   0.544   3.005  14.949  0.7551  0.1904 -0.3967
17688TIP3    H274556   0.580   2.880  15.027  0.1695 -0.5713 -1.3124
17689TIP3   OH274557   6.348   1.590  13.602 -0.3218 -0.1786 -0.3219
17689TIP3    H174558   6.277   1.651  13.578  0.1940 -0.1225 -1.8276
17689TIP3    H274559   6.314   1.543  13.678 -0.6528  2.1313  1.0757
17690TIP3   OH274560   3.955   3.722   5.890 -0.5178  0.3970  0.2866
17690TIP3    H174561   4.044   3.690   5.878 -1.1850 -1.2899 -0.5721
17690TIP3    H274562   3.938   3.715   5.984 -0.5121 -1.5426  0.1702
17691TIP3   OH274563   0.354   6.168   3.111 -0.0149 -0.2700  0.2752
17691TIP3    H174564   0.269   6.126   3.099 -1.0809  1.5838  0.9660
17691TIP3    H274565   0.390   6.174   3.023 -1.6780  1.0146 -0.3624
17692TIP3   OH274566   0.638   3.411  11.908  0.4299 -0.5373 -0.0020
17692TIP3    H174567   0.670   3.399  11.818 -0.6844 -0.1148 -0.4608
17692TIP3    H274568   0.661   3.501  11.930  0.6875 -0.6355  0.1457
17693TIP3   OH274569   0.642   2.704  14.312  0.6186 -0.0259 -0.2007
17693TIP3    H174570   0.623   2.652  14.235  0.7909 -0.8606  0.3054
17693TIP3    H274571   0.709   2.654  14.359  0.1293  0.1979  0.7613
17694TIP3   OH274572   2.722   0.470  13.827 -0.0743  0.2044 -0.5505
17694TIP3    H174573   2.816   0.453  13.815 -0.2098 -0.5294 -0.6147
17694TIP3    H274574   2.694   0.509  13.745  0.4443  1.6702 -0.0551
17695TIP3   OH274575   2.252   5.704   1.405  0.4937  0.0850 -0.6856
17695TIP3    H174576   2.174   5.746   1.440 -0.8710 -1.5393 -1.6452
17695TIP3    H274577   2.306   5.684   1.481 -1.4293 -1.4670  0.3478
17696TIP3   OH274578   0.918   5.792  14.587 -0.2825  0.6801 -0.1701
17696TIP3    H174579   0.987   5.738  14.547 -1.6732 -0.7674 -0.6975
17696TIP3    H274580   0.964   5.871  14.615  1.4527  0.1074 -1.2051
17697TIP3   OH274581   6.779   0.718   0.225  0.5818  0.5026  0.1146
17697TIP3    H174582   6.747   0.642   0.177 -1.3309  1.6732 -0.5816
17697TIP3    H274583   6.853   0.750   0.174 -0.9626  1.2970 -1.7663
17698TIP3   OH274584   0.076   6.383  14.609  0.2383  0.2705  0.1287
17698TIP3    H174585   0.075   6.313  14.675 -0.0280 -0.8214 -0.9856
17698TIP3    H274586   0.143   6.444  14.639 -0.3942  0.2089  1.7983
17699TIP3   OH274587   1.468   1.312  16.781 -0.2638 -0.0807 -0.5286
17699TIP3    H174588   1.553   1.272  16.800 -0.2078  1.5867  3.7884
17699TIP3    H274589   1.490   1.391  16.731  0.6165 -0.1673 -0.2892
17700TIP3   OH274590   1.387   1.511  17.080 -0.1821  0.6846 -0.0682
17700TIP3    H174591   1.389   1.591  17.027 -0.2707  0.7383  0.0092
17700TIP3    H274592   1.294   1.486  17.083 -0.3980  1.5309  1.3256
17701TIP3   OH274593   2.577   1.476   4.002  0.3330  0.3226  0.2863
17701TIP3    H174594   2.539   1.396   3.965  1.2549  0.0761 -0.1520
17701TIP3    H274595   2.552   1.545   3.942 -1.2349  0.5439  1.1343
17702TIP3   OH274596   0.457   1.220  13.273 -0.4451 -0.4698  0.4947
17702TIP3    H174597   0.443   1.195  13.182 -1.0023 -0.7910  0.6607
17702TIP3    H274598   0.378   1.190  13.318 -0.9383  1.1367  0.7956
17703TIP3   OH274599   0.281   5.613   4.601  0.7036  0.1530 -0.1212
17703TIP3    H174600   0.318   5.561   4.673  2.7945  1.3142 -0.2603
17703TIP3    H274601   0.221   5.553   4.557 -0.4805 -0.6847  2.4044
17704TIP3   OH274602   3.100   0.794   5.386  0.0745 -0.0273 -0.3686
17704TIP3    H174603   3.022   0.849   5.378 -0.1785 -0.3159  0.0240
17704TIP3    H274604   3.112   0.756   5.299 -1.4451 -1.5752  0.0309
17705TIP3   OH274605   5.662   5.489   2.619  0.4936 -0.0503 -0.0167
17705TIP3    H174606   5.700   5.474   2.532  0.2535  0.2366 -0.1723
17705TIP3    H274607   5.591   5.551   2.604 -1.0566 -1.7362  0.0298
17706TIP3   OH274608   3.635   6.075   4.759  0.5784 -0.0217  0.3190
17706TIP3    H174609   3.627   6.037   4.672 -1.3643 -2.0771  1.2672
17706TIP3    H274610   3.628   6.000   4.818 -0.6448  1.5344  2.2915
17707TIP3   OH274611   3.563   4.846   4.879 -0.6314 -0.2377 -0.6145
17707TIP3    H174612   3.599   4.849   4.967 -1.8633  0.0588 -0.1038
17707TIP3    H274613   3.556   4.937   4.852  1.7330 -0.3498 -1.9018
17708TIP3   OH274614   5.277   6.666  15.360  0.2994 -0.0607  0.3351
17708TIP3    H174615   5.352   6.633  15.310  0.1465 -0.3012  0.2630
17708TIP3    H274616   5.287   6.626  15.447 -0.5432 -1.2712 -0.1059
17709TIP3   OH274617   0.757   4.613  11.610  0.3425  0.0400  0.5613
17709TIP3    H174618   0.773   4.567  11.527  0.8453  0.9481  0.1313
17709TIP3    H274619   0.671   4.582  11.639 -0.6541  0.9634 -1.1971
17710TIP3   OH274620   3.367   5.475  16.380  0.2524 -0.1774 -0.2634
17710TIP3    H174621   3.376   5.550  16.438  0.7644 -0.4948  0.0719
17710TIP3    H274622   3.275   5.475  16.354  0.3087  0.7271 -0.4856
17711TIP3   OH274623   3.004   0.761   1.676  0.5186  0.1058  0.3439
17711TIP3    H174624   3.013   0.812   1.596  1.7139 -0.3838  0.1414
17711TIP3    H274625   2.912   0.736   1.679  0.0567  1.6651  0.0904
17712TIP3   OH274626   6.100   2.066  11.413  0.4117 -0.1308 -0.4068
17712TIP3    H174627   6.173   2.090  11.356  1.6620  1.3709  1.6691
17712TIP3    H274628   6.089   2.141  11.472 -0.5836 -1.6712  1.5181
17713TIP3   OH274629   1.747   5.149  16.789 -0.9926  0.1009  0.7463
17713TIP3    H174630   1.772   5.239  16.810 -0.6561  0.0766  0.4505
17713TIP3    H274631   1.726   5.110  16.874  0.2763  0.0265  1.0485
17714TIP3   OH274632   2.477   5.373   1.063  0.1005  0.1145 -0.1099
17714TIP3    H174633   2.549   5.317   1.033  0.1792  0.2364 -0.1483
17714TIP3    H274634   2.513   5.422   1.136 -0.6823 -1.6753  1.5696
17715TIP3   OH274635   2.366   6.195   0.886 -0.1620  0.3737  0.4433
17715TIP3    H174636   2.338   6.236   0.804 -1.0426  0.1644  0.6264
17715TIP3    H274637   2.458   6.220   0.895 -0.8418  2.9892  0.9179
17716TIP3   OH274638   6.679   4.322  16.431  0.0944  0.1430  0.1169
17716TIP3    H174639   6.767   4.336  16.465  0.7146 -1.2948 -0.7758
17716TIP3    H274640   6.683   4.353  16.340 -0.4729  0.5100  0.2088
17717TIP3   OH274641   3.236   0.152   1.303 -0.2257  0.0740 -0.8116
17717TIP3    H174642   3.175   0.224   1.287 -0.5344 -0.5400 -2.7549
17717TIP3    H274643   3.261   0.161   1.394 -2.7875  0.7089 -0.0805
17718TIP3   OH274644   2.167   2.189   5.136  0.0099 -0.7669 -0.1212
17718TIP3    H174645   2.088   2.135   5.124 -1.1463  0.8254 -0.0536
17718TIP3    H274646   2.195   2.170   5.226  0.0722 -1.7938 -0.3442
17719TIP3   OH274647   5.599   1.999  14.588 -0.4154 -0.1304  0.1800
17719TIP3    H174648   5.684   1.965  14.616 -1.5470 -2.9010  0.6654
17719TIP3    H274649   5.545   1.994  14.668 -1.5374 -0.3844 -0.5734
17720TIP3   OH274650   5.083   5.913  10.661 -0.2467 -0.2453 -0.0071
17720TIP3    H174651   5.113   5.863  10.737 -1.9468  1.3247  1.7942
17720TIP3    H274652   5.163   5.928  10.610  0.5863 -3.2609  0.2224
17721TIP3   OH274653   3.011   0.975   4.672  0.2198 -0.1535  0.2481
17721TIP3    H174654   3.034   0.947   4.761  0.4906  0.3990  0.3517
17721TIP3    H274655   2.918   0.997   4.677  0.8226  2.5166  1.0832
17722TIP3   OH274656   5.513   2.947   2.424  0.4723  0.0439  0.4407
17722TIP3    H174657   5.599   2.925   2.387  1.2994 -1.4774  2.9951
17722TIP3    H274658   5.466   2.863   2.427 -0.1120  0.3859  1.4105
17723TIP3   OH274659   2.043   1.032   4.261 -0.1620  0.1924  0.1565
17723TIP3    H174660   2.055   1.122   4.233  0.6486 -0.2065 -0.8289
17723TIP3    H274661   2.046   1.036   4.357 -1.7548  1.4057  0.2093
17724TIP3   OH274662   4.281   6.751  12.034  0.7491  0.0601  0.4646
17724TIP3    H174663   4.205   6.709  11.995  2.1574 -2.1909 -0.0154
17724TIP3    H274664   4.339   6.679  12.058  2.1482  1.6297  2.0994
17725TIP3   OH274665   2.857   4.084   4.222  0.2478  0.5593 -0.6902
17725TIP3    H174666   2.920   4.012   4.232  0.9768  1.0761 -1.4049
17725TIP3    H274667   2.844   4.091   4.127  0.6966  1.7969 -0.6712
17726TIP3   OH274668   4.127   2.771   2.055 -0.1345  0.1832  0.2563
17726TIP3    H174669   4.193   2.717   2.013 -0.4159  0.4566 -0.5417
17726TIP3    H274670   4.048   2.717   2.054  0.0491 -0.1263  1.1692
17727TIP3   OH274671   3.385   1.868   6.267  0.7106  1.1116 -0.0007
17727TIP3    H174672   3.388   1.879   6.362  2.6839  1.7131 -0.1022
17727TIP3    H274673   3.429   1.784   6.251  0.8738  1.2757 -0.4232
17728TIP3   OH274674   3.100   1.847   1.283  0.2220 -0.4402  0.3798
17728TIP3    H174675   3.168   1.906   1.315  0.0568  0.0922 -0.2085
17728TIP3    H274676   3.065   1.892   1.205 -0.8425 -0.6632  0.7101
17729TIP3   OH274677   6.139   6.275   5.316  0.0991 -0.0785  0.2219
17729TIP3    H174678   6.156   6.208   5.250 -0.5718  1.3725 -1.4685
17729TIP3    H274679   6.078   6.233   5.377 -0.2745 -1.0248 -0.7789
17730TIP3   OH274680   5.806   5.710   1.115 -0.1309 -0.3096  0.3206
17730TIP3    H174681   5.757   5.774   1.063 -0.3630 -0.9999 -0.3180
17730TIP3    H274682   5.784   5.625   1.077  1.0325 -0.6944  0.4535
17731TIP3   OH274683   3.355   5.613   0.181  0.8816 -0.0772  0.6934
17731TIP3    H174684   3.269   5.626   0.142  1.1353  0.1732  0.2051
17731TIP3    H274685   3.400   5.555   0.120  2.3385  2.6647 -1.0135
17732TIP3   OH274686   2.924   5.822  13.320 -0.2894  0.1819  1.1595
17732TIP3    H174687   2.962   5.866  13.397 -1.2239  2.0660  0.6045
17732TIP3    H274688   2.976   5.854  13.246  0.2326 -1.1795  0.9049
17733TIP3   OH274689   5.091   2.747   5.256  0.5620  0.6192  0.0657
17733TIP3    H174690   5.167   2.766   5.310  1.4350 -4.3411  1.0954
17733TIP3    H274691   5.122   2.754   5.166  1.9796 -0.1229  0.4601
17734TIP3   OH274692   1.164   3.252  12.058 -0.3355 -0.2864  0.3751
17734TIP3    H174693   1.159   3.248  12.153 -0.5403 -0.4169  0.3608
17734TIP3    H274694   1.247   3.208  12.036 -0.0545  0.1693  0.5174
17735TIP3   OH274695   2.815   4.164  15.834  0.4024  0.2400  0.6742
17735TIP3    H174696   2.807   4.088  15.892 -1.7402 -0.1673 -0.0624
17735TIP3    H274697   2.763   4.141  15.757  1.5150  1.5872 -0.5452
17736TIP3   OH274698   3.468   3.338   3.819 -0.3491 -0.2502  0.0515
17736TIP3    H174699   3.470   3.419   3.768  0.2637 -0.7787 -0.7753
17736TIP3    H274700   3.470   3.368   3.910  2.4704  0.6600 -0.1992
17737TIP3   OH274701   2.844   0.347   0.494 -0.3982 -0.0358  0.1087
17737TIP3    H174702   2.848   0.346   0.399 -0.8534  1.1091  0.0551
17737TIP3    H274703   2.909   0.412   0.521 -0.9261  0.3382  0.5149
17738TIP3   OH274704   5.160   6.029   0.715  0.0674 -0.2321  0.6413
17738TIP3    H174705   5.128   6.104   0.765 -0.0711 -1.4132  2.4438
17738TIP3    H274706   5.168   6.061   0.625 -1.6512  1.4351  1.0111
17739TIP3   OH274707   0.420   4.185   3.149  0.6400 -0.2027  0.2093
17739TIP3    H174708   0.353   4.137   3.100 -0.3910  1.4704 -0.0827
17739TIP3    H274709   0.374   4.220   3.225  0.7398  2.2484 -0.7757
17740TIP3   OH274710   5.280   2.980   1.271  0.5188 -0.2549  0.6149
17740TIP3    H174711   5.273   3.024   1.355  1.2685  0.9774  0.0555
17740TIP3    H274712   5.192   2.989   1.232  0.7552  1.1098  0.3506
17741TIP3   OH274713   4.690   2.552   4.433  0.1241  0.3884 -0.0450
17741TIP3    H174714   4.726   2.570   4.346  3.1651  0.7960  1.1952
17741TIP3    H274715   4.767   2.539   4.489 -1.7315 -1.0309  2.3772
17742TIP3   OH274716   3.779   2.227   1.459  0.5106  0.3131 -0.2588
17742TIP3    H174717   3.690   2.259   1.474  0.3643 -0.5084  0.7506
17742TIP3    H274718   3.832   2.274   1.524  0.7246  0.4195 -0.5115
17743TIP3   OH274719   1.327   3.784   3.319 -0.2602  0.6915  0.2171
17743TIP3    H174720   1.363   3.779   3.408  1.1986  0.4652 -0.3408
17743TIP3    H274721   1.391   3.837   3.271 -1.7383  1.9859 -0.3890
17744TIP3   OH274722   0.619   1.243  16.270  0.6134  0.5212  0.3621
17744TIP3    H174723   0.530   1.262  16.239  0.1621 -0.1319  1.2208
17744TIP3    H274724   0.613   1.157  16.310  1.6009  0.5465  0.5943
17745TIP3   OH274725   3.864   1.778   1.978 -0.0858 -0.2243 -0.0887
17745TIP3    H174726   3.836   1.861   2.016 -0.9705 -0.8428  0.6360
17745TIP3    H274727   3.789   1.720   1.989  1.1495 -1.6605  1.0766
17746TIP3   OH274728   5.639   4.154  15.478  0.2148 -0.3118 -0.6479
17746TIP3    H174729   5.548   4.153  15.508  0.5684 -1.2518  0.4578
17746TIP3    H274730   5.642   4.089  15.408  0.7462 -2.9993  1.6983
17747TIP3   OH274731   3.993   1.370  11.651  0.3782  0.4324 -0.0307
17747TIP3    H174732   4.085   1.373  11.679  0.0818 -1.7393  1.4329
17747TIP3    H274733   3.985   1.286  11.607 -1.0522  0.3236  0.4089
17748TIP3   OH274734   2.734   4.375  11.958  0.5967  0.1122 -0.3225
17748TIP3    H174735   2.764   4.341  12.042 -0.4633  0.2999  0.1456
17748TIP3    H274736   2.788   4.453  11.943  1.5506 -0.5294 -0.3658
17749TIP3   OH274737   0.743   1.789  13.125  0.1826  0.2487 -0.3643
17749TIP3    H174738   0.688   1.863  13.101 -0.5863 -0.6187 -1.3476
17749TIP3    H274739   0.832   1.820  13.111 -0.1450  0.8575 -1.1772
17750TIP3   OH274740   1.944   2.258  16.322 -0.1809  0.3730  0.4136
17750TIP3    H174741   2.022   2.308  16.342 -0.5080  1.2197 -0.3437
17750TIP3    H274742   1.901   2.243  16.406 -0.0791  1.3688  0.6437
17751TIP3   OH274743   1.199   2.241  16.457 -0.3678 -0.7812  0.3275
17751TIP3    H174744   1.188   2.294  16.378 -2.1957 -1.4261  0.0818
17751TIP3    H274745   1.253   2.167  16.430  1.4809  0.4554  0.4628
17752TIP3   OH274746   4.013   5.263   4.361  0.1855 -0.2006  1.0379
17752TIP3    H174747   3.998   5.336   4.301  0.4009  0.9957  2.3781
17752TIP3    H274748   4.056   5.303   4.437 -0.0113 -1.6710  1.9630
17753TIP3   OH274749   1.319   0.042  15.204 -0.3326 -0.1624  0.1515
17753TIP3    H174750   1.290   0.131  15.185 -0.6431 -0.3264 -0.1434
17753TIP3    H274751   1.391   0.054  15.266  0.1335  0.3249 -0.4704
17754TIP3   OH274752   0.481   5.240   2.223  0.4178  0.6254  0.4088
17754TIP3    H174753   0.408   5.301   2.206 -1.0470 -0.8523  1.0960
17754TIP3    H274754   0.442   5.153   2.215  2.3834 -0.2406 -0.1993
17755TIP3   OH274755   6.650   5.349  15.373  0.2991  0.1175  0.8368
17755TIP3    H174756   6.683   5.298  15.299  0.6525  3.3438 -1.4333
17755TIP3    H274757   6.591   5.413  15.334 -1.8300  0.1464  3.7802
17756TIP3   OH274758   3.357   4.669   4.436 -0.0415  0.5867  0.0178
17756TIP3    H174759   3.298   4.739   4.407 -0.1244  0.2726 -0.5869
17756TIP3    H274760   3.369   4.686   4.529 -0.9215  0.7799  0.1101
17757TIP3   OH274761   1.263   0.875  12.921 -0.4463  0.1705 -0.3975
17757TIP3    H174762   1.319   0.877  12.842 -0.7358  0.0710 -0.6058
17757TIP3    H274763   1.325   0.883  12.993 -0.1650  0.1374 -0.6302
17758TIP3   OH274764   6.393   0.778   2.950  0.2175 -0.3992  0.0575
17758TIP3    H174765   6.483   0.752   2.930  0.5358  0.2800  0.5651
17758TIP3    H274766   6.363   0.822   2.870 -0.1341 -1.7829 -0.5990
17759TIP3   OH274767   6.517   1.446   5.794  0.6636  0.1180 -0.6917
17759TIP3    H174768   6.488   1.415   5.708 -1.2186 -1.0761  0.3031
17759TIP3    H274769   6.558   1.370   5.835 -1.4636 -0.3927  0.6869
17760TIP3   OH274770   5.321   2.958  10.975 -0.2647 -0.4616  0.2263
17760TIP3    H174771   5.303   2.989  11.064 -0.9121 -0.4660  0.1010
17760TIP3    H274772   5.375   3.027  10.936  0.4454 -0.6888  0.7755
17761TIP3   OH274773   4.671   0.446   3.096 -0.6304  0.0064  0.6495
17761TIP3    H174774   4.606   0.393   3.143  1.0543 -2.0475  0.8346
17761TIP3    H274775   4.691   0.518   3.155 -0.7420 -0.8666  1.7850
17762TIP3   OH274776   6.441   6.524  15.197  0.3001 -0.0390  0.0179
17762TIP3    H174777   6.500   6.584  15.150 -2.4364  2.8803  0.0019
17762TIP3    H274778   6.434   6.561  15.285  0.6134 -1.9624  0.8959
17763TIP3   OH274779   1.001   1.782  15.536  0.2825 -0.0921  0.2755
17763TIP3    H174780   0.924   1.799  15.590  0.3811  0.9252  0.1192
17763TIP3    H274781   1.073   1.828  15.580  0.9865 -1.6728  0.8429
17764TIP3   OH274782   5.525   3.864   2.187  0.7762 -0.5276  0.5575
17764TIP3    H174783   5.434   3.885   2.168  1.3662  1.0551 -0.8260
17764TIP3    H274784   5.523   3.823   2.273 -1.2265 -0.5437  0.5521
17765TIP3   OH274785   2.545   4.399  13.807 -0.2242 -1.2464 -0.4492
17765TIP3    H174786   2.486   4.451  13.753  0.1639 -1.1875 -0.8262
17765TIP3    H274787   2.489   4.358  13.872 -0.6048 -0.7698 -0.4728
17766TIP3   OH274788   3.328   3.537  16.025  0.2548  0.7985 -0.6131
17766TIP3    H174789   3.399   3.489  15.981  1.0132  0.3726  0.9932
17766TIP3    H274790   3.372   3.612  16.066  0.3335 -0.7707  2.4768
17767TIP3   OH274791   5.618   6.477  16.097 -0.1331  0.5126  0.3891
17767TIP3    H174792   5.700   6.427  16.103  1.1128  2.4216  0.1842
17767TIP3    H274793   5.590   6.487  16.187  0.3077  0.5374  0.5280
17768TIP3   OH274794   3.516   1.679   3.478  0.9245 -0.0806 -0.0328
17768TIP3    H174795   3.470   1.605   3.517  0.7418 -0.4108 -0.8606
17768TIP3    H274796   3.551   1.645   3.396  0.2711  0.9317 -0.7511
17769TIP3   OH274797   1.064   3.228  14.516  0.2051 -0.3292  0.2556
17769TIP3    H174798   1.105   3.166  14.456  0.3801  0.7835 -0.8160
17769TIP3    H274799   1.128   3.299  14.524 -1.7338  1.8561 -2.0830
17770TIP3   OH274800   5.534   0.520  12.792  0.5217  0.3269  0.2671
17770TIP3    H174801   5.495   0.470  12.863 -1.7932  0.6313 -0.7149
17770TIP3    H274802   5.538   0.459  12.718  0.0343  0.8699 -0.2198
17771TIP3   OH274803   2.445   2.449  11.236  0.1773  0.0999  0.2396
17771TIP3    H174804   2.431   2.354  11.246  1.9468 -0.1327  0.8441
17771TIP3    H274805   2.415   2.486  11.320 -2.6748  0.4228 -0.7937
17772TIP3   OH274806   5.737   6.775  14.351 -0.3839 -0.3570 -0.1185
17772TIP3    H174807   5.772   6.692  14.318  0.4678  0.2287 -0.7214
17772TIP3    H274808   5.685   6.750  14.428  2.2461 -1.1796  1.5456
17773TIP3   OH274809   0.504   0.695  14.436 -0.4466 -0.0297 -0.3659
17773TIP3    H174810   0.534   0.612  14.474  0.7832  0.2217 -0.7575
17773TIP3    H274811   0.521   0.759  14.505 -0.2813  0.0896 -0.5205
17774TIP3   OH274812   5.572   6.166   0.242 -0.1346 -0.4090 -0.6255
17774TIP3    H174813   5.604   6.186   0.330 -1.0099 -0.4980 -0.2671
17774TIP3    H274814   5.476   6.167   0.251 -0.2310 -1.9668 -1.2342
17775TIP3   OH274815   3.914   5.144   1.614  0.7560  0.6872 -0.0848
17775TIP3    H174816   3.844   5.204   1.640 -0.7237 -1.1323  0.3226
17775TIP3    H274817   3.932   5.166   1.523 -2.2327 -0.4617 -1.0707
17776TIP3   OH274818   4.337   3.606  14.130 -0.5789 -0.1673 -1.0630
17776TIP3    H174819   4.303   3.527  14.088 -1.6909  0.4833 -1.4305
17776TIP3    H274820   4.426   3.615  14.095 -0.7133 -0.8339 -1.6033
17777TIP3   OH274821   4.292   4.798   4.115  0.2752  0.1262  0.0371
17777TIP3    H174822   4.267   4.712   4.150  1.7808 -1.5099 -2.5623
17777TIP3    H274823   4.382   4.811   4.147  0.0616  0.7454  0.3970
17778TIP3   OH274824   1.081   0.768  12.316 -0.3373 -0.2543 -0.6702
17778TIP3    H174825   1.078   0.749  12.410 -0.3239  0.3995 -0.5339
17778TIP3    H274826   1.055   0.860  12.309  1.6749  0.3112 -1.1235
17779TIP3   OH274827   6.397   6.608  16.257  0.2549 -0.1769 -0.7182
17779TIP3    H174828   6.433   6.654  16.181  1.4332  1.2631  0.6334
17779TIP3    H274829   6.472   6.596  16.316 -1.0491  1.2847  1.4117
17780TIP3   OH274830   0.267   5.339  12.708  0.1067  0.0904 -0.3365
17780TIP3    H174831   0.214   5.418  12.702  0.3523  0.1755 -1.7515
17780TIP3    H274832   0.210   5.274  12.749 -0.9208  0.3326 -1.3414
17781TIP3   OH274833   1.377   6.152   4.028  0.2210 -0.1992 -0.2894
17781TIP3    H174834   1.360   6.093   3.954  0.7390  0.3540 -0.8637
17781TIP3    H274835   1.420   6.097   4.093  1.1932 -0.3509 -1.0362
17782TIP3   OH274836   3.397   2.547   5.657 -0.7997  0.0488  0.1141
17782TIP3    H174837   3.366   2.518   5.571  1.8983  0.8004 -1.2308
17782TIP3    H274838   3.414   2.641   5.646  2.8999 -0.4410  0.2062
17783TIP3   OH274839   2.373   6.722   4.951 -0.3544 -0.0021 -0.1699
17783TIP3    H174840   2.318   6.777   5.007  0.2965 -0.7217  1.2214
17783TIP3    H274841   2.457   6.768   4.947  0.9237 -1.8214  2.7839
17784TIP3   OH274842   5.547   5.783  17.119 -0.1240  0.1507 -0.6260
17784TIP3    H174843   5.561   5.876  17.141 -0.5438  0.4631 -1.6080
17784TIP3    H274844   5.577   5.735  17.195  0.4892  1.0872 -0.2681
17785TIP3   OH274845   4.328   5.494   4.816  0.2219 -0.0519 -0.1260
17785TIP3    H174846   4.305   5.505   4.908 -0.6505 -0.1463 -0.3236
17785TIP3    H274847   4.379   5.572   4.794  0.4761 -0.0531  0.4420
17786TIP3   OH274848   0.254   0.328   3.663 -0.1374 -0.4319 -0.2753
17786TIP3    H174849   0.231   0.380   3.586  3.1167  0.3007 -0.8789
17786TIP3    H274850   0.267   0.240   3.628  0.1859 -0.3513 -0.3625
17787TIP3   OH274851   4.708   4.019  12.404  0.8594 -0.2279  0.2601
17787TIP3    H174852   4.671   4.107  12.393 -0.8497 -1.0705 -1.2905
17787TIP3    H274853   4.643   3.972  12.457 -0.2815 -1.6379 -2.2255
17788TIP3   OH274854   2.336   0.439  15.314 -0.0576  0.7717  0.1330
17788TIP3    H174855   2.301   0.378  15.250 -0.5993  1.6879 -0.4746
17788TIP3    H274856   2.431   0.424  15.312 -0.1779  0.0383 -0.0868
17789TIP3   OH274857   1.011   6.067   3.162  0.1674 -0.0072 -0.3028
17789TIP3    H174858   1.033   6.002   3.228  2.1372  1.1466  0.2778
17789TIP3    H274859   0.915   6.063   3.154  0.1093 -1.7868  0.8912
17790TIP3   OH274860   5.183   3.632   5.048  0.1783  0.1783 -0.2648
17790TIP3    H174861   5.239   3.616   5.124 -0.2484  0.8013  0.1979
17790TIP3    H274862   5.167   3.546   5.010 -0.9547 -0.3444  1.3248
17791TIP3   OH274863   4.138   2.847   0.456 -0.1795  0.2540  0.4163
17791TIP3    H174864   4.060   2.858   0.401  0.0236 -0.4597 -0.0340
17791TIP3    H274865   4.212   2.859   0.396  0.0470 -0.9907  0.4008
17792TIP3   OH274866   3.568   4.711   2.586  0.1668 -0.3382 -0.9915
17792TIP3    H174867   3.587   4.669   2.502  1.8822 -2.3021  0.2629
17792TIP3    H274868   3.564   4.638   2.648  0.8565  1.1884  0.9424
17793TIP3   OH274869   5.413   2.423  15.308 -0.2040 -0.1400  0.5890
17793TIP3    H174870   5.477   2.472  15.257  0.5874 -2.1837 -0.4966
17793TIP3    H274871   5.434   2.443  15.399  1.3321  0.0019  0.2273
17794TIP3   OH274872   6.259   4.715  13.972  0.0303 -0.5963  0.5004
17794TIP3    H174873   6.279   4.664  13.893  0.4398 -0.5078  0.5444
17794TIP3    H274874   6.307   4.797  13.960 -0.2686 -0.4029  0.6351
17795TIP3   OH274875   5.464   4.491   0.578  0.5435  0.1475  0.2779
17795TIP3    H174876   5.481   4.497   0.484 -0.3605 -0.2394  0.0767
17795TIP3    H274877   5.458   4.397   0.596  2.4880  0.1310  1.0773
17796TIP3   OH274878   4.457   2.145   3.607 -0.4354  0.3124  0.0969
17796TIP3    H174879   4.427   2.206   3.540 -0.4026  1.0596  0.7330
17796TIP3    H274880   4.480   2.066   3.560 -1.5378  0.4013 -0.6375
17797TIP3   OH274881   0.767   3.505  16.974  0.0947 -0.1110  0.0747
17797TIP3    H174882   0.680   3.532  16.943 -0.4209 -0.9502  0.7471
17797TIP3    H274883   0.749   3.451  17.051  1.2541  0.3992  0.7360
17798TIP3   OH274884   1.040   1.569  15.368  0.2358  0.1648 -0.0844
17798TIP3    H174885   0.993   1.620  15.434 -1.2905 -0.8192 -0.3559
17798TIP3    H274886   1.132   1.573  15.395 -0.2555  0.4118  1.6723
17799TIP3   OH274887   3.204   2.162   5.947 -0.0406 -0.1230  0.9931
17799TIP3    H174888   3.266   2.180   5.876  0.7532 -1.3298  1.3547
17799TIP3    H274889   3.180   2.249   5.981  0.6297  0.4015  0.1594
17800TIP3   OH274890   0.170   3.136   0.441  0.9064  0.4581  0.1306
17800TIP3    H174891   0.254   3.144   0.397  0.4514  0.7367 -0.7276
17800TIP3    H274892   0.107   3.172   0.378 -0.1744 -1.9324 -0.3059
17801TIP3   OH274893   2.828   2.333  17.095 -0.4864  0.4970  0.4061
17801TIP3    H174894   2.839   2.390  17.019 -0.7076 -0.6007 -0.4701
17801TIP3    H274895   2.820   2.245  17.059  0.9686 -0.2618  1.7822
17802TIP3   OH274896   5.654   2.533  13.942  0.2285 -0.4905 -0.2698
17802TIP3    H174897   5.599   2.501  13.871 -0.0205 -0.7392  0.0283
17802TIP3    H274898   5.711   2.459  13.963  0.5996 -0.2710 -0.5032
17803TIP3   OH274899   3.894   6.140   5.987  0.5279  0.1801 -0.2183
17803TIP3    H174900   3.880   6.102   6.074  0.4827  0.2583 -0.1917
17803TIP3    H274901   3.831   6.094   5.931  0.2092  0.4763 -0.1126
17804TIP3   OH274902   2.960   3.817  15.356  0.1777  0.3218 -0.4445
17804TIP3    H174903   2.925   3.873  15.287  1.0512 -0.2484 -1.3860
17804TIP3    H274904   2.956   3.729  15.318  0.0402 -0.0881  0.5033
17805TIP3   OH274905   0.926   6.613  16.367  0.4633  0.3586 -0.4518
17805TIP3    H174906   0.870   6.556  16.314 -1.8558  0.0337  2.1164
17805TIP3    H274907   1.015   6.594  16.337 -0.5832 -0.9503 -3.0306
17806TIP3   OH274908   1.070   2.145   1.597  0.2397 -0.6561  0.2030
17806TIP3    H174909   1.012   2.069   1.589  0.6398 -0.9281 -0.1685
17806TIP3    H274910   1.149   2.119   1.550  1.5604 -1.1741  2.5467
17807TIP3   OH274911   5.977   0.990   0.848 -0.1930 -0.0147  0.4647
17807TIP3    H174912   6.061   1.019   0.814  0.6905 -0.8431  1.8460
17807TIP3    H274913   5.990   0.982   0.943 -1.6078 -0.8577  0.6272
17808TIP3   OH274914   0.374   0.787  16.487  0.1245  0.1379 -0.1856
17808TIP3    H174915   0.458   0.744  16.499  0.4267  0.2872 -1.5822
17808TIP3    H274916   0.349   0.817  16.575  1.7290  0.4752  0.1852
17809TIP3   OH274917   1.901   1.363  13.816 -0.1711 -0.3018 -0.3210
17809TIP3    H174918   1.967   1.411  13.865 -1.2670 -0.7015  1.6420
17809TIP3    H274919   1.837   1.429  13.789 -0.3338 -0.2772  0.1160
17810TIP3   OH274920   4.729   0.084  10.711 -0.1089  0.0188 -0.1629
17810TIP3    H174921   4.718   0.175  10.738 -0.6296 -0.3878  1.0510
17810TIP3    H274922   4.725   0.087  10.615 -2.3201  0.9976 -0.0920
17811TIP3   OH274923   3.181   1.912   3.318  0.5860 -0.0368 -0.4709
17811TIP3    H174924   3.274   1.930   3.301  0.2598  0.6196 -1.6490
17811TIP3    H274925   3.182   1.833   3.371  1.9317  1.3812  1.8175
17812TIP3   OH274926   4.812   5.060  13.865  0.0073  0.0172 -0.2012
17812TIP3    H174927   4.799   5.107  13.947  3.9047  1.4890 -0.2061
17812TIP3    H274928   4.744   5.093  13.806 -0.5141  1.8307  1.3338
17813TIP3   OH274929   4.722   2.450  15.283  0.7751 -0.0212 -0.4334
17813TIP3    H174930   4.731   2.542  15.260  0.3377 -0.2710 -1.6742
17813TIP3    H274931   4.800   2.409  15.246  0.3579 -0.3349 -0.9845
17814TIP3   OH274932   5.056   6.409   0.181  0.1607  0.5996  0.1310
17814TIP3    H174933   4.977   6.358   0.164 -0.2817  0.7014  1.7536
17814TIP3    H274934   5.046   6.440   0.271  1.5917  1.4455  0.0264
17815TIP3   OH274935   4.831   1.187   0.307 -0.0503  0.5256 -0.0635
17815TIP3    H174936   4.773   1.211   0.234  0.9188  0.9415 -0.7251
17815TIP3    H274937   4.778   1.199   0.385 -1.7715 -1.8212 -0.7560
17816TIP3   OH274938   4.057   1.555  12.887  0.5984 -0.2002  0.0113
17816TIP3    H174939   3.970   1.594  12.874 -0.3654 -1.4594  2.1182
17816TIP3    H274940   4.041   1.480  12.945  2.8305 -1.7007 -1.1480
17817TIP3   OH274941   0.551   1.792   3.506 -0.1618 -0.3451 -0.0627
17817TIP3    H174942   0.466   1.800   3.463 -0.1439 -0.5338 -0.1362
17817TIP3    H274943   0.614   1.808   3.436 -0.1378  1.8231  0.4042
17818TIP3   OH274944   1.947   4.083   4.896 -0.3817  0.2435  0.2782
17818TIP3    H174945   1.884   4.012   4.894 -0.0007 -0.1350  1.1447
17818TIP3    H274946   2.028   4.043   4.929  0.3626  0.6862 -0.9084
17819TIP3   OH274947   5.726   0.997  11.788 -0.3005 -0.0158  0.1711
17819TIP3    H174948   5.632   1.013  11.778 -0.2058 -0.1424 -1.1427
17819TIP3    H274949   5.767   1.075  11.749  0.1384 -0.1441  0.3726
17820TIP3   OH274950   5.844   3.211   2.500 -0.6906 -0.2070  0.0520
17820TIP3    H174951   5.754   3.185   2.482 -0.7110  0.4262 -0.8195
17820TIP3    H274952   5.844   3.239   2.592 -1.3552 -0.2981  0.0793
17821TIP3   OH274953   2.887   0.486  15.392 -0.2893 -0.2018  0.1121
17821TIP3    H174954   2.833   0.551  15.437  0.5405  0.0567  0.7581
17821TIP3    H274955   2.941   0.537  15.332 -0.9590 -0.4901 -0.7668
17822TIP3   OH274956   0.111   2.867  10.685 -0.2419 -0.1712 -0.1981
17822TIP3    H174957   0.050   2.814  10.736  0.0067 -0.1559  0.1198
17822TIP3    H274958   0.064   2.888  10.605 -1.3619  1.3572  0.8070
17823TIP3   OH274959   4.894   3.795   5.631 -0.2286  0.1984 -0.3836
17823TIP3    H174960   4.949   3.869   5.606  1.9919 -1.4018 -0.5479
17823TIP3    H274961   4.903   3.788   5.726 -0.3048  0.0638 -0.3854
17824TIP3   OH274962   6.029   3.588   1.282  0.0644 -0.4587  0.2603
17824TIP3    H174963   6.095   3.610   1.217  0.7426  0.9467  1.3723
17824TIP3    H274964   6.050   3.499   1.309  0.3110 -0.7295 -0.7562
17825TIP3   OH274965   1.531   2.125  13.514  0.0651  0.0846  0.1902
17825TIP3    H174966   1.618   2.092  13.536  0.4184  0.3944 -0.7130
17825TIP3    H274967   1.511   2.086  13.429  0.8425  2.7239 -1.3218
17826TIP3   OH274968   6.080   5.062  12.514  0.7128 -0.1155  0.4671
17826TIP3    H174969   6.041   5.003  12.579 -0.6035 -0.6538 -0.7443
17826TIP3    H274970   6.042   5.147  12.535 -0.3026 -0.4308 -0.0332
17827TIP3   OH274971   4.614   5.887  14.338 -0.3498 -0.0541 -0.3710
17827TIP3    H174972   4.682   5.952  14.357  0.4114 -0.1722 -2.4860
17827TIP3    H274973   4.572   5.918  14.258 -2.4917 -0.2714  0.5827
17828TIP3   OH274974   3.890   4.066   4.626 -0.4312  0.0681  0.0245
17828TIP3    H174975   3.795   4.072   4.626 -0.7067 -2.7240 -1.4049
17828TIP3    H274976   3.909   4.006   4.698  0.2098  0.1928 -0.0371
17829TIP3   OH274977   0.853   5.057   3.212  0.1322 -0.3639  0.3688
17829TIP3    H174978   0.792   5.071   3.139  0.9016 -0.7307 -0.3633
17829TIP3    H274979   0.927   5.009   3.173 -0.3002 -2.3096  1.7856
17830TIP3   OH274980   0.447   3.442  13.457  0.0161  0.2381  0.5728
17830TIP3    H174981   0.359   3.420  13.426  0.3191 -0.9970  0.5283
17830TIP3    H274982   0.491   3.480  13.381  0.3539 -1.6328 -0.2373
17831TIP3   OH274983   1.696   0.210   2.219  0.3931 -0.2167 -0.1310
17831TIP3    H174984   1.630   0.279   2.226 -0.1374 -0.7944  0.7699
17831TIP3    H274985   1.701   0.172   2.306  1.3556 -0.7091 -0.3825
17832TIP3   OH274986   5.333   3.458   3.736  0.1836  0.3022 -0.0843
17832TIP3    H174987   5.357   3.541   3.778 -0.3896 -0.1724  1.2428
17832TIP3    H274988   5.244   3.441   3.767  0.7027 -1.3593  0.6102
17833TIP3   OH274989   6.795   3.072   3.579  0.6525  0.1738 -0.5761
17833TIP3    H174990   6.746   3.121   3.645 -2.5692  0.2262 -2.7712
17833TIP3    H274991   6.853   3.137   3.539 -1.2906  1.5664 -1.3243
17834TIP3   OH274992   4.217   0.046  16.161  0.5644 -0.4532 -0.0955
17834TIP3    H174993   4.190   0.136  16.145 -0.1603 -0.2735  1.9374
17834TIP3    H274994   4.309   0.043  16.133  0.2875  0.5861 -1.2064
17835TIP3   OH274995   2.974   5.962  11.823  0.5418 -0.1237  0.1607
17835TIP3    H174996   3.010   5.988  11.738 -0.4994  0.1083 -0.2261
17835TIP3    H274997   2.930   6.041  11.855 -1.2195 -0.8877 -0.2556
17836TIP3   OH274998   6.161   6.395   1.054 -0.3631 -0.8489  0.1577
17836TIP3    H174999   6.106   6.335   1.104 -0.1989  0.4103  1.9613
17836TIP3    H275000   6.103   6.468   1.032  0.0843 -0.3965  0.4274
17837TIP3   OH275001   2.952   6.249   5.142  0.1270  0.1391 -0.1176
17837TIP3    H175002   2.994   6.244   5.228 -0.3565 -0.9678  0.0784
17837TIP3    H275003   3.024   6.246   5.080  0.3962 -2.2728  0.1980
17838TIP3   OH275004   1.077   6.341  13.065  0.3538  0.1419 -0.1260
17838TIP3    H175005   1.066   6.272  13.130 -0.7588  0.8809  0.5015
17838TIP3    H275006   1.166   6.330  13.033 -0.1259 -2.2768 -0.8442
17839TIP3   OH275007   5.449   6.803   6.398  0.4372 -0.1696  0.0692
17839TIP3    H175008   5.371   6.776   6.350  1.3488  0.4228 -1.8164
17839TIP3    H275009   5.473   6.726   6.450  0.4845 -1.5101 -1.8605
17840TIP3   OH275010   4.159   6.277   4.210  0.4152 -0.0677  0.3253
17840TIP3    H175011   4.120   6.190   4.220  0.7036 -0.3113 -0.5994
17840TIP3    H275012   4.084   6.336   4.201  0.2224 -0.4995 -1.1651
17841TIP3   OH275013   6.492   4.219   1.077 -0.6061 -0.2074  0.1270
17841TIP3    H175014   6.514   4.127   1.092  2.7690  0.3897 -0.3337
17841TIP3    H275015   6.465   4.252   1.162  0.9386 -1.0088  0.9633
17842TIP3   OH275016   3.181   4.961   3.799  0.1983 -0.2830  0.2925
17842TIP3    H175017   3.192   4.871   3.771  4.2010 -0.6425  2.3234
17842TIP3    H275018   3.136   4.955   3.883  1.7750 -0.5643  1.1354
17843TIP3   OH275019   3.634   2.894   2.473  0.1672 -0.0857  0.1577
17843TIP3    H175020   3.659   2.820   2.529 -0.7956 -0.1947  0.4516
17843TIP3    H275021   3.538   2.896   2.476  0.2034  1.7638  0.9000
17844TIP3   OH275022   2.251   3.314  15.183 -0.5283 -0.1445  0.2604
17844TIP3    H175023   2.245   3.410  15.183  1.3477  0.0272 -0.6453
17844TIP3    H275024   2.259   3.290  15.275  0.2633  0.6984  0.4281
17845TIP3   OH275025   4.185   1.791   0.034  0.4208 -0.2096  0.8881
17845TIP3    H175026   4.201   1.876   0.076  1.0750  1.2780 -2.0929
17845TIP3    H275027   4.093   1.793   0.010  0.6770  0.1596 -0.1169
17846TIP3   OH275028   4.074   4.964  12.546 -0.1388  0.3808 -0.3096
17846TIP3    H175029   4.031   4.977  12.631  0.6336  2.3478 -0.1655
17846TIP3    H275030   4.008   4.920  12.493 -0.9094 -0.2161  1.0654
17847TIP3   OH275031   1.173   4.195  15.460  0.0716  0.3101  0.7239
17847TIP3    H175032   1.152   4.105  15.485  1.5358  0.3512  2.2646
17847TIP3    H275033   1.252   4.187  15.406  0.5627  0.6887  1.3660
17848TIP3   OH275034   2.358   6.505  13.375  0.0125  0.1360 -0.3830
17848TIP3    H175035   2.450   6.496  13.397 -0.2278 -1.7869 -0.0035
17848TIP3    H275036   2.313   6.439  13.428 -1.8483  2.2437  0.8430
17849TIP3   OH275037   0.084   4.679  11.395  0.1479  0.1745 -0.3558
17849TIP3    H175038   0.054   4.756  11.346 -0.7246  0.2303  0.2394
17849TIP3    H275039   0.083   4.608  11.330  0.2444  0.5103 -0.7294
17850TIP3   OH275040   4.153   2.350  11.735  0.0927 -0.4477  0.2541
17850TIP3    H175041   4.145   2.339  11.640  0.6874 -1.1829  0.2856
17850TIP3    H275042   4.065   2.374  11.763  0.1447  0.9365 -0.6214
17851TIP3   OH275043   3.796   3.864  11.887  0.2198  0.7464 -0.3571
17851TIP3    H175044   3.720   3.885  11.833  0.6424  2.1282 -0.4683
17851TIP3    H275045   3.829   3.949  11.916  0.6493  0.0821  1.1939
17852TIP3   OH275046   3.840   4.039  11.475 -0.3051 -0.3141  0.5907
17852TIP3    H175047   3.916   4.026  11.419 -0.2863  1.0396  0.2712
17852TIP3    H275048   3.773   4.076  11.417 -0.3228  1.0022  1.4067
17853TIP3   OH275049   6.307   6.560   4.894  0.2103  0.6306 -0.4796
17853TIP3    H175050   6.371   6.573   4.964  0.2648  1.3226 -0.6564
17853TIP3    H275051   6.360   6.550   4.815  0.1768 -0.7401 -0.3578
17854TIP3   OH275052   1.335   5.904  11.811 -0.6857  0.1369 -0.0355
17854TIP3    H175053   1.372   5.818  11.834 -1.1886  0.3496  1.7527
17854TIP3    H275054   1.241   5.889  11.808 -0.8423  0.7749  1.1269
17855TIP3   OH275055   0.039   2.111   4.241  0.0258  0.2967  0.1763
17855TIP3    H175056   0.021   2.042   4.305  0.8449  1.0179  1.2157
17855TIP3    H275057   0.021   2.193   4.289  0.9135  0.8539 -0.4257
17856TIP3   OH275058   6.680   5.907   3.873 -0.7825 -0.6333  0.4300
17856TIP3    H175059   6.724   5.846   3.813 -0.9556 -0.1343 -0.2099
17856TIP3    H275060   6.666   5.856   3.953  0.8522 -0.8584  0.6205
17857TIP3   OH275061   5.112   2.874   0.063 -0.2492  0.1636 -0.5035
17857TIP3    H175062   5.140   2.854   0.152 -2.9471 -2.5171 -0.1396
17857TIP3    H275063   5.184   2.842   0.008  0.2758 -0.6031  0.5954
17858TIP3   OH275064   3.171   4.515   3.136 -0.3001  0.3381  0.3478
17858TIP3    H175065   3.108   4.464   3.186 -1.0002 -0.4542 -1.2797
17858TIP3    H275066   3.256   4.492   3.173 -0.7157 -0.9935  0.5045
17859TIP3   OH275067   4.097   2.622   6.461 -0.0151 -0.2221  0.6822
17859TIP3    H175068   4.085   2.716   6.469  1.7670  0.4844 -2.8157
17859TIP3    H275069   4.185   2.606   6.496  0.2136 -0.3303  0.0692
17860TIP3   OH275070   0.984   6.484  11.240  0.1447 -0.1964 -0.0814
17860TIP3    H175071   0.975   6.495  11.145  1.7498 -0.8598 -0.3381
17860TIP3    H275072   1.056   6.542  11.264  0.3534 -0.7232  0.5825
17861TIP3   OH275073   6.388   1.532   0.368  0.1307 -0.0584 -0.3454
17861TIP3    H175074   6.400   1.536   0.273  1.8139 -1.4380 -0.2564
17861TIP3    H275075   6.399   1.439   0.389  1.1682  0.3987  1.3285
17862TIP3   OH275076   2.397   1.878  16.076  0.3620 -0.1465  0.1357
17862TIP3    H175077   2.399   1.947  16.010 -1.4458 -0.8064 -0.6693
17862TIP3    H275078   2.482   1.885  16.121  2.6118 -0.8987 -3.5352
17863TIP3   OH275079   0.497   1.527  14.063 -0.2447 -0.2820  0.2611
17863TIP3    H175080   0.403   1.537  14.079 -0.1133  1.2494  0.2950
17863TIP3    H275081   0.525   1.615  14.038  2.0197  0.6508  4.8738
17864TIP3   OH275082   4.379   5.047  15.211 -0.2737 -0.4367  0.2555
17864TIP3    H175083   4.383   5.017  15.120  0.7791 -1.7079  0.6799
17864TIP3    H275084   4.290   5.026  15.239 -1.5571  2.4770 -1.2258
17865TIP3   OH275085   2.222   1.689  16.791  0.4416  0.3584 -0.0779
17865TIP3    H175086   2.208   1.783  16.798 -0.8942  0.3196 -1.6586
17865TIP3    H275087   2.316   1.678  16.806  0.1994  1.5292  3.2750
17866TIP3   OH275088   0.501   5.636  11.043 -0.1364 -0.0634  0.7249
17866TIP3    H175089   0.415   5.602  11.065 -1.1707  1.8687 -0.0499
17866TIP3    H275090   0.496   5.730  11.063  1.1234  0.4748 -1.1275
17867TIP3   OH275091   2.038   6.687  14.875 -0.0651  0.1363  0.5416
17867TIP3    H175092   2.009   6.602  14.842  2.1275 -0.8465  0.9877
17867TIP3    H275093   2.063   6.670  14.966  1.4024  0.9779  0.3274
17868TIP3   OH275094   6.387   1.929   2.420  0.0194 -0.3606  0.0285
17868TIP3    H175095   6.360   1.838   2.407  1.1441 -0.6100 -0.7009
17868TIP3    H275096   6.426   1.931   2.507  0.8552 -0.8119 -0.3228
17869TIP3   OH275097   4.526   6.044  16.638 -0.1689  0.1344  0.2630
17869TIP3    H175098   4.470   5.966  16.632 -0.8329  0.4225  2.0350
17869TIP3    H275099   4.536   6.073  16.548 -3.3977  0.3904 -0.1473
17870TIP3   OH275100   5.179   5.243   5.607  0.6428  0.1582  0.4252
17870TIP3    H175101   5.134   5.275   5.685  0.4569  2.3597 -0.5164
17870TIP3    H275102   5.272   5.245   5.630  0.7287  2.4852  0.0914
17871TIP3   OH275103   3.420   0.518  11.945 -0.0087 -0.3998 -0.1747
17871TIP3    H175104   3.362   0.505  11.869 -0.0771 -0.7814 -0.0589
17871TIP3    H275105   3.507   0.502  11.910 -0.1490 -2.0019  0.1419
17872TIP3   OH275106   0.078   4.449   2.982 -0.1786  0.1670  0.4956
17872TIP3    H175107   0.031   4.413   2.907  0.2687  0.3601  0.1285
17872TIP3    H275108   0.086   4.375   3.042 -0.8489  0.1006  0.5112
17873TIP3   OH275109   0.550   2.800  14.688 -0.2610  0.0649 -0.0242
17873TIP3    H175110   0.597   2.778  14.769  3.1180  0.7260 -1.6069
17873TIP3    H275111   0.545   2.718  14.640  2.0170  0.4408 -1.0457
17874TIP3   OH275112   2.602   2.785   3.684  0.2490 -0.3282 -0.1152
17874TIP3    H175113   2.591   2.739   3.600 -1.9845 -0.8383  0.3994
17874TIP3    H275114   2.681   2.745   3.722 -0.3489 -2.1915 -0.7008
17875TIP3   OH275115   4.567   4.194   4.500 -0.3632 -0.5344 -0.2136
17875TIP3    H175116   4.584   4.243   4.420  0.6807 -0.0389  0.2925
17875TIP3    H275117   4.622   4.117   4.493  2.9370  1.4147  1.7485
17876TIP3   OH275118   5.176   5.008  14.446 -0.2180 -0.1232  0.2653
17876TIP3    H175119   5.217   5.072  14.503  1.6451 -1.3945  0.4516
17876TIP3    H275120   5.131   5.059  14.379  0.2273  1.3488  1.0648
17877TIP3   OH275121   6.283   0.617   1.866 -0.3318  0.1969 -0.8179
17877TIP3    H175122   6.310   0.707   1.846 -1.2058  0.2677 -1.7623
17877TIP3    H275123   6.299   0.569   1.785  1.1541 -0.7600  0.0166
17878TIP3   OH275124   6.185   4.903  16.554 -0.3102  0.5010  0.2017
17878TIP3    H175125   6.097   4.883  16.586  0.7585 -1.6752  2.0550
17878TIP3    H275126   6.241   4.899  16.632  1.8863 -1.3284 -1.3337
17879TIP3   OH275127   6.308   5.169  14.376  0.1581 -0.6718  0.2970
17879TIP3    H175128   6.307   5.222  14.456  1.2062 -0.0945 -0.0503
17879TIP3    H275129   6.263   5.088  14.401  0.4660 -0.5088  1.4688
17880TIP3   OH275130   6.374   2.835   1.763 -0.1025  0.6510 -0.1053
17880TIP3    H175131   6.384   2.764   1.827  0.1800  0.8594  0.0844
17880TIP3    H275132   6.424   2.908   1.800 -0.1535  0.8571 -0.4381
17881TIP3   OH275133   6.593   4.911   2.622 -0.3919  0.4375 -0.1610
17881TIP3    H175134   6.673   4.860   2.632 -0.9243 -0.4130 -0.1733
17881TIP3    H275135   6.565   4.894   2.532  0.1224  1.7963 -0.6010
17882TIP3   OH275136   3.844   3.557   2.517 -0.2142 -0.3740 -0.9679
17882TIP3    H175137   3.806   3.480   2.476 -0.0989 -0.1128 -1.5822
17882TIP3    H275138   3.807   3.559   2.605 -1.7157 -0.0465 -1.5928
17883TIP3   OH275139   4.948   6.094   4.539 -0.2001  0.0644 -0.0046
17883TIP3    H175140   4.857   6.123   4.529 -0.2232  0.0956  0.2971
17883TIP3    H275141   4.972   6.122   4.627  0.2233  0.3939 -0.2216
17884TIP3   OH275142   2.650   4.021   4.372  0.3196  0.1159  0.2598
17884TIP3    H175143   2.719   4.040   4.309  0.6205 -2.0265 -0.1428
17884TIP3    H275144   2.692   4.032   4.457  0.7042  0.3709  0.0427
17885TIP3   OH275145   6.418   2.974  15.597  0.4085  0.3233  0.1361
17885TIP3    H175146   6.450   3.064  15.592 -0.6650  0.6986 -0.2734
17885TIP3    H275147   6.420   2.953  15.690  1.3047  0.5243  0.1715
17886TIP3   OH275148   0.572   2.399  15.319 -0.1829  0.5224 -0.5952
17886TIP3    H175149   0.562   2.323  15.377 -0.1837 -0.8433 -2.2781
17886TIP3    H275150   0.555   2.475  15.375  0.7701 -0.6527  1.3851
17887TIP3   OH275151   5.113   6.227   0.890  0.5048  0.2332 -0.7343
17887TIP3    H175152   5.069   6.254   0.971  0.0382 -2.3034 -0.0816
17887TIP3    H275153   5.206   6.228   0.912  0.5637  1.7098 -0.9068
17888TIP3   OH275154   2.768   1.008  11.399 -0.4389  0.7310  0.0207
17888TIP3    H175155   2.726   1.063  11.333 -0.0044 -0.5564 -1.3839
17888TIP3    H275156   2.851   0.983  11.360 -0.6902 -1.0326  0.5370
17889TIP3   OH275157   0.434   0.293   6.583 -0.4526 -0.0201  0.0435
17889TIP3    H175158   0.498   0.291   6.512 -0.0424  1.3907  0.3493
17889TIP3    H275159   0.350   0.301   6.539 -0.3000 -0.3527 -0.3175
17890TIP3   OH275160   5.042   5.539   6.652  0.2893 -0.0287 -0.8201
17890TIP3    H175161   4.973   5.489   6.607 -0.3038  0.0285  0.0068
17890TIP3    H275162   5.079   5.479   6.716  1.0845 -0.0829 -1.3136
17891TIP3   OH275163   4.404   6.819   3.827  0.3039 -0.3931  0.1310
17891TIP3    H175164   4.471   6.825   3.759  0.7650 -1.0632  0.5104
17891TIP3    H275165   4.342   6.755   3.794  0.5595 -0.7642  0.3496
17892TIP3   OH275166   0.371   5.460  12.148 -0.2735  0.4307  0.4058
17892TIP3    H175167   0.284   5.437  12.182 -1.1525  1.7556 -0.8348
17892TIP3    H275168   0.396   5.538  12.196  0.4499 -0.1979  1.0703
17893TIP3   OH275169   4.689   2.651   1.639 -0.0882  0.4255 -0.3233
17893TIP3    H175170   4.648   2.583   1.693 -1.0351  0.4885 -0.9460
17893TIP3    H275171   4.663   2.733   1.681 -0.6915  0.4691 -0.7759
17894TIP3   OH275172   0.742   4.983  13.203 -0.2154 -0.1172 -0.3479
17894TIP3    H175173   0.773   4.922  13.269  0.7769 -0.1458 -0.8247
17894TIP3    H275174   0.795   4.964  13.125 -0.4510  0.7968 -0.7488
17895TIP3   OH275175   0.469   5.922   2.476  0.1508  0.0972 -0.2690
17895TIP3    H175176   0.412   5.971   2.536 -1.4339 -0.9814 -0.8216
17895TIP3    H275177   0.430   5.835   2.473  0.7976 -0.1632 -2.0589
17896TIP3   OH275178   4.016   1.750  11.394  0.4270 -0.0875  0.4184
17896TIP3    H175179   3.939   1.765  11.339  0.0669 -1.3129  0.5678
17896TIP3    H275180   4.024   1.655  11.399  0.6675 -0.0063  2.1783
17897TIP3   OH275181   0.137   4.228  15.537  0.4855 -0.3039 -0.7981
17897TIP3    H175182   0.194   4.172  15.484  1.6082  0.5241 -0.5226
17897TIP3    H275183   0.188   4.247  15.616 -0.4392 -0.0587 -0.2470
17898TIP3   OH275184   4.104   6.057  14.315  0.2847 -0.1404  0.2487
17898TIP3    H175185   4.161   6.010  14.254  0.1475  0.5656 -0.4332
17898TIP3    H275186   4.054   5.988  14.358  0.1343 -0.6318 -0.6892
17899TIP3   OH275187   2.187   5.433  13.206 -0.2070 -0.1082  0.1667
17899TIP3    H175188   2.246   5.504  13.231 -1.9336  2.5284 -2.5803
17899TIP3    H275189   2.173   5.445  13.112 -2.3375 -2.7810  0.0103
17900TIP3   OH275190   3.341   3.583  11.530  0.2763  0.1325 -0.1220
17900TIP3    H175191   3.284   3.659  11.515  1.3257  0.7821 -0.9391
17900TIP3    H275192   3.376   3.561  11.443  1.5418 -0.0281  0.4054
17901TIP3   OH275193   5.289   1.320  12.221  0.6463  0.2227 -0.1859
17901TIP3    H175194   5.302   1.252  12.155  1.3320 -0.4077  0.5727
17901TIP3    H275195   5.294   1.274  12.304  1.0659  1.1874  0.3441
17902TIP3   OH275196   3.529   2.963   1.830 -0.0500 -0.2181 -0.1172
17902TIP3    H175197   3.536   2.879   1.875 -1.9670 -0.0713  0.5455
17902TIP3    H275198   3.591   3.020   1.876  1.4153 -1.2570 -0.6988
17903TIP3   OH275199   2.829   1.787  15.579 -0.7493  0.1756 -0.0683
17903TIP3    H175200   2.801   1.847  15.510 -0.8767  1.7122  1.2620
17903TIP3    H275201   2.924   1.778  15.567 -0.7044  0.7872 -0.1906
17904TIP3   OH275202   1.163   0.729   0.998 -0.2138  0.4901 -0.4538
17904TIP3    H175203   1.220   0.786   0.945  0.1549 -0.1845 -0.8053
17904TIP3    H275204   1.077   0.736   0.957 -0.0946  0.5380 -0.6972
17905TIP3   OH275205   0.662   4.176  13.613 -0.5839  0.2144  0.2434
17905TIP3    H175206   0.587   4.218  13.570  0.1992  0.4951 -0.9131
17905TIP3    H275207   0.686   4.236  13.683 -0.9812  0.4894  0.1504
17906TIP3   OH275208   3.350   0.825  10.560 -0.8095  0.0672  0.7117
17906TIP3    H175209   3.377   0.747  10.513  1.4896  0.9882  0.3933
17906TIP3    H275210   3.266   0.801  10.600 -0.6112 -2.2249 -0.1073
17907TIP3   OH275211   0.311   0.661   5.676 -0.1273  0.2904  0.3871
17907TIP3    H175212   0.332   0.581   5.627 -2.9441  0.4221 -1.2308
17907TIP3    H275213   0.275   0.630   5.759  0.1384 -0.0794  0.3683
17908TIP3   OH275214   0.747   5.138  13.594  0.4001  0.4773 -0.7200
17908TIP3    H175215   0.673   5.188  13.627  0.3191  0.5748 -1.0458
17908TIP3    H275216   0.722   5.046  13.606  0.4597  0.5103 -0.3212
17909TIP3   OH275217   4.970   5.860  14.768 -0.2779 -0.0784 -0.4085
17909TIP3    H175218   4.928   5.934  14.813  0.6552  0.6549 -0.6910
17909TIP3    H275219   4.968   5.789  14.831  1.8364  1.1777  1.2275
17910TIP3   OH275220   6.128   0.156   1.799  0.4229 -0.6573  0.0593
17910TIP3    H175221   6.133   0.093   1.871 -0.4185 -1.5483 -0.6338
17910TIP3    H275222   6.036   0.181   1.796  0.6836  0.3357  0.0855
17911TIP3   OH275223   0.358   2.270  13.480 -0.0225 -0.2502 -0.1741
17911TIP3    H175224   0.365   2.321  13.399  1.0032 -0.1094  0.0017
17911TIP3    H275225   0.445   2.235  13.495 -0.4800 -1.2662  0.2417
17912TIP3   OH275226   6.116   6.570  13.813  0.3705 -0.8029  0.0903
17912TIP3    H175227   6.205   6.545  13.786 -0.2059 -2.7572 -0.1886
17912TIP3    H275228   6.112   6.546  13.906 -0.9418 -4.3880 -0.7193
17913TIP3   OH275229   1.957   4.959  16.728  0.0931 -0.7637  0.0585
17913TIP3    H175230   1.906   4.902  16.671  0.1781 -1.4526  0.6634
17913TIP3    H275231   1.919   5.046  16.714  1.7094 -0.4058 -2.9510
17914TIP3   OH275232   0.964   4.727   5.209  0.6421 -0.2807  0.4831
17914TIP3    H175233   1.049   4.688   5.190  1.3855 -0.6979  4.0798
17914TIP3    H275234   0.977   4.821   5.195  0.8056 -0.5669 -1.6196
17915TIP3   OH275235   5.983   2.102   5.437  0.3245 -0.2733 -0.0985
17915TIP3    H175236   5.983   2.197   5.420 -1.2750 -0.1635  0.2647
17915TIP3    H275237   5.904   2.071   5.393  0.2061 -1.2344  0.7637
17916TIP3   OH275238   6.101   3.529  16.521  0.4869 -0.2149 -0.4037
17916TIP3    H175239   6.113   3.577  16.603  0.9762 -0.2804 -0.4330
17916TIP3    H275240   6.045   3.455  16.544 -0.7594  0.6756 -0.4792
17917TIP3   OH275241   1.551   5.203  14.634  0.4343  0.3583  0.2005
17917TIP3    H175242   1.489   5.248  14.693  0.3126  2.0568 -1.1333
17917TIP3    H275243   1.499   5.134  14.594 -0.0802  0.5601  0.5011
17918TIP3   OH275244   4.055   6.286   1.202 -0.4367 -0.0641  0.0644
17918TIP3    H175245   4.095   6.246   1.280  1.3263 -2.1180 -1.7604
17918TIP3    H275246   4.115   6.357   1.179  0.8194 -1.4410 -1.1266
17919TIP3   OH275247   4.931   0.123  11.082 -0.6517  0.6624 -0.1336
17919TIP3    H175248   5.017   0.161  11.101 -1.1433  2.1701 -0.7883
17919TIP3    H275249   4.950   0.050  11.023  0.1276  1.5729 -1.0586
17920TIP3   OH275250   1.198   2.722   5.824  0.2772  0.0253  0.1755
17920TIP3    H175251   1.275   2.680   5.861 -0.0406 -0.1079  0.7063
17920TIP3    H275252   1.173   2.787   5.890  0.8835  1.1956 -0.7347
17921TIP3   OH275253   6.656   3.886  11.457  0.3553 -0.4103 -0.4273
17921TIP3    H175254   6.667   3.835  11.538  1.0936 -0.3056 -0.4551
17921TIP3    H275255   6.590   3.952  11.479  1.3658  0.3491  0.4639
17922TIP3   OH275256   5.607   0.496  11.481 -0.0385  0.0735  0.6215
17922TIP3    H175257   5.542   0.460  11.421 -0.7402  0.7454  0.9699
17922TIP3    H275258   5.595   0.591  11.476 -0.5594  0.1195  2.3198
17923TIP3   OH275259   5.554   1.133   0.182 -0.2210  0.6848 -0.4731
17923TIP3    H175260   5.558   1.192   0.107  0.0404 -3.5850 -4.2347
17923TIP3    H275261   5.637   1.085   0.179 -0.9169 -0.7825  1.5080
17924TIP3   OH275262   5.292   4.433  15.780  0.2574 -0.2042 -0.3368
17924TIP3    H175263   5.243   4.514  15.790  0.3940 -0.1616 -0.0041
17924TIP3    H275264   5.243   4.369  15.832  0.0193 -0.3904 -0.7913
17925TIP3   OH275265   3.019   6.725  16.797 -0.1076  0.0231  0.3309
17925TIP3    H175266   3.031   6.814  16.830 -0.4992  0.4494 -0.6206
17925TIP3    H275267   3.032   6.733  16.702  1.1870 -1.1825  0.3715
17926TIP3   OH275268   4.695   1.744   3.897  0.6578  0.4527  0.1953
17926TIP3    H175269   4.605   1.757   3.867  0.3765 -1.8504 -0.1686
17926TIP3    H275270   4.688   1.730   3.991  0.4333 -1.0801 -0.0298
17927TIP3   OH275271   0.941   4.157   4.109 -0.2430 -0.6169  0.1170
17927TIP3    H175272   0.912   4.068   4.090 -0.7910 -1.5073  4.2770
17927TIP3    H275273   1.036   4.155   4.094 -0.5360 -1.0743 -2.1530
17928TIP3   OH275274   0.763   5.881  15.265  0.5978  0.5605  0.0649
17928TIP3    H175275   0.720   5.881  15.350 -1.4491 -2.7170 -0.7808
17928TIP3    H275276   0.747   5.969  15.230 -0.1837  1.3491  2.2427
17929TIP3   OH275277   3.252   1.550   2.638 -0.0999 -0.0551  0.0770
17929TIP3    H175278   3.275   1.458   2.652 -0.9124 -0.0459  1.6317
17929TIP3    H275279   3.164   1.547   2.601 -0.3366  0.1144  0.6259
17930TIP3   OH275280   4.749   5.542   2.652 -0.0811 -0.7518 -0.3103
17930TIP3    H175281   4.747   5.602   2.727  1.5513 -0.8024 -0.1786
17930TIP3    H275282   4.755   5.455   2.691 -2.9185 -1.1107 -0.4957
17931TIP3   OH275283   6.582   6.405  15.709 -0.0127  0.5370  0.1073
17931TIP3    H175284   6.508   6.374  15.760 -0.1023  0.6702  0.0582
17931TIP3    H275285   6.634   6.458  15.769 -0.2153  0.8464  0.0121
17932TIP3   OH275286   2.405   6.393   4.966 -0.2539  0.0358 -0.2383
17932TIP3    H175287   2.425   6.457   4.898 -1.3740  1.3489  0.6142
17932TIP3    H275288   2.382   6.313   4.917 -0.2001  0.6836 -1.3608
17933TIP3   OH275289   5.954   4.120   4.484 -0.0901 -0.0803  0.2748
17933TIP3    H175290   5.922   4.194   4.432 -2.2734 -0.0489  1.5219
17933TIP3    H275291   6.013   4.073   4.425 -1.2288  0.8026 -1.6896
17934TIP3   OH275292   1.354   2.424   5.493 -0.4334  0.0396  0.1186
17934TIP3    H175293   1.374   2.384   5.408  0.4348 -1.0531  0.8249
17934TIP3    H275294   1.439   2.450   5.528 -0.7865  0.4308  0.6940
17935TIP3   OH275295   6.176   4.259   5.564  0.8581 -0.1390 -0.0173
17935TIP3    H175296   6.203   4.324   5.499  1.7174 -0.3236  0.1369
17935TIP3    H275297   6.155   4.311   5.642 -3.5560  0.4456 -1.3515
17936TIP3   OH275298   2.668   1.841   3.860 -0.2546  0.2127 -0.2846
17936TIP3    H175299   2.613   1.898   3.913 -0.1802  1.4565 -1.4998
17936TIP3    H275300   2.614   1.763   3.845 -0.3196 -0.1418  1.4759
17937TIP3   OH275301   4.978   4.143   6.256 -0.0092  0.0977  0.1621
17937TIP3    H175302   5.031   4.067   6.231  0.8001 -0.4557  3.1837
17937TIP3    H275303   5.019   4.216   6.210  2.2181 -0.6153  0.8556
17938TIP3   OH275304   1.460   2.974  13.140 -0.4458 -0.6048  0.1102
17938TIP3    H175305   1.367   2.991  13.127 -0.7426 -0.8233  1.7929
17938TIP3    H275306   1.472   2.883  13.111 -0.2755  0.0726 -2.1616
17939TIP3   OH275307   2.451   2.425   3.828 -0.1770  0.4000  0.9122
17939TIP3    H175308   2.489   2.381   3.904 -0.4681 -1.0027  0.2576
17939TIP3    H275309   2.522   2.427   3.763 -0.7703 -0.9591  0.2017
17940TIP3   OH275310   0.511   5.039   5.097 -0.1771  0.0383  0.5552
17940TIP3    H175311   0.587   5.002   5.052 -0.5348  1.0417 -0.9162
17940TIP3    H275312   0.437   5.015   5.042 -0.7196  0.6312  1.0226
17941TIP3   OH275313   6.034   3.985   5.142  0.1583  0.2636  0.0575
17941TIP3    H175314   6.097   4.056   5.134 -0.8097  1.1152 -0.1315
17941TIP3    H275315   5.966   4.018   5.201 -0.9226 -0.0282 -0.9873
17942TIP3   OH275316   0.472   5.911   1.857 -0.2361 -0.1817 -0.2440
17942TIP3    H175317   0.427   5.938   1.777 -0.6255 -1.1374 -0.3658
17942TIP3    H275318   0.508   5.825   1.836 -2.0201 -1.3621  1.1947
17943TIP3   OH275319   5.150   3.627   2.039  0.7293 -0.0637 -0.6648
17943TIP3    H175320   5.089   3.621   1.965  0.7122  0.4077 -0.6905
17943TIP3    H275321   5.191   3.540   2.043  0.0521 -0.3880 -0.6389
17944TIP3   OH275322   5.224   3.340   2.040  0.3629  0.8783  0.4723
17944TIP3    H175323   5.269   3.311   1.961  1.4301 -1.6469  1.8930
17944TIP3    H275324   5.139   3.297   2.036  0.9623 -0.4311  1.3430
17945TIP3   OH275325   5.081   4.815   3.658  0.8016 -0.6448 -0.6389
17945TIP3    H175326   5.142   4.887   3.643  1.3159 -0.8873  0.2402
17945TIP3    H275327   5.136   4.742   3.684  0.1490 -0.9025  0.0431
17946TIP3   OH275328   2.222   0.588  16.590 -0.0889 -0.2567  0.2640
17946TIP3    H175329   2.226   0.557  16.499 -0.3409  0.3251  0.0464
17946TIP3    H275330   2.283   0.532  16.637  0.3040 -0.3438 -0.3305
17947TIP3   OH275331   3.386   5.865   3.744  0.1456  0.7982  0.1633
17947TIP3    H175332   3.298   5.869   3.708  0.5657 -0.7011 -1.1563
17947TIP3    H275333   3.390   5.780   3.789  1.0245  0.6776 -0.1258
17948TIP3   OH275334   1.301   3.707   1.851 -0.2660 -0.5514 -0.2060
17948TIP3    H175335   1.250   3.780   1.817 -1.4467 -1.1304  0.2470
17948TIP3    H275336   1.245   3.631   1.838  0.6399 -1.2755 -0.0098
17949TIP3   OH275337   5.639   3.387  12.030  0.4240 -0.2852  0.1021
17949TIP3    H175338   5.600   3.462  12.075 -1.1274 -1.3058  0.5678
17949TIP3    H275339   5.642   3.412  11.938  1.0543  0.7838  0.4024
17950TIP3   OH275340   1.197   4.175   5.304  0.0818 -0.1899 -0.0879
17950TIP3    H175341   1.190   4.081   5.290 -0.4687 -0.1541 -0.0770
17950TIP3    H275342   1.117   4.199   5.352  0.4202  0.2122  0.2805
17951TIP3   OH275343   2.942   0.321   1.499  0.1404 -0.7669  0.2319
17951TIP3    H175344   2.945   0.234   1.539  1.6245 -1.2562 -0.8889
17951TIP3    H275345   3.021   0.365   1.530 -0.0197 -0.2211 -0.1153
17952TIP3   OH275346   4.548   0.442  11.984 -0.1188 -0.1194 -0.6790
17952TIP3    H175347   4.557   0.401  11.898  1.2134 -0.9486 -0.1791
17952TIP3    H275348   4.455   0.464  11.991 -0.8714 -2.8014 -1.1021
17953TIP3   OH275349   5.667   5.889  12.132 -0.3906  0.5668 -0.0519
17953TIP3    H175350   5.671   5.959  12.067 -0.0654  0.5885 -0.0131
17953TIP3    H275351   5.759   5.867  12.148 -0.4122  1.3706  1.2806
17954TIP3   OH275352   3.384   3.221  13.611 -0.2229  0.9795  0.3133
17954TIP3    H175353   3.357   3.305  13.647 -0.3536  0.7317  0.7985
17954TIP3    H275354   3.332   3.156  13.659 -2.4697  0.7562 -2.2049
17955TIP3   OH275355   6.542   0.335  15.387 -0.1316 -0.3404  0.0483
17955TIP3    H175356   6.485   0.411  15.381 -1.6597 -1.2797  1.5962
17955TIP3    H275357   6.610   0.360  15.450  1.5645  0.9563 -2.1688
17956TIP3   OH275358   3.264   0.808  12.547  0.2644  0.0712  0.0348
17956TIP3    H175359   3.219   0.813  12.463  1.6884  1.6017 -0.7071
17956TIP3    H275360   3.195   0.822  12.612 -0.4339  2.1753 -1.0524
17957TIP3   OH275361   5.567   1.404   0.434  0.2025 -0.1540  0.1135
17957TIP3    H175362   5.611   1.328   0.471  0.4578  0.8392  1.9674
17957TIP3    H275363   5.615   1.422   0.353  0.3085 -1.7547 -0.2219
17958TIP3   OH275364   6.066   0.868  13.438  0.2410  0.9966  0.0944
17958TIP3    H175365   6.014   0.944  13.411  2.1672  2.2576 -0.2710
17958TIP3    H275366   6.088   0.824  13.356 -1.1237 -0.1981  0.3231
17959TIP3   OH275367   6.550   5.518   4.343 -0.4116 -0.2616  0.1579
17959TIP3    H175368   6.565   5.611   4.358 -0.4939  0.2557 -2.4801
17959TIP3    H275369   6.486   5.493   4.410  0.0494  1.4184  1.2847
17960TIP3   OH275370   0.678   6.281  12.570  0.3440 -0.0493 -0.2508
17960TIP3    H175371   0.651   6.273  12.478 -0.5040  0.4852 -0.0622
17960TIP3    H275372   0.764   6.323  12.566  0.4238 -0.2565 -0.8099
17961TIP3   OH275373   5.614   5.645  15.297 -0.1361  0.1581  0.3224
17961TIP3    H175374   5.602   5.611  15.386  1.2368  0.0405  0.4961
17961TIP3    H275375   5.625   5.567  15.243 -0.5668  0.2418  0.1092
17962TIP3   OH275376   3.431   5.794   5.019  0.2210 -0.1477  0.4891
17962TIP3    H175377   3.465   5.801   5.109  1.5198 -1.3697  0.1284
17962TIP3    H275378   3.509   5.803   4.964 -0.6840  1.5645 -0.5834
17963TIP3   OH275379   0.468   6.081   3.352 -0.0492 -0.3614  0.0160
17963TIP3    H175380   0.542   6.028   3.323 -0.4806 -0.1194 -1.5768
17963TIP3    H275381   0.418   6.098   3.273 -0.6024  1.3765  0.7036
17964TIP3   OH275382   3.732   3.535   1.503 -0.1167  0.2829  0.2685
17964TIP3    H175383   3.748   3.452   1.458  0.4096  0.3124  0.3903
17964TIP3    H275384   3.652   3.569   1.464 -0.1718 -0.1410  0.0101
17965TIP3   OH275385   3.532   3.358  16.509 -0.2242 -0.0913  0.1592
17965TIP3    H175386   3.481   3.387  16.584 -0.2578  0.7211 -0.1673
17965TIP3    H275387   3.622   3.350  16.541 -0.1455  0.7634  0.1604
17966TIP3   OH275388   1.589   3.880  14.394 -0.8153 -0.0553  0.3607
17966TIP3    H175389   1.647   3.912  14.326 -0.8117  0.0002  0.3901
17966TIP3    H275390   1.569   3.790  14.368 -0.6025 -0.1208  0.4258
17967TIP3   OH275391   2.837   4.477   1.504 -0.1733 -0.3732 -0.2807
17967TIP3    H175392   2.901   4.479   1.575  0.4703 -1.2656 -0.8209
17967TIP3    H275393   2.857   4.555   1.452  1.0487 -1.0988 -0.9286
17968TIP3   OH275394   0.400   4.769  13.441  0.5648  0.4322 -0.3432
17968TIP3    H175395   0.425   4.849  13.395  0.7819  1.0404  0.7893
17968TIP3    H275396   0.441   4.698  13.391  1.2262  1.1101 -0.7779
17969TIP3   OH275397   4.263   0.812   5.442  0.5050  0.2858  0.0689
17969TIP3    H175398   4.236   0.826   5.351  0.3846 -2.1027 -0.3321
17969TIP3    H275399   4.349   0.772   5.435  0.5690  0.2502  1.0367
17970TIP3   OH275400   1.583   0.811  14.950  0.5373 -0.0776 -0.0931
17970TIP3    H175401   1.543   0.767  14.876  1.4968  0.4525 -0.9518
17970TIP3    H275402   1.640   0.878  14.911 -0.5402  1.6606  1.1348
17971TIP3   OH275403   1.361   2.503   0.995 -1.3567 -0.0277  0.5223
17971TIP3    H175404   1.329   2.533   0.909  1.1315 -0.9783 -0.8499
17971TIP3    H275405   1.346   2.409   0.995 -0.5286 -0.1685  0.7234
17972TIP3   OH275406   0.576   1.429   0.572  0.4806 -0.1220  0.4243
17972TIP3    H175407   0.557   1.409   0.480  0.3839 -0.6096  0.5496
17972TIP3    H275408   0.610   1.519   0.570  0.9197 -0.2938 -0.1465
17973TIP3   OH275409   4.703   5.652  17.111 -0.2192  0.1968  0.3738
17973TIP3    H175410   4.615   5.663  17.147 -1.1930  1.0087 -2.0317
17973TIP3    H275411   4.755   5.617  17.184 -2.0832  1.3432  2.3750
17974TIP3   OH275412   5.939   2.445  12.672 -0.4275  0.6666 -0.1063
17974TIP3    H175413   6.023   2.445  12.628 -0.8888  0.0371 -1.0231
17974TIP3    H275414   5.938   2.363  12.723  0.9722  2.3472  2.8951
17975TIP3   OH275415   1.201   5.705   5.474  0.4102 -0.5793 -0.2889
17975TIP3    H175416   1.230   5.755   5.398 -1.9543  1.3709 -0.0292
17975TIP3    H275417   1.261   5.731   5.544 -0.5422  1.7332 -0.2539
17976TIP3   OH275418   4.093   3.528   0.865 -0.0154 -0.1038 -0.5533
17976TIP3    H175419   4.170   3.493   0.821  1.7974  2.2511  0.5329
17976TIP3    H275420   4.030   3.544   0.795  0.1578 -2.6227 -1.4011
17977TIP3   OH275421   3.003   1.435  13.991 -0.1291 -0.3350 -0.0559
17977TIP3    H175422   3.049   1.498  14.046  1.8629 -1.0756 -0.8172
17977TIP3    H275423   2.959   1.489  13.924  1.9311  0.2728 -0.9811
17978TIP3   OH275424   4.082   1.276   5.125  0.0383 -0.1386 -0.3472
17978TIP3    H175425   4.025   1.288   5.201 -0.4797 -0.0010 -0.7537
17978TIP3    H275426   4.034   1.316   5.052 -1.2063 -3.4430 -1.5296
17979TIP3   OH275427   1.981   1.654  16.114 -0.3658 -0.3675 -0.0093
17979TIP3    H175428   1.999   1.704  16.035 -2.3086  0.1830 -0.1329
17979TIP3    H275429   1.906   1.698  16.155 -0.4564 -1.6251  1.2624
17980TIP3   OH275430   1.682   1.186   1.696 -0.4680  0.3948  0.1444
17980TIP3    H175431   1.738   1.149   1.628  1.5398  0.3745  1.6764
17980TIP3    H275432   1.596   1.194   1.656  0.5482  0.0946 -2.2534
17981TIP3   OH275433   5.834   2.642  13.225  0.2249  0.0553  0.3297
17981TIP3    H175434   5.845   2.624  13.318  0.4241  0.8270  0.4639
17981TIP3    H275435   5.890   2.579  13.181  3.1809  2.0829  0.8911
17982TIP3   OH275436   1.318   3.991   4.000 -0.3343  0.0556  0.6739
17982TIP3    H175437   1.410   3.982   3.978 -0.7083  0.5111 -1.3230
17982TIP3    H275438   1.293   3.906   4.037  0.8041 -0.1689  0.9409
17983TIP3   OH275439   1.492   4.456  15.162  0.5458 -0.5457 -0.4029
17983TIP3    H175440   1.563   4.441  15.099  1.2169 -1.2174  0.4895
17983TIP3    H275441   1.532   4.510  15.230  0.0164 -0.4025 -0.2028
17984TIP3   OH275442   2.380   4.076  11.795  0.4671  0.1461  0.3741
17984TIP3    H175443   2.350   4.115  11.877  1.5567  1.9972 -0.0669
17984TIP3    H275444   2.303   4.030  11.762 -0.0096 -0.6380  2.3893
17985TIP3   OH275445   1.918   6.123   5.435 -0.4281 -0.0545  0.5923
17985TIP3    H175446   1.895   6.037   5.469 -1.4967  0.3033  0.7952
17985TIP3    H275447   1.848   6.181   5.464 -0.7361  0.5151 -1.1526
17986TIP3   OH275448   5.012   0.717   5.845  0.0214 -0.0765 -0.1049
17986TIP3    H175449   4.942   0.678   5.897  0.0730 -0.8297 -0.5725
17986TIP3    H275450   5.066   0.765   5.908 -0.2083 -0.5395  0.4550
17987TIP3   OH275451   3.137   3.400  16.660 -0.6648 -0.4464 -0.0445
17987TIP3    H175452   3.078   3.474  16.674  0.2927  0.8863 -2.5400
17987TIP3    H275453   3.180   3.387  16.745 -1.1864  1.5560  0.5760
17988TIP3   OH275454   0.863   2.465   4.177  0.2409 -0.2924 -0.2911
17988TIP3    H175455   0.945   2.459   4.130  0.5403  1.5430 -0.0983
17988TIP3    H275456   0.822   2.379   4.166  1.8399 -1.0065 -0.9823
17989TIP3   OH275457   6.269   2.184   2.745 -0.2607 -0.3714  0.1080
17989TIP3    H175458   6.358   2.165   2.713 -0.1446  0.8632 -0.3472
17989TIP3    H275459   6.277   2.188   2.840  0.1858 -0.1841  0.0625
17990TIP3   OH275460   6.561   1.241   0.042 -0.6259 -0.0080  0.2070
17990TIP3    H175461   6.634   1.190   0.007 -0.4464  0.5400 -0.2369
17990TIP3    H275462   6.582   1.332   0.018 -1.4173  0.1597  0.1306
17991TIP3   OH275463   3.698   0.423  14.322  0.0755  0.2022 -0.0322
17991TIP3    H175464   3.612   0.462  14.308  0.3377  0.8756  0.1532
17991TIP3    H275465   3.734   0.412  14.234  0.5622  1.7265 -0.0549
17992TIP3   OH275466   0.345   5.408  11.306 -0.1842 -0.1319 -0.1440
17992TIP3    H175467   0.284   5.339  11.332 -0.3039  0.5321  1.4544
17992TIP3    H275468   0.328   5.421  11.213 -2.1349 -0.3491  0.1321
17993TIP3   OH275469   1.599   1.818   5.095 -0.1889  0.0407  0.3249
17993TIP3    H175470   1.659   1.849   5.164  0.4361 -0.2797 -0.0645
17993TIP3    H275471   1.613   1.880   5.023  0.5593 -0.7214 -0.2041
17994TIP3   OH275472   2.922   0.733  12.509  0.1022 -0.3501  0.0450
17994TIP3    H175473   2.883   0.740  12.422 -1.2386  1.0598  0.7082
17994TIP3    H275474   2.848   0.720  12.568  0.6744  1.3845  1.2489
17995TIP3   OH275475   1.260   6.407   0.147 -0.6174 -0.5018 -0.2582
17995TIP3    H175476   1.166   6.398   0.132 -0.7887  0.6133  0.0755
17995TIP3    H275477   1.269   6.417   0.242 -0.0695 -1.5737 -0.1904
17996TIP3   OH275478   4.541   6.515   5.177  0.2819  0.0514 -0.4041
17996TIP3    H175479   4.584   6.549   5.256 -1.2917  1.6541 -0.1906
17996TIP3    H275480   4.593   6.551   5.105  0.9114 -0.2911 -0.1301
17997TIP3   OH275481   0.272   3.184  15.637 -0.0551 -0.4761 -0.2592
17997TIP3    H175482   0.280   3.122  15.564 -0.7916 -0.6290 -0.2181
17997TIP3    H275483   0.234   3.132  15.708  0.6001 -0.3137  0.2252
17998TIP3   OH275484   5.139   1.926  16.746  0.2592  0.0046 -0.1170
17998TIP3    H175485   5.099   1.891  16.666  2.6185 -0.6782 -1.0835
17998TIP3    H275486   5.187   1.853  16.783  1.2055  0.9454  0.5786
17999TIP3   OH275487   1.257   6.527  13.898  0.3597 -0.1176  0.3401
17999TIP3    H175488   1.233   6.453  13.955  0.1354  0.1841  0.6410
17999TIP3    H275489   1.189   6.529  13.831 -1.1984  1.4683  1.8594
18000TIP3   OH275490   6.816   3.342  11.314 -0.4173  0.1666  0.1375
18000TIP3    H175491   6.767   3.262  11.335  0.0340  0.0822  0.8900
18000TIP3    H275492   6.906   3.321  11.337 -0.3474  1.0046  0.6239
18001TIP3   OH275493   0.449   1.051   3.318  0.0260  0.6241  0.0243
18001TIP3    H175494   0.358   1.023   3.309 -0.3907  1.7782  0.4772
18001TIP3    H275495   0.469   1.094   3.235  0.6402 -0.8758 -0.6394
18002TIP3   OH275496   2.955   6.202   2.490 -0.3650  0.3287  0.4182
18002TIP3    H175497   2.944   6.297   2.489 -1.2315  0.2953 -2.4519
18002TIP3    H275498   2.923   6.175   2.576 -0.2514  2.5818  1.2413
18003TIP3   OH275499   0.237   1.881   3.659  0.1026 -0.0619  0.0761
18003TIP3    H175500   0.292   1.954   3.629 -0.5080  0.4558  0.1991
18003TIP3    H275501   0.170   1.872   3.591 -0.6915  0.4564  0.7766
18004TIP3   OH275502   4.815   3.299  14.823 -0.1399  0.0288 -0.4142
18004TIP3    H175503   4.856   3.385  14.816  2.2265 -1.1035 -1.5052
18004TIP3    H275504   4.778   3.282  14.736 -3.4977  1.1790  0.6349
18005TIP3   OH275505   2.648   0.126  12.417  0.2533 -0.2945 -0.0024
18005TIP3    H175506   2.699   0.103  12.494  1.8567 -0.2371 -1.0023
18005TIP3    H275507   2.588   0.053  12.405 -0.3413 -0.0988  1.5333
18006TIP3   OH275508   0.364   3.560  12.360  0.3703  0.4454  0.4372
18006TIP3    H175509   0.439   3.503  12.346 -0.1712 -0.2666  0.3983
18006TIP3    H275510   0.308   3.545  12.285  0.6961  1.8267 -0.1196
18007TIP3   OH275511   2.508   0.916  13.021 -0.0522  0.1368  0.1607
18007TIP3    H175512   2.596   0.889  13.050  1.2997  1.3914 -2.3988
18007TIP3    H275513   2.518   1.009  12.998 -1.6354 -0.0672 -1.5940
18008TIP3   OH275514   1.086   3.721   5.654 -0.5441 -0.0352  0.3581
18008TIP3    H175515   1.122   3.659   5.717  0.6831  0.9032  0.6169
18008TIP3    H275516   1.091   3.806   5.698 -0.6496  0.4886 -0.6072
18009TIP3   OH275517   1.690   6.594  15.845  0.0250  0.7894 -0.1710
18009TIP3    H175518   1.744   6.571  15.770  0.1317 -2.1673  0.6870
18009TIP3    H275519   1.748   6.644  15.903  0.0894  2.6351 -1.6994
18010TIP3   OH275520   3.076   0.110  15.298  0.0884  0.5274 -0.4831
18010TIP3    H175521   2.985   0.134  15.283 -0.0975  1.4759  1.7886
18010TIP3    H275522   3.123   0.141  15.221 -1.4065  0.4854 -1.4459
18011TIP3   OH275523   6.427   6.389   2.957  0.0485 -0.6184 -0.2013
18011TIP3    H175524   6.443   6.476   2.993 -0.1990 -0.8566  0.4931
18011TIP3    H275525   6.495   6.333   2.995  0.1622 -0.7493 -0.5857
18012TIP3   OH275526   3.511   0.056   4.965  0.5982 -0.2278 -0.7552
18012TIP3    H175527   3.464   0.124   5.013  2.0555  0.9173 -0.8899
18012TIP3    H275528   3.479   0.063   4.875 -0.8161 -1.1962 -0.3836
18013TIP3   OH275529   2.318   5.801   3.531  0.8302  0.3318  0.2258
18013TIP3    H175530   2.353   5.809   3.442 -1.3468 -0.1019 -0.7364
18013TIP3    H275531   2.261   5.877   3.542 -1.1706 -1.0595  0.0977
18014TIP3   OH275532   4.247   3.187  12.639 -0.7012  0.1794  0.2603
18014TIP3    H175533   4.155   3.211  12.627 -0.3424  2.1163  1.0719
18014TIP3    H275534   4.290   3.214  12.557 -0.6326  0.4225  0.3780
18015TIP3   OH275535   3.334   2.541   1.427 -0.2183  0.5899  0.3049
18015TIP3    H175536   3.256   2.497   1.392  0.2642  0.1123 -0.1821
18015TIP3    H275537   3.375   2.581   1.350 -0.3836  1.4741  0.6714
18016TIP3   OH275538   5.035   6.304  15.866  0.3133  0.3616  0.6924
18016TIP3    H175539   4.941   6.290  15.861  0.4859 -0.6203  0.0617
18016TIP3    H275540   5.064   6.308  15.775  1.1434 -1.2348  0.8564
18017TIP3   OH275541   6.219   0.296  12.596 -0.8939  0.5452 -0.5316
18017TIP3    H175542   6.224   0.341  12.511 -0.0048 -0.0495 -0.8044
18017TIP3    H275543   6.132   0.255  12.596 -0.1162 -1.2822 -2.1231
18018TIP3   OH275544   2.199   5.007   5.332 -0.0186 -0.0531  0.4868
18018TIP3    H175545   2.139   4.932   5.336 -0.1518 -0.0942 -1.3713
18018TIP3    H275546   2.173   5.063   5.405 -1.3471 -0.7873  0.6064
18019TIP3   OH275547   1.064   1.484   5.341  0.1931 -0.3295  0.8339
18019TIP3    H175548   1.023   1.528   5.266  1.5766 -0.7955 -0.2376
18019TIP3    H275549   1.156   1.510   5.338  0.4335 -0.9628  1.9290
18020TIP3   OH275550   5.676   3.460   2.125 -0.2291 -0.0820 -0.2355
18020TIP3    H175551   5.629   3.377   2.131  1.1161 -0.8043  1.0442
18020TIP3    H275552   5.663   3.501   2.211  0.4963  0.2363 -0.2721
18021TIP3   OH275553   2.181   2.340  14.958  0.0583  0.8286 -0.5196
18021TIP3    H175554   2.139   2.255  14.972  0.0873  0.7805 -0.7246
18021TIP3    H275555   2.124   2.402  15.003  0.2646  0.6506  0.0027
18022TIP3   OH275556   6.028   3.554  10.998  0.1999  0.2269 -0.3428
18022TIP3    H175557   5.951   3.608  10.980 -1.3011 -1.3474  1.0050
18022TIP3    H275558   6.056   3.522  10.913 -1.4960 -0.2711 -0.7477
18023TIP3   OH275559   3.359   3.319   2.896  0.3397 -0.0599  0.4403
18023TIP3    H175560   3.424   3.388   2.888 -0.3849  0.4413 -1.9114
18023TIP3    H275561   3.290   3.343   2.834 -0.8973 -1.8614  1.0244
18024TIP3   OH275562   4.146   2.685   4.472  0.4307  0.7570 -0.1472
18024TIP3    H175563   4.230   2.640   4.468 -0.0057 -0.0645 -0.0908
18024TIP3    H275564   4.103   2.649   4.550  0.0911  1.3004 -0.0764
18025TIP3   OH275565   6.586   5.168   4.476 -0.2260  0.0746  0.1310
18025TIP3    H175566   6.559   5.214   4.396  0.6402 -0.7190 -0.6440
18025TIP3    H275567   6.509   5.117   4.502 -0.3463 -0.0734 -0.5001
18026TIP3   OH275568   6.587   3.291  11.905  0.6789 -0.1986 -0.2272
18026TIP3    H175569   6.582   3.349  11.981 -0.5968 -0.6190  0.0393
18026TIP3    H275570   6.647   3.221  11.931 -1.5748 -1.6514  1.3622
18027TIP3   OH275571   5.724   6.356  16.769  0.4136  0.2490  0.5340
18027TIP3    H175572   5.750   6.275  16.813  3.7174  0.4519 -0.7419
18027TIP3    H275573   5.793   6.419  16.790 -0.4713  1.8273 -0.9282
18028TIP3   OH275574   4.036   3.990  16.009 -0.0194  0.5473 -0.3101
18028TIP3    H175575   4.088   3.972  16.088 -2.2370 -0.3130  1.0465
18028TIP3    H275576   4.022   4.085  16.011 -0.2189  0.5120  0.4711
18029TIP3   OH275577   6.599   0.404  16.615 -0.2510  0.0882 -0.3188
18029TIP3    H175578   6.588   0.499  16.619  0.1837  0.2841 -2.3824
18029TIP3    H275579   6.516   0.372  16.579  0.0099 -0.1792 -0.6949
18030TIP3   OH275580   3.493   1.841   0.087  0.3619  0.4045 -0.2571
18030TIP3    H175581   3.540   1.800   0.015  2.3847  1.5550  0.3088
18030TIP3    H275582   3.451   1.768   0.133  3.2011 -1.0235  0.2865
18031TIP3   OH275583   1.733   3.357  16.307 -0.4972  0.0390 -0.2114
18031TIP3    H175584   1.704   3.430  16.252  0.4566 -0.1253 -0.9501
18031TIP3    H275585   1.813   3.388  16.348  0.8536 -1.1515 -1.8265
18032TIP3   OH275586   4.887   2.230   5.697  0.3361 -0.4494 -0.5989
18032TIP3    H175587   4.873   2.227   5.792 -0.2745 -2.3312 -0.6911
18032TIP3    H275588   4.976   2.265   5.687  0.5307 -0.5139  0.6958
18033TIP3   OH275589   3.164   2.199   0.225 -0.3464  0.0237 -0.3141
18033TIP3    H175590   3.152   2.153   0.308 -0.0606 -0.2242 -0.4099
18033TIP3    H275591   3.220   2.141   0.173  1.5464  1.2788  0.2261
18034TIP3   OH275592   0.417   5.378   0.049 -0.1297 -0.3240 -0.3054
18034TIP3    H175593   0.374   5.403  -0.034 -0.3422 -0.3328 -0.1998
18034TIP3    H275594   0.490   5.438   0.057  0.4215 -0.8921 -0.9398
18035TIP3   OH275595   1.859   1.167   4.954  0.0483  0.5740 -0.2085
18035TIP3    H175596   1.949   1.133   4.949 -1.0759 -2.8617  0.0471
18035TIP3    H275597   1.848   1.190   5.046  0.3232 -0.1387  0.0110
18036TIP3   OH275598   4.340   2.871  14.295 -0.2279 -0.1805  0.1386
18036TIP3    H175599   4.269   2.868  14.232 -0.4250 -0.1970  0.3610
18036TIP3    H275600   4.406   2.928  14.255  0.5367 -1.7740 -0.9929
18037TIP3   OH275601   3.150   6.393  17.024  0.4431 -0.0510  0.0119
18037TIP3    H175602   3.135   6.412  17.116  0.5798 -1.2281  0.2890
18037TIP3    H275603   3.235   6.431  17.004 -0.0884  1.2043  0.0588
18038TIP3   OH275604   3.465   1.879   3.296 -0.0151  0.7445 -0.9997
18038TIP3    H175605   3.479   1.821   3.371 -0.9293  3.2566  1.2801
18038TIP3    H275606   3.547   1.872   3.246  1.5939  0.6234  1.4560
18039TIP3   OH275607   3.834   2.652   4.652 -0.6276  0.2295  0.4234
18039TIP3    H175608   3.916   2.655   4.701 -0.8473  0.3041  0.7913
18039TIP3    H275609   3.796   2.567   4.674 -0.6290  0.1744  0.2152
18040TIP3   OH275610   1.288   2.735   2.344  0.5307  0.0306 -0.1372
18040TIP3    H175611   1.250   2.742   2.256  0.0036  1.2052  0.1667
18040TIP3    H275612   1.314   2.825   2.366  2.4391 -0.5404  0.1439
18041TIP3   OH275613   0.326   2.135  14.249  0.0040  0.5711  0.2445
18041TIP3    H175614   0.323   2.094  14.335  1.1659  0.6377  0.3342
18041TIP3    H275615   0.403   2.192  14.252  0.8968 -0.4696 -1.2885
18042TIP3   OH275616   4.269   1.748   4.925  0.2890  0.4101 -0.8212
18042TIP3    H175617   4.262   1.842   4.944  0.1815  0.3529 -0.5751
18042TIP3    H275618   4.363   1.729   4.933  0.2576  0.4089 -0.4558
18043TIP3   OH275619   1.482   0.335   3.410  0.3538 -0.2870  0.0617
18043TIP3    H175620   1.547   0.382   3.462  0.7412  1.9404 -2.2588
18043TIP3    H275621   1.417   0.401   3.388 -0.3864 -1.4285 -1.3117
18044TIP3   OH275622   1.946   3.172  14.236 -0.3134 -0.6765 -0.1028
18044TIP3    H175623   1.854   3.161  14.213 -1.4528  2.4603  2.1438
18044TIP3    H275624   1.974   3.249  14.188 -0.0736  0.5915  1.9225
18045TIP3   OH275625   6.233   2.731  15.196  0.0558 -0.1363 -0.4168
18045TIP3    H175626   6.272   2.753  15.281 -1.5596  1.8337 -0.1275
18045TIP3    H275627   6.308   2.720  15.137  1.1267  1.0483  0.6789
18046TIP3   OH275628   5.116   4.350  11.201 -0.2320  0.3366  0.3063
18046TIP3    H175629   5.040   4.302  11.233 -1.5388  1.4406 -0.9959
18046TIP3    H275630   5.161   4.288  11.143 -0.2756 -0.2301  0.8679
18047TIP3   OH275631   6.175   0.317   0.059  0.3795  0.1263  0.1346
18047TIP3    H175632   6.229   0.282  -0.012  0.2992 -0.3674  0.3128
18047TIP3    H275633   6.126   0.241   0.091 -0.9494  0.6873 -0.4998
18048TIP3   OH275634   2.674   5.448  12.513  0.3616  0.1544  0.5922
18048TIP3    H175635   2.628   5.503  12.577  0.5137  2.9350 -1.5248
18048TIP3    H275636   2.612   5.377  12.494  0.1521 -0.5457  3.4185
18049TIP3   OH275637   2.644   3.608  16.654  0.0030 -0.7544 -0.1340
18049TIP3    H175638   2.570   3.649  16.699  1.0029  2.3052 -0.9893
18049TIP3    H275639   2.617   3.606  16.562  0.5310 -0.7041 -0.2912
18050TIP3   OH275640   0.128   2.855  12.290 -0.0569  0.0883 -0.1900
18050TIP3    H175641   0.051   2.872  12.345 -0.2805  1.1271 -0.7851
18050TIP3    H275642   0.195   2.913  12.326 -0.2743  0.9474 -1.1314
18051TIP3   OH275643   6.322   5.041   2.042 -0.1943 -0.4258  0.1284
18051TIP3    H175644   6.244   5.004   2.084  0.3010 -0.6583  0.8638
18051TIP3    H275645   6.341   5.120   2.092  0.7032 -0.9780  0.7010
18052TIP3   OH275646   1.947   6.621  10.687  0.0201 -0.0777 -0.3660
18052TIP3    H175647   2.011   6.551  10.705 -0.4512  0.1906  3.0292
18052TIP3    H275648   1.886   6.581  10.625  0.0374 -2.6025  1.0745
18053TIP3   OH275649   6.091   0.626   3.484  1.2246 -0.4060  0.2990
18053TIP3    H175650   6.159   0.559   3.492  1.8390  0.3418  1.6033
18053TIP3    H275651   6.120   0.683   3.413  0.7086 -1.4806 -0.8067
18054TIP3   OH275652   5.792   0.980  14.898 -0.7516  0.2975 -0.1733
18054TIP3    H175653   5.746   1.034  14.833 -0.3960  0.5890 -0.1848
18054TIP3    H275654   5.826   0.906  14.847 -0.8963  0.2678 -0.2286
18055TIP3   OH275655   1.284   1.104  16.636  0.3385 -0.4863  0.2375
18055TIP3    H175656   1.292   1.199  16.625  1.4475 -0.6001 -0.0005
18055TIP3    H275657   1.368   1.076  16.672 -0.1538 -1.3196  0.7820
18056TIP3   OH275658   6.579   1.598  12.138 -0.4385 -1.0130 -0.2229
18056TIP3    H175659   6.506   1.658  12.123  0.8459  0.5721 -0.5676
18056TIP3    H275660   6.539   1.519  12.173 -2.0993  0.6210  1.8702
18057TIP3   OH275661   6.051   1.190   3.551  0.0225 -0.1498  0.2279
18057TIP3    H175662   6.044   1.285   3.557  0.6678  0.0000 -1.0609
18057TIP3    H275663   5.974   1.163   3.503 -0.2010 -0.2982  0.6624
18058TIP3   OH275664   4.092   4.205   4.493 -0.4563 -0.1967  0.3640
18058TIP3    H175665   4.154   4.132   4.483  1.0278  0.8549  1.4655
18058TIP3    H275666   4.021   4.169   4.546 -0.5706 -1.2813 -0.4787
18059TIP3   OH275667   1.450   0.026  11.278 -0.2670  0.6546  0.0884
18059TIP3    H175668   1.434   0.035  11.184  0.0099 -0.0006 -0.0285
18059TIP3    H275669   1.500   0.104  11.302  2.5265 -0.6799 -0.9646
18060TIP3   OH275670   5.139   6.085   1.708 -0.2172  0.1244  0.2691
18060TIP3    H175671   5.090   6.053   1.784  0.6834 -0.1366  0.7633
18060TIP3    H275672   5.180   6.166   1.739 -1.7590  1.3282 -0.6964
18061TIP3   OH275673   6.286   6.321   1.796 -0.2284  0.0139 -0.6146
18061TIP3    H175674   6.263   6.386   1.863  0.5796  0.4494 -0.7562
18061TIP3    H275675   6.202   6.284   1.769 -0.6059  0.2048  0.2663
18062TIP3   OH275676   2.652   0.500   4.864 -0.3855  0.2009  1.0967
18062TIP3    H175677   2.607   0.584   4.862 -0.5641  0.1134  1.3005
18062TIP3    H275678   2.595   0.441   4.815  0.4804  0.5380 -0.4001
18063TIP3   OH275679   1.509   0.061   6.001 -0.4646 -0.4244 -0.0870
18063TIP3    H175680   1.591   0.107   6.020 -1.1246  0.4848  0.6355
18063TIP3    H275681   1.531   0.001   5.930  1.0965 -0.9707  0.7963
18064TIP3   OH275682   6.550   5.956  15.174 -0.3105 -0.0086  0.1028
18064TIP3    H175683   6.561   5.889  15.240 -0.1370  0.7754  0.8880
18064TIP3    H275684   6.622   6.017  15.189 -1.0593  0.9113  0.0844
18065TIP3   OH275685   0.561   4.584  12.635  0.6870  0.1254 -0.1846
18065TIP3    H175686   0.539   4.612  12.546  0.6683  0.1899 -0.1595
18065TIP3    H275687   0.483   4.539  12.666  0.3295  0.9420  0.1470
18066TIP3   OH275688   3.258   5.784  14.157 -0.8375  0.5860 -0.5143
18066TIP3    H175689   3.181   5.838  14.138 -1.5537  0.7437  2.4260
18066TIP3    H275690   3.222   5.704  14.196  0.3678 -0.8490 -2.1820
18067TIP3   OH275691   0.642   0.384  13.304 -0.2848  0.3110 -0.5828
18067TIP3    H175692   0.551   0.391  13.276 -0.0649  0.0433 -1.4129
18067TIP3    H275693   0.692   0.424  13.232  0.1592  2.1414  0.6802
18068TIP3   OH275694   0.806   4.874   3.418  0.2753 -0.6258  0.4719
18068TIP3    H175695   0.802   4.907   3.328 -1.7228 -0.9348  0.3988
18068TIP3    H275696   0.827   4.951   3.471 -1.3969  0.2142 -0.0012
18069TIP3   OH275697   4.256   5.471   3.746  0.1451 -0.2502  0.6620
18069TIP3    H175698   4.255   5.560   3.781 -1.6150 -0.0934  0.2808
18069TIP3    H275699   4.221   5.479   3.657  1.0356 -1.1788  0.1987
18070TIP3   OH275700   0.481   4.296  15.498  0.1894 -0.3367  0.8575
18070TIP3    H175701   0.428   4.360  15.451 -0.1135 -0.0825  1.5377
18070TIP3    H275702   0.482   4.326  15.589 -0.1371 -1.4095  1.2363
18071TIP3   OH275703   0.824   2.221  15.520 -0.2063  0.1261 -0.5564
18071TIP3    H175704   0.844   2.253  15.608  2.2187 -0.1192 -0.9595
18071TIP3    H275705   0.889   2.262  15.463 -0.9630 -0.6546 -2.0573
18072TIP3   OH275706   6.588   3.947  11.187  0.0472  0.3843 -0.1171
18072TIP3    H175707   6.680   3.934  11.209  0.2595  1.6949 -0.1369
18072TIP3    H275708   6.547   3.863  11.206  1.4844 -0.6686 -1.4005
18073TIP3   OH275709   3.006   4.629  10.924  0.0355  0.1195  0.2608
18073TIP3    H175710   2.939   4.564  10.904 -0.7449  0.5656  1.3412
18073TIP3    H275711   2.990   4.701  10.863  0.0074 -0.0887  0.0216
18074TIP3   OH275712   1.241   2.102  14.878 -0.1702 -0.2940  0.5125
18074TIP3    H175713   1.170   2.125  14.939 -1.5276  2.3663 -1.8493
18074TIP3    H275714   1.200   2.040  14.817  0.1310 -0.2348  0.2497
18075TIP3   OH275715   6.236   3.803  11.407 -0.2791 -0.0410  0.3256
18075TIP3    H175716   6.329   3.793  11.387 -0.1781  1.4675 -0.0172
18075TIP3    H275717   6.212   3.720  11.448  1.0083 -0.7844 -0.3534
18076TIP3   OH275718   1.325   3.453  11.604  0.6174 -0.1463 -0.6473
18076TIP3    H175719   1.314   3.505  11.683  0.3736  0.5134 -1.1055
18076TIP3    H275720   1.298   3.365  11.629 -1.4108  0.4661 -0.5087
18077TIP3   OH275721   2.702   1.799   5.585 -0.0325  0.0253 -0.5691
18077TIP3    H175722   2.717   1.797   5.490 -0.3407  0.8494 -0.6483
18077TIP3    H275723   2.700   1.893   5.606  0.5331 -0.1559  0.3333
18078TIP3   OH275724   1.581   2.919  14.772  0.7825  0.0669 -0.0505
18078TIP3    H175725   1.594   2.861  14.697  2.6571  0.8948 -0.4473
18078TIP3    H275726   1.663   2.912  14.821  0.8211  1.9067  0.2014
18079TIP3   OH275727   4.280   6.139  13.108 -0.9197 -0.5419  0.0466
18079TIP3    H175728   4.284   6.063  13.049  0.8290 -0.4119 -0.0494
18079TIP3    H275729   4.273   6.214  13.049  0.0140 -0.4671  0.0180
18080TIP3   OH275730   6.087   0.128  13.955  0.2451 -0.1065 -0.3424
18080TIP3    H175731   6.020   0.061  13.972 -0.3389  0.1644 -1.4809
18080TIP3    H275732   6.072   0.154  13.864  1.4628  0.4649 -0.3954
18081TIP3   OH275733   3.703   1.811   2.398  0.2907  0.2312 -0.7491
18081TIP3    H175734   3.611   1.812   2.424  0.2693  0.5449 -0.8274
18081TIP3    H275735   3.730   1.903   2.403  0.2250  0.3314 -2.0785
18082TIP3   OH275736   6.726   5.985  12.709  0.0799 -0.1239  0.0806
18082TIP3    H175737   6.714   5.931  12.786  0.7936  0.7059  0.8010
18082TIP3    H275738   6.803   6.038  12.728 -1.3158  2.0981 -0.0074
18083TIP3   OH275739   4.092   5.522  16.511 -0.2724  0.4765  0.0259
18083TIP3    H175740   4.169   5.579  16.511 -0.9066  1.3891 -0.9023
18083TIP3    H275741   4.041   5.550  16.587 -0.4025  0.8935 -0.2145
18084TIP3   OH275742   4.797   1.623   4.914 -0.1537  0.8611  0.1134
18084TIP3    H175743   4.874   1.633   4.970  0.2751 -0.5287 -0.2091
18084TIP3    H275744   4.819   1.553   4.854 -2.3177 -0.8382  1.1700
18085TIP3   OH275745   4.661   5.369  15.325 -0.3569 -0.0656  0.5338
18085TIP3    H175746   4.628   5.304  15.387 -0.6374  0.1096  0.5725
18085TIP3    H275747   4.735   5.410  15.369 -1.0639  0.6414  1.1032
18086TIP3   OH275748   1.912   5.487   4.512  0.3001  0.5686  0.6743
18086TIP3    H175749   1.889   5.441   4.593  0.3975  1.4011  1.1883
18086TIP3    H275750   2.001   5.458   4.492  0.6214  1.0567  1.3794
18087TIP3   OH275751   1.223   3.750  12.552 -0.4597 -0.0803 -0.7675
18087TIP3    H175752   1.310   3.773  12.518 -1.0464  1.2793 -1.4722
18087TIP3    H275753   1.193   3.679  12.495  0.3787 -0.9022 -0.2010
18088TIP3   OH275754   4.901   3.530   5.168  0.1669  0.6520  0.2372
18088TIP3    H175755   4.882   3.538   5.262  2.6624  0.6448  0.8307
18088TIP3    H275756   4.962   3.456   5.163 -0.5597  0.1181 -1.5341
18089TIP3   OH275757   1.550   6.563   4.402  0.0070  0.1589  0.1429
18089TIP3    H175758   1.577   6.487   4.454 -0.6934 -0.9274 -1.0194
18089TIP3    H275759   1.455   6.554   4.395 -0.1040  1.2460  0.1215
18090TIP3   OH275760   4.887   6.825   5.786 -0.3246  0.0155 -0.5131
18090TIP3    H175761   4.835   6.828   5.866 -0.3431 -0.5978 -0.4936
18090TIP3    H275762   4.973   6.793   5.814  0.2110  1.4365 -0.4792
18091TIP3   OH275763   6.515   4.264  12.476 -0.2015  0.0942  0.1120
18091TIP3    H175764   6.519   4.266  12.572 -2.8390  0.9695  0.3010
18091TIP3    H275765   6.488   4.175  12.455 -0.9008  0.2527  0.3019
18092TIP3   OH275766   4.551   1.907   5.129 -0.1821 -0.2182 -0.4046
18092TIP3    H175767   4.488   1.972   5.097  0.1616 -0.3180 -1.3323
18092TIP3    H275768   4.500   1.849   5.185 -0.7882  0.0501 -0.6750
18093TIP3   OH275769   0.607   5.590   5.173  0.2152  0.0990  0.3333
18093TIP3    H175770   0.626   5.583   5.266  0.5536 -0.1004  0.2513
18093TIP3    H275771   0.578   5.503   5.147  3.3578 -0.8718 -0.4444
18094TIP3   OH275772   5.192   1.956   4.025 -0.0359  0.4944 -0.0304
18094TIP3    H175773   5.279   1.996   4.024  1.2007 -1.9729 -0.4165
18094TIP3    H275774   5.167   1.956   4.118 -1.1661  4.0598 -0.1949
18095TIP3   OH275775   5.117   3.381   3.560  0.4053 -0.2966  0.9924
18095TIP3    H175776   5.116   3.291   3.528 -1.4702  0.2860 -0.8262
18095TIP3    H275777   5.185   3.424   3.508 -1.0237  0.0768 -0.6780
18096TIP3   OH275778   4.282   3.014   3.950 -0.3369  0.2939  0.4629
18096TIP3    H175779   4.345   3.040   4.016 -0.2361  2.3480 -0.3868
18096TIP3    H275780   4.261   3.094   3.903 -0.0469 -1.1425 -2.3331
18097TIP3   OH275781   2.521   5.294  11.530 -0.0984 -0.1709  0.0694
18097TIP3    H175782   2.514   5.389  11.537 -1.4316 -0.2252 -0.2313
18097TIP3    H275783   2.608   5.279  11.493  0.7801  0.8408  1.5954
18098TIP3   OH275784   4.366   6.307   4.720 -0.4269 -0.2361  0.7665
18098TIP3    H175785   4.286   6.327   4.768  1.3285  1.0996  3.3333
18098TIP3    H275786   4.387   6.387   4.672 -1.3367 -1.0627 -1.1097
18099TIP3   OH275787   2.751   3.941   2.415  0.4048  0.2624  0.2492
18099TIP3    H175788   2.820   3.974   2.359  0.9130  1.3045  1.4511
18099TIP3    H275789   2.671   3.981   2.381  0.3333 -1.0269 -1.2051
18100TIP3   OH275790   5.329   3.215  14.975  0.0759  0.1726 -0.1560
18100TIP3    H175791   5.316   3.304  14.944 -2.0905 -0.4341 -1.1759
18100TIP3    H275792   5.276   3.161  14.917  1.3289 -1.8063  0.4331
18101TIP3   OH275793   5.550   3.464   3.482 -0.2953 -0.2210  0.3339
18101TIP3    H175794   5.495   3.393   3.515 -0.2694  0.0548  0.9911
18101TIP3    H275795   5.531   3.538   3.540  0.2904  0.0611  0.1783
18102TIP3   OH275796   4.453   4.573   4.966  0.0589  0.4883  0.2649
18102TIP3    H175797   4.394   4.641   4.933  0.4656  0.5404 -0.3745
18102TIP3    H275798   4.498   4.615   5.040 -0.8138  0.3928  0.8574
18103TIP3   OH275799   3.982   6.262  14.036  0.3128  0.3160 -0.1925
18103TIP3    H175800   3.977   6.183  14.089 -1.4502  1.0072  0.7499
18103TIP3    H275801   4.072   6.263  14.002  0.3557 -2.0742 -0.2596
18104TIP3   OH275802   1.647   6.135   1.342  0.8198  0.2544 -0.5651
18104TIP3    H175803   1.664   6.212   1.397  0.2793  0.2708 -0.4120
18104TIP3    H275804   1.606   6.171   1.264 -0.2417  0.0470 -0.1176
18105TIP3   OH275805   3.240   0.500  11.411  0.1699 -0.0026 -0.8323
18105TIP3    H175806   3.223   0.433  11.477  0.9373  1.3519  0.8135
18105TIP3    H275807   3.335   0.500  11.400  0.1758  0.7820 -0.8474
18106TIP3   OH275808   1.416   3.350  14.811 -0.1749  0.0497 -0.5194
18106TIP3    H175809   1.324   3.328  14.826  0.3946 -1.8799  0.4581
18106TIP3    H275810   1.438   3.306  14.729  0.2409 -0.7292 -0.0011
18107TIP3   OH275811   2.707   0.358  14.807  0.4005  0.0601 -0.4902
18107TIP3    H175812   2.780   0.378  14.748  1.9037  0.3685  1.3985
18107TIP3    H275813   2.741   0.374  14.895 -2.3432  1.4770  0.4281
18108TIP3   OH275814   1.960   5.339   5.226  0.1047 -0.0947  0.0818
18108TIP3    H175815   1.951   5.427   5.262 -1.4955 -0.3266  0.3556
18108TIP3    H275816   2.005   5.350   5.143  3.1454  0.5600  1.6961
18109TIP3   OH275817   3.223   2.305   2.509 -0.2302 -0.5842 -0.3967
18109TIP3    H175818   3.192   2.218   2.481  0.7661 -0.5107 -1.8431
18109TIP3    H275819   3.175   2.323   2.590 -0.8146 -2.2740 -0.3311
18110TIP3   OH275820   1.337   0.563   4.130 -0.2323 -0.6938  0.0316
18110TIP3    H175821   1.283   0.484   4.142  0.1342 -0.8489  0.7043
18110TIP3    H275822   1.274   0.635   4.134 -0.5969 -0.9546 -0.7721
18111TIP3   OH275823   2.669   6.402  14.377 -0.3018 -0.4863 -0.1635
18111TIP3    H175824   2.660   6.326  14.435  0.6042 -0.4072  0.0921
18111TIP3    H275825   2.606   6.386  14.306 -2.2684 -0.0622  1.3754
18112TIP3   OH275826   6.482   5.911   2.373  0.6355  0.0924  0.1054
18112TIP3    H175827   6.516   5.995   2.342  0.6899  0.2784  0.6715
18112TIP3    H275828   6.445   5.930   2.459 -1.4778  0.0394 -0.7358
18113TIP3   OH275829   4.318   6.432  14.950  0.3597 -0.5496  0.4375
18113TIP3    H175830   4.405   6.471  14.958  0.3807 -0.6252  0.5814
18113TIP3    H275831   4.335   6.338  14.946  0.2534 -0.5925  0.9540
18114TIP3   OH275832   4.079   4.762  11.016  0.0315  0.0193  0.3751
18114TIP3    H175833   4.137   4.713  11.074 -2.0385 -0.9563  1.7629
18114TIP3    H275834   4.138   4.808  10.956  2.2149 -0.4129  2.0501
18115TIP3   OH275835   6.487   6.390  11.871 -0.1686  0.2449 -0.3574
18115TIP3    H175836   6.394   6.386  11.848 -0.3520 -0.0661  0.4021
18115TIP3    H275837   6.514   6.478  11.844 -1.0674  0.9048  0.7766
18116TIP3   OH275838   6.744   3.540   4.800  0.6840 -0.1082  0.3450
18116TIP3    H175839   6.813   3.605   4.789  0.2245  0.8491  2.5549
18116TIP3    H275840   6.741   3.524   4.894 -0.7913 -1.5958  0.0869
18117TIP3   OH275841   5.429   5.248  13.348  0.2424  0.1836 -0.1507
18117TIP3    H175842   5.447   5.219  13.258 -2.2543 -0.1933 -0.6083
18117TIP3    H275843   5.456   5.340  13.350 -0.3071  0.3944 -1.5167
18118TIP3   OH275844   1.388   0.469  11.310 -0.2300 -0.6758  0.2540
18118TIP3    H175845   1.302   0.448  11.274 -0.0782  0.9801 -1.1896
18118TIP3    H275846   1.448   0.410  11.264 -0.3712 -0.4880 -0.1755
18119TIP3   OH275847   1.782   4.895   4.904  0.5097 -0.3924 -0.5510
18119TIP3    H175848   1.823   4.854   4.980 -0.1000 -1.9862 -1.0480
18119TIP3    H275849   1.827   4.979   4.895  1.7064 -0.8834  0.5959
18120TIP3   OH275850   2.374   6.436  15.054 -0.0974  0.1290 -0.1640
18120TIP3    H175851   2.430   6.453  14.978  0.0416 -0.2512 -0.1502
18120TIP3    H275852   2.300   6.387  15.019  0.5789 -1.1622  0.1220
18121TIP3   OH275853   3.452   1.209   1.569 -0.3325 -0.4862 -0.2090
18121TIP3    H175854   3.493   1.294   1.553  2.7289 -1.4017  1.8492
18121TIP3    H275855   3.362   1.229   1.592  0.2664  2.2138  0.0337
18122TIP3   OH275856   0.966   5.932   0.264 -0.7006  0.0689 -0.1263
18122TIP3    H175857   1.056   5.924   0.233 -0.0087  0.5470  1.6267
18122TIP3    H275858   0.928   6.003   0.212  0.7746  1.6637  0.8641
18123TIP3   OH275859   3.015   5.082  14.345 -0.6075  0.4291 -0.0864
18123TIP3    H175860   2.963   5.144  14.293 -1.9077 -0.9923 -0.5326
18123TIP3    H275861   2.985   4.996  14.317 -1.0141 -0.4158  2.6879
18124TIP3   OH275862   5.943   0.282  16.566  0.6305 -0.1222  0.0567
18124TIP3    H175863   5.881   0.264  16.495  0.6901  0.3365 -0.1176
18124TIP3    H275864   6.005   0.345  16.528 -0.2790  1.3985  1.0066
18125TIP3   OH275865   2.293   2.048  13.026 -0.0466 -0.2772 -0.1640
18125TIP3    H175866   2.255   1.988  12.963  0.4400  0.7748 -1.5043
18125TIP3    H275867   2.387   2.040  13.013  0.0790 -0.3168  0.7031
18126TIP3   OH275868   0.559   4.495   5.005  0.2383  0.5473  0.6291
18126TIP3    H175869   0.489   4.447   4.962  0.5505 -0.9350  1.6777
18126TIP3    H275870   0.593   4.434   5.071  0.6504  2.2298  2.0642
18127TIP3   OH275871   3.806   6.031  12.384 -0.0828 -0.4958 -0.1734
18127TIP3    H175872   3.792   5.979  12.305 -1.2295 -1.3123  0.5378
18127TIP3    H275873   3.774   6.118  12.360 -0.1498 -0.6584 -0.6970
18128TIP3   OH275874   4.613   6.423   0.624  0.0747  0.3540 -0.3679
18128TIP3    H175875   4.639   6.463   0.706 -1.3528  0.3158  0.1317
18128TIP3    H275876   4.589   6.333   0.647 -1.7188  0.7569 -0.5288
18129TIP3   OH275877   6.051   2.933  14.573  0.2289  0.2821  0.2769
18129TIP3    H175878   6.066   2.928  14.478  1.6380 -0.1448  0.5075
18129TIP3    H275879   6.065   2.844  14.605 -0.0462  0.4618  0.9203
18130TIP3   OH275880   0.247   1.530   1.886  0.3808  0.0113  0.1547
18130TIP3    H175881   0.309   1.598   1.861  0.3146 -0.0727 -0.2562
18130TIP3    H275882   0.175   1.577   1.929  1.1812  0.0060  1.5456
18131TIP3   OH275883   5.077   6.037  15.706  0.8766  0.1834  0.0528
18131TIP3    H175884   5.124   5.961  15.673  0.8824  1.5919 -3.6451
18131TIP3    H275885   5.145   6.104  15.718  0.5105  0.5248  0.2674
18132TIP3   OH275886   4.483   5.613   2.369  0.1349  0.2419  0.1563
18132TIP3    H175887   4.468   5.542   2.431 -0.3223  0.3017  0.1183
18132TIP3    H275888   4.422   5.682   2.396 -0.0166  0.2966 -0.3081
18133TIP3   OH275889   5.980   1.578  14.937  0.1312 -0.6810  0.6896
18133TIP3    H175890   5.896   1.619  14.914  0.1671 -1.6190 -1.2937
18133TIP3    H275891   6.042   1.650  14.937 -0.7027  0.1122  2.6608
18134TIP3   OH275892   6.293   6.074  12.212 -0.3002  0.2436 -0.0844
18134TIP3    H175893   6.381   6.038  12.228 -0.1587  0.2947 -0.7187
18134TIP3    H275894   6.276   6.131  12.287 -0.5804 -1.2289  1.0279
18135TIP3   OH275895   5.782   0.606  16.410 -0.4072 -0.3133 -0.3140
18135TIP3    H175896   5.791   0.636  16.320  2.3998  0.4044  0.0989
18135TIP3    H275897   5.830   0.671  16.462 -0.6171 -1.5360  1.5078
18136TIP3   OH275898   1.856   5.533   5.403 -0.3929  0.2869  0.3868
18136TIP3    H175899   1.915   5.609   5.407 -1.1046  0.7977  1.8989
18136TIP3    H275900   1.860   5.495   5.491  0.2564 -1.7077 -0.4364
18137TIP3   OH275901   0.236   1.493   4.452  0.0264 -0.4159  0.3461
18137TIP3    H175902   0.329   1.488   4.432  0.3062  1.9916  0.7409
18137TIP3    H275903   0.229   1.456   4.541  0.8328  0.5061  0.8164
18138TIP3   OH275904   4.039   0.054  16.764 -0.5964  0.1823 -0.1182
18138TIP3    H175905   3.971  -0.011  16.741 -0.5862 -0.0161  0.4045
18138TIP3    H275906   4.004   0.137  16.732 -0.3035 -0.1708 -1.4252
18139TIP3   OH275907   6.380   3.338   2.376  0.2851  0.4050 -0.5475
18139TIP3    H175908   6.390   3.274   2.305  1.5326 -0.1180  0.0590
18139TIP3    H275909   6.467   3.378   2.385  0.6250 -0.6267  1.6497
18140TIP3   OH275910   3.632   0.801  16.697 -0.4010 -0.0742  0.2584
18140TIP3    H175911   3.681   0.823  16.776 -0.0524  2.0787 -0.4945
18140TIP3    H275912   3.669   0.857  16.629 -1.9078 -0.5344 -1.0053
18141TIP3   OH275913   1.598   3.213  15.448  0.1984 -0.0523 -0.6875
18141TIP3    H175914   1.631   3.197  15.360  0.9533  0.6662 -0.5499
18141TIP3    H275915   1.536   3.285  15.437  1.2734  0.9493 -0.4736
18142TIP3   OH275916   0.542   4.454  11.755 -0.5598 -0.2122 -0.4020
18142TIP3    H175917   0.455   4.495  11.761 -0.3440  0.0626  3.8065
18142TIP3    H275918   0.527   4.363  11.782  0.1952 -0.7034 -1.5828
18143TIP3   OH275919   4.976   3.253  14.291 -0.2164  0.3809  0.0359
18143TIP3    H175920   4.997   3.174  14.241 -1.3549 -0.6333  1.0986
18143TIP3    H275921   4.918   3.303  14.234 -1.8932 -0.9928  0.4481
18144TIP3   OH275922   5.533   2.596   4.752  0.1162 -0.2368 -0.4948
18144TIP3    H175923   5.442   2.614   4.730  0.0527 -0.7981 -0.7149
18144TIP3    H275924   5.529   2.524   4.815  0.3013  1.3018  1.3485
18145TIP3   OH275925   4.365   5.677  12.025  0.4439 -0.3609  0.1660
18145TIP3    H175926   4.349   5.592  11.985  3.6875 -0.3797 -1.4165
18145TIP3    H275927   4.417   5.658  12.103  0.1909  0.1039  0.4536
18146TIP3   OH275928   3.732   5.503  12.759 -0.0976 -0.3049 -0.1406
18146TIP3    H175929   3.649   5.547  12.775 -0.0640 -0.4921  0.5830
18146TIP3    H275930   3.791   5.572  12.729 -0.9654 -0.4607 -2.3335
18147TIP3   OH275931   3.467   1.290   2.065 -0.1855 -0.1494 -0.3448
18147TIP3    H175932   3.507   1.276   2.150  0.2787  0.4159 -0.4577
18147TIP3    H275933   3.373   1.295   2.082 -0.4077 -3.0566 -0.2770
18148TIP3   OH275934   3.059   0.705  14.384  1.0483  0.1914 -0.8327
18148TIP3    H175935   3.078   0.740  14.297  0.5911  1.7620 -0.3261
18148TIP3    H275936   2.986   0.758  14.416  1.7566  0.1957  0.8642
18149TIP3   OH275937   2.679   1.996  14.671  0.5104 -0.0120 -0.0255
18149TIP3    H175938   2.764   2.006  14.714  0.6593 -0.0612 -0.3082
18149TIP3    H275939   2.693   2.029  14.582  0.0879  0.5035  0.0939
18150TIP3   OH275940   4.963   0.000   3.034  0.9240 -0.0286  0.2783
18150TIP3    H175941   5.009  -0.053   2.969  1.5175  0.4308  0.3123
18150TIP3    H275942   4.982   0.091   3.007  1.2349  0.1655  1.1275
18151TIP3   OH275943   3.213   4.152   5.092 -0.2810  0.4494  0.4030
18151TIP3    H175944   3.273   4.078   5.108  1.0392  1.6268  1.1445
18151TIP3    H275945   3.224   4.172   5.000  0.7334  0.8430  0.5930
18152TIP3   OH275946   1.960   4.401  11.021 -0.7864 -0.6134  0.2396
18152TIP3    H175947   2.000   4.363  10.943  2.8248 -1.5876  2.3348
18152TIP3    H275948   1.967   4.495  11.009  3.6466 -0.6563  0.9313
18153TIP3   OH275949   2.414   0.920  17.106 -0.3642  0.0516  0.0457
18153TIP3    H175950   2.509   0.917  17.117 -0.2704 -0.7783 -0.8318
18153TIP3    H275951   2.386   0.992  17.163  0.8470  0.6669 -0.0856
18154TIP3   OH275952   6.063   4.815  13.348  0.7769 -0.0974 -0.4329
18154TIP3    H175953   5.988   4.766  13.313  0.9131 -1.0050  0.5035
18154TIP3    H275954   6.137   4.788  13.293  0.7943 -0.7463 -0.1044
18155TIP3   OH275955   0.423   2.088   4.717 -0.1344 -0.3009 -0.0495
18155TIP3    H175956   0.375   2.065   4.638  2.0030 -2.1710 -0.9245
18155TIP3    H275957   0.458   2.175   4.700  0.2020 -0.6361 -1.1306
18156TIP3   OH275958   1.982   5.897  11.382  0.6546  0.2960  0.1336
18156TIP3    H175959   2.077   5.905  11.373  0.6747  0.5493  0.5234
18156TIP3    H275960   1.953   5.986  11.405  0.2089  0.4276 -0.9068
18157TIP3   OH275961   6.125   6.161  15.158 -0.1808 -0.4394  0.8424
18157TIP3    H175962   6.067   6.086  15.143 -2.1068  1.2136 -0.5539
18157TIP3    H275963   6.124   6.209  15.076  2.6848  0.0729  1.0233
18158TIP3   OH275964   1.021   6.729  13.658 -0.0179 -0.1956  0.0610
18158TIP3    H175965   1.011   6.740  13.564  0.6696 -0.9963 -0.1207
18158TIP3    H275966   1.043   6.636  13.669  2.6485  0.4240  0.7394
18159TIP3   OH275967   0.597   2.602   3.628  0.4704 -0.0897  0.2209
18159TIP3    H175968   0.583   2.692   3.597  1.7451 -0.5402 -1.8863
18159TIP3    H275969   0.510   2.564   3.633 -0.0451  1.1241  0.6442
18160TIP3   OH275970   6.225   0.109  11.654  0.1716 -0.0113  0.2016
18160TIP3    H175971   6.211   0.194  11.612 -2.3974 -0.3183  0.2517
18160TIP3    H275972   6.181   0.116  11.739 -0.9178 -1.6420 -0.1773
18161TIP3   OH275973   5.942   6.058   5.354 -0.1183 -0.0610  0.2170
18161TIP3    H175974   5.900   6.041   5.438  0.7591 -2.4834  0.2402
18161TIP3    H275975   5.998   5.982   5.339  0.2872  0.6248 -2.2371
18162TIP3   OH275976   0.727   3.683   4.695 -0.1781  0.1825  0.5729
18162TIP3    H175977   0.767   3.598   4.713 -2.3384 -2.2060 -3.9611
18162TIP3    H275978   0.801   3.741   4.675  1.2855 -1.4915  0.8885
18163TIP3   OH275979   1.106   6.275   4.021 -0.1314  0.1453 -0.3327
18163TIP3    H175980   1.196   6.245   4.025 -0.2152 -0.0170  0.5791
18163TIP3    H275981   1.056   6.198   3.995 -0.3028 -0.4664  1.6660
18164TIP3   OH275982   5.798   6.349  12.327 -0.0961  0.0341 -0.9124
18164TIP3    H175983   5.865   6.362  12.393  0.4898  2.0969 -1.8414
18164TIP3    H275984   5.719   6.389  12.364  0.3355  1.5620 -1.5752
18165TIP3   OH275985   3.059   3.590  15.980  0.0653  0.0043  0.1208
18165TIP3    H175986   3.153   3.570  15.979  0.0552 -0.0504  0.1917
18165TIP3    H275987   3.019   3.510  16.014 -0.1460 -0.5156 -1.3213
18166TIP3   OH275988   4.137   0.040  13.043 -1.2206 -0.1248  0.3163
18166TIP3    H175989   4.222   0.001  13.024 -2.1330 -2.2561  0.3593
18166TIP3    H275990   4.140   0.064  13.135  0.5156  3.1819 -0.4213
18167TIP3   OH275991   2.702   2.065  14.103 -0.1460 -0.9120  0.2403
18167TIP3    H175992   2.750   2.004  14.159 -0.3341 -1.4916 -0.2143
18167TIP3    H275993   2.687   2.015  14.022 -2.2826 -1.0636  0.6843
18168TIP3   OH275994   6.301   3.588  12.045 -0.0847  0.4792  0.0835
18168TIP3    H175995   6.369   3.652  12.067  0.0571  0.0903  0.8114
18168TIP3    H275996   6.323   3.511  12.097 -2.3741  1.1146  2.1274
18169TIP3   OH275997   5.629   0.892  14.559  0.2485 -0.1908  0.1202
18169TIP3    H175998   5.583   0.859  14.482  0.6239 -1.5431  0.4402
18169TIP3    H275999   5.591   0.843  14.633 -0.4943  1.4718  0.9023
18170TIP3   OH276000   3.532   2.623   4.199 -0.0355  0.0502 -0.1631
18170TIP3    H176001   3.504   2.598   4.287  0.5724 -0.5906 -0.1438
18170TIP3    H276002   3.605   2.684   4.213  0.8440 -0.9604 -0.2065
18171TIP3   OH276003   5.938   2.803   5.828  0.1607  0.4555 -0.6166
18171TIP3    H176004   5.962   2.847   5.909 -0.1582 -0.6274  0.0797
18171TIP3    H276005   6.016   2.755   5.802  0.3863  1.0999 -1.1753
18172TIP3   OH276006   5.154   2.676   1.421 -0.0849 -0.0451  0.3098
18172TIP3    H176007   5.137   2.620   1.345 -1.3951  0.5146  0.1615
18172TIP3    H276008   5.225   2.733   1.393 -1.3487  0.9712 -0.9687
18173TIP3   OH276009   0.520   3.117   5.488 -0.3738 -0.2910  0.3006
18173TIP3    H176010   0.472   3.184   5.440 -0.3675  1.0576  2.0938
18173TIP3    H276011   0.582   3.165   5.542 -0.1157 -1.7478  1.3861
18174TIP3   OH276012   3.118   0.519   4.217 -0.1041 -0.0532 -0.0081
18174TIP3    H176013   3.191   0.553   4.268 -0.7780  0.6828  0.5044
18174TIP3    H276014   3.083   0.447   4.269  1.3407 -1.6168 -1.1077
18175TIP3   OH276015   5.210   2.615  13.873  0.5908  0.0227 -0.2483
18175TIP3    H176016   5.295   2.607  13.918  0.6167  0.3393 -0.2351
18175TIP3    H276017   5.212   2.703  13.836  0.9363 -0.5397 -1.6215
18176TIP3   OH276018   2.683   0.392   1.609  0.3285 -0.2581  0.3966
18176TIP3    H176019   2.730   0.385   1.692  1.4389 -1.2844 -0.2901
18176TIP3    H276020   2.752   0.392   1.542 -0.5643  0.0907 -0.5468
18177TIP3   OH276021   1.429   0.308  14.514 -0.1140 -0.3221  0.5485
18177TIP3    H176022   1.435   0.224  14.560 -0.2481 -0.4957  0.2496
18177TIP3    H276023   1.412   0.285  14.423 -0.3064  0.0360  0.4910
18178TIP3   OH276024   6.112   3.333   1.371  0.0940  0.2361 -0.7114
18178TIP3    H176025   6.084   3.311   1.460  0.6675 -1.4165 -0.9122
18178TIP3    H276026   6.198   3.292   1.362  0.1717  0.6291 -1.9341
18179TIP3   OH276027   0.159   2.845   3.110 -0.0178 -0.0711 -0.1607
18179TIP3    H176028   0.110   2.914   3.066 -2.5010 -0.5187  1.7081
18179TIP3    H276029   0.155   2.770   3.050  1.1927  0.7929 -1.4059
18180TIP3   OH276030   3.115   2.385   1.547 -0.1875 -0.2116  0.0494
18180TIP3    H176031   3.186   2.343   1.498 -0.2777  0.1197 -0.3761
18180TIP3    H276032   3.062   2.311   1.578  0.4424 -0.4657  0.5336
18181TIP3   OH276033   4.212   0.018   4.142 -0.0438 -0.0681  0.5549
18181TIP3    H176034   4.162  -0.062   4.129  0.6874 -0.4639  0.1147
18181TIP3    H276035   4.198   0.069   4.062  0.6360 -0.3984  0.2162
18182TIP3   OH276036   2.099   0.864   3.360 -0.7937 -0.1399  0.1723
18182TIP3    H176037   2.193   0.846   3.362 -0.6812  0.0112 -1.8415
18182TIP3    H276038   2.075   0.858   3.268 -2.5761  0.8217  0.5200
18183TIP3   OH276039   1.882   4.622  11.451  0.5230 -0.5370  0.2105
18183TIP3    H176040   1.930   4.567  11.388 -1.3997 -1.0360 -0.8934
18183TIP3    H276041   1.919   4.599  11.536  3.2672  0.1931 -0.6645
18184TIP3   OH276042   3.307   3.286   1.636 -0.1596  0.0757 -0.4180
18184TIP3    H176043   3.219   3.296   1.597 -0.8468  0.5032  1.1762
18184TIP3    H276044   3.306   3.197   1.672 -0.8681  0.9139  1.7487
18185TIP3   OH276045   1.314   3.182  11.642 -0.8078 -0.0236  0.0928
18185TIP3    H176046   1.295   3.089  11.632 -1.4670  0.1795 -0.5813
18185TIP3    H276047   1.407   3.185  11.664 -0.6233 -0.8072 -0.5523
18186TIP3   OH276048   5.834   4.576   2.351  0.1283  0.2121  0.3492
18186TIP3    H176049   5.928   4.555   2.356  0.1677 -0.4457 -1.8858
18186TIP3    H276050   5.796   4.534   2.428  1.5645 -0.1290  0.9138
18187TIP3   OH276051   2.075   6.105  15.171  0.4153  0.0415  0.5535
18187TIP3    H176052   2.006   6.168  15.192 -0.4811 -0.1175 -1.5658
18187TIP3    H276053   2.095   6.122  15.079  1.9762 -1.0972  0.6433
18188TIP3   OH276054   0.320   6.589  16.147  0.1530 -0.3866 -0.2849
18188TIP3    H176055   0.312   6.525  16.217  0.3895  1.1285  1.1796
18188TIP3    H276056   0.403   6.633  16.164 -0.2904  0.7287 -0.9026
18189TIP3   OH276057   3.119   2.672   0.733 -0.7688 -0.0694  0.4807
18189TIP3    H176058   3.190   2.636   0.680 -0.3567 -0.1086  1.0466
18189TIP3    H276059   3.042   2.668   0.677 -0.3057  0.0352 -0.1647
18190TIP3   OH276060   5.833   0.633   0.363 -0.6699  0.1399  0.0048
18190TIP3    H176061   5.892   0.673   0.427 -0.1972 -0.5999  0.0381
18190TIP3    H276062   5.846   0.539   0.373 -3.2358 -0.1707  1.3547
18191TIP3   OH276063   4.082   6.801   2.300 -0.2122 -0.1527 -0.1612
18191TIP3    H176064   4.045   6.751   2.373 -0.0615 -1.2161 -0.8000
18191TIP3    H276065   4.026   6.879   2.295 -0.7891 -0.5048  0.5003
18192TIP3   OH276066   2.405   4.625   6.315 -0.5919 -0.4027 -0.6203
18192TIP3    H176067   2.327   4.673   6.286  1.1053  3.7371  0.8949
18192TIP3    H276068   2.390   4.610   6.409  0.5881  0.9805 -0.1781
18193TIP3   OH276069   2.960   2.728   2.221 -0.4439  0.5453  0.5817
18193TIP3    H176070   3.019   2.660   2.189 -1.5109 -0.6432  1.0410
18193TIP3    H276071   2.977   2.804   2.165 -1.2863 -1.0133 -1.9320
18194TIP3   OH276072   2.432   6.778   2.179 -0.0758  0.0213  0.1530
18194TIP3    H176073   2.359   6.782   2.242  1.7115 -0.2265  2.3568
18194TIP3    H276074   2.502   6.829   2.220  0.6363  1.3746 -2.5047
18195TIP3   OH276075   6.039   2.956  13.393 -0.5725  0.0514  0.2906
18195TIP3    H176076   6.004   2.932  13.308  0.4914  0.4367 -0.2656
18195TIP3    H276077   5.984   3.029  13.422  0.2608  1.2117 -0.9578
18196TIP3   OH276078   1.650   5.683   0.992 -0.2462  0.5708 -0.2810
18196TIP3    H176079   1.566   5.716   0.961 -0.5956  1.1142  1.1860
18196TIP3    H276080   1.715   5.737   0.947 -0.6566  0.1530 -1.4182
18197TIP3   OH276081   2.423   5.067   5.192  0.5297  0.2227 -0.1605
18197TIP3    H176082   2.345   5.025   5.229  2.3121 -1.7073  1.7197
18197TIP3    H276083   2.447   5.133   5.257  1.9257 -1.0638  0.7101
18198TIP3   OH276084   1.799   0.618   3.715 -0.4605  0.4629 -0.1532
18198TIP3    H176085   1.798   0.686   3.783  0.6643  1.2627 -0.9081
18198TIP3    H276086   1.799   0.666   3.633 -0.2140 -0.4705 -0.7088
18199TIP3   OH276087   5.370   2.631   4.429  0.4893 -0.0290 -0.9944
18199TIP3    H176088   5.299   2.569   4.416 -0.1808  0.2304  1.0103
18199TIP3    H276089   5.330   2.717   4.417  1.0694  0.0924 -2.2714
18200TIP3   OH276090   3.078   5.796   4.313 -0.8534 -0.4204  0.5620
18200TIP3    H176091   3.059   5.756   4.228 -1.6277  0.7134  0.1870
18200TIP3    H276092   3.059   5.727   4.377  0.7195 -1.6312 -0.1961
18201TIP3   OH276093   5.903   5.414  15.648 -0.3107  0.5669  0.3714
18201TIP3    H176094   5.892   5.366  15.566 -2.0396  0.2060  0.7742
18201TIP3    H276095   5.849   5.367  15.711 -1.8905  2.8207  0.8580
18202TIP3   OH276096   4.274   3.015   2.725  0.4572 -0.0001  0.5060
18202TIP3    H176097   4.281   2.964   2.645  1.3010  1.9704 -0.7549
18202TIP3    H276098   4.299   2.954   2.795 -0.1180 -1.7057 -0.7155
18203TIP3   OH276099   6.357   2.005   4.735  0.0368 -0.5507 -0.0537
18203TIP3    H176100   6.369   2.065   4.662  0.3616 -1.4716 -0.7751
18203TIP3    H276101   6.304   2.054   4.798  1.2227  0.9007 -0.1149
18204TIP3   OH276102   6.179   1.793  14.466 -0.0261 -0.1034 -0.3547
18204TIP3    H176103   6.153   1.776  14.375 -1.2955  1.1949 -0.2533
18204TIP3    H276104   6.111   1.752  14.519  0.7234 -0.8756  0.0493
18205TIP3   OH276105   1.472   1.044  13.560 -0.9751  0.2138 -0.0808
18205TIP3    H176106   1.436   1.109  13.499 -0.5504 -0.9377 -1.6024
18205TIP3    H276107   1.417   1.053  13.638 -2.6156  0.5914 -1.2211
18206TIP3   OH276108   0.879   4.105  12.523  0.4878  0.4279  0.0226
18206TIP3    H176109   0.969   4.090  12.494  0.8554 -0.2403  1.4025
18206TIP3    H276110   0.834   4.023  12.506  0.1166  0.7669 -0.6796
18207TIP3   OH276111   0.613   6.049  12.168 -0.5923  0.7567  0.3921
18207TIP3    H176112   0.618   6.141  12.193 -1.0968  0.9551 -0.1930
18207TIP3    H276113   0.525   6.021  12.194 -1.2630  1.0687 -1.3954
18208TIP3   OH276114   5.673   0.363   2.392 -0.1051 -0.2146  0.4550
18208TIP3    H176115   5.750   0.321   2.354  0.4303  1.3293 -0.2853
18208TIP3    H276116   5.708   0.415   2.464 -0.3258  1.0063 -0.2925
18209TIP3   OH276117   5.760   4.169  14.230  1.0234  0.7028  0.5179
18209TIP3    H176118   5.705   4.195  14.303  0.1137 -0.1675  0.1656
18209TIP3    H276119   5.752   4.241  14.167 -2.7904 -0.9014 -1.1728
18210TIP3   OH276120   4.993   4.782   0.143  0.2821 -0.3482 -0.2493
18210TIP3    H176121   5.040   4.833   0.078 -0.0025 -1.3634 -1.2858
18210TIP3    H276122   4.903   4.814   0.139  0.4874  0.3464  0.4469
18211TIP3   OH276123   2.706   1.034   5.020 -0.1514  0.3592 -0.1608
18211TIP3    H176124   2.630   0.981   4.997 -0.9384  0.7290  1.4930
18211TIP3    H276125   2.761   0.976   5.073  0.4572  0.2774 -0.8614
18212TIP3   OH276126   4.025   1.204   4.063 -0.1969 -0.1786  0.1093
18212TIP3    H176127   3.944   1.174   4.105 -0.2586  1.2704  1.0765
18212TIP3    H276128   3.997   1.276   4.006  0.5066  0.9197  1.1156
18213TIP3   OH276129   2.717   6.445  12.457 -0.2100 -0.5345 -0.3048
18213TIP3    H176130   2.775   6.476  12.387 -0.0225  0.2779  0.2026
18213TIP3    H276131   2.647   6.511  12.461 -0.7598 -1.0978 -0.3834
18214TIP3   OH276132   1.754   4.222  16.086 -0.0717  0.1418 -0.0434
18214TIP3    H176133   1.672   4.266  16.108 -1.0434 -1.7519  0.4123
18214TIP3    H276134   1.800   4.214  16.169 -1.1273 -1.9677  0.4017
18215TIP3   OH276135   4.328   2.342   4.564  0.2347  0.2310  0.2652
18215TIP3    H176136   4.234   2.322   4.559  0.1623  0.5529  0.2855
18215TIP3    H276137   4.332   2.438   4.557  0.6099  0.1731 -0.3825
18216TIP3   OH276138   6.221   1.770   1.236  0.6308  0.8855  0.1863
18216TIP3    H176139   6.173   1.839   1.282 -1.1190 -1.7505  2.6767
18216TIP3    H276140   6.310   1.776   1.270 -0.4402 -0.5183  3.6998
18217TIP3   OH276141   4.072   0.347  13.403  0.4918 -0.0791 -0.3712
18217TIP3    H176142   4.135   0.379  13.338  0.6606  2.1965  0.8244
18217TIP3    H276143   3.993   0.397  13.387  0.4648  0.3686  1.0230
18218TIP3   OH276144   3.903   6.380  10.972  0.1986 -0.4199  0.7917
18218TIP3    H176145   3.839   6.315  10.945 -0.8355  1.0228 -0.3832
18218TIP3    H276146   3.940   6.413  10.890 -0.3969  1.5144  1.2425
18219TIP3   OH276147   5.534   1.834   6.211 -0.3918 -0.2209  0.4488
18219TIP3    H176148   5.593   1.807   6.140 -0.6533  1.3958 -0.4174
18219TIP3    H276149   5.533   1.759   6.271  1.3860 -0.8453 -0.2521
18220TIP3   OH276150   0.992   6.309  15.573  0.4151  0.3090 -0.0360
18220TIP3    H176151   0.900   6.283  15.563  0.1820  1.4441 -1.0636
18220TIP3    H276152   0.993   6.364  15.651  0.0267  1.0928 -0.5709
18221TIP3   OH276153   6.539   0.775  13.243 -0.5364 -0.1865 -0.5271
18221TIP3    H176154   6.494   0.859  13.251 -0.3969 -0.2502  1.3396
18221TIP3    H276155   6.478   0.711  13.278 -0.2051 -0.7191 -0.9016
18222TIP3   OH276156   2.546   0.348  15.721 -0.0690  0.4183 -0.2658
18222TIP3    H176157   2.634   0.387  15.714 -0.5074  1.6467  0.6874
18222TIP3    H276158   2.557   0.276  15.782  0.1213  1.1026  0.5206
18223TIP3   OH276159   0.183   4.243   1.416 -0.1691 -0.1060  0.1268
18223TIP3    H176160   0.267   4.222   1.458  1.1998  0.7085 -2.0413
18223TIP3    H276161   0.200   4.233   1.323 -1.9647  1.9091 -0.4833
18224TIP3   OH276162   5.859   1.190  10.628 -0.0394  0.5974  0.2333
18224TIP3    H176163   5.919   1.175  10.701  0.0717 -0.8156 -0.1137
18224TIP3    H276164   5.779   1.144  10.652 -0.0665  0.2760 -0.4300
18225TIP3   OH276165   5.924   2.887   5.411  0.5095  0.3276 -0.3832
18225TIP3    H176166   5.997   2.856   5.464 -0.2964 -1.3396 -0.1662
18225TIP3    H276167   5.943   2.852   5.323 -0.0901 -0.2695 -0.2841
18226TIP3   OH276168   1.584   2.692  11.757  0.7526 -0.0978 -0.1067
18226TIP3    H176169   1.534   2.701  11.838 -4.4119  0.2173 -2.9228
18226TIP3    H276170   1.600   2.782  11.728  0.0588 -0.1703 -0.7454
18227TIP3   OH276171   5.994   1.361  10.461 -0.2553  0.0419  0.0293
18227TIP3    H176172   6.079   1.376  10.501 -0.3629  0.3254  0.1496
18227TIP3    H276173   5.957   1.287  10.510  0.6355 -1.2262 -1.1169
18228TIP3   OH276174   5.877   5.021   6.704 -0.6354  0.1172 -0.4798
18228TIP3    H176175   5.894   5.110   6.737  0.0317 -0.3506  0.4906
18228TIP3    H276176   5.815   5.034   6.632 -1.9850  1.2399  0.7899
18229TIP3   OH276177   3.500   4.799   1.646 -0.1316  0.1472  0.4450
18229TIP3    H176178   3.512   4.888   1.680 -0.8722  0.1938  0.5916
18229TIP3    H276179   3.583   4.755   1.665  0.1787  0.7572  0.5174
18230TIP3   OH276180   1.482   4.859  16.954 -0.2663  0.1369  0.6568
18230TIP3    H176181   1.391   4.834  16.971 -0.7982 -0.0327 -2.0828
18230TIP3    H276182   1.525   4.777  16.929  0.1494  0.5426  0.0351
18231TIP3   OH276183   5.734   3.564  12.652 -0.8087  0.1190  0.4296
18231TIP3    H176184   5.817   3.589  12.694 -1.0462  1.5219  0.1316
18231TIP3    H276185   5.754   3.560  12.559 -1.3353  1.7574  0.2165
18232TIP3   OH276186   4.343   1.042  16.335 -0.1204 -0.2965  0.2581
18232TIP3    H176187   4.425   1.016  16.293  0.9930 -0.4280  2.3781
18232TIP3    H276188   4.362   1.126  16.377 -1.7172  0.7149 -0.9033
18233TIP3   OH276189   6.592   1.487   1.371 -0.1186  0.3850  0.3614
18233TIP3    H176190   6.626   1.512   1.457 -1.5983  1.4649  0.6769
18233TIP3    H276191   6.544   1.564   1.341  2.2907  0.9112 -2.5355
18234TIP3   OH276192   1.821   6.447  14.259  0.7396 -0.0700  0.2625
18234TIP3    H176193   1.874   6.404  14.192 -1.7777 -2.3149 -0.4219
18234TIP3    H276194   1.783   6.523  14.214  2.0744  0.6749  0.3315
18235TIP3   OH276195   1.592   5.039  12.364  0.1517 -0.3909  0.0462
18235TIP3    H176196   1.607   4.957  12.411 -0.0487 -0.7814 -0.5594
18235TIP3    H276197   1.679   5.066  12.335  0.2308 -0.3357  0.3348
18236TIP3   OH276198   2.905   2.962   3.902 -0.2222 -0.4903 -0.0130
18236TIP3    H176199   2.942   3.021   3.968 -1.6594  1.3290 -0.7372
18236TIP3    H276200   2.812   2.960   3.922 -0.3118 -1.9044 -0.5174
18237TIP3   OH276201   2.464   4.384   4.160 -0.3080 -0.1841  0.2177
18237TIP3    H176202   2.379   4.341   4.146 -0.7523  1.1326 -1.4385
18237TIP3    H276203   2.503   4.389   4.073  2.0992 -1.8955  1.1091
18238TIP3   OH276204   2.012   6.298   0.449  0.3992 -0.4624 -0.0413
18238TIP3    H176205   2.023   6.369   0.512  0.6669 -0.0993 -0.4966
18238TIP3    H276206   2.006   6.219   0.503 -0.2630 -0.0623  0.4863
18239TIP3   OH276207   5.533   0.107   2.313  0.4573 -0.0885  0.4615
18239TIP3    H176208   5.566   0.178   2.368  0.3930  0.3821 -0.0994
18239TIP3    H276209   5.507   0.149   2.231 -0.2251 -0.6528  0.3691
18240TIP3   OH276210   6.576   0.547  11.825  0.4042 -0.3902 -0.1226
18240TIP3    H176211   6.670   0.557  11.836  0.3632 -0.1884  0.0534
18240TIP3    H276212   6.539   0.628  11.860  0.1888 -0.2916 -0.5700
18241TIP3   OH276213   3.673   5.076   2.275 -0.1642  0.2501  0.0836
18241TIP3    H176214   3.647   4.998   2.226  0.3797  0.5388 -0.6887
18241TIP3    H276215   3.599   5.136   2.268 -0.1647  0.2136 -0.2375
18242TIP3   OH276216   6.712   3.677   1.486 -0.2822  0.0139  0.1905
18242TIP3    H176217   6.730   3.590   1.522 -0.4071 -0.0573  0.0809
18242TIP3    H276218   6.616   3.683   1.484 -0.3131 -0.5054 -1.3689
18243TIP3   OH276219   4.571   0.334  10.565  0.2792  0.3383  0.4520
18243TIP3    H176220   4.538   0.406  10.511 -0.6207  0.4122  1.0719
18243TIP3    H276221   4.622   0.280  10.505 -0.6831  0.4331 -0.4846
18244TIP3   OH276222   2.942   4.553   6.008 -0.3611  0.5786  0.0006
18244TIP3    H176223   2.971   4.644   6.019  0.7020  0.2061  0.4148
18244TIP3    H276224   2.975   4.508   6.086 -2.3046  0.1598  0.6286
18245TIP3   OH276225   4.035   5.974  12.562  0.5600 -0.2556  0.5172
18245TIP3    H176226   3.949   5.959  12.523  0.2778 -0.8934  1.3592
18245TIP3    H276227   4.094   5.916  12.514  0.5230  0.1468 -0.0285
18246TIP3   OH276228   0.394   6.545   0.798 -0.2619  0.2800  0.5353
18246TIP3    H176229   0.473   6.552   0.851  0.8006  3.2156 -1.1535
18246TIP3    H276230   0.346   6.626   0.816 -2.2194 -0.7908  0.4446
18247TIP3   OH276231   3.092   4.921  16.863  1.0540  0.2113 -0.8019
18247TIP3    H176232   3.150   4.991  16.833 -0.6949  1.9584 -0.2515
18247TIP3    H276233   3.004   4.953  16.845  0.1258 -0.9263  1.4306
18248TIP3   OH276234   5.611   0.119   4.598  0.0046 -0.2915 -0.7597
18248TIP3    H176235   5.662   0.160   4.528 -0.1985  1.3043 -0.0201
18248TIP3    H276236   5.647   0.158   4.678 -1.2540 -0.4096 -0.1241
18249TIP3   OH276237   4.763   4.558   2.687 -0.3322 -0.1064 -0.5376
18249TIP3    H176238   4.851   4.588   2.711 -0.2973  1.0143 -1.9408
18249TIP3    H276239   4.704   4.604   2.748 -0.1688  1.8724 -1.7634
18250TIP3   OH276240   3.476   5.397   1.021  0.4247  0.2178 -0.0448
18250TIP3    H176241   3.566   5.370   1.037  0.0171 -1.0232  0.2375
18250TIP3    H276242   3.483   5.489   0.995  1.8423 -0.0729 -0.8159
18251TIP3   OH276243   2.456   1.486   3.064  0.2845 -0.3080 -0.5471
18251TIP3    H176244   2.499   1.481   3.150  0.2308 -0.4312 -0.5287
18251TIP3    H276245   2.366   1.511   3.084  0.6028  1.0224 -0.6441
18252TIP3   OH276246   2.390   5.445  15.712 -0.3874 -0.0449 -0.4289
18252TIP3    H176247   2.411   5.533  15.743  0.0285 -0.5101  0.6605
18252TIP3    H276248   2.309   5.422  15.758  0.3950 -0.8579  0.6108
18253TIP3   OH276249   6.829   4.921   4.797  0.3338 -0.4396  0.0714
18253TIP3    H176250   6.791   4.983   4.860 -0.4625  0.1622 -0.9699
18253TIP3    H276251   6.754   4.874   4.760  0.7853 -0.7864 -0.4252
18254TIP3   OH276252   3.608   4.115   1.764  0.2236 -0.3209  0.0455
18254TIP3    H176253   3.542   4.183   1.754  0.9235  0.3075 -0.4334
18254TIP3    H276254   3.630   4.116   1.857 -0.3096 -0.4160  0.1740
18255TIP3   OH276255   3.639   1.557  14.057  0.3586 -0.2597 -0.6154
18255TIP3    H176256   3.673   1.566  14.145 -0.5400  0.1246 -0.2972
18255TIP3    H276257   3.664   1.638  14.012 -0.3718  0.1576 -0.2910
18256TIP3   OH276258   2.575   3.326   2.141  0.4613 -0.2716 -0.5938
18256TIP3    H176259   2.656   3.353   2.097  0.2713 -2.3152 -2.3549
18256TIP3    H276260   2.529   3.271   2.077 -1.4499 -0.7012  1.0176
18257TIP3   OH276261   0.670   6.781  13.305  0.0411  0.1908  0.0518
18257TIP3    H176262   0.583   6.818  13.291 -0.4114 -0.4771  0.9954
18257TIP3    H276263   0.656   6.686  13.303  0.4994  0.0633  1.5646
18258TIP3   OH276264   4.684   6.284  14.712 -0.1096  0.1365  0.0162
18258TIP3    H176265   4.763   6.233  14.732  1.2701  1.0945 -2.4584
18258TIP3    H276266   4.708   6.374  14.733 -0.3823  0.4895 -1.1105
18259TIP3   OH276267   6.831   0.718  16.552  0.1428  0.0059  0.2303
18259TIP3    H176268   6.778   0.741  16.476  0.7161  1.1673  0.1633
18259TIP3    H276269   6.920   0.709  16.518  0.2152 -0.6321  0.5700
18260TIP3   OH276270   4.018   1.824  13.327  0.1332  0.3155 -0.1694
18260TIP3    H176271   4.072   1.807  13.404  1.1083 -0.3786 -0.9657
18260TIP3    H276272   4.063   1.897  13.283 -0.2546  0.5141 -0.2442
18261TIP3   OH276273   3.892   0.005  11.002  0.2109  0.0424  0.3579
18261TIP3    H176274   3.977  -0.021  10.967 -0.7315 -0.0263 -2.1413
18261TIP3    H276275   3.900   0.098  11.021  0.2261  0.6486 -2.2349
18262TIP3   OH276276   2.529   6.675   2.558 -0.0933  0.0819 -0.4081
18262TIP3    H176277   2.460   6.657   2.495 -2.0538 -0.3549  1.7179
18262TIP3    H276278   2.579   6.594   2.564  0.0379  0.0951 -1.3050
18263TIP3   OH276279   1.605   5.006   2.349  0.2932  0.6996  0.0738
18263TIP3    H176280   1.552   5.086   2.344 -2.3789 -0.9982 -0.7047
18263TIP3    H276281   1.660   5.009   2.271  0.2318  1.7651  0.0601
18264TIP3   OH276282   4.338   1.982   0.347  0.3855 -0.0475  0.6126
18264TIP3    H176283   4.392   2.060   0.363 -0.7442  0.8985 -0.0272
18264TIP3    H276284   4.274   2.010   0.282 -0.5451 -1.2975  0.9547
18265TIP3   OH276285   0.219   3.207  10.493 -0.5032  0.3020  0.2781
18265TIP3    H176286   0.263   3.276  10.443 -0.2835 -1.1280 -1.5955
18265TIP3    H276287   0.126   3.229  10.487 -0.4023  0.6967  0.1149
18266TIP3   OH276288   0.679   3.779  15.552 -0.7545  0.0097  0.2626
18266TIP3    H176289   0.747   3.711  15.552 -1.1754 -0.4245 -0.4072
18266TIP3    H276290   0.723   3.858  15.583  0.2520 -0.0819 -0.8743
18267TIP3   OH276291   5.546   4.954   4.502  0.5129 -0.1901 -0.0350
18267TIP3    H176292   5.497   4.999   4.571  1.4232  0.1041  0.4462
18267TIP3    H276293   5.480   4.923   4.441 -0.3334 -0.7048  1.1205
18268TIP3   OH276294   6.280   6.762  13.351 -0.6745  0.3488 -0.6803
18268TIP3    H176295   6.295   6.771  13.257  0.1240 -1.3677 -0.7648
18268TIP3    H276296   6.213   6.693  13.357  0.6506 -0.9376  0.0051
18269TIP3   OH276297   0.990   5.421   5.640 -0.2747 -0.1218 -0.2759
18269TIP3    H176298   1.082   5.396   5.632 -0.2049 -0.2250  0.7843
18269TIP3    H276299   0.991   5.517   5.639 -0.1595 -0.1232 -0.2664
18270TIP3   OH276300   2.093   0.512  10.975 -0.0831  0.4433  0.0566
18270TIP3    H176301   2.102   0.441  10.912 -0.6108  2.4223 -2.4018
18270TIP3    H276302   2.148   0.583  10.941  1.8941  0.7274  3.3679
18271TIP3   OH276303   2.181   0.680   2.167  0.2084 -0.0611  0.5710
18271TIP3    H176304   2.093   0.656   2.196  0.3915 -0.0646  1.1381
18271TIP3    H276305   2.167   0.741   2.095 -0.2992  1.7871  2.1421
18272TIP3   OH276306   1.464   0.311   5.005 -0.1633 -0.9761  0.0618
18272TIP3    H176307   1.526   0.238   4.997  1.1831  0.1896 -0.5527
18272TIP3    H276308   1.461   0.349   4.917  3.4320  3.0251  1.3219
18273TIP3   OH276309   1.423   0.066  15.456  0.1811  0.1329  0.1568
18273TIP3    H176310   1.502   0.120  15.451  0.7920 -0.6394  1.1351
18273TIP3    H276311   1.429   0.022  15.541 -1.2183 -0.0805  0.1773
18274TIP3   OH276312   3.103   2.166   3.395 -0.0274  0.0525  0.3373
18274TIP3    H176313   3.111   2.080   3.353 -1.3595  0.9504 -1.9297
18274TIP3    H276314   3.166   2.221   3.349 -1.1509  0.9393 -0.1882
18275TIP3   OH276315   0.354   2.063  13.979  0.2581  0.2557  0.0866
18275TIP3    H176316   0.333   2.105  14.062  0.0017  1.2681 -0.4683
18275TIP3    H276317   0.269   2.033  13.946  0.3826 -0.2997  0.2730
18276TIP3   OH276318   6.539   3.616  15.398  0.1557  0.0105  0.2939
18276TIP3    H176319   6.509   3.529  15.422  0.2577 -0.4661 -1.2002
18276TIP3    H276320   6.579   3.605  15.312  1.9233  1.1866  0.9020
18277TIP3   OH276321   0.646   2.369   1.440  0.1668 -0.3220 -0.3904
18277TIP3    H176322   0.553   2.373   1.461  0.2182 -1.1009  0.0227
18277TIP3    H276323   0.679   2.294   1.490  1.0980  0.1746 -0.2319
18278TIP3   OH276324   4.085   2.251   0.541 -0.3923 -0.1321  0.5538
18278TIP3    H176325   4.179   2.255   0.556 -0.2044 -0.9936 -0.2866
18278TIP3    H276326   4.048   2.222   0.625 -0.1242  1.9652  1.4539
18279TIP3   OH276327   0.279   2.047   5.171  0.2580  0.3483 -0.8099
18279TIP3    H176328   0.246   1.976   5.227  1.1120  0.2584 -0.4038
18279TIP3    H276329   0.200   2.092   5.141 -0.4249 -1.8451 -2.5519
18280TIP3   OH276330   4.936   5.717   4.342  0.0485 -0.1209 -0.2234
18280TIP3    H176331   4.846   5.736   4.369  0.0810 -2.0777  1.5733
18280TIP3    H276332   4.987   5.791   4.374 -0.5064 -0.5539  1.8539
18281TIP3   OH276333   0.874   0.608   3.604 -0.2559 -0.2176 -1.0769
18281TIP3    H176334   0.900   0.638   3.517  0.1424  3.2862  0.0767
18281TIP3    H276335   0.952   0.623   3.659 -1.6919  1.4943  0.6170
18282TIP3   OH276336   0.608   3.321  14.119 -0.0178 -0.3622  0.2825
18282TIP3    H176337   0.547   3.269  14.172 -0.3866 -1.0372 -0.7616
18282TIP3    H276338   0.693   3.278  14.132  0.0997  0.0897  1.1006
18283TIP3   OH276339   5.597   0.055  14.151 -0.5279  0.4887  0.4477
18283TIP3    H176340   5.525   0.096  14.200 -1.0101  0.5131 -0.2603
18283TIP3    H276341   5.656   0.021  14.218 -1.6474 -0.3219  1.0631
18284TIP3   OH276342   4.198   1.059  14.441  0.3092  0.4901 -0.0470
18284TIP3    H176343   4.283   1.016  14.444  1.1123  1.9629 -0.6812
18284TIP3    H276344   4.217   1.149  14.415 -1.4776  0.7706 -0.5467
18285TIP3   OH276345   1.573   1.832   4.599 -0.0411 -0.1169  0.0984
18285TIP3    H176346   1.514   1.833   4.675 -1.9265  0.8330 -1.2950
18285TIP3    H276347   1.637   1.763   4.620 -1.3975 -0.9368  1.8738
18286TIP3   OH276348   6.091   2.497  11.932 -0.4400 -0.0120  0.7914
18286TIP3    H176349   6.043   2.519  11.852 -1.6528  0.8113  1.7037
18286TIP3    H276350   6.026   2.451  11.987  1.0844 -3.0001  0.2918
18287TIP3   OH276351   0.088   4.010  12.253 -0.5189  0.2700 -0.6595
18287TIP3    H176352   0.073   3.990  12.346 -1.0810  0.9021 -0.6102
18287TIP3    H276353   0.094   3.925  12.211 -3.0351 -0.0578 -0.4846
18288TIP3   OH276354   2.773   3.670  14.136 -0.3954  0.0051  0.2974
18288TIP3    H176355   2.720   3.590  14.136 -1.2123  0.5288 -0.3179
18288TIP3    H276356   2.834   3.658  14.209  0.2750 -1.6778 -0.4764
18289TIP3   OH276357   6.518   6.621   5.376 -0.1550  0.5745 -0.0130
18289TIP3    H176358   6.592   6.621   5.436 -0.9794 -1.2839  1.0680
18289TIP3    H276359   6.445   6.587   5.427 -0.9059 -1.0798 -2.0452
18290TIP3   OH276360   1.845   3.696  14.578  0.4539  0.6796 -0.0154
18290TIP3    H176361   1.892   3.778  14.562  0.9966  0.2985 -0.3990
18290TIP3    H276362   1.909   3.639  14.619  1.7744 -1.3340 -4.2790
18291TIP3   OH276363   6.273   2.981   2.660 -0.2979 -0.1754 -0.3295
18291TIP3    H176364   6.354   2.939   2.632 -1.8512 -2.5408 -1.6474
18291TIP3    H276365   6.251   3.041   2.589  0.5871  0.9503  0.3276
18292TIP3   OH276366   4.134   2.005   2.339  0.1646  0.1367  0.0730
18292TIP3    H176367   4.178   1.956   2.408 -0.4151  0.4714  0.6925
18292TIP3    H276368   4.191   1.996   2.262  0.0871 -1.4626  0.1793
18293TIP3   OH276369   3.705   4.541  16.937 -0.0680  0.3373 -0.0954
18293TIP3    H176370   3.656   4.618  16.967 -2.1232 -0.8851 -0.1560
18293TIP3    H276371   3.686   4.536  16.843 -1.1415 -1.0081  0.1563
18294TIP3   OH276372   0.004   5.993  16.522 -0.3849 -0.0365  0.0044
18294TIP3    H176373  -0.006   6.087  16.503 -0.1583 -0.2647 -1.3032
18294TIP3    H276374   0.080   5.989  16.581 -0.3840  0.5919  0.0562
18295TIP3   OH276375   2.456   4.006   4.881 -0.6050  0.7725  0.2822
18295TIP3    H176376   2.453   4.023   4.787 -2.0565  0.9828  0.3349
18295TIP3    H276377   2.491   4.087   4.919  1.1842  0.2347 -0.1450
18296TIP3   OH276378   0.534   0.435   5.842 -0.6197 -0.4610  0.7487
18296TIP3    H176379   0.572   0.380   5.772 -0.0673 -1.6996  1.9764
18296TIP3    H276380   0.610   0.467   5.891 -0.8792  2.0056 -0.2944
18297TIP3   OH276381   6.068   4.340   4.182  0.0649 -0.6398 -0.4004
18297TIP3    H176382   6.156   4.310   4.206  0.3584 -0.4357 -1.1804
18297TIP3    H276383   6.040   4.278   4.115  1.2011  1.4673 -3.0149
18298TIP3   OH276384   2.229   6.326   1.905 -0.1268  0.2139  0.0461
18298TIP3    H176385   2.216   6.243   1.859  0.8533  0.3612 -0.5258
18298TIP3    H276386   2.306   6.364   1.863  0.0446  0.9322  1.0006
18299TIP3   OH276387   2.950   1.462  16.879  0.4185 -0.5081 -0.2216
18299TIP3    H176388   2.901   1.475  16.797  1.6901  0.1591 -0.9215
18299TIP3    H276389   2.885   1.469  16.948 -0.5020  0.1729 -1.1318
18300TIP3   OH276390   5.862   4.487  15.665 -0.2077 -0.4726  0.1132
18300TIP3    H176391   5.781   4.493  15.716  0.9221 -0.4319  1.9805
18300TIP3    H276392   5.838   4.523  15.579 -2.3223 -1.0614  0.3865
18301TIP3   OH276393   4.593   2.608   1.905  0.2095  0.4618  0.3032
18301TIP3    H176394   4.622   2.667   1.975 -0.3038 -1.6774  2.4958
18301TIP3    H276395   4.674   2.565   1.876  0.2283  0.0897  0.8800
18302TIP3   OH276396   3.088   2.739  10.625 -0.5985 -0.0514 -0.1856
18302TIP3    H176397   3.080   2.661  10.569  0.8659  1.5039 -2.7525
18302TIP3    H276398   3.159   2.789  10.586 -0.6849  2.0196  2.1131
18303TIP3   OH276399   2.436   1.593  11.722  0.7163 -0.0763  0.2662
18303TIP3    H176400   2.482   1.509  11.713 -1.0298 -1.1111  0.4664
18303TIP3    H276401   2.463   1.643  11.645  1.9814 -0.7107  0.2672
18304TIP3   OH276402   2.963   1.303  11.591 -0.3589 -0.2219  0.1850
18304TIP3    H176403   2.992   1.393  11.607 -0.7443 -0.4397  2.4050
18304TIP3    H276404   2.956   1.264  11.678 -0.3010 -2.3898 -0.7145
18305TIP3   OH276405   1.737   6.364   1.495  0.2474  0.5243  0.2976
18305TIP3    H176406   1.649   6.400   1.510 -0.5330 -0.6535 -1.1133
18305TIP3    H276407   1.776   6.424   1.430 -0.1060  0.2166 -0.2070
18306TIP3   OH276408   6.714   6.377   6.862  0.3176  0.2640 -0.1891
18306TIP3    H176409   6.741   6.295   6.822 -0.3801 -0.3726  0.5955
18306TIP3    H276410   6.793   6.431   6.863  0.4619  0.1366 -1.9669
18307TIP3   OH276411   6.479   3.560  15.697 -0.5469  0.1983  0.2340
18307TIP3    H176412   6.464   3.644  15.653 -1.4860 -0.1096 -0.0589
18307TIP3    H276413   6.474   3.495  15.627  0.2846 -0.1023  0.4459
18308TIP3   OH276414   2.151   4.522  13.121 -0.4642 -0.3332  0.0761
18308TIP3    H176415   2.119   4.565  13.200  0.9641  2.1993 -0.5837
18308TIP3    H276416   2.205   4.450  13.153 -0.5301  0.1711  1.3878
18309TIP3   OH276417   5.144   5.863   6.102 -0.1965  0.3310 -0.2822
18309TIP3    H176418   5.174   5.806   6.032  1.2852  0.8855 -0.1215
18309TIP3    H276419   5.061   5.899   6.070 -0.9271 -1.4909 -0.5945
18310TIP3   OH276420   4.672   3.078   5.919 -0.3348  0.0430 -0.0392
18310TIP3    H176421   4.614   3.006   5.942  0.6147 -0.9019 -0.5151
18310TIP3    H276422   4.622   3.157   5.940 -2.5149 -0.6707 -2.0664
18311TIP3   OH276423   0.475   3.276  15.182  0.2206 -0.1293 -0.2741
18311TIP3    H176424   0.498   3.362  15.148 -2.2543  1.0669  0.8166
18311TIP3    H276425   0.402   3.247  15.127  0.2369 -0.9939  0.1410
18312TIP3   OH276426   3.110   1.559  14.902  0.0880  0.2225 -0.0815
18312TIP3    H176427   3.033   1.614  14.915 -0.6528 -0.5180 -1.0775
18312TIP3    H276428   3.171   1.615  14.854 -0.1890  0.5466 -0.0624
18313TIP3   OH276429   1.572   3.260   3.854 -0.2543 -0.0103 -0.0139
18313TIP3    H176430   1.500   3.244   3.915  0.4493 -1.7757  0.3998
18313TIP3    H276431   1.530   3.304   3.780 -1.5081  0.2266  0.7992
18314TIP3   OH276432   2.784   4.675  16.559 -0.0967  0.1386 -0.0559
18314TIP3    H176433   2.861   4.727  16.536 -0.5247  0.4477 -0.7942
18314TIP3    H276434   2.808   4.586  16.534 -0.5130  0.4502 -1.6358
18315TIP3   OH276435   3.834   0.410   6.177 -0.1087  0.5260 -0.2027
18315TIP3    H176436   3.892   0.481   6.148 -1.5418  1.8380  0.0509
18315TIP3    H276437   3.760   0.413   6.117 -0.4466 -0.4193  0.1489
18316TIP3   OH276438   1.037   4.171   5.825  0.5633 -0.1589  0.0597
18316TIP3    H176439   0.967   4.174   5.889  0.7816 -0.0952  0.2982
18316TIP3    H276440   1.008   4.230   5.755  0.2077 -0.4318 -0.0248
18317TIP3   OH276441   3.346   5.200  11.897  0.1339 -0.2683 -0.1902
18317TIP3    H176442   3.346   5.205  11.802 -0.7561 -3.5403 -0.4786
18317TIP3    H276443   3.255   5.218  11.921 -0.3382 -2.2850 -0.2840
18318TIP3   OH276444   0.926   5.170   4.934  0.1631 -0.0539 -0.5499
18318TIP3    H176445   0.906   5.228   4.860  0.1205 -1.4571 -1.6912
18318TIP3    H276446   1.016   5.139   4.917 -0.2266 -1.2128 -0.6236
18319TIP3   OH276447   2.021   5.421  14.002  0.1319 -0.0113 -0.3047
18319TIP3    H176448   2.025   5.412  14.097  0.8461  0.6123 -0.2647
18319TIP3    H276449   2.003   5.333  13.970  0.1059 -0.2631  0.3961
18320TIP3   OH276450   5.093   4.296  12.678 -0.4595 -0.3389  0.5758
18320TIP3    H176451   5.056   4.304  12.590  1.1954  0.5470 -0.0886
18320TIP3    H276452   5.184   4.268  12.664  0.3557  1.4257  1.8718
18321TIP3   OH276453   1.544   3.482  11.189 -0.4386  0.0158 -0.3721
18321TIP3    H176454   1.623   3.535  11.176 -1.3054  1.0267 -1.8344
18321TIP3    H276455   1.503   3.479  11.103 -0.9481 -2.2629 -0.1102
18322TIP3   OH276456   3.897   3.959   1.108  0.3910  0.7374  0.3761
18322TIP3    H176457   3.963   3.894   1.083  0.3979  0.8391  0.1335
18322TIP3    H276458   3.903   4.027   1.042 -0.0592  0.6759  0.2638
18323TIP3   OH276459   1.265   4.802   0.171  0.0930 -0.0807 -0.3668
18323TIP3    H176460   1.307   4.887   0.183  0.1892 -0.3655  1.6134
18323TIP3    H276461   1.200   4.817   0.102  0.8528  1.3096 -0.8090
18324TIP3   OH276462   4.122   0.106   1.328  0.5722 -0.1135  0.0529
18324TIP3    H176463   4.175   0.045   1.275 -1.1412 -1.0310 -0.6823
18324TIP3    H276464   4.097   0.175   1.267 -0.0178 -0.2872  0.0941
18325TIP3   OH276465   1.398   0.644  10.435 -0.5150  0.4887  0.1613
18325TIP3    H176466   1.306   0.660  10.456 -1.0917 -0.8368 -1.1745
18325TIP3    H276467   1.396   0.568  10.377  1.4498  0.3326  0.2472
18326TIP3   OH276468   5.308   6.369  11.341  0.3445 -0.1107  0.2812
18326TIP3    H176469   5.230   6.418  11.314 -0.1048 -2.2348 -2.8156
18326TIP3    H276470   5.381   6.429  11.324 -0.4014  0.7685  0.0971
18327TIP3   OH276471   2.152   5.571  11.926  0.2313  0.0273  0.4464
18327TIP3    H176472   2.114   5.522  11.999 -2.0009 -0.8420 -1.1840
18327TIP3    H276473   2.208   5.507  11.882 -0.9796 -0.4704 -0.4263
18328TIP3   OH276474   6.507   0.311  16.259  0.2096  0.1348 -0.2694
18328TIP3    H176475   6.473   0.278  16.342 -1.4811 -1.3702 -1.4813
18328TIP3    H276476   6.601   0.320  16.273  0.5421 -3.5607  0.7744
18329TIP3   OH276477   5.329   3.748  11.494  0.2635  0.1002  0.4669
18329TIP3    H176478   5.323   3.799  11.414  0.7787 -1.2971 -0.4880
18329TIP3    H276479   5.422   3.741  11.512  0.1535  3.0577  3.0095
18330TIP3   OH276480   2.828   2.671   1.790 -0.1196 -0.3793 -0.0243
18330TIP3    H176481   2.793   2.742   1.845 -1.8730 -2.4077  1.6798
18330TIP3    H276482   2.800   2.591   1.834  2.2312 -2.1873 -1.5580
18331TIP3   OH276483   3.641   5.568  15.603 -0.6525 -0.4002 -0.1346
18331TIP3    H176484   3.701   5.493  15.603  0.4313  0.4098  1.6472
18331TIP3    H276485   3.581   5.550  15.675 -0.6210  0.2586  0.0560
18332TIP3   OH276486   3.785   4.792  15.641  1.1933  0.0711 -0.0682
18332TIP3    H176487   3.699   4.786  15.683  0.8740 -0.7321 -0.8196
18332TIP3    H276488   3.831   4.858  15.693  1.0441 -1.3005  1.9628
18333TIP3   OH276489   4.169   3.693  15.140 -0.1792 -0.0400  0.2332
18333TIP3    H176490   4.120   3.644  15.206  1.7751 -1.1102  0.9521
18333TIP3    H276491   4.257   3.701  15.175  0.4512  0.9848 -1.4377
18334TIP3   OH276492   0.896   0.688   4.962 -0.2153 -0.2030 -0.5099
18334TIP3    H176493   0.984   0.699   4.925 -0.2213  1.2860 -0.1390
18334TIP3    H276494   0.871   0.775   4.991 -1.7659 -0.6333 -0.4501
18335TIP3   OH276495   3.484   3.466  14.354 -0.2554 -0.9628  0.0979
18335TIP3    H176496   3.501   3.437  14.264  0.5307  0.2922 -0.1742
18335TIP3    H276497   3.564   3.443  14.401  0.1301  0.1896  0.0167
18336TIP3   OH276498   1.381   4.003   0.253 -0.2328  0.0167  0.5882
18336TIP3    H176499   1.390   4.019   0.347  0.0755 -0.7588  0.6962
18336TIP3    H276500   1.321   4.072   0.223  1.4826  1.7426  0.9197
18337TIP3   OH276501   1.363   2.257  15.290  0.0013  0.0994 -0.3657
18337TIP3    H176502   1.337   2.259  15.382 -0.9443  2.4087 -0.6194
18337TIP3    H276503   1.394   2.345  15.272  1.9509 -0.8113 -1.8255
18338TIP3   OH276504   3.859   4.045   6.091 -0.0331  0.5460 -0.1267
18338TIP3    H176505   3.849   3.992   6.012  1.5320  0.7358 -0.4895
18338TIP3    H276506   3.948   4.081   6.084 -0.6965  2.4208  0.5963
18339TIP3   OH276507   3.182   3.934  10.968  0.3677  1.1154 -0.1592
18339TIP3    H176508   3.101   3.884  10.955  0.6555  0.2667  1.1484
18339TIP3    H276509   3.213   3.951  10.879  0.0873 -0.7795 -0.6644
18340TIP3   OH276510   1.383   3.426   2.925 -0.6012  0.2937 -0.7380
18340TIP3    H176511   1.454   3.375   2.886 -1.0709 -1.2052  0.2955
18340TIP3    H276512   1.381   3.507   2.873  2.2137  0.6569 -0.4363
18341TIP3   OH276513   6.412   4.079   1.693 -0.5054  0.3853 -0.6445
18341TIP3    H176514   6.432   4.014   1.626 -1.9535 -0.7726  0.0110
18341TIP3    H276515   6.319   4.097   1.683 -0.2856  1.8377 -0.3357
18342TIP3   OH276516   2.478   5.595  12.889  0.7818  0.0869 -1.0788
18342TIP3    H176517   2.451   5.598  12.797 -1.4464  1.7851 -0.4649
18342TIP3    H276518   2.409   5.643  12.935  1.6813 -0.9833  1.5317
18343TIP3   OH276519   1.594   2.455  14.932  0.1965  0.3567  0.3456
18343TIP3    H176520   1.579   2.369  14.971  0.5562  0.1161 -0.0295
18343TIP3    H276521   1.628   2.509  15.004 -2.2494  0.8823  1.1739
18344TIP3   OH276522   2.168   6.024   2.251 -0.0195  0.1257  0.3907
18344TIP3    H176523   2.196   5.952   2.308  0.8721  0.2178  0.0965
18344TIP3    H276524   2.192   5.995   2.163 -1.9646 -0.2951 -0.0461
18345TIP3   OH276525   4.676   5.472  11.599 -0.5119  0.0899  0.3020
18345TIP3    H176526   4.606   5.450  11.661  0.3210  3.6815  2.8093
18345TIP3    H276527   4.749   5.499  11.653  2.1048 -1.1960 -2.2872
18346TIP3   OH276528   0.741   1.138   5.352  0.3494 -0.2817  0.1261
18346TIP3    H176529   0.762   1.188   5.273 -2.6710 -0.3070 -0.8252
18346TIP3    H276530   0.742   1.047   5.324 -0.4608 -0.3073  0.1551
18347TIP3   OH276531   2.887   5.621   3.523  0.3746 -0.4520 -0.6375
18347TIP3    H176532   2.804   5.667   3.526  2.2307  3.1855  1.0070
18347TIP3    H276533   2.904   5.594   3.613  2.3657  1.8920 -0.2019
18348TIP3   OH276534   2.039   3.646  11.454  0.0432  0.0083 -0.2701
18348TIP3    H176535   2.121   3.626  11.499 -0.3454  2.1923  1.5891
18348TIP3    H276536   2.067   3.696  11.377  0.4894  0.4952  0.1985
18349TIP3   OH276537   5.140   0.307   4.124  0.4025  0.2731  0.0423
18349TIP3    H176538   5.171   0.316   4.214 -2.3780  2.0885  0.9560
18349TIP3    H276539   5.128   0.397   4.094 -0.9285 -0.3095 -1.2875
18350TIP3   OH276540   2.999   1.360   5.448 -0.3672  0.0819  0.5417
18350TIP3    H176541   3.027   1.450   5.436  0.3752  0.0694  1.9983
18350TIP3    H276542   2.941   1.343   5.374  0.2256  1.4407 -0.2637
18351TIP3   OH276543   5.859   3.381  11.150 -0.1803 -0.2608  0.0222
18351TIP3    H176544   5.798   3.449  11.177 -1.1612 -1.0867 -0.0636
18351TIP3    H276545   5.919   3.425  11.090 -0.1424  0.7660  0.7780
18352TIP3   OH276546   0.267   3.011  16.715 -0.2152  0.4456  0.2404
18352TIP3    H176547   0.357   3.007  16.683 -1.1215 -1.3412 -2.4088
18352TIP3    H276548   0.274   2.985  16.807  1.9279  0.1673  0.0647
18353TIP3   OH276549   4.674   3.650   4.071  0.4383 -0.2364  0.2238
18353TIP3    H176550   4.580   3.666   4.067  0.7275  1.2615 -2.4504
18353TIP3    H276551   4.713   3.737   4.077  1.7049 -0.6972 -0.8510
18354TIP3   OH276552   1.371   5.265  13.460  0.3032  1.0480  0.1709
18354TIP3    H176553   1.300   5.300  13.406  0.5854 -0.0294 -0.9498
18354TIP3    H276554   1.326   5.221  13.532 -0.1184  1.5283  0.2092
18355TIP3   OH276555   5.275   2.889   3.037 -0.3345  0.2562 -0.7966
18355TIP3    H176556   5.199   2.897   3.095  1.6305  1.8876  1.7858
18355TIP3    H276557   5.306   2.799   3.050 -0.1316  0.4847  0.5457
18356TIP3   OH276558   0.035   6.635   1.995  0.5102 -0.1107  0.7481
18356TIP3    H176559   0.088   6.569   1.951 -2.0464 -0.9457 -1.3479
18356TIP3    H276560   0.010   6.595   2.078  1.6899 -0.3716  0.9983
18357TIP3   OH276561   3.916   6.329  16.749  0.4983  0.3286  0.5149
18357TIP3    H176562   3.928   6.387  16.673 -0.1605 -1.0611 -0.6951
18357TIP3    H276563   4.005   6.305  16.775  0.7287 -0.3396 -0.7791
18358TIP3   OH276564   0.373   1.945  13.439  0.0286 -0.4174 -0.0737
18358TIP3    H176565   0.404   1.854  13.430 -2.5447 -1.7065  2.4023
18358TIP3    H276566   0.397   1.969  13.528 -1.1547  0.5362  0.0096
18359TIP3   OH276567   6.528   0.050   1.799  0.4736  0.4368  0.6205
18359TIP3    H176568   6.513  -0.035   1.757  0.1056  0.4333  0.7603
18359TIP3    H276569   6.537   0.030   1.892  1.1346  0.4639  0.5676
18360TIP3   OH276570   3.733   1.806  14.583  0.1924 -0.1525 -0.1696
18360TIP3    H176571   3.651   1.759  14.571  1.8093 -2.9631 -0.9813
18360TIP3    H276572   3.779   1.797  14.500  0.7041  2.8627 -0.3539
18361TIP3   OH276573   0.422   3.093   6.420 -0.7798  0.0507  0.9418
18361TIP3    H176574   0.410   3.165   6.482 -0.5719 -0.1530  1.2192
18361TIP3    H276575   0.444   3.018   6.474  1.3500  0.2963  0.4892
18362TIP3   OH276576   4.251   0.315   3.735 -0.4931 -0.5859 -0.9705
18362TIP3    H176577   4.174   0.327   3.678 -0.1437 -1.4099 -1.6469
18362TIP3    H276578   4.319   0.283   3.676  1.0756  2.2168 -0.8229
18363TIP3   OH276579   0.733   6.657  14.305 -0.4264 -0.4585  0.3302
18363TIP3    H176580   0.772   6.712  14.237 -2.4227 -0.7385 -1.1278
18363TIP3    H276581   0.639   6.664  14.290 -0.8083 -4.3538 -0.0680
18364TIP3   OH276582   4.233   5.682  13.550 -0.1802  0.0901 -0.3455
18364TIP3    H176583   4.157   5.678  13.492 -1.0700 -0.8791  0.8263
18364TIP3    H276584   4.208   5.745  13.618  0.3769  0.3322 -0.3584
18365TIP3   OH276585   4.958   6.282  13.634 -0.2162 -0.3662  0.0477
18365TIP3    H176586   4.870   6.250  13.656 -0.7285 -1.0575 -2.6133
18365TIP3    H276587   5.010   6.202  13.624  0.7902  0.0414  1.6641
18366TIP3   OH276588   2.347   2.540  12.493 -0.1388 -0.1078  0.1490
18366TIP3    H176589   2.279   2.606  12.476  0.9262  1.6006  2.1001
18366TIP3    H276590   2.365   2.547  12.587  3.6314  0.4780 -0.4578
18367TIP3   OH276591   4.809   2.823  17.003 -0.2370 -0.4883  0.0552
18367TIP3    H176592   4.826   2.839  16.910  0.1459 -0.9533  0.0364
18367TIP3    H276593   4.782   2.907  17.038  2.2538  0.3727  0.0945
18368TIP3   OH276594   2.062   6.039  10.670  1.0291 -0.1345 -0.2816
18368TIP3    H176595   1.979   6.084  10.689  1.1230 -0.4109  0.8320
18368TIP3    H276596   2.129   6.101  10.698  1.2164  0.1794 -1.3915
18369TIP3   OH276597   5.177   2.102  14.224  0.4141 -0.0383 -0.3938
18369TIP3    H176598   5.261   2.070  14.257 -0.4275 -3.1459 -1.0138
18369TIP3    H276599   5.139   2.150  14.297  1.9054 -0.1659  0.5018
18370TIP3   OH276600   2.248   4.270  15.589 -0.2451 -0.4310 -0.5158
18370TIP3    H176601   2.292   4.192  15.623 -0.0272 -0.0202  0.1669
18370TIP3    H276602   2.276   4.275  15.498  3.7169  1.5105  0.5776
18371TIP3   OH276603   0.258   2.429  12.026 -0.2101  0.2605  0.3038
18371TIP3    H176604   0.318   2.360  11.998 -0.6779 -0.0791  0.1228
18371TIP3    H276605   0.294   2.460  12.110 -0.4688 -0.8059  0.8228
18372TIP3   OH276606   6.404   6.683   0.767  0.3221  0.1041 -0.2353
18372TIP3    H176607   6.361   6.749   0.712 -0.9471 -1.0512 -0.6799
18372TIP3    H276608   6.380   6.709   0.857 -1.7821 -0.7672 -0.4865
18373TIP3   OH276609   1.747   2.681   1.181 -0.6362 -0.8730  0.2341
18373TIP3    H176610   1.814   2.716   1.123 -0.3228  1.8386  2.0444
18373TIP3    H276611   1.795   2.629   1.246 -0.7900 -2.3491 -0.7950
18374TIP3   OH276612   4.520   2.395   1.363 -0.2708 -0.4790 -0.1960
18374TIP3    H176613   4.544   2.482   1.330 -0.6837  0.2397  1.3105
18374TIP3    H276614   4.596   2.341   1.344 -0.1049  0.1382 -1.3840
18375TIP3   OH276615   4.951   6.434   1.524 -0.4333 -0.2953 -0.2559
18375TIP3    H176616   4.895   6.461   1.597  0.1116  1.3528 -0.3988
18375TIP3    H276617   4.909   6.472   1.447  0.2430 -0.0215 -0.5001
18376TIP3   OH276618   2.719   1.373   2.143 -0.0870 -0.1629  0.0531
18376TIP3    H176619   2.697   1.447   2.200 -0.4183 -0.2073 -0.0178
18376TIP3    H276620   2.697   1.403   2.055  1.0963  0.1722 -0.1447
18377TIP3   OH276621   3.115   1.548   2.204  0.0597 -0.5440 -0.0599
18377TIP3    H176622   3.054   1.507   2.265  0.5014 -2.6189 -0.9360
18377TIP3    H276623   3.192   1.569   2.257 -1.3830  2.3619  1.1240
18378TIP3   OH276624   1.398   5.121  16.774 -0.2553  0.1372  0.1243
18378TIP3    H176625   1.454   5.048  16.798  0.0646  0.0457 -0.8574
18378TIP3    H276626   1.339   5.085  16.707 -1.3750  0.2759  1.0092
18379TIP3   OH276627   6.833   5.370  12.431  0.3104  0.1436  0.3454
18379TIP3    H176628   6.886   5.436  12.476 -0.9569  2.3627 -1.1994
18379TIP3    H276629   6.876   5.357  12.347  0.5645 -1.0977  0.6436
18380TIP3   OH276630   2.373   3.700   5.016 -0.0271 -0.2259 -0.6524
18380TIP3    H176631   2.312   3.662   4.952 -0.4549  2.3717 -1.9246
18380TIP3    H276632   2.318   3.725   5.090  0.0863 -1.0673 -0.2758
18381TIP3   OH276633   2.825   4.985   5.444  0.0599 -0.1236 -0.1129
18381TIP3    H176634   2.912   5.012   5.415 -0.2869  0.4079 -0.6881
18381TIP3    H276635   2.772   4.983   5.364 -0.0292 -2.1762 -0.0427
18382TIP3   OH276636   1.906   5.773   1.243  0.5095  0.2124  0.2753
18382TIP3    H176637   1.966   5.802   1.311  1.4867 -2.1527  0.4874
18382TIP3    H276638   1.886   5.682   1.265 -0.8879  0.0583 -1.4027
18383TIP3   OH276639   5.619   0.685   2.577 -0.1227  0.0155 -0.1599
18383TIP3    H176640   5.686   0.753   2.581 -1.3700  1.3402 -0.8081
18383TIP3    H276641   5.594   0.670   2.668  0.2842  0.3104  0.0024
18384TIP3   OH276642   4.965   5.121   0.562  0.0290  0.0671  0.2150
18384TIP3    H176643   5.054   5.133   0.595 -0.0047  0.0148  0.3294
18384TIP3    H276644   4.965   5.032   0.525 -0.5903 -0.8977  2.3237
18385TIP3   OH276645   4.705   0.928   2.062 -0.5630 -0.3227  0.3880
18385TIP3    H176646   4.800   0.924   2.060 -0.5197  0.2861  0.9169
18385TIP3    H276647   4.677   0.838   2.079 -0.0892 -0.5023  0.2271
18386TIP3   OH276648   4.816   5.176  12.073 -0.0909 -0.1827  0.4846
18386TIP3    H176649   4.780   5.258  12.041  2.9405  0.8942 -0.4569
18386TIP3    H276650   4.792   5.112  12.006 -2.5400 -0.1895  1.2656
18387TIP3   OH276651   5.650   5.403  10.961  0.5938 -0.5130 -0.5523
18387TIP3    H176652   5.592   5.328  10.943  1.0633 -0.2345 -3.8915
18387TIP3    H276653   5.717   5.397  10.893 -0.6123  4.1695 -2.5170
18388TIP3   OH276654   2.991   4.654   2.761  0.5163  0.0671 -0.0052
18388TIP3    H176655   2.951   4.608   2.688  2.3924 -3.0573  0.7243
18388TIP3    H276656   2.926   4.651   2.831 -0.0532  0.1343 -0.5271
18389TIP3   OH276657   3.499   6.726   2.984 -0.1803 -0.2120  0.5007
18389TIP3    H176658   3.456   6.641   2.974 -0.7145  0.0626  0.3936
18389TIP3    H276659   3.535   6.745   2.898  2.4125 -1.6064  1.2032
18390TIP3   OH276660   1.790   0.418  16.952 -0.3264  0.4839 -0.3267
18390TIP3    H176661   1.808   0.333  16.911  3.3311  0.5641  0.7539
18390TIP3    H276662   1.722   0.398  17.017  1.0128 -1.8934  0.4847
18391TIP3   OH276663   1.975   6.307  14.092 -0.3246  0.1633  0.0550
18391TIP3    H176664   2.026   6.353  14.025 -1.5121  1.4219 -0.0231
18391TIP3    H276665   2.032   6.235  14.121  0.3799 -0.1387 -1.9746
18392TIP3   OH276666   3.302   1.492  17.056  0.2402  0.2000 -0.9994
18392TIP3    H176667   3.272   1.402  17.044 -0.4626  0.2807  0.1143
18392TIP3    H276668   3.369   1.486  17.124  0.2831  0.5059 -1.0152
18393TIP3   OH276669   1.639   3.849   0.187  0.1828 -0.1098  0.0160
18393TIP3    H176670   1.715   3.842   0.244  0.6516 -1.5124 -0.7368
18393TIP3    H276671   1.595   3.930   0.215  0.9314 -0.2436  1.6839
18394TIP3   OH276672   1.768   4.113  16.610 -0.0164  0.1435  0.0213
18394TIP3    H176673   1.694   4.135  16.667  0.6292 -1.2451  1.4851
18394TIP3    H276674   1.842   4.161  16.648  0.3766 -0.6268  0.2464
18395TIP3   OH276675   5.741   4.442   5.439  0.2078  0.1656  0.2675
18395TIP3    H176676   5.754   4.361   5.489 -2.4300  0.1528  1.0824
18395TIP3    H276677   5.737   4.510   5.506  1.9648  0.9868 -0.3849
18396TIP3   OH276678   1.872   5.073   5.236 -0.2954 -0.5879 -0.0054
18396TIP3    H176679   1.886   5.166   5.252 -1.2525 -0.2031 -1.2137
18396TIP3    H276680   1.936   5.050   5.169 -0.3235 -0.7054  0.0073
18397TIP3   OH276681   6.619   5.274   4.203  0.1962  0.0785 -0.3976
18397TIP3    H176682   6.713   5.292   4.207 -0.2140  2.4757 -0.2026
18397TIP3    H276683   6.578   5.352   4.241 -1.8657 -1.1764  0.0768
18398TIP3   OH276684   1.998   5.593   4.824  0.4130  0.5876 -0.5548
18398TIP3    H176685   1.941   5.527   4.785 -2.0366  1.8586  0.6963
18398TIP3    H276686   1.964   5.677   4.792  1.4022  1.4066  0.4516
18399TIP3   OH276687   4.000   0.166  15.618 -0.3496 -0.1196 -0.5069
18399TIP3    H176688   3.997   0.070  15.625 -0.6332 -0.1985 -1.4882
18399TIP3    H276689   3.936   0.186  15.550  0.1851  0.7164 -0.7757
18400TIP3   OH276690   5.847   5.083   0.703 -0.1736  0.1589 -0.5025
18400TIP3    H176691   5.772   5.032   0.735 -1.2759  2.3437  0.5988
18400TIP3    H276692   5.920   5.051   0.756 -0.6356 -0.9319 -0.4922
18401TIP3   OH276693   4.490   5.513   3.317  0.5580 -0.0460 -0.5261
18401TIP3    H176694   4.571   5.559   3.294  0.0617  1.8455  1.2531
18401TIP3    H276695   4.455   5.484   3.232  2.8630 -0.6041 -1.3682
18402TIP3   OH276696   4.436   2.655  14.451 -0.0840 -0.2417 -0.0681
18402TIP3    H176697   4.403   2.727  14.399 -0.2646  0.0674  0.4718
18402TIP3    H276698   4.493   2.696  14.516 -2.2286 -0.2586  1.9491
18403TIP3   OH276699   3.017   3.283  13.510  0.1962 -0.4116  0.8170
18403TIP3    H176700   2.945   3.255  13.565 -0.2373  1.3115  1.1727
18403TIP3    H276701   3.002   3.376  13.495 -0.6414 -1.0466 -3.5946
18404TIP3   OH276702   0.317   4.151   2.847 -0.4824 -0.0870  0.0441
18404TIP3    H176703   0.265   4.100   2.909 -0.7650 -3.1507 -2.4135
18404TIP3    H276704   0.252   4.197   2.794 -0.2562  2.2180  1.6420
18405TIP3   OH276705   4.807   2.002  15.201  0.3539  0.2919  0.2149
18405TIP3    H176706   4.786   1.918  15.160  0.5350  1.5440 -2.6692
18405TIP3    H276707   4.722   2.044  15.214  0.2543 -0.3157  1.7697
18406TIP3   OH276708   0.652   3.580   5.378 -0.1398 -0.7678 -0.7404
18406TIP3    H176709   0.591   3.640   5.422  0.7396  0.1452 -0.7532
18406TIP3    H276710   0.731   3.583   5.432  0.3699 -0.9200 -1.4772
18407TIP3   OH276711   4.140   1.268   4.567  0.5235  0.6598  0.2150
18407TIP3    H176712   4.157   1.247   4.475  1.2083  0.0087  0.4800
18407TIP3    H276713   4.096   1.353   4.564  1.8500  1.3539 -0.6529
18408TIP3   OH276714   2.303   2.387   0.442  0.2008  0.5624  0.2931
18408TIP3    H176715   2.280   2.384   0.349 -0.5407 -1.6600  0.5053
18408TIP3    H276716   2.275   2.474   0.470 -2.0412  0.3271 -0.9751
18409TIP3   OH276717   5.909   5.742   6.492 -0.2537 -0.3513  0.4029
18409TIP3    H176718   5.834   5.786   6.451  0.8604  2.5996  1.3015
18409TIP3    H276719   5.894   5.751   6.586  0.1662 -1.7544  0.6312
18410TIP3   OH276720   5.526   4.718  13.234 -0.1963 -0.3488 -0.1065
18410TIP3    H176721   5.611   4.680  13.215 -0.6789 -0.5994 -1.9431
18410TIP3    H276722   5.463   4.664  13.186 -1.1672  1.0624 -0.5218
18411TIP3   OH276723   4.197   3.618   3.213  0.2540  0.0378  0.2479
18411TIP3    H176724   4.290   3.620   3.238 -0.0595 -0.2355  1.5044
18411TIP3    H276725   4.153   3.667   3.282 -0.3004  2.4065 -1.6392
18412TIP3   OH276726   3.326   0.068   0.429  0.1015  0.2409 -0.1968
18412TIP3    H176727   3.337   0.163   0.440  0.4514  0.3402 -1.2956
18412TIP3    H276728   3.258   0.059   0.363  0.6840 -0.2561 -0.7435
18413TIP3   OH276729   4.573   1.966  12.468 -0.6887 -0.0518 -0.2097
18413TIP3    H176730   4.522   1.900  12.422 -0.4688 -0.7721  0.5482
18413TIP3    H276731   4.540   1.963  12.558 -1.9427  2.1372 -0.5233
18414TIP3   OH276732   2.389   3.116   3.146  0.5019  0.0710  0.2789
18414TIP3    H176733   2.424   3.112   3.057 -1.2942 -0.9701 -0.4304
18414TIP3    H276734   2.416   3.034   3.187 -1.0720 -0.7774 -0.3005
18415TIP3   OH276735   2.686   2.948   1.913  0.0923 -0.4532  0.2925
18415TIP3    H176736   2.622   2.877   1.923 -0.5843  0.3211  1.7426
18415TIP3    H276737   2.710   2.972   2.003  1.1058  0.4501 -0.1950
18416TIP3   OH276738   1.809   5.439   3.619 -0.3922 -0.0455  0.6621
18416TIP3    H176739   1.733   5.431   3.677 -0.8509  2.6233  0.5768
18416TIP3    H276740   1.883   5.409   3.671 -1.3206 -1.5055  1.1889
18417TIP3   OH276741   3.985   1.788  12.663  0.3005  0.0268  0.4701
18417TIP3    H176742   4.013   1.872  12.626  1.2280 -0.4032  0.1684
18417TIP3    H276743   3.910   1.762  12.609 -0.2192  0.8217  0.7935
18418TIP3   OH276744   2.605   3.952   1.025 -0.5576 -0.0379  0.4038
18418TIP3    H176745   2.559   4.016   1.079 -1.1335  0.0303 -0.1580
18418TIP3    H276746   2.664   4.004   0.971 -0.6126 -0.0324  0.3494
18419TIP3   OH276747   0.057   5.283  13.644  0.8992 -0.1441  0.2436
18419TIP3    H176748  -0.029   5.242  13.645  1.1229 -0.6234  1.0598
18419TIP3    H276749   0.118   5.209  13.652  1.5987 -0.2012 -3.5845
18420TIP3   OH276750   1.770   2.033   3.304  0.7437 -0.2887  0.2308
18420TIP3    H176751   1.707   2.063   3.370 -0.1181  0.0834 -0.7372
18420TIP3    H276752   1.731   2.058   3.220  2.3729  0.3164 -0.3840
18421TIP3   OH276753   3.781   3.686  14.467  0.0450 -0.0531  0.3196
18421TIP3    H176754   3.819   3.618  14.412  0.6670 -0.3183  1.0443
18421TIP3    H276755   3.857   3.730  14.506 -0.3453 -0.9971  2.2808
18422TIP3   OH276756   4.849   0.542   0.660 -0.2372 -0.0339 -0.2915
18422TIP3    H176757   4.911   0.469   0.660  0.6422  0.6630 -2.0237
18422TIP3    H276758   4.785   0.519   0.592  0.3632  1.0219 -1.2468
18423TIP3   OH276759   4.962   5.823   2.992 -0.3458 -0.1852 -0.5214
18423TIP3    H176760   4.934   5.861   3.076 -0.3376 -0.8656 -0.2012
18423TIP3    H276761   5.024   5.886   2.957 -1.8723  1.0987 -0.9946
18424TIP3   OH276762   5.860   5.807   4.142  0.5510 -0.3052  0.4576
18424TIP3    H176763   5.870   5.900   4.126  0.2601 -0.6505 -2.0156
18424TIP3    H276764   5.948   5.771   4.131  0.0053 -0.8736 -3.3169
18425TIP3   OH276765   0.207   2.647   2.918  0.1040  0.0553 -0.2682
18425TIP3    H176766   0.264   2.709   2.872 -0.3160  0.4578 -0.2474
18425TIP3    H276767   0.266   2.577   2.946  0.4088 -0.0916 -1.2360
18426TIP3   OH276768   0.811   1.124   1.481 -0.2857 -0.3771 -0.2984
18426TIP3    H176769   0.825   1.217   1.467 -1.9250 -0.0522  0.0347
18426TIP3    H276770   0.756   1.097   1.407 -1.9882 -0.4783  0.9506
18427TIP3   OH276771   1.321   1.026   5.517 -0.3687  0.5322  0.2593
18427TIP3    H176772   1.362   0.947   5.551 -0.5444 -0.0598 -0.8584
18427TIP3    H276773   1.392   1.073   5.474 -0.3077  0.8925  0.7429
18428TIP3   OH276774   0.314   4.667  14.251  0.0877  1.0060 -0.9217
18428TIP3    H176775   0.239   4.667  14.311  0.5631  0.6477 -0.3263
18428TIP3    H276776   0.360   4.585  14.270  0.4586  1.0767 -1.5030
18429TIP3   OH276777   4.512   2.121  13.763  0.5641 -0.4636 -0.3261
18429TIP3    H176778   4.555   2.176  13.828  0.4318 -0.3458 -0.3354
18429TIP3    H276779   4.488   2.041  13.810 -2.4811  0.8913  0.7104
18430TIP3   OH276780   3.646   2.800   3.444  0.8924 -0.0650  0.1924
18430TIP3    H176781   3.689   2.869   3.495  1.2605 -0.1539  0.0010
18430TIP3    H276782   3.684   2.719   3.477 -0.6374 -0.3014  1.5005
18431TIP3   OH276783   5.360   3.380   2.514 -0.5204  0.4454  0.2187
18431TIP3    H176784   5.288   3.438   2.488 -0.6861  0.3830  0.5329
18431TIP3    H276785   5.408   3.431   2.580 -0.5411  0.3109  0.3386
18432TIP3   OH276786   5.608   0.241   1.522  0.6762 -0.5521  0.5645
18432TIP3    H176787   5.627   0.310   1.585  0.1916 -0.2589  0.3928
18432TIP3    H276788   5.516   0.219   1.538  0.3232  0.0543 -0.5402
18433TIP3   OH276789   0.131   5.026   3.975 -0.3819 -0.0784 -0.4065
18433TIP3    H176790   0.185   5.101   4.002 -1.2289  0.5962 -0.5734
18433TIP3    H276791   0.193   4.966   3.934  0.2384  0.7267 -0.6743
18434TIP3   OH276792   3.519   1.475  16.038 -0.0844 -0.4778  0.0678
18434TIP3    H176793   3.439   1.481  15.985  0.2643  0.1474 -0.3949
18434TIP3    H276794   3.513   1.390  16.081 -0.0734 -1.2805 -1.4625
18435TIP3   OH276795   6.318   4.872  14.638 -0.1773  0.2625 -0.7468
18435TIP3    H176796   6.254   4.908  14.577 -1.7670 -0.0652  0.6472
18435TIP3    H276797   6.319   4.935  14.710  0.6242 -0.0585 -0.4658
18436TIP3   OH276798   4.662   3.284  17.166 -0.4158 -0.2135  0.1362
18436TIP3    H176799   4.712   3.202  17.167  1.5000  0.8824  1.7888
18436TIP3    H276800   4.728   3.351  17.148 -1.4309  1.2180  1.5613
18437TIP3   OH276801   1.205   5.168   4.895  0.0835  0.2210 -0.0389
18437TIP3    H176802   1.220   5.188   4.988 -0.0362 -0.3615  0.1106
18437TIP3    H276803   1.211   5.073   4.890 -0.5656  0.1973 -0.5118
18438TIP3   OH276804   0.811   3.749   2.998 -0.2834 -0.0300  0.0817
18438TIP3    H176805   0.748   3.794   2.943  1.6131  1.0238 -1.3309
18438TIP3    H276806   0.851   3.818   3.051  0.8461 -0.3947 -0.2554
18439TIP3   OH276807   2.270   2.238  17.132  0.4322 -0.2766  0.0640
18439TIP3    H176808   2.364   2.241  17.111  0.5655  2.6928  0.6057
18439TIP3    H276809   2.234   2.316  17.089 -1.3535 -0.1167  1.7243
18440TIP3   OH276810   6.315   2.651  10.539 -0.1455  0.1922 -0.2675
18440TIP3    H176811   6.230   2.656  10.582  0.1533 -1.2542  0.5440
18440TIP3    H276812   6.295   2.664  10.446 -1.2547 -0.1014 -0.0889
18441TIP3   OH276813   5.891   3.260  11.823  0.0885  0.1298  0.3185
18441TIP3    H176814   5.959   3.275  11.889 -0.4082 -1.8559  1.3309
18441TIP3    H276815   5.831   3.334  11.833  1.9609  1.8932 -0.5338
18442TIP3   OH276816   0.810   4.968   3.699  0.0670 -0.8441 -0.5318
18442TIP3    H176817   0.751   4.970   3.775 -1.3334 -1.6488 -1.5397
18442TIP3    H276818   0.892   4.932   3.733 -0.6446 -1.4996  0.5361
18443TIP3   OH276819   0.801   6.131  14.069 -0.5474  0.0441 -0.0502
18443TIP3    H176820   0.714   6.100  14.094 -0.1040 -0.0018  1.5650
18443TIP3    H276821   0.844   6.152  14.153 -1.0186  5.7400 -0.8185
18444TIP3   OH276822   6.162   2.481  10.998 -0.1261 -0.5260 -0.4248
18444TIP3    H176823   6.118   2.475  10.912 -1.3173 -0.5225  0.1618
18444TIP3    H276824   6.110   2.545  11.046 -0.7295 -2.0007  0.9972
18445TIP3   OH276825   5.346   4.755   4.639  0.4603  0.0035 -0.0248
18445TIP3    H176826   5.273   4.803   4.600  0.5568  0.1080 -0.0747
18445TIP3    H276827   5.321   4.742   4.730 -0.6179 -1.8466 -0.5233
18446TIP3   OH276828   0.466   4.081   2.622  0.0408 -0.8006  0.5999
18446TIP3    H176829   0.460   3.986   2.614 -0.5337 -0.8057  1.0647
18446TIP3    H276830   0.416   4.103   2.700  2.5103 -0.3674  2.1699
18447TIP3   OH276831   4.691   0.748   0.315  0.2976  0.0097  0.3741
18447TIP3    H176832   4.626   0.818   0.316  0.1784 -0.1048  0.9726
18447TIP3    H276833   4.640   0.668   0.328  0.3342 -0.2817 -1.1567
18448TIP3   OH276834   0.498   0.182  11.860 -0.8759  0.0167  0.0040
18448TIP3    H176835   0.488   0.124  11.785  0.3272 -0.9199  0.5386
18448TIP3    H276836   0.590   0.208  11.859 -0.2840 -1.7093  2.3049
18449TIP3   OH276837   5.525   4.576   1.251 -0.5263 -0.2334  0.4942
18449TIP3    H176838   5.431   4.595   1.249 -0.0754  2.2926  0.5071
18449TIP3    H276839   5.565   4.651   1.208  1.5849 -0.5615  1.7725
18450TIP3   OH276840   4.583   1.075  13.795 -0.1567  0.6713 -0.4315
18450TIP3    H176841   4.660   1.125  13.822 -0.7922  1.3015  0.3010
18450TIP3    H276842   4.574   1.006  13.860 -0.1247  0.5093 -0.5982
18451TIP3   OH276843   0.708   4.221  15.360  0.1090  0.2149 -0.4008
18451TIP3    H176844   0.639   4.276  15.399  0.1373  0.2608 -0.4147
18451TIP3    H276845   0.788   4.272  15.372  0.2255 -0.0794  0.1088
18452TIP3   OH276846   2.497   0.347   6.750  0.1327 -0.1956 -0.6553
18452TIP3    H176847   2.427   0.404   6.720  0.0585  0.4406  0.6732
18452TIP3    H276848   2.565   0.406   6.783  0.7290 -0.8398 -0.6897
18453TIP3   OH276849   5.323   5.079   2.331  0.5226 -0.0032 -0.4538
18453TIP3    H176850   5.265   5.153   2.315 -0.4159 -1.1067 -2.5286
18453TIP3    H276851   5.343   5.084   2.425 -1.6683  1.2975  0.0109
18454TIP3   OH276852   4.128   1.155  13.188  0.0268  0.1143 -0.1893
18454TIP3    H176853   4.090   1.177  13.273 -0.2273 -1.3246  0.0967
18454TIP3    H276854   4.217   1.127  13.209 -0.0434 -0.2609 -0.3916
18455TIP3   OH276855   1.560   0.586  12.633 -0.1387  0.1134 -0.0313
18455TIP3    H176856   1.510   0.595  12.715  0.1977 -2.2035  0.4921
18455TIP3    H276857   1.546   0.496  12.606  1.3749  0.2636 -1.4812
18456TIP3   OH276858   6.302   4.695   3.684 -0.2320  0.8917  0.2787
18456TIP3    H176859   6.210   4.692   3.707  0.1057 -0.8467  1.6338
18456TIP3    H276860   6.348   4.693   3.768  1.0525  1.7602 -0.3649
18457TIP3   OH276861   6.531   5.960   1.832 -0.4452  0.3665  0.2283
18457TIP3    H176862   6.597   5.954   1.764 -1.2372  0.1639 -0.5356
18457TIP3    H276863   6.534   6.052   1.860  0.6312  0.2079  0.7163
18458TIP3   OH276864   1.274   3.389  13.893  0.1954 -0.3162  0.2425
18458TIP3    H176865   1.369   3.396  13.887  0.0409  0.8134 -1.4386
18458TIP3    H276866   1.260   3.320  13.958  2.1191  0.6456  1.7962
18459TIP3   OH276867   1.032   0.218  11.475 -0.3513 -0.2469  0.4637
18459TIP3    H176868   1.037   0.304  11.515  1.0383  0.7674 -1.6744
18459TIP3    H276869   0.957   0.224  11.415 -0.2131 -0.5117  0.2618
18460TIP3   OH276870   4.464   5.169  14.039  0.1029 -1.0375 -0.4211
18460TIP3    H176871   4.453   5.076  14.059 -1.0093 -1.2366 -1.7713
18460TIP3    H276872   4.489   5.170  13.946  1.9509 -0.0511  0.0543
18461TIP3   OH276873   0.833   3.994  10.705  0.4004  0.4687  0.0221
18461TIP3    H176874   0.813   3.911  10.661  3.2031  0.0102 -0.5831
18461TIP3    H276875   0.841   4.057  10.633  1.9965  0.3857  0.0949
18462TIP3   OH276876   3.692   2.663  14.588 -0.1217 -0.5131  0.2028
18462TIP3    H176877   3.670   2.653  14.495  0.9577 -1.0881 -0.0173
18462TIP3    H276878   3.609   2.682  14.631 -0.3542  1.7638 -1.1344
18463TIP3   OH276879   4.668   5.187   0.087 -0.6273 -0.2333 -0.7351
18463TIP3    H176880   4.734   5.250   0.059 -1.0843  0.6703  0.1298
18463TIP3    H276881   4.681   5.180   0.182 -1.8032  0.0314 -0.5363
18464TIP3   OH276882   5.498   3.537  13.875  0.2033  0.5973  0.0048
18464TIP3    H176883   5.564   3.504  13.814 -0.3862 -0.2627 -0.1914
18464TIP3    H276884   5.428   3.569  13.818  0.3969  1.4201  0.2130
18465TIP3   OH276885   2.866   5.325   5.005  0.1790  0.1513 -0.0193
18465TIP3    H176886   2.954   5.337   5.039 -0.0007 -0.4740  0.6701
18465TIP3    H276887   2.872   5.353   4.913  0.4172  2.8672  0.7335
18466TIP3   OH276888   5.795   3.889   2.509 -0.4456 -0.2114  0.0958
18466TIP3    H176889   5.830   3.897   2.598  1.0968 -1.3225 -0.3818
18466TIP3    H276890   5.757   3.802   2.506 -0.4206 -0.2077 -0.3671
18467TIP3   OH276891   0.659   0.619  11.317  0.0163 -0.3065  0.0703
18467TIP3    H176892   0.640   0.674  11.242 -0.1489 -0.3194  0.1031
18467TIP3    H276893   0.619   0.664  11.391  1.3450  0.4236  0.3805
18468TIP3   OH276894   4.240   3.871  12.211  0.1334  0.5260 -0.8105
18468TIP3    H176895   4.160   3.819  12.220  0.6315 -0.1647 -0.1974
18468TIP3    H276896   4.266   3.860  12.120 -0.6308  1.0028 -1.0934
18469TIP3   OH276897   2.236   4.190   3.511 -0.1461  0.2691  0.5814
18469TIP3    H176898   2.297   4.160   3.444 -0.3323  1.6773 -0.2553
18469TIP3    H276899   2.202   4.110   3.551  0.2333 -0.5854 -0.7776
18470TIP3   OH276900   3.615   4.101   2.346  0.7058 -0.6856 -0.8585
18470TIP3    H176901   3.580   4.188   2.366  1.5118 -0.5758  0.1039
18470TIP3    H276902   3.538   4.050   2.320 -0.1275 -0.2924  0.6997
18471TIP3   OH276903   5.057   4.028   4.331 -0.9084 -0.2166 -0.0849
18471TIP3    H176904   5.016   4.062   4.411  0.8015  0.0786  0.7188
18471TIP3    H276905   5.010   4.072   4.260 -1.1710  1.0550  0.8287
18472TIP3   OH276906   1.028   3.790  14.507 -0.0748 -0.1747  0.0425
18472TIP3    H176907   1.104   3.769  14.560  0.6850  1.1070 -0.4847
18472TIP3    H276908   1.063   3.841  14.434 -1.4600  0.6693 -0.0751
18473TIP3   OH276909   4.817   1.142   3.872  0.0865  0.2796 -0.2274
18473TIP3    H176910   4.841   1.206   3.805  0.1917 -1.6279 -2.1116
18473TIP3    H276911   4.754   1.188   3.928  3.2447  3.3789  1.0963
18474TIP3   OH276912   2.274   3.202   3.711  0.4244 -0.2914  0.2747
18474TIP3    H176913   2.333   3.128   3.699 -0.2403 -1.0290  1.3834
18474TIP3    H276914   2.266   3.241   3.624  3.2410  0.4107  0.2315
18475TIP3   OH276915   2.458   0.162  13.530 -0.1332  0.4248 -0.6565
18475TIP3    H176916   2.372   0.167  13.488 -1.8946 -1.1877  2.3703
18475TIP3    H276917   2.444   0.197  13.618  2.0430 -0.7933  0.2616
18476TIP3   OH276918   0.630   4.957   1.165 -0.6721 -0.7091  0.1163
18476TIP3    H176919   0.711   4.930   1.209 -0.3290  1.2762  0.8106
18476TIP3    H276920   0.640   5.051   1.152 -2.3416 -0.6322 -0.9667
18477TIP3   OH276921   2.078   1.378  15.297 -0.0918 -0.6965  1.0190
18477TIP3    H176922   2.075   1.422  15.212 -0.6204 -1.3254  0.7059
18477TIP3    H276923   2.161   1.407  15.336  0.4941 -0.9532  0.0009
18478TIP3   OH276924   5.209   1.437  15.787  0.4905  0.5284  0.2555
18478TIP3    H176925   5.114   1.428  15.788  0.5319  0.0797  0.3482
18478TIP3    H276926   5.242   1.351  15.811  0.9186  0.8108  0.7088
18479TIP3   OH276927   6.006   2.166   0.745  0.0716 -0.5001  0.2049
18479TIP3    H176928   6.043   2.079   0.729 -0.0301 -0.3255 -1.0751
18479TIP3    H276929   6.070   2.210   0.800  1.1968 -0.6407 -0.9465
18480TIP3   OH276930   6.235   6.307   5.929  0.1356 -0.1083  0.2296
18480TIP3    H176931   6.250   6.217   5.959 -2.3727 -1.2263 -1.5706
18480TIP3    H276932   6.223   6.299   5.835  1.0625  2.3385 -0.1532
18481TIP3   OH276933   3.619   6.624   0.472 -0.1143  0.6614  0.2811
18481TIP3    H176934   3.642   6.606   0.381 -0.8508  0.7361  0.0711
18481TIP3    H276935   3.701   6.614   0.520  0.3580  0.9790 -0.4416
18482TIP3   OH276936   0.651   5.057  11.378  0.5569  0.8151  0.2192
18482TIP3    H176937   0.632   5.092  11.291 -0.1998  0.6877  0.3278
18482TIP3    H276938   0.601   5.114  11.437 -0.4759 -0.2582  0.4213
18483TIP3   OH276939   4.014   2.473   6.253  0.1372 -0.3063 -0.1978
18483TIP3    H176940   4.009   2.522   6.335 -0.4571 -0.2372 -0.2712
18483TIP3    H276941   4.104   2.485   6.224  0.2042  0.1201  0.1678
18484TIP3   OH276942   2.288   4.209  16.153 -0.3842 -0.0429 -0.2432
18484TIP3    H176943   2.317   4.243  16.237  1.1823  1.1784 -1.2092
18484TIP3    H276944   2.229   4.276  16.119  0.0959  0.1592 -0.7042
18485TIP3   OH276945   2.723   2.109   4.786  0.0397  0.0385 -0.0559
18485TIP3    H176946   2.665   2.054   4.839  0.0604  0.1880  0.1228
18485TIP3    H276947   2.811   2.074   4.803  0.1685  0.7491  0.8403
18486TIP3   OH276948   4.648   0.762   1.164  0.4011  0.0684 -0.3440
18486TIP3    H176949   4.610   0.762   1.076 -0.7622  0.4482  0.1359
18486TIP3    H276950   4.587   0.815   1.217  1.9737  1.3277  0.3156
18487TIP3   OH276951   0.294   5.724  15.174 -0.5479  0.0779  0.1117
18487TIP3    H176952   0.379   5.708  15.134 -1.1764 -0.8304 -0.9125
18487TIP3    H276953   0.262   5.637  15.198 -1.4932  0.3409 -0.1623
18488TIP3   OH276954   4.185   6.767  14.914  0.9217  0.6546  0.0349
18488TIP3    H176955   4.246   6.739  14.982  1.9421  1.3613 -0.5746
18488TIP3    H276956   4.099   6.768  14.957  1.7085  2.2621  1.6395
18489TIP3   OH276957   3.668   6.213   2.876 -0.6131 -0.2936 -0.5650
18489TIP3    H176958   3.671   6.118   2.864 -0.6054 -0.2872 -0.6150
18489TIP3    H276959   3.662   6.248   2.788 -2.3322 -0.3110 -0.4851
18490TIP3   OH276960   2.786   3.180   5.561 -0.2543  0.2999  0.7208
18490TIP3    H176961   2.717   3.177   5.627 -1.7816 -2.0174 -0.8376
18490TIP3    H276962   2.779   3.268   5.523 -1.1947  0.6939  1.7545
18491TIP3   OH276963   3.961   5.342  15.964 -0.0700 -0.2367  0.1079
18491TIP3    H176964   3.918   5.406  16.020  0.8880 -0.3410  0.9951
18491TIP3    H276965   3.901   5.268  15.961 -0.6276  0.2074  0.0702
18492TIP3   OH276966   6.648   3.559   3.623 -0.1751 -0.8600  0.7019
18492TIP3    H176967   6.564   3.582   3.663 -0.5328 -2.2651  0.8161
18492TIP3    H276968   6.661   3.623   3.553 -1.6207 -0.9789  0.3077
18493TIP3   OH276969   4.794   0.974   3.025 -0.1466 -0.1120 -0.5423
18493TIP3    H176970   4.724   0.982   3.091  0.8586 -0.3289  0.5922
18493TIP3    H276971   4.866   1.026   3.061  1.1594 -1.9168 -0.4506
18494TIP3   OH276972   3.113   5.157  15.864 -0.1416 -0.4134 -0.4289
18494TIP3    H176973   3.097   5.069  15.829 -1.5485  0.2308 -1.4872
18494TIP3    H276974   3.065   5.216  15.805 -0.8414  0.9111  1.3720
18495TIP3   OH276975   5.071   0.226  11.860 -1.0329  0.1769  0.0764
18495TIP3    H176976   4.995   0.174  11.886  0.3420 -1.7414  0.5061
18495TIP3    H276977   5.103   0.264  11.942 -1.5843  1.1107 -0.1260
18496TIP3   OH276978   1.153   3.484  16.596  0.0476 -0.3086  0.5069
18496TIP3    H176979   1.154   3.579  16.597  1.7072 -0.3037  1.1199
18496TIP3    H276980   1.216   3.459  16.529  0.1454 -0.9642  0.8263
18497TIP3   OH276981   6.502   1.342  11.500  0.1359 -0.2393 -0.6875
18497TIP3    H176982   6.455   1.363  11.420  1.1157  0.9059 -0.9827
18497TIP3    H276983   6.560   1.269  11.476  0.8037  0.4430 -1.1732
18498TIP3   OH276984   5.286   3.298   4.577 -0.2176 -0.2310 -0.0428
18498TIP3    H176985   5.308   3.271   4.488  0.5264  1.4381 -0.4018
18498TIP3    H276986   5.238   3.380   4.566  0.4426  0.3410  1.0974
18499TIP3   OH276987   4.899   4.233   4.220 -0.4947 -0.2683  0.0515
18499TIP3    H176988   4.964   4.301   4.203  1.8144 -1.7062  2.4312
18499TIP3    H276989   4.834   4.275   4.276 -0.2237  0.5018 -0.2063
18500TIP3   OH276990   5.522   3.140  10.841 -0.0742  0.4969  0.2803
18500TIP3    H176991   5.586   3.162  10.910 -0.3293 -0.1591  0.7323
18500TIP3    H276992   5.544   3.199  10.769 -0.3447  1.8162  1.2290
18501TIP3   OH276993   3.704   1.672  16.053 -0.4553  0.4803 -0.1599
18501TIP3    H176994   3.786   1.627  16.071 -0.3044  0.0058 -1.8467
18501TIP3    H276995   3.642   1.601  16.035 -0.8699  0.8863 -0.3441
18502TIP3   OH276996   1.843   4.577  14.395  0.0325 -0.1372  0.9817
18502TIP3    H176997   1.792   4.650  14.430 -0.9605  0.2740 -1.1872
18502TIP3    H276998   1.827   4.505  14.457 -1.2164  0.6933  1.6738
18503TIP3   OH276999   4.146   1.335   2.618 -0.4581 -0.5468  0.0460
18503TIP3    H177000   4.232   1.348   2.658 -0.2539 -1.1767 -0.1829
18503TIP3    H277001   4.134   1.413   2.563  0.8982 -1.3930 -1.5488
18504TIP3   OH277002   2.206   4.965   4.263 -0.3456  0.2153 -0.4822
18504TIP3    H177003   2.188   4.917   4.344  0.6430  0.6058 -0.0215
18504TIP3    H277004   2.301   4.961   4.253 -0.4687 -0.0356 -1.7586
18505TIP3   OH277005   4.037   5.008  11.911  0.4905 -0.2274  0.0226
18505TIP3    H177006   4.003   5.003  12.001 -3.1178 -0.6578 -1.1886
18505TIP3    H277007   4.029   4.918  11.878 -1.0645  0.4258 -1.5444
18506TIP3   OH277008   1.157   0.544  13.047  0.3215  0.6266  0.4337
18506TIP3    H177009   1.096   0.509  12.982  0.9262 -1.0705  0.7514
18506TIP3    H277010   1.194   0.622  13.005 -0.2240  0.2722 -0.7455
18507TIP3   OH277011   6.188   6.654   1.617 -0.6452  0.1529 -0.5266
18507TIP3    H177012   6.099   6.622   1.623 -1.0763  0.9106 -2.2287
18507TIP3    H277013   6.180   6.740   1.575  0.7683  0.8797  0.5835
18508TIP3   OH277014   6.708   4.296   3.792  0.0480  0.9901 -0.2449
18508TIP3    H177015   6.800   4.316   3.811  0.0861  1.4072 -0.8196
18508TIP3    H277016   6.704   4.294   3.696 -0.9247  2.9532 -0.3026
18509TIP3   OH277017   3.623   0.118   3.403 -0.0392 -0.0688  0.1463
18509TIP3    H177018   3.605   0.171   3.325  0.0047 -0.1036  0.1123
18509TIP3    H277019   3.643   0.182   3.471 -1.2570  0.0209  0.4432
18510TIP3   OH277020   1.732   4.114   2.188  0.1028 -0.1547  0.3920
18510TIP3    H177021   1.646   4.086   2.157 -0.0924 -0.2119  0.9760
18510TIP3    H277022   1.767   4.168   2.116 -0.4144 -0.1326  0.1510
18511TIP3   OH277023   4.413   1.342   5.595  0.0124 -0.2825  0.2497
18511TIP3    H177024   4.487   1.367   5.651 -0.5885  1.0891  0.4635
18511TIP3    H277025   4.444   1.263   5.549  0.4922 -1.5769  2.5875
18512TIP3   OH277026   3.106   3.673  14.028  0.1492  0.2256  0.6193
18512TIP3    H177027   3.099   3.596  13.972 -0.3543  0.4539  0.3650
18512TIP3    H277028   3.062   3.647  14.109  1.3851 -0.3077  1.1437
18513TIP3   OH277029   6.642   2.028   3.458  0.5248  0.6419 -0.3618
18513TIP3    H177030   6.556   2.067   3.470  0.3992  0.1379  0.4793
18513TIP3    H277031   6.651   2.016   3.363 -1.9910 -2.8683 -0.3436
18514TIP3   OH277032   0.469   1.699  11.910  0.0732  0.1412  0.1391
18514TIP3    H177033   0.415   1.677  11.986  1.8469 -3.9221  0.5125
18514TIP3    H277034   0.519   1.776  11.937 -0.8018  0.0203  2.2940
18515TIP3   OH277035   1.744   0.216   0.846  0.0976  0.3477  0.4613
18515TIP3    H177036   1.687   0.272   0.899  1.8040  2.1634  0.4913
18515TIP3    H277037   1.797   0.278   0.795  1.7765 -1.2583  0.1753
18516TIP3   OH277038   0.412   2.492   1.886 -0.0360 -0.6165  0.0700
18516TIP3    H177039   0.365   2.505   1.804  0.5719  1.6444  0.0055
18516TIP3    H277040   0.504   2.495   1.862  0.1440 -0.6243  0.7327
18517TIP3   OH277041   2.782   2.989  16.807 -0.0785 -0.1139 -0.3273
18517TIP3    H177042   2.831   3.064  16.774  0.9733 -0.8158 -0.4246
18517TIP3    H277043   2.719   2.969  16.738  0.0910  0.2644 -0.5931
18518TIP3   OH277044   2.389   6.655   6.394 -0.2901 -0.0353 -0.3134
18518TIP3    H177045   2.436   6.591   6.340 -1.5645 -1.3170  0.0234
18518TIP3    H277046   2.377   6.612   6.478 -1.5459  0.4629 -0.2045
18519TIP3   OH277047   3.163   1.719  14.451 -0.1106  0.5390  0.2614
18519TIP3    H177048   3.119   1.799  14.481 -0.4546 -0.1172  1.5552
18519TIP3    H277049   3.252   1.727  14.484 -0.0565  0.5286  0.1196
18520TIP3   OH277050   0.904   2.421   1.298  0.7489  0.1474  0.2731
18520TIP3    H177051   0.815   2.419   1.333  1.1040 -0.0952  1.1777
18520TIP3    H277052   0.892   2.441   1.205 -0.1750  1.2894  0.6163
18521TIP3   OH277053   5.988   1.491  15.558  0.1825 -0.4843  0.2678
18521TIP3    H177054   6.001   1.551  15.486 -0.7637  0.9786  1.2538
18521TIP3    H277055   5.919   1.432  15.528 -0.3170  0.2136  0.0148
18522TIP3   OH277056   6.567   1.201   2.685  0.3158  0.0152  0.4416
18522TIP3    H177057   6.525   1.121   2.655  1.7311 -0.7415  0.4280
18522TIP3    H277058   6.635   1.172   2.745  1.2797  1.1600 -0.0510
18523TIP3   OH277059   1.566   1.624  11.442 -0.2512  0.4295 -0.2987
18523TIP3    H177060   1.487   1.598  11.394 -1.3570  0.7617  1.2639
18523TIP3    H277061   1.638   1.607  11.381 -1.6074  1.1894 -2.1837
18524TIP3   OH277062   4.156   1.861  16.832  0.0711  0.3823 -0.0432
18524TIP3    H177063   4.184   1.951  16.819 -0.0791  0.4647  0.1810
18524TIP3    H277064   4.102   1.841  16.756  1.1459  0.0476 -0.7382
18525TIP3   OH277065   3.348   4.340   5.497  0.4730  0.3736  0.3606
18525TIP3    H177066   3.337   4.357   5.404 -1.1017 -2.0375  0.0184
18525TIP3    H277067   3.303   4.412   5.541  1.6161  1.7727 -0.6950
18526TIP3   OH277068   3.191   4.533  14.354  0.1779 -0.3946  0.3072
18526TIP3    H177069   3.286   4.546  14.359  0.0616 -0.0735  2.3545
18526TIP3    H277070   3.180   4.461  14.292  1.9276 -1.8332  1.5668
18527TIP3   OH277071   6.075   3.793  11.664  0.6582  0.3146  0.1364
18527TIP3    H177072   5.997   3.776  11.612  1.0864 -0.8059 -0.1670
18527TIP3    H277073   6.069   3.886  11.686  0.8771  1.1043 -2.6942
18528TIP3   OH277074   6.193   1.514   4.749 -0.3374 -0.7394 -0.1260
18528TIP3    H177075   6.248   1.511   4.827 -2.7213 -0.2533  1.7208
18528TIP3    H277076   6.144   1.432   4.752  0.1375 -1.1010 -1.6344
18529TIP3   OH277077   0.784   3.902   0.158  0.4686 -0.2683  0.0136
18529TIP3    H177078   0.792   3.973   0.094  1.2023 -0.5460 -0.2121
18529TIP3    H277079   0.849   3.837   0.130  0.5315 -0.5620  0.8235
18530TIP3   OH277080   5.641   6.721  10.955  0.2968  0.1605  0.1038
18530TIP3    H177081   5.648   6.810  10.990  1.5232  0.2729 -0.3736
18530TIP3    H277082   5.559   6.720  10.906 -1.7001 -0.1079  3.1965
18531TIP3   OH277083   6.021   4.301  13.527 -0.0063 -0.1455 -0.4506
18531TIP3    H177084   6.033   4.321  13.619 -1.9028 -0.7170 -0.0311
18531TIP3    H277085   6.069   4.370  13.481  0.6167  0.3874  0.9428
18532TIP3   OH277086   6.137   2.201  16.096  0.4067  0.0906 -0.2706
18532TIP3    H177087   6.099   2.239  16.175 -1.3851 -3.0652  0.5764
18532TIP3    H277088   6.128   2.270  16.030 -0.8763  1.7613  1.5092
18533TIP3   OH277089   0.628   6.242  16.820  0.0887  0.2342 -0.5476
18533TIP3    H177090   0.682   6.174  16.860 -0.8503  0.2032  0.7350
18533TIP3    H277091   0.670   6.324  16.846 -0.4307  0.2093  0.4273
18534TIP3   OH277092   5.630   0.102  13.661  0.1388  0.5382 -0.3572
18534TIP3    H177093   5.690   0.165  13.620  1.9838 -1.7318 -1.3975
18534TIP3    H277094   5.639   0.023  13.608 -2.3816 -0.5313  0.6414
18535TIP3   OH277095   0.867   1.338   4.944  0.2919  0.0801  0.3990
18535TIP3    H177096   0.817   1.262   4.913 -0.3182  0.8772 -0.6803
18535TIP3    H277097   0.841   1.409   4.885  2.6823  0.5613 -0.2017
18536TIP3   OH277098   4.136   3.581   2.504  0.6208 -0.3427 -0.5557
18536TIP3    H177099   4.201   3.523   2.465  0.2671 -1.0834 -0.0742
18536TIP3    H277100   4.052   3.537   2.488  0.3714 -0.1057  0.0540
18537TIP3   OH277101   5.783   6.085   3.669  0.2358  0.3404 -0.0030
18537TIP3    H177102   5.779   6.011   3.730 -0.4846 -0.6140 -1.1440
18537TIP3    H277103   5.714   6.144   3.698 -1.3188 -0.9592 -0.8941
18538TIP3   OH277104   4.478   0.631  13.264  0.1072  0.1787 -0.1456
18538TIP3    H177105   4.503   0.554  13.214  1.1438  0.2558  0.2361
18538TIP3    H277106   4.493   0.705  13.205  0.9660  0.2388  0.1414
18539TIP3   OH277107   4.770   6.619  16.420  0.0313 -0.2081  0.4341
18539TIP3    H177108   4.805   6.568  16.347  0.9396 -0.1050  0.7805
18539TIP3    H277109   4.770   6.709  16.390 -1.1181 -0.3377 -0.0040
18540TIP3   OH277110   5.016   6.394   1.917 -0.2600 -0.3554  0.7575
18540TIP3    H177111   4.957   6.461   1.882 -0.1640 -0.3533  0.6000
18540TIP3    H277112   4.958   6.335   1.964 -0.0967  1.0525  2.8346
18541TIP3   OH277113   5.206   3.837  14.751 -0.6256 -0.9353 -0.1234
18541TIP3    H177114   5.197   3.930  14.731  0.4775 -1.3238 -2.8548
18541TIP3    H277115   5.282   3.832  14.809 -1.2093 -0.0914  0.7397
18542TIP3   OH277116   1.891   0.735   2.766  0.2125  0.1339 -0.4711
18542TIP3    H177117   1.972   0.730   2.714 -0.1921  0.7376 -1.1901
18542TIP3    H277118   1.904   0.672   2.837  1.4111  0.3912 -0.4327
18543TIP3   OH277119   0.185   3.581   2.982  0.1788 -0.4831  0.7037
18543TIP3    H177120   0.203   3.640   2.909 -0.8421 -0.1234  0.7370
18543TIP3    H277121   0.262   3.591   3.039  0.5997 -0.1419  0.0923
18544TIP3   OH277122   2.686   1.991   2.865  0.2134 -0.0955 -0.2648
18544TIP3    H177123   2.646   2.005   2.780 -0.2148 -0.5459 -0.1397
18544TIP3    H277124   2.712   1.899   2.865 -0.3693 -0.2663  0.3269
18545TIP3   OH277125   0.603   0.746  11.749  0.4265 -0.1459  0.4788
18545TIP3    H177126   0.619   0.653  11.732  1.2860  0.0588  0.1179
18545TIP3    H277127   0.526   0.767  11.696  1.2247 -0.2609 -0.7645
18546TIP3   OH277128   3.285   3.369   0.660 -0.6313 -0.5213  0.0181
18546TIP3    H177129   3.232   3.377   0.739 -2.7115 -1.7313 -1.1744
18546TIP3    H277130   3.270   3.452   0.613  1.7996  0.8609  1.4740
18547TIP3   OH277131   4.939   4.193  13.785  0.1235  0.5659  0.3261
18547TIP3    H177132   4.914   4.258  13.719  0.8666  0.8449  0.3116
18547TIP3    H277133   5.008   4.142  13.744  1.1249  1.2313  1.1365
18548TIP3   OH277134   3.012   0.619   6.324 -0.4165 -0.1439  0.0710
18548TIP3    H177135   3.085   0.667   6.285  0.9564 -2.0342  0.1763
18548TIP3    H277136   2.937   0.677   6.313  0.8905  1.4620 -0.9216
18549TIP3   OH277137   2.436   1.603  15.426 -0.6450  0.3670  0.4082
18549TIP3    H177138   2.528   1.600  15.453 -0.3790 -0.2382 -0.5184
18549TIP3    H277139   2.426   1.529  15.366 -1.3035  1.4460 -0.8612
18550TIP3   OH277140   4.149   6.339  16.404 -0.3135 -0.2882  0.0657
18550TIP3    H177141   4.206   6.390  16.345  1.1257 -0.5271  1.1801
18550TIP3    H277142   4.067   6.388  16.407  0.1869  0.6388 -0.7920
18551TIP3   OH277143   2.196   2.376   0.200 -0.4051 -0.0105  0.0729
18551TIP3    H177144   2.245   2.333   0.131 -0.6611 -0.1715 -0.0113
18551TIP3    H277145   2.120   2.319   0.214  0.6623 -1.1296  1.9216
18552TIP3   OH277146   4.923   1.422  12.821 -0.0318  0.4062  0.5643
18552TIP3    H177147   4.989   1.419  12.891  0.8846 -0.3548 -0.2958
18552TIP3    H277148   4.843   1.449  12.865  0.5873  0.2285  1.8571
18553TIP3   OH277149   1.605   3.726  15.695  0.2562 -0.3936 -0.4616
18553TIP3    H177150   1.633   3.794  15.634  1.0683  1.2612  1.6493
18553TIP3    H277151   1.622   3.644  15.649 -0.6503  0.7708 -3.0417
18554TIP3   OH277152   1.608   1.728   1.959 -0.3191  0.1247 -0.3765
18554TIP3    H177153   1.572   1.812   1.989 -1.7993 -0.5220 -0.2730
18554TIP3    H277154   1.693   1.751   1.921  0.6577  1.2866  2.2693
18555TIP3   OH277155   0.076   0.558  11.468 -0.1698  0.0036 -0.1865
18555TIP3    H177156   0.027   0.478  11.484 -0.0146 -0.1884 -0.6352
18555TIP3    H277157   0.152   0.529  11.416  0.0351  0.3976 -0.1104
18556TIP3   OH277158   1.958   2.758   3.718 -0.1973  0.3715 -0.0832
18556TIP3    H177159   1.958   2.829   3.782 -0.0222  2.5652 -2.3396
18556TIP3    H277160   1.983   2.801   3.636 -1.3848 -2.0796 -1.8358
18557TIP3   OH277161   2.588   0.819   3.774  0.9195 -0.3433 -0.2251
18557TIP3    H177162   2.589   0.780   3.687  0.2858  0.3885 -0.5840
18557TIP3    H277163   2.624   0.907   3.761 -1.6399  0.7928 -0.3257
18558TIP3   OH277164   5.857   6.734   3.750 -0.0812  0.5366  0.1604
18558TIP3    H177165   5.775   6.750   3.796 -0.4986 -0.3641 -0.2422
18558TIP3    H277166   5.904   6.672   3.805 -0.1687  0.1856 -0.1582
18559TIP3   OH277167   3.899   0.730  16.434  0.5487 -0.5274  0.3703
18559TIP3    H177168   3.839   0.804  16.434 -0.4815 -1.2575 -2.3726
18559TIP3    H277169   3.967   0.754  16.497 -0.8785  1.7561  1.1489
18560TIP3   OH277170   3.325   0.472   1.185  0.7350 -0.1763  0.2485
18560TIP3    H177171   3.236   0.441   1.202  0.7074 -0.8719 -1.0625
18560TIP3    H277172   3.316   0.531   1.110  1.4862 -0.9279 -0.4469
18561TIP3   OH277173   3.963   6.817  15.062  0.1338  0.6372  0.2148
18561TIP3    H177174   3.973   6.872  15.140  0.8675 -0.8136  1.1939
18561TIP3    H277175   3.890   6.856  15.014 -0.2060  1.6853  1.5398
18562TIP3   OH277176   3.967   1.868  16.628 -0.0181 -0.1082  0.1590
18562TIP3    H177177   3.901   1.937  16.618 -0.6269 -0.8246 -0.8629
18562TIP3    H277178   3.919   1.795  16.666  0.9436  0.4746  2.7735
18563TIP3   OH277179   6.733   2.856  12.461 -0.2671  0.6329  0.5878
18563TIP3    H177180   6.758   2.913  12.534 -0.0437 -0.4404  1.3633
18563TIP3    H277181   6.685   2.784  12.502 -4.3339  2.2975 -0.7287
18564TIP3   OH277182   2.030   0.206   0.372  0.0348  0.1797  0.4301
18564TIP3    H177183   2.041   0.295   0.339  0.8263  0.8482  2.3914
18564TIP3    H277184   2.021   0.153   0.293  1.5153  1.7417 -0.8773
18565TIP3   OH277185   2.809   2.787   0.276 -0.1699  0.0851 -0.0509
18565TIP3    H177186   2.813   2.700   0.236 -1.4873  0.2814 -0.6541
18565TIP3    H277187   2.810   2.770   0.370  0.6381 -0.5095 -0.1513
18566TIP3   OH277188   5.121   4.265   4.657  0.1378 -0.4162  0.5113
18566TIP3    H177189   5.067   4.187   4.665 -2.0130  0.9709  0.5759
18566TIP3    H277190   5.177   4.264   4.734  0.7585 -2.2819  0.0837
18567TIP3   OH277191   5.357   4.581  15.359  0.7012  0.1159  0.1638
18567TIP3    H177192   5.405   4.656  15.392 -0.4591  1.5640 -1.2598
18567TIP3    H277193   5.269   4.615  15.340  0.7463 -1.0110 -2.5692
18568TIP3   OH277194   4.189   2.784   4.086  0.1062 -0.2803 -0.2951
18568TIP3    H177195   4.179   2.877   4.067 -1.4100 -0.3962 -0.2325
18568TIP3    H277196   4.247   2.751   4.018 -1.2028  0.2804 -1.7375
18569TIP3   OH277197   2.644   2.738  11.650  0.0524  0.1160  0.8234
18569TIP3    H177198   2.641   2.643  11.653 -1.9191  0.1770  1.9020
18569TIP3    H277199   2.738   2.759  11.656  0.6828 -1.7521 -1.2119
18570TIP3   OH277200   2.399   4.015   6.029 -0.3924  0.4122  0.2759
18570TIP3    H177201   2.451   3.938   6.007 -0.7050  0.1388  0.4868
18570TIP3    H277202   2.464   4.086   6.037 -0.2700  0.5502 -1.5290
18571TIP3   OH277203   3.079   4.213   4.755 -0.5152  0.1294  0.0288
18571TIP3    H177204   3.010   4.218   4.689 -0.8880 -0.5415  0.3486
18571TIP3    H277205   3.127   4.133   4.734 -2.0824 -1.3996  1.8978
18572TIP3   OH277206   4.493   5.856   0.590 -0.6155  0.2878  0.5397
18572TIP3    H177207   4.576   5.809   0.586  0.4086  2.0273  0.4718
18572TIP3    H277208   4.501   5.912   0.667 -1.2811  1.2598 -0.0809
18573TIP3   OH277209   3.658   2.122   3.475 -0.1671 -0.1048  0.1889
18573TIP3    H177210   3.680   2.116   3.382 -0.6733  0.5561  0.0160
18573TIP3    H277211   3.742   2.115   3.520  0.4540  2.4184 -0.4370
18574TIP3   OH277212   3.175   5.768  11.501  0.0934 -0.3116 -0.0920
18574TIP3    H177213   3.131   5.699  11.452 -0.7784 -0.4513  0.8313
18574TIP3    H277214   3.241   5.722  11.554  0.6139 -0.2340 -0.6659
18575TIP3   OH277215   0.101   1.825  11.493 -0.1106  0.2669 -0.3744
18575TIP3    H177216   0.090   1.888  11.565 -0.8714 -0.7512  0.4351
18575TIP3    H277217   0.194   1.805  11.493  0.0514  0.9764 -0.2910
18576TIP3   OH277218   2.326   5.597   1.040 -0.1916  0.4288 -0.2948
18576TIP3    H177219   2.378   5.631   1.114 -0.4552 -0.3699  0.2716
18576TIP3    H277220   2.360   5.509   1.025 -0.6176  0.3253 -0.6684
18577TIP3   OH277221   1.913   2.919   5.968  0.1375  0.1537 -0.0283
18577TIP3    H177222   1.989   2.966   6.003  0.3081 -0.2924  0.2096
18577TIP3    H277223   1.839   2.953   6.018  0.0736  1.0961 -0.7361
18578TIP3   OH277224   5.198   1.941   4.301  0.0873 -0.6826  0.6801
18578TIP3    H177225   5.288   1.913   4.287 -0.2004 -1.1356 -0.3867
18578TIP3    H277226   5.156   1.867   4.344  0.1805 -0.5485  0.9992
18579TIP3   OH277227   0.200   0.746  12.182 -0.1400 -0.1707  0.4910
18579TIP3    H177228   0.253   0.700  12.248  0.7430  1.5878  1.0744
18579TIP3    H277229   0.254   0.746  12.104  0.1906  0.4948  0.7103
18580TIP3   OH277230   2.750   1.307  15.814 -0.2198 -0.0968  0.6565
18580TIP3    H177231   2.683   1.337  15.753  1.1562  1.3082 -0.2284
18580TIP3    H277232   2.814   1.378  15.817  1.8151 -1.8172  0.6009
18581TIP3   OH277233   5.859   2.292  15.969  0.5971  0.2401 -0.3462
18581TIP3    H177234   5.886   2.363  16.027 -1.1503  0.3266  0.4444
18581TIP3    H277235   5.764   2.285  15.984  0.3900 -0.8471 -1.9805
18582TIP3   OH277236   2.480   4.708  10.788 -0.1207 -0.3962  0.6964
18582TIP3    H177237   2.437   4.785  10.824  0.4551 -0.0451  0.6320
18582TIP3    H277238   2.526   4.669  10.862  0.9216  0.2296  0.3882
18583TIP3   OH277239   2.397   3.091   6.035  0.4786 -0.3276  0.1595
18583TIP3    H177240   2.466   3.040   6.077  0.2155 -1.8996 -1.2230
18583TIP3    H277241   2.418   3.089   5.941 -0.3045  0.9575 -0.0808
18584TIP3   OH277242   4.437   3.651  16.737  0.2319 -0.7040  0.2622
18584TIP3    H177243   4.529   3.639  16.758  0.4064  1.2796  0.8281
18584TIP3    H277244   4.392   3.580  16.783  1.2683 -0.3486  1.8961
18585TIP3   OH277245   4.791   5.540  12.432 -0.1761 -0.1164 -0.4097
18585TIP3    H177246   4.726   5.571  12.496 -1.3581 -0.7701 -1.2426
18585TIP3    H277247   4.760   5.453  12.408  0.1873  0.1471 -1.9396
18586TIP3   OH277248   1.793   1.473  12.761 -0.8281  0.0321  0.7745
18586TIP3    H177249   1.773   1.414  12.688 -1.7165 -1.2465  1.9876
18586TIP3    H277250   1.767   1.424  12.839  2.0950  0.4739  2.1504
18587TIP3   OH277251   4.222   0.377  12.348  0.3700  0.4296  0.2086
18587TIP3    H177252   4.252   0.302  12.400  1.7974  0.5384 -0.4039
18587TIP3    H277253   4.173   0.338  12.275  1.2833  0.0585 -0.2210
18588TIP3   OH277254   1.387   5.521   4.001  0.8240  0.2238  0.0434
18588TIP3    H177255   1.468   5.479   4.029  1.8050  1.5171 -0.6983
18588TIP3    H277256   1.369   5.484   3.915 -0.0750 -0.9600  0.7205
18589TIP3   OH277257   2.699   4.206   4.978  0.0875  0.2630  0.0807
18589TIP3    H177258   2.710   4.139   5.046  1.5200  1.0686  0.6929
18589TIP3    H277259   2.788   4.239   4.964 -0.1573  0.0854 -2.2354
18590TIP3   OH277260   5.733   3.671   4.366 -0.0800  0.5007  0.1500
18590TIP3    H177261   5.810   3.709   4.409  0.6267 -0.7417  0.0207
18590TIP3    H277262   5.765   3.639   4.282 -0.9439  0.7759 -0.2970
18591TIP3   OH277263   0.095   2.628  11.641 -0.4100  0.1705 -0.2882
18591TIP3    H177264   0.052   2.618  11.556  0.6259 -1.1616 -0.6960
18591TIP3    H277265   0.185   2.653  11.620 -0.8758  2.8512  0.5407
18592TIP3   OH277266   3.995   2.410  11.990 -0.1870  0.2879 -0.6183
18592TIP3    H177267   4.006   2.406  12.085  0.2888 -0.7619 -0.7036
18592TIP3    H277268   3.938   2.336  11.969  1.1674 -0.6182 -1.3231
18593TIP3   OH277269   4.798   4.895   4.785 -0.4819  0.4464  0.8972
18593TIP3    H177270   4.857   4.847   4.727 -0.4103  1.0101  0.5067
18593TIP3    H277271   4.732   4.830   4.810 -0.3284  0.1160  0.4531
18594TIP3   OH277272   6.725   2.030   5.517 -0.2721  0.4300  0.1983
18594TIP3    H177273   6.725   2.014   5.423  0.8302  1.8887 -0.0886
18594TIP3    H277274   6.666   1.964   5.553 -0.7955 -0.0848 -1.5201
18595TIP3   OH277275   3.185   2.812  15.604  0.7430 -0.8454  0.3824
18595TIP3    H177276   3.259   2.871  15.615  1.0314 -1.3153  1.0319
18595TIP3    H277277   3.171   2.775  15.691  0.2759 -1.3914  0.0819
18596TIP3   OH277278   6.321   5.902   2.049 -0.4472  0.4107  0.0155
18596TIP3    H177279   6.351   5.883   2.138 -1.3536  1.3044  0.5303
18596TIP3    H277280   6.397   5.884   1.993 -0.6686 -2.9337  0.6110
18597TIP3   OH277281   2.847   5.289  12.862  0.6248  0.5151  0.0586
18597TIP3    H177282   2.845   5.261  12.771  0.0278  0.2287  0.1585
18597TIP3    H277283   2.877   5.212  12.910 -2.2867 -0.4775  0.4975
18598TIP3   OH277284   1.558   3.237  12.439 -0.2899  0.4145  0.7294
18598TIP3    H177285   1.650   3.256  12.422 -0.4363  0.0964 -0.4805
18598TIP3    H277286   1.510   3.298  12.384 -0.8425  1.2288  2.0546
18599TIP3   OH277287   2.282   1.902   3.349  0.0639 -0.3556  0.0339
18599TIP3    H177288   2.196   1.883   3.311 -0.8352  2.0349  0.7155
18599TIP3    H277289   2.289   1.843   3.424 -0.5417 -1.2224 -0.5742
18600TIP3   OH277290   1.062   2.562  12.590  0.0399 -0.0188 -0.1393
18600TIP3    H177291   1.000   2.599  12.653 -1.3819  1.5255 -2.2947
18600TIP3    H277292   1.040   2.469  12.586  0.7270 -0.3452  2.1596
18601TIP3   OH277293   1.597   6.351   4.567 -0.4257  0.0701 -0.0914
18601TIP3    H177294   1.671   6.344   4.626 -1.1368  1.9532  1.0857
18601TIP3    H277295   1.521   6.329   4.621 -0.8279 -1.5016 -1.1939
18602TIP3   OH277296   1.545   5.666  11.614 -0.5112 -0.6907 -0.0323
18602TIP3    H177297   1.620   5.697  11.663 -0.4775 -0.5753 -0.1577
18602TIP3    H277298   1.513   5.743  11.567 -0.7372 -0.7266  0.0600
18603TIP3   OH277299   3.002   3.057  10.624  0.2779  0.0165 -0.1069
18603TIP3    H177300   2.945   3.134  10.629  1.3244  0.9964 -1.9769
18603TIP3    H277301   2.942   2.985  10.603 -0.8165  0.1054  2.4058
18604TIP3   OH277302   0.880   5.687   2.928  0.7369  0.3572  0.0845
18604TIP3    H177303   0.811   5.733   2.975 -0.2115  0.4417 -1.3225
18604TIP3    H277304   0.840   5.662   2.844  1.8426 -1.2325 -0.0238
18605TIP3   OH277305   0.122   4.324   2.167 -0.3719 -0.6845 -0.1829
18605TIP3    H177306   0.179   4.327   2.244 -0.0526 -3.4257 -0.2063
18605TIP3    H277307   0.155   4.392   2.109  1.5385 -0.8356  0.6690
18606TIP3   OH277308   6.626   5.622  12.638 -0.1789  0.1760  0.4239
18606TIP3    H177309   6.586   5.572  12.566  0.5851  2.1103 -1.4225
18606TIP3    H277310   6.555   5.630  12.702 -0.6346 -2.3290  0.3481
18607TIP3   OH277311   0.701   2.747   1.874  0.4234  0.2170  0.3290
18607TIP3    H177312   0.775   2.806   1.863  0.5269  0.0608  0.1733
18607TIP3    H277313   0.661   2.772   1.957  1.9494 -1.1097  1.5309
18608TIP3   OH277314   5.306   5.271  12.093 -0.1313 -0.2676  0.6346
18608TIP3    H177315   5.267   5.292  12.177 -1.9130 -1.9782  0.3067
18608TIP3    H277316   5.270   5.336  12.032 -1.6633 -1.1356  0.5601
18609TIP3   OH277317   5.129   0.411   1.515 -0.4904 -1.0319 -0.2033
18609TIP3    H177318   5.129   0.459   1.598 -2.2811 -2.2604  0.5669
18609TIP3    H277319   5.056   0.449   1.466  0.7649 -0.0816 -1.4056
18610TIP3   OH277320   1.793   5.300   2.452 -0.3703 -0.8977  0.0373
18610TIP3    H177321   1.888   5.299   2.459 -0.3552  1.0334  0.9842
18610TIP3    H277322   1.773   5.384   2.410 -1.6437 -1.5598 -0.7618
18611TIP3   OH277323   2.930   0.743  13.707  0.2163 -0.3713  0.7546
18611TIP3    H177324   2.922   0.664  13.760 -0.3607  0.3764  1.8186
18611TIP3    H277325   3.005   0.790  13.744 -0.3835  0.3090  1.1326
18612TIP3   OH277326   1.166   6.216  10.604 -0.4307  1.1657 -0.2456
18612TIP3    H177327   1.229   6.221  10.532  2.4363  1.9135  2.1088
18612TIP3    H277328   1.160   6.123  10.625  0.6851  1.1652  0.1196
18613TIP3   OH277329   5.160   4.035  10.485  0.2142 -0.8357 -0.4910
18613TIP3    H177330   5.112   4.101  10.437 -0.5026 -1.3745 -0.5329
18613TIP3    H277331   5.106   4.016  10.561  1.7318  0.6350  1.0425
18614TIP3   OH277332   4.952   4.475   1.685 -0.1083 -0.1645 -0.2686
18614TIP3    H177333   5.008   4.477   1.606 -1.4007 -1.5680 -1.2857
18614TIP3    H277334   5.014   4.466   1.757  1.1388  1.4646 -1.0668
18615TIP3   OH277335   2.317   6.398   2.675  0.0283 -0.1702 -0.0608
18615TIP3    H177336   2.370   6.320   2.688  1.1237  0.7094  1.0018
18615TIP3    H277337   2.303   6.432   2.764 -0.3358  0.8953 -0.5147
18616TIP3   OH277338   4.174   4.329   2.118 -0.5463 -0.2293 -0.3315
18616TIP3    H177339   4.119   4.266   2.072 -0.3285 -0.0120 -0.8887
18616TIP3    H277340   4.164   4.410   2.069 -0.2339 -0.0229 -0.0571
18617TIP3   OH277341   1.048   3.814  15.988  0.5467  0.1878 -0.0900
18617TIP3    H177342   0.988   3.742  16.009 -0.3889  1.1225  0.5750
18617TIP3    H277343   1.017   3.847  15.903  0.8072 -0.0065 -0.2644
18618TIP3   OH277344   5.562   6.794   1.436 -0.0033 -0.0367  0.1477
18618TIP3    H177345   5.562   6.890   1.443  0.0663 -0.1390  2.7253
18618TIP3    H277346   5.471   6.771   1.419 -0.3363  0.4447  1.2152
18619TIP3   OH277347   3.132   4.694  16.723 -0.2821 -0.3982 -0.4686
18619TIP3    H177348   3.125   4.760  16.792 -1.4692 -1.3780  0.3759
18619TIP3    H277349   3.087   4.733  16.648 -1.3748 -0.4106  0.1665
18620TIP3   OH277350   4.435   4.480  14.949  0.1956 -0.0177  0.1932
18620TIP3    H177351   4.525   4.512  14.952  0.0440  0.4367 -0.0782
18620TIP3    H277352   4.434   4.407  15.012  0.3814  0.9090  1.3018
18621TIP3   OH277353   1.472   1.170   0.026  0.2110  0.1107  0.5221
18621TIP3    H177354   1.464   1.103  -0.042  0.7490 -1.1469  1.6608
18621TIP3    H277355   1.383   1.203   0.038  0.1354  0.4928 -0.9101
18622TIP3   OH277356   3.708   4.933   5.082  0.4516 -0.0777  0.4775
18622TIP3    H177357   3.642   4.952   5.150  0.7775  2.5414  0.1968
18622TIP3    H277358   3.730   5.020   5.047  1.4336 -1.2260 -1.9230
18623TIP3   OH277359   5.028   0.664  15.240 -0.2567 -0.1155 -0.3295
18623TIP3    H177360   4.949   0.663  15.294 -0.6105  1.6900 -0.7463
18623TIP3    H277361   5.005   0.721  15.166  1.4218  0.4006 -0.4806
18624TIP3   OH277362   1.154   3.410  15.644  0.2237  0.8435 -0.1811
18624TIP3    H177363   1.200   3.444  15.567  0.5509 -0.5842 -0.6359
18624TIP3    H277364   1.157   3.315  15.635  1.8572  0.5134  2.4782
18625TIP3   OH277365   2.852   3.668  15.754  0.3502 -0.1247 -0.1624
18625TIP3    H177366   2.948   3.659  15.755  0.4724  0.9905 -0.6712
18625TIP3    H277367   2.832   3.711  15.837  0.3734  0.3225 -0.3843
18626TIP3   OH277368   3.957   2.649  12.557  0.1072  0.2349 -0.0396
18626TIP3    H177369   3.961   2.743  12.539 -0.9205  0.2013 -0.4945
18626TIP3    H277370   3.946   2.643  12.652  2.7365  0.4813  0.3628
18627TIP3   OH277371   3.717   3.409  11.535 -0.1469  0.5244 -0.3133
18627TIP3    H177372   3.706   3.502  11.517  1.6324  0.9251  0.4034
18627TIP3    H277373   3.735   3.405  11.629  1.1883 -0.3656 -0.5806
18628TIP3   OH277374   5.940   0.765  16.555 -0.3246 -0.0190 -0.3424
18628TIP3    H177375   5.992   0.844  16.539  2.4787 -1.7595 -0.3350
18628TIP3    H277376   5.940   0.755  16.650 -0.5161 -0.1313 -0.3537
18629TIP3   OH277377   1.317   0.803  15.792 -0.2339  0.2164 -0.4507
18629TIP3    H177378   1.354   0.870  15.850 -0.9773  1.3925 -1.2849
18629TIP3    H277379   1.239   0.844  15.754 -1.0991 -1.3731 -0.4876
18630TIP3   OH277380   0.620   0.504   2.223  0.0193  0.0447 -0.7099
18630TIP3    H177381   0.713   0.492   2.242 -0.2186 -0.5314  0.1463
18630TIP3    H277382   0.606   0.461   2.139  0.7003  0.9115 -1.2810
18631TIP3   OH277383   3.457   3.767   5.129 -0.0341 -0.0661  0.1293
18631TIP3    H177384   3.541   3.813   5.126  1.3407 -2.2411  2.3283
18631TIP3    H277385   3.395   3.833   5.160  1.1525  1.2037 -0.1066
18632TIP3   OH277386   4.348   5.695   1.665  0.3212 -0.8500 -0.0408
18632TIP3    H177387   4.393   5.661   1.588 -0.0750  1.2394 -1.2897
18632TIP3    H277388   4.255   5.678   1.649  0.3966 -2.5488  1.1492
18633TIP3   OH277389   1.012   5.456   4.279 -0.1522 -0.8055  0.0747
18633TIP3    H177390   1.104   5.469   4.304 -0.0361 -0.8725 -0.3163
18633TIP3    H277391   0.983   5.383   4.334 -0.6986  0.7523  1.9981
18634TIP3   OH277392   3.725   1.318  16.543 -0.0156  0.4656  0.4770
18634TIP3    H177393   3.672   1.371  16.484  0.4485  1.1323  0.6551
18634TIP3    H277394   3.664   1.288  16.610 -0.1763  1.2134  0.6703
18635TIP3   OH277395   0.824   1.783  11.093  0.4960  0.2944  0.2929
18635TIP3    H177396   0.760   1.714  11.075  0.3200  0.4740  0.2341
18635TIP3    H277397   0.866   1.755  11.175 -0.9021  1.0698  1.3010
18636TIP3   OH277398   2.354   1.359   5.132 -0.4675 -0.5980 -0.0438
18636TIP3    H177399   2.369   1.453   5.145  0.5849 -0.7631  0.0209
18636TIP3    H277400   2.290   1.355   5.060 -0.6647  0.1674  0.0811
18637TIP3   OH277401   3.341   5.072   2.542  0.1417 -0.2986  0.3237
18637TIP3    H177402   3.353   5.130   2.617 -0.3352 -0.2570  0.3707
18637TIP3    H277403   3.371   4.987   2.572 -2.2854 -0.8650  1.3986
18638TIP3   OH277404   2.599   0.430  11.448 -0.0095  0.1439 -0.2256
18638TIP3    H177405   2.555   0.443  11.532 -2.1939 -2.9773 -0.6850
18638TIP3    H277406   2.689   0.408  11.471  0.1059  1.8191  1.0946
18639TIP3   OH277407   5.627   1.439   3.569 -0.0901  0.1105  0.5633
18639TIP3    H177408   5.610   1.354   3.611  0.9929 -1.0579 -1.2237
18639TIP3    H277409   5.681   1.486   3.633  2.5102 -2.0728  0.1618
18640TIP3   OH277410   4.749   5.693  15.216  0.6965 -0.0656 -0.3616
18640TIP3    H177411   4.809   5.627  15.180 -0.7714 -1.3285 -0.5676
18640TIP3    H277412   4.662   5.658  15.198 -0.1031  0.9312  1.4319
18641TIP3   OH277413   5.423   1.901  14.787  0.4980  0.6075  0.1383
18641TIP3    H177414   5.333   1.931  14.794 -0.1734 -1.1816 -0.1903
18641TIP3    H277415   5.472   1.954  14.849 -0.8686  1.2832  0.6566
18642TIP3   OH277416   6.711   2.175  16.958 -0.1491 -0.3492 -0.1540
18642TIP3    H177417   6.618   2.160  16.975 -0.0027 -0.7684  0.3003
18642TIP3    H277418   6.712   2.231  16.881 -0.8204  0.6230  0.5016
18643TIP3   OH277419   4.105   0.785   0.036 -0.3600  0.0696  0.1352
18643TIP3    H177420   4.108   0.880   0.052  0.7621 -0.2013  1.6743
18643TIP3    H277421   4.196   0.756   0.043 -1.0304 -1.6628  3.3398
18644TIP3   OH277422   6.809   1.257   1.926 -0.5279 -0.6411 -0.1897
18644TIP3    H177423   6.759   1.193   1.977  0.5400  0.5521  2.5506
18644TIP3    H277424   6.900   1.241   1.951 -0.2376  1.8998  0.5925
18645TIP3   OH277425   0.021   4.848  16.246  0.3123  0.0398  0.5679
18645TIP3    H177426   0.083   4.918  16.263  0.4831 -0.3528  1.6398
18645TIP3    H277427  -0.017   4.827  16.331 -3.2811  2.0578 -0.3175
18646TIP3   OH277428   3.775   3.857   2.515  0.5436 -0.5466  0.1253
18646TIP3    H177429   3.816   3.773   2.537  1.8894 -0.3678 -1.4644
18646TIP3    H277430   3.710   3.835   2.449  1.9884 -0.2384 -1.4945
18647TIP3   OH277431   3.118   0.451  16.979  0.3640  0.7434 -0.2422
18647TIP3    H177432   3.047   0.414  17.030  0.3371  0.3943 -0.5288
18647TIP3    H277433   3.098   0.427  16.888  1.2990 -0.1474 -0.2393
18648TIP3   OH277434   2.396   6.748  16.807  0.1374 -0.2928 -0.4419
18648TIP3    H177435   2.480   6.785  16.778  0.9398 -0.9956  0.8870
18648TIP3    H277436   2.412   6.721  16.897 -1.6399 -0.1443 -0.0517
18649TIP3   OH277437   6.244   3.545  11.590 -0.0865  0.0485 -0.1486
18649TIP3    H177438   6.228   3.634  11.621 -0.7206  0.4372 -1.5502
18649TIP3    H277439   6.212   3.489  11.661 -0.1733  0.9232  0.5117
18650TIP3   OH277440   1.410   2.253   0.205 -0.1862 -0.0996  0.2462
18650TIP3    H177441   1.494   2.211   0.186 -0.2949 -0.6542  0.9449
18650TIP3    H277442   1.347   2.181   0.205 -0.3452  0.0033  1.6699
18651TIP3   OH277443   4.567   3.296  10.525  0.3047  0.2268 -0.5348
18651TIP3    H177444   4.519   3.215  10.505  0.0706  0.2948 -0.2556
18651TIP3    H277445   4.624   3.310  10.449 -0.1544  0.1658 -0.8974
18652TIP3   OH277446   3.530   1.700   5.737  0.1565  0.5358 -0.5331
18652TIP3    H177447   3.560   1.790   5.754 -0.2500  0.4381  0.8004
18652TIP3    H277448   3.606   1.646   5.757  0.4517  0.5792 -1.4925
18653TIP3   OH277449   4.559   6.505  15.092  0.2710 -0.0243 -0.4378
18653TIP3    H177450   4.630   6.547  15.044  2.4632  0.6660  3.0246
18653TIP3    H277451   4.597   6.423  15.124 -0.4982  0.2595  1.3154
18654TIP3   OH277452   5.361   3.401   3.026 -0.0816  0.0116  0.4010
18654TIP3    H177453   5.430   3.406   3.091 -0.1003 -0.3240  0.4529
18654TIP3    H277454   5.404   3.421   2.943  0.3451 -1.3408  0.2661
18655TIP3   OH277455   0.819   4.261  14.328 -0.0135 -0.1416  0.4462
18655TIP3    H177456   0.825   4.171  14.296  0.0042 -0.3587  1.0465
18655TIP3    H277457   0.752   4.257  14.396  0.1170  0.2652  0.5985
18656TIP3   OH277458   6.003   3.124  11.215  0.0400 -0.1854  0.0489
18656TIP3    H177459   5.966   3.096  11.131 -0.1803 -0.3767  0.2052
18656TIP3    H277460   5.951   3.200  11.241  0.8583  0.5907 -0.5374
18657TIP3   OH277461   1.385   2.247   5.232  0.1182  0.3440  0.5434
18657TIP3    H177462   1.312   2.211   5.283 -0.4464  0.2914 -0.2797
18657TIP3    H277463   1.343   2.287   5.155  0.8740  1.2719  0.6017
18658TIP3   OH277464   1.397   4.145   2.686 -0.3447  0.3458  0.3673
18658TIP3    H177465   1.394   4.052   2.662  0.4425  0.4593 -0.2493
18658TIP3    H277466   1.454   4.184   2.619 -0.0528  1.1330  1.0602
18659TIP3   OH277467   2.604   6.030   4.780 -0.1694  0.1199  0.0535
18659TIP3    H177468   2.630   6.098   4.842  0.8891 -0.1747 -0.0640
18659TIP3    H277469   2.511   6.014   4.800  0.2339 -0.2044  1.7607
18660TIP3   OH277470   1.049   1.106   5.543 -0.0865  0.3208  0.7373
18660TIP3    H177471   1.035   1.124   5.636 -0.9285  0.3269  0.6156
18660TIP3    H277472   1.144   1.096   5.535 -0.0784 -0.7259  1.7858
18661TIP3   OH277473   4.036   1.200   1.330  0.2577 -0.3002 -0.4361
18661TIP3    H177474   4.117   1.248   1.312 -1.1117  2.3429 -0.0898
18661TIP3    H277475   4.062   1.108   1.327  2.8040  0.3381 -2.5762
18662TIP3   OH277476   2.809   2.354  13.921  0.0921  0.3168 -0.7714
18662TIP3    H177477   2.827   2.433  13.971 -0.2375  1.2676 -2.0815
18662TIP3    H277478   2.888   2.301  13.931  1.1725  1.6989 -1.4664
18663TIP3   OH277479   6.056   1.589  13.830  0.9389  0.4187 -0.5424
18663TIP3    H177480   6.026   1.512  13.782 -0.4310  0.8694 -0.4638
18663TIP3    H277481   6.041   1.567  13.922 -1.8789  1.6583 -0.6028
18664TIP3   OH277482   0.384   3.745   0.611  0.3321 -0.3044  0.0087
18664TIP3    H177483   0.301   3.787   0.586  0.7120  1.3338  1.3203
18664TIP3    H277484   0.432   3.739   0.528 -0.0714  1.1628 -0.3831
18665TIP3   OH277485   5.217   5.670   2.540 -0.1253 -0.4613 -0.2069
18665TIP3    H177486   5.253   5.758   2.532 -0.6257 -0.0778  1.3224
18665TIP3    H277487   5.225   5.632   2.453 -0.9550  1.5018 -1.1935
18666TIP3   OH277488   2.429   6.162  17.033 -0.2946 -0.9533  0.2913
18666TIP3    H177489   2.416   6.244  17.081  0.0868  0.0865 -1.3188
18666TIP3    H277490   2.516   6.133  17.059  1.3682  1.3753 -2.1777
18667TIP3   OH277491   4.583   1.487   0.495  0.0336  0.2357  0.6180
18667TIP3    H177492   4.648   1.500   0.564  0.9893 -0.1119 -0.1960
18667TIP3    H277493   4.523   1.561   0.505  0.6139  0.6259  1.3291
18668TIP3   OH277494   2.333   6.686   4.480 -0.2377  0.0094 -0.0622
18668TIP3    H177495   2.396   6.754   4.455  1.6078 -1.6204 -0.1464
18668TIP3    H277496   2.348   6.616   4.417 -1.9228 -0.5939  0.1592
18669TIP3   OH277497   1.499   5.942  14.996 -0.0083 -0.0056  0.1728
18669TIP3    H177498   1.534   5.899  14.918  0.5797  2.1367 -0.8341
18669TIP3    H277499   1.405   5.922  14.994  0.0522 -0.2701 -0.9105
18670TIP3   OH277500   3.483   3.780   5.676  0.3773 -0.0660  0.2253
18670TIP3    H177501   3.566   3.733   5.667  1.1910  1.2790  0.3386
18670TIP3    H277502   3.498   3.839   5.750 -1.3614 -1.1311  1.4975
18671TIP3   OH277503   3.806   3.972  12.663  0.2823 -0.2173  0.2651
18671TIP3    H177504   3.848   4.043  12.614 -0.9708 -0.7437 -1.6882
18671TIP3    H277505   3.802   4.004  12.753 -0.1698  2.1767 -0.5404
18672TIP3   OH277506   0.996   1.222  11.517 -0.4713  0.4802  0.7934
18672TIP3    H177507   1.029   1.133  11.532  0.2627  0.9513  2.1103
18672TIP3    H277508   1.061   1.262  11.459 -0.3359  0.4396  0.9171
18673TIP3   OH277509   1.189   1.381   3.232  0.0227 -0.4342 -0.8130
18673TIP3    H177510   1.167   1.383   3.326 -0.5372 -1.5555 -0.9129
18673TIP3    H277511   1.282   1.402   3.230 -0.0792  0.1872 -0.0580
18674TIP3   OH277512   0.430   6.749  11.377 -0.4046 -0.2643  0.5176
18674TIP3    H177513   0.447   6.669  11.327  0.3846 -0.5506  1.2282
18674TIP3    H277514   0.361   6.793  11.327 -0.4380 -1.0917 -0.2060
18675TIP3   OH277515   2.004   0.844   4.918  0.0637 -0.5514  0.6083
18675TIP3    H177516   2.038   0.895   4.992  1.6481 -0.2384 -0.2864
18675TIP3    H277517   1.928   0.799   4.953  1.7354 -1.7838  2.9310
18676TIP3   OH277518   4.321   3.086  13.938 -0.2033 -0.4293  0.0519
18676TIP3    H177519   4.372   3.055  13.863  1.3232 -0.6083  1.1293
18676TIP3    H277520   4.374   3.155  13.978 -1.2446  0.0541  0.6577
18677TIP3   OH277521   6.446   2.196   4.511 -0.0375  0.0627  0.2563
18677TIP3    H177522   6.539   2.197   4.535 -0.0639  3.1471  0.5665
18677TIP3    H277523   6.446   2.179   4.416  0.6582 -1.9596  0.5678
18678TIP3   OH277524   1.874   1.369  11.710  0.1567  0.0118 -0.3596
18678TIP3    H177525   1.899   1.349  11.620 -1.3402  0.9857 -1.0324
18678TIP3    H277526   1.946   1.336  11.763  1.0142 -0.6891 -1.9014
18679TIP3   OH277527   6.430   3.983  12.015  0.3860 -0.3081  0.1661
18679TIP3    H177528   6.450   4.073  11.987  2.5510  0.2136  2.8409
18679TIP3    H277529   6.387   3.943  11.940 -1.4728  3.1875 -0.8826
18680TIP3   OH277530   5.079   5.582   0.813 -0.0448  0.8245  0.6715
18680TIP3    H177531   5.171   5.598   0.835  0.1850  0.9524 -0.3337
18680TIP3    H277532   5.058   5.499   0.856  1.5749 -1.0112 -1.8812
18681TIP3   OH277533   2.959   3.730   2.259 -0.3690  0.2044  0.0242
18681TIP3    H177534   3.033   3.671   2.243 -0.5137 -0.0613  0.3230
18681TIP3    H277535   2.996   3.802   2.310 -0.5517 -0.5375  1.2527
18682TIP3   OH277536   1.013   5.586   4.909 -0.2114 -0.8595  0.0379
18682TIP3    H177537   0.971   5.590   4.995  0.5911 -0.9803  0.4376
18682TIP3    H277538   1.098   5.629   4.921  0.8201 -2.7585 -0.1544
18683TIP3   OH277539   4.731   1.987  16.838  0.2613 -0.6111 -0.8075
18683TIP3    H177540   4.696   1.934  16.766  0.7540 -2.0486 -0.0235
18683TIP3    H277541   4.700   1.944  16.917  0.5256  0.3961 -0.1315
18684TIP3   OH277542   3.226   3.068  15.203  0.1628  0.2497 -0.6664
18684TIP3    H177543   3.319   3.088  15.192  0.6682 -0.4632  1.8193
18684TIP3    H277544   3.223   2.974  15.218 -0.8203  0.4636  0.5878
18685TIP3   OH277545   4.367   4.943  11.130 -0.5612  0.1948 -0.4181
18685TIP3    H177546   4.363   4.872  11.194  0.3493  0.2007 -0.3442
18685TIP3    H277547   4.352   4.900  11.046  1.2831 -0.3121 -0.5136
18686TIP3   OH277548   0.685   4.268   3.131 -0.5432 -0.2400 -0.3007
18686TIP3    H177549   0.733   4.240   3.209  0.0398  1.2954 -0.0703
18686TIP3    H277550   0.596   4.237   3.145 -0.7450  1.0388  1.5892
18687TIP3   OH277551   5.222   5.295   0.171 -0.3069  0.0487 -0.2948
18687TIP3    H177552   5.295   5.351   0.200  1.0629 -0.0416 -3.2779
18687TIP3    H277553   5.242   5.209   0.208 -2.1502  1.1396  3.8831
18688TIP3   OH277554   3.423   1.934   5.219 -0.2618 -0.1462  0.5634
18688TIP3    H177555   3.494   1.915   5.280 -0.3178 -0.7731  0.4327
18688TIP3    H277556   3.439   1.878   5.143  1.1590  2.3174 -1.0787
18689TIP3   OH277557   0.158   5.956  14.924  0.2450  0.4006  0.8236
18689TIP3    H177558   0.147   5.897  14.999 -1.0238  0.1130  0.4351
18689TIP3    H277559   0.249   5.943  14.896  0.1849 -0.8652  1.1667
18690TIP3   OH277560   3.812   6.527  12.156  0.6955 -0.3148 -0.4905
18690TIP3    H177561   3.875   6.536  12.227  1.2848  1.7698 -1.2025
18690TIP3    H277562   3.786   6.617  12.136 -0.4315 -0.9513 -2.0412
18691TIP3   OH277563   4.316   2.727  12.850 -0.0527  0.1983  0.3830
18691TIP3    H177564   4.370   2.789  12.801 -1.8319  0.3961 -1.4567
18691TIP3    H277565   4.291   2.775  12.930  0.8734  0.7909  0.3360
18692TIP3   OH277566   5.001   4.431   3.562  0.0576 -0.0267  0.2685
18692TIP3    H177567   4.973   4.355   3.613 -0.1699 -0.9408 -1.1356
18692TIP3    H277568   5.068   4.396   3.503  0.8456  1.1478  0.4301
18693TIP3   OH277569   0.714   3.958   0.643  0.1123 -0.6239 -0.3093
18693TIP3    H177570   0.625   3.967   0.676  0.6863 -1.6007  1.6554
18693TIP3    H277571   0.719   4.020   0.570 -1.9206  0.0132  0.0294
18694TIP3   OH277572   1.603   5.961  14.194  0.4089 -0.4093  0.3521
18694TIP3    H177573   1.624   6.035  14.136 -1.0288 -0.6407 -0.4958
18694TIP3    H277574   1.653   5.979  14.274 -0.4213  1.8737  0.4428
18695TIP3   OH277575   3.164   4.676  11.697  1.1322 -0.0194  0.0945
18695TIP3    H177576   3.111   4.743  11.653  1.3469 -0.8917 -1.5582
18695TIP3    H277577   3.160   4.701  11.790 -1.7067  0.2802  0.0035
18696TIP3   OH277578   0.085   6.048   1.930 -0.2962 -0.5146  0.0495
18696TIP3    H177579   0.172   6.076   1.956 -0.2366  0.2761 -0.9427
18696TIP3    H277580   0.100   5.969   1.878 -0.2288 -0.7558  0.4332
18697TIP3   OH277581   1.513   1.877   3.688 -0.0619  0.3455  0.1599
18697TIP3    H177582   1.478   1.803   3.737  2.0885 -0.1714  1.0711
18697TIP3    H277583   1.596   1.897   3.732  0.2755  2.1401 -1.1743
18698TIP3   OH277584   4.989   1.489   3.515  0.3222 -0.1841  0.4741
18698TIP3    H177585   5.059   1.549   3.542 -2.1748  1.4766  4.1474
18698TIP3    H277586   4.986   1.423   3.585 -1.4814 -0.3908  0.2517
18699TIP3   OH277587   4.177   4.209   0.116  0.3163  0.2552 -0.2597
18699TIP3    H177588   4.193   4.115   0.105  1.6043  0.4030  0.2578
18699TIP3    H277589   4.106   4.213   0.181  1.2402 -0.3421  0.8087
18700TIP3   OH277590   2.596   0.722   4.017 -0.8180  0.0765 -0.2971
18700TIP3    H177591   2.584   0.735   3.923 -0.1246 -2.2769 -0.7737
18700TIP3    H277592   2.530   0.656   4.040  0.4924 -1.0317  0.3777
18701TIP3   OH277593   3.626   4.796   3.308 -0.1582  0.0758 -0.2688
18701TIP3    H177594   3.554   4.787   3.371  1.9509  0.9190  2.4391
18701TIP3    H277595   3.693   4.734   3.337  0.6128 -0.1060 -2.2297
18702TIP3   OH277596   6.287   2.056  11.217  0.5890  0.6660 -0.4533
18702TIP3    H177597   6.304   2.131  11.160  2.0752 -0.1720 -1.1740
18702TIP3    H277598   6.364   2.001  11.208  0.1637 -0.2688  1.1787
18703TIP3   OH277599   0.123   4.487  11.200 -0.3931  0.2014  0.0547
18703TIP3    H177600   0.213   4.510  11.175  0.5352 -3.8348 -0.9185
18703TIP3    H277601   0.108   4.401  11.162 -3.7056 -0.5405  2.5673
18704TIP3   OH277602   5.214   1.423  16.654 -0.1877  0.3880  0.5229
18704TIP3    H177603   5.224   1.422  16.559 -3.4079 -0.2057  0.0843
18704TIP3    H277604   5.294   1.382  16.687  0.7633  0.1011 -1.9371
18705TIP3   OH277605   5.803   6.187   3.058  0.5008  0.1301 -0.2629
18705TIP3    H177606   5.742   6.212   2.988  0.5277 -0.8378 -0.6432
18705TIP3    H277607   5.751   6.132   3.116  1.0396 -0.8312 -0.6729
18706TIP3   OH277608   4.869   5.388   6.467 -0.6288  0.1876  0.1497
18706TIP3    H177609   4.795   5.422   6.416 -0.5126 -0.9112 -0.8095
18706TIP3    H277610   4.866   5.294   6.452  0.4638  0.0404  0.7948
18707TIP3   OH277611   6.124   4.347   3.254 -0.1124 -0.6046 -0.5981
18707TIP3    H177612   6.061   4.296   3.203 -1.1293 -0.9282  0.8902
18707TIP3    H277613   6.112   4.437   3.224 -2.2654 -0.4491  0.5240
18708TIP3   OH277614   4.101   4.731  12.207  0.1611 -0.0975 -0.1262
18708TIP3    H177615   4.065   4.702  12.291  0.3683  1.9571  0.7334
18708TIP3    H277616   4.195   4.717  12.215  0.2481  0.6652  0.2397
18709TIP3   OH277617   2.172   6.448  10.620  0.1705  0.0142 -0.0364
18709TIP3    H177618   2.197   6.534  10.586  0.1636 -0.3161 -0.8922
18709TIP3    H277619   2.193   6.387  10.550  1.4226 -0.8658  1.0568
18710TIP3   OH277620   3.213   2.422   4.472  0.2107 -0.6378  0.3029
18710TIP3    H177621   3.240   2.502   4.427 -0.0290 -0.9276 -0.3856
18710TIP3    H277622   3.290   2.395   4.521  1.6277 -1.9949 -2.4120
18711TIP3   OH277623   2.027   0.290  14.956 -0.1458  0.1284 -0.6958
18711TIP3    H177624   1.948   0.301  14.903 -1.0717 -0.4397  0.5366
18711TIP3    H277625   2.045   0.196  14.953 -1.1135 -0.1582  1.2262
18712TIP3   OH277626   6.579   5.610  17.052  0.2188 -0.6360  0.1967
18712TIP3    H177627   6.537   5.546  17.109  0.5344 -1.3590 -0.3639
18712TIP3    H277628   6.537   5.598  16.967  0.8554 -0.6822 -0.1211
18713TIP3   OH277629   1.113   5.615  13.054  0.2689 -0.0272  0.5695
18713TIP3    H177630   1.100   5.529  13.013 -0.7862  0.0287  0.7569
18713TIP3    H277631   1.024   5.644  13.077  0.7725  0.0829  2.6062
18714TIP3   OH277632   5.242   0.324   2.425  0.3508  0.2513 -0.0468
18714TIP3    H177633   5.235   0.264   2.499  1.0547  0.1644 -0.0403
18714TIP3    H277634   5.195   0.280   2.354  1.4802 -0.6933 -0.2628
18715TIP3   OH277635   5.086   3.921  11.856  0.1601  0.1455 -0.0014
18715TIP3    H177636   5.041   3.943  11.773 -1.4428 -1.7380  0.3021
18715TIP3    H277637   5.026   3.954  11.924  1.2016  1.1711  0.4518
18716TIP3   OH277638   4.990   0.744  10.753 -0.1080  0.1272  0.0122
18716TIP3    H177639   5.024   0.755  10.664  0.1164 -0.5706  0.0088
18716TIP3    H277640   5.027   0.818  10.801  0.3044  0.1452 -0.3222
18717TIP3   OH277641   2.342   0.185  15.134 -0.8854  0.9268  0.1133
18717TIP3    H177642   2.310   0.163  15.046 -1.5272 -0.5478  0.6847
18717TIP3    H277643   2.432   0.214  15.120 -0.3728 -0.9667 -0.8782
18718TIP3   OH277644   6.708   3.765  14.186  0.2913  0.6335  0.3056
18718TIP3    H177645   6.781   3.820  14.160 -0.7754  1.6855 -0.5291
18718TIP3    H277646   6.648   3.824  14.232  0.0692 -0.2728  1.2395
18719TIP3   OH277647   2.840   0.706   0.442 -0.4456  0.0739 -0.4679
18719TIP3    H177648   2.845   0.783   0.386 -1.1255  1.3603  1.1641
18719TIP3    H277649   2.747   0.684   0.444 -0.5307  0.4752  0.6777
18720TIP3   OH277650   4.547   1.752  15.299  0.8641  0.1016 -0.5067
18720TIP3    H177651   4.617   1.736  15.235  2.2331  1.6780  0.5317
18720TIP3    H277652   4.513   1.839  15.277  0.7839  0.3059  0.3973
18721TIP3   OH277653   0.979   5.336  15.812  0.1812  0.0067  0.4603
18721TIP3    H177654   0.907   5.386  15.851 -2.4281 -0.9042 -2.7960
18721TIP3    H277655   0.978   5.252  15.858 -0.5176  0.1673  0.7539
18722TIP3   OH277656   5.774   3.688  11.932  0.5794 -0.2154  0.6343
18722TIP3    H177657   5.869   3.683  11.947  0.7471 -0.5440 -0.4156
18722TIP3    H277658   5.752   3.779  11.952  1.2277  0.0110  0.3662
18723TIP3   OH277659   5.273   6.033  12.699 -0.3614  0.6262  0.1981
18723TIP3    H177660   5.237   6.090  12.767 -0.9495 -0.4106  0.7863
18723TIP3    H277661   5.288   6.091  12.624  0.5839  1.8402  1.3007
18724TIP3   OH277662   6.368   4.109  14.494  0.0775  0.8453 -0.2112
18724TIP3    H177663   6.448   4.140  14.452  0.7406 -1.7331 -1.0122
18724TIP3    H277664   6.398   4.070  14.576 -0.4881  0.5799 -0.1264
18725TIP3   OH277665   3.839   1.835   1.246  0.5949 -0.2253 -0.0794
18725TIP3    H177666   3.913   1.895   1.239 -2.0632  3.2075 -1.2848
18725TIP3    H277667   3.841   1.786   1.164 -0.8274  3.0595 -2.2879
18726TIP3   OH277668   3.289   3.774   4.795 -0.7929  0.0434 -0.3513
18726TIP3    H177669   3.300   3.710   4.725 -0.0758 -1.3082  0.9320
18726TIP3    H277670   3.368   3.827   4.792 -0.0578 -0.9646  0.3188
18727TIP3   OH277671   4.686   4.601   2.152 -0.0509 -0.4840 -0.0191
18727TIP3    H177672   4.595   4.595   2.123  0.2554  0.1040 -1.1606
18727TIP3    H277673   4.733   4.535   2.101  0.4179  0.2534 -0.5648
18728TIP3   OH277674   0.115   6.791   1.523  0.8303 -0.4287 -0.6911
18728TIP3    H177675   0.069   6.857   1.471  0.6999 -0.1637 -0.2453
18728TIP3    H277676   0.186   6.761   1.467  1.9224  1.2886 -0.2864
18729TIP3   OH277677   5.168   3.379  12.143 -0.0645 -0.3895  0.6167
18729TIP3    H177678   5.232   3.374  12.214 -0.0200  1.0918  0.7199
18729TIP3    H277679   5.132   3.468  12.149  0.7029  0.1757 -1.8454
18730TIP3   OH277680   1.845   5.835   0.067  0.4207 -0.8381  0.3064
18730TIP3    H177681   1.820   5.913   0.115  0.9479 -0.5104  0.0542
18730TIP3    H277682   1.845   5.765   0.132  2.1009 -0.2180  1.0313
18731TIP3   OH277683   3.401   6.772  11.546 -0.0009 -0.3580 -0.8600
18731TIP3    H177684   3.493   6.752  11.530  0.1529  1.4568 -2.5983
18731TIP3    H277685   3.402   6.826  11.626  0.4686 -0.1388 -1.0097
18732TIP3   OH277686   4.907   3.265  13.585  0.1512  0.6265 -1.0201
18732TIP3    H177687   4.864   3.320  13.519  0.6382  1.5483 -0.5943
18732TIP3    H277688   5.000   3.286  13.577  0.5346 -1.2357 -1.8236
18733TIP3   OH277689   6.128   4.684   0.461  0.8153 -0.2450 -0.0714
18733TIP3    H177690   6.098   4.672   0.551  0.0112 -0.1903 -0.3185
18733TIP3    H277691   6.122   4.778   0.446 -0.0006 -0.3567 -0.4877
18734TIP3   OH277692   3.555   6.524   2.747 -0.5528 -0.3182 -0.1940
18734TIP3    H177693   3.464   6.511   2.776 -0.5710 -0.8354 -0.4832
18734TIP3    H277694   3.570   6.454   2.684  0.0158 -0.1655 -0.2264
18735TIP3   OH277695   6.002   5.446  14.374  0.1416 -0.3408 -0.1919
18735TIP3    H177696   6.023   5.527  14.328 -0.8013  0.6560  1.0676
18735TIP3    H277697   6.082   5.423  14.420  0.5011 -0.2945 -0.7801
18736TIP3   OH277698   5.987   3.844   1.110  0.7137  0.5384 -0.0978
18736TIP3    H177699   6.024   3.865   1.024 -0.0664 -1.2377 -0.9203
18736TIP3    H277700   5.931   3.768   1.094  1.3323 -0.4720  2.1665
18737TIP3   OH277701   1.625   2.817   3.763 -0.2695  0.3862  0.3330
18737TIP3    H177702   1.676   2.898   3.770  0.6823 -0.1177 -0.3899
18737TIP3    H277703   1.535   2.846   3.755  0.0856  1.3931 -0.2219
18738TIP3   OH277704   0.598   5.347  11.769 -0.7633 -0.2870 -0.0289
18738TIP3    H177705   0.545   5.402  11.712  3.2698  0.7875 -3.2902
18738TIP3    H277706   0.680   5.395  11.779  1.6257 -3.9719  0.1749
18739TIP3   OH277707   2.040   4.080   2.910 -0.5485  0.1431 -0.4086
18739TIP3    H177708   2.122   4.048   2.872  0.2046  0.8052  0.6005
18739TIP3    H277709   1.972   4.052   2.849  0.5634  0.7803 -2.0072
18740TIP3   OH277710   1.708   0.965  16.357  0.2673  0.0388  0.3872
18740TIP3    H177711   1.678   1.055  16.343  1.5194  0.4340  0.1665
18740TIP3    H277712   1.647   0.930  16.422  0.4843  1.4444  1.4027
18741TIP3   OH277713   0.184   0.804  11.491 -0.2231  0.3440 -0.4076
18741TIP3    H177714   0.133   0.864  11.435 -0.1538  0.9094  0.1221
18741TIP3    H277715   0.140   0.720  11.483 -1.4980  0.9073  0.3523
18742TIP3   OH277716   1.198   6.293   2.196  0.6609  0.4070 -0.1822
18742TIP3    H177717   1.147   6.374   2.202 -0.4815 -0.2143 -1.0832
18742TIP3    H277718   1.241   6.298   2.111  2.4334  1.0806  0.7144
18743TIP3   OH277719   3.010   6.827   3.317 -0.5232  0.8062  0.4778
18743TIP3    H177720   2.982   6.874   3.238 -1.6442 -0.3978  0.1310
18743TIP3    H277721   3.051   6.747   3.284  0.4163  1.0276  1.0872
18744TIP3   OH277722   4.440   1.608  13.435  0.2423 -0.4057  0.1722
18744TIP3    H177723   4.441   1.703  13.418  0.7924 -0.3299  0.5831
18744TIP3    H277724   4.446   1.601  13.530 -1.0432 -0.8500  0.2307
18745TIP3   OH277725   3.739   1.411   4.756  0.1324  0.7026  0.0494
18745TIP3    H177726   3.654   1.446   4.731 -0.2060  0.0115  0.2248
18745TIP3    H277727   3.780   1.385   4.674 -0.1459  0.3242  0.0270
18746TIP3   OH277728   2.555   1.624  15.726 -0.1731  0.3005  0.3184
18746TIP3    H177729   2.619   1.612  15.656  0.0686 -1.7688  0.8247
18746TIP3    H277730   2.592   1.695  15.780 -0.5149  2.1492 -1.7224
18747TIP3   OH277731   0.120   2.138   5.607  0.0250 -0.7896  0.4063
18747TIP3    H177732   0.037   2.093   5.593 -1.5774  1.5929  1.5633
18747TIP3    H277733   0.133   2.190   5.527 -0.5724  0.1903  0.9215
18748TIP3   OH277734   2.212   0.810   0.508 -0.1429 -0.9364  0.0752
18748TIP3    H177735   2.212   0.778   0.418  1.5009  0.7279 -0.5817
18748TIP3    H277736   2.140   0.873   0.511 -0.0672 -0.8378 -0.1412
18749TIP3   OH277737   1.169   1.737  11.710  0.4802  0.0205 -0.4009
18749TIP3    H177738   1.206   1.826  11.711 -0.3276  0.3912  1.2254
18749TIP3    H277739   1.217   1.691  11.779 -0.7765 -0.0463  0.4531
18750TIP3   OH277740   1.313   1.756  16.274  0.0647  0.3526 -0.3318
18750TIP3    H177741   1.252   1.772  16.201 -0.1395 -0.7735 -0.4307
18750TIP3    H277742   1.347   1.668  16.257  1.4521  0.8234 -0.0752
18751TIP3   OH277743   6.245   4.093   0.627  0.3231 -0.1506  0.3543
18751TIP3    H177744   6.308   4.151   0.670  0.4117  1.2969 -1.5296
18751TIP3    H277745   6.299   4.037   0.570  0.0589 -0.3060  0.2561
18752TIP3   OH277746   4.632   3.685   0.275  0.2102 -0.5850  0.0175
18752TIP3    H177747   4.672   3.598   0.274 -1.1467 -1.2453 -1.1575
18752TIP3    H277748   4.538   3.667   0.274 -0.1513  0.9027  1.8234
18753TIP3   OH277749   5.871   2.320   0.535  0.8966  0.0224 -0.2040
18753TIP3    H177750   5.938   2.310   0.602  1.1758  0.8215 -0.3477
18753TIP3    H277751   5.911   2.377   0.469 -0.1443  1.0745  0.0425
18754TIP3   OH277752   0.803   3.026   4.034  0.5746  0.2145  0.2464
18754TIP3    H177753   0.765   3.089   4.095  1.4642  0.4597  0.5615
18754TIP3    H277754   0.823   2.949   4.088  0.6781  0.1485  0.1157
18755TIP3   OH277755   4.457   5.849  12.904  0.7250 -0.3484  0.6240
18755TIP3    H177756   4.468   5.850  12.999  0.6146  1.5508  0.6468
18755TIP3    H277757   4.540   5.882  12.869 -0.2063  1.7659  0.2354
18756TIP3   OH277758   0.878   3.365  13.924  0.1957  0.0636  0.1425
18756TIP3    H177759   0.816   3.419  13.974  0.3502  0.5995 -0.2424
18756TIP3    H277760   0.964   3.390  13.958  0.3140  0.5507 -0.5007
18757TIP3   OH277761   5.547   2.061  14.975 -0.1129 -0.1222 -0.2130
18757TIP3    H177762   5.630   2.105  14.954  0.1448  0.4564  1.8716
18757TIP3    H277763   5.509   2.112  15.045 -1.1215 -1.7063  0.4479
18758TIP3   OH277764   4.812   4.761   6.344  0.2568  0.4556  0.0279
18758TIP3    H177765   4.842   4.717   6.265  0.1168 -0.7248  0.6178
18758TIP3    H277766   4.892   4.788   6.388  0.5189 -2.0157  1.2175
18759TIP3   OH277767   2.387   1.048   3.053 -0.1283 -0.1639 -0.2406
18759TIP3    H177768   2.402   1.005   2.969  0.0207 -3.1104  1.1608
18759TIP3    H277769   2.299   1.022   3.078 -0.7728  1.9535 -0.1170
18760TIP3   OH277770   5.688   4.159   1.463  0.8377 -0.4930  0.2278
18760TIP3    H177771   5.708   4.226   1.529  0.9400  0.6004 -0.8683
18760TIP3    H277772   5.597   4.177   1.438  1.3691  0.3385 -1.2560
18761TIP3   OH277773   5.393   3.238   3.589  0.1906  0.6633  0.2015
18761TIP3    H177774   5.363   3.299   3.657 -2.1227 -0.7139  0.5510
18761TIP3    H277775   5.315   3.187   3.567  1.8108 -1.6166 -0.6431
18762TIP3   OH277776   6.146   5.302  15.423  0.2908 -0.5347  0.4394
18762TIP3    H177777   6.120   5.306  15.515  0.9076  0.3022  0.5867
18762TIP3    H277778   6.065   5.282  15.376 -0.4346  0.9680  0.9920
18763TIP3   OH277779   6.400   0.557  15.455 -0.1782 -0.0604  0.2841
18763TIP3    H177780   6.410   0.590  15.366  2.7114 -1.8897 -0.1894
18763TIP3    H277781   6.316   0.510  15.454  1.1475 -2.7456 -2.5275
18764TIP3   OH277782   6.357   0.125  15.332 -0.0092 -0.3067  0.2466
18764TIP3    H177783   6.406   0.067  15.390  0.6538 -1.0184 -0.9893
18764TIP3    H277784   6.414   0.200  15.318 -0.1481 -0.1582  0.4806
18765TIP3   OH277785   0.788   4.077  11.621  0.0788  0.5266 -0.5597
18765TIP3    H177786   0.750   4.161  11.597 -0.8384  0.3228  0.0971
18765TIP3    H277787   0.871   4.073  11.574 -1.0577  0.6439 -2.7017
18766TIP3   OH277788   0.343   4.578  15.865 -0.2633  0.2081 -0.2108
18766TIP3    H177789   0.311   4.643  15.927 -0.5182  0.1343 -0.2644
18766TIP3    H277790   0.417   4.620  15.822 -0.4160  0.4576 -0.2326
18767TIP3   OH277791   6.559   3.558   4.024  0.1550 -0.2670 -0.3009
18767TIP3    H177792   6.537   3.541   4.116  2.9261  1.1263  0.7316
18767TIP3    H277793   6.601   3.478   3.994  1.0485 -0.0387  0.3065
18768TIP3   OH277794   4.695   3.353   1.118 -0.1342 -0.0351 -0.1718
18768TIP3    H177795   4.637   3.428   1.107  2.9703  2.4597 -0.8100
18768TIP3    H277796   4.730   3.337   1.030  1.4120 -0.3001  0.4550
18769TIP3   OH277797   2.142   6.338  12.996  0.0643  0.5808 -0.1233
18769TIP3    H177798   2.139   6.428  13.028 -0.7173  0.1943  0.9528
18769TIP3    H277799   2.120   6.284  13.072 -2.3237 -0.3600 -1.3646
18770TIP3   OH277800   5.634   1.031   2.478 -0.4730  0.0960  0.0361
18770TIP3    H177801   5.616   1.040   2.384 -1.0084 -0.9372  0.0207
18770TIP3    H277802   5.547   1.032   2.519 -0.3047 -0.4441  0.4133
18771TIP3   OH277803   1.290   3.153   0.571 -0.2818 -0.0894 -0.1787
18771TIP3    H177804   1.336   3.231   0.602  0.2832 -0.3051 -0.4627
18771TIP3    H277805   1.202   3.185   0.550  0.0311  0.5418 -0.5784
18772TIP3   OH277806   5.732   1.848   0.581 -0.0176  0.1116 -0.0465
18772TIP3    H177807   5.754   1.843   0.674 -0.8425  1.8868  0.2842
18772TIP3    H277808   5.785   1.779   0.541  0.7591 -0.3548  1.6498
18773TIP3   OH277809   4.898   6.323  11.805 -0.2554 -0.0710 -0.1859
18773TIP3    H177810   4.966   6.256  11.795 -0.0894  0.1892 -0.8415
18773TIP3    H277811   4.840   6.288  11.873 -0.2681 -0.9681 -0.6436
18774TIP3   OH277812   1.053   0.279  16.425  0.0007 -0.0611  0.4547
18774TIP3    H177813   1.018   0.220  16.358  2.5473 -0.2893 -0.8008
18774TIP3    H277814   1.120   0.227  16.470  1.9024  1.6485 -0.2996
18775TIP3   OH277815   6.436   4.257   0.796 -0.4786 -0.6369  0.5986
18775TIP3    H177816   6.465   4.223   0.881 -2.2954 -0.5258  1.2990
18775TIP3    H277817   6.396   4.342   0.817  2.0944  1.1000 -0.8390
18776TIP3   OH277818   3.680   1.628   5.251 -0.3954 -0.2653  0.0492
18776TIP3    H177819   3.602   1.683   5.261 -1.4956 -1.9017  0.8236
18776TIP3    H277820   3.719   1.627   5.339  1.4209  1.7433 -0.6312
18777TIP3   OH277821   1.977   1.831  16.498 -0.1646 -0.1328 -0.0635
18777TIP3    H177822   2.064   1.822  16.460 -0.6789 -2.6272 -0.8119
18777TIP3    H277823   1.987   1.804  16.589 -0.1042 -0.1572 -0.0777
18778TIP3   OH277824   3.734   4.382  14.316 -0.2375 -0.1176 -0.0708
18778TIP3    H177825   3.675   4.322  14.271  2.9104 -2.7378 -1.1856
18778TIP3    H277826   3.757   4.335  14.397  0.7440  0.5090  0.0286
18779TIP3   OH277827   2.162   5.320   4.574  0.0389  0.0514 -0.2094
18779TIP3    H177828   2.198   5.236   4.546  0.9885  0.1894  0.5543
18779TIP3    H277829   2.222   5.385   4.539  0.3181  0.3074  0.7150
18780TIP3   OH277830   0.615   5.734   1.266 -0.0176  0.3765  0.1624
18780TIP3    H177831   0.608   5.646   1.230 -0.1165  0.3774  0.1792
18780TIP3    H277832   0.593   5.792   1.192 -2.0003  0.3316  0.6878
18781TIP3   OH277833   5.449   3.176   4.783 -0.1475 -0.2018  0.3339
18781TIP3    H177834   5.485   3.101   4.735  2.2026  0.1823  1.3525
18781TIP3    H277835   5.386   3.215   4.722 -1.3562 -2.8446 -0.2968
18782TIP3   OH277836   3.131   2.750   4.609 -0.2728  0.1965 -0.1842
18782TIP3    H177837   3.188   2.807   4.659  0.5945 -2.2435  1.8585
18782TIP3    H277838   3.187   2.709   4.544  0.0879 -1.1243  0.8914
18783TIP3   OH277839   0.322   1.632  13.420 -0.5884  0.1210 -0.0589
18783TIP3    H177840   0.347   1.571  13.489  0.1380  1.0583  0.5373
18783TIP3    H277841   0.371   1.603  13.343  1.5935  1.2580  0.8094
18784TIP3   OH277842   3.209   3.577  14.313  0.1534  0.0792 -0.3619
18784TIP3    H177843   3.269   3.648  14.290  0.3857  0.7781  2.1707
18784TIP3    H277844   3.255   3.497  14.288  0.6784  0.7217 -1.5287
18785TIP3   OH277845   5.501   6.836  12.152 -0.1479 -0.5574  0.2179
18785TIP3    H177846   5.589   6.875  12.154  0.1708 -1.2798  0.3392
18785TIP3    H277847   5.514   6.745  12.179 -0.5843 -1.3470 -2.0599
18786TIP3   OH277848   0.332   1.594  16.309  0.4565 -0.1359  0.4598
18786TIP3    H177849   0.318   1.682  16.343 -0.8426 -0.6243  1.2587
18786TIP3    H277850   0.386   1.550  16.375 -0.1304 -0.3774  0.7862
18787TIP3   OH277851   1.759   4.163  15.440  0.1102  0.3951 -0.0679
18787TIP3    H177852   1.732   4.073  15.418 -2.0504  0.3532  2.1626
18787TIP3    H277853   1.829   4.184  15.378  0.0516 -2.4793 -1.2648
18788TIP3   OH277854   1.201   1.327  11.933 -0.0142 -0.0408  0.2762
18788TIP3    H177855   1.235   1.416  11.943 -0.2058  0.0292  0.3255
18788TIP3    H277856   1.223   1.303  11.843 -1.2992  0.6491 -0.2614
18789TIP3   OH277857   1.698   2.246   4.613 -0.2885 -0.5202 -0.0987
18789TIP3    H177858   1.779   2.233   4.662 -0.9927 -0.2727  1.1838
18789TIP3    H277859   1.635   2.276   4.679 -1.0267  0.7755 -1.3482
18790TIP3   OH277860   3.904   5.792  17.146  0.8548 -0.7668  0.0602
18790TIP3    H177861   3.963   5.717  17.134  0.1822 -1.0919 -1.5424
18790TIP3    H277862   3.894   5.800  17.241  1.3314 -2.4028  0.2849
18791TIP3   OH277863   3.542   3.533   3.011 -0.5595  0.6033 -0.2655
18791TIP3    H177864   3.538   3.483   3.092  0.1795 -2.4565 -1.9737
18791TIP3    H277865   3.459   3.581   3.008 -1.0914 -0.1026  1.7297
18792TIP3   OH277866   0.516   4.671  17.102  0.1993  0.1771 -0.2360
18792TIP3    H177867   0.542   4.652  17.192  1.2735 -0.6602 -0.7009
18792TIP3    H277868   0.597   4.668  17.052 -0.4378  0.1605 -1.3140
18793TIP3   OH277869   5.047   5.305   0.906 -0.5534  0.1899 -0.1095
18793TIP3    H177870   4.955   5.291   0.928 -0.2673  0.4764  1.3920
18793TIP3    H277871   5.079   5.219   0.878 -1.2585  0.0795 -0.5914
18794TIP3   OH277872   4.312   1.008  13.706 -0.4671 -0.5845  0.3240
18794TIP3    H177873   4.302   0.915  13.685 -0.2561 -0.5464  0.0352
18794TIP3    H277874   4.407   1.021  13.711 -0.3967  0.0296 -1.6723
18795TIP3   OH277875   2.933   1.950  12.795  0.2768  0.0094  0.2121
18795TIP3    H177876   2.884   1.978  12.872  1.6624 -1.0618  1.5350
18795TIP3    H277877   3.021   1.987  12.807  0.2100  0.8157 -1.4678
18796TIP3   OH277878   1.646   4.308   2.895 -0.6741  0.0155  0.2840
18796TIP3    H177879   1.595   4.337   2.819  0.5592  2.4433  0.3001
18796TIP3    H277880   1.736   4.306   2.864 -0.3533 -0.7058  1.2301
18797TIP3   OH277881   6.828   5.247   5.725  0.1106  0.4249  0.2131
18797TIP3    H177882   6.793   5.158   5.736 -1.0147  0.3269 -2.9945
18797TIP3    H277883   6.915   5.234   5.688  0.2293  0.6529  0.4146
18798TIP3   OH277884   4.232   5.475   3.100 -0.1352  0.2377 -0.0329
18798TIP3    H177885   4.189   5.558   3.121 -1.0540 -0.0149 -0.8404
18798TIP3    H277886   4.209   5.417   3.173 -0.6626  0.2813 -0.1626
18799TIP3   OH277887   3.693   6.759   1.954  0.5567 -0.1191 -0.3021
18799TIP3    H177888   3.646   6.719   2.027 -0.9822  0.5284 -0.8851
18799TIP3    H277889   3.760   6.812   1.996 -0.4328  0.4139  0.6887
18800TIP3   OH277890   4.311   2.770   5.913 -0.0579  0.4452 -0.3358
18800TIP3    H177891   4.388   2.714   5.901  0.3293  1.0564 -0.7552
18800TIP3    H277892   4.244   2.731   5.856 -0.3862 -0.6640  0.7728
18801TIP3   OH277893   5.926   2.741   2.149  0.1410 -0.7116 -0.8258
18801TIP3    H177894   5.873   2.742   2.070  0.2458 -0.9111 -0.8982
18801TIP3    H277895   5.908   2.656   2.190 -0.9559 -0.0868  0.0761
18802TIP3   OH277896   1.534   3.578  15.146 -0.1035 -0.6423  0.3038
18802TIP3    H177897   1.588   3.538  15.078 -1.1193 -0.1704 -0.8284
18802TIP3    H277898   1.445   3.576  15.110 -0.4246  1.0752  0.9110
18803TIP3   OH277899   1.057   4.152   2.838 -0.0509 -0.1582 -0.6676
18803TIP3    H177900   0.965   4.179   2.837  0.0793  0.2853 -0.8992
18803TIP3    H277901   1.064   4.090   2.765 -0.2378 -0.4353 -0.4502
18804TIP3   OH277902   6.391   3.426   0.366 -0.1826  0.2205  0.4696
18804TIP3    H177903   6.483   3.416   0.343 -0.1137  3.1228 -0.8858
18804TIP3    H277904   6.354   3.338   0.352  2.2006 -0.8518  0.3904
18805TIP3   OH277905   1.976   6.103   0.635  0.2412 -0.2004 -0.2182
18805TIP3    H177906   2.047   6.040   0.621  1.0638  0.1871  1.9183
18805TIP3    H277907   1.987   6.133   0.725 -0.9648  2.0024 -0.7273
18806TIP3   OH277908   6.744   0.099   2.782  0.3574 -0.6293 -0.1807
18806TIP3    H177909   6.773   0.010   2.803  2.8404  0.6409  2.3232
18806TIP3    H277910   6.676   0.118   2.846  1.7981  0.1986  1.1497
18807TIP3   OH277911   2.727   1.457   0.734 -0.1082  0.2901  0.2003
18807TIP3    H177912   2.746   1.394   0.803 -0.6120 -1.1534 -0.9196
18807TIP3    H277913   2.633   1.450   0.720 -0.1314  1.1120 -0.1262
18808TIP3   OH277914   4.751   3.392   4.022 -0.5466 -0.1085 -0.1332
18808TIP3    H177915   4.747   3.481   4.057 -1.4687 -0.1286 -0.1695
18808TIP3    H277916   4.678   3.346   4.063 -0.1098 -0.8423 -0.1492
18809TIP3   OH277917   4.761   2.749  14.012  0.0869 -0.4374  0.3620
18809TIP3    H177918   4.806   2.667  14.033 -1.0422 -1.0054  0.6756
18809TIP3    H277919   4.749   2.792  14.097 -1.5073 -1.1488  0.5432
18810TIP3   OH277920   2.385   3.791  16.960 -0.5417  0.2852 -0.4547
18810TIP3    H177921   2.326   3.739  17.015  0.1701  0.4650  0.5096
18810TIP3    H277922   2.439   3.839  17.023 -0.3770  1.2694 -1.3307
18811TIP3   OH277923   4.997   6.130   3.141 -0.1468  0.5901 -0.5836
18811TIP3    H177924   5.091   6.143   3.142 -0.3637  2.3825 -0.9934
18811TIP3    H277925   4.973   6.135   3.048 -0.6524  0.2087 -0.4792
18812TIP3   OH277926   5.889   4.870  13.756 -0.3186 -0.0798 -0.4939
18812TIP3    H177927   5.843   4.915  13.826  0.1325  1.4181 -1.1281
18812TIP3    H277928   5.943   4.938  13.714  1.5475 -1.4942 -0.5358
18813TIP3   OH277929   3.013   3.183   4.022  0.2263  0.9921  0.2436
18813TIP3    H177930   3.095   3.156   3.981 -0.3791  0.4548 -0.6593
18813TIP3    H277931   2.968   3.235   3.955 -0.7145  0.2267  0.2591
18814TIP3   OH277932   3.719   6.190   4.208  0.1987 -0.0375 -0.4248
18814TIP3    H177933   3.636   6.208   4.253  0.8801 -0.1141  0.8923
18814TIP3    H277934   3.729   6.095   4.212 -0.2156 -0.1543 -1.6519
18815TIP3   OH277935   2.171   6.637   5.708  0.6083 -0.0640  0.1139
18815TIP3    H177936   2.176   6.611   5.800 -0.2994 -2.4225 -0.4255
18815TIP3    H277937   2.086   6.680   5.700  1.0193  0.8449  0.5083
18816TIP3   OH277938   5.058   6.250  13.321 -0.3994 -0.1717 -0.1765
18816TIP3    H177939   4.963   6.244  13.309 -0.7717 -0.4455  2.4048
18816TIP3    H277940   5.079   6.339  13.294 -1.5191  0.1207 -0.1574
18817TIP3   OH277941   4.829   0.058  12.751  0.0311  0.1246 -0.3757
18817TIP3    H177942   4.828   0.151  12.774  1.9152 -0.1712  1.1777
18817TIP3    H277943   4.803   0.014  12.832 -0.3954 -0.7401 -0.9715
18818TIP3   OH277944   5.982   6.690  16.778  0.0367 -0.3999  0.1276
18818TIP3    H177945   6.016   6.779  16.775  0.7791 -0.6333  1.1743
18818TIP3    H277946   6.009   6.650  16.695  0.5916  0.0303  0.1046
18819TIP3   OH277947   3.894   4.747   1.010 -0.1073  0.1129 -0.0151
18819TIP3    H177948   3.809   4.742   0.967 -0.2001  1.1591  0.0297
18819TIP3    H277949   3.894   4.675   1.073 -0.0973 -1.2395 -1.5089
18820TIP3   OH277950   1.845   2.547   3.514  0.2183 -0.1370  0.1833
18820TIP3    H177951   1.796   2.571   3.592 -1.5557 -1.4335 -0.4756
18820TIP3    H277952   1.936   2.543   3.544 -0.2590  0.6172  1.8567
18821TIP3   OH277953   6.176   2.615   5.859 -0.1148 -0.3418 -0.5750
18821TIP3    H177954   6.220   2.567   5.789 -0.5431  0.3486 -1.3377
18821TIP3    H277955   6.246   2.663   5.903  0.1396 -0.6845 -0.6048
18822TIP3   OH277956   3.186   6.164  15.739 -0.3586  0.8035  0.4477
18822TIP3    H177957   3.111   6.183  15.795 -0.7190 -1.4400  0.8290
18822TIP3    H277958   3.262   6.190  15.792 -0.7878  1.0027  0.9746
18823TIP3   OH277959   5.341   2.805  12.225 -0.6287 -0.4536  0.1759
18823TIP3    H177960   5.316   2.795  12.133  1.7712 -1.0552 -0.4603
18823TIP3    H277961   5.400   2.881  12.226 -0.7116 -0.3910  1.2495
18824TIP3   OH277962   0.326   6.298  12.989  0.3854 -0.2611 -0.2859
18824TIP3    H177963   0.294   6.387  12.974  1.4688  0.1320 -0.3358
18824TIP3    H277964   0.344   6.265  12.902  1.0407 -0.1252 -0.2027
18825TIP3   OH277965   0.555   1.854   0.266  0.6985 -0.0946 -0.2838
18825TIP3    H177966   0.527   1.892   0.349 -0.0283 -0.7920 -0.1948
18825TIP3    H277967   0.482   1.798   0.240  0.6408  0.5874 -1.7095
18826TIP3   OH277968   3.370   6.158   1.555 -0.3468 -0.0431 -0.7222
18826TIP3    H177969   3.392   6.238   1.507 -0.5961  0.4436 -0.0337
18826TIP3    H277970   3.324   6.188   1.633 -0.4298 -0.8601 -0.4447
18827TIP3   OH277971   6.668   3.154   1.264  0.2604 -0.0987 -0.3030
18827TIP3    H177972   6.696   3.077   1.313  0.6570 -0.0688 -0.4712
18827TIP3    H277973   6.589   3.184   1.308  0.7141  0.0348  0.4331
18828TIP3   OH277974   0.513   4.222   4.347  0.2570 -0.2074 -0.2610
18828TIP3    H177975   0.475   4.145   4.304 -1.7474  1.6719 -2.1048
18828TIP3    H277976   0.535   4.281   4.275 -0.7880  2.0211  1.1376
18829TIP3   OH277977   2.936   5.517  14.759  0.5904  0.2579 -0.0073
18829TIP3    H177978   3.001   5.451  14.734  0.4581  0.1910 -0.1794
18829TIP3    H277979   2.910   5.493  14.847  1.0552  0.4871  0.1982
18830TIP3   OH277980   3.839   5.804  16.575  0.6190  0.1981 -0.1408
18830TIP3    H177981   3.805   5.848  16.497  0.3899  0.0945 -0.0991
18830TIP3    H277982   3.834   5.871  16.644 -2.1761 -0.6212  0.5717
18831TIP3   OH277983   1.561   4.405  10.604 -1.0003  0.1109 -0.4198
18831TIP3    H177984   1.586   4.367  10.688 -0.3485  1.5399  0.0529
18831TIP3    H277985   1.570   4.333  10.542  1.7748 -0.1610  0.1745
18832TIP3   OH277986   0.353   3.823   5.926  0.1855  0.1173 -0.1867
18832TIP3    H177987   0.267   3.815   5.885  0.0934  1.9246 -0.4336
18832TIP3    H277988   0.411   3.849   5.855  0.9778 -1.1438 -0.0315
18833TIP3   OH277989   3.641   5.258  16.837  0.5446  0.3314  0.6319
18833TIP3    H177990   3.602   5.200  16.771 -0.8463  0.8233  0.9869
18833TIP3    H277991   3.604   5.229  16.920  0.3938  1.2562  0.8993
18834TIP3   OH277992   4.114   2.592   4.738 -0.0516  0.1063  0.1898
18834TIP3    H177993   4.159   2.512   4.711  0.3409 -0.0382  1.2414
18834TIP3    H277994   4.097   2.580   4.832 -0.3895  1.0643  0.2645
18835TIP3   OH277995   0.279   4.892   4.675  0.8623  0.0847  0.2168
18835TIP3    H177996   0.214   4.915   4.608  1.3395  0.0303 -0.2714
18835TIP3    H277997   0.229   4.848   4.743  0.0695  1.7312  0.7342
18836TIP3   OH277998   0.997   5.908   0.785 -0.2081  0.8690  0.2678
18836TIP3    H177999   1.054   5.977   0.751 -0.2503 -0.5722 -3.0508
18836TIP3    H278000   1.051   5.829   0.784 -1.2820  0.1163  0.3320
18837TIP3   OH278001   4.798   4.189  11.866 -0.4604  0.3064  0.6537
18837TIP3    H178002   4.871   4.230  11.819 -0.0474  1.1891  2.0083
18837TIP3    H278003   4.732   4.173  11.799  0.5042  0.6045 -0.3929
18838TIP3   OH278004   3.201   2.516  15.669  0.0471 -0.1801  0.1713
18838TIP3    H178005   3.226   2.601  15.632 -0.1905 -0.3700 -0.4565
18838TIP3    H278006   3.186   2.460  15.592 -1.1819 -0.3907  0.5305
18839TIP3   OH278007   5.308   5.183  11.734 -0.2580 -0.2255 -0.5917
18839TIP3    H178008   5.399   5.165  11.712 -0.0042 -0.2857  0.4608
18839TIP3    H278009   5.267   5.206  11.651  1.2450  2.1595 -0.7565
18840TIP3   OH278010   5.414   1.402  14.130  0.8790  0.1520  0.0708
18840TIP3    H178011   5.453   1.414  14.216  1.9815  2.5471 -0.6533
18840TIP3    H278012   5.455   1.471  14.076 -2.6293  1.3351 -1.3530
18841TIP3   OH278013   0.861   2.192   4.086 -0.3867 -0.6453  0.4803
18841TIP3    H178014   0.832   2.113   4.041 -1.1638 -0.1468  0.0815
18841TIP3    H278015   0.923   2.233   4.025 -0.9556 -0.2972  0.1282
18842TIP3   OH278016   4.548   1.972   2.092  0.1145  0.4286 -0.2754
18842TIP3    H178017   4.615   2.031   2.058  0.0881  0.0934 -0.9225
18842TIP3    H278018   4.472   2.029   2.108 -0.0277  0.5305 -1.2203
18843TIP3   OH278019   4.696   3.882  14.336 -0.1295  0.1607  0.0592
18843TIP3    H178020   4.645   3.872  14.256 -0.0233  0.6841 -0.0790
18843TIP3    H278021   4.632   3.877  14.406 -0.2012 -0.4783 -0.0460
18844TIP3   OH278022   5.002   0.820   2.585  0.0995 -0.0403  0.5431
18844TIP3    H178023   5.032   0.911   2.583  0.5525 -0.0212  3.7355
18844TIP3    H278024   5.081   0.769   2.604 -0.3392 -1.0076 -0.1507
18845TIP3   OH278025   1.775   4.299   2.521 -0.0393  0.0501  0.0189
18845TIP3    H178026   1.738   4.223   2.475  0.5670  0.1867 -0.7154
18845TIP3    H278027   1.698   4.349   2.549 -0.4347 -0.0918 -0.7735
18846TIP3   OH278028   1.906   2.596   0.507  0.0625  0.0219 -0.1714
18846TIP3    H178029   1.871   2.679   0.538 -1.4102 -1.1370  1.5045
18846TIP3    H278030   1.963   2.566   0.578 -0.0269 -0.7509 -0.4156
18847TIP3   OH278031   5.842   3.876  12.420 -0.1797  0.5823  0.5621
18847TIP3    H178032   5.891   3.796  12.439 -2.5621 -1.4219 -0.9672
18847TIP3    H278033   5.869   3.900  12.331  0.2729  1.2910  0.8853
18848TIP3   OH278034   5.260   1.472   0.871 -0.0113  0.2207 -0.5946
18848TIP3    H178035   5.205   1.395   0.857 -0.7184  0.3042  1.4008
18848TIP3    H278036   5.311   1.480   0.790 -0.5693 -1.7797 -1.2084
18849TIP3   OH278037   2.973   3.107  14.195 -0.1549 -0.0240  0.2174
18849TIP3    H178038   3.050   3.141  14.151 -0.4284 -0.9817 -1.0765
18849TIP3    H278039   2.971   3.014  14.171 -1.0603 -0.2715  1.1827
18850TIP3   OH278040   2.709   1.790  12.935  0.2700  0.3537  0.1345
18850TIP3    H178041   2.780   1.795  12.999 -0.3030  1.3106  0.7236
18850TIP3    H278042   2.743   1.732  12.866  0.4695 -1.6304  1.8193
18851TIP3   OH278043   1.538   6.030  13.916 -0.0551  0.1943  0.1398
18851TIP3    H178044   1.584   6.109  13.946 -1.3905  0.7437  0.8051
18851TIP3    H278045   1.574   6.014  13.828  1.5421  0.4629  0.7066
18852TIP3   OH278046   5.400   3.817  16.186 -0.8618  0.5184 -0.1994
18852TIP3    H178047   5.408   3.911  16.204 -0.8870  0.4412  0.2295
18852TIP3    H278048   5.487   3.782  16.202 -0.7716  0.5196 -0.6832
18853TIP3   OH278049   5.547   4.443   1.723 -0.5950 -0.0815 -0.4051
18853TIP3    H178050   5.605   4.388   1.777 -0.8441 -0.8200 -0.8839
18853TIP3    H278051   5.488   4.484   1.787 -1.2216 -1.3448 -0.1384
18854TIP3   OH278052   6.590   4.328  11.609 -0.6216 -0.2046 -0.3468
18854TIP3    H178053   6.661   4.305  11.669 -0.5980 -0.9753 -0.6577
18854TIP3    H278054   6.630   4.322  11.522 -0.3089  2.1089 -0.4310
18855TIP3   OH278055   5.432   2.445   1.601  0.4295  0.2229  0.0254
18855TIP3    H178056   5.382   2.509   1.653  0.8067  1.0783 -0.6483
18855TIP3    H278057   5.519   2.444   1.641  1.1626  1.9367 -1.3920
18856TIP3   OH278058   0.544   5.216   0.964  0.2256 -0.4620 -0.8753
18856TIP3    H178059   0.628   5.196   1.004  0.4301 -1.6911 -1.8709
18856TIP3    H278060   0.557   5.302   0.923  0.1824  0.5558  1.1216
18857TIP3   OH278061   1.823   3.863  13.336 -0.3714 -0.2899 -0.4969
18857TIP3    H178062   1.870   3.856  13.418  0.1049 -0.2176 -0.7594
18857TIP3    H278063   1.814   3.958  13.321 -1.4896 -0.2932  0.0494
18858TIP3   OH278064   3.031   0.474   5.290 -0.2083  0.0718 -0.1952
18858TIP3    H178065   2.939   0.478   5.318 -0.3391 -0.0728 -0.5927
18858TIP3    H278066   3.081   0.502   5.367 -0.5839  0.1221  0.0335
18859TIP3   OH278067   4.563   4.752  17.099  0.6829  0.1931  0.0955
18859TIP3    H178068   4.471   4.735  17.078  0.8760  0.1745 -0.7982
18859TIP3    H278069   4.605   4.666  17.092  0.4932 -0.1116  2.1534
18860TIP3   OH278070   2.943   6.049  10.527 -0.2957  0.0242  0.0456
18860TIP3    H178071   2.956   5.958  10.551 -0.3570  0.0108  0.0304
18860TIP3    H278072   3.031   6.086  10.522 -0.3286  0.2985  1.3209
18861TIP3   OH278073   4.308   0.003   5.195  0.2803  0.3989  0.7437
18861TIP3    H178074   4.358  -0.025   5.272  0.3315 -0.9080  0.2568
18861TIP3    H278075   4.338  -0.055   5.125 -0.2945  1.0941 -0.0939
18862TIP3   OH278076   4.912   4.666   6.116 -0.0846 -0.2189  0.6065
18862TIP3    H178077   4.875   4.581   6.140  0.3614 -1.3211 -2.2444
18862TIP3    H278078   5.004   4.648   6.098 -0.4150  0.3963 -1.9774
18863TIP3   OH278079   5.476   6.415   1.540  0.1939  0.1684 -0.0520
18863TIP3    H178080   5.561   6.445   1.508  0.4333 -1.3736 -0.9685
18863TIP3    H278081   5.451   6.344   1.481 -1.4627  0.1823  0.5573
18864TIP3   OH278082   0.574   0.587   0.369 -0.5961 -0.4357  0.7444
18864TIP3    H178083   0.648   0.632   0.409 -0.9052  2.0077 -1.2044
18864TIP3    H278084   0.501   0.602   0.430 -0.1249 -0.4232  1.3078
18865TIP3   OH278085   0.547   2.727  10.361  0.9367 -0.4575 -0.3641
18865TIP3    H178086   0.632   2.766  10.383  1.5410 -1.6758 -0.4346
18865TIP3    H278087   0.553   2.709  10.267  0.3039  0.1069 -0.5235
18866TIP3   OH278088   3.581   0.544  10.688 -0.4422 -0.0159 -0.2323
18866TIP3    H178089   3.494   0.548  10.649 -0.8779  0.5507  0.7592
18866TIP3    H278090   3.591   0.452  10.714 -0.7951 -0.0599 -0.2453
18867TIP3   OH278091   0.750   1.108  13.601 -0.2259  0.2263  0.0329
18867TIP3    H178092   0.671   1.057  13.620  0.6035 -0.0230  3.5045
18867TIP3    H278093   0.812   1.043  13.567 -1.0994  0.2379 -1.7155
18868TIP3   OH278094   1.913   1.881  15.095  0.4963  0.6076  0.0561
18868TIP3    H178095   1.841   1.869  15.034  0.3655 -2.0038  0.6014
18868TIP3    H278096   1.991   1.854  15.047  0.5123 -0.5812  0.7096
18869TIP3   OH278097   2.430   4.124  16.542  0.1337  0.5749  0.2471
18869TIP3    H178098   2.433   4.190  16.473 -1.4477  0.8365  0.3730
18869TIP3    H278099   2.411   4.042  16.496  0.8878  0.4253  0.2026
18870TIP3   OH278100   1.333   5.734  14.234  0.1108  0.4413 -0.0514
18870TIP3    H178101   1.387   5.717  14.311 -0.3929  0.9505  0.4310
18870TIP3    H278102   1.281   5.654  14.223 -0.1148  0.5162  0.4027
18871TIP3   OH278103   6.363   2.072  10.759 -0.4838 -0.1382  0.3036
18871TIP3    H178104   6.298   2.070  10.830 -0.0219 -1.8514  0.7167
18871TIP3    H278105   6.368   1.982  10.728  1.2380  0.0769 -0.1444
18872TIP3   OH278106   4.792   5.976  13.016  0.0950 -0.4581 -0.2600
18872TIP3    H178107   4.741   6.052  12.987  1.2491  1.4377  2.2335
18872TIP3    H278108   4.730   5.922  13.064 -0.2655  0.1283 -0.0571
18873TIP3   OH278109   0.530   0.972  15.269 -0.1540  0.2264  0.2248
18873TIP3    H178110   0.531   1.068  15.262  1.6424  0.2849  0.7673
18873TIP3    H278111   0.507   0.942  15.181  2.2921  1.1487 -0.8030
18874TIP3   OH278112   1.686   4.892   5.730  0.3490  0.2150 -0.1410
18874TIP3    H178113   1.710   4.845   5.650 -0.9309 -0.9865  0.1352
18874TIP3    H278114   1.595   4.919   5.716  0.3239  0.5614  0.6427
18875TIP3   OH278115   5.877   3.775  10.903 -0.9695  0.2173 -0.3659
18875TIP3    H178116   5.803   3.835  10.893  0.0509  1.9466  1.6575
18875TIP3    H278117   5.936   3.819  10.964  0.8775 -1.9271 -0.4598
18876TIP3   OH278118   2.309   3.544   4.529 -0.1880 -0.0047 -0.5282
18876TIP3    H178119   2.389   3.592   4.551  0.4655 -1.0099 -0.6673
18876TIP3    H278120   2.287   3.573   4.441 -0.3258  0.7206 -0.2657
18877TIP3   OH278121   3.151   3.650  12.126 -0.3732  0.5276  0.3990
18877TIP3    H178122   3.154   3.559  12.097 -0.0967 -0.3877  3.0505
18877TIP3    H278123   3.094   3.649  12.202 -1.9706  2.9867 -0.6516
18878TIP3   OH278124   1.517   5.727   2.527 -0.1804  0.2571  0.3357
18878TIP3    H178125   1.512   5.821   2.545  2.5847  0.8479 -1.3944
18878TIP3    H278126   1.480   5.718   2.439  0.7195 -0.0527 -0.0169
18879TIP3   OH278127   4.053   2.237  15.919 -0.1247 -0.0037 -0.2711
18879TIP3    H178128   4.139   2.234  15.961 -1.0973  0.7773  1.9329
18879TIP3    H278129   4.042   2.150  15.880  1.5959 -0.1459 -0.5306
18880TIP3   OH278130   1.018   0.523  13.277 -0.1683  0.2902  0.7070
18880TIP3    H178131   1.081   0.549  13.209 -0.2833  1.6270  1.0706
18880TIP3    H278132   0.969   0.603  13.295 -2.3628 -0.8370  0.0626
18881TIP3   OH278133   6.125   3.609   3.288  0.1648  0.0273 -0.5753
18881TIP3    H178134   6.095   3.690   3.249 -1.2071 -0.4459 -0.5471
18881TIP3    H278135   6.190   3.575   3.226  1.3216  1.4787 -0.2253
18882TIP3   OH278136   6.478   0.732   3.287 -0.2848  0.0487 -0.6786
18882TIP3    H178137   6.501   0.647   3.324  0.7841  0.2541 -0.8276
18882TIP3    H278138   6.516   0.731   3.199 -2.4952 -0.3106 -1.6877
18883TIP3   OH278139   2.806   1.802  13.343  0.4208  0.0089 -0.0363
18883TIP3    H178140   2.814   1.824  13.436  0.5638  1.2987 -0.3417
18883TIP3    H278141   2.809   1.886  13.297 -1.1354 -0.4790 -1.1215
18884TIP3   OH278142   1.015   2.347   0.157  0.4964  0.3869 -0.1690
18884TIP3    H178143   1.075   2.351   0.082 -0.1147  2.0613 -0.6050
18884TIP3    H278144   0.948   2.284   0.131  1.4521 -0.6929 -0.1087
18885TIP3   OH278145   6.276   4.772   3.404  0.6443  0.1205  0.0251
18885TIP3    H178146   6.214   4.843   3.422  0.1743  0.0084 -1.1023
18885TIP3    H278147   6.289   4.730   3.489  1.0271  1.6112  0.7450
18886TIP3   OH278148   5.578   3.253   4.320 -0.0850  0.6759  0.1961
18886TIP3    H178149   5.666   3.215   4.318 -0.4229 -0.1370  0.3150
18886TIP3    H278150   5.583   3.321   4.387 -0.1504 -0.9547  1.9682
18887TIP3   OH278151   1.838   3.042  12.231  0.2704 -0.2136 -0.1037
18887TIP3    H178152   1.852   2.957  12.272 -1.8013 -0.0306  1.0962
18887TIP3    H278153   1.798   3.022  12.146 -0.8647 -0.4261  0.4744
18888TIP3   OH278154   4.974   2.604   3.346  0.2441 -0.2361  0.1565
18888TIP3    H178155   4.928   2.521   3.331  2.5877 -1.3055 -1.7052
18888TIP3    H278156   4.982   2.610   3.441 -1.1483 -1.4183  0.3944
18889TIP3   OH278157   5.322   5.507  10.820 -0.6307 -0.1378  0.6494
18889TIP3    H178158   5.292   5.420  10.794  0.8180 -0.4145 -0.2446
18889TIP3    H278159   5.335   5.501  10.915  0.9182 -1.4229  0.4015
18890TIP3   OH278160   6.792   3.732   2.420 -1.4456  0.6488 -0.1299
18890TIP3    H178161   6.825   3.774   2.341  3.6908 -0.8931  0.8213
18890TIP3    H278162   6.775   3.804   2.480  1.6051  1.7421 -0.4114
18891TIP3   OH278163   0.639   6.039  14.468 -0.3906  0.3005  0.4108
18891TIP3    H178164   0.582   5.963  14.456 -0.6028  0.4718  0.3318
18891TIP3    H278165   0.712   6.024  14.409 -0.0835 -0.1856  0.9155
18892TIP3   OH278166   3.582   1.926   1.257  0.8370 -0.1391 -0.3844
18892TIP3    H178167   3.670   1.895   1.280  0.6372  0.2634  1.0337
18892TIP3    H278168   3.595   2.019   1.235  0.6865  0.0905  0.4639
18893TIP3   OH278169   0.840   4.197  10.988 -0.5958  0.0059 -0.4611
18893TIP3    H178170   0.876   4.263  10.928  1.4063 -0.3796  0.2302
18893TIP3    H278171   0.899   4.122  10.979  1.9075  1.0129  4.1801
18894TIP3   OH278172   2.515   5.002  16.552  0.0013  0.0732  0.3934
18894TIP3    H178173   2.609   4.982  16.559  0.8778  3.1508 -0.9683
18894TIP3    H278174   2.490   5.030  16.640  0.9528  1.2503  0.3184
18895TIP3   OH278175   5.920   1.858   1.417  0.1779  0.5358 -0.4012
18895TIP3    H178176   5.966   1.802   1.480  1.3263  1.6271 -0.2292
18895TIP3    H278177   5.989   1.912   1.377 -0.6977  0.7821 -1.6537
18896TIP3   OH278178   3.175   1.401   3.030 -0.1145  0.0416 -1.0470
18896TIP3    H178179   3.263   1.387   3.065 -0.6689 -0.5183  0.1517
18896TIP3    H278180   3.166   1.497   3.026 -0.0801  0.1308  0.4990
18897TIP3   OH278181   0.453   3.281  12.723 -0.5129  0.3198  0.1828
18897TIP3    H178182   0.526   3.236  12.680 -0.0933  0.5742  0.6253
18897TIP3    H278183   0.378   3.223  12.709  0.1931 -0.9837  1.4970
18898TIP3   OH278184   0.797   2.805  17.088  0.1078  0.1882  0.1140
18898TIP3    H178185   0.766   2.755  17.012 -0.5852  0.9706 -0.1406
18898TIP3    H278186   0.754   2.765  17.163 -0.9234  0.7600 -0.1531
18899TIP3   OH278187   2.467   3.027  16.927 -0.6158  0.2167  0.7650
18899TIP3    H178188   2.377   3.047  16.902 -0.7404 -1.4886 -0.3534
18899TIP3    H278189   2.459   2.950  16.984  0.1537 -0.2676  0.2317
18900TIP3   OH278190   1.181   5.664   1.693  0.1194  0.9648 -0.5524
18900TIP3    H178191   1.218   5.752   1.702  1.5200  0.5641 -2.0245
18900TIP3    H278192   1.256   5.605   1.696 -0.9348 -0.6538  4.0501
18901TIP3   OH278193   4.113   4.262  14.222 -0.3369 -0.2642 -0.4458
18901TIP3    H178194   4.081   4.311  14.297 -1.0005  0.0247 -0.9070
18901TIP3    H278195   4.042   4.267  14.158  0.8802  0.9916 -1.7675
18902TIP3   OH278196   4.963   0.119   4.169 -0.0267 -0.5711  0.3810
18902TIP3    H178197   4.934   0.137   4.258 -0.9654 -1.7670  0.3385
18902TIP3    H278198   5.020   0.193   4.147  0.1458 -0.2112  1.9277
18903TIP3   OH278199   3.994   5.863  12.959  0.2884 -0.2358 -0.3727
18903TIP3    H178200   4.032   5.785  12.918  0.2552 -0.2679 -0.3414
18903TIP3    H278201   3.901   5.841  12.970  0.5802 -0.8392  1.1674
18904TIP3   OH278202   4.834   5.208   2.281  0.3901  0.3694  0.1359
18904TIP3    H178203   4.766   5.205   2.214  0.2053 -1.4985  0.3550
18904TIP3    H278204   4.826   5.296   2.319 -0.5407  0.8993 -1.2112
18905TIP3   OH278205   4.494   3.909  13.184 -0.0870 -0.0033  0.1473
18905TIP3    H178206   4.451   3.873  13.261 -0.7790  2.2042  0.8628
18905TIP3    H278207   4.429   3.900  13.114  0.2323 -1.2485 -0.0182
18906TIP3   OH278208   4.576   3.367   3.797  0.4285  0.0197 -0.2705
18906TIP3    H178209   4.572   3.279   3.761  0.4259 -0.6048  1.1984
18906TIP3    H278210   4.651   3.367   3.856  0.1251  0.8338  0.1468
18907TIP3   OH278211   3.936   5.053   1.137  0.4156  0.2178 -0.2482
18907TIP3    H178212   3.978   5.045   1.223 -0.2757 -0.7194  0.0140
18907TIP3    H278213   3.886   4.973   1.128 -0.2004  0.7004 -1.1671
18908TIP3   OH278214   6.405   4.441  12.003  0.0336 -0.8343 -0.3977
18908TIP3    H178215   6.328   4.470  12.052  1.6877  0.1173  1.7951
18908TIP3    H278216   6.374   4.432  11.913 -2.7362 -0.9812  0.4791
18909TIP3   OH278217   1.117   0.248  15.901 -0.5758 -0.2088 -0.2443
18909TIP3    H178218   1.068   0.309  15.845  1.4920  1.3611 -0.4909
18909TIP3    H278219   1.177   0.204  15.841 -0.3144 -0.6260  0.3138
18910TIP3   OH278220   2.349   1.141  14.576 -0.1615 -0.2843  0.0128
18910TIP3    H178221   2.333   1.139  14.481 -2.9060  1.2971  0.3475
18910TIP3    H278222   2.373   1.051  14.598 -1.4235 -1.1514 -1.9054
18911TIP3   OH278223   2.955   0.961   0.066  0.0228  0.6711 -0.7011
18911TIP3    H178224   3.028   1.003   0.111 -0.8196  0.7971  0.6100
18911TIP3    H278225   2.996   0.910  -0.004  1.5294 -0.5066  0.9340
18912TIP3   OH278226   6.318   6.048   3.249 -0.5606 -0.6297  0.4106
18912TIP3    H178227   6.272   6.108   3.308 -0.8905 -0.8279  0.3601
18912TIP3    H278228   6.395   6.096   3.220 -0.7762 -0.2644  0.4427
18913TIP3   OH278229   3.875   1.240   2.402  0.0672 -0.1634 -0.6787
18913TIP3    H178230   3.939   1.247   2.331 -0.5034 -2.5155 -1.4984
18913TIP3    H278231   3.886   1.321   2.452  1.9407  0.6092 -2.2245
18914TIP3   OH278232   3.698   1.388  13.820 -0.1398 -0.5185 -0.0846
18914TIP3    H178233   3.716   1.459  13.757 -0.3364  0.1168  0.5664
18914TIP3    H278234   3.664   1.433  13.897  0.6282 -1.2439  0.6885
18915TIP3   OH278235   6.100   0.083  15.580  0.2620 -0.6685 -0.8866
18915TIP3    H178236   6.056   0.118  15.657  1.9499 -0.3464 -0.0244
18915TIP3    H278237   6.051   0.003  15.559 -0.4801 -0.5312  0.2512
18916TIP3   OH278238   6.644   2.306  12.649 -0.3012 -0.9177 -0.0608
18916TIP3    H178239   6.696   2.343  12.721  0.3880 -2.6114  0.3403
18916TIP3    H278240   6.598   2.233  12.688 -0.8478 -1.1265 -1.0811
18917TIP3   OH278241   0.123   5.618  12.525 -0.3581  0.1741  0.4191
18917TIP3    H178242   0.093   5.687  12.465  1.2571  1.1387  0.6591
18917TIP3    H278243   0.071   5.631  12.604 -1.4863 -0.1895 -0.2328
18918TIP3   OH278244   2.330   3.412  11.614  0.5134  0.1616  0.3039
18918TIP3    H178245   2.346   3.504  11.637  1.1578 -0.2331  1.5531
18918TIP3    H278246   2.386   3.396  11.539 -1.2210  1.3534 -1.3462
18919TIP3   OH278247   0.340   0.549   1.426  0.0955 -0.2244 -0.3619
18919TIP3    H178248   0.403   0.599   1.478 -1.4335  3.1325 -1.4817
18919TIP3    H278249   0.392   0.509   1.357  1.1476  2.3673 -1.1931
18920TIP3   OH278250   5.185   0.429  15.592 -0.0019 -0.4704 -0.4489
18920TIP3    H178251   5.182   0.496  15.524  2.1390  1.0870  0.8334
18920TIP3    H278252   5.233   0.357  15.553  1.0213  0.3189 -0.6825
18921TIP3   OH278253   0.396   0.329   1.874 -0.0053 -0.3138  0.1682
18921TIP3    H178254   0.491   0.329   1.888 -0.0335 -4.3065  1.7437
18921TIP3    H278255   0.387   0.302   1.782  0.2766  1.9186 -0.5761
18922TIP3   OH278256   0.964   5.771  15.976 -0.0953 -0.2528 -0.1443
18922TIP3    H178257   0.988   5.825  15.901  0.0151  1.6880  1.2052
18922TIP3    H278258   1.033   5.706  15.982  0.5991  0.3937 -0.9484
18923TIP3   OH278259   1.566   3.242   0.736 -0.0839  0.2969 -0.4916
18923TIP3    H178260   1.513   3.292   0.797 -0.5977 -2.9070  1.9710
18923TIP3    H278261   1.647   3.223   0.783  0.7405  0.0952 -1.9115
18924TIP3   OH278262   4.744   2.888  15.854  0.6413  0.0058  0.0979
18924TIP3    H178263   4.756   2.793  15.852 -0.0998 -0.0965 -2.0153
18924TIP3    H278264   4.797   2.917  15.928  0.1817 -2.1241  1.3631
18925TIP3   OH278265   4.203   4.119   6.381  0.4166 -0.3070  0.3263
18925TIP3    H178266   4.276   4.117   6.444 -2.0576 -0.2411  3.4708
18925TIP3    H278267   4.143   4.184   6.418 -1.5602 -0.8694 -1.7463
18926TIP3   OH278268   1.349   0.344  15.400 -0.3056  0.4813  0.1694
18926TIP3    H178269   1.345   0.302  15.314 -1.1469  1.3003 -0.2160
18926TIP3    H278270   1.412   0.415  15.390  0.4050 -0.0831  0.5503
18927TIP3   OH278271   6.618   1.836  11.975  0.3122 -0.5484  0.2924
18927TIP3    H178272   6.705   1.829  11.936  0.2975  0.2231  0.1081
18927TIP3    H278273   6.626   1.793  12.060  0.6405 -1.2507 -0.0911
18928TIP3   OH278274   0.086   4.540   4.883  0.2596  0.2880  0.4775
18928TIP3    H178275   0.156   4.603   4.865 -0.5826  0.8968 -0.8303
18928TIP3    H278276   0.007   4.580   4.847 -0.8052 -0.3434  2.0095
18929TIP3   OH278277   0.816   5.556  15.913 -0.3760 -0.2852 -0.0370
18929TIP3    H178278   0.893   5.611  15.925 -0.1477 -0.3349 -1.1589
18929TIP3    H278279   0.778   5.586  15.830 -0.0250 -2.0339 -0.8906
18930TIP3   OH278280   4.221   6.427  10.930 -0.3631 -0.1439  0.2298
18930TIP3    H178281   4.221   6.356  10.865 -0.5698 -0.5545  0.6687
18930TIP3    H278282   4.215   6.507  10.878  1.5944 -0.3340 -0.3751
18931TIP3   OH278283   0.903   4.726   0.543  0.8761 -0.0339  0.0946
18931TIP3    H178284   0.971   4.737   0.477  0.4438 -0.3105 -0.3988
18931TIP3    H278285   0.922   4.641   0.583  0.8695 -0.0726  0.0155
18932TIP3   OH278286   4.429   1.618  14.210  0.1378  0.1467 -0.0424
18932TIP3    H178287   4.475   1.699  14.188 -0.0338  0.7752  1.6993
18932TIP3    H278288   4.490   1.571  14.267 -0.9241  0.5347  1.4888
18933TIP3   OH278289   6.708   6.416   4.427  0.3810 -0.3573  0.0634
18933TIP3    H178290   6.619   6.411   4.463  0.9223 -0.5856  1.4389
18933TIP3    H278291   6.697   6.402   4.333 -1.2066  1.1278 -0.0243
18934TIP3   OH278292   3.759   0.463   4.569  0.0946  0.2745  0.1281
18934TIP3    H178293   3.824   0.430   4.507 -0.5150  0.8920 -0.8669
18934TIP3    H278294   3.679   0.473   4.517 -0.8490 -0.6086  1.3618
18935TIP3   OH278295   6.202   5.030   1.294 -0.1514  0.4300  0.1154
18935TIP3    H178296   6.147   5.018   1.216 -0.2078  1.1745  0.0313
18935TIP3    H278297   6.249   5.111   1.277  0.0052  0.4750  0.7613
18936TIP3   OH278298   2.210   0.067  12.504 -0.1290  0.0728 -0.4489
18936TIP3    H178299   2.227  -0.018  12.462  0.4752  0.2446 -0.5589
18936TIP3    H278300   2.244   0.058  12.592 -0.3003  0.1182 -0.3774
18937TIP3   OH278301   2.173   4.552   0.795 -0.1647  0.3533  0.1841
18937TIP3    H178302   2.102   4.490   0.814 -1.2108  0.5823 -2.5756
18937TIP3    H278303   2.128   4.630   0.761  1.3986  0.4549 -1.7664
18938TIP3   OH278304   3.068   3.755   3.315 -0.0202  0.6906  0.0499
18938TIP3    H178305   3.052   3.721   3.227  0.1735  0.0362  0.2604
18938TIP3    H278306   3.124   3.690   3.356  0.1015  1.1177  0.5755
18939TIP3   OH278307   5.281   4.180  15.887 -0.3196  0.1868  0.3725
18939TIP3    H178308   5.350   4.198  15.951  1.2457  3.9204 -1.9955
18939TIP3    H278309   5.207   4.232  15.916 -0.2696  0.3726  0.1712
18940TIP3   OH278310   2.211   2.614  15.660  0.3270  0.5758 -0.1539
18940TIP3    H178311   2.257   2.569  15.731 -0.2683 -0.4784 -0.4176
18940TIP3    H278312   2.270   2.686  15.636 -0.9518  3.2529  3.7342
18941TIP3   OH278313   6.315   1.784  15.765  0.4826 -0.0661  0.1365
18941TIP3    H178314   6.293   1.869  15.803 -0.7027 -0.2746 -0.0154
18941TIP3    H278315   6.388   1.752  15.817 -0.2125  0.2703  1.3543
18942TIP3   OH278316   4.709   6.022   4.963 -0.7153  0.2655  0.7434
18942TIP3    H178317   4.714   5.962   4.889  0.2229  1.3454 -0.0951
18942TIP3    H278318   4.778   5.992   5.023 -0.4999  0.2812  0.5041
18943TIP3   OH278319   1.357   2.249   1.625 -0.0504 -0.5738  0.0512
18943TIP3    H178320   1.289   2.231   1.690 -2.9020 -0.5407 -2.6301
18943TIP3    H278321   1.357   2.344   1.617  1.1633 -0.4988  0.8080
18944TIP3   OH278322   5.001   2.410   2.050  0.4576 -0.0252  0.3909
18944TIP3    H178323   5.005   2.363   1.967 -0.9448 -2.5194  1.6273
18944TIP3    H278324   4.936   2.478   2.036  1.4412  0.6887 -0.9929
18945TIP3   OH278325   5.304   6.420  11.778  0.0023 -0.1776 -0.2982
18945TIP3    H178326   5.328   6.494  11.721 -0.8140  0.3762  0.0543
18945TIP3    H278327   5.288   6.347  11.718  0.8944 -0.0952 -0.6470
18946TIP3   OH278328   0.477   0.853   3.561  0.2601 -0.1462 -0.2787
18946TIP3    H178329   0.493   0.897   3.477  1.8373  0.5675  0.3542
18946TIP3    H278330   0.396   0.892   3.593  0.7755  1.1459 -0.4906
18947TIP3   OH278331   3.876   2.863   1.336  0.3654  0.1336  0.3201
18947TIP3    H178332   3.848   2.854   1.427  1.5169  0.8608  0.7600
18947TIP3    H278333   3.971   2.860   1.339  0.3986 -0.9350 -1.0045
18948TIP3   OH278334   4.492   0.027   6.356  0.2265  0.4946 -0.6338
18948TIP3    H178335   4.477   0.108   6.307  0.9231  0.8456 -0.2837
18948TIP3    H278336   4.548   0.054   6.429 -1.4859  0.1833  0.8886
18949TIP3   OH278337   4.807   1.167  13.933 -0.6475  0.0535 -0.7202
18949TIP3    H178338   4.869   1.236  13.909  0.0056 -0.3626 -0.2983
18949TIP3    H278339   4.841   1.133  14.016 -1.5951 -0.0184 -0.3556
18950TIP3   OH278340   1.329   1.572  12.492 -0.1082 -0.2775 -1.0443
18950TIP3    H178341   1.304   1.504  12.555 -1.6257  0.8617 -0.3615
18950TIP3    H278342   1.282   1.548  12.412  1.6090 -1.5744 -1.7312
18951TIP3   OH278343   0.567   3.299   0.153  0.3787  0.2531 -0.0522
18951TIP3    H178344   0.630   3.234   0.121  0.7065 -0.0782  1.2121
18951TIP3    H278345   0.622   3.373   0.180  0.4067 -0.4906  2.1712
18952TIP3   OH278346   3.475   1.789  13.849 -0.1823 -0.1431 -0.1699
18952TIP3    H178347   3.484   1.724  13.780 -1.1610  0.8518 -1.2899
18952TIP3    H278348   3.564   1.805  13.879 -0.0183 -3.2628  1.4233
18953TIP3   OH278349   3.550   3.757   3.179 -0.0594  0.7605 -0.1312
18953TIP3    H178350   3.569   3.691   3.113 -1.1661  0.6217 -0.3247
18953TIP3    H278351   3.579   3.718   3.261 -2.2201 -0.6917  0.0039
18954TIP3   OH278352   3.029   0.260  16.112  0.3191  0.2820  0.0585
18954TIP3    H178353   2.966   0.292  16.176  0.5458 -1.6924  1.3759
18954TIP3    H278354   2.978   0.204  16.054  0.7470 -1.1530  1.0025
18955TIP3   OH278355   6.259   2.639  10.266  0.0363  0.5596  0.5760
18955TIP3    H178356   6.236   2.693  10.191  1.2299 -0.1563 -0.3603
18955TIP3    H278357   6.201   2.563  10.260  0.7085  0.0829 -0.1662
18956TIP3   OH278358   2.985   1.535   3.651 -0.0062  0.0836 -0.1343
18956TIP3    H178359   2.991   1.533   3.747  2.0254 -2.4483 -0.2122
18956TIP3    H278360   2.965   1.445   3.626  3.5363 -0.3236 -2.1777
18957TIP3   OH278361   2.266   2.866   4.724  0.0566 -0.6040 -0.0965
18957TIP3    H178362   2.197   2.833   4.781  0.7568 -0.7995  0.6565
18957TIP3    H278363   2.340   2.882   4.783 -0.0426  1.7244 -0.5227
18958TIP3   OH278364   1.033   4.049  11.482  0.6205  0.3929 -0.7152
18958TIP3    H178365   1.127   4.035  11.474  0.5699  0.0769 -0.7837
18958TIP3    H278366   1.012   4.110  11.412  0.9675  1.4123  0.0436
18959TIP3   OH278367   2.285   0.399  12.821 -0.2787 -0.4964 -0.3243
18959TIP3    H178368   2.195   0.432  12.828  0.4755  1.7766 -0.3658
18959TIP3    H278369   2.327   0.460  12.760  1.6151 -0.7488  0.6831
18960TIP3   OH278370   5.322   0.435   2.748 -0.7862 -0.0912  0.1220
18960TIP3    H178371   5.281   0.464   2.830  2.5314  0.5642  1.6924
18960TIP3    H278372   5.409   0.406   2.773  0.7153  0.9060 -3.2788
18961TIP3   OH278373   2.194   5.832   6.432  0.7455 -0.1453 -0.3699
18961TIP3    H178374   2.272   5.798   6.475  1.1009  0.4865 -0.5007
18961TIP3    H278375   2.126   5.767   6.451  0.4518  0.8707  2.5438
18962TIP3   OH278376   1.271   1.536   5.598  0.1308 -0.0528 -0.7447
18962TIP3    H178377   1.188   1.495   5.622  0.3202 -1.6985 -2.6409
18962TIP3    H278378   1.247   1.608   5.540  0.0226 -0.9021 -1.7773
18963TIP3   OH278379   6.592   2.617   0.870  0.0134 -0.0891  0.2953
18963TIP3    H178380   6.678   2.586   0.842 -0.3479  0.8799 -2.0937
18963TIP3    H278381   6.610   2.701   0.914  0.3325 -0.1963  0.3735
18964TIP3   OH278382   6.648   3.071   4.870  0.6887  0.0520  0.8514
18964TIP3    H178383   6.631   2.989   4.915  0.2630 -0.6939 -0.6069
18964TIP3    H278384   6.599   3.136   4.920  1.3105 -0.4932  2.2227
18965TIP3   OH278385   4.311   1.900  13.897  0.4753 -0.1181 -0.0238
18965TIP3    H178386   4.278   1.919  13.985  0.4991  1.6408 -0.3492
18965TIP3    H278387   4.266   1.820  13.871  0.9520 -1.0344  1.8246
18966TIP3   OH278388   2.740   4.247  15.242  0.1108 -0.1253  0.1094
18966TIP3    H178389   2.694   4.174  15.284  0.5518 -0.3780  0.1546
18966TIP3    H278390   2.670   4.310  15.221 -0.3053 -0.6611 -0.1487
18967TIP3   OH278391   0.493   3.874  13.883 -0.0724  0.4058  0.1390
18967TIP3    H178392   0.426   3.872  13.952 -0.4953  0.0074 -0.2789
18967TIP3    H278393   0.444   3.885  13.802  0.2860 -0.8507 -0.2682
18968TIP3   OH278394   5.483   3.357   5.215  0.0268  0.6823  0.0755
18968TIP3    H178395   5.434   3.344   5.134  0.1974 -0.2208  0.1065
18968TIP3    H278396   5.455   3.286   5.273  0.9388  0.4829  0.2984
18969TIP3   OH278397   0.272   1.241   1.658 -0.6165 -0.1615  0.3480
18969TIP3    H178398   0.298   1.221   1.747 -1.8600 -1.1829  0.5131
18969TIP3    H278399   0.353   1.233   1.607  0.0925  0.3908  1.3539
18970TIP3   OH278400   4.210   4.812  13.399  0.2012 -0.6844 -0.4941
18970TIP3    H178401   4.192   4.739  13.459 -0.9783 -0.8692 -1.0302
18970TIP3    H278402   4.142   4.877  13.420  0.8087 -0.0377 -0.5020
18971TIP3   OH278403   0.507   2.130   1.972 -0.3680  0.2683 -0.0121
18971TIP3    H178404   0.594   2.160   1.996  0.3231 -1.5731 -0.0189
18971TIP3    H278405   0.455   2.140   2.052  0.0393  0.6918  0.2035
18972TIP3   OH278406   5.635   5.082  15.583  0.1489 -0.7934  0.3066
18972TIP3    H178407   5.649   5.041  15.668  1.4171  0.7881  0.9171
18972TIP3    H278408   5.540   5.078  15.570  0.0611 -2.1747  1.1880
18973TIP3   OH278409   4.307   5.946   3.106 -0.1075  0.5510 -0.6015
18973TIP3    H178410   4.253   5.998   3.166 -0.8795 -0.8719 -0.0285
18973TIP3    H278411   4.332   6.008   3.037 -0.3612  1.8684  0.4482
18974TIP3   OH278412   4.533   0.958  12.189  0.9392 -0.0351 -0.4661
18974TIP3    H178413   4.454   0.924  12.231  0.9327 -0.3627 -0.7332
18974TIP3    H278414   4.538   1.049  12.217  0.3679  0.0378 -0.5877
18975TIP3   OH278415   1.668   3.228  10.382 -0.1713 -0.1484 -0.2243
18975TIP3    H178416   1.644   3.184  10.463  0.3925 -2.4318 -1.1969
18975TIP3    H278417   1.587   3.233  10.332  0.0737 -1.9212 -0.8724
18976TIP3   OH278418   3.368   4.224  13.534  0.5322  0.0296  0.5290
18976TIP3    H178419   3.333   4.135  13.527 -0.8832  0.6562 -1.4648
18976TIP3    H278420   3.342   4.253  13.621  1.4263 -1.6346  1.4031
18977TIP3   OH278421   5.434   0.559  16.018 -0.2457  0.6814 -0.0609
18977TIP3    H178422   5.508   0.513  15.977  0.3137 -0.5802  2.2031
18977TIP3    H278423   5.456   0.652  16.010  1.2594  0.3515 -0.0151
18978TIP3   OH278424   4.181   6.836   2.711  0.2488  0.0638 -0.4836
18978TIP3    H178425   4.102   6.865   2.665 -0.2499 -0.6197 -0.0916
18978TIP3    H278426   4.254   6.864   2.656 -0.1724  2.1634 -0.0550
18979TIP3   OH278427   5.370   0.859  16.033 -0.7316 -1.0002 -0.3684
18979TIP3    H178428   5.295   0.857  15.973  0.1134 -1.5247 -1.4402
18979TIP3    H278429   5.393   0.951  16.039 -1.0623 -0.9011 -0.5460
18980TIP3   OH278430   2.491   5.424  14.666 -0.2622 -0.7114  0.4624
18980TIP3    H178431   2.456   5.508  14.637  0.3434 -0.6338 -0.0673
18980TIP3    H278432   2.477   5.424  14.761  0.3803  0.3030  0.5790
18981TIP3   OH278433   5.401   2.148   2.591 -0.5175  0.0994 -0.0819
18981TIP3    H178434   5.323   2.164   2.538 -0.6986  2.2047  0.7137
18981TIP3    H278435   5.373   2.085   2.657 -0.9504 -0.6901 -0.9848
18982TIP3   OH278436   3.047   6.377   6.526 -0.1725 -0.1999  0.1853
18982TIP3    H178437   2.957   6.382   6.559  0.0543 -0.5152  0.8663
18982TIP3    H278438   3.066   6.284   6.522  0.3509 -0.1225  0.6962
18983TIP3   OH278439   5.318   0.193  12.696 -0.8263 -0.1572 -0.5203
18983TIP3    H178440   5.233   0.163  12.727 -0.4029 -1.0819 -0.2174
18983TIP3    H278441   5.380   0.128  12.729  0.3528  1.8305  1.4604
18984TIP3   OH278442   5.319   5.673  11.736 -0.0487 -0.4593 -0.6597
18984TIP3    H178443   5.414   5.659  11.742 -0.0953 -1.1701 -1.3424
18984TIP3    H278444   5.285   5.649  11.822  0.1653 -2.3071 -1.0375
18985TIP3   OH278445   4.585   0.685   4.913  0.5807  0.1575 -0.0105
18985TIP3    H178446   4.577   0.638   4.996 -1.1211 -2.3459 -1.4619
18985TIP3    H278447   4.495   0.699   4.884  1.1218  1.7058 -1.0731
18986TIP3   OH278448   4.431   5.447   2.577  0.5281 -0.0550 -0.6382
18986TIP3    H178449   4.356   5.447   2.636 -0.0013  1.6657 -1.2691
18986TIP3    H278450   4.506   5.429   2.633 -0.2967 -1.5827  0.0326
18987TIP3   OH278451   3.159   4.466  17.113  0.1503 -0.5430  0.0137
18987TIP3    H178452   3.117   4.540  17.069  0.4657  0.2143  0.9637
18987TIP3    H278453   3.244   4.456  17.069  0.5803  0.3866  0.6107
18988TIP3   OH278454   5.489   6.145   0.855  0.0713 -0.2187  0.3038
18988TIP3    H178455   5.443   6.086   0.915  0.6983 -0.6528  0.3605
18988TIP3    H278456   5.554   6.089   0.812  1.1513  0.5765  0.8621
18989TIP3   OH278457   6.198   3.985  12.776  0.2626  0.0547  0.0863
18989TIP3    H178458   6.112   3.989  12.817 -0.6050  1.2898 -1.7603
18989TIP3    H278459   6.186   3.929  12.699  1.2773 -0.2426  0.1214
18990TIP3   OH278460   6.354   6.321   0.857 -0.0178  0.4646 -0.1614
18990TIP3    H178461   6.276   6.339   0.909 -0.5701 -3.1780  0.5451
18990TIP3    H278462   6.427   6.331   0.918 -0.6289 -3.3792  1.5598
18991TIP3   OH278463   1.770   6.616   3.489 -0.0485  0.1259  0.0855
18991TIP3    H178464   1.709   6.634   3.418  1.2670  0.8716 -0.9076
18991TIP3    H278465   1.753   6.525   3.514 -1.8775  0.4705  0.1982
18992TIP3   OH278466   0.973   3.734   3.414 -0.2163 -0.0057 -0.2509
18992TIP3    H178467   0.908   3.759   3.479 -2.3947 -1.2632 -1.7997
18992TIP3    H278468   0.991   3.815   3.365 -1.8761  0.0754 -0.7946
18993TIP3   OH278469   0.479   5.478  11.571 -0.0506  0.1365  0.0110
18993TIP3    H178470   0.464   5.396  11.525 -0.6592  0.6095 -0.6461
18993TIP3    H278471   0.427   5.543  11.524 -1.5257  0.4646  1.9250
18994TIP3   OH278472   5.417   2.881  12.619 -0.0265  0.3608 -0.1251
18994TIP3    H178473   5.481   2.867  12.549  1.5959  0.3059  1.3163
18994TIP3    H278474   5.368   2.798  12.624  0.9466 -0.2222 -0.1124
18995TIP3   OH278475   2.067   6.223  16.939  0.3709 -0.3252  0.5027
18995TIP3    H178476   2.058   6.261  17.026  1.5473 -0.6886  0.8008
18995TIP3    H278477   2.046   6.295  16.879 -0.6223 -0.1284  1.0794
18996TIP3   OH278478   1.265   2.347  14.735 -0.3450  0.4456  0.6232
18996TIP3    H178479   1.226   2.277  14.787 -1.0102  0.8553  0.6828
18996TIP3    H278480   1.347   2.310  14.703  0.2258  0.2788  2.1875
18997TIP3   OH278481   4.702   6.272   1.821 -0.5952 -0.0628 -0.0922
18997TIP3    H178482   4.614   6.236   1.837  0.0068 -1.4675  0.1831
18997TIP3    H278483   4.743   6.274   1.908 -0.7619  1.8129 -0.0041
18998TIP3   OH278484   4.441   4.061  17.088 -0.4452  0.1444  0.4010
18998TIP3    H178485   4.530   4.094  17.079 -0.2756  0.7236  3.3544
18998TIP3    H278486   4.388   4.121  17.035  0.7800  0.3296 -0.6704
18999TIP3   OH278487   0.626   0.384  12.200  0.5037 -0.0046 -0.4114
18999TIP3    H178488   0.656   0.404  12.111 -0.2756  0.4741 -0.5755
18999TIP3    H278489   0.693   0.324  12.234  1.2958  0.5118 -0.9925
19000TIP3   OH278490   3.685   6.411  13.148  0.1187  0.6381  0.0617
19000TIP3    H178491   3.717   6.501  13.143 -0.5754  0.8223 -1.4304
19000TIP3    H278492   3.755   6.359  13.108  1.1531  0.3046  2.1816
19001TIP3   OH278493   1.608   2.235   3.141 -0.2471  0.2150 -0.3429
19001TIP3    H178494   1.595   2.317   3.190  1.9940  1.4397 -1.6511
19001TIP3    H278495   1.544   2.240   3.069 -2.2829 -0.7438  1.2785
19002TIP3   OH278496   4.078   6.048  15.902 -0.2340  0.6289 -0.7020
19002TIP3    H178497   4.113   5.968  15.863  2.7372  0.4439  1.9141
19002TIP3    H278498   3.988   6.026  15.925 -0.2384 -1.1132 -2.1750
19003TIP3   OH278499   1.629   3.968  11.417  0.0285  0.4458 -0.2202
19003TIP3    H178500   1.627   4.063  11.425  0.4195  0.5192 -0.8944
19003TIP3    H278501   1.715   3.943  11.452 -0.7145  0.1600  1.5265
19004TIP3   OH278502   6.739   6.692  13.156 -0.2528 -0.2806 -0.1083
19004TIP3    H178503   6.705   6.659  13.239 -0.8214 -0.8938 -0.5674
19004TIP3    H278504   6.799   6.624  13.126  1.9967  1.1134  1.0384
19005TIP3   OH278505   4.370   2.244  11.395 -0.4393  0.4289 -0.6334
19005TIP3    H178506   4.406   2.182  11.459 -0.4231  0.5698 -0.5065
19005TIP3    H278507   4.296   2.285  11.440  0.6341  1.8093 -0.0576
19006TIP3   OH278508   1.918   3.306  15.969 -0.4431 -0.2826  0.6955
19006TIP3    H178509   1.905   3.399  15.951  0.4547 -0.5024 -1.2811
19006TIP3    H278510   1.999   3.303  16.020  1.6238 -0.1620 -2.3667
19007TIP3   OH278511   0.305   2.776  15.235 -0.3492 -0.1723 -0.0519
19007TIP3    H178512   0.247   2.715  15.280 -0.5533  0.8726  1.1651
19007TIP3    H278513   0.251   2.854  15.221  0.5653  0.5900  0.5466
19008TIP3   OH278514   0.179   1.468  13.789  0.0983 -0.2481  0.2076
19008TIP3    H178515   0.208   1.543  13.840 -1.7019  0.4196  0.3190
19008TIP3    H278516   0.232   1.471  13.710 -1.1280  2.2624 -0.6291
19009TIP3   OH278517   5.576   3.006   0.852  0.0749  0.0483  0.1207
19009TIP3    H178518   5.563   2.913   0.871  0.3546  0.0394  0.2767
19009TIP3    H278519   5.517   3.051   0.912  1.4522  0.0478  1.5386
19010TIP3   OH278520   1.501   6.825   2.576  1.0965 -0.2411 -0.4758
19010TIP3    H178521   1.455   6.816   2.493  0.8309 -1.3191 -0.2231
19010TIP3    H278522   1.585   6.865   2.553 -0.6317  3.7359 -0.7280
19011TIP3   OH278523   2.060   3.998   4.638  0.3682  0.0023 -0.6088
19011TIP3    H178524   2.045   4.032   4.726 -0.0308 -3.6737  0.9351
19011TIP3    H278525   1.975   3.967   4.609  0.1664  2.4839 -3.0806
19012TIP3   OH278526   5.047   2.787  10.957  0.8107 -0.5087  0.1757
19012TIP3    H178527   5.009   2.755  11.039  0.4246  3.7263  1.8552
19012TIP3    H278528   5.138   2.808  10.979  0.7935  0.3850 -0.5785
19013TIP3   OH278529   5.116   6.466   4.853  0.4790  0.3525 -0.3876
19013TIP3    H178530   5.129   6.495   4.943 -0.3972 -0.7170  0.1027
19013TIP3    H278531   5.049   6.525   4.818 -0.6973 -0.5097  0.3416
19014TIP3   OH278532   3.157   4.982   1.877 -0.5889  0.4356 -0.2643
19014TIP3    H178533   3.115   4.906   1.836 -1.3783  0.2388  0.8638
19014TIP3    H278534   3.098   5.006   1.949 -0.6188  2.4387 -0.8917
19015TIP3   OH278535   6.254   5.800  12.119 -0.0167  0.7770  1.0797
19015TIP3    H178536   6.277   5.893  12.124  3.5582 -0.0045  2.2353
19015TIP3    H278537   6.207   5.783  12.201  0.8872  1.2263  1.7062
19016TIP3   OH278538   2.570   5.570   0.307  0.2435  0.1342 -0.4380
19016TIP3    H178539   2.494   5.627   0.292 -0.5636 -0.3019  1.6952
19016TIP3    H278540   2.615   5.609   0.382 -0.8424 -2.4205  1.7163
19017TIP3   OH278541   2.654   0.377   5.712  0.4084  0.5495 -0.0525
19017TIP3    H178542   2.747   0.368   5.732  0.7701  1.3621 -1.2762
19017TIP3    H278543   2.611   0.383   5.798  1.4517  0.0213  0.5206
19018TIP3   OH278544   2.367   0.837  14.617 -0.0263 -1.1461  0.2673
19018TIP3    H178545   2.325   0.776  14.678  0.4049  0.2150  2.0177
19018TIP3    H278546   2.455   0.800  14.603 -0.9144 -2.7650 -1.5745
19019TIP3   OH278547   5.147   0.939  12.917 -0.3186 -0.4915  0.6790
19019TIP3    H178548   5.203   0.873  12.878 -2.3806 -0.1537 -3.3197
19019TIP3    H278549   5.208   1.001  12.959  2.0571 -1.6809 -0.8183
19020TIP3   OH278550   3.797   1.603  12.074 -0.0713  0.1688  0.2931
19020TIP3    H178551   3.812   1.540  12.004  0.5817 -0.0337  0.6123
19020TIP3    H278552   3.783   1.687  12.029  3.9996  0.8446 -0.0356
19021TIP3   OH278553   5.844   2.140  12.574 -0.3158  0.2872 -0.2503
19021TIP3    H178554   5.763   2.180  12.606 -1.0148 -2.3145  1.4619
19021TIP3    H278555   5.901   2.136  12.650  0.7068  0.3268 -0.9919
19022TIP3   OH278556   1.751   3.134   4.010  0.1901  0.2569  0.1174
19022TIP3    H178557   1.686   3.184   3.961  0.1977  1.0099  0.8614
19022TIP3    H278558   1.807   3.200   4.050  1.6861 -0.3824 -0.8510
19023TIP3   OH278559   2.754   3.077   4.964  0.0924  0.6576  0.0075
19023TIP3    H178560   2.849   3.073   4.975 -0.2305 -1.0745  3.3048
19023TIP3    H278561   2.726   3.146   5.023 -0.8661 -0.8996  1.4610
19024TIP3   OH278562   5.317   2.525  12.304 -0.3494  0.3220  0.0949
19024TIP3    H178563   5.243   2.552  12.358 -0.2342  0.6661  0.0833
19024TIP3    H278564   5.343   2.604  12.257  0.0887  0.2263  0.1703
19025TIP3   OH278565   6.225   1.430  14.856 -0.8480  0.5958  0.0566
19025TIP3    H178566   6.158   1.379  14.902 -0.7373  0.8794  0.5449
19025TIP3    H278567   6.251   1.375  14.782 -1.6479  0.5023 -0.1620
19026TIP3   OH278568   1.976   0.104  16.718  0.6233  0.1463 -0.0518
19026TIP3    H178569   2.046   0.154  16.677  1.0105 -0.9926 -0.8095
19026TIP3    H278570   1.975   0.020  16.672 -1.5797  0.3059 -0.4322
19027TIP3   OH278571   1.719   1.754  12.028  0.0906  0.0502 -0.0505
19027TIP3    H178572   1.763   1.676  11.995 -0.4066 -0.1053 -0.3701
19027TIP3    H278573   1.669   1.787  11.952  2.1411  2.0464 -0.6511
19028TIP3   OH278574   5.547   1.282  13.671 -0.1737  0.1060  0.0964
19028TIP3    H178575   5.586   1.227  13.739 -0.8951 -2.7537 -1.6033
19028TIP3    H278576   5.622   1.319  13.624  0.3660  0.0196  0.8776
19029TIP3   OH278577   4.104   3.029   2.134 -0.2303 -0.3069 -0.5796
19029TIP3    H178578   4.062   3.043   2.049  0.9844  1.5117 -0.9325
19029TIP3    H278579   4.132   2.937   2.132 -0.0080 -0.2388 -2.2661
19030TIP3   OH278580   1.747   1.037  13.488 -0.2511  0.3418  0.3308
19030TIP3    H178581   1.748   1.122  13.444  0.8142 -0.1600 -0.6619
19030TIP3    H278582   1.659   1.030  13.525 -1.0699  0.9537 -1.4008
19031TIP3   OH278583   3.012   3.299   2.405  0.4290  0.3458 -0.7448
19031TIP3    H178584   3.017   3.381   2.455 -0.0299  1.6174 -2.6788
19031TIP3    H278585   2.919   3.275   2.408  0.6952 -0.6581  0.5799
19032TIP3   OH278586   1.165   5.697  14.500 -0.4272  0.3703  0.9342
19032TIP3    H178587   1.200   5.613  14.469  1.6737  1.5789 -0.2380
19032TIP3    H278588   1.203   5.708  14.587  0.3273  0.6481  0.5790
19033TIP3   OH278589   5.311   1.710  15.797 -0.3028 -0.3862 -0.0663
19033TIP3    H178590   5.221   1.700  15.765 -0.1624 -0.2235 -0.5210
19033TIP3    H278591   5.334   1.623  15.831 -0.5400 -0.4972 -0.1864
19034TIP3   OH278592   2.892   5.582  16.435  0.0779  0.4091 -0.0922
19034TIP3    H178593   2.900   5.670  16.397  0.2793 -0.0917 -1.2545
19034TIP3    H278594   2.837   5.594  16.512  2.0999  1.9753  1.2232
19035TIP3   OH278595   5.260   6.755   3.183 -0.0405  0.2945  0.2597
19035TIP3    H178596   5.177   6.712   3.165  2.4463 -4.5757 -1.1423
19035TIP3    H278597   5.285   6.724   3.270  0.9030  0.7006  0.1494
19036TIP3   OH278598   6.778   3.979  16.555 -0.0441  0.9449 -0.4030
19036TIP3    H178599   6.725   3.998  16.632  0.4973  2.7100 -0.4257
19036TIP3    H278600   6.804   3.888  16.566  0.5750  1.3347  1.8585
19037TIP3   OH278601   2.423   2.659   1.473  0.1097  0.2558 -0.8400
19037TIP3    H178602   2.475   2.579   1.460 -1.7612 -1.0194 -0.8120
19037TIP3    H278603   2.375   2.669   1.391 -1.2889  0.1103 -0.0597
19038TIP3   OH278604   0.153   3.804  15.141 -0.1528 -0.1409 -0.1075
19038TIP3    H178605   0.205   3.813  15.061 -1.4178 -0.5463 -1.0096
19038TIP3    H278606   0.143   3.709  15.152 -2.6730 -0.0956 -1.3311
19039TIP3   OH278607   3.769   4.561  15.493 -0.6418  0.4513 -0.1291
19039TIP3    H178608   3.789   4.644  15.537 -0.3140  0.1100  0.3861
19039TIP3    H278609   3.779   4.495  15.562  0.7378 -0.2100 -0.9144
19040TIP3   OH278610   0.913   1.509  12.390  0.3343 -0.3415  0.8963
19040TIP3    H178611   0.891   1.601  12.380  0.4307 -0.3373  0.7165
19040TIP3    H278612   0.831   1.466  12.412 -0.3951 -0.7212 -2.1798
19041TIP3   OH278613   3.981   5.292  13.000 -0.8442 -0.1252 -0.7077
19041TIP3    H178614   4.030   5.212  13.020 -1.7586 -0.4878  0.1373
19041TIP3    H278615   4.013   5.356  13.064  1.5374  0.9389 -2.7591
19042TIP3   OH278616   2.363   0.813  11.650 -0.7882  0.0741  0.8482
19042TIP3    H178617   2.419   0.886  11.623  0.6553 -0.9091  1.0660
19042TIP3    H278618   2.423   0.740  11.666 -2.1122 -0.9735  1.3456
19043TIP3   OH278619   0.225   3.116   3.773  0.2221  0.2028 -0.4956
19043TIP3    H178620   0.298   3.177   3.782  0.1319  0.3419 -0.7269
19043TIP3    H278621   0.266   3.029   3.775  0.2007  0.1743  1.7246
19044TIP3   OH278622   1.627   6.393   0.822  0.7745  0.3587 -0.0686
19044TIP3    H178623   1.566   6.427   0.888  1.0407 -2.7798  2.0545
19044TIP3    H278624   1.713   6.399   0.863  1.2105  0.0497 -0.9071
19045TIP3   OH278625   6.805   5.405   0.559  0.5471  0.0775 -0.5326
19045TIP3    H178626   6.842   5.321   0.531  1.2356  0.4231 -0.6608
19045TIP3    H278627   6.807   5.401   0.655 -1.8513 -1.1239 -0.4554
19046TIP3   OH278628   2.936   0.157  16.522 -0.0974  0.0898  0.0742
19046TIP3    H178629   2.905   0.169  16.612  2.2364  0.9274  0.8547
19046TIP3    H278630   2.859   0.128  16.473 -1.0699 -2.2376  2.7169
19047TIP3   OH278631   5.861   1.085   0.353 -0.1206  0.2508 -0.0844
19047TIP3    H178632   5.803   1.051   0.421 -0.0926  0.9984  0.3256
19047TIP3    H278633   5.942   1.035   0.363 -0.0206  0.5334  0.6176
19048TIP3   OH278634   6.309   2.291  12.756 -0.4138 -0.0491  0.1223
19048TIP3    H178635   6.302   2.364  12.818  2.2096  2.6251 -2.4159
19048TIP3    H278636   6.258   2.319  12.680  0.3962 -1.0001 -0.7998
19049TIP3   OH278637   2.167   0.318   2.177 -0.2244 -0.3375  0.4353
19049TIP3    H178638   2.237   0.364   2.132  0.1032 -0.4233  0.8442
19049TIP3    H278639   2.117   0.275   2.108 -0.6519  0.7924  0.0343
19050TIP3   OH278640   2.367   0.625   5.012 -0.2696  0.1120  0.1208
19050TIP3    H178641   2.380   0.557   5.078 -0.9226  0.7922  0.9765
19050TIP3    H278642   2.279   0.609   4.978 -0.3780  0.4541  0.2394
19051TIP3   OH278643   6.405   6.458   0.603 -0.2751 -0.2489 -0.3478
19051TIP3    H178644   6.409   6.547   0.637 -0.3542 -0.1985 -0.4694
19051TIP3    H278645   6.382   6.404   0.679  1.4132 -0.3941  0.1228
19052TIP3   OH278646   3.977   5.268  14.291 -0.2822 -0.5772 -0.6461
19052TIP3    H178647   3.965   5.212  14.369 -0.4140 -0.7900 -0.8171
19052TIP3    H278648   4.043   5.222  14.239  0.2867 -0.1004 -0.3512
19053TIP3   OH278649   5.301   1.701   1.829  0.2250 -0.2605  0.0519
19053TIP3    H178650   5.371   1.637   1.818  1.0003  0.7664 -1.3518
19053TIP3    H278651   5.307   1.757   1.751 -2.1794 -0.1499 -0.1316
19054TIP3   OH278652   6.538   3.346   0.114  0.0591 -0.5209  0.3163
19054TIP3    H178653   6.448   3.326   0.092  0.0788  0.2157 -0.4692
19054TIP3    H278654   6.588   3.271   0.082 -0.2066 -0.6921  0.2979
19055TIP3   OH278655   5.023   3.709   2.333 -0.3703  0.0955  0.0428
19055TIP3    H178656   5.010   3.791   2.382 -2.0277  0.0784 -0.3129
19055TIP3    H278657   4.993   3.729   2.245 -0.0808 -0.7026 -0.2402
19056TIP3   OH278658   1.249   4.218   4.151  0.1001 -0.3412  0.2956
19056TIP3    H178659   1.287   4.162   4.083 -1.0751  0.0555 -0.7076
19056TIP3    H278660   1.299   4.299   4.146 -1.6180  0.6732 -1.9140
19057TIP3   OH278661   3.096   5.545  15.355  0.2437 -0.2160 -0.2115
19057TIP3    H178662   3.111   5.561  15.262  1.0419  0.4286  0.0130
19057TIP3    H278663   3.139   5.462  15.373 -1.4374 -1.2651 -0.7748
19058TIP3   OH278664   5.093   0.214  13.332  0.0213  0.0057 -0.4602
19058TIP3    H178665   5.176   0.260  13.321 -0.1263  0.8458  1.4751
19058TIP3    H278666   5.118   0.123  13.347  0.9347  0.7045  3.1709
19059TIP3   OH278667   6.521   5.729   2.185  0.1974  0.1971  0.5943
19059TIP3    H178668   6.590   5.758   2.125 -0.5556  0.3871 -0.1967
19059TIP3    H278669   6.527   5.789   2.259  1.1709 -0.0740  0.7546
19060TIP3   OH278670   6.695   1.648   5.721 -0.4764 -0.6827  0.7044
19060TIP3    H178671   6.635   1.576   5.742 -2.2287  0.5465  0.1243
19060TIP3    H278672   6.778   1.622   5.762 -1.2201 -2.7033  1.0748
19061TIP3   OH278673   1.739   0.292  12.818 -0.4532 -0.3847  0.1772
19061TIP3    H178674   1.753   0.376  12.863  0.0873 -0.1694 -0.3840
19061TIP3    H278675   1.755   0.311  12.726  3.3331 -1.8570  0.3831
19062TIP3   OH278676   1.067   1.134  13.524 -0.1981  0.4538 -0.5150
19062TIP3    H178677   1.146   1.161  13.569  1.0401 -0.7451 -1.8780
19062TIP3    H278678   1.050   1.046  13.557 -1.7291  1.1386  0.6867
19063TIP3   OH278679   0.846   4.800  12.977 -0.6075  0.6174  0.4189
19063TIP3    H178680   0.801   4.870  12.929 -2.4577 -0.5347  0.3500
19063TIP3    H278681   0.922   4.778  12.923 -1.1730  1.1588 -0.6305
19064TIP3   OH278682   6.045   0.002  12.185  0.0523 -0.1229  0.0744
19064TIP3    H178683   6.060  -0.066  12.119  1.2003  1.1048 -1.0132
19064TIP3    H278684   6.080  -0.035  12.266  0.5498 -0.8724 -0.4697
19065TIP3   OH278685   6.536   5.594   0.685 -0.1831  0.2110  0.4748
19065TIP3    H178686   6.533   5.504   0.719  0.2384  0.3795  0.9710
19065TIP3    H278687   6.624   5.625   0.708 -0.9625  1.4109  1.9994
19066TIP3   OH278688   4.659   4.397   1.826  0.2020 -0.2942  0.3531
19066TIP3    H178689   4.644   4.302   1.827 -0.8682 -0.2763 -2.6510
19066TIP3    H278690   4.576   4.435   1.852 -1.0069 -0.2677 -3.0780
19067TIP3   OH278691   4.400   2.044   3.994  0.2160  0.0466 -0.1516
19067TIP3    H178692   4.332   1.989   4.033  0.1326  0.0754 -0.2555
19067TIP3    H278693   4.466   2.054   4.063  0.5005 -0.6492 -0.3207
19068TIP3   OH278694   4.182   2.487   4.015 -0.5107  0.1387 -0.1369
19068TIP3    H178695   4.169   2.570   4.059 -1.0466  0.4381 -0.8427
19068TIP3    H278696   4.238   2.437   4.074  0.9376  1.4939 -0.2991
19069TIP3   OH278697   3.815   6.087   1.699 -0.0859 -0.6955 -0.5880
19069TIP3    H178698   3.806   6.182   1.708  1.4454 -0.5590 -0.2009
19069TIP3    H278699   3.725   6.054   1.703 -0.5381  0.5864  1.0874
19070TIP3   OH278700   1.940   1.300  16.073 -0.3480 -0.2789 -0.6357
19070TIP3    H178701   2.031   1.331  16.066 -0.2375 -0.3930  0.1631
19070TIP3    H278702   1.933   1.232  16.006  0.6529 -1.3822  0.3286
19071TIP3   OH278703   1.896   4.200   0.593 -0.1042  0.4724 -0.2246
19071TIP3    H178704   1.883   4.256   0.516 -0.1401  0.3590 -0.3018
19071TIP3    H278705   1.822   4.139   0.590 -0.9001  1.3444  0.6781
19072TIP3   OH278706   5.282   0.254  13.665 -0.5283  0.2067  0.2103
19072TIP3    H178707   5.325   0.169  13.657  0.6959  0.6454  1.6417
19072TIP3    H278708   5.295   0.296  13.580  0.3940 -0.3539  0.0598
19073TIP3   OH278709   2.129   0.589   4.891 -0.0654  0.3117 -0.5874
19073TIP3    H178710   2.098   0.527   4.825 -1.2098 -1.0523  1.1180
19073TIP3    H278711   2.085   0.671   4.870 -0.3061 -0.0624 -1.5929
19074TIP3   OH278712   5.087   3.439   1.748 -0.1258 -0.5923  0.7485
19074TIP3    H178713   5.109   3.353   1.785  1.0950 -0.1139  1.1842
19074TIP3    H278714   5.168   3.469   1.707 -0.6545  0.1842  0.2329
19075TIP3   OH278715   3.162   3.146  13.764  0.1052 -0.0408  0.2946
19075TIP3    H178716   3.165   3.153  13.859  1.2308 -0.1209  0.2791
19075TIP3    H278717   3.074   3.176  13.740 -0.3802 -0.5510  1.3921
19076TIP3   OH278718   1.484   2.004   0.601  0.1428  0.1006 -0.4334
19076TIP3    H178719   1.568   2.032   0.638 -0.3729 -0.0288  0.8472
19076TIP3    H278720   1.420   2.066   0.635 -0.5579 -0.8621  0.0406
19077TIP3   OH278721   4.431   1.208   2.072  0.1143 -0.2467  0.2397
19077TIP3    H178722   4.340   1.194   2.045 -0.2979  2.0169  0.2466
19077TIP3    H278723   4.480   1.209   1.990  0.4927 -3.2081  0.3262
19078TIP3   OH278724   0.094   6.612   4.144  0.6342 -0.0084  0.3665
19078TIP3    H178725   0.092   6.589   4.237  0.4045  1.0387  0.6286
19078TIP3    H278726   0.163   6.556   4.108 -0.3385 -1.5765  0.8326
19079TIP3   OH278727   1.988   3.306   5.581  0.2580 -0.1915  0.2117
19079TIP3    H178728   1.999   3.217   5.612  0.8237 -0.3361 -0.3680
19079TIP3    H278729   1.972   3.297   5.487  0.6534  0.3292  0.0858
19080TIP3   OH278730   3.000   6.696   1.309  0.3040  0.6359  0.0808
19080TIP3    H178731   2.974   6.781   1.273  0.3426  0.9492  0.7821
19080TIP3    H278732   3.032   6.715   1.396  2.3806  0.1815 -0.5246
19081TIP3   OH278733   4.104   5.607  12.879  0.2673 -0.5547 -0.1778
19081TIP3    H178734   4.179   5.547  12.874  0.6074 -0.0066 -2.7809
19081TIP3    H278735   4.065   5.605  12.792 -2.2262 -0.0914  0.8362
19082TIP3   OH278736   0.573   1.735  15.163 -0.2913  0.0638 -0.0758
19082TIP3    H178737   0.527   1.815  15.137 -0.1583  0.1053 -0.1861
19082TIP3    H278738   0.660   1.766  15.189 -0.4633  0.0425  0.5512
19083TIP3   OH278739   4.838   6.035  16.249  0.3818  0.1269  0.0254
19083TIP3    H178740   4.781   6.048  16.173  0.9600  0.2956 -0.3817
19083TIP3    H278741   4.873   5.946  16.238 -0.8680 -0.5395  1.0052
19084TIP3   OH278742   3.908   0.001   4.210 -0.5511  0.4358  0.0184
19084TIP3    H178743   3.909  -0.060   4.135  2.0237  0.0038  0.3057
19084TIP3    H278744   3.980   0.062   4.192 -2.8206  3.2951 -0.0755
19085TIP3   OH278745   4.238   3.973  14.554 -0.2949  0.0993 -0.0045
19085TIP3    H178746   4.254   3.892  14.505  0.8462  0.2106  0.1347
19085TIP3    H278747   4.325   3.998  14.587 -0.8462  0.6462  1.1073
19086TIP3   OH278748   4.622   3.138  12.628 -0.1604  0.1922 -0.2893
19086TIP3    H178749   4.665   3.054  12.617 -1.6011 -0.5274 -0.6302
19086TIP3    H278750   4.534   3.117  12.660 -0.6421  1.5336 -0.6298
19087TIP3   OH278751   5.538   1.640  14.032  0.4024  0.2255  0.5574
19087TIP3    H178752   5.618   1.655  13.982  1.1112  0.3738  1.6939
19087TIP3    H278753   5.554   1.682  14.117  0.0564 -1.7206  1.6587
19088TIP3   OH278754   5.745   2.777   1.945 -0.2672  0.1303  0.1093
19088TIP3    H178755   5.750   2.764   1.851 -0.2225  0.5772  0.0450
19088TIP3    H278756   5.652   2.787   1.963 -0.3972 -1.2389  0.3044
19089TIP3   OH278757   0.831   1.393   5.491  0.9384 -0.5187  0.8063
19089TIP3    H178758   0.830   1.298   5.478 -0.5116 -0.4795  0.4102
19089TIP3    H278759   0.906   1.423   5.441  0.9727 -1.3791  0.3135
19090TIP3   OH278760   1.112   6.277  12.716  0.3867  0.3345  0.0040
19090TIP3    H178761   1.085   6.187  12.731 -0.4502  0.7004  0.7607
19090TIP3    H278762   1.034   6.330  12.735  1.2830  1.3243  1.1081
19091TIP3   OH278763   3.846   3.254  11.024  0.2119  0.3986  0.0092
19091TIP3    H178764   3.852   3.160  11.006 -0.2723 -0.0822  2.0799
19091TIP3    H278765   3.810   3.292  10.943  0.5512 -1.1496 -0.9091
19092TIP3   OH278766   2.841   0.608   2.405 -0.3855  0.4555  0.2313
19092TIP3    H178767   2.935   0.621   2.410 -0.2827 -0.5604  1.6283
19092TIP3    H278768   2.830   0.535   2.344 -0.1740 -0.0811  0.8190
19093TIP3   OH278769   3.164   0.190  14.359  0.0399 -0.0925  0.8072
19093TIP3    H178770   3.166   0.280  14.393 -1.6984  0.3797 -0.1948
19093TIP3    H278771   3.086   0.151  14.399  0.8998 -1.2660  1.4107
19094TIP3   OH278772   3.459   2.851  15.100 -0.5069 -0.6483 -0.2708
19094TIP3    H178773   3.401   2.843  15.024 -1.9919 -0.6912  0.8123
19094TIP3    H278774   3.475   2.945  15.108 -0.8001 -0.5927 -0.3188
19095TIP3   OH278775   5.061   0.910  11.535 -0.4679 -0.1733 -0.7617
19095TIP3    H178776   5.117   0.962  11.477 -1.5859  0.5594 -1.1956
19095TIP3    H278777   5.092   0.931  11.623 -0.3407  0.5591 -0.9763
19096TIP3   OH278778   2.415   3.157   2.013 -0.0890  0.0943  0.1068
19096TIP3    H178779   2.359   3.120   1.944 -2.1842  0.2577  1.6234
19096TIP3    H278780   2.408   3.095   2.085  1.0856  0.5401  0.6323
19097TIP3   OH278781   4.190   2.214  12.423 -0.3691 -0.0336  0.1873
19097TIP3    H178782   4.235   2.238  12.504  0.3104 -1.4041  0.2438
19097TIP3    H278783   4.223   2.276  12.358 -0.0373  0.3432  0.7064
19098TIP3   OH278784   4.506   5.449   0.351 -0.2557  0.2800 -0.1742
19098TIP3    H178785   4.440   5.460   0.283  2.1844  0.6673 -2.6525
19098TIP3    H278786   4.588   5.476   0.310  1.3384  0.8943  3.0716
19099TIP3   OH278787   1.616   4.621  16.869  0.1787 -0.4766 -0.2062
19099TIP3    H178788   1.637   4.614  16.776 -0.3220  0.7868 -0.4349
19099TIP3    H278789   1.698   4.602  16.914  0.3439 -1.4516 -0.8796
19100TIP3   OH278790   3.541   5.408   3.550  0.3508  0.9762 -0.4297
19100TIP3    H178791   3.468   5.469   3.550  0.1364  0.7569  1.0216
19100TIP3    H278792   3.541   5.370   3.638  1.3319 -0.0831 -0.8569
19101TIP3   OH278793   4.476   5.887   5.001  0.6219  0.1988 -0.0585
19101TIP3    H178794   4.461   5.876   4.907  1.8440  0.0653 -0.2580
19101TIP3    H278795   4.545   5.954   5.006  1.7536 -0.9786  0.6489
19102TIP3   OH278796   3.735   3.726   4.025 -0.6139 -0.0655  0.4318
19102TIP3    H178797   3.793   3.659   4.060  0.6836  1.3505  1.1256
19102TIP3    H278798   3.791   3.803   4.013 -2.2474  1.2338  0.7083
19103TIP3   OH278799   4.789   6.055  11.489 -0.4630  0.0487  0.4409
19103TIP3    H178800   4.820   5.965  11.506 -1.4422 -0.2386  0.7628
19103TIP3    H278801   4.714   6.065  11.548 -0.0540  1.2603  0.7701
19104TIP3   OH278802   6.364   3.039   0.614  0.0564  0.2746 -0.5379
19104TIP3    H178803   6.354   2.992   0.532 -1.2226  0.7529 -0.6842
19104TIP3    H278804   6.448   3.009   0.650  0.2213 -0.5658 -1.5946
19105TIP3   OH278805   2.028   2.075   2.125 -0.5333 -0.1482  0.4184
19105TIP3    H178806   1.992   1.986   2.126 -4.1055  1.1467  0.2311
19105TIP3    H278807   2.016   2.105   2.035 -1.1075  1.1367  0.9086
19106TIP3   OH278808   6.628   6.838   5.024 -0.1966 -0.0306 -0.3521
19106TIP3    H178809   6.600   6.813   4.936 -0.3949 -0.7651 -0.0848
19106TIP3    H278810   6.565   6.903   5.052  0.7224  1.3370 -1.3286
19107TIP3   OH278811   0.232   0.199   5.078 -0.3623 -0.0704 -0.3086
19107TIP3    H178812   0.187   0.157   5.005  0.0050 -0.6486 -0.2093
19107TIP3    H278813   0.218   0.293   5.064  1.0542 -0.0692 -2.0197
19108TIP3   OH278814   5.858   4.785   1.423 -0.1578  1.0987 -0.6550
19108TIP3    H178815   5.914   4.784   1.345  1.0880 -0.7747  0.2001
19108TIP3    H278816   5.788   4.723   1.403 -0.5650  1.5841 -0.7589
19109TIP3   OH278817   5.204   6.745   5.481  0.9858  1.0911  0.1511
19109TIP3    H178818   5.131   6.759   5.541  1.1784  2.6651  0.0608
19109TIP3    H278819   5.205   6.651   5.466 -1.6746  1.1403 -0.7132
19110TIP3   OH278820   5.638   6.334  13.495 -0.8391  0.2447 -0.0864
19110TIP3    H178821   5.639   6.429  13.482  1.0579  0.9306  3.6496
19110TIP3    H278822   5.549   6.315  13.526 -1.2755  0.7422 -0.9986
19111TIP3   OH278823   3.097   2.788   4.096  0.4072 -0.2132 -0.2644
19111TIP3    H178824   3.161   2.723   4.068 -0.1764 -0.5434 -0.8838
19111TIP3    H278825   3.143   2.871   4.092  1.4801 -0.6679  1.5445
19112TIP3   OH278826   1.617   6.171   2.563  0.8007 -0.0604  0.2326
19112TIP3    H178827   1.559   6.109   2.606 -0.2874  0.0480 -0.9972
19112TIP3    H278828   1.560   6.219   2.503  1.7412  1.6325  0.6198
19113TIP3   OH278829   6.196   2.811  10.871  0.2560  0.4254 -0.1356
19113TIP3    H178830   6.167   2.769  10.789  0.8724 -0.8992  0.2889
19113TIP3    H278831   6.275   2.859  10.846 -0.6372  1.6317 -0.7014
19114TIP3   OH278832   2.530   2.005  13.653 -0.2909 -0.0224  0.0861
19114TIP3    H178833   2.464   1.986  13.587  0.2184  1.7607 -0.9788
19114TIP3    H278834   2.488   2.067  13.712 -0.3668 -0.7591  0.8236
19115TIP3   OH278835   0.105   0.152  13.721  0.2194  0.3138  0.7876
19115TIP3    H178836   0.172   0.184  13.782  0.1306 -0.6835  1.4200
19115TIP3    H278837   0.153   0.094  13.662  0.1695  0.7134  0.3502
19116TIP3   OH278838   4.757   4.117  11.139 -0.7233 -0.8494 -0.0262
19116TIP3    H178839   4.805   4.099  11.059 -0.5039 -1.8686  0.3169
19116TIP3    H278840   4.670   4.079  11.125 -0.9660 -0.2768 -0.1011
19117TIP3   OH278841   2.442   5.921  15.005 -0.0057  0.0868  0.2654
19117TIP3    H178842   2.530   5.921  14.967  1.2571  1.7907  2.8589
19117TIP3    H278843   2.388   5.967  14.941  1.0889 -0.5222 -1.1430
19118TIP3   OH278844   5.379   6.509   0.240  0.9572 -0.5844 -0.6463
19118TIP3    H178845   5.351   6.576   0.178  0.7070  0.6118  0.7059
19118TIP3    H278846   5.380   6.428   0.189 -1.4676 -0.0698 -1.6316
19119TIP3   OH278847   6.184   0.000   2.041  0.4540 -0.3635  0.0922
19119TIP3    H178848   6.228  -0.077   2.006  0.6265 -0.4621  0.5207
19119TIP3    H278849   6.189  -0.010   2.136 -2.7508 -1.7020  0.2515
19120TIP3   OH278850   6.486   2.658   4.276 -0.0819 -0.4203  0.3823
19120TIP3    H178851   6.519   2.748   4.272 -1.4623  0.0791 -0.5300
19120TIP3    H278852   6.392   2.668   4.293 -0.0697 -1.7291  1.3248
19121TIP3   OH278853   4.251   5.719   3.861 -0.3069  0.0190 -0.5325
19121TIP3    H178854   4.236   5.721   3.956 -1.8479 -1.0426 -0.7052
19121TIP3    H278855   4.310   5.792   3.844 -0.7680  0.8221  1.1229
19122TIP3   OH278856   0.538   5.939  11.495  0.1898  0.0440 -0.1379
19122TIP3    H178857   0.468   5.874  11.492  0.3987 -0.1808 -2.8673
19122TIP3    H278858   0.602   5.901  11.556 -0.9582 -0.8948  0.5388
19123TIP3   OH278859   5.320   3.659   2.790  1.3606 -0.0563  0.7899
19123TIP3    H178860   5.385   3.593   2.811  2.0686  0.2641 -0.3493
19123TIP3    H278861   5.270   3.622   2.717  0.5776 -0.0828  1.3189
19124TIP3   OH278862   3.280   3.887   0.393  0.0004  0.2413 -0.6329
19124TIP3    H178863   3.310   3.970   0.429 -1.0110 -0.6101  2.4844
19124TIP3    H278864   3.212   3.910   0.330  0.2563  1.7938 -0.3722
19125TIP3   OH278865   2.817   4.679   0.772 -0.5284  0.2488 -0.3676
19125TIP3    H178866   2.906   4.696   0.741 -0.3777  0.3549  0.1109
19125TIP3    H278867   2.809   4.732   0.851 -0.4556 -1.0173  0.5147
19126TIP3   OH278868   0.213   5.316   1.848 -0.4487 -0.0757  0.0602
19126TIP3    H178869   0.230   5.403   1.810 -0.7653 -1.0501 -2.5446
19126TIP3    H278870   0.118   5.307   1.846 -0.3690 -1.7787 -3.2142
19127TIP3   OH278871   6.031   1.167   2.582 -0.5638  0.3148  0.0782
19127TIP3    H178872   6.006   1.144   2.671 -1.3587  2.9709  0.6318
19127TIP3    H278873   6.124   1.189   2.588 -0.2952 -0.7313 -0.0515
19128TIP3   OH278874   4.694   5.391  13.924 -0.1911 -0.0209 -0.1548
19128TIP3    H178875   4.698   5.325  13.993 -0.0892 -0.2026 -0.3324
19128TIP3    H278876   4.721   5.472  13.966 -2.0177  0.2907  0.5148
19129TIP3   OH278877   5.533   1.339  13.304  0.7008 -0.0808 -0.0887
19129TIP3    H178878   5.493   1.424  13.288 -1.3591 -0.6131  1.8155
19129TIP3    H278879   5.494   1.281  13.239  1.0178  0.1140 -0.4565
19130TIP3   OH278880   2.810   6.776   5.094  0.1769 -0.1627  0.4241
19130TIP3    H178881   2.784   6.705   5.152  0.3347 -0.1034  0.5690
19130TIP3    H278882   2.831   6.849   5.153 -1.1774  0.4118  0.2283
19131TIP3   OH278883   5.871   6.762   2.435 -0.3675 -0.0553  0.1678
19131TIP3    H178884   5.883   6.687   2.494 -1.8743 -1.2477 -0.9587
19131TIP3    H278885   5.777   6.780   2.439  0.0996  2.7185  1.4396
19132TIP3   OH278886   2.802   5.077  11.212  0.0666 -0.0848 -0.4406
19132TIP3    H178887   2.798   5.030  11.130  1.6725 -0.1475 -0.5055
19132TIP3    H278888   2.741   5.031  11.270 -0.2481 -0.6954 -1.2521
19133TIP3   OH278889   0.425   3.399   3.045 -0.5507  0.0766 -0.4081
19133TIP3    H178890   0.386   3.469   3.098 -0.2880  0.2953 -0.5036
19133TIP3    H278891   0.490   3.443   2.991 -1.0941 -0.0792 -1.2139
19134TIP3   OH278892   3.714   4.996   3.093  0.1475 -0.4339 -0.5984
19134TIP3    H178893   3.689   5.088   3.093 -0.0460 -0.4558 -2.1817
19134TIP3    H278894   3.655   4.955   3.156  0.0480  0.4661 -0.0864
19135TIP3   OH278895   6.624   5.273   6.149  0.2138 -0.3534 -0.1274
19135TIP3    H178896   6.602   5.193   6.196 -2.2447 -0.4639 -1.3407
19135TIP3    H278897   6.555   5.335   6.172  0.7571  0.6399 -1.0631
19136TIP3   OH278898   6.763   4.104  13.588  0.0508  0.2168 -0.5244
19136TIP3    H178899   6.723   4.163  13.525 -1.8788 -0.0709  0.3365
19136TIP3    H278900   6.856   4.122  13.583 -0.3595  2.4369 -1.1734
19137TIP3   OH278901   1.620   1.227  16.328 -0.4574  0.1462  0.2838
19137TIP3    H178902   1.524   1.223  16.331 -0.5210 -2.1943 -1.4375
19137TIP3    H278903   1.640   1.249  16.237  0.5724 -2.1132 -0.1116
19138TIP3   OH278904   5.643   1.102   1.876 -0.3272  0.4327  0.1717
19138TIP3    H178905   5.719   1.110   1.819 -0.7022  0.6909 -0.3068
19138TIP3    H278906   5.569   1.096   1.815 -0.7425  0.8248  0.6299
19139TIP3   OH278907   4.037   0.736  12.766  0.8156  0.1843 -0.0331
19139TIP3    H178908   4.030   0.748  12.861  0.2293  1.6327 -0.2264
19139TIP3    H278909   3.999   0.816  12.730 -3.3357 -2.2154 -1.6046
19140TIP3   OH278910   1.727   6.742   3.092  0.1889 -0.0113 -1.1457
19140TIP3    H178911   1.818   6.770   3.084  0.1390  0.3386 -0.5470
19140TIP3    H278912   1.726   6.653   3.057  1.2872 -1.0068  1.1239
19141TIP3   OH278913   0.211   3.145  10.976 -0.3523 -0.2649 -0.1941
19141TIP3    H178914   0.265   3.179  10.905 -0.1750 -1.0219 -0.4299
19141TIP3    H278915   0.213   3.214  11.043 -0.2730  0.3234 -0.7867
19142TIP3   OH278916   0.469   2.157  16.450  0.2217  0.2125 -0.1027
19142TIP3    H178917   0.460   2.101  16.527  2.3138  1.7298  1.3765
19142TIP3    H278918   0.385   2.202  16.443 -0.5783 -1.1566  0.2476
19143TIP3   OH278919   4.290   6.072  13.804 -0.0481 -0.1590 -0.3548
19143TIP3    H178920   4.273   6.145  13.745  2.4555  0.5754 -0.2865
19143TIP3    H278921   4.273   6.107  13.891  0.8411  0.2946 -0.3468
19144TIP3   OH278922   6.685   1.514   1.928  0.6049  0.4880  0.0123
19144TIP3    H178923   6.617   1.515   1.861 -0.3559 -1.5229  0.8942
19144TIP3    H278924   6.728   1.429   1.918 -0.0881 -0.2118  2.3983
19145TIP3   OH278925   1.472   3.876   1.624 -0.0032 -0.2901 -0.0446
19145TIP3    H178926   1.382   3.875   1.592  0.4339  1.6442 -1.5214
19145TIP3    H278927   1.478   3.956   1.677  0.8993 -0.2787 -0.1419
19146TIP3   OH278928   3.044   6.362  16.750 -0.3954  0.4207 -0.3035
19146TIP3    H178929   2.989   6.346  16.826 -0.1700 -0.8386 -0.3757
19146TIP3    H278930   3.130   6.383  16.786 -0.9059  2.5249 -0.1874
19147TIP3   OH278931   1.448   1.441   3.203  0.2015 -0.5179  0.5231
19147TIP3    H178932   1.498   1.399   3.133  0.5350  1.0193 -0.1754
19147TIP3    H278933   1.513   1.461   3.270  0.0923 -0.7993  0.7178
19148TIP3   OH278934   4.341   6.756  14.678  0.5070  0.0787  0.1408
19148TIP3    H178935   4.280   6.701  14.628  0.6510 -0.2592  0.3373
19148TIP3    H278936   4.319   6.739  14.769  1.3767 -0.6061  0.2368
19149TIP3   OH278937   1.233   1.167   3.722 -0.1837 -0.1062  0.1479
19149TIP3    H178938   1.306   1.211   3.679 -0.2366 -1.8963 -1.9615
19149TIP3    H278939   1.236   1.077   3.689 -2.8044 -0.4775  0.6567
19150TIP3   OH278940   4.640   3.043   1.133  0.0306  0.5373 -0.8045
19150TIP3    H178941   4.709   2.976   1.137 -0.2693  0.2018 -1.0998
19150TIP3    H278942   4.674   3.116   1.185 -0.9877 -1.0540  2.3356
19151TIP3   OH278943   5.134   2.756  13.210  0.5299  0.2377  0.2021
19151TIP3    H178944   5.042   2.732  13.219  0.9454 -1.3076  0.6271
19151TIP3    H278945   5.140   2.842  13.250 -0.1389 -1.0043  3.3105
19152TIP3   OH278946   0.673   4.476   0.460  0.1469  0.5115 -0.1909
19152TIP3    H178947   0.682   4.442   0.549 -1.5008  0.8981  0.1569
19152TIP3    H278948   0.727   4.555   0.459  0.3760  0.3678  0.3803
19153TIP3   OH278949   2.905   0.247   5.782  0.3842  0.2557 -0.2102
19153TIP3    H178950   2.981   0.189   5.790  0.5742  0.6448  1.0875
19153TIP3    H278951   2.859   0.215   5.705  0.8385 -1.2095  0.0819
19154TIP3   OH278952   4.858   3.131   2.214  0.3584  0.2131  0.2331
19154TIP3    H178953   4.888   3.157   2.128 -1.1316 -1.5972 -0.9214
19154TIP3    H278954   4.882   3.038   2.221 -3.4777 -0.9921 -0.2326
19155TIP3   OH278955   5.258   3.510   0.467 -0.2632  0.1478  0.3728
19155TIP3    H178956   5.299   3.521   0.382 -2.2556  0.7310 -0.5649
19155TIP3    H278957   5.314   3.448   0.513  1.8068  1.1404 -0.6924
19156TIP3   OH278958   0.174   3.682   1.880  0.1675 -0.0456 -0.6991
19156TIP3    H178959   0.174   3.603   1.935  0.9674 -0.1864 -0.8930
19156TIP3    H278960   0.257   3.724   1.898  0.4562 -0.1034 -1.8181
19157TIP3   OH278961   1.549   0.006   0.799  0.1416 -0.1866 -0.6471
19157TIP3    H178962   1.615   0.070   0.826 -1.3608  1.5503 -0.8648
19157TIP3    H278963   1.558   0.002   0.704 -1.0883  1.3397 -0.8753
19158TIP3   OH278964   2.173   6.478  13.578  0.0718  0.0730 -0.0339
19158TIP3    H178965   2.094   6.529  13.595  0.6862  1.0651 -0.0543
19158TIP3    H278966   2.240   6.519  13.633  0.7448 -0.2865 -0.5672
19159TIP3   OH278967   5.561   1.892   1.779 -0.0614  0.4942  0.6647
19159TIP3    H178968   5.627   1.959   1.760 -0.2788  0.3451 -0.7292
19159TIP3    H278969   5.492   1.908   1.714 -0.9299  0.0120  1.4580
19160TIP3   OH278970   4.459   6.602  13.137 -0.1468  0.0968  0.1056
19160TIP3    H178971   4.446   6.686  13.182  0.5186 -0.1492  0.7846
19160TIP3    H278972   4.380   6.552  13.154  0.9957 -0.9035  3.0893
19161TIP3   OH278973   2.540   2.430   1.880  0.3518  0.2393 -0.1288
19161TIP3    H178974   2.586   2.415   1.962 -0.0278  0.5945  0.1533
19161TIP3    H278975   2.539   2.344   1.837  0.3612  0.0003  0.3376
19162TIP3   OH278976   6.047   5.944  16.079  0.1935  0.3988 -0.1964
19162TIP3    H178977   6.039   5.849  16.070  2.3662  0.1144  0.3379
19162TIP3    H278978   5.984   5.979  16.016  1.3658 -1.4068 -2.5446
19163TIP3   OH278979   0.773   0.080   2.555 -0.2919 -0.2173 -0.0139
19163TIP3    H178980   0.839   0.146   2.534 -0.7408 -0.3080 -1.9469
19163TIP3    H278981   0.820  -0.003   2.554 -0.2007 -0.1645 -0.1553
19164TIP3   OH278982   6.337   4.828   1.577  0.0107  0.5222 -0.0681
19164TIP3    H178983   6.268   4.893   1.568 -0.1276  0.6504  1.5461
19164TIP3    H278984   6.380   4.825   1.492 -3.1389 -0.9020 -1.7707
19165TIP3   OH278985   1.564   3.977   3.683  0.1359  0.1360 -0.5483
19165TIP3    H178986   1.594   3.921   3.754  0.0456 -0.3522 -0.8923
19165TIP3    H278987   1.633   3.971   3.616 -0.0264  0.1755 -0.7207
19166TIP3   OH278988   4.031   1.532   4.599 -0.7711  0.0150  0.0836
19166TIP3    H178989   3.964   1.543   4.531 -1.5964 -0.8232  0.7189
19166TIP3    H278990   3.990   1.566   4.679 -0.6433 -0.9521  0.5790
19167TIP3   OH278991   1.586   2.101   3.519  0.0683  0.2423 -0.0446
19167TIP3    H178992   1.569   2.032   3.583  0.3652  0.1106 -0.1071
19167TIP3    H278993   1.588   2.182   3.571 -0.4516  0.2294  0.0054
19168TIP3   OH278994   5.483   6.750  15.802 -0.1656  0.7217  0.1954
19168TIP3    H178995   5.486   6.654  15.801  1.3941  0.6779  2.1676
19168TIP3    H278996   5.391   6.770  15.817 -0.3871 -0.5350  0.7258
19169TIP3   OH278997   5.851   3.486  15.373 -0.6690 -0.2259  0.0734
19169TIP3    H178998   5.946   3.484  15.385 -0.2126 -0.8406 -2.8214
19169TIP3    H278999   5.816   3.514  15.458  2.2369  2.6608  0.5004
19170TIP3   OH279000   1.968   5.374  12.382  0.0689  0.0486 -0.1807
19170TIP3    H179001   1.873   5.387  12.387 -0.3110 -1.8690 -1.1517
19170TIP3    H279002   2.002   5.409  12.464 -1.4838  0.7044  0.2146
19171TIP3   OH279003   3.023   2.865  14.944 -0.5439  0.9603  0.5791
19171TIP3    H179004   2.993   2.938  14.999 -1.1264  2.8716 -2.0954
19171TIP3    H279005   2.947   2.842  14.890  0.9296  1.6701 -1.9493
19172TIP3   OH279006   4.761   3.878   0.795 -0.5536 -0.7380 -0.3933
19172TIP3    H179007   4.831   3.813   0.795 -0.4222 -0.6033  0.4217
19172TIP3    H279008   4.798   3.952   0.745 -0.2626 -0.8166 -0.2960
19173TIP3   OH279009   2.605   5.479   5.288 -0.1209  0.3484  0.6842
19173TIP3    H179010   2.599   5.451   5.197  0.8485 -0.3638  0.8274
19173TIP3    H279011   2.594   5.574   5.284 -1.1103  0.2145 -0.0562
19174TIP3   OH279012   5.293   6.275  16.476  0.0635 -0.7014 -0.1298
19174TIP3    H179013   5.301   6.265  16.571  1.5514 -1.3838 -0.3102
19174TIP3    H279014   5.224   6.213  16.452 -2.3798  1.4215  0.7830
19175TIP3   OH279015   6.169   6.427  13.121  0.1036  0.0881 -0.3387
19175TIP3    H179016   6.154   6.388  13.035  0.1232  1.4936 -0.9992
19175TIP3    H279017   6.081   6.433  13.160 -0.0138  0.2779 -0.6317
19176TIP3   OH279018   6.090   3.776  13.245  0.3947  0.6805 -0.9499
19176TIP3    H179019   6.112   3.788  13.338 -0.3665  1.8025 -0.8907
19176TIP3    H279020   6.018   3.713  13.245  1.6824 -0.8184 -0.9359
19177TIP3   OH279021   4.239   0.854   2.990 -0.0806  0.3326  0.4269
19177TIP3    H179022   4.309   0.792   2.969 -0.5355  0.1807 -0.7555
19177TIP3    H279023   4.223   0.900   2.908 -2.0370 -0.3378  0.3816
19178TIP3   OH279024   0.849   2.889  12.338  0.1307  0.3651 -0.1854
19178TIP3    H179025   0.892   2.967  12.374 -1.5005  1.1756  0.1161
19178TIP3    H279026   0.825   2.837  12.415  1.9268 -0.8901 -0.4124
19179TIP3   OH279027   5.013   3.999  15.117  0.4585 -0.1846 -0.6112
19179TIP3    H179028   4.945   3.997  15.184  0.8206 -0.5291 -0.2522
19179TIP3    H279029   5.017   3.909  15.083 -1.3106  0.4370 -2.7257
19180TIP3   OH279030   0.333   2.562   2.479 -0.3955  0.2838 -0.3741
19180TIP3    H179031   0.239   2.548   2.490 -0.5172  1.0254 -0.4230
19180TIP3    H279032   0.374   2.493   2.532 -0.9629  0.0770 -0.1956
19181TIP3   OH279033   3.083   0.192  11.404 -0.3441 -0.0587 -0.2801
19181TIP3    H179034   3.150   0.246  11.446 -0.2487  0.2562 -0.8230
19181TIP3    H279035   3.129   0.150  11.331 -0.8900  0.6732 -1.0565
19182TIP3   OH279036   0.968   5.618  10.972  0.1151  0.1454  0.0698
19182TIP3    H179037   1.013   5.596  11.054 -2.2232 -0.7245  1.1989
19182TIP3    H279038   1.039   5.644  10.913  2.1600 -1.6066  1.5578
19183TIP3   OH279039   0.029   6.733  12.306 -0.3291  0.4286 -0.5046
19183TIP3    H179040   0.007   6.791  12.378  2.3173 -1.4089  2.0353
19183TIP3    H279041  -0.007   6.648  12.331 -2.4120  0.3859 -3.1738
19184TIP3   OH279042   1.115   3.177   0.258 -0.1322 -0.1735 -0.0728
19184TIP3    H179043   1.107   3.097   0.206 -1.2832 -1.1294  1.4531
19184TIP3    H279044   1.162   3.239   0.202 -0.9330 -1.2720 -2.0317
19185TIP3   OH279045   3.003   1.419  16.299  0.5532 -0.3055  0.0124
19185TIP3    H179046   3.009   1.431  16.205  0.3087 -0.5129 -0.0326
19185TIP3    H279047   2.923   1.465  16.324 -0.0330 -1.2486 -0.0617
19186TIP3   OH279048   6.545   4.576  16.533  0.0683 -0.0603  0.6525
19186TIP3    H179049   6.480   4.565  16.464  0.6092  0.5204  0.0384
19186TIP3    H279050   6.578   4.488  16.550 -0.3221 -0.2525  0.4329
19187TIP3   OH279051   4.564   3.288  15.593  0.2875 -0.6943  0.0830
19187TIP3    H179052   4.523   3.305  15.508 -0.4114 -0.7698  0.3967
19187TIP3    H279053   4.495   3.246  15.644  1.0949 -1.8267  0.2672
19188TIP3   OH279054   6.331   1.111   3.759  0.6538  0.1208 -0.0011
19188TIP3    H179055   6.323   1.176   3.829  0.2673  2.2664 -1.9141
19188TIP3    H279056   6.243   1.074   3.750  1.1477 -1.6962  1.9309
19189TIP3   OH279057   0.154   0.219   2.715  0.2993 -0.1628  0.2260
19189TIP3    H179058   0.170   0.259   2.800  0.3355 -1.2273  0.7331
19189TIP3    H279059   0.072   0.170   2.726 -0.1770  0.4171 -0.6175
19190TIP3   OH279060   4.411   2.992  17.092  0.6612 -0.1475  0.6280
19190TIP3    H179061   4.476   2.981  17.162 -1.0060 -0.5879  2.1600
19190TIP3    H279062   4.356   3.065  17.122  1.7831  1.8654 -1.7733
19191TIP3   OH279063   4.943   2.668  11.192  0.3469 -0.3920 -0.4354
19191TIP3    H179064   4.948   2.576  11.164 -0.0716 -0.0894 -1.5634
19191TIP3    H279065   5.006   2.674  11.263 -0.2669 -1.7682  0.2817
19192TIP3   OH279066   0.416   2.364   0.973 -0.1026  0.0523 -0.0782
19192TIP3    H179067   0.366   2.355   0.892 -0.0259  1.2945 -0.2836
19192TIP3    H279068   0.473   2.439   0.957  2.4993 -1.8045 -0.1949
19193TIP3   OH279069   5.556   4.694   3.656 -0.2329 -0.1455 -0.2435
19193TIP3    H179070   5.651   4.688   3.661 -0.3015 -1.7222 -0.2172
19193TIP3    H279071   5.534   4.658   3.570 -0.8420 -0.4602  0.0378
19194TIP3   OH279072   2.838   2.184   5.229 -0.2453 -0.3963 -0.3362
19194TIP3    H179073   2.912   2.128   5.253  0.1609  0.0798 -0.4552
19194TIP3    H279074   2.821   2.236   5.307 -0.4760 -0.5266 -0.2996
19195TIP3   OH279075   6.508   1.820  14.183  0.0178  0.3681  0.0559
19195TIP3    H179076   6.493   1.727  14.199 -1.0671  0.7901  1.7474
19195TIP3    H279077   6.476   1.835  14.094 -3.8040 -0.0983  1.2098
19196TIP3   OH279078   6.533   1.748   3.255 -0.2977 -0.6925  0.1618
19196TIP3    H179079   6.518   1.664   3.299  0.0670 -1.4006 -0.9880
19196TIP3    H279080   6.555   1.723   3.165 -0.9162  0.6893 -0.3918
19197TIP3   OH279081   4.105   5.153  11.084  0.3546 -0.2836 -0.4007
19197TIP3    H179082   4.194   5.154  11.117  0.2560  1.0429 -0.1357
19197TIP3    H279083   4.050   5.172  11.160  0.0839  2.1414 -1.1216
19198TIP3   OH279084   2.653   6.410   4.334 -0.4223 -0.2203  0.5408
19198TIP3    H179085   2.559   6.425   4.327 -0.1132  1.5739 -0.3468
19198TIP3    H279086   2.672   6.417   4.427 -0.9205  1.2429  0.5528
19199TIP3   OH279087   2.417   6.422  10.747 -0.1265  0.2844 -0.4912
19199TIP3    H179088   2.416   6.516  10.730 -4.2167  0.6060  0.5774
19199TIP3    H279089   2.326   6.395  10.739  0.7419 -3.4403  0.2748
19200TIP3   OH279090   4.387   6.164  12.730 -0.2144 -0.1870 -0.1214
19200TIP3    H179091   4.308   6.112  12.745 -0.1843 -0.3442 -0.4842
19200TIP3    H279092   4.451   6.128  12.791 -1.0925  1.5213  1.9406
19201TIP3   OH279093   6.099   3.923   4.327 -1.2076  0.2743 -0.3284
19201TIP3    H179094   6.193   3.919   4.309 -1.1365  1.4063 -0.3166
19201TIP3    H279095   6.057   3.900   4.245 -0.9156  0.4990 -0.5412
19202TIP3   OH279096   1.782   1.466   5.671  0.2361  0.9377 -0.6498
19202TIP3    H179097   1.748   1.529   5.734  1.1056  0.9046 -0.1243
19202TIP3    H279098   1.823   1.519   5.603  2.0630  0.9725  0.4121
19203TIP3   OH279099   5.676   5.772   1.951 -0.6294  0.5690 -0.1885
19203TIP3    H179100   5.722   5.726   2.021  1.1636  0.0819 -1.6163
19203TIP3    H279101   5.728   5.851   1.936 -1.7121  1.3166 -0.1462
19204TIP3   OH279102   1.883   6.592  14.605 -0.1893 -0.3301 -0.5450
19204TIP3    H179103   1.835   6.622  14.527 -0.8260  0.8636  0.2641
19204TIP3    H279104   1.959   6.545  14.571 -1.0696 -0.8379 -1.8755
19205TIP3   OH279105   2.805   2.969  11.101  0.2897  0.1544 -0.0485
19205TIP3    H179106   2.895   2.992  11.123  0.0360 -0.1397  1.3860
19205TIP3    H279107   2.793   2.881  11.137 -1.0705  0.8542  1.2898
19206TIP3   OH279108   3.088   4.485   4.820  0.5083  0.3794 -0.1988
19206TIP3    H179109   3.092   4.391   4.801 -0.5069  0.1090  0.8168
19206TIP3    H279110   3.150   4.497   4.892 -1.5083 -0.0927  1.7028
19207TIP3   OH279111   1.425   4.769   2.613  0.2035 -0.3683  0.5512
19207TIP3    H179112   1.494   4.811   2.664  1.5197  0.0223 -1.4619
19207TIP3    H279113   1.457   4.769   2.523 -1.4229 -2.2839 -0.1177
19208TIP3   OH279114   6.213   5.266  14.120  0.5940 -0.2594  0.4892
19208TIP3    H179115   6.225   5.252  14.214 -0.4224  1.2128  0.8707
19208TIP3    H279116   6.123   5.240  14.103  0.6927 -0.2726 -0.0381
19209TIP3   OH279117   2.555   6.766   4.125 -0.2469  0.0814  0.5360
19209TIP3    H179118   2.613   6.800   4.057  0.3753  0.7819  1.3833
19209TIP3    H279119   2.608   6.770   4.205 -1.3051  0.3012  1.2452
19210TIP3   OH279120   6.624   0.698  14.791  0.0714  0.6179 -0.0052
19210TIP3    H179121   6.631   0.604  14.773 -0.6985  0.5507 -0.0238
19210TIP3    H279122   6.677   0.740  14.724 -0.8709  0.2615 -1.0166
19211TIP3   OH279123   3.378   4.036  15.473 -0.0717  0.2775 -0.2946
19211TIP3    H179124   3.291   3.997  15.473 -0.7188  1.6661 -0.2481
19211TIP3    H279125   3.365   4.124  15.440  1.4962  0.1666 -1.3047
19212TIP3   OH279126   5.175   3.546   4.756 -0.6028 -0.2674  0.3871
19212TIP3    H179127   5.135   3.580   4.676 -1.0102 -1.2379  0.1698
19212TIP3    H279128   5.269   3.560   4.742 -0.4628 -2.3863 -1.2443
19213TIP3   OH279129   3.696   1.769  11.703 -0.1697 -0.1543 -0.1646
19213TIP3    H179130   3.668   1.812  11.623 -0.7861 -0.7837 -0.2917
19213TIP3    H279131   3.783   1.734  11.682  0.2354  0.7958 -0.1353
19214TIP3   OH279132   0.303   0.564  15.738 -0.6887  0.5108 -0.2882
19214TIP3    H179133   0.261   0.490  15.696  1.3154 -0.2646 -1.0843
19214TIP3    H279134   0.232   0.624  15.759 -2.5079 -1.9805  1.1857
19215TIP3   OH279135   4.658   1.215   0.031  0.1066  0.5550  0.0085
19215TIP3    H179136   4.654   1.120   0.034  0.5356  0.5607  1.0235
19215TIP3    H279137   4.567   1.242   0.013  0.0515 -0.0374 -0.6682
19216TIP3   OH279138   1.190   6.083  15.696  0.1589 -0.2213  0.3339
19216TIP3    H179139   1.103   6.113  15.672  0.5042  0.5311 -0.0143
19216TIP3    H279140   1.178   5.992  15.723 -0.5508 -0.4867 -0.8138
19217TIP3   OH279141   0.928   3.649   2.443  0.0653 -0.3170  0.4142
19217TIP3    H179142   0.891   3.668   2.356 -1.1417  0.5258  1.0871
19217TIP3    H279143   1.014   3.692   2.443 -0.1289  0.0736 -0.1866
19218TIP3   OH279144   0.983   3.695   4.359  0.0509  0.2793  0.1408
19218TIP3    H179145   0.890   3.707   4.340 -0.0488  2.1174  1.4690
19218TIP3    H279146   1.023   3.676   4.274 -1.6166 -1.2697 -0.3301
19219TIP3   OH279147   1.570   1.369  13.866 -1.0409  0.3582 -0.4359
19219TIP3    H179148   1.609   1.456  13.879 -1.5162  0.5359 -0.1730
19219TIP3    H279149   1.478   1.386  13.850 -0.8762 -0.0083 -1.9369
19220TIP3   OH279150   5.741   4.913  10.658 -0.3581 -0.1746  0.6309
19220TIP3    H179151   5.690   4.939  10.735  0.7108 -0.2375  1.3894
19220TIP3    H279152   5.695   4.952  10.584 -1.5939 -0.3748  1.2577
19221TIP3   OH279153   0.290   1.550   3.199  0.5022  0.1618  0.5384
19221TIP3    H179154   0.245   1.517   3.276  0.1259 -0.2313  0.1547
19221TIP3    H279155   0.371   1.499   3.195 -0.1060 -0.7977 -0.0890
19222TIP3   OH279156   0.565   1.884   2.843  0.0038 -0.2225  0.4317
19222TIP3    H179157   0.562   1.829   2.765 -0.6763 -0.6200  0.7380
19222TIP3    H279158   0.499   1.848   2.901 -0.3283  0.8095  0.7097
19223TIP3   OH279159   4.891   0.598  17.059 -0.0560 -0.2635 -0.2144
19223TIP3    H179160   4.985   0.599  17.038  0.1076 -0.0464  0.4811
19223TIP3    H279161   4.886   0.640  17.145 -0.8261 -0.0113 -0.3758
19224TIP3   OH279162   4.921   6.028  12.580  0.1154 -0.2506 -0.4895
19224TIP3    H179163   4.848   5.972  12.554 -0.4738  0.4677 -0.4114
19224TIP3    H279164   4.952   5.990  12.662 -0.5686 -0.2131 -0.2038
19225TIP3   OH279165   1.257   0.626  11.497 -0.0899 -0.7115  0.5053
19225TIP3    H179166   1.339   0.582  11.474  2.4222  2.6042  2.2736
19225TIP3    H279167   1.248   0.694  11.431 -1.2117 -0.7287  0.6296
19226TIP3   OH279168   1.179   3.757   2.461 -0.0255 -0.2702  0.1390
19226TIP3    H179169   1.166   3.759   2.366 -0.3286 -1.5867  0.1437
19226TIP3    H279170   1.224   3.675   2.478 -1.2733 -0.7534  1.2858
19227TIP3   OH279171   0.470   2.602  11.926  0.0596  0.6270  0.0209
19227TIP3    H179172   0.376   2.600  11.944  0.1965 -1.9161  0.8020
19227TIP3    H279173   0.476   2.604  11.830 -0.8758 -1.3651 -0.1357
19228TIP3   OH279174   4.997   5.835   0.551 -0.2207  0.6550 -0.1710
19228TIP3    H179175   5.014   5.902   0.484 -1.4183  0.7632 -0.4049
19228TIP3    H279176   5.041   5.868   0.629  1.9876  0.0783 -1.1058
19229TIP3   OH279177   4.303   4.904   1.267 -0.2570 -0.8740 -0.0815
19229TIP3    H179178   4.259   4.842   1.209 -0.3549  0.0136 -0.9982
19229TIP3    H279179   4.320   4.855   1.347  0.7929 -2.4780 -1.2180
19230TIP3   OH279180   5.081   2.847  15.396 -0.0370 -0.0140  0.3201
19230TIP3    H179181   5.081   2.922  15.336 -0.0702 -0.2254  0.0586
19230TIP3    H279182   5.111   2.773  15.343 -0.3554 -0.2619  0.4843
19231TIP3   OH279183   5.696   3.966  11.739  0.0747  0.1854  0.3082
19231TIP3    H179184   5.779   3.973  11.691 -0.3920  1.7828 -0.3357
19231TIP3    H279185   5.640   4.033  11.699 -1.1223 -0.0460  1.5379
19232TIP3   OH279186   1.734   0.500  16.642  0.1775 -0.3370 -0.2390
19232TIP3    H179187   1.825   0.528  16.638 -0.0316  0.3849 -0.1651
19232TIP3    H279188   1.719   0.481  16.735  0.0661  0.2135 -0.1391
19233TIP3   OH279189   1.275   2.696   2.071 -0.3898  0.0021 -0.1675
19233TIP3    H179190   1.183   2.692   2.043 -0.5170 -0.9103  0.3475
19233TIP3    H279191   1.320   2.633   2.016 -0.3843 -0.7748  0.7042
19234TIP3   OH279192   3.726   5.129   3.871  0.1548  0.0440  0.1213
19234TIP3    H179193   3.777   5.071   3.928  0.8316  1.3509  0.8867
19234TIP3    H279194   3.766   5.119   3.784 -0.2713 -1.2308  0.0468
19235TIP3   OH279195   2.890   6.635   3.993  0.3571 -0.2624  0.2485
19235TIP3    H179196   2.916   6.727   3.999 -0.6534  0.0420  0.1603
19235TIP3    H279197   2.879   6.619   3.899  1.1928 -0.6695  0.2161
19236TIP3   OH279198   5.676   3.030   6.571  0.3393  0.0072 -0.2945
19236TIP3    H179199   5.643   3.098   6.512 -1.2919  0.1650  0.7104
19236TIP3    H279200   5.608   3.022   6.638  0.7220 -2.2606 -0.0898
19237TIP3   OH279201   0.430   4.849  13.952 -0.0227 -0.0036  0.1036
19237TIP3    H179202   0.473   4.882  14.031 -1.3289 -0.8607  1.2295
19237TIP3    H279203   0.478   4.769  13.930 -1.6191 -1.5888  2.0253
19238TIP3   OH279204   4.556   2.456  13.070 -0.3278  0.1666  0.4326
19238TIP3    H179205   4.593   2.410  13.145 -0.6563  0.5523  0.8328
19238TIP3    H279206   4.468   2.420  13.060 -0.2504  0.0435  0.1645
19239TIP3   OH279207   6.009   1.186   1.126  0.0881 -0.1155 -0.6927
19239TIP3    H179208   5.956   1.190   1.206  0.1368 -0.2003 -0.6567
19239TIP3    H279209   6.091   1.230   1.149  0.1157 -0.1705 -0.6858
19240TIP3   OH279210   4.143   3.955  16.715  0.4701  0.1171  0.2588
19240TIP3    H179211   4.229   3.955  16.758 -0.0114 -0.3183  1.2471
19240TIP3    H279212   4.095   3.885  16.758 -0.1554 -0.1013 -0.7722
19241TIP3   OH279213   4.285   6.240   5.684  0.2118  0.0929 -0.0570
19241TIP3    H179214   4.340   6.229   5.606  1.1959  0.0114  0.6228
19241TIP3    H279215   4.325   6.181   5.748  0.9040  1.9466  1.2718
19242TIP3   OH279216   4.465   4.197   1.078  0.4183  0.3457  0.0520
19242TIP3    H179217   4.379   4.237   1.068  0.7516  1.6416  1.9722
19242TIP3    H279218   4.522   4.249   1.022  0.5511  1.6536  1.3457
19243TIP3   OH279219   2.825   5.898   3.626  0.1117 -0.4763  0.4287
19243TIP3    H179220   2.746   5.912   3.573  0.3298  0.5362  0.3479
19243TIP3    H279221   2.800   5.929   3.713  0.9082  1.4600  0.0257
19244TIP3   OH279222   4.896   4.554  12.083 -0.5852 -0.2580 -0.0070
19244TIP3    H179223   4.865   4.636  12.046 -1.8187  0.3822  2.2287
19244TIP3    H279224   4.990   4.554  12.068 -0.5879  1.5365 -0.1240
19245TIP3   OH279225   1.662   0.933  16.000  0.3589 -0.1442 -0.5939
19245TIP3    H179226   1.675   0.897  16.088  1.8570  0.5089 -0.5142
19245TIP3    H279227   1.577   0.977  16.005  0.9830  0.9752  0.9375
19246TIP3   OH279228   6.008   3.277   0.076  0.3315 -0.4408  0.1520
19246TIP3    H179229   5.988   3.201   0.129  0.1289 -0.3492  0.2103
19246TIP3    H279230   5.926   3.297   0.031  0.7536 -1.1092 -0.9580
19247TIP3   OH279231   6.043   2.345   3.854  0.3987  0.5949 -0.6886
19247TIP3    H179232   6.079   2.340   3.942 -0.7579 -0.7021 -0.2474
19247TIP3    H279233   6.119   2.351   3.797  1.5438 -3.5154  0.1043
19248TIP3   OH279234   0.640   4.964   3.970 -0.0865 -0.7346  0.3863
19248TIP3    H179235   0.559   4.967   4.022  0.1889 -2.1166  0.9124
19248TIP3    H279236   0.697   4.903   4.017  1.5713  0.7651  0.4190
19249TIP3   OH279237   0.857   1.855   2.641  0.3860  0.8972  0.2182
19249TIP3    H179238   0.835   1.763   2.658  2.0307  0.4066 -0.1136
19249TIP3    H279239   0.922   1.876   2.709 -0.8303  2.2082  1.0368
19250TIP3   OH279240   5.137   5.852  11.631  0.1746  0.2934 -0.0229
19250TIP3    H179241   5.196   5.785  11.664  0.4829 -0.2103 -1.5307
19250TIP3    H279242   5.151   5.927  11.690 -0.9170 -1.2202  2.3169
19251TIP3   OH279243   3.292   5.451  14.774  0.0636 -0.3357  0.2033
19251TIP3    H179244   3.276   5.383  14.707  2.1281 -0.6240 -0.0440
19251TIP3    H279245   3.368   5.420  14.822 -0.9406  0.2471  2.2572
19252TIP3   OH279246   5.654   0.588   3.503  0.1538 -0.2995  0.0435
19252TIP3    H179247   5.725   0.599   3.566 -1.5621  1.3334  1.8376
19252TIP3    H279248   5.670   0.656   3.437  0.6022 -0.3592  0.0888
19253TIP3   OH279249   4.008   1.122  11.547 -0.2764 -0.2804  0.6146
19253TIP3    H179250   4.087   1.136  11.494 -0.0049 -1.1547  0.7727
19253TIP3    H279251   3.968   1.044  11.509 -2.2398  1.3243 -0.8329
19254TIP3   OH279252   1.187   3.966  13.381 -0.0778 -0.2998  0.0457
19254TIP3    H179253   1.118   3.935  13.439  0.1067 -2.6276 -0.8542
19254TIP3    H279254   1.262   3.983  13.439 -0.2525 -1.4495  0.6383
19255TIP3   OH279255   1.347   2.058   3.920  0.0145 -0.6952 -0.7068
19255TIP3    H179256   1.438   2.033   3.937  0.7030  0.4585 -2.3120
19255TIP3    H279257   1.307   2.065   4.006  2.1564  1.1828  0.2531
19256TIP3   OH279258   2.812   3.761  13.865  0.2265 -0.0104 -0.0608
19256TIP3    H179259   2.843   3.721  13.947  0.5570 -0.5391 -0.4427
19256TIP3    H279260   2.754   3.695  13.826  0.0677  0.2420 -0.2598
19257TIP3   OH279261   0.102   5.277   0.137 -0.3721 -1.1075 -0.3093
19257TIP3    H179262   0.110   5.249   0.046  2.2980 -0.5466 -0.3127
19257TIP3    H279263   0.062   5.202   0.181 -1.7574 -1.3722 -1.8944
19258TIP3   OH279264   1.077   4.797  13.668  0.3713  0.4533  0.2927
19258TIP3    H179265   1.113   4.839  13.746 -0.0412  0.8186  0.2882
19258TIP3    H279266   0.983   4.792  13.685  0.3810 -0.2120  0.1703
19259TIP3   OH279267   1.893   0.001  15.436 -0.1564  0.0457 -0.3711
19259TIP3    H179268   1.978  -0.003  15.391 -0.1803  0.3022 -0.4407
19259TIP3    H279269   1.915  -0.000  15.529 -0.1399 -1.3035 -0.3679
19260TIP3   OH279270   6.265   4.530  12.522 -0.0494  0.0864  0.4546
19260TIP3    H179271   6.325   4.474  12.471  0.4277  0.0841  1.0034
19260TIP3    H279272   6.217   4.469  12.578 -0.5001  0.0977  0.0794
19261TIP3   OH279273   3.008   6.008  12.178  0.0952 -0.2525 -0.2234
19261TIP3    H179274   2.943   6.026  12.110  0.2863 -1.4553 -0.7442
19261TIP3    H279275   2.960   6.017  12.260 -0.0888  1.4357 -0.4721
19262TIP3   OH279276   2.465   5.760   3.840  0.0161  0.4376 -0.0747
19262TIP3    H179277   2.405   5.707   3.787 -1.2177  0.6481  1.0607
19262TIP3    H279278   2.543   5.771   3.785 -0.4984 -0.8616 -1.1148
19263TIP3   OH279279   3.192   2.298   5.209  0.4473 -0.2716 -0.1397
19263TIP3    H179280   3.253   2.267   5.142  1.3280 -1.5565  1.1887
19263TIP3    H279281   3.177   2.221   5.265 -2.0549  0.1344 -0.1578
19264TIP3   OH279282   0.475   4.855   2.742  0.6886 -0.3188 -0.1154
19264TIP3    H179283   0.546   4.913   2.713  0.2460  0.0570 -0.4572
19264TIP3    H279284   0.426   4.836   2.662 -0.5450  0.7188  0.3740
19265TIP3   OH279285   4.321   3.722  14.417  0.3057  0.3033  0.1694
19265TIP3    H179286   4.379   3.676  14.478 -1.2276 -0.9988  0.7181
19265TIP3    H279287   4.311   3.663  14.343 -1.1652 -0.0133  0.5815
19266TIP3   OH279288   0.445   6.456   5.001  0.0849  0.4254  0.0645
19266TIP3    H179289   0.359   6.468   4.960 -0.1422  0.8315  0.6585
19266TIP3    H279290   0.504   6.440   4.927 -0.7811 -1.6507 -0.2590
19267TIP3   OH279291   5.944   3.189  13.516  0.4824 -0.4513 -0.1500
19267TIP3    H179292   5.962   3.182  13.610  0.8478 -0.5901 -0.2275
19267TIP3    H279293   5.972   3.278  13.493  2.5933 -1.1600 -0.5743
19268TIP3   OH279294   4.190   4.467   2.363 -0.1458  0.5677  0.6810
19268TIP3    H179295   4.281   4.443   2.346  0.4241  2.3389  0.9660
19268TIP3    H279296   4.143   4.445   2.283  0.2413 -1.5981  0.9976
19269TIP3   OH279297   2.290   1.261  12.883  0.0675  0.3519  0.3931
19269TIP3    H179298   2.309   1.204  12.808 -1.2024 -0.2795  0.5326
19269TIP3    H279299   2.286   1.349  12.846  0.2049  0.1362 -0.1425
19270TIP3   OH279300   6.193   0.393   4.037 -0.5563  0.1012  0.0170
19270TIP3    H179301   6.138   0.317   4.059 -0.6279  0.5088  1.3215
19270TIP3    H279302   6.273   0.381   4.089 -0.9336  1.3624  0.9228
19271TIP3   OH279303   4.378   5.766  15.697 -1.2252 -0.4276  0.1363
19271TIP3    H179304   4.421   5.682  15.716 -1.1300 -0.2872  0.5302
19271TIP3    H279305   4.305   5.770  15.758  1.0229  1.5847  2.9821
19272TIP3   OH279306   2.208   5.996   4.967  0.2003  0.2718  0.0602
19272TIP3    H179307   2.286   5.992   5.023 -1.1149  2.9433  2.3066
19272TIP3    H279308   2.242   6.013   4.879  2.1740  2.2165  1.1097
19273TIP3   OH279309   3.486   4.333   2.396 -0.6831  0.5117 -0.1386
19273TIP3    H179310   3.433   4.389   2.339  0.5182  1.2717 -0.5410
19273TIP3    H279311   3.574   4.369   2.390 -0.3055 -0.1019  1.3178
19274TIP3   OH279312   5.186   3.237  13.830 -0.3613 -0.2189 -0.7313
19274TIP3    H179313   5.163   3.188  13.909 -0.0867 -1.1430 -1.2120
19274TIP3    H279314   5.269   3.200  13.802 -0.0698  0.6385 -1.0246
19275TIP3   OH279315   3.323   6.368   2.649  0.7147  0.8004 -0.5949
19275TIP3    H179316   3.260   6.377   2.577  0.7318  2.4824 -0.4486
19275TIP3    H279317   3.281   6.309   2.711 -0.8042  1.9641 -0.4457
19276TIP3   OH279318   6.582   4.044  13.154 -0.1756  0.0575 -0.6440
19276TIP3    H179319   6.515   4.021  13.089  0.9612  0.4016 -1.9900
19276TIP3    H279320   6.571   3.980  13.224 -3.4214  1.4640  0.3396
19277TIP3   OH279321   4.132   4.985   4.290 -0.3497  0.2362  0.0570
19277TIP3    H179322   4.181   5.021   4.217 -1.1826 -0.7115 -1.0088
19277TIP3    H279323   4.069   5.053   4.313 -1.6703 -0.3252 -1.7007
19278TIP3   OH279324   4.100   3.580  16.098 -0.3416  0.1092 -0.2887
19278TIP3    H179325   4.136   3.518  16.035 -1.4069 -0.4143 -0.4122
19278TIP3    H279326   4.038   3.528  16.150  0.2200  0.6165  0.9432
19279TIP3   OH279327   5.074   3.148   0.861 -0.2726 -0.7638 -0.2484
19279TIP3    H179328   4.981   3.164   0.845 -0.2799  0.1004  0.5662
19279TIP3    H279329   5.119   3.218   0.813 -0.1011 -0.5396  0.2353
19280TIP3   OH279330   1.943   5.805  15.260 -0.4003 -0.5790 -0.9018
19280TIP3    H179331   1.882   5.876  15.282 -0.3096 -0.6883 -0.2998
19280TIP3    H279332   1.975   5.773  15.344  2.6105  1.2852 -1.1918
19281TIP3   OH279333   0.136   3.820  13.228 -0.0308  0.1544 -0.2267
19281TIP3    H179334   0.120   3.829  13.135  0.8153  1.0160 -0.3093
19281TIP3    H279335   0.094   3.738  13.252  0.3850 -0.4560 -1.5177
19282TIP3   OH279336   3.827   0.568   5.232 -0.1003 -0.1278  0.3251
19282TIP3    H179337   3.738   0.583   5.265  0.0644 -0.7482  1.0723
19282TIP3    H279338   3.883   0.608   5.299  0.1793  1.0368 -0.5666
19283TIP3   OH279339   1.754   6.380   5.436  0.2684 -0.3893 -0.9597
19283TIP3    H179340   1.715   6.465   5.420  2.8193  0.8956 -0.9165
19283TIP3    H279341   1.814   6.367   5.363 -1.9366 -3.4528 -2.4224
19284TIP3   OH279342   1.294   3.195   4.015 -0.1267  0.2965  0.0599
19284TIP3    H179343   1.249   3.125   4.061  0.6659  0.4932  1.1772
19284TIP3    H279344   1.247   3.204   3.932  0.3173 -2.1604 -0.5260
19285TIP3   OH279345   4.419   5.912   4.272  0.3938  0.5744 -0.1572
19285TIP3    H179346   4.354   5.842   4.263  1.0734  0.1157 -1.7200
19285TIP3    H279347   4.384   5.984   4.219 -0.0391  1.2662  1.0168
19286TIP3   OH279348   6.407   3.592   1.686  0.5287  0.1917  0.1893
19286TIP3    H179349   6.410   3.516   1.628  0.0479  1.0025 -0.9388
19286TIP3    H279350   6.419   3.556   1.774 -2.2856 -1.5454  0.0027
19287TIP3   OH279351   5.469   2.383  16.407  0.2907  0.1777  0.2149
19287TIP3    H179352   5.464   2.307  16.465 -1.1076 -1.2094 -1.6251
19287TIP3    H279353   5.385   2.428  16.419  0.2561  0.2413 -0.2562
19288TIP3   OH279354   1.639   0.596   5.772  0.2300  0.6963  0.3814
19288TIP3    H179355   1.718   0.602   5.825 -1.2713  1.6216  2.6497
19288TIP3    H279356   1.583   0.534   5.820 -0.8654  0.9195 -0.5772
19289TIP3   OH279357   1.909   5.396   5.676 -0.1497  0.0388  0.3440
19289TIP3    H179358   1.964   5.320   5.699  1.0769  0.9483  0.4918
19289TIP3    H279359   1.820   5.362   5.679  0.2238 -0.9426  2.3657
19290TIP3   OH279360   4.032   6.363   0.453 -0.5218  0.5838 -0.4412
19290TIP3    H179361   3.991   6.285   0.489 -2.1531  2.3164  1.7464
19290TIP3    H279362   4.114   6.331   0.415 -1.0039 -2.1242  0.5541
19291TIP3   OH279363   3.932   5.195  14.569  0.2556  0.0802  0.3798
19291TIP3    H179364   3.924   5.254  14.644 -0.5098  0.4623  0.0058
19291TIP3    H279365   3.932   5.107  14.607 -0.3461  0.2651  0.8066
19292TIP3   OH279366   2.073   3.082   5.086 -0.2064  0.3826 -0.2296
19292TIP3    H179367   2.024   3.163   5.075 -1.5357 -0.6748 -3.4177
19292TIP3    H279368   2.012   3.014   5.057  1.1577 -1.6879  1.4864
19293TIP3   OH279369   5.147   6.324  15.448 -0.3635 -0.1049 -0.1929
19293TIP3    H179370   5.160   6.240  15.402 -0.4230  0.1112 -0.6059
19293TIP3    H279371   5.069   6.310  15.501 -0.9582  0.0095 -1.0279
19294TIP3   OH279372   1.735   3.219  13.769 -0.5126  0.0274 -0.5337
19294TIP3    H179373   1.694   3.228  13.856  0.1717  2.2782 -0.3833
19294TIP3    H279374   1.730   3.125  13.751 -1.4822 -0.4024  1.5401
19295TIP3   OH279375   4.190   1.609   3.038  0.0209 -0.3158 -0.0195
19295TIP3    H179376   4.111   1.571   3.076 -0.4852  0.7938  0.0715
19295TIP3    H279377   4.256   1.539   3.045 -1.4148 -1.9431 -1.8436
19296TIP3   OH279378   4.456   3.229  13.018 -0.4456  0.0271  0.6865
19296TIP3    H179379   4.399   3.294  12.977  0.5218  1.7205  1.9209
19296TIP3    H279380   4.528   3.218  12.957 -0.2967  0.5978  0.7558
19297TIP3   OH279381   3.236   1.601   1.741 -0.1997  0.0274 -0.0271
19297TIP3    H179382   3.186   1.560   1.671  1.5021 -0.2165 -1.1554
19297TIP3    H279383   3.228   1.540   1.815  1.0742 -1.6802 -1.2106
19298TIP3   OH279384   2.444   0.657   4.745 -0.1494  0.2655  0.1247
19298TIP3    H179385   2.419   0.639   4.835  0.3520  0.3296  0.2782
19298TIP3    H279386   2.388   0.599   4.693  0.5987 -0.8892  0.5501
19299TIP3   OH279387   5.491   2.689   5.898 -0.3544 -0.4615 -0.2554
19299TIP3    H179388   5.582   2.665   5.879 -0.5572 -0.9789 -0.5766
19299TIP3    H279389   5.474   2.764   5.841 -0.1181 -0.3319 -0.1592
19300TIP3   OH279390   2.734   4.236   1.462 -0.0736  0.5789 -0.0182
19300TIP3    H179391   2.784   4.311   1.495  0.4226 -0.5190  1.8739
19300TIP3    H279392   2.642   4.260   1.478  0.0417  1.0636 -0.0612
19301TIP3   OH279393   2.060   2.063   3.127 -0.0484  0.2224 -0.5073
19301TIP3    H179394   2.070   2.131   3.193 -1.7095  1.4299 -1.4283
19301TIP3    H279395   2.062   1.981   3.176 -0.7574  1.0653  0.9821
19302TIP3   OH279396   1.276   0.142  15.697 -0.3570 -0.3007 -0.0679
19302TIP3    H179397   1.255   0.146  15.603 -0.2066  1.7819 -0.0551
19302TIP3    H279398   1.359   0.188  15.705 -0.5218 -0.1881  1.1358
19303TIP3   OH279399   4.193   1.362   3.403  0.1869 -0.9282 -0.2515
19303TIP3    H179400   4.162   1.384   3.491 -1.6370  0.9415 -1.2775
19303TIP3    H279401   4.274   1.413   3.393 -1.2912  1.4732 -0.7318
19304TIP3   OH279402   4.788   6.125  14.070  0.1637  0.4928 -0.1380
19304TIP3    H179403   4.848   6.176  14.125  1.4899 -1.9622  0.8247
19304TIP3    H279404   4.845   6.069  14.018 -1.2398  0.0724 -1.2814
19305TIP3   OH279405   4.381   2.325  14.145  0.1059 -0.6720 -0.3674
19305TIP3    H179406   4.391   2.230  14.137  1.1065 -0.4412 -2.0693
19305TIP3    H279407   4.366   2.356  14.056 -0.4147  0.7653  0.1891
19306TIP3   OH279408   4.970   6.497   3.145  0.2009 -0.7326 -0.1225
19306TIP3    H179409   4.941   6.580   3.107 -0.2547 -0.4013  0.9205
19306TIP3    H279410   5.040   6.467   3.087 -1.8582 -1.3106 -2.4640
19307TIP3   OH279411   3.181   2.216  15.788  0.4640  0.1786 -0.3354
19307TIP3    H179412   3.198   2.157  15.715 -1.0889 -0.7041 -0.0360
19307TIP3    H279413   3.201   2.303  15.755  1.3183 -0.3621 -1.2845
19308TIP3   OH279414   6.633   2.995   6.287 -0.0984  0.0380  0.2731
19308TIP3    H179415   6.605   2.961   6.372 -1.3067  0.5806  0.1105
19308TIP3    H279416   6.565   2.966   6.226 -0.0317  0.9378 -0.2418
19309TIP3   OH279417   3.196   3.091  11.478  0.1196 -0.0866 -0.4525
19309TIP3    H179418   3.217   3.171  11.526 -0.2850  1.0663 -2.1001
19309TIP3    H279419   3.235   3.105  11.392  0.8295 -2.0824 -0.4813
19310TIP3   OH279420   6.597   2.168  14.184  0.0729 -0.4342  0.6545
19310TIP3    H179421   6.679   2.217  14.193  0.2814 -0.8733  1.1957
19310TIP3    H279422   6.600   2.103  14.254 -1.3289  0.3772  1.5239
19311TIP3   OH279423   5.568   4.846  12.828  0.1917  0.2655 -0.6178
19311TIP3    H179424   5.594   4.794  12.752  0.7711  1.2032 -1.0799
19311TIP3    H279425   5.556   4.934  12.794 -1.1964  0.3670  0.0741
19312TIP3   OH279426   3.813   0.594   2.936 -0.0686  0.1925 -0.2425
19312TIP3    H179427   3.905   0.612   2.916  0.1635 -0.5098  0.1405
19312TIP3    H279428   3.767   0.602   2.853  0.2659  1.0042 -0.3534
19313TIP3   OH279429   3.357   0.607   0.938  0.6431  0.0618 -0.1388
19313TIP3    H179430   3.284   0.580   0.883  0.5992  0.6657 -0.3897
19313TIP3    H279431   3.435   0.580   0.890  0.6301  1.3355 -0.9370
19314TIP3   OH279432   2.145   2.156  11.302  0.0352 -0.3565 -0.1577
19314TIP3    H179433   2.123   2.108  11.382  2.4761  0.4243  1.0877
19314TIP3    H279434   2.062   2.166  11.256 -1.0756 -2.9885  1.0498
19315TIP3   OH279435   0.889   4.313   2.575 -0.1007 -0.2223  0.2743
19315TIP3    H179436   0.863   4.328   2.484 -0.9215  1.8960  0.8041
19315TIP3    H279437   0.985   4.312   2.572 -0.0619  1.5545 -0.4235
19316TIP3   OH279438   6.672   3.269   2.160  0.1154 -0.1812 -0.4981
19316TIP3    H179439   6.738   3.299   2.098  0.1329 -0.8195 -0.7973
19316TIP3    H279440   6.622   3.202   2.112 -0.9838  0.5443 -0.3992
19317TIP3   OH279441   1.400   4.114   1.728  0.0305  0.2281 -0.3415
19317TIP3    H179442   1.449   4.185   1.769 -0.1001 -0.0616  0.3274
19317TIP3    H279443   1.308   4.140   1.737  0.0176  0.5226 -1.1382
19318TIP3   OH279444   4.850   3.804  13.798  0.4966  0.0202  0.5278
19318TIP3    H179445   4.834   3.842  13.884 -1.2728  0.0854  0.2189
19318TIP3    H279446   4.943   3.781  13.798  1.0973  2.1993  1.5733
19319TIP3   OH279447   4.010   5.370   3.920  0.2381 -0.2184  0.0978
19319TIP3    H179448   4.092   5.374   3.872 -1.2734  1.2959 -2.5820
19319TIP3    H279449   3.964   5.294   3.885 -0.4998  0.3550 -0.2107
19320TIP3   OH279450   6.352   3.574   3.089 -0.1296  0.6208  0.3089
19320TIP3    H179451   6.397   3.629   3.025 -0.2076  0.5135  0.1595
19320TIP3    H279452   6.422   3.524   3.131 -0.2301 -0.7752 -1.0926
19321TIP3   OH279453   5.404   4.318   3.941 -0.1745 -0.5352 -0.0058
19321TIP3    H179454   5.386   4.245   3.882  1.3542 -0.9460 -0.0079
19321TIP3    H279455   5.380   4.286   4.028  0.5884 -1.0793  0.0058
19322TIP3   OH279456   1.349   0.593   0.085  0.7841  0.1787  0.1720
19322TIP3    H179457   1.400   0.672   0.104  0.1629  0.4794  0.6158
19322TIP3    H279458   1.258   0.620   0.097  0.6339 -1.1452  2.3912
19323TIP3   OH279459   5.078   4.108  16.986  0.0928 -0.0527 -0.1330
19323TIP3    H179460   5.069   4.185  17.042 -0.7491  0.1422 -0.5292
19323TIP3    H279461   5.080   4.034  17.047  0.2171  0.2263  0.2083
19324TIP3   OH279462   4.950   5.623   4.834  0.5611  0.3340 -0.1471
19324TIP3    H179463   5.026   5.670   4.867  0.6824 -0.1823  0.3163
19324TIP3    H279464   4.979   5.582   4.753  0.2272  1.7101 -1.0076
19325TIP3   OH279465   2.147   2.443   5.023 -0.6464  0.0650  0.2079
19325TIP3    H179466   2.164   2.352   5.048 -0.0315  0.2427  0.4247
19325TIP3    H279467   2.053   2.455   5.042 -0.9118 -0.7412 -0.5095
19326TIP3   OH279468   6.493   4.227   4.785 -0.1164  0.4937 -0.6165
19326TIP3    H179469   6.466   4.241   4.875 -1.3664 -1.5728 -0.6009
19326TIP3    H279470   6.577   4.183   4.791 -0.7563 -0.7553 -0.3675
19327TIP3   OH279471   1.305   5.328  13.075 -0.3852  0.1203  0.4197
19327TIP3    H179472   1.292   5.345  12.982 -0.6198  0.9316  0.5892
19327TIP3    H279473   1.328   5.235  13.080 -1.4602 -0.2090 -0.3486
19328TIP3   OH279474   1.501   5.619   5.114  0.3104  0.1471  0.3361
19328TIP3    H179475   1.501   5.532   5.153 -1.4829  0.6736  1.5893
19328TIP3    H279476   1.591   5.649   5.124  1.0782 -1.6983 -0.5197
19329TIP3   OH279477   4.049   4.788   5.410 -0.3077  0.3007 -0.1738
19329TIP3    H179478   4.121   4.827   5.460 -1.5839 -0.0474  2.0643
19329TIP3    H279479   4.055   4.829   5.324 -0.1724  3.7476  1.3132
19330TIP3   OH279480   0.220   3.800   0.852 -0.2742  0.0042  0.0670
19330TIP3    H179481   0.269   3.746   0.790 -1.2873 -0.0043 -0.7547
19330TIP3    H279482   0.129   3.788   0.827 -0.8714 -1.1871  2.5266
19331TIP3   OH279483   3.263   5.896   0.057  0.1729 -0.5046 -0.2461
19331TIP3    H179484   3.202   5.892   0.130  1.2568 -3.0645  0.6643
19331TIP3    H279485   3.309   5.979   0.067 -1.2403  0.1950  0.6386
19332TIP3   OH279486   1.889   2.720   0.195  0.1481  0.1905  0.0852
19332TIP3    H179487   1.984   2.722   0.180  0.0568 -2.1318 -1.3139
19332TIP3    H279488   1.880   2.693   0.286  0.8025  1.2774  0.4953
19333TIP3   OH279489   1.710   0.771   4.770  0.5437  0.4077  0.4104
19333TIP3    H179490   1.789   0.818   4.797  1.8831 -1.3738 -0.1399
19333TIP3    H279491   1.638   0.816   4.814  1.8871  1.9784  1.0950
19334TIP3   OH279492   4.036   2.662   0.695  0.2062  0.7478 -0.2301
19334TIP3    H179493   4.113   2.604   0.692  0.5954  1.1171  1.4469
19334TIP3    H279494   4.061   2.737   0.641  1.2628  1.1058  0.7143
19335TIP3   OH279495   2.366   4.215  14.483  0.1743  0.8427 -0.0282
19335TIP3    H179496   2.458   4.218  14.458  0.0815  2.6151 -0.3072
19335TIP3    H279497   2.367   4.228  14.578  0.2220  0.5596  0.0107
19336TIP3   OH279498   2.652   2.470   3.634  0.3689  0.0594  0.3790
19336TIP3    H179499   2.698   2.459   3.550 -1.1181  1.8885 -0.7637
19336TIP3    H279500   2.718   2.510   3.691  0.9135  0.4073 -0.4674
19337TIP3   OH279501   2.387   0.302   1.654 -0.1250  0.4350  0.6720
19337TIP3    H179502   2.408   0.302   1.747  0.6461 -3.3021  0.6202
19337TIP3    H279503   2.472   0.300   1.610 -0.5019  0.4461 -0.0711
19338TIP3   OH279504   1.076   6.553   1.139 -0.4128 -0.1049 -0.0150
19338TIP3    H179505   1.023   6.475   1.157 -0.9831  0.6334  1.7898
19338TIP3    H279506   1.103   6.584   1.226  0.1934  1.4351 -0.7143
19339TIP3   OH279507   5.316   2.037  13.385 -0.1516 -0.1890  0.1656
19339TIP3    H179508   5.403   2.018  13.352  0.4849 -1.1350  2.2163
19339TIP3    H279509   5.318   2.130  13.407  0.8473 -0.5003  1.5022
19340TIP3   OH279510   3.959   1.520   0.275 -0.2501 -0.3120  0.3609
19340TIP3    H179511   3.892   1.584   0.296 -0.2572  0.1569 -0.9683
19340TIP3    H279512   3.954   1.455   0.346 -2.1743 -0.3510  0.2482
19341TIP3   OH279513   5.202   4.613   1.502  0.0021 -0.2167 -1.0673
19341TIP3    H179514   5.223   4.688   1.558 -1.0105  0.2794 -1.3140
19341TIP3    H279515   5.232   4.537   1.552  0.2577  0.2990 -0.4131
19342TIP3   OH279516   0.021   5.524  17.022  0.4410  0.0403 -0.4125
19342TIP3    H179517  -0.019   5.572  16.949  0.0735  0.3210 -0.0364
19342TIP3    H279518   0.115   5.528  17.004  0.3598  0.1571 -0.8366
19343TIP3   OH279519   3.201   5.588   5.210  0.1939  0.3930 -0.2693
19343TIP3    H179520   3.268   5.656   5.220  0.0102  0.6621 -0.8241
19343TIP3    H279521   3.119   5.637   5.204 -0.0510  0.0643  0.3668
19344TIP3   OH279522   3.876   2.770   1.590 -0.6158 -0.5343 -0.3426
19344TIP3    H179523   3.947   2.812   1.639 -1.0899 -0.9287  0.7162
19344TIP3    H279524   3.880   2.678   1.617 -2.8615 -0.1973  1.4601
19345TIP3   OH279525   3.093   2.822   6.139  0.0608 -0.3968 -0.1874
19345TIP3    H179526   3.125   2.870   6.063  0.8170  0.9649  0.9281
19345TIP3    H279527   3.008   2.862   6.158  0.2367 -0.1747  0.1473
19346TIP3   OH279528   0.758   5.789  11.068 -0.1369 -0.2602 -0.2985
19346TIP3    H179529   0.696   5.729  11.109 -0.1321 -0.0617  0.0030
19346TIP3    H279530   0.832   5.734  11.043 -0.9225 -0.7176 -1.7394
19347TIP3   OH279531   3.738   5.012   5.474 -0.3651 -0.0439 -0.8185
19347TIP3    H179532   3.688   5.038   5.396 -1.6469  0.1929  0.0556
19347TIP3    H279533   3.684   4.945   5.515  1.2075 -1.5499 -1.1184
19348TIP3   OH279534   1.698   6.823  14.975 -0.7847  0.3154 -0.5835
19348TIP3    H179535   1.788   6.853  14.963 -0.4529 -0.7900 -1.0720
19348TIP3    H279536   1.662   6.879  15.044  0.2805  0.7555 -0.3692
19349TIP3   OH279537   5.500   5.024  13.134 -0.2929  0.3453  0.4187
19349TIP3    H179538   5.572   4.961  13.139  0.5110  1.1324 -0.7416
19349TIP3    H279539   5.421   4.972  13.148  0.3953 -0.8088  0.1018
19350TIP3   OH279540   2.634   4.375  13.195  0.1368  0.2592 -0.0864
19350TIP3    H179541   2.683   4.331  13.265 -0.5090  1.6510  1.2914
19350TIP3    H279542   2.682   4.457  13.180 -1.4544  1.4395  0.9873
19351TIP3   OH279543   2.104   6.690  11.477 -0.0728  0.4195  0.5310
19351TIP3    H179544   2.113   6.715  11.385  0.2773  2.3519  1.0398
19351TIP3    H279545   2.159   6.612  11.486  1.5602  1.3833 -0.4886
19352TIP3   OH279546   1.016   5.071  15.550 -0.5174 -0.1109 -0.0690
19352TIP3    H179547   1.091   5.128  15.531 -2.3225  2.2941 -0.5413
19352TIP3    H279548   1.028   5.045  15.641  1.2606 -0.4558 -0.3577
19353TIP3   OH279549   1.271   3.975  16.520 -0.9663 -0.4019 -0.0642
19353TIP3    H179550   1.351   3.936  16.485 -0.1964  1.3605 -0.3470
19353TIP3    H279551   1.289   3.989  16.612 -1.2372 -0.6892  0.0338
19354TIP3   OH279552   0.650   3.917   1.489 -0.1231  0.0928  0.2319
19354TIP3    H179553   0.685   3.853   1.428 -1.3047  0.1966 -0.5923
19354TIP3    H279554   0.681   3.888   1.575 -2.1080 -2.6674  0.1378
19355TIP3   OH279555   2.703   0.295  12.205 -0.1279  0.0176  0.3707
19355TIP3    H179556   2.653   0.372  12.232 -1.2004 -0.4263 -0.2876
19355TIP3    H279557   2.676   0.226  12.266 -2.2866 -0.8920 -1.4999
19356TIP3   OH279558   6.791   2.782  13.847 -0.6719  0.6571 -0.5051
19356TIP3    H179559   6.782   2.710  13.910 -0.7216  0.4406 -0.7590
19356TIP3    H279560   6.809   2.858  13.901 -3.1727  0.9856 -0.0012
19357TIP3   OH279561   5.850   2.555   0.746  0.4102  0.1650 -0.2868
19357TIP3    H179562   5.923   2.566   0.806  0.1853 -0.6723  0.1607
19357TIP3    H279563   5.788   2.499   0.794 -0.4208  0.6728 -0.7420
19358TIP3   OH279564   6.327   6.831  13.075  0.2796 -0.4386  0.5782
19358TIP3    H179565   6.422   6.819  13.073  0.4663  0.8927 -0.1736
19358TIP3    H279566   6.292   6.755  13.029  0.9842 -0.8923  0.7805
19359TIP3   OH279567   6.189   5.504  16.714 -0.0946  0.1285 -0.4115
19359TIP3    H179568   6.166   5.538  16.801 -0.9790 -0.2308 -0.4881
19359TIP3    H279569   6.284   5.510  16.710 -0.1800  3.0763 -0.6168
19360TIP3   OH279570   6.806   5.181  13.279  0.0228 -0.4768 -0.0493
19360TIP3    H179571   6.880   5.121  13.273  0.4738  0.1974 -2.1118
19360TIP3    H279572   6.847   5.268  13.285 -0.6064 -0.1749 -0.1109
19361TIP3   OH279573   0.407   1.296  15.913  0.3705  0.1397  0.5285
19361TIP3    H179574   0.349   1.302  15.837  0.0383 -0.9036  0.6814
19361TIP3    H279575   0.416   1.386  15.944  0.2575  0.5380 -0.5543
19362TIP3   OH279576   3.681   0.764  10.819  0.1456 -0.5235 -0.0332
19362TIP3    H179577   3.737   0.723  10.885 -1.6113 -0.2657  1.6981
19362TIP3    H279578   3.625   0.693  10.787 -2.4058  0.1895  2.4510
19363TIP3   OH279579   5.337   2.823   0.521  0.5654 -0.3854 -0.1696
19363TIP3    H179580   5.389   2.782   0.591  1.1235  2.2629  1.0823
19363TIP3    H279581   5.393   2.891   0.485 -0.0171 -1.1538 -2.7685
19364TIP3   OH279582   5.394   1.657  12.650  0.2603 -0.1084 -0.1558
19364TIP3    H179583   5.319   1.704  12.686  1.1213  1.7851 -0.6735
19364TIP3    H279584   5.365   1.566  12.642 -2.9417  0.9568 -2.8666
19365TIP3   OH279585   5.306   0.728  12.854  0.0134 -0.0612 -0.2686
19365TIP3    H179586   5.240   0.663  12.830  0.8231 -0.9593 -0.1550
19365TIP3    H279587   5.390   0.684  12.835  0.5910  0.6406  0.5906
19366TIP3   OH279588   2.930   3.164   6.134  0.3068 -0.2651  0.7089
19366TIP3    H179589   3.018   3.168   6.170 -0.0498  0.0644  1.5652
19366TIP3    H279590   2.891   3.087   6.175  0.6945 -1.3673 -0.8702
19367TIP3   OH279591   2.520   1.792  13.370  0.4041  0.2356  0.2740
19367TIP3    H179592   2.600   1.844  13.358  0.7698 -0.4753 -0.4804
19367TIP3    H279593   2.548   1.715  13.419  0.5370 -0.8120 -1.3842
19368TIP3   OH279594   5.284   6.235  11.577 -0.7425  0.0922  0.2603
19368TIP3    H179595   5.194   6.237  11.544 -0.4810 -1.9364 -0.7513
19368TIP3    H279596   5.334   6.286  11.514 -1.0648  0.7170  0.4959
19369TIP3   OH279597   2.774   3.716   3.255 -0.0060 -0.7699  0.4905
19369TIP3    H179598   2.830   3.666   3.315 -1.0078 -1.0073  1.2566
19369TIP3    H279599   2.735   3.650   3.198 -0.8108 -0.8045  1.0667
19370TIP3   OH279600   3.994   3.670   2.880  0.1560  0.5857  0.4515
19370TIP3    H179601   4.079   3.651   2.841 -0.4838  1.5564 -1.5544
19370TIP3    H279602   3.939   3.595   2.855 -0.4171  1.4943 -1.0953
19371TIP3   OH279603   3.635   6.735  12.118 -0.2683  0.1438  0.4056
19371TIP3    H179604   3.610   6.783  12.197 -0.3612 -0.1586  0.5597
19371TIP3    H279605   3.585   6.654  12.122 -1.0423  0.5586 -0.4756
19372TIP3   OH279606   6.480   3.845  16.292 -0.1639 -0.4024 -0.3947
19372TIP3    H179607   6.388   3.820  16.286 -0.4448  0.8371 -1.5366
19372TIP3    H279608   6.521   3.807  16.215  0.6979 -2.3861  0.9354
19373TIP3   OH279609   2.057   6.252   4.961 -0.6429 -0.2425  0.1146
19373TIP3    H179610   2.093   6.265   4.874 -0.5156  1.1206  0.3498
19373TIP3    H279611   2.104   6.176   4.996  0.3061  0.0644 -0.4772
19374TIP3   OH279612   3.154   6.186   2.809  0.4478  0.1111 -0.4548
19374TIP3    H179613   3.181   6.171   2.899 -1.3399  2.7276  0.6127
19374TIP3    H279614   3.064   6.216   2.815  0.6747  1.5655 -3.0086
19375TIP3   OH279615   2.350   2.030  10.454 -0.7128 -0.7998  0.0594
19375TIP3    H179616   2.445   2.024  10.445 -0.6153 -0.8979  1.0902
19375TIP3    H279617   2.332   2.123  10.469 -0.7174 -0.8621  0.4595
19376TIP3   OH279618   4.197   2.608  12.091  0.1895  0.4680  0.3510
19376TIP3    H179619   4.216   2.610  12.184  0.9458  0.0253  0.2166
19376TIP3    H279620   4.204   2.516  12.066  1.1604  0.7095 -0.3549
19377TIP3   OH279621   0.819   1.074  12.969  0.5703 -0.0198  0.5210
19377TIP3    H179622   0.732   1.059  12.933  1.4462 -0.8021 -1.3693
19377TIP3    H279623   0.812   1.046  13.061 -0.7984 -1.3581  0.0459
19378TIP3   OH279624   0.176   3.138  14.216 -0.2802  0.4094 -0.2413
19378TIP3    H179625   0.134   3.186  14.145 -0.2677  0.9191  0.0992
19378TIP3    H279626   0.132   3.167  14.296 -1.2595 -1.1993 -0.1606
19379TIP3   OH279627   6.323   1.150   2.320 -0.1895 -0.6210 -0.3480
19379TIP3    H179628   6.356   1.234   2.287 -1.0737 -0.2526 -0.3097
19379TIP3    H279629   6.312   1.096   2.242 -0.7246 -0.3051 -0.4951
19380TIP3   OH279630   6.115   1.915   6.160  0.5088  0.5320 -0.0727
19380TIP3    H179631   6.161   1.916   6.076 -1.4281 -2.0853 -1.2979
19380TIP3    H279632   6.029   1.952   6.142 -0.7814 -2.1433  0.0638
19381TIP3   OH279633   0.929   0.889   4.703 -0.3914  0.1551 -0.0015
19381TIP3    H179634   0.878   0.837   4.639  2.1415 -0.0907 -1.9825
19381TIP3    H279635   0.975   0.823   4.755 -2.7735  0.3409  2.5397
19382TIP3   OH279636   3.941   4.604  15.996  0.0098  0.2884  0.3696
19382TIP3    H179637   3.907   4.690  16.018 -0.8704  0.7272 -2.3196
19382TIP3    H279638   3.919   4.549  16.071 -2.6040  1.6284  0.7033
19383TIP3   OH279639   5.492   2.411   5.455  0.1735  0.7524  1.0777
19383TIP3    H179640   5.450   2.346   5.512 -0.5294 -1.0099 -1.2920
19383TIP3    H279641   5.419   2.454   5.411  0.7088  0.2551 -0.3481
19384TIP3   OH279642   6.468   4.330   5.522  0.1850 -0.0389  0.3687
19384TIP3    H179643   6.559   4.343   5.497  0.3714 -0.2899  0.8987
19384TIP3    H279644   6.420   4.331   5.439  0.8307 -1.3006 -0.0512
19385TIP3   OH279645   6.230   1.912   5.253  0.3262  0.3532 -0.1705
19385TIP3    H179646   6.245   2.007   5.261  1.1684  0.1083  1.5924
19385TIP3    H279647   6.144   1.905   5.211 -1.5885  1.9961  3.0660
19386TIP3   OH279648   1.956   6.623   6.133  0.3175 -0.1830  0.0621
19386TIP3    H179649   2.023   6.594   6.195  0.5999 -1.2607 -0.7075
19386TIP3    H279650   1.967   6.718   6.128  0.0045 -0.0141  1.9587
19387TIP3   OH279651   2.235   1.899  14.703 -0.2121  0.2636  0.2889
19387TIP3    H179652   2.171   1.939  14.644 -2.3824 -0.7381  1.8047
19387TIP3    H279653   2.313   1.886  14.650 -0.9464  2.3055 -1.4434
19388TIP3   OH279654   5.817   4.731  14.705 -0.9010 -0.2412 -0.0930
19388TIP3    H179655   5.749   4.672  14.671 -3.1016  0.5284  2.6367
19388TIP3    H279656   5.772   4.816  14.714  0.8594  0.6668  0.5091
19389TIP3   OH279657   5.172   5.667   2.935 -0.7598 -0.4102 -0.4163
19389TIP3    H179658   5.119   5.729   2.985  1.3842  0.5681  0.8095
19389TIP3    H279659   5.236   5.723   2.890  2.2220 -1.6553  1.9070
19390TIP3   OH279660   1.729   2.898   2.935  0.1249  0.0926 -0.1699
19390TIP3    H179661   1.658   2.962   2.942  0.1117  0.1158 -0.4971
19390TIP3    H279662   1.730   2.853   3.020 -0.8710 -0.5318 -0.4789
19391TIP3   OH279663   3.991   1.405  13.827 -0.7158  0.0256 -0.1542
19391TIP3    H179664   3.906   1.388  13.868  0.1615  0.6084  2.0616
19391TIP3    H279665   4.044   1.329  13.850  0.5121  1.4304  2.0034
19392TIP3   OH279666   0.284   2.314  15.312  0.1720 -0.2834  0.0637
19392TIP3    H179667   0.328   2.304  15.397 -0.9373  1.5966  0.9387
19392TIP3    H279668   0.354   2.308  15.248  1.2433 -0.4023  1.2036
19393TIP3   OH279669   5.540   2.738  14.112  0.4950  0.0174  0.4564
19393TIP3    H179670   5.589   2.815  14.140 -1.4018  0.9980  1.2525
19393TIP3    H279671   5.572   2.719  14.024  0.5368  2.1239 -0.0139
19394TIP3   OH279672   6.410   2.263  15.392  0.3554 -0.7793 -0.3841
19394TIP3    H179673   6.347   2.243  15.461 -1.1876  0.6207 -1.3286
19394TIP3    H279674   6.365   2.242  15.311  1.6800 -1.1811 -1.0445
19395TIP3   OH279675   0.090   4.830   5.850  0.5911 -0.5481 -0.0461
19395TIP3    H179676   0.036   4.900   5.886  1.1864  0.6640 -1.4083
19395TIP3    H279677   0.103   4.770   5.923  2.0140  1.9332  1.9203
19396TIP3   OH279678   3.817   0.993   2.300 -0.2451 -0.3523  0.0368
19396TIP3    H179679   3.874   1.012   2.225  1.3858 -0.2875  1.2326
19396TIP3    H279680   3.812   1.075   2.349 -0.0195 -0.7857  0.8063
19397TIP3   OH279681   2.363   1.924   3.753  0.2757  0.0084  0.4650
19397TIP3    H179682   2.317   1.973   3.821 -0.2377  0.7368 -0.3818
19397TIP3    H279683   2.371   1.986   3.680  0.2579 -0.9345 -0.3587
19398TIP3   OH279684   4.485   1.353   3.877  0.1521  0.4145  0.2061
19398TIP3    H179685   4.436   1.397   3.807  0.4081  2.0506  0.9999
19398TIP3    H279686   4.424   1.288   3.911 -0.0389 -0.3039 -1.4086
19399TIP3   OH279687   1.649   6.140  11.665  0.3055 -0.3090 -0.5608
19399TIP3    H179688   1.673   6.221  11.620  1.0343 -0.9263 -1.3271
19399TIP3    H279689   1.554   6.145  11.676  0.6445  2.0781  2.2756
19400TIP3   OH279690   6.059   3.542  14.548 -0.6383 -0.5112 -0.4897
19400TIP3    H179691   6.070   3.616  14.488  1.1843  0.0987  0.5134
19400TIP3    H279692   5.965   3.523  14.546 -1.6705  3.4499  1.1055
19401TIP3   OH279693   4.971   4.817   5.768 -0.2435 -0.1911 -0.4021
19401TIP3    H179694   4.996   4.878   5.837 -0.9534 -1.0547  0.6554
19401TIP3    H279695   5.004   4.856   5.687  0.2062  1.0637  0.3732
19402TIP3   OH279696   6.610   3.335   5.283  0.0588  0.2270  0.2287
19402TIP3    H179697   6.701   3.328   5.313  0.3524 -0.7867 -0.8415
19402TIP3    H279698   6.580   3.245   5.276 -0.9292  0.5466  0.2455
19403TIP3   OH279699   6.068   4.066  11.762 -0.4727 -0.2659 -0.3167
19403TIP3    H179700   6.046   4.075  11.854 -0.8379 -1.0275 -0.3195
19403TIP3    H279701   6.072   4.156  11.729 -2.5060 -0.0221 -0.0531
19404TIP3   OH279702   4.660   2.701   3.952  0.2539  0.3999  0.5212
19404TIP3    H179703   4.728   2.732   3.893  0.0703  2.0383  1.1042
19404TIP3    H279704   4.613   2.634   3.902  1.0490  0.6666 -0.6156
19405TIP3   OH279705   2.342   3.522  16.128 -0.0426  0.0371  0.1331
19405TIP3    H179706   2.393   3.533  16.208 -0.8600  2.6017  0.3876
19405TIP3    H279707   2.404   3.540  16.057 -0.0138  0.7574  0.3347
19406TIP3   OH279708   2.872   4.983  11.941 -0.6314 -0.5503  0.3186
19406TIP3    H179709   2.959   5.002  11.977 -1.1993 -0.0182  1.4627
19406TIP3    H279710   2.823   5.065  11.953 -0.8387 -0.3051 -1.7931
19407TIP3   OH279711   4.152   2.142   1.018 -0.3401 -0.0535  0.1869
19407TIP3    H179712   4.064   2.106   1.009 -0.6981  0.8369  0.0849
19407TIP3    H279713   4.192   2.130   0.932 -0.9074  0.9463 -0.2290
19408TIP3   OH279714   6.789   6.775  13.607 -0.5150  0.4093  0.4966
19408TIP3    H179715   6.818   6.826  13.682 -0.5284  0.4376  0.4828
19408TIP3    H279716   6.745   6.699  13.644  2.9461 -1.7705  0.6303
19409TIP3   OH279717   3.376   2.560  15.898 -0.6163 -0.2412 -0.0304
19409TIP3    H179718   3.316   2.497  15.861 -2.3585  0.6627  1.1115
19409TIP3    H279719   3.429   2.510  15.960 -1.0671 -0.8118 -0.1040
19410TIP3   OH279720   5.321   6.316  13.934  0.0887  0.4240  0.4577
19410TIP3    H179721   5.388   6.381  13.956  1.5890 -1.2906  1.2291
19410TIP3    H279722   5.301   6.273  14.017 -0.1723 -0.7220 -0.1805
19411TIP3   OH279723   6.519   5.879  13.681  0.3235  0.5111  0.0445
19411TIP3    H179724   6.532   5.902  13.589  1.6514 -0.9253 -0.1747
19411TIP3    H279725   6.503   5.785  13.680  0.5686  0.4400  1.2950
19412TIP3   OH279726   1.900   3.484  12.801  0.2885 -0.1611  0.8231
19412TIP3    H179727   1.896   3.407  12.743  1.1365  0.3292  0.0713
19412TIP3    H279728   1.834   3.544  12.766  1.4089  0.5083 -0.2540
19413TIP3   OH279729   1.911   4.819  12.727  0.3687  0.1517  0.5186
19413TIP3    H179730   1.893   4.741  12.778 -2.7807 -0.7041 -1.5915
19413TIP3    H279731   1.840   4.823  12.663 -0.8983  5.8243  1.6926
19414TIP3   OH279732   3.259   1.690  14.035 -0.3333 -0.3974 -0.3791
19414TIP3    H179733   3.293   1.739  13.959 -1.4614  0.3973 -0.3988
19414TIP3    H279734   3.299   1.604  14.027  1.0066  0.2321 -0.8603
19415TIP3   OH279735   0.274   5.503  15.593  0.3284  0.5562  0.2175
19415TIP3    H179736   0.306   5.413  15.608 -0.7283 -0.2532 -1.9927
19415TIP3    H279737   0.179   5.495  15.595  0.1417  1.0081 -2.7938
19416TIP3   OH279738   6.711   3.778   3.478 -0.1132 -0.0968 -0.6835
19416TIP3    H179739   6.763   3.807   3.553 -0.0752 -0.6181 -0.5039
19416TIP3    H279740   6.776   3.766   3.408 -0.2344  1.0529 -1.0120
19417TIP3   OH279741   5.213   4.174  15.126 -0.1453  0.5337  0.1623
19417TIP3    H179742   5.277   4.121  15.078 -0.3630  0.2024  0.2328
19417TIP3    H279743   5.136   4.117  15.134 -0.5256  1.0044 -0.1038
19418TIP3   OH279744   5.278   6.323   1.772  0.2278 -0.2478 -0.4294
19418TIP3    H179745   5.232   6.361   1.847  3.7079  0.5424  1.5443
19418TIP3    H279746   5.281   6.394   1.707 -0.8401 -0.1690 -0.4043
19419TIP3   OH279747   2.338   4.189  12.848 -0.3333  0.1627 -0.5238
19419TIP3    H179748   2.319   4.283  12.855 -0.5256  0.3353 -2.6220
19419TIP3    H279749   2.430   4.184  12.823 -0.3120 -0.2075 -0.3796
19420TIP3   OH279750   3.847   0.804   4.426 -0.1855  0.3088  0.2499
19420TIP3    H179751   3.849   0.797   4.521 -0.6565  0.3751  0.2674
19420TIP3    H279752   3.799   0.726   4.397  1.6182 -0.7344 -0.0585
19421TIP3   OH279753   3.658   5.333   1.871 -0.3722 -0.2701  0.1026
19421TIP3    H179754   3.744   5.351   1.911  0.5485 -0.4802 -1.6942
19421TIP3    H279755   3.677   5.322   1.778 -2.3735 -0.3366 -0.3296
19422TIP3   OH279756   0.631   4.971   6.760  0.6432 -0.5878 -0.0391
19422TIP3    H179757   0.637   5.020   6.842 -1.3812  1.2825 -0.9105
19422TIP3    H279758   0.636   5.038   6.691  0.0156 -1.8375 -1.3671
19423TIP3   OH279759   4.137   1.144   0.977 -0.1110  0.3328  0.1358
19423TIP3    H179760   4.183   1.220   1.012  0.5520  0.4622 -0.9640
19423TIP3    H279761   4.205   1.078   0.964 -0.4764 -0.0080 -0.0692
19424TIP3   OH279762   2.944   2.298   2.183 -0.1640 -0.0873  0.8697
19424TIP3    H179763   2.998   2.222   2.159 -1.9087 -1.2757  0.5221
19424TIP3    H279764   2.916   2.279   2.273 -1.2739 -0.2776  0.4909
19425TIP3   OH279765   6.574   4.825  14.873  0.7527 -0.5133  0.5772
19425TIP3    H179766   6.572   4.815  14.968  0.5789 -1.3606  0.4926
19425TIP3    H279767   6.482   4.837  14.849  0.4433 -3.0096  0.2702
19426TIP3   OH279768   5.020   0.292  14.354 -0.3039  0.0758  0.3490
19426TIP3    H179769   5.001   0.211  14.401  0.4127  0.3967  1.2240
19426TIP3    H279770   5.064   0.263  14.274 -0.0812 -0.4068  0.6389
19427TIP3   OH279771   5.286   3.586   5.322  0.4273  0.2858 -0.1027
19427TIP3    H179772   5.322   3.500   5.344  1.5877  1.0462  1.1078
19427TIP3    H279773   5.191   3.572   5.318  0.6522 -1.2428 -0.9292
19428TIP3   OH279774   3.416   1.523   0.464  0.6842 -0.1975  0.1113
19428TIP3    H179775   3.379   1.476   0.538  1.7805 -1.2253  0.0476
19428TIP3    H279776   3.468   1.593   0.503  4.4204 -2.9665  0.6805
19429TIP3   OH279777   1.980   4.235  10.554  0.1073  0.4153  0.0402
19429TIP3    H179778   1.901   4.210  10.601 -0.2398  0.9349 -0.2417
19429TIP3    H279779   2.014   4.154  10.518  0.0924  0.0897  0.7546
19430TIP3   OH279780   5.130   5.356   2.123  0.1346  0.2079 -0.1138
19430TIP3    H179781   5.042   5.360   2.085  0.3380 -0.5278 -0.6829
19430TIP3    H279782   5.115   5.358   2.217 -0.5451 -0.7084 -0.1918
19431TIP3   OH279783   1.043   4.300   1.621  0.0866 -0.7026 -0.0280
19431TIP3    H179784   0.976   4.279   1.557 -1.3041  0.8034  0.8437
19431TIP3    H279785   1.005   4.275   1.705 -0.7455  2.7859  0.8174
19432TIP3   OH279786   4.513   2.376   0.934 -0.5382  0.2049 -0.3226
19432TIP3    H179787   4.502   2.300   0.876 -0.7446  1.6494 -2.2678
19432TIP3    H279788   4.451   2.360   1.006  1.0039 -2.5043  0.5578
19433TIP3   OH279789   6.495   1.099  14.158  0.1654  0.2763  0.3821
19433TIP3    H179790   6.467   1.019  14.202 -0.7448 -0.2461 -1.0803
19433TIP3    H279791   6.575   1.075  14.112  0.3046  0.4296  0.5378
19434TIP3   OH279792   0.863   3.158  11.328 -0.0565  0.3633 -0.2980
19434TIP3    H179793   0.812   3.140  11.407 -0.7758 -0.2836 -0.8952
19434TIP3    H279794   0.810   3.220  11.279 -1.0536 -1.4822 -1.6523
19435TIP3   OH279795   0.096   3.966  16.044 -0.2985  0.5671  0.7601
19435TIP3    H179796   0.087   4.014  16.126  1.8189  1.5627  0.4658
19435TIP3    H279797   0.120   3.877  16.070  0.8446  1.0040  1.2294
19436TIP3   OH279798   4.934   1.935   6.172 -0.5410  0.2448  0.4379
19436TIP3    H179799   4.959   1.975   6.254 -1.5049  1.0364  0.3667
19436TIP3    H279800   5.015   1.897   6.137  0.1991  1.2906  0.9753
19437TIP3   OH279801   0.746   4.549  13.645 -0.3565  0.8229 -0.0292
19437TIP3    H179802   0.831   4.546  13.602  0.9953  1.5762  2.3694
19437TIP3    H279803   0.749   4.478  13.709 -2.4508 -0.5374 -1.3580
19438TIP3   OH279804   5.307   6.724   0.092  0.4283 -0.0546  0.6938
19438TIP3    H179805   5.334   6.815   0.084 -1.0677  0.3951  0.6006
19438TIP3    H279806   5.212   6.725   0.081  0.4805 -1.7534 -0.3209
19439TIP3   OH279807   3.047   1.402   5.736 -0.1036 -0.4296  0.1135
19439TIP3    H179808   2.990   1.469   5.775  1.3241  0.4188  0.8060
19439TIP3    H279809   3.018   1.397   5.645 -0.5088  0.8454  0.1496
19440TIP3   OH279810   2.439   2.503   1.232 -0.7592 -0.3411 -0.1828
19440TIP3    H179811   2.396   2.504   1.147 -1.0183 -1.7565 -0.0863
19440TIP3    H279812   2.517   2.559   1.220 -2.0661  1.4809 -0.6098
19441TIP3   OH279813   6.258   0.365   3.160  0.5819  0.2955  0.2126
19441TIP3    H179814   6.263   0.345   3.067  2.5302  1.7278 -0.0457
19441TIP3    H279815   6.346   0.395   3.184  0.2534 -0.4144  2.6214
19442TIP3   OH279816   4.987   0.965  13.815 -0.1761 -0.6352 -0.1061
19442TIP3    H179817   4.924   0.989  13.883 -0.1683  0.3618 -0.4380
19442TIP3    H279818   5.067   1.012  13.840  0.0407 -0.8500 -0.4056
19443TIP3   OH279819   5.611   0.489  15.404  0.1128 -0.1215 -0.6420
19443TIP3    H179820   5.587   0.514  15.494  0.5196  1.5243 -0.9654
19443TIP3    H279821   5.706   0.497  15.402  0.3163 -2.0547 -0.7070
19444TIP3   OH279822   6.407   0.013   5.274 -0.2002  0.5837  0.8396
19444TIP3    H179823   6.470  -0.048   5.314  0.2605 -1.7278 -2.9265
19444TIP3    H279824   6.348  -0.043   5.224 -1.7303  3.1030 -0.3532
19445TIP3   OH279825   5.653   4.600   1.545 -0.0445 -0.3159  0.2319
19445TIP3    H179826   5.618   4.537   1.608  1.4506 -1.1006  0.3248
19445TIP3    H279827   5.626   4.566   1.460  1.9214 -1.9050  0.1923
19446TIP3   OH279828   0.491   2.625   0.974 -0.0156  0.1305 -0.0486
19446TIP3    H179829   0.570   2.674   0.949 -0.4498  0.8797  0.0303
19446TIP3    H279830   0.436   2.628   0.896  0.4623 -1.3090 -0.4734
19447TIP3   OH279831   0.141   0.013   4.539 -0.1109  0.2531  0.5279
19447TIP3    H179832   0.215   0.004   4.600  0.0826 -0.6322  0.1728
19447TIP3    H279833   0.171  -0.028   4.459 -0.2495  1.6817 -0.2924
19448TIP3   OH279834   0.359   4.144   3.889  0.0572  0.2348  0.5846
19448TIP3    H179835   0.450   4.124   3.910  0.0888 -3.2400 -1.9580
19448TIP3    H279836   0.364   4.210   3.820  0.5555  0.7613  1.1119
19449TIP3   OH279837   0.351   6.198   6.309  0.4738  0.4382  0.3304
19449TIP3    H179838   0.368   6.104   6.300  1.0259  0.4176  1.3906
19449TIP3    H279839   0.388   6.221   6.394 -1.3442  1.2289  0.9617
19450TIP3   OH279840   6.274   5.737   5.202 -0.6711  0.3102 -0.7331
19450TIP3    H179841   6.242   5.814   5.155 -0.8199  0.5189 -0.2909
19450TIP3    H279842   6.369   5.746   5.202 -0.6871  0.4713 -0.7123
19451TIP3   OH279843   4.848   5.675  13.237 -0.2294  0.4793  0.3367
19451TIP3    H179844   4.758   5.693  13.212 -0.0259  0.0564 -0.7546
19451TIP3    H279845   4.841   5.616  13.312 -0.8622  0.8471  0.5687
19452TIP3   OH279846   5.545   4.876   1.203  0.1855  0.0673 -1.0640
19452TIP3    H179847   5.556   4.888   1.297  1.6318  1.4989 -1.3686
19452TIP3    H279848   5.525   4.964   1.170  0.3038 -0.2998 -2.1571
19453TIP3   OH279849   5.044   4.597  14.032 -0.3917 -0.1328 -0.4066
19453TIP3    H179850   5.012   4.676  13.990 -0.6704  0.7326  1.3472
19453TIP3    H279851   4.989   4.527  13.997 -1.3184  0.7041 -0.6529
19454TIP3   OH279852   2.551   0.849  10.796  0.2573  0.0676 -0.1519
19454TIP3    H179853   2.611   0.879  10.728  0.3519  0.1949 -0.0127
19454TIP3    H279854   2.467   0.839  10.751  0.2880  0.2799 -0.2595
19455TIP3   OH279855   2.911   2.147  12.560 -0.0806 -0.1137  0.2356
19455TIP3    H179856   2.916   2.136  12.655  1.2137 -1.2152  0.0738
19455TIP3    H279857   2.825   2.114  12.536  0.6497 -2.5851  0.7283
19456TIP3   OH279858   0.215   6.275  14.418 -0.3739 -0.4509 -0.6154
19456TIP3    H179859   0.181   6.307  14.501  1.3127  0.2494 -0.1584
19456TIP3    H279860   0.310   6.273  14.429 -0.2161 -2.5557 -1.7447
19457TIP3   OH279861   6.137   0.277  11.054 -0.3160 -0.4808 -0.0930
19457TIP3    H179862   6.211   0.226  11.086 -0.4594 -1.3607 -1.1045
19457TIP3    H279863   6.060   0.232  11.089 -0.4022  0.7809  1.4669
19458TIP3   OH279864   5.432   2.379  15.812  0.2618 -0.2402 -0.4351
19458TIP3    H179865   5.512   2.361  15.763  1.3324  1.7699  0.4481
19458TIP3    H279866   5.438   2.322  15.889 -0.5483 -2.0715 -1.6436
19459TIP3   OH279867   5.619   4.749  15.214  0.4268  0.6838 -0.1563
19459TIP3    H179868   5.603   4.752  15.309  0.0675 -0.2856 -0.1817
19459TIP3    H279869   5.642   4.658  15.196  1.6045  1.0904 -0.8361
19460TIP3   OH279870   5.616   4.827   1.707  0.4354 -0.0530 -0.0248
19460TIP3    H179871   5.646   4.781   1.629  2.0255  0.2145  0.3917
19460TIP3    H279872   5.615   4.759   1.775 -2.9664 -0.8071 -0.6182
19461TIP3   OH279873   6.722   5.020  14.544  0.6902  0.3002 -0.2103
19461TIP3    H179874   6.678   4.938  14.518  1.3745 -0.1237 -0.0537
19461TIP3    H279875   6.808   5.014  14.504  0.9900  0.6305  0.3808
19462TIP3   OH279876   1.405   5.741   1.468 -0.2090  0.2470  0.1032
19462TIP3    H179877   1.468   5.750   1.397  0.0914 -1.8506  0.0280
19462TIP3    H279878   1.329   5.699   1.428  0.2176 -1.5774  1.0983
19463TIP3   OH279879   3.514   4.877   5.582 -0.4053 -0.1341  0.6641
19463TIP3    H179880   3.437   4.919   5.620 -2.4910 -2.5614 -0.6189
19463TIP3    H279881   3.543   4.815   5.650 -1.0139 -0.8393  0.2935
19464TIP3   OH279882   2.493   2.337  13.611  0.3197 -0.1433  0.7373
19464TIP3    H179883   2.442   2.303  13.685 -0.1944 -1.7199 -0.2872
19464TIP3    H279884   2.476   2.276  13.540 -1.1676  2.5898 -1.4820
19465TIP3   OH279885   2.494   2.133   0.476 -0.2811  0.2454  0.0833
19465TIP3    H179886   2.525   2.222   0.491  0.8440  0.7010 -3.7794
19465TIP3    H279887   2.527   2.083   0.551 -0.1023  2.8364  1.8698
19466TIP3   OH279888   5.633   4.052  12.002  0.6154  0.1410 -0.5505
19466TIP3    H179889   5.679   4.024  11.922 -0.2915  1.2801 -1.5217
19466TIP3    H279890   5.543   4.024  11.988  0.6480 -0.5570  0.5626
19467TIP3   OH279891   5.383   6.759   2.456  0.2547 -0.1086 -0.0262
19467TIP3    H179892   5.429   6.832   2.415  0.4350 -0.0912  0.2032
19467TIP3    H279893   5.452   6.700   2.485  0.1656  0.2226  0.8885
19468TIP3   OH279894   1.422   1.241  11.284  0.5513  0.1848 -0.3421
19468TIP3    H179895   1.465   1.297  11.348  1.6312 -2.2878  1.2621
19468TIP3    H279896   1.328   1.249  11.304  0.8974 -2.5358  3.6318
19469TIP3   OH279897   0.509   4.582  16.170  0.5611  0.3974 -0.2511
19469TIP3    H179898   0.542   4.567  16.259 -1.6376 -1.1868  0.3706
19469TIP3    H279899   0.500   4.677  16.164  1.0720  0.5651  1.0787
19470TIP3   OH279900   1.678   4.333  13.886 -0.0686 -0.8234  0.2463
19470TIP3    H179901   1.666   4.272  13.958  0.0295 -2.2790 -0.9222
19470TIP3    H279902   1.762   4.308  13.847 -0.2623 -0.2699 -0.5590
19471TIP3   OH279903   4.632   4.337   4.274  0.2788  0.0541 -0.2163
19471TIP3    H179904   4.573   4.410   4.295  0.0697 -0.1913  0.0655
19471TIP3    H279905   4.593   4.296   4.197 -0.7047 -0.9420  0.7606
19472TIP3   OH279906   2.398   0.727  11.307 -0.1259 -0.4333  0.2282
19472TIP3    H179907   2.332   0.667  11.340 -0.9587 -0.5505 -1.5386
19472TIP3    H279908   2.420   0.694  11.220  1.7367  0.0273  0.4796
19473TIP3   OH279909   4.571   3.934   3.149  0.3595  0.0817  0.5637
19473TIP3    H179910   4.659   3.971   3.152  0.1801  0.4553  1.3889
19473TIP3    H279911   4.581   3.846   3.187  0.5189 -0.2042 -0.1085
19474TIP3   OH279912   6.361   0.718  11.383 -0.5067 -0.1685 -0.3799
19474TIP3    H179913   6.320   0.794  11.424  0.8480  0.5510 -0.3189
19474TIP3    H279914   6.387   0.749  11.296 -0.5664 -0.7714 -0.6201
19475TIP3   OH279915   6.258   2.679   3.897 -0.2223  0.2939  0.1147
19475TIP3    H179916   6.173   2.696   3.938 -0.2560  1.3348 -0.3501
19475TIP3    H279917   6.271   2.752   3.837  0.2821 -0.6873 -1.0086
19476TIP3   OH279918   5.904   2.915   6.476 -0.0709 -0.2212  0.2514
19476TIP3    H179919   5.943   2.981   6.419 -1.6411  0.5145 -0.0064
19476TIP3    H279920   5.840   2.963   6.528 -1.0773 -1.4951  0.2342
19477TIP3   OH279921   6.089   6.039   3.848 -0.6701 -0.3128 -0.3210
19477TIP3    H179922   6.143   6.116   3.860 -1.5088  0.5873 -1.9036
19477TIP3    H279923   6.022   6.045   3.916 -1.4007  1.0229 -1.1016
19478TIP3   OH279924   2.485   3.162   0.083 -0.1556 -0.0577  0.1450
19478TIP3    H179925   2.514   3.167   0.174  0.8234 -1.2868 -0.0723
19478TIP3    H279926   2.528   3.083   0.048 -0.7638  0.2104 -1.2867
19479TIP3   OH279927   2.491   0.928   2.713 -0.0907  0.3249  0.3743
19479TIP3    H179928   2.543   1.001   2.744 -0.6699  0.6833  0.5124
19479TIP3    H279929   2.483   0.942   2.618 -1.4849  1.2989  0.5998
19480TIP3   OH279930   1.604   1.057   4.941 -0.1874 -0.2011  0.1042
19480TIP3    H179931   1.692   1.094   4.936  0.2548 -1.0326  1.3318
19480TIP3    H279932   1.553   1.107   4.877  1.5532 -0.7997 -1.8458
19481TIP3   OH279933   5.934   2.024   1.687 -0.8894  0.0786 -0.6031
19481TIP3    H179934   5.881   1.944   1.683  0.0376 -0.6294  0.7507
19481TIP3    H279935   5.871   2.093   1.709 -1.3791 -0.6430  0.3468
19482TIP3   OH279936   1.938   2.830  11.965  0.1163 -0.8884 -0.3386
19482TIP3    H179937   2.002   2.859  12.030  0.9333  0.7977 -1.8029
19482TIP3    H279938   1.859   2.880  11.985  0.6382  0.2896 -1.1315
19483TIP3   OH279939   2.602   1.300   4.558  0.0606  0.6544 -0.3386
19483TIP3    H179940   2.574   1.241   4.627  0.8762  1.4684  0.7197
19483TIP3    H279941   2.655   1.245   4.500  0.8412  0.3389  0.6510
19484TIP3   OH279942   5.864   6.730  11.723  0.4080  0.2699 -0.3125
19484TIP3    H179943   5.812   6.671  11.778  0.6657  0.4989  0.1835
19484TIP3    H279944   5.811   6.741  11.644 -1.5941  2.5119  1.1809
19485TIP3   OH279945   2.552   5.518  11.224 -0.3023 -0.3978 -0.4989
19485TIP3    H179946   2.645   5.501  11.209 -0.1300  1.2493 -1.6439
19485TIP3    H279947   2.528   5.578  11.153 -1.5250  1.5304  1.4423
19486TIP3   OH279948   1.291   4.364   1.521  0.2069  0.4801  0.3619
19486TIP3    H179949   1.222   4.323   1.574 -0.5557 -0.2954 -1.1648
19486TIP3    H279950   1.307   4.302   1.450  1.9000  1.0380  0.2115
19487TIP3   OH279951   3.398   6.206  12.788 -0.3186 -0.6208  0.9452
19487TIP3    H179952   3.326   6.269  12.787  1.4051  1.4579 -0.0300
19487TIP3    H279953   3.364   6.130  12.741 -2.2113 -0.1793  1.4976
19488TIP3   OH279954   4.078   0.698  16.796 -0.0653  0.1001  0.2127
19488TIP3    H179955   4.096   0.783  16.836 -0.9814  0.0120  0.8397
19488TIP3    H279956   4.164   0.657  16.787  0.1741  0.1192  2.1192
19489TIP3   OH279957   2.441   4.476   3.150  0.4195 -0.2461  0.5420
19489TIP3    H179958   2.373   4.477   3.217  0.5522  0.8460  0.6747
19489TIP3    H279959   2.418   4.548   3.091  0.2306 -1.2801 -0.6730
19490TIP3   OH279960   0.861   5.617  13.835 -0.1442 -0.2025  0.3292
19490TIP3    H179961   0.869   5.691  13.775  1.2486 -0.9008 -0.3782
19490TIP3    H279962   0.869   5.656  13.922 -1.3024  0.7014  0.0702
19491TIP3   OH279963   0.985   2.461  14.191  0.0950 -0.3567 -0.4388
19491TIP3    H179964   0.902   2.487  14.151 -0.9904 -1.7529  0.8012
19491TIP3    H279965   0.975   2.484  14.283  0.8258 -1.1189 -0.1571
19492TIP3   OH279966   3.818   3.436  13.260  0.0698 -0.0698 -0.4601
19492TIP3    H179967   3.909   3.461  13.243 -0.0425 -0.5466 -1.8574
19492TIP3    H279968   3.775   3.518  13.284  0.4401  0.5275 -1.7379
19493TIP3   OH279969   6.378   5.187   3.496 -0.0208  0.1676 -0.6679
19493TIP3    H179970   6.366   5.193   3.402  1.4992 -0.5056 -0.9425
19493TIP3    H279971   6.457   5.134   3.507  0.5274  1.2266  0.9526
19494TIP3   OH279972   5.831   3.850  15.477 -0.2661  0.1052 -0.4312
19494TIP3    H179973   5.905   3.798  15.508 -1.2218 -2.5722 -2.2735
19494TIP3    H279974   5.834   3.840  15.382 -1.8843  1.5568 -0.6674
19495TIP3   OH279975   3.920   2.825  13.956 -0.4142  0.1337  0.0718
19495TIP3    H179976   3.860   2.763  13.998  0.5231  0.4501  1.9690
19495TIP3    H279977   3.962   2.775  13.887  1.4753 -1.9434  2.5245
19496TIP3   OH279978   1.596   4.540   5.915  0.3508  0.3937 -0.4329
19496TIP3    H179979   1.594   4.449   5.946 -1.2593  0.6176  0.2225
19496TIP3    H279980   1.608   4.592   5.994 -0.9252  0.8407 -0.5194
19497TIP3   OH279981   4.446   1.364  11.408 -0.0362 -0.2174  0.3718
19497TIP3    H179982   4.372   1.307  11.430 -0.5883  0.3739  0.1118
19497TIP3    H279983   4.420   1.404  11.324  1.1017 -0.8828 -0.3147
19498TIP3   OH279984   4.608   2.173  15.300 -0.1833 -0.3644  0.1027
19498TIP3    H179985   4.640   2.148  15.387 -0.4840 -0.0079  0.3201
19498TIP3    H279986   4.621   2.268  15.297 -2.3125 -0.0172  0.6614
19499TIP3   OH279987   2.265   4.187   4.104 -0.1712  0.0614  0.0339
19499TIP3    H179988   2.228   4.154   4.186  1.3863 -1.7056  0.0978
19499TIP3    H279989   2.264   4.111   4.045  0.9613  0.6548 -0.7821
19500TIP3   OH279990   1.728   2.714   6.647 -0.4135  0.2668  0.6662
19500TIP3    H179991   1.730   2.670   6.561 -2.6835 -1.3347  1.3014
19500TIP3    H279992   1.817   2.743   6.662  0.3177 -0.5242 -1.6866
19501TIP3   OH279993   0.906   3.613  15.541 -0.4159  0.5247 -0.2070
19501TIP3    H179994   0.908   3.639  15.448 -0.6533  3.0188  0.4068
19501TIP3    H279995   0.894   3.518  15.539  1.3702  0.2382 -2.7441
19502TIP3   OH279996   4.092   1.274   3.143  0.2778  0.3749  0.2489
19502TIP3    H179997   4.122   1.296   3.231  0.3676  0.0870  0.2925
19502TIP3    H279998   4.167   1.293   3.086  0.0646  1.0044  0.1717
19503TIP3   OH279999   4.040   3.591  14.428 -0.0361 -0.1534 -0.0040
19503TIP3    H180000   4.071   3.546  14.507 -1.7285  1.0913  1.4522
19503TIP3    H280001   4.094   3.670  14.423  0.3195 -0.4156 -0.3040
19504TIP3   OH280002   3.313   6.803   2.325  0.4228  0.0840 -0.1673
19504TIP3    H180003   3.383   6.862   2.354  0.4832 -0.1801  0.2251
19504TIP3    H280004   3.259   6.790   2.403 -1.3604  2.0499 -0.9542
19505TIP3   OH280005   5.218   4.693   5.830 -0.9950  0.0065  0.6536
19505TIP3    H180006   5.214   4.652   5.916 -2.4208 -0.4578  0.3850
19505TIP3    H280007   5.128   4.721   5.812 -0.8057 -0.2674 -0.8509
19506TIP3   OH280008   3.312   3.236   3.161  0.1109 -0.0242 -0.2239
19506TIP3    H180009   3.374   3.169   3.189 -1.1844 -0.4996  1.6751
19506TIP3    H280010   3.329   3.245   3.067  1.3350 -1.9215 -0.2575
19507TIP3   OH280011   3.564   6.757  16.777  0.1716 -0.0070  0.3297
19507TIP3    H180012   3.602   6.816  16.712 -1.6783  2.6654  1.4789
19507TIP3    H280013   3.538   6.679  16.727  1.1742  0.8326 -1.5903
19508TIP3   OH280014   0.041   0.626   3.016  0.1209  0.4009 -0.5369
19508TIP3    H180015   0.020   0.597   3.105  0.1591  0.0820 -0.6309
19508TIP3    H280016   0.018   0.719   3.015  0.4566  0.4949 -0.0824
19509TIP3   OH280017   5.463   1.302   2.454  0.2490  0.6483 -0.0688
19509TIP3    H180018   5.440   1.230   2.514  1.2321  1.3418  1.1920
19509TIP3    H280019   5.380   1.327   2.415 -0.3889 -0.0304  0.7939
19510TIP3   OH280020   0.859   2.796  16.691  0.5268 -0.1502  0.2097
19510TIP3    H180021   0.864   2.854  16.615 -2.0485  0.2081  0.2211
19510TIP3    H280022   0.941   2.812  16.738  1.8219  0.2429 -2.0011
19511TIP3   OH280023   4.940   0.065   2.428 -0.1997  0.5426 -0.1180
19511TIP3    H180024   4.994   0.037   2.501  1.4208  2.7341 -0.3848
19511TIP3    H280025   4.889   0.139   2.462 -0.8717  0.3522 -0.6774
19512TIP3   OH280026   4.998   3.363   4.580 -0.1214 -0.0066  0.2637
19512TIP3    H180027   5.018   3.450   4.545 -0.5374 -0.3780 -0.9147
19512TIP3    H280028   4.962   3.380   4.667  0.0787  0.9817  0.1641
19513TIP3   OH280029   6.334   3.782   2.556  0.1071 -0.1509 -0.2403
19513TIP3    H180030   6.426   3.759   2.543  0.7026  0.1686  2.6329
19513TIP3    H280031   6.329   3.875   2.532  1.1435  0.4546  1.6385
19514TIP3   OH280032   2.682   4.661  16.125 -0.1295 -1.1675  0.4942
19514TIP3    H180033   2.713   4.730  16.183  1.2938 -1.3799  0.0358
19514TIP3    H280034   2.588   4.654  16.143 -0.2603  0.6972  0.7230
19515TIP3   OH280035   1.029   4.167  13.764 -0.2398 -0.1500 -0.4218
19515TIP3    H180036   0.987   4.119  13.693  0.3328 -3.9395  1.5933
19515TIP3    H280037   0.959   4.222  13.800 -1.9723 -2.0196 -0.7307
19516TIP3   OH280038   5.524   5.207   3.555 -0.1938  0.8010 -1.1451
19516TIP3    H180039   5.556   5.266   3.486 -0.2354 -0.5231 -2.3342
19516TIP3    H280040   5.591   5.211   3.623  0.4040  1.2826 -1.7473
19517TIP3   OH280041   0.685   3.800  14.257 -0.1633  0.2557 -0.3325
19517TIP3    H180042   0.747   3.782  14.187  1.9242 -0.1975  1.4935
19517TIP3    H280043   0.649   3.714  14.280  0.5833  0.1152  0.3569
19518TIP3   OH280044   1.396   4.422   5.307 -0.3069 -0.1821 -0.0178
19518TIP3    H180045   1.380   4.328   5.301  1.9924 -0.5611 -1.2002
19518TIP3    H280046   1.475   4.437   5.255  0.4977  2.1294  1.6968
19519TIP3   OH280047   5.897   1.164   4.906  0.4507 -0.4809  0.0247
19519TIP3    H180048   5.936   1.077   4.893 -0.3733 -0.7853 -0.4960
19519TIP3    H280049   5.912   1.209   4.822  0.7075 -0.1841  0.2275
19520TIP3   OH280050   5.275   3.457  11.495  0.2958 -0.3400 -0.7808
19520TIP3    H180051   5.293   3.551  11.492  0.0831 -0.2256  0.6794
19520TIP3    H280052   5.181   3.451  11.514  0.7537 -0.7630  1.7259
19521TIP3   OH280053   3.182   5.602  15.635 -0.1662  0.2489  0.4602
19521TIP3    H180054   3.157   5.603  15.543  0.9318 -1.1271  0.1097
19521TIP3    H280055   3.171   5.693  15.664 -1.9774  0.4185 -0.5921
19522TIP3   OH280056   3.933   2.921   0.267  0.1783 -0.7815  0.7799
19522TIP3    H180057   4.004   2.885   0.213 -1.4838 -2.5274 -0.3568
19522TIP3    H280058   3.923   3.011   0.236  0.4237 -1.2183 -0.6392
19523TIP3   OH280059   2.623   2.873   4.017  0.0124  0.0904  0.3904
19523TIP3    H180060   2.595   2.782   4.003 -1.3215  0.7497 -1.6223
19523TIP3    H280061   2.549   2.925   3.987  1.8361  1.8894 -1.2953
19524TIP3   OH280062   4.842   5.821   3.556 -0.4991 -0.1421  0.6780
19524TIP3    H180063   4.889   5.754   3.605 -0.5184  0.3208  1.3386
19524TIP3    H280064   4.904   5.894   3.548 -0.9741  0.3323  1.2499
19525TIP3   OH280065   4.427   0.328   0.160 -0.1698 -0.5014 -0.0497
19525TIP3    H180066   4.437   0.276   0.081 -1.5718  0.0439 -0.6222
19525TIP3    H280067   4.422   0.264   0.231 -3.0277 -1.3211 -0.8466
19526TIP3   OH280068   1.699   4.168  11.067  0.2004 -0.3162 -0.2775
19526TIP3    H180069   1.613   4.134  11.090  0.0266 -0.8128 -1.5541
19526TIP3    H280070   1.743   4.096  11.022  2.1333 -0.7980  2.1969
19527TIP3   OH280071   5.358   0.424  11.669  0.4170  0.4924  0.2613
19527TIP3    H180072   5.375   0.349  11.612 -0.0286 -1.3458  2.3812
19527TIP3    H280073   5.302   0.482  11.618  0.2247 -0.9458 -1.2350
19528TIP3   OH280074   0.201   5.282   1.390  0.4714 -0.2497  0.6222
19528TIP3    H180075   0.210   5.187   1.404  0.3840 -0.1366  1.5128
19528TIP3    H280076   0.107   5.296   1.379  0.6192 -0.4561 -1.0712
19529TIP3   OH280077   0.799   1.754  12.313 -0.4316  0.0075 -0.0371
19529TIP3    H180078   0.877   1.743  12.258  0.1861 -1.3240  1.0470
19529TIP3    H280079   0.820   1.829  12.369  1.2971 -1.9210  2.1085
19530TIP3   OH280080   3.193   6.674   2.553 -0.0166  0.3667  0.1006
19530TIP3    H180081   3.120   6.612   2.553 -0.5066  0.9337  0.7430
19530TIP3    H280082   3.188   6.718   2.638  0.5975  0.9673 -0.1613
19531TIP3   OH280083   4.723   6.637   5.442 -0.6935 -0.3379  0.1116
19531TIP3    H180084   4.818   6.638   5.441 -0.6685  1.3834 -0.1340
19531TIP3    H280085   4.699   6.714   5.494 -1.9409 -0.4872 -0.2048
19532TIP3   OH280086   0.878   0.641   3.108  0.0611 -0.2545  0.0768
19532TIP3    H180087   0.943   0.633   3.038 -0.7058 -0.0139 -0.6792
19532TIP3    H280088   0.811   0.577   3.085 -0.6970  0.5358  0.0255
19533TIP3   OH280089   6.050   1.737  11.369  0.0623 -0.2963 -0.1598
19533TIP3    H180090   6.054   1.810  11.432  1.6004 -0.7899  0.3602
19533TIP3    H280091   6.035   1.660  11.424  0.5828 -0.6295 -0.4817
19534TIP3   OH280092   5.650   6.010  17.160  0.1262 -0.1065 -0.4145
19534TIP3    H180093   5.733   5.963  17.165  0.3350  0.3016  0.0549
19534TIP3    H280094   5.640   6.050  17.246 -0.9096 -0.7365 -0.2266
19535TIP3   OH280095   3.807   6.795  14.511 -0.0631 -0.6086  0.5535
19535TIP3    H180096   3.821   6.733  14.583 -0.6013 -1.6772 -0.2373
19535TIP3    H280097   3.719   6.775  14.479 -0.6326  1.2088  0.8706
19536TIP3   OH280098   2.404   5.372   3.287  0.1907 -0.1547 -0.1521
19536TIP3    H180099   2.428   5.322   3.209  0.4150  0.4477 -0.4762
19536TIP3    H280100   2.405   5.308   3.358 -1.1951 -0.9536 -0.8265
19537TIP3   OH280101   3.395   1.172  16.926  0.5102  0.2733  0.5455
19537TIP3    H180102   3.466   1.183  16.989 -0.5245 -1.4998  2.1194
19537TIP3    H280103   3.316   1.196  16.973 -0.2170 -0.4147 -0.2724
19538TIP3   OH280104   1.699   6.321   4.130  0.0041  0.2726 -0.3012
19538TIP3    H180105   1.765   6.384   4.099  2.3480 -1.6166  0.5713
19538TIP3    H280106   1.730   6.295   4.217 -2.8512  0.5244  0.8848
19539TIP3   OH280107   5.193   1.728   0.275  0.1553  0.1611  0.3951
19539TIP3    H180108   5.202   1.633   0.283  0.7649  0.1874  0.0839
19539TIP3    H280109   5.227   1.748   0.188  2.2400  0.9283  1.3078
19540TIP3   OH280110   4.930   4.925  16.963  0.4977  0.3727 -0.1631
19540TIP3    H180111   4.887   4.934  17.048 -0.8127 -1.3582 -0.5893
19540TIP3    H280112   5.013   4.882  16.982  1.0008  1.5549  0.4051
19541TIP3   OH280113   1.981   0.079   0.613  0.6578  0.3015 -0.2993
19541TIP3    H180114   1.981   0.154   0.673 -0.3976 -0.0835  0.1935
19541TIP3    H280115   2.015   0.115   0.531  0.8949  1.1377  0.1500
19542TIP3   OH280116   5.530   5.876   4.014 -0.6126 -0.1015 -0.1507
19542TIP3    H180117   5.529   5.819   4.091  0.5946  0.6645  0.4550
19542TIP3    H280118   5.456   5.935   4.028  0.7829  1.3636  1.5060
19543TIP3   OH280119   1.442   5.159   4.767  0.5302  0.1353  0.3190
19543TIP3    H180120   1.416   5.224   4.702 -0.2597 -1.2632 -0.8089
19543TIP3    H280121   1.360   5.134   4.811  0.9353  0.4455  1.2902
19544TIP3   OH280122   2.099   1.181  11.767 -0.4837 -0.2104  0.1732
19544TIP3    H180123   2.170   1.205  11.708 -2.4568 -2.3219 -3.4405
19544TIP3    H280124   2.142   1.137  11.840  2.0112 -0.0527 -1.1148
19545TIP3   OH280125   1.023   2.498   5.841 -0.3718  0.0231  0.0989
19545TIP3    H180126   1.073   2.573   5.809 -0.1385 -0.8025 -1.5837
19545TIP3    H280127   0.986   2.459   5.762 -1.4365 -0.9726  1.0589
19546TIP3   OH280128   0.068   4.377  13.495 -0.3383 -0.3046  0.0938
19546TIP3    H180129   0.099   4.455  13.450  0.4556 -1.1777 -0.9014
19546TIP3    H280130  -0.020   4.362  13.460 -0.0436 -0.5083 -0.5704
19547TIP3   OH280131   5.003   4.763  12.923 -0.8473 -0.3241 -0.4108
19547TIP3    H180132   5.004   4.732  13.013  0.7494  0.8649  0.0120
19547TIP3    H280133   5.054   4.698  12.874  1.5690  0.9459  0.2797
19548TIP3   OH280134   5.877   1.284  13.081  0.0794  0.4058  0.3001
19548TIP3    H180135   5.901   1.329  13.000 -0.5226 -1.3949 -0.9613
19548TIP3    H280136   5.958   1.283  13.133  0.7978  0.6117 -0.7748
19549TIP3   OH280137   6.012   4.401   2.949 -0.0291 -0.5472  0.6116
19549TIP3    H180138   6.070   4.445   2.887  1.3330 -1.6178  1.0657
19549TIP3    H280139   5.931   4.452   2.947  0.3376  0.0319 -1.2684
19550TIP3   OH280140   6.213   1.640   3.534  0.2103  0.0782  0.5490
19550TIP3    H180141   6.294   1.599   3.563  1.3549  1.1333 -1.0514
19550TIP3    H280142   6.159   1.567   3.503  0.3618 -0.6640  1.9467
19551TIP3   OH280143   2.273   1.598   6.504 -0.0594 -0.4057  0.0837
19551TIP3    H180144   2.274   1.513   6.460 -0.5116  0.1253 -1.0170
19551TIP3    H280145   2.180   1.620   6.512  0.0637  0.2468 -0.1936
19552TIP3   OH280146   3.070   6.050   1.254  0.1252  0.0404  0.4293
19552TIP3    H180147   3.101   6.011   1.335 -0.3772 -1.2640  0.0086
19552TIP3    H280148   3.088   5.985   1.187 -0.5330  0.6213 -0.3304
19553TIP3   OH280149   2.809   4.807  14.549  0.2058  0.1580  0.6117
19553TIP3    H180150   2.846   4.719  14.541 -0.0478  0.0549  0.5562
19553TIP3    H280151   2.720   4.793  14.581 -0.2540  0.3122 -0.5350
19554TIP3   OH280152   6.007   5.637  13.952  0.1829 -0.0847 -0.1765
19554TIP3    H180153   5.948   5.599  13.887 -0.2579 -1.5998  1.0697
19554TIP3    H280154   5.972   5.609  14.036  1.9860  0.0230  0.6506
19555TIP3   OH280155   4.775   2.533   5.361  0.2394  0.0452  0.2508
19555TIP3    H180156   4.769   2.617   5.406  1.2218  0.0953  0.3138
19555TIP3    H280157   4.848   2.488   5.403 -0.5679 -1.0389  0.5280
19556TIP3   OH280158   0.503   4.985  11.744 -0.6409 -0.0203 -0.3558
19556TIP3    H180159   0.556   4.918  11.786  0.6061  0.8303 -0.4934
19556TIP3    H280160   0.433   4.937  11.700 -0.6507 -1.0887  0.7912
19557TIP3   OH280161   3.173   2.787  15.326 -0.3556 -0.5928  0.0331
19557TIP3    H180162   3.259   2.745  15.316  1.0949  2.1882 -0.1963
19557TIP3    H280163   3.163   2.799  15.421  1.0738  1.8404 -0.0346
19558TIP3   OH280164   3.560   0.263  10.832 -0.4166  0.3326  0.4514
19558TIP3    H180165   3.491   0.206  10.866 -0.3232 -0.4153 -0.5503
19558TIP3    H280166   3.616   0.204  10.780  1.2556  0.8268  1.6242
19559TIP3   OH280167   1.304   3.055   3.615  0.2962 -0.3044 -0.7478
19559TIP3    H180168   1.273   3.086   3.530 -0.4054  0.0625 -0.3655
19559TIP3    H280169   1.378   3.112   3.637 -0.3572  0.4642 -0.5087
19560TIP3   OH280170   0.802   0.433  13.089 -0.0680 -0.3583  0.2320
19560TIP3    H180171   0.806   0.503  13.024 -1.1450  0.5485  1.1202
19560TIP3    H280172   0.884   0.440  13.138  0.4070 -0.5673 -0.5175
19561TIP3   OH280173   5.844   4.265  11.729  0.2573  0.3447  0.1688
19561TIP3    H180174   5.893   4.292  11.651  1.1328 -1.1804  0.1507
19561TIP3    H280175   5.760   4.234  11.695  0.7381 -0.5738 -0.2248
19562TIP3   OH280176   1.397   3.507  16.201  0.3807 -0.5665 -0.3892
19562TIP3    H180177   1.312   3.525  16.161  1.1377  0.6700 -1.5344
19562TIP3    H280178   1.458   3.564  16.154  1.3708  0.9108  2.4679
19563TIP3   OH280179   1.752   3.807  15.926 -0.4598 -0.4530 -0.2108
19563TIP3    H180180   1.772   3.897  15.900 -1.8466 -0.2170 -0.5469
19563TIP3    H280181   1.691   3.776  15.859  0.7346 -1.9909 -0.6378
19564TIP3   OH280182   0.643   1.448  15.088 -0.3526 -0.1115  0.0996
19564TIP3    H180183   0.668   1.468  14.998 -3.4183  0.1487 -0.8209
19564TIP3    H280184   0.650   1.532  15.134  0.8657 -0.1660  0.0327
19565TIP3   OH280185   5.452   6.572  13.954  0.0919 -0.4209 -0.0247
19565TIP3    H180186   5.395   6.646  13.972  1.6668  0.9957 -0.5805
19565TIP3    H280187   5.537   6.611  13.933  0.9278 -2.3751 -0.5705
19566TIP3   OH280188   1.434   5.550   1.702 -0.2338 -0.5283  0.2984
19566TIP3    H180189   1.511   5.580   1.750 -0.3551  0.8457 -0.2918
19566TIP3    H280190   1.433   5.605   1.623 -0.3131 -2.3455 -1.0452
19567TIP3   OH280191   5.872   3.212   4.421  0.0697  0.0557  0.3756
19567TIP3    H180192   5.929   3.237   4.494  0.2690 -0.0537  0.2580
19567TIP3    H280193   5.892   3.119   4.406 -0.8185 -0.2422  0.9511
19568TIP3   OH280194   5.822   4.084   5.321 -0.1093 -0.5179 -0.2223
19568TIP3    H180195   5.760   4.143   5.277  1.4665  1.3438 -0.0492
19568TIP3    H280196   5.829   4.118   5.410  0.5368 -1.2236  0.0033
19569TIP3   OH280197   0.223   4.043  15.764 -0.1411  0.2268 -0.7645
19569TIP3    H180198   0.175   3.999  15.834 -0.2827  0.2212 -0.8649
19569TIP3    H280199   0.216   4.136  15.784 -1.8740  0.3750 -1.8293
19570TIP3   OH280200   4.818   4.230   1.587 -0.2525 -0.5160  0.5714
19570TIP3    H180201   4.863   4.313   1.581  1.0061 -1.2058  0.1666
19570TIP3    H280202   4.730   4.247   1.552  0.7973  0.0575 -1.9529
19571TIP3   OH280203   4.928   1.871   3.209 -0.0585  0.4210  0.0323
19571TIP3    H180204   4.911   1.885   3.302  0.6382  0.3650  0.1715
19571TIP3    H280205   4.842   1.850   3.172 -0.3913  0.7527  0.6017
19572TIP3   OH280206   2.693   3.662   2.308 -0.6165 -0.4867 -0.5865
19572TIP3    H180207   2.788   3.664   2.303 -0.5673  0.6000  0.4581
19572TIP3    H280208   2.668   3.752   2.328 -1.7913 -1.0017  0.3620
19573TIP3   OH280209   0.347   5.814  14.452 -0.0270  0.7787 -0.1743
19573TIP3    H180210   0.294   5.867  14.513 -1.5836 -0.3698 -0.4686
19573TIP3    H280211   0.287   5.793  14.381  0.2987 -1.9879  0.2878
19574TIP3   OH280212   5.518   3.396  11.199 -0.1870  0.2157 -0.1647
19574TIP3    H180213   5.553   3.419  11.285 -0.3076 -0.2912  0.0264
19574TIP3    H280214   5.454   3.327  11.217  0.0214 -0.1213 -0.6900
19575TIP3   OH280215   0.517   5.993   3.882  0.2477  0.3893  0.1390
19575TIP3    H180216   0.486   6.034   3.963  0.7309  0.6002  0.2241
19575TIP3    H280217   0.449   6.012   3.817 -0.1791  0.1475  0.5136
19576TIP3   OH280218   2.610   0.007   6.300 -0.0472 -0.0012  0.5361
19576TIP3    H180219   2.551  -0.066   6.280 -2.1518  1.1999  2.0641
19576TIP3    H280220   2.635   0.040   6.214 -3.8758  1.1352 -0.3609
19577TIP3   OH280221   4.190   1.936  11.491  0.1827 -0.3205  0.1702
19577TIP3    H180222   4.148   1.855  11.464  2.6978 -1.3400 -1.0158
19577TIP3    H280223   4.131   2.005  11.460 -1.5984 -1.6377  0.4604
19578TIP3   OH280224   4.318   0.968  11.945 -0.3298  0.1291 -0.1278
19578TIP3    H180225   4.331   0.887  11.994 -1.7342  0.3124  0.5890
19578TIP3    H280226   4.283   0.941  11.861  0.6327 -0.0901 -0.4683
19579TIP3   OH280227   2.341   0.766  13.967  0.1875 -0.3200 -0.1982
19579TIP3    H180228   2.429   0.765  13.930 -0.0326  0.7775 -0.8033
19579TIP3    H280229   2.344   0.703  14.039  2.0512  1.1739  1.1182
19580TIP3   OH280230   1.678   5.382   4.966 -0.2670 -0.2766 -0.1072
19580TIP3    H180231   1.677   5.351   5.057 -0.1414 -0.6671 -0.2360
19580TIP3    H280232   1.725   5.465   4.970 -0.9336  0.0913  0.3029
19581TIP3   OH280233   1.042   3.465  11.520 -0.1606  0.4238  0.2468
19581TIP3    H180234   1.123   3.490  11.563 -0.3997  0.0587  0.9134
19581TIP3    H280235   1.050   3.502  11.432  1.0929 -0.3500  0.0127
19582TIP3   OH280236   0.960   2.167  11.200 -0.7807  0.0570 -0.0848
19582TIP3    H180237   1.037   2.224  11.207 -1.9559  1.8794 -1.0414
19582TIP3    H280238   0.963   2.133  11.111 -1.9260  1.5531 -0.7556
19583TIP3   OH280239   5.144   6.598   3.621 -0.5435 -0.6041 -0.1210
19583TIP3    H180240   5.131   6.683   3.579 -2.6772  0.2544  2.0762
19583TIP3    H280241   5.098   6.536   3.564 -1.7881  0.2394 -0.0724
19584TIP3   OH280242   6.611   5.051  15.947  0.2818  0.0949 -0.0459
19584TIP3    H180243   6.549   5.006  15.891 -0.4622  0.1153  0.7417
19584TIP3    H280244   6.618   5.139  15.910 -1.1194  0.4908  0.5629
19585TIP3   OH280245   4.576   6.804   5.632 -0.6061  0.3338 -0.2923
19585TIP3    H180246   4.596   6.889   5.670 -1.5467 -0.2683  1.6617
19585TIP3    H280247   4.524   6.759   5.699  0.4272 -2.0356 -0.9691
19586TIP3   OH280248   4.282   6.553   3.353 -0.2572  0.4194 -0.2449
19586TIP3    H180249   4.288   6.510   3.439  0.4050 -1.0371 -0.9778
19586TIP3    H280250   4.374   6.563   3.326 -0.4925 -0.3687 -1.3583
19587TIP3   OH280251   2.954   2.375  12.427 -0.2100  0.2393  0.0650
19587TIP3    H180252   2.937   2.284  12.451  3.2872 -0.6334 -0.2703
19587TIP3    H280253   2.985   2.416  12.508  2.1850 -0.0678 -0.6227
19588TIP3   OH280254   0.687   1.373   0.933  0.0603  0.2610  0.0794
19588TIP3    H180255   0.707   1.413   1.018  0.5222 -0.0319  0.1127
19588TIP3    H280256   0.629   1.299   0.954  1.5328 -0.8795  0.3525
19589TIP3   OH280257   1.523   2.653  16.729  0.3525 -0.0736 -0.1500
19589TIP3    H180258   1.601   2.604  16.702  1.4290 -0.3862  3.1142
19589TIP3    H280259   1.550   2.699  16.808 -2.3515  1.1546  0.1658
19590TIP3   OH280260   5.264   5.238   3.540  0.3143  0.0795  0.9484
19590TIP3    H180261   5.240   5.185   3.464 -0.1644 -0.7747  1.6736
19590TIP3    H280262   5.354   5.211   3.560  1.1560  1.6428 -0.3922
19591TIP3   OH280263   3.632   6.265  13.823  0.0758  0.1373  0.0576
19591TIP3    H180264   3.612   6.172  13.815  0.9774  0.0512 -1.4554
19591TIP3    H280265   3.598   6.289  13.910 -0.7900 -1.4211  0.1863
19592TIP3   OH280266   3.356   3.950   6.164  0.0459  0.1192  0.0281
19592TIP3    H180267   3.343   4.042   6.142  0.6531  0.2781  0.3262
19592TIP3    H280268   3.280   3.928   6.218 -0.5990  0.1771 -0.8323
19593TIP3   OH280269   4.439   4.494  13.341 -0.2278  0.3362  0.1658
19593TIP3    H180270   4.493   4.572  13.355  0.1609 -0.0940  1.2236
19593TIP3    H280271   4.496   4.433  13.295 -0.0180  0.1333  0.6806
19594TIP3   OH280272   3.783   1.238  11.856 -0.2262 -0.3897  0.0675
19594TIP3    H180273   3.760   1.286  11.776  1.3735  0.8576  0.2927
19594TIP3    H280274   3.800   1.149  11.827 -2.2637 -0.6252 -0.5382
19595TIP3   OH280275   3.249   2.173   1.096  0.3341  0.4461 -0.2873
19595TIP3    H180276   3.286   2.092   1.061  1.6542  0.4457  0.9891
19595TIP3    H280277   3.235   2.228   1.020  0.2781 -0.6473 -1.0913
19596TIP3   OH280278   4.117   3.400  12.383 -0.5992  0.5672  0.0789
19596TIP3    H180279   4.194   3.448  12.415  0.9269 -1.4324 -0.3639
19596TIP3    H280280   4.042   3.452  12.413  0.9040  2.8209  0.1733
19597TIP3   OH280281   0.855   6.501  11.951  0.2826 -0.2758 -0.2775
19597TIP3    H180282   0.877   6.413  11.920  1.3961 -0.0514 -0.1491
19597TIP3    H280283   0.865   6.496  12.046 -0.7523 -0.2992 -0.1570
19598TIP3   OH280284   1.293   4.154  14.683 -0.0561  0.1172  0.2924
19598TIP3    H180285   1.305   4.098  14.606 -1.2151 -0.8106  0.7520
19598TIP3    H280286   1.382   4.174  14.712  0.4276 -2.1580  0.5647
19599TIP3   OH280287   4.774   1.388   3.379  0.2924 -0.3917 -0.4261
19599TIP3    H180288   4.833   1.444   3.428  0.4717  0.4121 -1.5299
19599TIP3    H280289   4.818   1.303   3.375  0.9991 -0.0230 -0.5440
19600TIP3   OH280290   0.699   2.335  12.630  0.4038 -0.2161 -0.5452
19600TIP3    H180291   0.660   2.263  12.580 -0.0987 -0.0011 -0.4627
19600TIP3    H280292   0.631   2.361  12.691  0.9343 -0.3137  0.0933
19601TIP3   OH280293   2.493   2.588   5.413 -0.3486 -0.0222 -0.2713
19601TIP3    H180294   2.400   2.583   5.432 -0.4589 -0.2342 -0.8457
19601TIP3    H280295   2.501   2.665   5.356  0.1196  1.2553  1.4321
19602TIP3   OH280296   0.063   0.300   4.235  0.7013 -0.3408  0.0989
19602TIP3    H180297  -0.001   0.304   4.307  0.0754  0.2189 -0.4740
19602TIP3    H280298   0.131   0.362   4.260  1.6560 -1.7905  1.2840
19603TIP3   OH280299   0.742   2.690  15.515 -0.0126 -0.1154  0.2769
19603TIP3    H180300   0.724   2.781  15.537 -1.4751 -0.3290  0.0233
19603TIP3    H280301   0.666   2.661  15.465  1.1748 -1.0055 -1.0922
19604TIP3   OH280302   6.194   6.704  12.842 -0.4157  0.2365  0.3060
19604TIP3    H180303   6.103   6.716  12.815 -1.1725  0.3551  2.6996
19604TIP3    H280304   6.231   6.792  12.841  0.2493  0.0205 -2.2639
19605TIP3   OH280305   4.973   0.896   2.038 -0.1981 -0.1794  0.8285
19605TIP3    H180306   5.025   0.817   2.053  0.1138 -0.2628 -0.5814
19605TIP3    H280307   5.035   0.968   2.049  0.5003 -0.3038 -1.6410
19606TIP3   OH280308   4.461   6.285   5.089 -0.2517 -0.5646 -0.7579
19606TIP3    H180309   4.489   6.371   5.118 -0.3306 -0.5438 -0.7416
19606TIP3    H280310   4.513   6.267   5.011 -0.3652 -0.4248 -0.8660
19607TIP3   OH280311   4.802   1.701  16.591  0.3814 -0.0469  0.0620
19607TIP3    H180312   4.799   1.621  16.645  1.6081 -1.5611 -1.9630
19607TIP3    H280313   4.728   1.753  16.622 -1.8763 -2.9509  0.0411
19608TIP3   OH280314   1.434   3.849  11.285  0.1817 -0.1601 -0.4135
19608TIP3    H180315   1.499   3.908  11.321 -1.1933  0.7711  0.6465
19608TIP3    H280316   1.438   3.771  11.340  1.0444 -0.5101 -0.9558
19609TIP3   OH280317   4.065   6.551  11.969  0.0539  0.0922 -0.4321
19609TIP3    H180318   4.049   6.485  11.902  0.9020 -0.2835 -0.2693
19609TIP3    H280319   4.052   6.506  12.052 -0.0202  0.3024 -0.3278
19610TIP3   OH280320   1.099   5.523   6.097 -0.2107 -0.3878 -0.2151
19610TIP3    H180321   1.012   5.537   6.134 -0.6565 -0.5881 -1.1587
19610TIP3    H280322   1.092   5.440   6.049  0.7605 -0.8880  0.4486
19611TIP3   OH280323   1.758   4.471  12.507  0.5100  0.9131  0.1456
19611TIP3    H180324   1.770   4.512  12.422 -2.1778  1.5508 -0.0281
19611TIP3    H280325   1.793   4.383  12.496 -1.1294  0.4572 -2.1544
19612TIP3   OH280326   0.252   2.660  16.768 -0.5219 -0.5426 -0.0621
19612TIP3    H180327   0.261   2.723  16.839 -0.2841 -1.2145  0.5119
19612TIP3    H280328   0.262   2.575  16.810 -0.4098 -0.9494 -0.8945
19613TIP3   OH280329   2.299   1.551  14.697  0.2618 -0.5431  0.0577
19613TIP3    H180330   2.384   1.591  14.683  0.5175 -0.3818  1.8067
19613TIP3    H280331   2.265   1.534  14.609  0.9024  1.8956 -0.7391
19614TIP3   OH280332   2.224   3.117   4.574 -0.1791 -0.0297 -0.3884
19614TIP3    H180333   2.299   3.151   4.524 -0.1272 -0.5296 -0.6636
19614TIP3    H280334   2.250   3.028   4.597  0.3176  0.5712  1.6136
19615TIP3   OH280335   5.107   4.223  10.248 -0.3773 -0.4933 -0.1817
19615TIP3    H180336   5.188   4.234  10.197 -0.4634 -0.4548 -0.3112
19615TIP3    H280337   5.062   4.307  10.240 -0.0209 -0.2125  0.6087
19616TIP3   OH280338   4.266   5.451   6.074  0.1560  0.2141 -0.0039
19616TIP3    H180339   4.277   5.546   6.063  0.1905  0.0195 -2.0728
19616TIP3    H280340   4.356   5.417   6.077  0.1518  0.2775  1.3431
19617TIP3   OH280341   6.397   1.680   2.095  0.8605 -0.3129 -0.0395
19617TIP3    H180342   6.340   1.738   2.045  1.7770 -0.2750 -1.0589
19617TIP3    H280343   6.484   1.720   2.088  1.1598 -0.7880  0.8484
19618TIP3   OH280344   0.279   5.073   4.373 -0.4463 -0.1451 -0.5699
19618TIP3    H180345   0.198   5.097   4.419  1.3803  0.9187  2.3878
19618TIP3    H280346   0.345   5.068   4.442  2.0843 -0.8169 -2.8648
19619TIP3   OH280347   1.780   3.078   3.175  0.4745  0.1491 -0.1057
19619TIP3    H180348   1.783   2.982   3.178  1.0669  0.1219 -1.1894
19619TIP3    H280349   1.698   3.097   3.130 -0.3209  0.2100  1.2858
19620TIP3   OH280350   4.968   4.290   0.419 -0.2346 -0.4304  0.1148
19620TIP3    H180351   5.045   4.299   0.474 -2.0635 -1.7975  3.1621
19620TIP3    H280352   4.992   4.226   0.353  1.7059  0.4125 -0.0493
19621TIP3   OH280353   5.168   0.389   0.873  0.1293 -0.2276 -0.0499
19621TIP3    H180354   5.091   0.343   0.840 -0.1318  0.6945 -0.7552
19621TIP3    H280355   5.137   0.433   0.952 -0.1668  0.3991 -0.5041
19622TIP3   OH280356   2.957   4.538  14.208 -0.0099  0.1041 -0.6402
19622TIP3    H180357   2.992   4.585  14.284 -2.0476 -0.7311  0.9359
19622TIP3    H280358   2.878   4.586  14.185  0.7324  0.5084 -2.4751
19623TIP3   OH280359   0.350   1.165   2.195  0.0003 -0.3385 -0.6665
19623TIP3    H180360   0.437   1.128   2.183 -0.8465 -2.4386 -0.6385
19623TIP3    H280361   0.333   1.158   2.288 -1.0513 -2.0438 -0.9520
19624TIP3   OH280362   2.427   4.686  15.214  0.6170 -0.0010  0.1529
19624TIP3    H180363   2.457   4.686  15.305  0.4227  0.3957  0.2146
19624TIP3    H280364   2.438   4.595  15.186 -1.4625 -0.6507  1.2778
19625TIP3   OH280365   1.391   1.538  15.789 -0.3252 -0.0668 -0.0419
19625TIP3    H180366   1.306   1.577  15.808  0.2934  0.1224  2.9269
19625TIP3    H280367   1.450   1.578  15.853  1.3746 -2.2693 -0.1100
19626TIP3   OH280368   0.614   3.178  12.278 -0.1602  0.2990 -0.1456
19626TIP3    H180369   0.636   3.162  12.370  1.8333 -0.7223 -0.7441
19626TIP3    H280370   0.697   3.171  12.232 -1.1538  0.5731 -2.0857
19627TIP3   OH280371   5.538   4.683   2.217 -0.0828  0.1168  0.5504
19627TIP3    H180372   5.466   4.635   2.175  0.6737  0.4524 -1.2122
19627TIP3    H280373   5.598   4.616   2.248 -1.3225 -0.1922  2.4846
19628TIP3   OH280374   0.193   5.631   5.897 -0.3322 -0.2399  0.2644
19628TIP3    H180375   0.226   5.699   5.956 -1.5569  0.4367  0.2100
19628TIP3    H280376   0.197   5.551   5.949  1.5403 -0.2435  0.1846
19629TIP3   OH280377   1.037   3.652   6.289  0.3056 -0.8362 -0.3867
19629TIP3    H180378   1.131   3.649   6.271 -0.1026 -0.8767 -2.9356
19629TIP3    H280379   1.020   3.742   6.315  1.0580 -0.8536  0.1799
19630TIP3   OH280380   3.232   5.090  16.118 -0.0785 -1.0465  0.3288
19630TIP3    H180381   3.149   5.050  16.145  0.0742 -2.2453 -0.8856
19630TIP3    H280382   3.224   5.103  16.024  1.5130 -2.2539 -0.0246
19631TIP3   OH280383   2.955   2.366  13.283  0.2926  0.0926 -0.1657
19631TIP3    H180384   2.965   2.454  13.247  0.7170  1.2579  2.6063
19631TIP3    H280385   2.873   2.368  13.332  0.9689 -0.6061  1.0543
19632TIP3   OH280386   1.831   2.603  14.233  0.3956  0.3720  0.1343
19632TIP3    H180387   1.856   2.631  14.145  1.2598 -0.9743 -0.0865
19632TIP3    H280388   1.904   2.548  14.262 -0.7227 -0.7577  0.9333
19633TIP3   OH280389   1.364   1.159   3.441 -0.5261 -0.1350 -0.2580
19633TIP3    H180390   1.450   1.118   3.432  0.3622  2.0050 -3.4018
19633TIP3    H280391   1.376   1.229   3.506 -0.1924 -0.5047  0.0770
19634TIP3   OH280392   6.383   0.583  15.898  0.2404 -0.1818  0.1210
19634TIP3    H180393   6.399   0.657  15.840  1.9759 -1.5423 -1.2672
19634TIP3    H280394   6.384   0.507  15.841 -0.6549 -1.3797  1.6065
19635TIP3   OH280395   4.207   2.443   3.744  0.8226  0.0139  0.2053
19635TIP3    H180396   4.244   2.355   3.751 -0.0145 -0.5443 -1.7739
19635TIP3    H280397   4.212   2.478   3.833  0.8922 -2.1343  1.1048
19636TIP3   OH280398   0.067   0.021  15.022  0.2444 -0.3857  0.1219
19636TIP3    H180399   0.010   0.058  15.090  0.2075  2.7190 -1.4061
19636TIP3    H280400   0.011   0.019  14.944  0.8085 -2.1863 -0.2736
19637TIP3   OH280401   0.064   1.890   5.016  0.4442 -0.2994 -0.1136
19637TIP3    H180402   0.012   1.966   5.042  0.5745  0.3363 -1.6436
19637TIP3    H280403   0.079   1.843   5.098 -1.5716  0.0924  0.5353
19638TIP3   OH280404   0.151   3.356   2.327 -0.7989 -0.1089 -0.2240
19638TIP3    H180405   0.089   3.317   2.389 -0.5372  0.4503  0.3990
19638TIP3    H280406   0.188   3.281   2.281 -1.3769 -0.5006 -0.0692
19639TIP3   OH280407   5.070   2.089   0.993  0.4426 -0.3399  0.1606
19639TIP3    H180408   5.038   2.043   1.071 -1.7423  1.0663  0.1806
19639TIP3    H280409   5.127   2.025   0.950 -0.1248 -1.9931  1.7084
19640TIP3   OH280410   2.197   5.903  12.064 -0.2044  0.3125  0.0092
19640TIP3    H180411   2.133   5.839  12.095 -1.5104  2.5595  2.2975
19640TIP3    H280412   2.276   5.884  12.114 -0.3254 -0.0595  0.0599
19641TIP3   OH280413   6.448   0.872   1.472  0.1483  0.6585 -0.3091
19641TIP3    H180414   6.433   0.810   1.401  0.3838  1.9862 -1.5570
19641TIP3    H280415   6.538   0.854   1.501 -0.0999 -0.1786 -0.0526
19642TIP3   OH280416   0.749   6.305   3.269  0.1442 -0.1733 -0.4029
19642TIP3    H180417   0.712   6.226   3.228 -0.3868  0.7201 -1.7352
19642TIP3    H280418   0.782   6.357   3.195 -1.6122  1.9079  0.1711
19643TIP3   OH280419   4.299   4.204   0.536 -0.2595 -0.4511  0.0788
19643TIP3    H180420   4.228   4.159   0.583  0.9800 -0.1324  2.3952
19643TIP3    H280421   4.276   4.297   0.541 -0.1591 -0.4215 -0.0078
19644TIP3   OH280422   5.606   2.028  12.771 -0.5366 -0.0895 -0.4562
19644TIP3    H180423   5.527   2.051  12.819 -1.2839 -0.4311 -1.4877
19644TIP3    H280424   5.638   1.948  12.813 -0.5512  0.2294  0.1685
19645TIP3   OH280425   6.708   5.891  14.966 -0.5930 -1.0776 -0.0491
19645TIP3    H180426   6.792   5.918  15.002 -0.7429 -0.9589  0.2137
19645TIP3    H280427   6.643   5.924  15.029 -0.9040 -0.2072 -0.7960
19646TIP3   OH280428   1.394   6.481  14.222  0.4220 -1.1545  0.2146
19646TIP3    H180429   1.427   6.548  14.162  0.4196  0.4073  1.8864
19646TIP3    H280430   1.358   6.530  14.296 -1.4640 -2.9571  0.5656
19647TIP3   OH280431   1.374   6.017   2.061 -0.1874 -0.6968  0.5053
19647TIP3    H180432   1.433   5.958   2.015 -1.0736 -0.9605 -0.3097
19647TIP3    H280433   1.431   6.064   2.122  0.9752 -0.5190 -0.6703
19648TIP3   OH280434   3.141   3.533   3.931 -0.3167  0.2011  0.1254
19648TIP3    H180435   3.211   3.522   3.996  0.0528  0.0188 -0.2921
19648TIP3    H280436   3.069   3.480   3.964  0.8270 -2.2211 -0.9671
19649TIP3   OH280437   6.769   6.402   3.960  0.3037  0.5198  0.1658
19649TIP3    H180438   6.784   6.478   3.904 -2.0141  0.2554 -0.8993
19649TIP3    H280439   6.802   6.328   3.908 -0.6672  0.4229 -0.3333
19650TIP3   OH280440   1.514   6.628   0.975 -0.0250  0.0701  0.0051
19650TIP3    H180441   1.455   6.625   1.050  2.3190  1.1351  2.0222
19650TIP3    H280442   1.495   6.712   0.933  0.8329  0.9872  1.3751
19651TIP3   OH280443   2.862   1.818   1.959  0.2817  0.7151  0.3290
19651TIP3    H180444   2.946   1.798   2.000  0.7447  1.7215 -0.0809
19651TIP3    H280445   2.847   1.745   1.899 -0.0620 -0.4066  1.7461
19652TIP3   OH280446   6.014   0.606   6.094  0.3091  0.4079 -0.6117
19652TIP3    H180447   6.067   0.674   6.051  1.4487  0.3571  0.6476
19652TIP3    H280448   6.076   0.535   6.110 -0.5866 -0.4203 -0.7656
19653TIP3   OH280449   4.234   6.647  14.067  0.0513 -0.0310  0.5914
19653TIP3    H180450   4.223   6.552  14.068  0.2675 -0.1234  3.5864
19653TIP3    H280451   4.329   6.660  14.073  0.0433  0.3913 -0.1411
19654TIP3   OH280452   0.975   2.913   1.691 -0.0787 -0.0825  0.3505
19654TIP3    H180453   0.972   2.822   1.663 -0.5394  0.0009  0.1093
19654TIP3    H280454   1.057   2.947   1.656  0.0175 -0.3611  0.3058
19655TIP3   OH280455   1.055   4.884  16.818  0.3240 -0.1758  0.0868
19655TIP3    H180456   0.996   4.831  16.764  0.3238 -1.7738  1.5622
19655TIP3    H280457   1.005   4.962  16.840  0.0098  0.0799 -1.4291
19656TIP3   OH280458   2.033   4.422   6.389  0.2298  0.0017 -0.2262
19656TIP3    H180459   2.118   4.405   6.428 -0.4035 -1.7128  0.5121
19656TIP3    H280460   1.971   4.370   6.441 -1.0806  0.1567 -1.5479
19657TIP3   OH280461   6.253   5.998  11.768 -0.0438 -0.1189  0.5012
19657TIP3    H180462   6.189   5.929  11.785 -0.0482 -0.3245 -0.3119
19657TIP3    H280463   6.323   5.954  11.720 -0.1194  0.4759 -0.1716
19658TIP3   OH280464   4.360   3.951  16.437  0.3154  0.1420 -0.1025
19658TIP3    H180465   4.298   3.885  16.469  0.0689  0.1758 -0.5026
19658TIP3    H280466   4.444   3.925  16.474  0.2894 -0.5997 -0.5368
19659TIP3   OH280467   5.527   5.439  15.897  0.1542 -0.0812  0.2468
19659TIP3    H180468   5.439   5.426  15.860 -0.8461  1.5969  1.8738
19659TIP3    H280469   5.570   5.498  15.835  0.7031 -1.9404 -1.2642
19660TIP3   OH280470   4.357   5.050  13.705 -0.3933 -0.1489 -0.5986
19660TIP3    H180471   4.436   5.104  13.713  0.9062 -1.9191 -0.9446
19660TIP3    H280472   4.336   5.053  13.612 -0.1010 -0.5370 -0.6772
19661TIP3   OH280473   2.144   6.159   0.249 -0.2064  0.4701  0.3328
19661TIP3    H180474   2.158   6.203   0.165 -1.4478  1.0284  0.3972
19661TIP3    H280475   2.094   6.221   0.301 -1.0540 -0.5881  0.8159
19662TIP3   OH280476   0.665   3.274   4.499  0.1935 -0.2371 -0.1602
19662TIP3    H180477   0.651   3.179   4.497 -2.1763  0.0595 -0.5627
19662TIP3    H280478   0.743   3.287   4.445  1.1662 -1.9988  0.7058
19663TIP3   OH280479   0.481   2.652  15.407  0.6371 -0.3535  0.0201
19663TIP3    H180480   0.498   2.695  15.324  0.3251 -0.4486 -0.0951
19663TIP3    H280481   0.394   2.682  15.433  0.1947 -1.2891 -0.3123
19664TIP3   OH280482   6.699   4.501  14.084 -0.0284  0.7105 -0.2720
19664TIP3    H180483   6.619   4.514  14.136  0.1446 -0.6123  0.3462
19664TIP3    H280484   6.673   4.526  13.995 -1.4221 -0.5584 -0.2644
19665TIP3   OH280485   5.590   0.235   5.558 -0.0049  0.1636  0.3903
19665TIP3    H180486   5.529   0.214   5.488  1.6026  1.1635 -1.3982
19665TIP3    H280487   5.631   0.317   5.531  2.2640 -0.5607  1.3755
19666TIP3   OH280488   2.237   0.044  13.097 -0.7159 -0.1347  0.5569
19666TIP3    H180489   2.147   0.055  13.067 -0.5159  2.6842  0.7688
19666TIP3    H280490   2.231  -0.025  13.163 -2.5760 -0.5293  0.0376
19667TIP3   OH280491   1.253   2.033   1.405 -0.3437 -0.8014 -0.1756
19667TIP3    H180492   1.248   1.940   1.429 -2.9255 -0.3688  1.3997
19667TIP3    H280493   1.190   2.042   1.333  0.0948 -0.3039 -0.5006
19668TIP3   OH280494   6.135   2.671   1.937  0.2389 -0.2470 -0.3936
19668TIP3    H180495   6.076   2.596   1.948 -1.7110  0.7077 -3.0976
19668TIP3    H280496   6.109   2.732   2.007 -1.0667 -0.4234 -0.6943
19669TIP3   OH280497   5.161   2.542   1.190  0.1205  0.7231  0.1646
19669TIP3    H180498   5.147   2.614   1.129  2.2138  1.3512  0.3496
19669TIP3    H280499   5.206   2.475   1.139  0.5723  0.6541  0.6388
19670TIP3   OH280500   6.710   0.305   0.833  0.1680  0.5686  0.0657
19670TIP3    H180501   6.630   0.351   0.809 -0.8802 -1.2666 -0.1573
19670TIP3    H280502   6.686   0.254   0.910  0.1656 -2.2815 -1.6676
19671TIP3   OH280503   1.502   4.634   5.095 -1.2384  0.3489 -0.7670
19671TIP3    H180504   1.418   4.672   5.119 -1.3204 -0.3508  0.1237
19671TIP3    H280505   1.506   4.642   4.999 -2.1930  0.6318 -0.7936
19672TIP3   OH280506   6.461   4.275   2.922  0.7609 -0.0340 -0.3170
19672TIP3    H180507   6.490   4.186   2.946  1.6391  0.3376  0.0617
19672TIP3    H280508   6.469   4.325   3.003  0.7464  0.5058 -0.6468
19673TIP3   OH280509   2.413   5.331  12.493  0.2345 -0.3598 -0.2297
19673TIP3    H180510   2.389   5.243  12.466 -2.0816  0.2461 -0.2981
19673TIP3    H280511   2.436   5.324  12.585 -2.1904 -0.7050  0.4031
19674TIP3   OH280512   4.781   6.087  14.419 -0.2065  0.7501  0.1002
19674TIP3    H180513   4.857   6.145  14.431  0.6540 -0.3194 -0.0390
19674TIP3    H280514   4.708   6.147  14.402 -0.0425  2.0098  3.1365
19675TIP3   OH280515   3.183   5.896   5.110  0.4776  0.1412  0.1226
19675TIP3    H180516   3.188   5.991   5.098  0.1566 -0.1343 -2.8737
19675TIP3    H280517   3.246   5.861   5.047  0.5096 -1.6705  1.0984
19676TIP3   OH280518   6.762   0.210  12.348 -0.1888  0.7689 -0.6692
19676TIP3    H180519   6.823   0.258  12.403 -1.4557  0.7973  0.7601
19676TIP3    H280520   6.813   0.188  12.269  1.4939  1.1935  0.2575
19677TIP3   OH280521   0.003   2.565   5.559 -0.4269  0.2713 -0.0651
19677TIP3    H180522  -0.058   2.626   5.599  0.3253  0.3746  0.9680
19677TIP3    H280523   0.020   2.601   5.472 -0.2634  1.3475  0.4012
19678TIP3   OH280524   4.332   3.288   4.779  0.0223  0.1781  0.5623
19678TIP3    H180525   4.300   3.326   4.697  0.5498  0.4871  0.5006
19678TIP3    H280526   4.391   3.218   4.751 -1.4112 -1.1353  0.6633
19679TIP3   OH280527   3.400   5.189  13.399  1.1211  0.6284  0.6079
19679TIP3    H180528   3.448   5.125  13.451  1.0537  0.6040  0.6402
19679TIP3    H280529   3.333   5.138  13.353  0.1746  0.8552  1.6828
19680TIP3   OH280530   0.427   3.482   2.734  0.1631 -0.5691 -0.0841
19680TIP3    H180531   0.505   3.518   2.775  1.9207 -1.3296 -2.5533
19680TIP3    H280532   0.361   3.550   2.744  1.7068  0.9117  0.3877
19681TIP3   OH280533   5.922   1.330  12.007  0.1672 -0.2740  0.6359
19681TIP3    H180534   6.006   1.298  11.975  0.0155 -0.6744  0.6335
19681TIP3    H280535   5.875   1.358  11.929  0.3874  0.1740  0.6587
19682TIP3   OH280536   3.857   2.008  16.897  0.1570 -0.2928 -0.3416
19682TIP3    H180537   3.903   2.045  16.823 -0.0223  2.4309  0.8097
19682TIP3    H280538   3.892   2.054  16.973 -1.2491 -1.3728  1.0337
19683TIP3   OH280539   3.403   3.009  16.057  0.7783 -0.3780 -0.0686
19683TIP3    H180540   3.438   2.933  16.103  0.8741 -1.1408 -1.3778
19683TIP3    H280541   3.474   3.074  16.061  0.9930 -0.6356  0.3656
19684TIP3   OH280542   5.613   3.542  15.164  0.5247 -0.0960 -0.1056
19684TIP3    H180543   5.671   3.557  15.090  0.2257  1.6144 -0.0494
19684TIP3    H280544   5.664   3.490  15.226  1.2622 -0.3470 -0.9141
19685TIP3   OH280545   5.285   0.662  14.430 -0.3559  0.0249 -0.2634
19685TIP3    H180546   5.339   0.732  14.393  1.6012 -1.4965 -0.4917
19685TIP3    H280547   5.346   0.609  14.481 -1.7412 -1.5511 -0.1444
19686TIP3   OH280548   4.457   3.351  11.082 -0.0752 -0.1936 -0.3414
19686TIP3    H180549   4.458   3.360  11.178 -0.3617 -3.8031  0.1216
19686TIP3    H280550   4.550   3.341  11.058  0.1697  2.2920 -0.7655
19687TIP3   OH280551   2.592   2.079  12.187 -0.0562 -0.3596  0.2879
19687TIP3    H180552   2.516   2.027  12.163  0.6064 -2.0439  1.6532
19687TIP3    H280553   2.596   2.075  12.283  1.2593  0.4121  0.3038
19688TIP3   OH280554   2.674   6.431  14.883 -0.0116 -0.4541 -0.0508
19688TIP3    H180555   2.642   6.343  14.867  0.9691 -0.8452  0.0539
19688TIP3    H280556   2.611   6.488  14.840 -1.5784 -1.0992  1.2634
19689TIP3   OH280557   4.912   6.395  14.037  0.1150  0.3170 -0.7718
19689TIP3    H180558   4.819   6.391  14.058  0.1373 -2.6854 -0.7695
19689TIP3    H280559   4.914   6.408  13.942 -0.2515  1.6159 -0.6137
19690TIP3   OH280560   6.553   6.805  17.046 -0.1695  0.5268 -0.2025
19690TIP3    H180561   6.477   6.746  17.052 -2.2633  2.9927 -0.7248
19690TIP3    H280562   6.571   6.811  16.953  3.4990 -3.1575 -0.0238
19691TIP3   OH280563   2.019   5.665  11.043  0.2307 -0.2380  0.1575
19691TIP3    H180564   2.110   5.645  11.066  0.4882 -0.2274 -0.8337
19691TIP3    H280565   2.024   5.702  10.955 -0.6992  0.0969  0.2410
19692TIP3   OH280566   3.946   6.145   0.609  0.5173  0.2044  0.4018
19692TIP3    H180567   3.913   6.073   0.556  2.4141  0.3264 -1.0655
19692TIP3    H280568   3.985   6.101   0.686 -1.6206 -0.0141  1.4369
19693TIP3   OH280569   6.526   5.348   5.850 -0.3050  0.3315  0.1435
19693TIP3    H180570   6.471   5.407   5.900  0.2438 -0.2657  1.5182
19693TIP3    H280571   6.606   5.340   5.902  0.0956 -0.6926 -0.5863
19694TIP3   OH280572   5.807   0.972   6.029 -0.7444 -0.1115 -0.2388
19694TIP3    H180573   5.728   1.026   6.035 -0.9060 -0.4529  1.2559
19694TIP3    H280574   5.779   0.894   5.981 -0.6888  0.7992 -1.7817
19695TIP3   OH280575   5.643   6.716  14.600  0.2424 -0.3125  0.0276
19695TIP3    H180576   5.689   6.649  14.650  0.6419 -1.5276 -1.8628
19695TIP3    H280577   5.627   6.786  14.663  1.0385 -1.5884  1.7360
19696TIP3   OH280578   4.690   3.918   4.559  0.0799 -0.2167 -0.2257
19696TIP3    H180579   4.718   3.884   4.644  1.2378  1.5861  0.1565
19696TIP3    H280580   4.613   3.865   4.536  0.8548 -2.0005  1.0325
19697TIP3   OH280581   2.197   5.109  11.994 -0.1347 -0.4512 -0.3425
19697TIP3    H180582   2.273   5.057  11.968 -0.6977 -0.5935 -1.7701
19697TIP3    H280583   2.122   5.055  11.969 -0.7136  0.4781 -0.6336
19698TIP3   OH280584   6.556   3.809   1.921 -0.1817  0.1267  0.0822
19698TIP3    H180585   6.509   3.836   2.000 -1.6070  1.5617 -1.1859
19698TIP3    H280586   6.543   3.882   1.860  1.8269 -0.4560 -1.0997
19699TIP3   OH280587   3.703   2.439  12.854 -0.5739  0.1363  0.3279
19699TIP3    H180588   3.784   2.414  12.900 -1.6616 -2.7534  0.8920
19699TIP3    H280589   3.655   2.492  12.918  0.3394  0.8460  0.4395
19700TIP3   OH280590   1.858   6.266  16.688  0.0983 -0.0824 -0.3417
19700TIP3    H180591   1.934   6.214  16.661  0.2952 -1.9057  3.0717
19700TIP3    H280592   1.892   6.327  16.753 -1.2043 -0.4896  0.7804
19701TIP3   OH280593   0.390   1.330  14.652 -0.2679 -0.5965 -0.3359
19701TIP3    H180594   0.477   1.370  14.645 -0.4279 -0.3358 -0.9769
19701TIP3    H280595   0.391   1.259  14.588 -0.8327  0.0054 -1.0385
19702TIP3   OH280596   5.723   4.892   0.343 -0.1719 -0.4489 -0.3867
19702TIP3    H180597   5.685   4.815   0.302 -0.2823  0.0750 -1.2787
19702TIP3    H280598   5.690   4.890   0.433 -1.2939 -0.6793 -0.7938
19703TIP3   OH280599   6.778   5.245  11.293 -0.7064 -0.3020 -0.3446
19703TIP3    H180600   6.814   5.301  11.224 -2.0871  0.6253 -0.3594
19703TIP3    H280601   6.683   5.247  11.278 -1.0301 -0.1696  1.5100
19704TIP3   OH280602   0.519   4.199  11.852  0.3091  0.2564 -0.2308
19704TIP3    H180603   0.477   4.161  11.775  0.7799 -0.2941 -0.2194
19704TIP3    H280604   0.585   4.135  11.878  1.4480  1.2849 -0.4977
19705TIP3   OH280605   1.459   2.722  15.980  0.3081  0.1954 -0.1825
19705TIP3    H180606   1.417   2.736  15.896 -0.2158  0.0735  0.0547
19705TIP3    H280607   1.549   2.696  15.958  0.0298 -0.3440 -0.7128
19706TIP3   OH280608   2.885   3.415  14.042  0.2007 -0.2206 -0.6125
19706TIP3    H180609   2.797   3.380  14.033 -1.2226  3.2157 -2.0565
19706TIP3    H280610   2.930   3.388  13.962 -0.2559 -0.2980 -0.8490
19707TIP3   OH280611   2.999   3.805   3.582  0.4393  0.4530  0.1614
19707TIP3    H180612   2.997   3.810   3.486  0.4129  0.4504  0.1618
19707TIP3    H280613   2.942   3.876   3.611  0.2316  0.2834  0.1705
19708TIP3   OH280614   3.344   1.864  13.016 -0.2221 -0.1519  0.1859
19708TIP3    H180615   3.433   1.899  13.023 -0.2851  0.3901 -1.2517
19708TIP3    H280616   3.349   1.778  13.056  1.2928 -0.6631 -0.9789
19709TIP3   OH280617   2.014   2.711  17.012  0.4116 -0.0020 -0.4140
19709TIP3    H180618   1.931   2.720  16.965  0.6060 -0.3035 -0.8131
19709TIP3    H280619   2.034   2.800  17.042 -0.1822  0.0311 -0.0976
19710TIP3   OH280620   3.950   6.588   5.309  0.3531 -0.1606  0.6468
19710TIP3    H180621   3.988   6.503   5.328 -0.1944 -0.4306  0.5606
19710TIP3    H280622   3.944   6.631   5.395 -0.6618 -0.7639  0.8991
19711TIP3   OH280623   3.903   5.582   3.409 -0.4986 -0.4136  0.5082
19711TIP3    H180624   3.981   5.529   3.390 -0.5704 -0.4177  0.2279
19711TIP3    H280625   3.904   5.591   3.505  0.9597  1.2431  0.3938
19712TIP3   OH280626   2.459   5.584  14.384 -0.4285  0.2714  0.3144
19712TIP3    H180627   2.505   5.663  14.412 -0.6297  0.1998  0.8629
19712TIP3    H280628   2.375   5.588  14.429 -1.2487  0.7426 -1.1996
19713TIP3   OH280629   5.138   3.704   4.000  0.1276 -0.1508 -0.0116
19713TIP3    H180630   5.071   3.770   3.980  1.5943  1.7445  1.0307
19713TIP3    H280631   5.134   3.643   3.926 -0.0808  2.1014 -1.9841
19714TIP3   OH280632   2.573   4.922  11.830 -0.6349 -0.7044  0.2435
19714TIP3    H180633   2.509   4.894  11.895 -0.7966 -0.6383  0.1146
19714TIP3    H280634   2.655   4.931  11.878 -0.8887 -0.0508  0.5727
19715TIP3   OH280635   5.992   4.390  13.803 -0.3667 -0.4967 -0.3083
19715TIP3    H180636   5.914   4.357  13.848 -1.5841  2.7702  0.2412
19715TIP3    H280637   6.066   4.358  13.855 -1.3604 -2.5412 -0.0704
19716TIP3   OH280638   5.190   1.480   2.102  0.8033  0.4621 -0.6264
19716TIP3    H180639   5.131   1.554   2.087  0.1858 -0.0875 -0.9920
19716TIP3    H280640   5.133   1.410   2.133  0.9193 -0.6978 -2.8380
19717TIP3   OH280641   3.288   4.484  15.015  0.5071  0.3883  0.0346
19717TIP3    H180642   3.233   4.556  15.048  0.7183  1.1782 -1.2691
19717TIP3    H280643   3.246   4.405  15.048 -0.7052  1.0380  0.1077
19718TIP3   OH280644   5.048   6.023   3.437 -0.4052 -0.2052  0.6837
19718TIP3    H180645   5.140   6.002   3.420 -0.4074  0.0377  0.3668
19718TIP3    H280646   5.011   6.043   3.351 -0.4577  0.8898  0.9481
19719TIP3   OH280647   1.601   4.630  16.145  0.0954 -0.4481 -0.3495
19719TIP3    H180648   1.506   4.623  16.154  0.1841 -1.9191 -0.2170
19719TIP3    H280649   1.625   4.708  16.194 -0.9974 -0.3438  0.0342
19720TIP3   OH280650   0.188   5.766  15.556 -0.3860  0.4395 -0.1379
19720TIP3    H180651   0.104   5.763  15.512 -0.6753  0.4678  0.4079
19720TIP3    H280652   0.221   5.676  15.551 -1.0812  0.1186  0.8572
19721TIP3   OH280653   6.656   0.934  16.486 -0.1865 -0.1521 -0.3513
19721TIP3    H180654   6.661   0.911  16.579  0.6717 -2.4999 -0.8947
19721TIP3    H280655   6.696   1.020  16.480 -0.4052  0.1180  1.4674
19722TIP3   OH280656   5.177   5.264  13.179  0.1459 -0.3334  0.2262
19722TIP3    H180657   5.223   5.301  13.104  0.4474  2.3812  1.6185
19722TIP3    H280658   5.241   5.204  13.219  1.0881  0.4860 -0.0067
19723TIP3   OH280659   3.027   0.897  11.314 -0.2153 -0.3183 -0.1573
19723TIP3    H180660   3.052   0.972  11.368  0.1737  0.9874 -2.0154
19723TIP3    H280661   3.078   0.908  11.234  0.1010 -2.8023 -0.3631
19724TIP3   OH280662   3.273   1.023  16.136  0.0750  0.1159  0.5845
19724TIP3    H180663   3.199   1.025  16.196  1.2985 -0.0898  2.1464
19724TIP3    H280664   3.347   0.995  16.189  1.4196  0.9191 -0.7802
19725TIP3   OH280665   2.260   0.913   1.195 -0.5312  0.6323 -0.2405
19725TIP3    H180666   2.222   0.894   1.281  0.8151 -0.5325  0.1346
19725TIP3    H280667   2.332   0.973   1.213 -0.0173  0.1072 -0.4913
19726TIP3   OH280668   1.944   1.389   1.349  0.0287 -0.6651  0.7015
19726TIP3    H180669   1.880   1.321   1.371 -1.1189  0.5390  1.1800
19726TIP3    H280670   1.909   1.430   1.270 -0.3057  0.6385  1.5136
19727TIP3   OH280671   6.459   6.257   5.203 -0.7025 -0.2305  0.4094
19727TIP3    H180672   6.395   6.207   5.153 -0.3385 -0.7937  0.4996
19727TIP3    H280673   6.449   6.347   5.171 -1.1557 -0.4088  0.0357
19728TIP3   OH280674   5.211   2.051  16.348 -0.1012  0.7926  0.1002
19728TIP3    H180675   5.181   1.971  16.392 -3.0474  2.2517  0.9954
19728TIP3    H280676   5.257   2.100  16.417  1.5235  0.0445 -0.3970
19729TIP3   OH280677   6.745   6.256   6.279  0.3218 -0.3311  0.3472
19729TIP3    H180678   6.689   6.211   6.216  0.3240  0.0262  0.0912
19729TIP3    H280679   6.723   6.215   6.363  1.2167 -1.6940 -0.0450
19730TIP3   OH280680   5.251   5.891  14.773 -0.0912  0.2719  0.1486
19730TIP3    H180681   5.158   5.892  14.750  0.2553  1.5082 -1.4736
19730TIP3    H280682   5.261   5.963  14.836  0.2487  2.5563 -2.3206
19731TIP3   OH280683   4.011   6.294  11.280 -0.4959  0.6402 -0.3464
19731TIP3    H180684   4.056   6.347  11.214  0.9188 -1.4394 -1.1588
19731TIP3    H280685   3.943   6.352  11.315  0.4064  2.6740 -1.7508
19732TIP3   OH280686   3.832   5.780   0.251  0.4877  0.4173 -0.4519
19732TIP3    H180687   3.758   5.832   0.282 -0.9728 -0.9655 -1.4563
19732TIP3    H280688   3.879   5.755   0.330  0.7615  2.5150  0.1053
19733TIP3   OH280689   3.159   3.609  14.825  0.2246 -0.0232  0.4411
19733TIP3    H180690   3.235   3.660  14.799  0.1439 -0.1412 -0.0349
19733TIP3    H280691   3.086   3.671  14.821  0.4998  0.5026  2.3798
19734TIP3   OH280692   1.502   3.179   0.098 -0.1630 -0.6881  0.2072
19734TIP3    H180693   1.573   3.220   0.147 -1.5088  0.1146  1.5647
19734TIP3    H280694   1.521   3.201   0.007  0.7953  0.3466  0.6263
19735TIP3   OH280695   0.877   2.521   3.528 -0.0074 -0.1453 -0.2128
19735TIP3    H180696   0.785   2.502   3.547  0.9551 -3.2344  2.3282
19735TIP3    H280697   0.905   2.578   3.600  0.1649  0.5426 -0.8160
19736TIP3   OH280698   5.169   0.002  16.966 -0.0698 -0.0447  0.2315
19736TIP3    H180699   5.256  -0.036  16.950 -0.2304 -0.2096 -0.2835
19736TIP3    H280700   5.134  -0.050  17.039 -0.5311 -1.3284 -0.8568
19737TIP3   OH280701   5.242   4.999  11.328  0.3746  0.1456 -0.3080
19737TIP3    H180702   5.325   5.041  11.306 -0.2574  1.9083  0.4701
19737TIP3    H280703   5.232   4.930  11.263  0.6440  2.3532 -2.8817
19738TIP3   OH280704   0.439   4.749  11.947  0.2078  0.0828  0.0852
19738TIP3    H180705   0.504   4.774  12.013  0.0889 -0.6717  0.5015
19738TIP3    H280706   0.482   4.682  11.895 -1.3404 -3.2497  2.6516
19739TIP3   OH280707   3.195   1.177  14.653 -0.7204  0.2608 -0.1277
19739TIP3    H180708   3.189   1.219  14.568 -2.0296  0.9148  0.2530
19739TIP3    H280709   3.193   1.249  14.716  2.0324 -0.0892  0.4607
19740TIP3   OH280710   1.858   2.852   4.185  0.0017 -0.0611  0.3891
19740TIP3    H180711   1.792   2.792   4.218 -1.6342  1.2311 -0.4189
19740TIP3    H280712   1.841   2.935   4.230 -1.3390  1.3195 -2.3831
19741TIP3   OH280713   1.812   3.794  12.666  0.0596 -0.2856 -0.2964
19741TIP3    H180714   1.907   3.793  12.654  0.4496 -0.8433  2.2327
19741TIP3    H280715   1.790   3.884  12.687 -0.2568  0.1680 -2.3569
19742TIP3   OH280716   0.765   3.015   3.716  0.0525  0.6515 -0.0255
19742TIP3    H180717   0.764   3.029   3.811  2.1442 -0.1953  0.1707
19742TIP3    H280718   0.677   2.980   3.696  0.1259 -0.7996  1.8929
19743TIP3   OH280719   2.092   1.509  13.956 -0.1532 -0.3061  0.3757
19743TIP3    H180720   2.112   1.602  13.971 -0.9033  0.1690 -1.3850
19743TIP3    H280721   2.163   1.478  13.901 -0.7369 -0.3565 -0.3526
19744TIP3   OH280722   3.395   1.568   2.304 -0.2476  0.2203 -0.2761
19744TIP3    H180723   3.435   1.487   2.338 -0.5822 -0.0164 -0.4415
19744TIP3    H280724   3.429   1.637   2.361 -0.7845 -0.1633  0.5310
19745TIP3   OH280725   6.636   0.423  13.426 -0.2582  0.0433 -0.4889
19745TIP3    H180726   6.680   0.491  13.375  1.2568 -0.2446  0.3536
19745TIP3    H280727   6.690   0.413  13.505 -1.8801 -0.3233  0.6388
19746TIP3   OH280728   0.430   1.944  15.045  0.0219  0.1541  0.3278
19746TIP3    H180729   0.351   1.998  15.041  0.3763  0.6571 -3.5267
19746TIP3    H280730   0.502   2.006  15.031  0.9874 -0.5932  1.7089
19747TIP3   OH280731   2.248   6.783  15.910  0.2060 -0.1572 -0.2621
19747TIP3    H180732   2.275   6.781  15.819 -2.1512 -0.9116 -1.0221
19747TIP3    H280733   2.231   6.691  15.932  0.6736  0.0243  0.9392
19748TIP3   OH280734   2.267   6.524   5.147  0.4463 -0.5936  0.4134
19748TIP3    H180735   2.287   6.467   5.073  0.4043  1.6002 -1.3911
19748TIP3    H280736   2.344   6.581   5.155 -0.7022  1.0640  0.1752
19749TIP3   OH280737   5.070   2.693   2.664  0.0913 -0.2685 -0.2815
19749TIP3    H180738   5.105   2.608   2.690 -0.1369 -0.0047  0.9600
19749TIP3    H280739   4.975   2.680   2.661  0.0324 -0.0030  0.1976
19750TIP3   OH280740   5.797   5.538  11.414 -0.2827  0.5767  0.7793
19750TIP3    H180741   5.881   5.533  11.369 -0.6056  0.3831  0.1901
19750TIP3    H280742   5.784   5.631  11.431 -0.9924  0.8724 -1.1489
19751TIP3   OH280743   5.236   5.518  12.594  0.7192 -0.4399 -0.3403
19751TIP3    H180744   5.146   5.489  12.580  1.0249 -0.3916 -2.7669
19751TIP3    H280745   5.229   5.612  12.613  0.2547 -0.4110 -0.6561
19752TIP3   OH280746   0.178   0.491   5.053 -0.0433 -0.3471 -0.3156
19752TIP3    H180747   0.242   0.562   5.054 -1.5603  1.0665  0.2003
19752TIP3    H280748   0.120   0.510   5.127 -1.8890 -0.7815 -1.5782
19753TIP3   OH280749   5.767   0.033  12.147 -0.0019 -0.1655 -0.8206
19753TIP3    H180750   5.805   0.061  12.064 -0.1247 -0.4367 -0.9705
19753TIP3    H280751   5.837  -0.018  12.189  0.8630  1.7901  0.2467
19754TIP3   OH280752   3.219   4.631   2.609  0.3862  0.5741 -0.2586
19754TIP3    H180753   3.202   4.704   2.549 -0.0116  0.3823 -0.3866
19754TIP3    H280754   3.160   4.647   2.682 -0.4200 -0.1352 -0.7350
19755TIP3   OH280755   3.391   2.564  12.691  0.5053 -0.0448  0.0254
19755TIP3    H180756   3.318   2.513  12.727  0.9262  0.8810  2.3944
19755TIP3    H280757   3.467   2.506  12.699  0.7987  0.5122  1.7891
19756TIP3   OH280758   2.135   2.086  10.970  0.1137  0.0609  0.4354
19756TIP3    H180759   2.134   2.162  11.029  1.2904  0.6516 -0.2742
19756TIP3    H280760   2.225   2.055  10.973 -0.3154 -1.2342  0.5803
19757TIP3   OH280761   0.133   3.665  14.469 -0.1204  0.0490  0.1153
19757TIP3    H180762   0.055   3.628  14.427 -0.0280 -0.5486  0.4526
19757TIP3    H280763   0.204   3.606  14.443 -0.0711 -0.3657  1.1319
19758TIP3   OH280764   2.176   5.445  12.199 -0.0138 -0.1309 -0.2924
19758TIP3    H180765   2.199   5.535  12.220  0.2190  0.4980 -2.8881
19758TIP3    H280766   2.097   5.427  12.251 -0.7733  2.0097 -0.6306
19759TIP3   OH280767   6.028   5.795  15.283 -0.0437  0.8031  0.4635
19759TIP3    H180768   6.082   5.855  15.335  1.2063  1.2148 -1.1927
19759TIP3    H280769   6.080   5.716  15.276  1.5946  1.9744 -3.0466
19760TIP3   OH280770   4.727   6.829   2.262  0.3798 -0.3835 -0.0751
19760TIP3    H180771   4.750   6.879   2.183 -0.0459  0.5195  0.3557
19760TIP3    H280772   4.796   6.851   2.325  1.0923 -1.6280 -0.3908
19761TIP3   OH280773   5.863   5.068  14.486 -0.1977 -0.1970  0.5102
19761TIP3    H180774   5.864   5.154  14.443  0.5080 -0.4217  0.0704
19761TIP3    H280775   5.902   5.084  14.572  1.6581 -0.4160 -0.2550
19762TIP3   OH280776   5.333   6.619   1.847 -0.1878 -0.0911 -0.0881
19762TIP3    H180777   5.320   6.617   1.752 -0.8500 -2.2782 -0.0180
19762TIP3    H280778   5.260   6.670   1.881  0.3859  1.2177 -0.7715
19763TIP3   OH280779   3.522   6.072  16.663  0.6036 -0.3866 -0.0757
19763TIP3    H180780   3.435   6.109  16.679  0.6835 -0.5808  0.8222
19763TIP3    H280781   3.516   6.037  16.574 -0.3104 -0.6158  0.0649
19764TIP3   OH280782   3.094   4.398  14.005  0.3265 -0.0296 -0.0872
19764TIP3    H180783   3.053   4.452  14.073  0.8836 -0.9726  1.0367
19764TIP3    H280784   3.065   4.309  14.025  0.9673 -0.3925 -0.7458
19765TIP3   OH280785   6.097   6.575  13.477 -0.1014 -0.2232 -0.1164
19765TIP3    H180786   6.086   6.607  13.567 -0.9405 -0.4260 -0.1368
19765TIP3    H280787   6.037   6.501  13.471 -0.3001 -0.0024 -0.9492
19766TIP3   OH280788   5.154   4.419   1.872  0.1316  0.2027 -0.4802
19766TIP3    H180789   5.248   4.428   1.887  0.4335 -0.8164 -1.6926
19766TIP3    H280790   5.114   4.448   1.954  1.5202  0.0810  0.2596
19767TIP3   OH280791   2.328   4.917  15.126 -0.0224  0.6639 -0.4395
19767TIP3    H180792   2.398   4.982  15.129  0.3528  0.2462  0.1127
19767TIP3    H280793   2.367   4.838  15.163 -0.3727  0.0236 -1.4023
19768TIP3   OH280794   0.699   6.153  15.189  0.1233  0.0292 -0.7053
19768TIP3    H180795   0.619   6.131  15.237 -0.6379 -0.5263 -2.1558
19768TIP3    H280796   0.669   6.180  15.102  1.5337 -1.1065 -1.6110
19769TIP3   OH280797   1.202   2.393  10.889 -0.0198 -0.3348 -0.2121
19769TIP3    H180798   1.252   2.344  10.823 -1.3726  0.9535 -2.3338
19769TIP3    H280799   1.188   2.330  10.960  1.4827 -1.8236 -1.1425
19770TIP3   OH280800   3.714   0.081  14.915 -0.1265 -0.1852  0.4581
19770TIP3    H180801   3.637   0.125  14.952  0.1461  0.0806  0.7277
19770TIP3    H280802   3.722   0.117  14.826 -1.5008 -1.7395 -0.3280
19771TIP3   OH280803   0.993   3.347   2.250 -0.3949 -0.1516  0.4557
19771TIP3    H180804   1.012   3.262   2.210  1.7880  1.3229 -1.9031
19771TIP3    H280805   0.954   3.399   2.180  1.0843  1.7043  0.9407
19772TIP3   OH280806   5.131   2.507  13.057  0.4703  0.3982  0.5434
19772TIP3    H180807   5.196   2.508  12.986  0.2076 -2.9491  0.1238
19772TIP3    H280808   5.147   2.589  13.104  2.6860  1.3171 -1.5564
19773TIP3   OH280809   2.059   4.513   1.520  0.8195 -0.4520  0.4225
19773TIP3    H180810   2.117   4.588   1.508 -0.2148  0.1885 -0.9010
19773TIP3    H280811   1.982   4.549   1.564  0.6327 -0.8855  0.4584
19774TIP3   OH280812   3.691   3.665  13.335 -0.0604 -0.2540  0.0175
19774TIP3    H180813   3.636   3.684  13.410  0.2312 -0.9104  0.4055
19774TIP3    H280814   3.679   3.740  13.276  0.6947  0.8868  1.2672
19775TIP3   OH280815   4.694   3.021  11.661 -0.2862 -0.7505 -0.2608
19775TIP3    H180816   4.672   3.050  11.750 -0.9078  0.6585 -0.8510
19775TIP3    H280817   4.625   2.958  11.639 -0.0932 -1.1526  0.2650
19776TIP3   OH280818   6.607   3.958  14.360  0.3320 -0.1334  0.0098
19776TIP3    H180819   6.680   3.961  14.422 -0.0831  0.3648  0.4914
19776TIP3    H280820   6.595   4.050  14.333 -0.4695 -0.1311  0.3591
19777TIP3   OH280821   2.106   5.992   2.728 -0.3640 -0.2686 -0.3380
19777TIP3    H180822   2.131   5.906   2.763  1.1848  0.7546  1.2172
19777TIP3    H280823   2.157   6.055   2.779 -1.9897  1.6498 -0.9412
19778TIP3   OH280824   3.720   5.918   3.536 -0.3210 -0.0247  0.1905
19778TIP3    H180825   3.656   5.849   3.555 -0.0938  0.1737  1.7930
19778TIP3    H280826   3.677   5.998   3.567  0.0131  0.3521 -0.3192
19779TIP3   OH280827   5.681   4.009  14.811 -0.4597 -0.0355 -0.3844
19779TIP3    H180828   5.592   3.997  14.845 -0.2735  0.3602  0.2533
19779TIP3    H280829   5.737   3.964  14.874 -0.0897  0.9288 -0.0153
19780TIP3   OH280830   3.343   6.032  13.016 -0.5584  0.4233  0.2636
19780TIP3    H180831   3.383   6.111  13.051 -0.2785  0.0172  0.8785
19780TIP3    H280832   3.332   6.049  12.922  1.9528  0.1809 -0.1292
19781TIP3   OH280833   0.547   5.986  16.437  0.8145 -0.2994  0.6362
19781TIP3    H180834   0.506   5.927  16.501 -0.0911  0.1327  0.4671
19781TIP3    H280835   0.522   6.074  16.467 -0.1413 -0.1050 -0.6415
19782TIP3   OH280836   5.730   2.261  16.992 -0.1401 -0.0839 -0.0818
19782TIP3    H180837   5.811   2.252  17.041 -0.1914 -0.8028 -0.1232
19782TIP3    H280838   5.754   2.315  16.917  0.2657 -0.1511 -0.0049
19783TIP3   OH280839   2.215   4.852   6.271  0.0737 -0.4785  0.2290
19783TIP3    H180840   2.163   4.922   6.232  0.2739 -0.1484  0.5522
19783TIP3    H280841   2.156   4.810   6.333 -0.3042 -1.1198 -0.5394
19784TIP3   OH280842   3.336   1.463  15.638 -0.3394  0.0492 -0.1988
19784TIP3    H180843   3.334   1.463  15.542 -2.8701  0.2942 -0.2003
19784TIP3    H280844   3.364   1.374  15.661 -2.0338 -0.7946 -1.2055
19785TIP3   OH280845   2.209   5.989   0.642  0.0926 -0.2485 -0.0122
19785TIP3    H180846   2.238   6.030   0.724  1.6903 -0.1201 -0.6152
19785TIP3    H280847   2.282   5.933   0.617 -1.9461 -3.4970  0.7304
19786TIP3   OH280848   0.318   6.345  16.317 -0.2560 -0.2800 -0.1234
19786TIP3    H180849   0.312   6.360  16.411 -1.4149 -1.0152 -0.0541
19786TIP3    H280850   0.409   6.362  16.295 -0.3848  1.9129  0.7606
19787TIP3   OH280851   5.623   5.915  11.145 -0.5082 -0.5848 -0.3961
19787TIP3    H180852   5.705   5.945  11.105  0.6985 -0.5363  1.9862
19787TIP3    H280853   5.610   5.827  11.109  1.7186 -1.4269  0.6785
19788TIP3   OH280854   0.913   6.233  13.824 -0.3148  0.0899  0.0357
19788TIP3    H180855   0.854   6.190  13.886 -1.5608  0.4777 -0.8335
19788TIP3    H280856   0.960   6.161  13.782 -0.5407 -0.2695  0.3944
19789TIP3   OH280857   2.513   1.078  11.551 -0.6547  0.2223  0.4618
19789TIP3    H180858   2.604   1.056  11.530 -0.3543 -1.7374  3.2486
19789TIP3    H280859   2.473   1.097  11.466  2.0185 -0.0931 -0.9885
19790TIP3   OH280860   6.291   5.227  16.278 -0.2468  0.6071  0.0527
19790TIP3    H180861   6.286   5.295  16.211 -0.6850  0.9314  0.4092
19790TIP3    H280862   6.320   5.273  16.356  2.3684 -0.1180 -0.3875
19791TIP3   OH280863   2.938   2.751  11.675  0.0042 -0.3940  0.3533
19791TIP3    H180864   2.948   2.658  11.654 -3.8421 -0.7106 -0.8853
19791TIP3    H280865   2.992   2.796  11.610 -0.9427 -1.7613 -1.4794
19792TIP3   OH280866   3.477   2.105  11.144  0.5688  0.0044  0.0091
19792TIP3    H180867   3.449   2.095  11.235  1.3987 -0.8889  0.1895
19792TIP3    H280868   3.517   2.192  11.140 -2.6018  1.5816 -0.4016
19793TIP3   OH280869   5.866   2.081  11.957  0.2468  0.5537 -0.3587
19793TIP3    H180870   5.938   2.019  11.964  0.7459  1.1367 -0.3025
19793TIP3    H280871   5.797   2.032  11.912  1.4316  0.6472 -2.3554
19794TIP3   OH280872   3.880   3.047   5.816 -0.4057 -0.0362  0.2754
19794TIP3    H180873   3.914   2.979   5.757 -2.4750  0.0447 -1.1010
19794TIP3    H280874   3.869   3.002   5.900 -0.5615 -1.0958 -0.2862
19795TIP3   OH280875   3.261   0.420   4.794 -0.4350  0.2840 -0.7558
19795TIP3    H180876   3.222   0.469   4.721 -1.3386  2.3138  0.9949
19795TIP3    H280877   3.333   0.371   4.753 -2.3481 -0.5791 -3.4152
19796TIP3   OH280878   4.919   1.999   0.479  0.4536 -0.2669 -0.0594
19796TIP3    H180879   4.887   1.964   0.396  1.3403 -1.6900  0.1525
19796TIP3    H280880   4.842   2.002   0.535  0.1731 -1.0855 -0.3762
19797TIP3   OH280881   2.396   3.442  11.108 -0.1278  1.1539  0.0251
19797TIP3    H180882   2.389   3.377  11.037 -2.8516 -0.6614  1.7544
19797TIP3    H280883   2.480   3.422  11.150 -0.0473 -0.0107 -0.6277
19798TIP3   OH280884   5.906   6.398  13.157 -0.2279 -0.5045 -0.2977
19798TIP3    H180885   5.910   6.428  13.066 -0.9442 -1.1137 -0.5354
19798TIP3    H280886   5.887   6.305  13.151  0.5322 -0.7228  0.4692
19799TIP3   OH280887   2.742   5.915   5.068  0.0261  0.1770  0.4082
19799TIP3    H180888   2.741   5.981   5.138  0.8492  2.1403 -1.3120
19799TIP3    H280889   2.779   5.961   4.993 -2.7435 -1.1910 -1.9787
19800TIP3   OH280890   1.342   0.969   2.843 -0.1029 -0.6444  0.4041
19800TIP3    H180891   1.355   0.971   2.938  0.3761 -1.1188  0.3543
19800TIP3    H280892   1.370   1.056   2.814 -4.4874  1.2973  1.1563
19801TIP3   OH280893   4.702   1.532  12.554 -0.0570  0.7161  0.5528
19801TIP3    H180894   4.649   1.552  12.477 -0.4434  0.9202  0.8725
19801TIP3    H280895   4.780   1.587  12.544 -0.5102  1.4022  0.7544
19802TIP3   OH280896   4.727   4.324  12.818  0.2038 -0.7703 -0.2348
19802TIP3    H180897   4.771   4.239  12.807 -0.1998 -0.9035 -0.8795
19802TIP3    H280898   4.668   4.330  12.743 -1.4281 -0.9181  0.9785
19803TIP3   OH280899   4.591   6.446  12.550  0.4655 -0.5116 -0.6927
19803TIP3    H180900   4.622   6.375  12.605 -0.7400  1.1846  2.4361
19803TIP3    H280901   4.501   6.423  12.527 -0.1302  0.1789  0.8188
19804TIP3   OH280902   5.081   2.743  16.967 -0.1521  0.2265 -0.0282
19804TIP3    H180903   5.028   2.800  17.022  0.6064  0.5962  0.3386
19804TIP3    H280904   5.028   2.728  16.889 -0.6286  0.9097  0.1614
19805TIP3   OH280905   1.436   3.094   1.939 -0.2934 -0.0601  0.5901
19805TIP3    H180906   1.454   3.005   1.971 -1.5727 -0.1800  1.0187
19805TIP3    H280907   1.371   3.129   2.000 -0.2070  0.9829  0.1041
19806TIP3   OH280908   3.370   2.417  11.225 -0.0844 -0.3724 -0.0159
19806TIP3    H180909   3.275   2.426  11.219 -0.0202  0.3379 -0.1317
19806TIP3    H280910   3.403   2.468  11.151  0.4320  0.8031  0.9718
19807TIP3   OH280911   4.125   4.011   5.793 -0.2973  0.4840 -0.9083
19807TIP3    H180912   4.176   4.065   5.853  1.1084  0.9060 -2.3986
19807TIP3    H280913   4.047   3.987   5.842  1.2768 -0.1083  1.4529
19808TIP3   OH280914   4.979   1.665   0.582  0.9129  0.1223 -0.2131
19808TIP3    H180915   5.041   1.706   0.522  0.2080 -0.2423 -1.2159
19808TIP3    H280916   4.998   1.705   0.667  0.4621  2.3360 -1.0897
19809TIP3   OH280917   6.389   3.633   3.704  0.1304 -0.2277  0.4980
19809TIP3    H180918   6.323   3.702   3.714 -0.7520 -0.9468 -0.2201
19809TIP3    H280919   6.348   3.554   3.739  1.1534 -0.3908  1.3642
19810TIP3   OH280920   1.606   4.017   1.104  0.0339 -0.5994  0.5939
19810TIP3    H180921   1.635   4.003   1.194 -0.1229 -2.0874  0.4263
19810TIP3    H280922   1.682   3.997   1.050  0.2900  0.7919  0.3793
19811TIP3   OH280923   1.025   3.619   0.924 -0.3545  0.3495  0.0095
19811TIP3    H180924   0.973   3.682   0.874 -0.5950 -0.0753 -0.2761
19811TIP3    H280925   0.965   3.546   0.941  0.2613 -0.3242 -0.6600
19812TIP3   OH280926   5.438   1.805  13.630  0.0693 -0.5451  0.4255
19812TIP3    H180927   5.365   1.744  13.635 -0.1460 -0.6508 -2.2702
19812TIP3    H280928   5.480   1.784  13.546  2.7741 -0.0055  1.5476
19813TIP3   OH280929   5.083   4.527   5.363 -0.1633  0.3701 -0.0103
19813TIP3    H180930   5.120   4.610   5.332  0.0772  0.2303 -0.0949
19813TIP3    H280931   5.001   4.553   5.406 -0.6490  0.5299 -1.0100
19814TIP3   OH280932   4.405   2.058  15.156  0.8714  0.5614  0.1383
19814TIP3    H180933   4.318   2.071  15.194  0.5708  0.2986 -0.4442
19814TIP3    H280934   4.463   2.111  15.211  0.6033 -0.5015  1.5004
19815TIP3   OH280935   3.305   4.394  11.548  0.4028 -0.2676 -0.2414
19815TIP3    H180936   3.216   4.398  11.514  0.7884  1.8940 -1.1507
19815TIP3    H280937   3.351   4.466  11.505  2.1113 -0.1794  1.5570
19816TIP3   OH280938   3.515   3.388   3.249  0.0861  0.5274  0.3787
19816TIP3    H180939   3.592   3.330   3.254  1.5369  2.3120 -0.2285
19816TIP3    H280940   3.442   3.329   3.229  1.2825 -1.2330  0.9801
19817TIP3   OH280941   2.334   3.958  16.345  0.3222 -0.0386 -0.2355
19817TIP3    H180942   2.353   3.987  16.256 -0.3796 -0.6399 -0.5851
19817TIP3    H280943   2.243   3.930  16.343  1.2006 -3.3837 -0.2526
19818TIP3   OH280944   3.715   5.529   0.278 -0.2249 -0.1330  0.3065
19818TIP3    H180945   3.727   5.463   0.210  1.5834 -1.0463  1.4445
19818TIP3    H280946   3.773   5.600   0.253 -0.5242  0.0871  0.2333
19819TIP3   OH280947   6.458   4.956   3.803 -0.1961  0.2581  0.1119
19819TIP3    H180948   6.545   4.957   3.842  0.5522  0.0377 -1.4729
19819TIP3    H280949   6.471   4.918   3.716 -1.8992  0.1083 -0.1171
19820TIP3   OH280950   4.573   2.589  11.103  0.4519 -0.3294  0.1945
19820TIP3    H180951   4.525   2.583  11.021  1.0266  1.1933 -0.2892
19820TIP3    H280952   4.584   2.683  11.118 -0.3727 -0.5382  2.4669
19821TIP3   OH280953   4.751   2.807  11.379  0.1523 -0.4972 -0.0536
19821TIP3    H180954   4.697   2.864  11.324  0.5763 -0.3215 -0.2913
19821TIP3    H280955   4.805   2.757  11.317  0.4776 -0.4541  0.1924
19822TIP3   OH280956   2.778   0.283   5.483  0.4353 -0.1560 -0.0317
19822TIP3    H180957   2.704   0.271   5.543  1.6301 -1.6938  1.1923
19822TIP3    H280958   2.757   0.365   5.437 -1.3093  0.2304  1.3166
19823TIP3   OH280959   1.837   4.673  13.892  0.3297 -0.5344 -0.1301
19823TIP3    H180960   1.871   4.763  13.893  0.1442 -0.4062  2.2540
19823TIP3    H280961   1.854   4.641  13.981 -0.9094 -2.3480 -0.5073
19824TIP3   OH280962   3.751   0.479   1.967  1.3713 -0.2226 -0.5801
19824TIP3    H180963   3.739   0.504   2.059 -1.1491 -1.4454 -0.4997
19824TIP3    H280964   3.751   0.562   1.920 -1.1199  0.3384  0.2305
19825TIP3   OH280965   0.850   2.947   5.629  0.1229 -0.0885 -0.6906
19825TIP3    H180966   0.845   3.042   5.616 -1.2531  0.0724  0.6952
19825TIP3    H280967   0.941   2.925   5.612  0.4579  1.4742 -1.0510
19826TIP3   OH280968   1.541   6.269  13.515 -0.7435 -0.0170  0.1374
19826TIP3    H180969   1.591   6.279  13.596 -1.1361 -0.2070  0.4072
19826TIP3    H280970   1.544   6.175  13.497 -0.7254  0.0145 -0.0277
19827TIP3   OH280971   4.022   4.430  11.355 -0.5228 -0.2241  0.6363
19827TIP3    H180972   3.981   4.516  11.365  1.2445  0.7470 -0.1079
19827TIP3    H280973   4.044   4.403  11.444 -2.3319 -0.5956  1.0177
19828TIP3   OH280974   2.452   0.166  15.476 -0.1596 -0.3037 -0.0322
19828TIP3    H180975   2.532   0.138  15.432  0.9000 -1.4830  2.4458
19828TIP3    H280976   2.473   0.252  15.512 -0.7047  0.2430 -0.9736
19829TIP3   OH280977   4.968   2.654   5.838 -0.2971  0.2598 -0.3197
19829TIP3    H180978   5.005   2.604   5.911 -0.0756 -0.1583 -0.7187
19829TIP3    H280979   4.920   2.725   5.881 -0.9045 -0.4795  0.2524
19830TIP3   OH280980   1.660   3.851  15.429  0.5423 -0.0467 -0.7161
19830TIP3    H180981   1.586   3.895  15.388 -0.1077  1.4199  1.7910
19830TIP3    H280982   1.666   3.767  15.384  0.4134  1.6326 -4.2128
19831TIP3   OH280983   1.991   6.161   3.729 -0.7863  0.0807 -0.2363
19831TIP3    H180984   1.909   6.148   3.777  0.9256 -1.2959  2.6280
19831TIP3    H280985   2.035   6.232   3.776  0.7429 -0.9763  0.0265
19832TIP3   OH280986   2.861   5.003   5.766  0.5143 -0.2114  0.4584
19832TIP3    H180987   2.784   4.950   5.787  0.4117  0.2535  1.2861
19832TIP3    H280988   2.862   5.007   5.670 -0.4835 -0.2291  0.4397
19833TIP3   OH280989   1.817   4.764  16.578 -0.3163  0.2231 -0.4952
19833TIP3    H180990   1.778   4.678  16.594  1.4185 -0.7911 -1.4130
19833TIP3    H280991   1.840   4.763  16.485  1.0828  1.0886 -0.1893
19834TIP3   OH280992   6.706   4.538  15.393 -0.1076  0.2543  0.0838
19834TIP3    H180993   6.683   4.447  15.412  0.5124 -0.4688 -2.2750
19834TIP3    H280994   6.790   4.533  15.349 -0.0377  1.9972 -0.0583
19835TIP3   OH280995   3.116   0.772   2.981 -0.3369  0.5588  0.1489
19835TIP3    H180996   3.040   0.807   3.026 -0.4466 -0.1427  0.5278
19835TIP3    H280997   3.124   0.824   2.901 -0.7325  1.1568  0.4999
19836TIP3   OH280998   2.911   0.498   1.081 -0.0020  0.0545  0.9806
19836TIP3    H180999   2.827   0.455   1.064 -0.3509  0.0804  2.4715
19836TIP3    H281000   2.888   0.590   1.092  0.6009  0.5135 -1.1648
19837TIP3   OH281001   0.418   5.606  12.575  0.0981  0.2137  0.2845
19837TIP3    H181002   0.496   5.554  12.556 -0.0667  0.2019 -0.3697
19837TIP3    H281003   0.349   5.566  12.523 -0.1122  0.8755  0.0404
19838TIP3   OH281004   2.653   6.767  11.369  0.0862  0.1466  0.2321
19838TIP3    H181005   2.608   6.780  11.452  0.1721  1.2090  0.1216
19838TIP3    H281006   2.738   6.811  11.381 -0.8079  2.3855 -1.1952
19839TIP3   OH281007   3.538   4.805  14.879 -0.1385 -0.2276  0.0664
19839TIP3    H181008   3.490   4.844  14.952  0.7121 -1.6142  1.4345
19839TIP3    H281009   3.471   4.787  14.813 -1.5543 -1.9749  1.8499
19840TIP3   OH281010   1.771   1.334   0.244  0.1839  0.7573 -0.0319
19840TIP3    H181011   1.790   1.325   0.150 -0.1833  0.6138 -0.0949
19840TIP3    H281012   1.833   1.400   0.275 -1.4314  2.8127 -0.9277
19841TIP3   OH281013   5.867   4.351  16.913  0.6452  0.5765 -0.8679
19841TIP3    H181014   5.931   4.304  16.860  1.0858  0.4608 -0.2449
19841TIP3    H281015   5.888   4.443  16.901 -0.2713  0.6496 -2.1607
19842TIP3   OH281016   2.488   4.868   3.139  0.4516  0.7071  0.0997
19842TIP3    H181017   2.493   4.824   3.055 -2.4020  3.8787 -1.9958
19842TIP3    H281018   2.420   4.820   3.187  0.2935  0.3720 -0.4484
19843TIP3   OH281019   0.386   1.059   5.920 -0.5669  0.5420  0.3620
19843TIP3    H181020   0.455   0.993   5.926 -0.6416  0.3157 -0.9254
19843TIP3    H281021   0.420   1.134   5.970 -1.2253 -1.0139  3.3745
19844TIP3   OH281022   0.910   4.215   1.859  0.0203  0.5123  0.3468
19844TIP3    H181023   0.874   4.130   1.884  1.0350 -0.4985 -1.4334
19844TIP3    H281024   0.951   4.247   1.939  1.3743 -1.6145  0.5897
19845TIP3   OH281025   3.313   1.727   5.057  0.2237  0.3990 -0.4167
19845TIP3    H181026   3.308   1.682   5.142 -0.4055  0.3623 -0.4729
19845TIP3    H281027   3.232   1.778   5.052  1.4186  2.4678  0.1587
19846TIP3   OH281028   6.179   3.826   3.770 -0.3267  0.4502 -0.2786
19846TIP3    H181029   6.115   3.886   3.729 -1.0006  0.3080  0.5364
19846TIP3    H281030   6.158   3.829   3.863 -0.8362 -1.5928 -0.2883
19847TIP3   OH281031   3.327   0.176  17.128  0.2261  0.1003 -0.1247
19847TIP3    H181032   3.335   0.197  17.035 -0.6309 -0.4589 -0.3358
19847TIP3    H281033   3.324   0.261  17.172 -0.4563  0.3820 -0.7115
19848TIP3   OH281034   3.047   0.415  15.849 -0.5034 -0.0663  0.0155
19848TIP3    H181035   2.988   0.341  15.864  0.9847 -1.5399 -1.1169
19848TIP3    H281036   3.052   0.458  15.935 -2.3978 -0.4733  0.3870
19849TIP3   OH281037   5.822   3.581   3.636  0.4539 -0.1069 -0.1706
19849TIP3    H181038   5.830   3.490   3.607  2.0560 -0.2528  0.5993
19849TIP3    H281039   5.729   3.592   3.656  0.2185 -1.5321 -0.3816
19850TIP3   OH281040   4.013   5.882  11.788 -0.2120 -0.1058 -0.1714
19850TIP3    H181041   4.006   5.825  11.865 -0.8314  2.1448  1.5665
19850TIP3    H281042   4.079   5.947  11.813 -1.2602  1.3541 -1.0576
19851TIP3   OH281043   1.636   6.659   3.734 -0.1581  0.2505  0.0401
19851TIP3    H181044   1.703   6.656   3.665  0.0790  3.5850 -0.0346
19851TIP3    H281045   1.566   6.602   3.702  0.4053  0.8516 -2.4562
19852TIP3   OH281046   4.915   2.938   5.639  0.6010 -0.6481 -0.0543
19852TIP3    H181047   4.964   2.985   5.707 -0.1959 -0.4588  0.3976
19852TIP3    H281048   4.857   3.004   5.601 -0.0538 -1.1105  0.1335
19853TIP3   OH281049   1.904   5.066   4.722  0.2696 -0.0614  0.4645
19853TIP3    H181050   1.839   5.010   4.680  0.6591 -0.8138  0.8348
19853TIP3    H281051   1.967   5.086   4.653 -0.6257  1.1163 -0.0330
19854TIP3   OH281052   4.011   3.575   3.823 -0.2743 -0.1660 -0.8865
19854TIP3    H181053   4.102   3.556   3.801  0.4747  1.3942  0.7077
19854TIP3    H281054   3.978   3.624   3.747  0.7488  0.8010 -0.7189
19855TIP3   OH281055   5.809   5.126   2.406  0.4460  0.2335 -0.2115
19855TIP3    H181056   5.755   5.047   2.400  1.3174 -0.5613  1.6383
19855TIP3    H281057   5.750   5.198   2.383 -1.5449 -0.5316  2.1133
19856TIP3   OH281058   3.021   2.478   5.090  0.1983  0.0204  0.2726
19856TIP3    H181059   2.978   2.434   5.017 -0.3838  1.3703 -0.2198
19856TIP3    H281060   3.069   2.408   5.135 -0.7545 -1.1211 -0.4345
19857TIP3   OH281061   6.770   5.925   0.386  1.1333  0.1134 -0.3769
19857TIP3    H181062   6.791   5.863   0.456 -0.9260 -0.6501 -0.3882
19857TIP3    H281063   6.835   5.907   0.318  2.3470 -0.0311  0.7749
19858TIP3   OH281064   1.471   0.066  13.845  0.0861  0.2993 -0.3834
19858TIP3    H181065   1.470   0.070  13.750  1.1606 -0.8118 -0.4692
19858TIP3    H281066   1.382   0.091  13.872 -0.6895 -0.8601 -1.7417
19859TIP3   OH281067   6.760   5.698   6.232 -0.2595 -0.1924 -0.2150
19859TIP3    H181068   6.673   5.677   6.198 -0.6521  0.5069  0.3479
19859TIP3    H281069   6.749   5.781   6.278 -0.0099 -1.5476  2.5124
19860TIP3   OH281070   2.322   3.181   5.002  0.6035 -0.0166  0.3684
19860TIP3    H181071   2.353   3.144   4.919 -0.4886  1.0808 -0.5677
19860TIP3    H281072   2.232   3.148   5.010 -0.6228  2.7167 -0.7857
19861TIP3   OH281073   1.411   0.807  13.150 -0.1684 -0.0371 -0.1537
19861TIP3    H181074   1.445   0.733  13.100  2.2850  0.5227  0.5336
19861TIP3    H281075   1.412   0.777  13.241  1.0420  0.8340  0.1568
19862TIP3   OH281076   6.704   4.043   4.809 -0.5520  0.0799  0.8915
19862TIP3    H181077   6.788   4.059   4.852  0.0454  1.8080 -0.7773
19862TIP3    H281078   6.646   4.013   4.879  0.7015  1.5518  2.6434
19863TIP3   OH281079   1.562   5.989   4.809  0.2124 -0.1922 -0.8728
19863TIP3    H181080   1.648   6.027   4.823 -0.6588  0.9693  2.2297
19863TIP3    H281081   1.509   6.062   4.776 -0.0709 -0.3220 -0.7088
19864TIP3   OH281082   4.092   0.440   0.783  0.4429  0.2637  0.4422
19864TIP3    H181083   4.092   0.529   0.818  1.7334 -0.0061  1.1802
19864TIP3    H281084   4.181   0.409   0.797  0.7756 -0.2062 -2.2518
19865TIP3   OH281085   3.863   3.902   5.256  0.2608 -0.2301  0.7090
19865TIP3    H181086   3.786   3.878   5.204 -0.0504 -1.7433  1.8056
19865TIP3    H281087   3.935   3.901   5.192 -0.0974 -2.1171  0.2571
19866TIP3   OH281088   6.635   2.355  13.179  0.3988 -0.4759  0.2893
19866TIP3    H181089   6.542   2.335  13.189  0.2996 -1.0149 -1.2992
19866TIP3    H281090   6.638   2.449  13.163 -0.0820 -0.6853 -1.2900
19867TIP3   OH281091   1.169   5.978  13.048 -0.2886 -0.0981 -0.6457
19867TIP3    H181092   1.160   5.913  13.117 -0.7661 -1.1248 -1.6308
19867TIP3    H281093   1.080   5.987  13.013  0.1938 -0.8051 -2.1555
19868TIP3   OH281094   4.883   6.433   4.563  0.2521  0.1496 -0.1471
19868TIP3    H181095   4.815   6.389   4.512  0.3279  0.2293 -0.3189
19868TIP3    H281096   4.883   6.523   4.530  1.0847 -0.0777 -0.8169
19869TIP3   OH281097   6.225   2.147  15.219 -0.1484  0.1063  0.5573
19869TIP3    H181098   6.137   2.183  15.208 -0.1122 -0.1386 -0.6780
19869TIP3    H281099   6.212   2.053  15.226  0.0210  0.0476  0.1421
19870TIP3   OH281100   3.269   5.342   0.257 -0.1264 -0.1108 -0.1743
19870TIP3    H181101   3.350   5.360   0.305  2.4507 -2.2068 -3.2965
19870TIP3    H281102   3.239   5.428   0.227  0.3602  0.8059  1.7798
19871TIP3   OH281103   5.557   1.593   1.719  0.2488 -0.2178  0.2158
19871TIP3    H181104   5.593   1.528   1.779 -0.2424 -0.1562  0.5845
19871TIP3    H281105   5.567   1.676   1.764  1.4213  0.0539 -0.5064
19872TIP3   OH281106   1.048   6.834   6.674  0.3078 -0.0066 -0.2011
19872TIP3    H181107   1.131   6.834   6.625  0.2414 -0.2554 -0.3110
19872TIP3    H281108   1.053   6.757   6.731  1.1538  1.2240  1.4895
19873TIP3   OH281109   0.294   4.816   0.934 -0.0070  0.2733 -0.0931
19873TIP3    H181110   0.271   4.826   0.842  0.5328  0.7759 -0.1825
19873TIP3    H281111   0.250   4.735   0.961 -2.0723  1.3040 -0.1631
19874TIP3   OH281112   5.806   6.327   4.206  0.1744 -0.0597 -0.2460
19874TIP3    H181113   5.751   6.252   4.226  0.4396 -0.9224 -2.5384
19874TIP3    H281114   5.860   6.338   4.285 -0.6479 -1.5239  0.5687
19875TIP3   OH281115   1.228   0.874   2.605  0.0859  0.2289 -0.5477
19875TIP3    H181116   1.260   0.898   2.692  1.5792 -0.9695 -0.7175
19875TIP3    H281117   1.133   0.879   2.612  0.1473 -0.5371  1.3839
19876TIP3   OH281118   1.215   6.122   4.884  0.1369  0.4903  0.7081
19876TIP3    H181119   1.129   6.098   4.850  1.6137 -1.1647 -2.2667
19876TIP3    H281120   1.227   6.068   4.962 -1.1419  0.0632  0.6173
19877TIP3   OH281121   2.391   5.149  10.667 -0.8129  0.0452 -0.0027
19877TIP3    H181122   2.383   5.072  10.612  0.3190  0.5672 -0.9613
19877TIP3    H281123   2.471   5.192  10.636  0.3869 -0.1025  2.6412
19878TIP3   OH281124   4.828   4.541  15.257  0.3742 -0.3481 -0.1364
19878TIP3    H181125   4.776   4.610  15.298 -0.7395 -0.1202 -1.8233
19878TIP3    H281126   4.866   4.583  15.179  3.0266 -0.5458  0.9275
19879TIP3   OH281127   2.001   0.818  16.878  0.2355 -0.2640  0.3231
19879TIP3    H181128   2.020   0.888  16.816 -0.3728  1.4010  1.9548
19879TIP3    H281129   1.918   0.780  16.847 -0.0614  0.5480  0.1119
19880TIP3   OH281130   2.634   1.018   6.457 -0.6636  0.5113  0.4089
19880TIP3    H181131   2.623   0.936   6.505  2.4019  0.2152  0.8140
19880TIP3    H281132   2.618   1.086   6.523 -0.6566  0.1806  0.7572
19881TIP3   OH281133   2.683   2.830   2.377 -0.3851  0.5435 -0.0632
19881TIP3    H181134   2.710   2.874   2.296 -2.8073  3.8587  0.7157
19881TIP3    H281135   2.653   2.744   2.348  1.3663  0.5580 -2.2251
19882TIP3   OH281136   1.661   0.616  15.133  0.9018  0.4057 -0.0786
19882TIP3    H181137   1.660   0.671  15.211 -1.4689 -0.0753  0.2975
19882TIP3    H281138   1.650   0.677  15.060 -0.8556  0.5650  0.2791
19883TIP3   OH281139   6.084   5.738  16.407  0.1349  0.2225 -0.6933
19883TIP3    H181140   6.062   5.813  16.462  0.2923  1.2039 -1.9362
19883TIP3    H281141   6.020   5.671  16.433 -0.2114  0.8727  0.2069
19884TIP3   OH281142   3.577   5.340  13.777 -0.2293 -0.4211 -0.3823
19884TIP3    H181143   3.646   5.303  13.832  1.0328  1.5007 -0.5699
19884TIP3    H281144   3.618   5.353  13.692 -0.5117  1.5359 -0.2742
19885TIP3   OH281145   1.926   3.611  13.280  0.1754 -0.3933 -0.0355
19885TIP3    H181146   1.867   3.687  13.281 -0.3850 -0.8220  0.0966
19885TIP3    H281147   1.888   3.553  13.214 -0.4234 -1.3564  1.1441
19886TIP3   OH281148   6.400   4.634  15.952 -0.2881 -0.2023  0.3149
19886TIP3    H181149   6.463   4.623  15.881 -1.9607 -0.3334 -1.2507
19886TIP3    H281150   6.424   4.568  16.017  0.9971 -0.4308 -0.3653
19887TIP3   OH281151   0.272   5.301   0.754 -0.2737  0.4671 -0.2300
19887TIP3    H181152   0.336   5.330   0.688 -1.3705 -0.2654 -1.6473
19887TIP3    H281153   0.319   5.236   0.806  0.2644  0.2060 -1.0235
19888TIP3   OH281154   0.948   0.057  15.129  0.7766  0.5579 -0.2370
19888TIP3    H181155   0.919  -0.013  15.070  1.5119  0.1327 -0.1093
19888TIP3    H281156   1.010   0.014  15.188 -0.2785  0.8564  1.1520
19889TIP3   OH281157   4.197   6.000  15.531  0.5558  0.2926 -0.2371
19889TIP3    H181158   4.246   5.920  15.513 -0.7629 -0.5380 -0.2479
19889TIP3    H281159   4.224   6.061  15.462  0.9232 -0.4309 -0.7394
19890TIP3   OH281160   0.573   0.510   5.146  0.0971 -0.0494 -0.4327
19890TIP3    H181161   0.627   0.549   5.215  0.0894  2.1700 -1.5979
19890TIP3    H281162   0.523   0.583   5.111 -0.7714 -1.3480 -2.0265
19891TIP3   OH281163   4.269   2.478   6.169 -0.4287 -0.4822 -0.1372
19891TIP3    H181164   4.307   2.530   6.240 -0.1525 -1.9674  0.8691
19891TIP3    H281165   4.310   2.392   6.179 -0.2819 -0.6826 -2.2159
19892TIP3   OH281166   1.169   5.656  12.388  0.0845 -0.7531 -0.1881
19892TIP3    H181167   1.141   5.564  12.387  0.5955 -0.9337 -1.9004
19892TIP3    H281168   1.244   5.658  12.327 -0.7601  1.0322 -1.2283
19893TIP3   OH281169   5.405   6.248   2.329  0.1892 -0.1192  0.1150
19893TIP3    H181170   5.474   6.181   2.327 -0.7211 -1.1052  0.7912
19893TIP3    H281171   5.443   6.322   2.283  1.2857 -1.0432 -0.5242
19894TIP3   OH281172   1.900   2.794  12.301 -0.2005 -0.3287 -0.1874
19894TIP3    H181173   1.986   2.755  12.282  0.4769 -0.5180  2.8268
19894TIP3    H281174   1.851   2.724  12.344 -0.8327  0.6061  0.6611
19895TIP3   OH281175   5.791   3.656  13.784 -0.1832 -0.4165  0.0454
19895TIP3    H181176   5.864   3.685  13.729 -0.4451 -0.2392 -0.2157
19895TIP3    H281177   5.738   3.602  13.725  0.4934 -1.7616  0.6193
19896TIP3   OH281178   1.841   3.735  16.451 -0.4148 -0.4478  0.0665
19896TIP3    H181179   1.855   3.794  16.377 -1.0018  0.5835  0.7514
19896TIP3    H281180   1.858   3.648  16.416  2.0744  0.2166 -0.5769
19897TIP3   OH281181   1.586   6.727   3.314 -0.3369  0.2581 -0.2614
19897TIP3    H181182   1.511   6.681   3.276  0.0646 -0.3675 -0.3160
19897TIP3    H281183   1.647   6.737   3.241  0.4759 -1.0271  0.1929
19898TIP3   OH281184   3.631   1.355   4.269  0.6359  0.2373  0.5430
19898TIP3    H181185   3.628   1.381   4.177  0.4566 -0.8713  0.2138
19898TIP3    H281186   3.558   1.293   4.279  1.0714 -0.1765  1.2581
19899TIP3   OH281187   4.735   1.515  16.778  0.1136  0.1737 -0.3976
19899TIP3    H181188   4.817   1.465  16.769 -0.9011 -1.5431 -0.6294
19899TIP3    H281189   4.718   1.517  16.872  0.6718  0.9839 -0.3070
19900TIP3   OH281190   0.306   4.331  15.765 -0.7025 -0.2380 -0.3941
19900TIP3    H181191   0.372   4.296  15.825 -0.6501 -0.7723 -0.7585
19900TIP3    H281192   0.305   4.425  15.784 -0.5824 -0.3728  0.3389
19901TIP3   OH281193   3.196   5.716   0.792  0.0702 -0.2161  0.6622
19901TIP3    H181194   3.195   5.811   0.785 -0.7251 -0.1647  1.3822
19901TIP3    H281195   3.173   5.686   0.703 -1.4361  0.3015  0.8488
19902TIP3   OH281196   2.223   5.606  16.326 -0.2681  0.4822  0.3682
19902TIP3    H181197   2.142   5.625  16.374  0.4485  1.6792  1.1433
19902TIP3    H281198   2.253   5.522  16.361 -1.5165 -0.3330 -0.4250
19903TIP3   OH281199   5.855   3.059  12.438 -0.0593  0.2872  0.4219
19903TIP3    H181200   5.894   3.004  12.506 -1.6953 -1.7194 -0.1658
19903TIP3    H281201   5.800   3.122  12.485  0.4014  0.2434  1.0241
19904TIP3   OH281202   6.415   3.522   0.655  0.3345 -0.5363 -0.1241
19904TIP3    H181203   6.370   3.464   0.593 -0.3430  0.2639 -0.4091
19904TIP3    H281204   6.481   3.467   0.696  2.2347 -0.6148 -3.0161
19905TIP3   OH281205   6.756   3.561  14.366 -0.0174  0.2731  0.1428
19905TIP3    H181206   6.671   3.538  14.403  0.0609  2.9043  2.3000
19905TIP3    H281207   6.737   3.631  14.304  0.4354 -0.2893 -0.6464
19906TIP3   OH281208   3.551   0.832   4.317 -0.3771  0.0201 -0.2807
19906TIP3    H181209   3.573   0.741   4.334 -0.1624  0.0028 -0.6304
19906TIP3    H281210   3.530   0.868   4.402 -1.2258 -0.5538 -0.2366
19907TIP3   OH281211   1.790   5.705   6.639  0.1791 -0.0585  0.2005
19907TIP3    H181212   1.753   5.628   6.596  1.3256 -0.5082 -0.0017
19907TIP3    H281213   1.875   5.718   6.598 -0.1564  1.5655 -0.0484
19908TIP3   OH281214   1.378   5.656   2.009  0.4648 -0.6531 -0.4199
19908TIP3    H181215   1.332   5.660   1.925 -0.6384  1.1546  0.2122
19908TIP3    H281216   1.447   5.722   2.002 -0.3751  0.3538  0.4795
19909TIP3   OH281217   4.479   6.092   5.855  0.5753 -0.2046  0.0528
19909TIP3    H181218   4.503   6.030   5.786 -1.9688  0.4819 -1.6314
19909TIP3    H281219   4.410   6.047   5.904  0.7930  0.1796  0.7196
19910TIP3   OH281220   1.285   1.082   4.221  0.1400 -0.0271 -0.1704
19910TIP3    H181221   1.253   1.129   4.144 -0.4135  2.1334  1.2922
19910TIP3    H281222   1.373   1.118   4.236  1.2896 -2.2411 -1.1747
19911TIP3   OH281223   4.551   6.046  11.603  0.2336 -0.3769  0.1693
19911TIP3    H181224   4.483   6.008  11.547  0.6070 -1.3989  0.3859
19911TIP3    H281225   4.509   6.123  11.642  0.5757  1.6028 -3.0154
19912TIP3   OH281226   2.806   0.338  14.548  0.5044  0.0099 -1.0539
19912TIP3    H181227   2.838   0.249  14.532 -0.7626 -0.6431 -0.0915
19912TIP3    H281228   2.745   0.355  14.476 -1.8566 -1.2525  0.5412
19913TIP3   OH281229   2.972   1.814  12.569 -0.5346 -0.1264  0.0515
19913TIP3    H181230   2.950   1.887  12.627 -1.0028  0.0504 -0.3342
19913TIP3    H281231   3.018   1.855  12.495 -1.2281 -0.1443 -0.4042
19914TIP3   OH281232   4.178   4.885  16.248  0.0836 -0.5055  0.1619
19914TIP3    H181233   4.137   4.968  16.224 -0.2176 -0.2707  1.3965
19914TIP3    H281234   4.107   4.833  16.286  0.6861 -0.5387  1.2750
19915TIP3   OH281235   1.572   2.072  16.289  0.1722 -0.1503 -0.1255
19915TIP3    H181236   1.640   2.044  16.350 -0.1431 -1.2784 -0.2622
19915TIP3    H281237   1.614   2.140  16.236  0.9035 -0.1969  0.3751
19916TIP3   OH281238   4.256   1.832  13.167  0.1169  0.1294  0.2832
19916TIP3    H181239   4.336   1.780  13.162 -0.1844 -0.3486  0.4264
19916TIP3    H281240   4.214   1.820  13.081  0.2501  0.4700  0.1673
19917TIP3   OH281241   1.189   5.262   1.958  0.1798  0.0175  0.0125
19917TIP3    H181242   1.238   5.207   2.019  0.0038 -2.8081 -2.1937
19917TIP3    H281243   1.251   5.281   1.887 -0.0963  1.8427  0.2152
19918TIP3   OH281244   5.898   6.173  15.971 -0.1579  0.2737  0.1744
19918TIP3    H181245   5.915   6.267  15.967  0.8475  0.0780 -0.8519
19918TIP3    H281246   5.838   6.162  16.045  0.9813  1.5341  1.3519
19919TIP3   OH281247   0.692   4.655   5.655 -0.4031 -0.3923  0.5261
19919TIP3    H181248   0.639   4.643   5.576 -0.2156  1.4208  0.0710
19919TIP3    H281249   0.631   4.692   5.719 -0.3851 -1.2006  1.0268
19920TIP3   OH281250   6.017   2.423   5.109 -0.1715  0.3821  0.6022
19920TIP3    H181251   5.989   2.392   5.023  2.0008 -2.1489  0.6994
19920TIP3    H281252   5.935   2.434   5.157 -1.3377 -0.0079 -1.1864
19921TIP3   OH281253   1.189   3.786   3.066  0.0132 -0.7355  0.5261
19921TIP3    H181254   1.255   3.806   3.132  0.6511  0.9571 -0.5395
19921TIP3    H281255   1.169   3.871   3.026 -1.6246 -1.4537 -0.2763
19922TIP3   OH281256   4.986   4.572  14.715  0.3993  0.9333 -0.2175
19922TIP3    H181257   5.078   4.568  14.691  0.0199  3.5581 -2.7631
19922TIP3    H281258   4.962   4.664  14.702 -2.5060  0.3939  0.6433
19923TIP3   OH281259   5.735   4.798   4.879  0.2119 -0.0482  0.2053
19923TIP3    H181260   5.759   4.827   4.967 -0.1934  0.0211  0.2935
19923TIP3    H281261   5.817   4.801   4.830 -0.0133  2.5997 -0.1690
19924TIP3   OH281262   3.630   5.940   2.490 -0.3045 -0.3726 -0.2223
19924TIP3    H181263   3.591   5.950   2.577 -1.1527  1.5581 -0.7861
19924TIP3    H281264   3.556   5.943   2.429  0.4471  0.5914 -1.1351
19925TIP3   OH281265   0.590   1.602   3.994 -0.1293  0.9249 -0.7999
19925TIP3    H181266   0.501   1.627   4.018 -0.2417 -0.8452  1.0045
19925TIP3    H281267   0.631   1.581   4.078  1.7687  1.0163 -1.6635
19926TIP3   OH281268   1.874   5.854   3.059 -0.7255  0.9647  0.7589
19926TIP3    H181269   1.784   5.869   3.089 -0.2725 -0.8509  3.4090
19926TIP3    H281270   1.928   5.869   3.136  0.8915 -1.0962  0.1218
19927TIP3   OH281271   6.210   4.633   3.008 -0.1232  0.4609  0.5322
19927TIP3    H181272   6.148   4.705   3.020 -0.0524  0.8028 -0.9393
19927TIP3    H281273   6.174   4.582   2.936  0.2125 -0.5590  1.0741
19928TIP3   OH281274   1.726   6.704   2.237  0.4208  0.1867  0.0545
19928TIP3    H181275   1.717   6.781   2.293  2.2049  0.3095  0.2021
19928TIP3    H281276   1.820   6.689   2.230  0.1385 -2.3637  0.5558
19929TIP3   OH281277   2.983   2.068   1.971 -0.5904  0.0145  0.0737
19929TIP3    H181278   3.076   2.049   1.961 -0.5106  0.7941 -0.7903
19929TIP3    H281279   2.939   1.985   1.954 -0.0154 -0.7192  1.8826
19930TIP3   OH281280   3.916   3.032  11.864 -0.0749  0.1052 -0.1177
19930TIP3    H181281   3.966   3.113  11.858 -0.6480  0.3693 -1.6986
19930TIP3    H281282   3.980   2.966  11.890  0.6965  0.7862 -0.2439
19931TIP3   OH281283   0.050   0.370   2.435  0.1254  0.0263 -0.1153
19931TIP3    H181284   0.107   0.442   2.462 -0.8247  0.5154  0.6652
19931TIP3    H281285   0.109   0.296   2.420  0.8909  0.2469  1.6204
19932TIP3   OH281286   4.171   2.625   3.129 -0.3691 -0.3662 -0.2155
19932TIP3    H181287   4.186   2.656   3.218  2.3152 -2.1587  0.0747
19932TIP3    H281288   4.192   2.700   3.074  2.1831 -0.3634  0.5953
19933TIP3   OH281289   2.035   5.236   0.976 -0.2147  0.2142 -0.4941
19933TIP3    H181290   1.963   5.232   1.040  1.0034  0.0555  0.9308
19933TIP3    H281291   1.993   5.257   0.893 -2.0492 -1.0566  0.0546
19934TIP3   OH281292   6.201   3.659   2.760  0.7412  0.6839 -0.5529
19934TIP3    H181293   6.255   3.728   2.722  0.6072  1.4966  0.6667
19934TIP3    H281294   6.234   3.578   2.721  2.9757  1.1288  0.2873
19935TIP3   OH281295   2.515   1.312   1.525  0.3137 -0.1910 -0.2198
19935TIP3    H181296   2.461   1.289   1.449  0.1186  0.9109 -0.4389
19935TIP3    H281297   2.490   1.249   1.592 -1.0117  0.0654 -0.4364
19936TIP3   OH281298   1.609   4.812   0.091  0.2871 -0.2620  0.0844
19936TIP3    H181299   1.636   4.806   0.182 -1.0065 -2.9974  0.4096
19936TIP3    H281300   1.520   4.847   0.095  1.6932  3.8921 -0.5905
19937TIP3   OH281301   1.122   0.890   3.639  0.0769 -0.4027  0.3527
19937TIP3    H181302   1.168   0.812   3.608 -0.4158 -0.5785  0.0483
19937TIP3    H281303   1.060   0.857   3.704  0.2765 -0.1879  0.6539
19938TIP3   OH281304   1.926   5.481  13.748  0.2695  0.0029  0.3969
19938TIP3    H181305   1.990   5.504  13.681 -0.6242  0.9712 -0.1555
19938TIP3    H281306   1.976   5.479  13.829  0.9925  0.7833 -0.0156
19939TIP3   OH281307   2.487   3.191  15.103  0.6427 -0.3341 -0.4003
19939TIP3    H181308   2.569   3.239  15.111 -0.6946  2.0682 -0.2245
19939TIP3    H281309   2.420   3.259  15.095 -1.3156 -2.2105 -0.8435
19940TIP3   OH281310   3.608   3.506   6.333 -0.0191  0.3592  0.0954
19940TIP3    H181311   3.523   3.517   6.291  1.2485  1.9395 -2.3543
19940TIP3    H281312   3.617   3.584   6.389  0.2835  0.8318 -0.5984
19941TIP3   OH281313   5.990   4.341  15.281  0.4639 -0.0128 -0.0360
19941TIP3    H181314   5.947   4.261  15.251  0.4648  0.2472 -0.7372
19941TIP3    H281315   5.948   4.411  15.232  0.3317  0.4422  0.7195
19942TIP3   OH281316   5.575   5.178  11.689 -1.1396  0.1885 -0.1886
19942TIP3    H181317   5.618   5.156  11.607 -0.9657  0.2466 -0.1139
19942TIP3    H281318   5.594   5.104  11.747 -0.5731  0.5183  0.0558
19943TIP3   OH281319   4.597   0.931   3.265  0.9681 -0.1784 -0.6119
19943TIP3    H181320   4.559   0.858   3.215 -1.3327 -0.4425  1.3363
19943TIP3    H281321   4.666   0.890   3.317 -0.5266 -1.1373  0.7164
19944TIP3   OH281322   5.259   0.557  15.357  0.0518  0.1092 -0.1004
19944TIP3    H181323   5.184   0.600  15.315 -0.6342 -1.1676 -0.2306
19944TIP3    H281324   5.333   0.576  15.299 -0.4326  0.2598 -0.6815
19945TIP3   OH281325   1.053   0.826   5.970  0.5158 -0.2757 -0.3132
19945TIP3    H181326   0.994   0.867   5.907 -0.9542 -0.2179  1.0374
19945TIP3    H281327   1.016   0.848   6.056  2.1405 -0.8129  0.5714
19946TIP3   OH281328   2.102   2.016  17.162 -0.1261 -0.0795  0.1627
19946TIP3    H181329   2.162   2.075  17.116 -0.2104 -0.7568 -0.8462
19946TIP3    H281330   2.158   1.971  17.226 -0.3148  2.0787  2.0071
19947TIP3   OH281331   1.946   4.625  16.368  0.2559  0.2316  0.9938
19947TIP3    H181332   1.914   4.614  16.279  1.0296  1.0733  0.5906
19947TIP3    H281333   1.993   4.709  16.366  2.2522 -0.8150  1.5904
19948TIP3   OH281334   5.525   4.227   0.108 -0.0931 -0.1634  0.5812
19948TIP3    H181335   5.539   4.255   0.017 -0.6908 -1.1494  0.1643
19948TIP3    H281336   5.599   4.168   0.127 -0.5789 -0.8644  0.3315
19949TIP3   OH281337   2.218   3.454   5.227  0.1039  0.3448 -0.0310
19949TIP3    H181338   2.225   3.359   5.221  0.9778  0.4423 -0.8162
19949TIP3    H281339   2.155   3.478   5.159  0.3605  0.3767 -0.2588
19950TIP3   OH281340   4.808   3.970  13.518 -0.0793 -0.3566  0.6031
19950TIP3    H181341   4.727   4.002  13.558  0.2564 -0.5076  1.4230
19950TIP3    H281342   4.871   3.966  13.590  0.9625  0.7270 -0.1820
19951TIP3   OH281343   5.649   4.980   6.015  0.1514 -0.6693 -0.8412
19951TIP3    H181344   5.686   5.059   6.053 -0.1386  0.2467 -2.3667
19951TIP3    H281345   5.655   4.914   6.084 -0.8222  1.0227  0.9376
19952TIP3   OH281346   3.640   3.951  15.338 -0.2930 -0.6491 -0.6319
19952TIP3    H181347   3.566   3.893  15.319  0.1151 -1.9404  1.4318
19952TIP3    H281348   3.612   4.001  15.414 -0.2909  1.3304 -1.8554
19953TIP3   OH281349   3.007   1.578   2.488  0.0170  0.1133  0.0885
19953TIP3    H181350   2.939   1.645   2.484  0.9107  1.0415 -0.0568
19953TIP3    H281351   2.965   1.504   2.531 -0.8392  0.9639  0.7700
19954TIP3   OH281352   2.672   4.037  15.431  0.1872  0.0947 -0.4584
19954TIP3    H181353   2.607   3.967  15.421 -0.5508  0.9828 -2.5784
19954TIP3    H281354   2.719   4.015  15.511 -2.5503 -0.7299  1.0539
19955TIP3   OH281355   2.389   2.937   2.832 -0.4299 -0.2664  0.6207
19955TIP3    H181356   2.326   2.877   2.793 -0.0326 -0.1166 -0.2673
19955TIP3    H281357   2.469   2.926   2.781 -0.3169  0.9546  0.4823
19956TIP3   OH281358   4.908   5.756  16.652 -0.4873  0.1602  0.1843
19956TIP3    H181359   4.902   5.850  16.633  0.5278  0.2929  0.4185
19956TIP3    H281360   4.847   5.742  16.724 -0.1479  0.7853  0.6056
19957TIP3   OH281361   6.569   0.023  16.780 -0.5899 -0.1514  0.1726
19957TIP3    H181362   6.482   0.038  16.743 -0.4759  1.0121  0.3691
19957TIP3    H281363   6.616  -0.023  16.710 -0.9484  0.4086 -0.4490
19958TIP3   OH281364   3.809   2.291  17.060  0.2661 -0.3290  0.4481
19958TIP3    H181365   3.736   2.230  17.072  0.4223 -0.8636 -1.1265
19958TIP3    H281366   3.804   2.318  16.968  1.7158  0.0528  0.4476
19959TIP3   OH281367   4.343   2.125   2.184  0.2187 -0.0512  0.0186
19959TIP3    H181368   4.358   2.157   2.273 -3.6006 -1.1401  1.2375
19959TIP3    H281369   4.285   2.191   2.145 -0.9610 -1.2664 -0.3537
19960TIP3   OH281370   6.744   4.738   3.725 -0.4846  0.2582 -0.2201
19960TIP3    H181371   6.811   4.806   3.735  0.2998 -0.6724  1.2768
19960TIP3    H281372   6.687   4.749   3.801  1.0797 -2.2174  1.4471
19961TIP3   OH281373   5.593   4.123   4.832 -0.3562 -0.1232 -1.1484
19961TIP3    H181374   5.620   4.133   4.741 -0.6116  0.5313 -1.1610
19961TIP3    H281375   5.656   4.062   4.869  1.2342  1.4321 -1.1480
19962TIP3   OH281376   2.176   0.287  11.807 -0.5861  0.4283  0.0035
19962TIP3    H181377   2.179   0.383  11.814 -0.3375  0.5635 -1.6375
19962TIP3    H281378   2.099   0.270  11.753  0.9767 -0.1079 -2.1527
19963TIP3   OH281379   5.135   1.735  12.756  0.1597 -0.1718 -0.3279
19963TIP3    H181380   5.139   1.700  12.845  0.5344  1.3221  0.2711
19963TIP3    H281381   5.112   1.660  12.702 -0.5103 -1.0262  1.0806
19964TIP3   OH281382   5.782   2.782   1.039 -0.6159 -0.3379 -0.0012
19964TIP3    H181383   5.753   2.699   1.076  0.1223  0.2812  2.0805
19964TIP3    H281384   5.865   2.761   0.995 -1.3336 -1.0129 -1.0856
19965TIP3   OH281385   6.723   2.727  14.715 -0.5551 -0.1062  0.3409
19965TIP3    H181386   6.717   2.800  14.777  0.6083 -0.3648  0.7937
19965TIP3    H281387   6.808   2.686  14.735 -0.5185 -0.6763 -0.9038
19966TIP3   OH281388   4.718   2.063  15.568 -0.3212 -0.4637  0.4562
19966TIP3    H181389   4.659   2.123  15.613  0.7548  1.3877 -0.4953
19966TIP3    H281390   4.796   2.059  15.623 -0.3194 -0.8698  0.4292
19967TIP3   OH281391   5.395   5.003  12.113  0.1786 -0.8543  0.4473
19967TIP3    H181392   5.489   4.984  12.115  0.1983 -1.1244 -1.4657
19967TIP3    H281393   5.390   5.097  12.099  0.2457 -1.1125 -1.6833
19968TIP3   OH281394   3.570   4.279   5.042 -0.1892  0.2843  0.1855
19968TIP3    H181395   3.664   4.280   5.027 -0.2562  0.5476 -0.2527
19968TIP3    H281396   3.560   4.289   5.137  0.2149  0.8206  0.1784
19969TIP3   OH281397   4.888   1.925   4.699  0.4355  0.3947  0.2363
19969TIP3    H181398   4.962   1.870   4.722  0.6135  0.4747 -0.1339
19969TIP3    H281399   4.817   1.896   4.757 -0.2451 -1.9864 -1.6056
19970TIP3   OH281400   2.269   2.549  13.597  0.3945 -0.5999 -0.2643
19970TIP3    H181401   2.311   2.492  13.662  2.9828 -1.5229 -2.5642
19970TIP3    H281402   2.254   2.631  13.644  1.7963 -1.3407  1.6089
19971TIP3   OH281403   0.564   1.506  11.715  0.2285 -0.1935  0.5151
19971TIP3    H181404   0.557   1.574  11.782  0.7350  0.3033  0.0646
19971TIP3    H281405   0.599   1.550  11.638  0.3628 -0.9172  0.1482
19972TIP3   OH281406   4.253   6.253   0.355  0.0309 -0.2228 -0.2961
19972TIP3    H181407   4.233   6.162   0.334 -1.7987  0.6678 -3.0463
19972TIP3    H281408   4.293   6.288   0.275  0.6998  1.4050  0.6934
19973TIP3   OH281409   1.599   0.926   1.538  0.4039 -0.0269 -0.3757
19973TIP3    H181410   1.528   0.985   1.513  0.1341 -0.1789  0.0278
19973TIP3    H281411   1.650   0.914   1.458  1.7007  2.4416 -0.0185
19974TIP3   OH281412   4.692   5.556   3.694  1.0501 -0.1342  0.5136
19974TIP3    H181413   4.784   5.577   3.677  1.1594 -0.3832  0.7869
19974TIP3    H281414   4.684   5.463   3.671  1.0688 -0.3289  1.2739
19975TIP3   OH281415   2.099   1.677   4.039  0.4347  0.3749 -0.1362
19975TIP3    H181416   2.152   1.642   3.968 -0.1288  0.8657 -0.8049
19975TIP3    H281417   2.121   1.771   4.042  0.6885  0.3063  0.5514
19976TIP3   OH281418   4.140   0.323   4.188 -1.0109  0.2996 -0.1253
19976TIP3    H181419   4.198   0.296   4.117 -2.8628 -1.6711 -1.0193
19976TIP3    H281420   4.058   0.346   4.145 -1.8013  0.2440  1.2884
19977TIP3   OH281421   5.166   3.462   2.305 -0.1684  0.3425 -0.3356
19977TIP3    H181422   5.155   3.548   2.265  0.0837  0.7139  0.3713
19977TIP3    H281423   5.174   3.401   2.231  1.4826  1.1553 -0.8676
19978TIP3   OH281424   2.830   2.667   3.797 -0.2808 -0.3046  0.8673
19978TIP3    H181425   2.861   2.618   3.873 -0.1006  0.2164  1.1298
19978TIP3    H281426   2.873   2.752   3.803  1.9303 -1.1623 -1.2903
19979TIP3   OH281427   5.853   1.904   2.190 -0.3155  0.5947  0.8463
19979TIP3    H181428   5.827   1.840   2.124 -0.2314 -0.5476  1.8721
19979TIP3    H281429   5.784   1.898   2.257  1.7103 -1.4558  2.9396
19980TIP3   OH281430   0.736   6.163   0.404 -0.5856 -0.1808 -0.0173
19980TIP3    H181431   0.714   6.218   0.479  1.0019  0.9719 -0.3305
19980TIP3    H281432   0.831   6.174   0.394 -0.7952 -0.0842 -2.3468
19981TIP3   OH281433   5.846   2.479  10.365 -0.7509 -0.3930  0.0814
19981TIP3    H181434   5.869   2.569  10.390 -0.3103 -0.4087 -0.2713
19981TIP3    H281435   5.842   2.431  10.448 -1.5071  0.0700  0.3257
19982TIP3   OH281436   3.573   3.701   0.997  0.1085 -0.4779  0.0681
19982TIP3    H181437   3.613   3.718   1.082 -0.6695 -0.9496  0.5316
19982TIP3    H281438   3.481   3.683   1.016 -0.3841  0.7340 -0.9995
19983TIP3   OH281439   5.128   4.640   5.067 -0.0011 -0.1816  1.0916
19983TIP3    H181440   5.041   4.678   5.081  0.0534 -0.8128  3.4912
19983TIP3    H281441   5.122   4.551   5.101  1.7272 -0.0774  1.7650
19984TIP3   OH281442   0.983   1.113   0.307  1.2986 -0.1333  0.1293
19984TIP3    H181443   1.076   1.106   0.286  1.4125 -2.3017  1.0847
19984TIP3    H281444   0.981   1.125   0.402  0.5878  0.0222  0.1016
19985TIP3   OH281445   1.437   5.230  11.311 -0.2444  0.1803 -0.4747
19985TIP3    H181446   1.514   5.232  11.254  1.4444 -1.8679  1.5102
19985TIP3    H281447   1.457   5.292  11.380 -0.0332 -0.8040  0.3783
19986TIP3   OH281448   4.162   4.903  11.557 -0.4046 -0.3522 -0.8852
19986TIP3    H181449   4.206   4.985  11.532 -0.8114 -0.1478 -0.9455
19986TIP3    H281450   4.194   4.839  11.494  1.0726 -0.6006  0.0792
19987TIP3   OH281451   1.752   4.351  15.629 -0.0035  0.6893  0.4364
19987TIP3    H181452   1.843   4.378  15.639 -0.0657  0.1849  3.1824
19987TIP3    H281453   1.754   4.282  15.562  1.4071  1.5620 -0.4603
19988TIP3   OH281454   2.951   2.249   2.656 -0.4835  0.4870  0.2273
19988TIP3    H181455   3.010   2.319   2.682 -0.5286  1.1440 -1.3189
19988TIP3    H281456   3.008   2.181   2.620 -0.5588  0.4069  0.2566
19989TIP3   OH281457   2.270   2.343   4.091  0.1596 -0.3027 -0.5525
19989TIP3    H181458   2.237   2.428   4.061  0.1755 -0.1356 -0.0905
19989TIP3    H281459   2.234   2.333   4.179  1.6899  0.0728  0.1450
19990TIP3   OH281460   3.942   6.485   0.083 -0.3977  0.0586 -0.2132
19990TIP3    H181461   4.011   6.537   0.125 -0.3537  0.2890 -0.5659
19990TIP3    H281462   3.942   6.402   0.131 -0.1628  0.2156  0.0630
19991TIP3   OH281463   0.899   6.355   4.519  0.3413 -0.1863  0.2433
19991TIP3    H181464   0.915   6.360   4.425 -0.0423  1.6132  0.2488
19991TIP3    H281465   0.859   6.268   4.532 -0.3846 -0.1248 -1.3714
19992TIP3   OH281466   2.465   3.137   1.365 -0.2637 -0.0275  0.3059
19992TIP3    H181467   2.389   3.087   1.335 -0.4052  0.7590 -0.6811
19992TIP3    H281468   2.498   3.086   1.439 -2.7120  0.4592  1.8466
19993TIP3   OH281469   2.868   4.379   3.907 -0.0064  0.1265  0.3388
19993TIP3    H181470   2.797   4.430   3.867  0.5067 -0.0807 -0.8742
19993TIP3    H281471   2.912   4.441   3.965 -1.3831  0.1659  1.3770
19994TIP3   OH281472   3.773   6.334   2.652  0.3853  0.1224  0.0235
19994TIP3    H181473   3.795   6.414   2.700 -0.9890  0.9647 -0.6938
19994TIP3    H281474   3.772   6.361   2.560  1.3819 -1.0982 -0.3731
19995TIP3   OH281475   0.381   2.842   2.798 -0.0288  0.2951 -0.3677
19995TIP3    H181476   0.365   2.892   2.717  1.2635  0.5763 -0.4758
19995TIP3    H281477   0.471   2.865   2.822 -0.9117  1.4973  2.0560
19996TIP3   OH281478   2.383   6.429   2.382 -0.1207  0.5226 -0.4328
19996TIP3    H181479   2.424   6.356   2.429  0.6265  0.2893 -1.4006
19996TIP3    H281480   2.339   6.388   2.308  0.1000  1.0194 -0.8492
19997TIP3   OH281481   6.667   6.329  14.027 -0.4939 -0.0734 -0.3927
19997TIP3    H181482   6.605   6.324  14.099 -0.7654 -0.2492 -0.6365
19997TIP3    H281483   6.729   6.259  14.043  0.7296  1.2297  0.8489
19998TIP3   OH281484   6.516   0.710  15.218  0.4866 -0.3969  0.5418
19998TIP3    H181485   6.539   0.789  15.267 -0.7732 -0.1898  0.8325
19998TIP3    H281486   6.592   0.653  15.227  0.3241 -0.3500  2.6976
19999TIP3   OH281487   2.813   5.902  15.995 -0.3981 -0.0820  0.2231
19999TIP3    H181488   2.741   5.891  16.057 -1.6634  1.5972 -0.8320
19999TIP3    H281489   2.794   5.986  15.952  1.1148 -0.5610 -1.4998
20000TIP3   OH281490   0.817   0.204   4.312 -0.9460  0.4733 -0.1748
20000TIP3    H181491   0.826   0.299   4.321 -1.1895  0.4039  1.0811
20000TIP3    H281492   0.766   0.192   4.232 -4.1395  1.6177  1.4958
20001TIP3   OH281493   0.267   4.041  14.691 -0.0368 -0.3693 -0.2862
20001TIP3    H181494   0.274   4.102  14.764  0.2004  0.3908 -0.9292
20001TIP3    H281495   0.249   3.957  14.732  0.4884 -0.0308  0.6691
20002TIP3   OH281496   2.281   1.803  11.857 -0.1918  0.3333  0.2254
20002TIP3    H181497   2.354   1.823  11.798 -0.8250 -0.3044 -0.7960
20002TIP3    H281498   2.270   1.883  11.908 -0.4093  1.3530 -1.3524
20003TIP3   OH281499   1.128   2.407  13.623 -0.0057 -0.8314  0.6907
20003TIP3    H181500   1.198   2.443  13.568 -0.9901  1.4521  0.8053
20003TIP3    H281501   1.173   2.375  13.701  0.9861 -0.0463  0.4624
20004TIP3   OH281502   2.716   5.146  13.299  0.2631  0.4966  0.1027
20004TIP3    H181503   2.811   5.146  13.309  0.3071  0.0697 -0.2782
20004TIP3    H281504   2.697   5.217  13.238  0.2733  1.0442  0.7342
20005TIP3   OH281505   0.706   3.334   1.873 -0.3914  0.1705  0.2375
20005TIP3    H181506   0.626   3.382   1.850  0.7093  1.9188 -0.1241
20005TIP3    H281507   0.730   3.288   1.792  0.4916  1.9559 -0.5804
20006TIP3   OH281508   0.908   0.888   1.837  0.1103 -0.2588  0.1746
20006TIP3    H181509   0.928   0.964   1.891 -1.2459  1.1941 -1.2575
20006TIP3    H281510   0.821   0.861   1.863  0.0260 -0.4428 -0.2829
20007TIP3   OH281511   1.098   4.880  13.400 -0.1667 -0.1123  0.4303
20007TIP3    H181512   1.013   4.837  13.405 -0.1535 -0.0520  1.3593
20007TIP3    H281513   1.161   4.809  13.401 -0.2028 -0.1825 -0.7586
20008TIP3   OH281514   0.004   6.292  15.312 -0.3178  0.3017  0.2496
20008TIP3    H181515   0.050   6.282  15.395  1.4398  1.4502 -0.5268
20008TIP3    H281516  -0.004   6.386  15.299  1.6116  0.2616 -1.9389
20009TIP3   OH281517   6.502   0.526  14.351  0.1663 -0.3873  0.2820
20009TIP3    H181518   6.479   0.619  14.356  0.0053 -0.4689  1.6553
20009TIP3    H281519   6.594   0.523  14.378  0.2804 -0.5879 -0.1316
20010TIP3   OH281520   1.413   1.335   3.628 -0.1882 -0.5026  0.9223
20010TIP3    H181521   1.506   1.330   3.606 -0.6572  2.5345 -2.8846
20010TIP3    H281522   1.408   1.405   3.694  0.1776 -0.5830  1.0401
20011TIP3   OH281523   2.885   5.997   2.267  0.2551  0.2630  0.2794
20011TIP3    H181524   2.888   6.032   2.356  1.1995 -1.0162  0.7840
20011TIP3    H281525   2.873   6.074   2.211  1.9950  1.3652  1.3498
20012TIP3   OH281526   1.922   2.311   3.287 -0.5092  0.3836  0.1738
20012TIP3    H181527   1.828   2.312   3.308 -0.7886  0.6327 -1.0176
20012TIP3    H281528   1.925   2.286   3.195  0.6190  0.1999  0.2535
20013TIP3   OH281529   3.482   4.500  12.664  0.0510  0.1916 -0.3265
20013TIP3    H181530   3.497   4.405  12.665 -1.7764 -0.1288  0.1174
20013TIP3    H281531   3.396   4.511  12.703 -0.0334  1.9998 -0.9406
20014TIP3   OH281532   2.240   5.235  14.034  0.4601  0.0165  0.0944
20014TIP3    H181533   2.279   5.307  14.084 -1.2663  1.2758 -0.2803
20014TIP3    H281534   2.151   5.228  14.069 -0.8303  0.9645 -2.7588
20015TIP3   OH281535   2.766   4.343  12.715 -0.4656  0.1273  0.1466
20015TIP3    H181536   2.754   4.437  12.705 -2.2823 -0.2165 -1.4271
20015TIP3    H281537   2.727   4.322  12.800  0.4646  0.8301  0.7731
20016TIP3   OH281538   0.368   1.246   5.017 -0.5663  1.1764  0.2586
20016TIP3    H181539   0.404   1.173   5.068  0.2530  0.6436 -1.0173
20016TIP3    H281540   0.278   1.220   4.999  0.2585 -0.5994 -1.9127
20017TIP3   OH281541   2.682   5.247   2.917 -0.3162 -0.2013 -0.0861
20017TIP3    H181542   2.654   5.239   2.826 -0.6743  2.3498 -0.2766
20017TIP3    H281543   2.600   5.249   2.967 -0.3728  2.2112 -0.1515
20018TIP3   OH281544   2.193   4.976  14.350  0.5960  0.0792  0.6641
20018TIP3    H181545   2.124   4.910  14.354  0.1905  0.2055 -2.2408
20018TIP3    H281546   2.146   5.060  14.350  1.0146  0.3571  2.4947
20019TIP3   OH281547   2.544   6.274   1.391 -0.3487 -0.0756 -0.2009
20019TIP3    H181548   2.568   6.322   1.469  0.4765  0.1208 -0.5648
20019TIP3    H281549   2.616   6.211   1.379 -0.9918 -0.8237 -0.2046
20020TIP3   OH281550   4.850   6.428  14.325  0.6790  0.0785  0.7024
20020TIP3    H181551   4.757   6.427  14.348  0.9741  0.0958  1.9792
20020TIP3    H281552   4.851   6.436  14.229 -0.6410 -1.7254  0.4845
20021TIP3   OH281553   4.570   4.278  16.384 -0.1018  0.0299 -0.0443
20021TIP3    H181554   4.595   4.350  16.326 -0.6947 -0.9397 -1.5842
20021TIP3    H281555   4.650   4.226  16.394 -0.2930 -0.5079 -1.1136
20022TIP3   OH281556   6.183   2.307  11.499 -0.4596  0.4281 -0.2008
20022TIP3    H181557   6.261   2.362  11.491 -0.0332 -0.3192 -1.4008
20022TIP3    H281558   6.117   2.352  11.446 -0.0884 -0.2141 -1.2466
20023TIP3   OH281559   2.139   3.020   6.096  0.1480 -0.4902  0.0164
20023TIP3    H181560   2.232   3.044   6.089  0.4744 -2.0406 -1.6707
20023TIP3    H281561   2.107   3.071   6.170  2.4470 -0.1911  0.8937
20024TIP3   OH281562   6.103   2.031   1.285  0.5937  0.1565 -0.0883
20024TIP3    H181563   6.184   2.077   1.262  0.8222 -0.3873 -0.3909
20024TIP3    H281564   6.051   2.030   1.205  0.3202  0.4232  0.0813
20025TIP3   OH281565   1.495   5.513  14.603 -0.2221 -0.2708 -0.1978
20025TIP3    H181566   1.493   5.591  14.546 -0.9948  0.4660  0.7989
20025TIP3    H281567   1.409   5.513  14.646 -0.2632 -1.7423 -0.2505
20026TIP3   OH281568   6.761   5.720  15.882  0.5131 -0.3944 -0.2371
20026TIP3    H181569   6.772   5.643  15.938  0.6377 -0.7172 -0.7013
20026TIP3    H281570   6.847   5.763  15.885 -0.2005  1.0219  1.8884
20027TIP3   OH281571   1.523   2.815  12.195 -0.1492 -0.3574  0.1215
20027TIP3    H181572   1.552   2.724  12.201 -1.1584 -0.8059 -1.3135
20027TIP3    H281573   1.525   2.847  12.285  2.6786 -0.9816  0.3777
20028TIP3   OH281574   2.919   5.151   5.218  0.2578 -0.1588  0.0780
20028TIP3    H181575   2.978   5.100   5.163  0.5086 -1.5625  1.5714
20028TIP3    H281576   2.847   5.177   5.159  1.3972 -0.0160 -1.3068
20029TIP3   OH281577   4.192   2.020   0.787 -0.0751 -0.1170  0.0646
20029TIP3    H181578   4.271   2.058   0.748  0.1453 -0.2127  0.4158
20029TIP3    H281579   4.170   1.946   0.729  0.4200 -0.4389  0.2767
20030TIP3   OH281580   2.908   3.003   2.547  0.2529  0.0165 -0.6052
20030TIP3    H181581   2.985   2.957   2.581  0.1366  0.0866 -0.2363
20030TIP3    H281582   2.877   2.948   2.475 -0.3372 -0.9131  0.3120
20031TIP3   OH281583   6.555   1.573  14.884  0.9356  0.0827 -0.5585
20031TIP3    H181584   6.467   1.604  14.906  1.5766  1.0560  0.7660
20031TIP3    H281585   6.542   1.517  14.808 -0.8364  0.1851 -0.3785
20032TIP3   OH281586   4.689   1.909   6.061  0.0302 -0.2144 -0.3165
20032TIP3    H181587   4.780   1.920   6.086 -0.6320  0.8628  1.8410
20032TIP3    H281588   4.652   1.997   6.065 -0.9868 -0.5476 -1.7248
20033TIP3   OH281589   2.515   4.746   2.237  0.2879  0.3083 -0.3269
20033TIP3    H181590   2.473   4.747   2.151  0.4176 -2.1260 -0.4783
20033TIP3    H281591   2.487   4.664   2.277  3.4198 -0.6033  0.2954
20034TIP3   OH281592   1.531   5.020  13.100  0.0339  0.5571  0.0064
20034TIP3    H181593   1.566   5.085  13.161  1.0459 -2.5581  3.0890
20034TIP3    H281594   1.607   4.966  13.076 -1.2128 -1.2876  0.0044
20035TIP3   OH281595   3.948   2.364  13.056  0.2157  0.5852 -0.6427
20035TIP3    H181596   3.920   2.308  13.129  0.0879  0.4643 -0.7834
20035TIP3    H281597   3.930   2.453  13.086  1.2796  0.6135 -0.0443
20036TIP3   OH281598   5.617   5.207   1.650 -0.3455  0.3416 -0.3389
20036TIP3    H181599   5.547   5.168   1.703  0.2096 -1.2911 -0.7436
20036TIP3    H281600   5.570   5.262   1.586 -1.2328 -0.3822 -0.3332
20037TIP3   OH281601   1.433   5.350   1.320  0.0184  0.7931 -0.4520
20037TIP3    H181602   1.337   5.347   1.324 -0.0041 -0.8289 -1.3058
20037TIP3    H281603   1.452   5.387   1.233  0.0988 -1.0496 -1.2744
20038TIP3   OH281604   0.737   5.914   4.558  0.5516 -0.0631 -0.1050
20038TIP3    H181605   0.708   5.893   4.469 -0.3105 -1.8437  0.5512
20038TIP3    H281606   0.804   5.849   4.577 -0.2663 -0.6012  1.0332
20039TIP3   OH281607   0.267   1.899  11.905 -0.3698  0.0449  0.3492
20039TIP3    H181608   0.318   1.829  11.865 -0.7721  0.7605 -1.5414
20039TIP3    H281609   0.277   1.973  11.845 -1.5317  0.9934  1.2650
20040TIP3   OH281610   5.240   4.662   0.581 -0.3358  0.1012 -0.6937
20040TIP3    H181611   5.315   4.606   0.560  1.2448  1.4860  0.9025
20040TIP3    H281612   5.185   4.610   0.638  0.6676 -0.1508  0.0657
20041TIP3   OH281613   5.848   3.641  13.187 -0.5586 -0.1834  0.1216
20041TIP3    H181614   5.783   3.698  13.229 -2.2034 -0.6832 -1.6416
20041TIP3    H281615   5.802   3.559  13.173  0.3606 -0.4680 -1.4254
20042TIP3   OH281616   5.492   5.580  16.703 -0.2556  0.1734  0.9925
20042TIP3    H181617   5.471   5.608  16.614  0.9518 -2.4229 -0.2034
20042TIP3    H281618   5.406   5.571  16.746 -0.8119  2.1605  0.3990
20043TIP3   OH281619   6.124   0.694  15.364  0.5225 -0.6247  0.0326
20043TIP3    H181620   6.137   0.779  15.408 -0.9690 -1.3782  2.0518
20043TIP3    H281621   6.163   0.707  15.277 -2.2345  3.1355 -0.9184
20044TIP3   OH281622   0.825   4.928  15.145  0.4150 -0.0086 -0.0059
20044TIP3    H181623   0.828   4.956  15.237 -1.4328  0.8935 -0.1760
20044TIP3    H281624   0.906   4.878  15.133  0.7097 -0.1512  2.1068
20045TIP3   OH281625   1.367   2.505   5.079  0.1685  0.3935 -0.2634
20045TIP3    H181626   1.443   2.452   5.056  1.0850  1.6930 -0.3226
20045TIP3    H281627   1.404   2.589   5.107 -1.1261  0.3414  1.7971
20046TIP3   OH281628   1.212   2.618  11.030 -0.0018 -0.0450 -0.1272
20046TIP3    H181629   1.226   2.534  10.986 -0.4646 -0.0253 -0.3186
20046TIP3    H281630   1.132   2.604  11.081 -1.2960  0.9454 -1.8184
20047TIP3   OH281631   2.319   4.904   0.902 -0.2227 -0.3664 -0.2743
20047TIP3    H181632   2.394   4.909   0.842 -0.6464  3.2203 -0.7687
20047TIP3    H281633   2.350   4.944   0.983 -1.1429 -0.3438  0.0782
20048TIP3   OH281634   3.839   2.053   0.990 -0.2754 -0.3383  0.3099
20048TIP3    H181635   3.863   1.966   1.021  0.2945  0.1349  1.2357
20048TIP3    H281636   3.763   2.039   0.934  2.5221 -2.0613 -3.5069
20049TIP3   OH281637   4.627   0.750   4.357 -0.1544  0.6603  0.0051
20049TIP3    H181638   4.584   0.775   4.439  0.6332  0.2018  0.5662
20049TIP3    H281639   4.585   0.667   4.333  1.1121 -0.3615  1.1307
20050TIP3   OH281640   6.301   0.170  11.228 -0.4125 -0.0645 -0.4862
20050TIP3    H181641   6.369   0.105  11.246 -0.1781 -0.1885 -1.7278
20050TIP3    H281642   6.284   0.212  11.313  2.5308  1.2615 -0.4313
20051TIP3   OH281643   2.728   5.396   0.791  0.8118 -0.0480  0.6185
20051TIP3    H181644   2.645   5.408   0.745  1.4427 -0.2182 -0.6218
20051TIP3    H281645   2.708   5.335   0.862  0.3063 -1.8045 -0.9665
20052TIP3   OH281646   5.130   3.238  13.244  0.0315 -0.3264 -0.2021
20052TIP3    H181647   5.164   3.275  13.326  0.9261  0.8554 -1.0629
20052TIP3    H281648   5.051   3.288  13.226 -0.1104 -0.5187 -0.1161
20053TIP3   OH281649   4.412   2.031  16.528  0.6557  0.0647  0.2084
20053TIP3    H181650   4.469   2.082  16.471  0.7960 -1.7706 -1.4051
20053TIP3    H281651   4.373   1.966  16.470 -0.4469 -0.8791  1.9355
20054TIP3   OH281652   2.872   2.957   0.889  0.3183 -0.3351  0.2063
20054TIP3    H181653   2.946   2.932   0.834  0.6661  1.7232 -0.3293
20054TIP3    H281654   2.799   2.969   0.828  0.0299 -0.5312  0.5091
20055TIP3   OH281655   4.465   6.346  10.429 -0.3938  0.0575  0.2604
20055TIP3    H181656   4.475   6.298  10.511 -2.8033  0.2697  0.7677
20055TIP3    H281657   4.469   6.438  10.455  1.8785  0.1987 -0.3700
20056TIP3   OH281658   1.205   4.683   3.980 -0.1891  0.4053 -0.3182
20056TIP3    H181659   1.232   4.612   3.921 -1.1574  1.1244 -1.6779
20056TIP3    H281660   1.227   4.763   3.933 -1.6927  0.9981 -0.0501
20057TIP3   OH281661   1.292   4.834   5.361 -0.5041 -0.1392  0.0988
20057TIP3    H181662   1.365   4.895   5.353 -0.1987 -0.5554 -0.3414
20057TIP3    H281663   1.316   4.779   5.436  0.3270 -1.1801 -0.8885
20058TIP3   OH281664   2.829   2.765  15.318  0.7365 -0.3974  0.3064
20058TIP3    H181665   2.841   2.842  15.263 -1.5607 -0.5018 -0.4410
20058TIP3    H281666   2.918   2.740  15.343  1.5790  2.8399  1.1182
20059TIP3   OH281667   5.957   0.409   3.209 -0.3077  1.2906  0.0091
20059TIP3    H181668   5.950   0.439   3.118  0.0716  0.4353 -0.3133
20059TIP3    H281669   6.048   0.427   3.233 -0.2701  1.0599  0.0445
20060TIP3   OH281670   6.224   2.558  13.381 -0.2283 -0.2226 -0.0981
20060TIP3    H181671   6.191   2.593  13.298 -0.7721  0.3944  0.3668
20060TIP3    H281672   6.229   2.464  13.367  0.4882 -0.0531 -1.1142
20061TIP3   OH281673   1.563   4.545  14.251  0.0898  0.0151  0.6733
20061TIP3    H181674   1.517   4.618  14.294 -1.3317 -0.3256 -0.2047
20061TIP3    H281675   1.581   4.484  14.322  0.1401  0.6311  1.2078
20062TIP3   OH281676   4.187   4.652   3.860 -0.1382  0.2787  0.2256
20062TIP3    H181677   4.131   4.592   3.908  1.1101 -2.2313 -1.2536
20062TIP3    H281678   4.242   4.692   3.928 -1.5649  0.4527  1.3376
20063TIP3   OH281679   1.550   4.130   3.941 -0.3239  0.3212  0.5691
20063TIP3    H181680   1.595   4.154   3.859 -0.7495  1.7911  0.7218
20063TIP3    H281681   1.618   4.133   4.008  0.2251 -1.8067  0.1708
20064TIP3   OH281682   5.273   5.952   1.498 -0.1038  0.9012 -0.1254
20064TIP3    H181683   5.206   5.977   1.562 -2.6477  0.8705 -2.5659
20064TIP3    H281684   5.347   6.009   1.519 -1.2548  1.7499  2.0598
20065TIP3   OH281685   3.798   1.311  14.601 -0.7937 -0.0037  0.5126
20065TIP3    H181686   3.766   1.293  14.513 -2.2802  0.8485  0.8566
20065TIP3    H281687   3.874   1.254  14.610 -1.2809 -0.9398 -0.9052
20066TIP3   OH281688   3.871   2.863  16.634 -0.3848 -1.0712  0.0194
20066TIP3    H181689   3.960   2.831  16.618 -0.3662 -1.7700  1.3134
20066TIP3    H281690   3.828   2.790  16.679 -1.2381 -0.2994  0.4866
20067TIP3   OH281691   5.091   0.724   3.820  0.2378  0.2339  0.2090
20067TIP3    H181692   5.100   0.673   3.740 -0.4229 -1.4671  1.1748
20067TIP3    H281693   5.005   0.766   3.812 -0.3023 -0.7983  0.4843
20068TIP3   OH281694   0.141   1.931  11.199 -0.0523  0.0028 -0.6491
20068TIP3    H181695   0.106   1.978  11.275 -0.2160 -0.5640 -0.3664
20068TIP3    H281696   0.157   1.999  11.134 -1.6575  0.3058 -0.7753
20069TIP3   OH281697   4.629   1.891  17.071  0.2618 -0.0297  0.0830
20069TIP3    H181698   4.600   1.950  17.139 -1.0582 -1.4901  0.8581
20069TIP3    H281699   4.562   1.822  17.068  1.7985 -1.5962 -0.6104
20070TIP3   OH281700   0.369   2.257   4.963 -0.5051 -0.0297 -0.6101
20070TIP3    H181701   0.372   2.161   4.963 -0.8568 -0.0458 -0.3136
20070TIP3    H281702   0.292   2.278   5.016 -0.2940  0.4222 -0.4765
20071TIP3   OH281703   6.747   5.439  13.056 -0.0657 -0.8975 -0.3851
20071TIP3    H181704   6.714   5.350  13.061 -1.3793 -0.4618 -0.7477
20071TIP3    H281705   6.824   5.434  13.000  1.2707 -2.1505  1.4589
20072TIP3   OH281706   6.262   0.922  15.419  0.1638  0.1182  0.6246
20072TIP3    H181707   6.334   0.970  15.461 -0.3414  0.7174  0.8226
20072TIP3    H281708   6.194   0.988  15.406 -1.1673 -0.8545  2.3100
20073TIP3   OH281709   4.991   5.975   4.273  0.0206 -0.2095  0.4074
20073TIP3    H181710   4.910   6.008   4.235 -1.4010 -3.5269  0.2928
20073TIP3    H281711   5.000   6.022   4.356 -2.9288 -0.8909  1.2044
20074TIP3   OH281712   2.252   0.083   5.090  0.0985  0.5768  0.0676
20074TIP3    H181713   2.329   0.122   5.131  0.4075  0.0521  0.0018
20074TIP3    H281714   2.218   0.151   5.032  2.9237 -0.4574 -3.1294
20075TIP3   OH281715   4.516   5.852   2.083 -0.4871  0.0993  0.1162
20075TIP3    H181716   4.425   5.840   2.109 -0.3290 -0.6490  0.3351
20075TIP3    H281717   4.511   5.876   1.990 -0.8285 -1.7690 -0.3827
20076TIP3   OH281718   4.598   5.648  12.614  0.1597  0.1260 -0.4735
20076TIP3    H181719   4.504   5.637  12.601  0.5601 -0.9437 -3.0064
20076TIP3    H281720   4.622   5.578  12.676 -0.8123  1.1222  1.1193
20077TIP3   OH281721   1.864   4.250   5.590  0.2469  0.4026  0.4724
20077TIP3    H181722   1.858   4.272   5.683  1.8199 -0.1129  0.7149
20077TIP3    H281723   1.862   4.154   5.588 -1.9747  0.4050 -0.2300
20078TIP3   OH281724   4.685   0.967  13.530  0.5480 -0.8330 -0.3872
20078TIP3    H181725   4.756   0.911  13.559  1.9114  1.1726  0.3714
20078TIP3    H281726   4.631   0.980  13.609  1.1821  0.2255 -0.1084
20079TIP3   OH281727   0.983   6.231  15.933  0.6012 -0.6997 -0.3964
20079TIP3    H181728   0.954   6.322  15.944  0.9750 -0.4968 -1.0654
20079TIP3    H281729   1.077   6.233  15.949  0.5928 -0.9962 -0.2959
20080TIP3   OH281730   1.739   1.337   4.497  0.0467 -0.4954 -0.1034
20080TIP3    H181731   1.799   1.334   4.572 -0.7468 -1.0300  0.5287
20080TIP3    H281732   1.704   1.249   4.491 -0.7584 -0.1623 -0.3935
20081TIP3   OH281733   2.856   6.322  11.739  0.2362  0.2450  0.1652
20081TIP3    H181734   2.818   6.277  11.664  0.0498  0.3559  0.1940
20081TIP3    H281735   2.833   6.267  11.814  2.4726 -1.1920 -0.1009
20082TIP3   OH281736   1.958   0.098   4.849 -0.2268 -0.2350  0.1986
20082TIP3    H181737   1.901   0.111   4.773  0.4742  0.0395 -0.2866
20082TIP3    H281738   1.959   0.003   4.862 -0.0591 -0.3113 -0.3622
20083TIP3   OH281739   0.221   4.571   1.052 -0.1359 -0.2215  0.0763
20083TIP3    H181740   0.270   4.526   1.121 -0.2652  1.2085  1.1464
20083TIP3    H281741   0.144   4.606   1.096 -0.3780  0.4600 -0.8563
20084TIP3   OH281742   2.370   3.825  13.181  0.0129 -0.0775  0.1045
20084TIP3    H181743   2.426   3.882  13.233 -0.4548  1.2347 -0.7686
20084TIP3    H281744   2.327   3.768  13.245 -0.8899  1.7836  1.2562
20085TIP3   OH281745   1.385   1.220   0.539 -0.1721 -0.3191  0.0935
20085TIP3    H181746   1.394   1.232   0.634  1.3598  1.3072 -0.2126
20085TIP3    H281747   1.463   1.261   0.502 -1.9623  1.4672 -2.0231
20086TIP3   OH281748   0.707   1.450  15.718  0.6862  0.1160  0.0057
20086TIP3    H181749   0.781   1.479  15.771  0.8786 -0.3212 -0.0267
20086TIP3    H281750   0.739   1.374  15.670 -0.0417 -0.6260  0.6552
20087TIP3   OH281751   4.384   0.552   4.648  0.0440  0.0950 -0.2499
20087TIP3    H181752   4.307   0.584   4.693 -0.5742 -0.1942 -1.0726
20087TIP3    H281753   4.375   0.586   4.558  0.3729 -0.7467 -0.6083
20088TIP3   OH281754   5.363   5.901   2.836  0.1464 -0.0404 -0.2470
20088TIP3    H181755   5.326   5.982   2.873 -1.5288 -1.1424  0.6181
20088TIP3    H281756   5.388   5.925   2.747 -0.3837  1.4133 -0.0410
20089TIP3   OH281757   3.020   4.185   5.641  0.0058  0.6459 -0.2405
20089TIP3    H181758   3.067   4.269   5.640  1.1603  0.0210 -1.2191
20089TIP3    H281759   2.963   4.191   5.718  1.9427  1.3168  1.2279
20090TIP3   OH281760   1.495   4.263  16.958  0.7970 -0.6248  0.3248
20090TIP3    H181761   1.581   4.295  16.983  0.8876 -0.1416 -0.5547
20090TIP3    H281762   1.435   4.334  16.982  0.7256 -0.6938  0.3510
20091TIP3   OH281763   5.656   1.320   4.649 -0.7928 -0.1580  0.1470
20091TIP3    H181764   5.634   1.403   4.606  0.1273  0.3547  0.6248
20091TIP3    H281765   5.660   1.343   4.742 -0.2626 -0.6760  0.2560
20092TIP3   OH281766   6.485   6.524  12.395 -0.3707  0.4902  0.1249
20092TIP3    H181767   6.522   6.609  12.372 -0.7113  0.7754  0.6312
20092TIP3    H281768   6.415   6.510  12.331  0.9178 -0.3033 -1.2008
20093TIP3   OH281769   1.932   6.624  13.286 -0.3589  0.1767  0.1501
20093TIP3    H181770   2.022   6.654  13.302  0.0991 -0.2137 -1.5343
20093TIP3    H281771   1.888   6.637  13.370  0.9281  1.5671  0.6593
20094TIP3   OH281772   0.531   2.433  15.060 -0.0651 -0.9654  0.6991
20094TIP3    H181773   0.606   2.390  15.020 -1.5210 -2.5893 -0.4065
20094TIP3    H281774   0.552   2.437  15.153  2.7926  1.6393  0.1146
20095TIP3   OH281775   4.271   4.293   2.607 -0.0762  0.4789  0.2564
20095TIP3    H181776   4.272   4.276   2.701 -2.1511 -0.2822  0.1842
20095TIP3    H281777   4.233   4.381   2.599 -0.9967  0.0777  0.1017
20096TIP3   OH281778   1.684   2.891  15.804  0.5185 -0.4511  0.4283
20096TIP3    H181779   1.606   2.940  15.778 -1.3547 -2.1936  2.3988
20096TIP3    H281780   1.742   2.957  15.842 -0.6228  0.6833  0.2954
20097TIP3   OH281781   4.000   6.326  14.572  0.3093  0.5798 -0.2310
20097TIP3    H181782   4.012   6.346  14.480  0.7682 -1.2170 -0.6028
20097TIP3    H281783   3.906   6.310  14.582  0.0928  1.8253 -0.1313
20098TIP3   OH281784   2.587   4.425   6.358 -0.6989  0.1816 -0.3107
20098TIP3    H181785   2.642   4.474   6.297 -0.1166 -1.2081 -0.9587
20098TIP3    H281786   2.513   4.483   6.377 -0.2900  1.0958 -1.4312
20099TIP3   OH281787   0.008   1.979  12.596  0.4348 -0.6107 -0.3869
20099TIP3    H181788   0.016   1.896  12.642  0.7315  0.4074  1.5349
20099TIP3    H281789  -0.083   2.006  12.611  0.4463 -0.4131 -0.6633
20100TIP3   OH281790   5.834   1.642  16.037 -0.1142  0.3224 -0.2131
20100TIP3    H181791   5.746   1.631  16.073 -0.5622 -0.8888 -1.6193
20100TIP3    H281792   5.825   1.715  15.975  0.1820  1.0026  0.5149
20101TIP3   OH281793   2.050   2.803   4.468  0.0975 -0.2385  0.1659
20101TIP3    H181794   2.139   2.784   4.439 -0.9979 -1.8362 -2.5756
20101TIP3    H281795   2.020   2.872   4.409 -0.6649 -0.1039  0.7011
20102TIP3   OH281796   0.742   1.546   4.534 -0.6094 -0.0630  0.0929
20102TIP3    H181797   0.765   1.625   4.484 -1.2476  0.2204  0.2341
20102TIP3    H281798   0.753   1.573   4.626  1.7861 -0.9531  0.1289
20103TIP3   OH281799   6.438   1.472   4.584 -0.1246 -0.8201 -0.0440
20103TIP3    H181800   6.374   1.448   4.516 -1.1369 -1.2913  1.0488
20103TIP3    H281801   6.428   1.406   4.651 -0.7246  0.8463  1.5893
20104TIP3   OH281802   4.443   3.274   1.566 -0.1459  0.4887  0.0706
20104TIP3    H181803   4.449   3.233   1.480 -0.1644  1.0892 -0.2225
20104TIP3    H281804   4.490   3.357   1.556 -1.0030  1.0148  0.3642
20105TIP3   OH281805   1.928   3.455  12.149 -0.2275  0.2200 -0.2932
20105TIP3    H181806   1.856   3.514  12.125  0.4236  1.2897  0.2924
20105TIP3    H281807   2.007   3.507  12.133  0.5002 -1.2813 -1.9215
20106TIP3   OH281808   6.229   5.401  14.534 -0.1612 -0.3443  0.2004
20106TIP3    H181809   6.286   5.475  14.514  2.6613 -1.9772  1.5819
20106TIP3    H281810   6.199   5.418  14.624  0.4084 -0.7829  0.4818
20107TIP3   OH281811   1.360   2.234  10.740 -0.3575  0.4728  0.1073
20107TIP3    H181812   1.423   2.162  10.748 -0.1024  0.7945  1.0446
20107TIP3    H281813   1.277   2.190  10.721  0.2391  0.0770 -1.8962
20108TIP3   OH281814   6.781   1.377  12.302  0.0824 -0.0720 -0.1375
20108TIP3    H181815   6.806   1.359  12.211  0.5818  0.4859 -0.1146
20108TIP3    H281816   6.690   1.347  12.308  0.1595 -0.4443 -0.7207
20109TIP3   OH281817   2.352   2.305  15.350  0.2493  0.0645  0.5225
20109TIP3    H181818   2.257   2.300  15.360  0.3090 -0.4833  0.8547
20109TIP3    H281819   2.369   2.398  15.332 -0.3008  0.2677  0.9911
20110TIP3   OH281820   5.757   4.604  10.257 -0.0838  0.2368  0.5799
20110TIP3    H181821   5.683   4.658  10.286  0.1104  0.2532  1.0457
20110TIP3    H281822   5.799   4.657  10.189 -0.2842  0.3847  0.5690
20111TIP3   OH281823   1.709   4.904  15.765  0.2761 -0.1760  0.1516
20111TIP3    H181824   1.682   4.813  15.763 -2.9239  0.6707  0.2281
20111TIP3    H281825   1.671   4.942  15.685  0.4141  1.3653  0.7918
20112TIP3   OH281826   1.337   1.845  12.524 -0.4165  0.4382  0.1008
20112TIP3    H181827   1.326   1.754  12.551 -0.1056  0.4873  0.4111
20112TIP3    H281828   1.407   1.878  12.581  0.3836  0.5012 -0.9002
20113TIP3   OH281829   2.476   6.482   3.540 -0.3205  0.3536  0.0081
20113TIP3    H181830   2.444   6.565   3.506  1.8676  1.1818 -0.1327
20113TIP3    H281831   2.483   6.495   3.634 -2.9441 -0.7723  0.4624
20114TIP3   OH281832   2.377   6.495   4.299 -0.5448  0.7696 -0.7779
20114TIP3    H181833   2.342   6.527   4.216  0.5555  0.8483 -1.2362
20114TIP3    H281834   2.308   6.441   4.335 -1.0187  0.6774 -1.7799
20115TIP3   OH281835   5.156   3.309   5.687  0.5710 -0.1962 -0.3956
20115TIP3    H181836   5.227   3.326   5.748  0.6174 -1.3346 -0.1173
20115TIP3    H281837   5.087   3.268   5.740 -0.0159  0.2432 -0.8011
20116TIP3   OH281838   2.807   3.607   1.756  0.2499  0.7566  0.2647
20116TIP3    H181839   2.778   3.624   1.846 -1.2131  0.6897 -0.1660
20116TIP3    H281840   2.871   3.536   1.765 -1.4649 -0.7650  1.0939
20117TIP3   OH281841   3.679   4.773  11.417 -0.1617 -0.1485 -0.0201
20117TIP3    H181842   3.643   4.727  11.341  0.2622 -0.3214 -0.1248
20117TIP3    H281843   3.635   4.734  11.492  0.3883 -0.9412 -0.0869
20118TIP3   OH281844   1.865   3.365  10.773  0.3632 -0.0489 -0.1305
20118TIP3    H181845   1.772   3.382  10.758 -0.1117 -1.6092  0.7377
20118TIP3    H281846   1.902   3.355  10.686 -0.0588  1.5685 -0.5203
20119TIP3   OH281847   6.281   2.985  11.120  0.1597 -0.3853 -0.4933
20119TIP3    H181848   6.307   3.017  11.034 -0.3603  0.5532 -0.3192
20119TIP3    H281849   6.265   2.891  11.108  1.8770 -0.6501 -0.9849
20120TIP3   OH281850   6.245   0.203   5.395  0.7309 -0.1972 -0.0661
20120TIP3    H181851   6.284   0.127   5.353 -1.8517 -0.6190 -1.9229
20120TIP3    H281852   6.211   0.170   5.478  2.1135 -0.3505  0.4673
20121TIP3   OH281853   4.742   4.935   0.000  0.0942  0.2216 -0.4865
20121TIP3    H181854   4.696   5.014   0.028 -0.0664 -0.3644  0.9987
20121TIP3    H281855   4.674   4.868  -0.007  0.5087 -0.3207  0.4417
20122TIP3   OH281856   5.425   6.661  12.517 -0.0034 -0.8334  0.1596
20122TIP3    H181857   5.355   6.638  12.456 -0.3281  1.7483 -0.5247
20122TIP3    H281858   5.395   6.626  12.602 -1.2803 -1.2749 -0.4419
20123TIP3   OH281859   2.489   2.781   5.224 -0.0178  0.3063  0.0385
20123TIP3    H181860   2.535   2.822   5.150  1.8912  0.0156  1.0141
20123TIP3    H281861   2.410   2.833   5.234  1.3922  2.6043  0.0107
20124TIP3   OH281862   2.531   1.040  15.528  0.2428  0.1094 -0.4262
20124TIP3    H181863   2.517   0.980  15.600  0.9491 -0.8858 -1.0887
20124TIP3    H281864   2.624   1.030  15.506  0.2874  1.1614 -0.8075
20125TIP3   OH281865   5.959   1.445  12.879  0.6492  0.2632 -0.2326
20125TIP3    H181866   6.018   1.407  12.814 -0.3077  1.2615 -1.7587
20125TIP3    H281867   5.978   1.539  12.877  0.8862  0.2608  1.2612
20126TIP3   OH281868   2.931   3.087  11.928 -0.0449  0.4964  0.8791
20126TIP3    H181869   2.976   3.011  11.964 -0.6629 -1.4482 -2.1379
20126TIP3    H281870   3.000   3.134  11.879 -0.1159  0.6753  0.9498
20127TIP3   OH281871   1.013   2.919   1.201  0.1911 -0.3208 -0.0228
20127TIP3    H181872   1.022   2.921   1.296  0.2900  1.7026 -0.0303
20127TIP3    H281873   0.934   2.865   1.186 -0.6304  0.4544  1.2861
20128TIP3   OH281874   4.022   3.574  16.525 -0.0048 -0.1116  0.1138
20128TIP3    H181875   4.098   3.625  16.497 -0.7718  0.7069 -0.5388
20128TIP3    H281876   3.952   3.600  16.465 -0.5964 -1.4529  0.1833
20129TIP3   OH281877   4.093   0.453   3.512  0.1416  0.5102  0.0103
20129TIP3    H181878   4.068   0.534   3.467  0.8978  0.7849  0.0629
20129TIP3    H281879   4.135   0.400   3.445 -0.3041  0.1800 -0.0103
20130TIP3   OH281880   3.739   1.012  11.221 -0.1095  0.0166  0.2001
20130TIP3    H181881   3.712   0.947  11.157 -1.7910  1.1921 -0.3699
20130TIP3    H281882   3.827   1.038  11.194 -1.4009  1.7876 -2.8342
20131TIP3   OH281883   3.471   1.202  15.656  0.0782  0.3597 -0.1478
20131TIP3    H181884   3.447   1.139  15.589  0.2262 -1.0100  1.0200
20131TIP3    H281885   3.448   1.159  15.739  2.5343  0.7448  0.8297
20132TIP3   OH281886   6.246   0.123  16.338 -0.0121 -0.0559  0.5373
20132TIP3    H181887   6.180   0.150  16.275  0.2663 -1.2048 -0.2783
20132TIP3    H281888   6.290   0.048  16.297  2.3729  1.1685  0.6830
20133TIP3   OH281889   3.851   2.238   1.187 -0.1193  0.1839  0.7812
20133TIP3    H181890   3.789   2.218   1.257  0.2958 -2.1055  0.5541
20133TIP3    H281891   3.835   2.172   1.120  1.7753  0.2356  0.2108
20134TIP3   OH281892   4.336   4.112   5.264 -0.2054  0.4046 -0.1043
20134TIP3    H181893   4.241   4.117   5.250 -0.5874 -1.2090  1.5192
20134TIP3    H281894   4.358   4.192   5.311 -0.8555  0.5795 -0.0937
20135TIP3   OH281895   4.426   2.614   4.549 -0.2051 -0.3236  0.1503
20135TIP3    H181896   4.519   2.630   4.531  0.1424 -0.7381  1.4209
20135TIP3    H281897   4.406   2.674   4.622 -0.8529 -0.4483  0.0779
20136TIP3   OH281898   5.820   4.985  11.578 -0.6184 -0.9552 -0.2360
20136TIP3    H181899   5.784   4.897  11.587 -2.5487 -0.2126 -0.1385
20136TIP3    H281900   5.795   5.012  11.489  0.4800 -0.7153 -0.4814
20137TIP3   OH281901   3.076   0.935  14.667 -0.5072  0.4038 -0.6714
20137TIP3    H181902   3.107   1.026  14.665 -1.0125  0.6100  0.5569
20137TIP3    H281903   2.989   0.939  14.628 -1.2035  0.7331  0.8716
20138TIP3   OH281904   3.790   2.203  11.986 -0.0826  0.2014  0.7442
20138TIP3    H181905   3.721   2.218  11.921  2.6160  2.4356 -1.9026
20138TIP3    H281906   3.766   2.260  12.059 -0.8399  1.2641 -0.2908
20139TIP3   OH281907   5.122   0.561   3.604 -0.1558 -0.0490  0.7097
20139TIP3    H181908   5.196   0.619   3.589 -0.1036  0.2795  2.1506
20139TIP3    H281909   5.144   0.481   3.557  0.2676  0.6912 -0.3890
20140TIP3   OH281910   0.906   3.478   4.798 -0.2070  0.2832 -0.2103
20140TIP3    H181911   0.877   3.395   4.836 -0.7296  0.7130  0.3560
20140TIP3    H281912   0.903   3.540   4.871 -0.3618  0.9237 -0.7519
20141TIP3   OH281913   4.297   6.582   5.006 -0.5297 -1.1227 -0.6762
20141TIP3    H181914   4.379   6.596   4.958 -1.0751  0.4493 -1.1961
20141TIP3    H281915   4.325   6.539   5.088  0.7188 -1.2705 -1.1483
20142TIP3   OH281916   0.425   6.080  11.845 -0.0186 -0.0069  0.4084
20142TIP3    H181917   0.459   6.139  11.778  0.0758  0.7446  1.1089
20142TIP3    H281918   0.501   6.029  11.873 -0.0501 -0.2970 -0.0176
20143TIP3   OH281919   6.536   1.987   1.592  0.1595 -0.8521 -1.1413
20143TIP3    H181920   6.566   2.078   1.596 -2.3724  0.0223  0.4342
20143TIP3    H281921   6.503   1.975   1.503 -3.1889  1.2085 -0.3523
20144TIP3   OH281922   2.375   3.650   2.225  0.0812 -0.4538  0.0117
20144TIP3    H181923   2.295   3.699   2.241  0.9015  0.6362  0.9968
20144TIP3    H281924   2.376   3.635   2.131 -0.3853  1.1207 -0.2676
20145TIP3   OH281925   3.411   5.630   3.882  0.0334 -0.0378  0.2233
20145TIP3    H181926   3.373   5.642   3.970 -1.8616 -0.4282 -0.4892
20145TIP3    H281927   3.476   5.561   3.894 -1.1986 -1.1136  1.1011
20146TIP3   OH281928   1.771   4.161  11.893  0.1618  0.3662 -0.5613
20146TIP3    H181929   1.683   4.192  11.912 -0.2790  0.4353 -2.4760
20146TIP3    H281930   1.819   4.240  11.867  0.2702  0.0854 -1.2351
20147TIP3   OH281931   4.656   2.864  12.083  0.0871  0.6872 -0.0719
20147TIP3    H181932   4.649   2.816  12.166 -0.3765  0.7094 -0.0994
20147TIP3    H281933   4.740   2.909  12.090  0.0830  0.6365  0.3603
20148TIP3   OH281934   6.472   6.774  16.040 -0.1164 -0.0020  0.1598
20148TIP3    H181935   6.435   6.862  16.050 -1.4822 -0.5579  0.1215
20148TIP3    H281936   6.567   6.788  16.048 -0.3668  1.2937  1.5052
20149TIP3   OH281937   1.385   3.646  13.171 -0.3632 -0.6203 -0.1669
20149TIP3    H181938   1.440   3.690  13.235  0.8335 -1.7838 -0.3663
20149TIP3    H281939   1.400   3.553  13.186 -0.4365 -0.9228 -1.8101
20150TIP3   OH281940   4.033   4.834  14.599 -0.2127 -0.3582 -0.1897
20150TIP3    H181941   4.020   4.858  14.690 -1.4290 -1.3372 -0.0814
20150TIP3    H281942   4.010   4.741  14.595 -0.4784 -0.2525 -1.5449
20151TIP3   OH281943   2.072   6.271  11.202 -0.1962 -0.5235  0.0196
20151TIP3    H181944   2.161   6.269  11.236 -0.6823 -1.5798  1.3652
20151TIP3    H281945   2.021   6.224  11.268 -2.0696  1.6207  0.2425
20152TIP3   OH281946   0.062   3.153   4.399  0.6027 -0.4258 -0.3921
20152TIP3    H181947   0.075   3.077   4.456 -1.5276  1.0561  2.2872
20152TIP3    H281948   0.113   3.223   4.440 -2.1209  1.0587  0.7469
20153TIP3   OH281949   1.531   5.311  16.327  0.1257  0.5308  0.5581
20153TIP3    H181950   1.611   5.285  16.280 -0.5344  0.7137 -0.7059
20153TIP3    H281951   1.499   5.230  16.366  0.9904  0.4763  1.1919
20154TIP3   OH281952   6.075   2.748  11.588  0.1399  0.3054  0.6027
20154TIP3    H181953   5.990   2.789  11.606 -0.7194 -0.8513 -0.5459
20154TIP3    H281954   6.093   2.769  11.497  0.2534 -0.8272  0.3438
20155TIP3   OH281955   2.541   3.531   2.880 -0.1186  0.0840  0.2923
20155TIP3    H181956   2.460   3.580   2.897 -1.1147 -1.8315  1.4069
20155TIP3    H281957   2.524   3.485   2.797  0.3860  0.7333 -0.1829
20156TIP3   OH281958   1.084   4.615  14.306 -0.2152  0.0953  0.5059
20156TIP3    H181959   1.076   4.553  14.378 -0.7009 -0.7803 -0.2694
20156TIP3    H281960   1.176   4.642  14.307 -0.5165  1.2368  2.3260
20157TIP3   OH281961   0.682   6.509  12.940  0.8104  0.6278  0.5586
20157TIP3    H181962   0.623   6.513  12.865  2.1191 -1.3840 -0.6854
20157TIP3    H281963   0.752   6.571  12.920  0.5515  0.9635  0.6916
20158TIP3   OH281964   5.849   2.498  14.886  0.4365  0.1523 -0.2267
20158TIP3    H181965   5.908   2.550  14.940 -0.8295  0.8825  0.4903
20158TIP3    H281966   5.778   2.473  14.945 -1.2565  1.4120 -1.6269
20159TIP3   OH281967   6.560   2.030  11.763  0.0463 -0.4518  0.3349
20159TIP3    H181968   6.619   2.022  11.838 -1.0730 -1.2765  1.1670
20159TIP3    H281969   6.474   2.043  11.802 -0.1516  2.7176 -0.8564
20160TIP3   OH281970   0.898   2.643  11.990 -0.2976 -0.2079 -0.4467
20160TIP3    H181971   0.936   2.566  11.949 -0.3787 -1.3380  1.4878
20160TIP3    H281972   0.970   2.683  12.038 -0.6361 -0.0323 -0.0779
20161TIP3   OH281973   3.539   3.213  14.158 -0.0398  0.4004 -0.1738
20161TIP3    H181974   3.512   3.154  14.088  0.4270  0.3665 -0.3274
20161TIP3    H281975   3.624   3.179  14.187  0.5436  1.3684 -0.7009
20162TIP3   OH281976   3.485   1.421   0.059  0.7817  0.4218  0.7449
20162TIP3    H181977   3.426   1.381   0.123  0.4779 -0.2292  0.0811
20162TIP3    H281978   3.533   1.487   0.108  0.7993 -0.2928  1.7189
20163TIP3   OH281979   5.845   6.124  12.196  0.2142 -0.0275  0.4296
20163TIP3    H181980   5.827   6.217  12.210 -1.4004  0.2026 -2.4473
20163TIP3    H281981   5.759   6.084  12.191  0.8560 -1.3691 -0.1704
20164TIP3   OH281982   3.404   6.446  15.733  0.0924 -0.1883  0.0699
20164TIP3    H181983   3.324   6.473  15.777  0.8284  1.6421  0.3863
20164TIP3    H281984   3.468   6.514  15.755  0.8258  0.2076 -2.8426
20165TIP3   OH281985   2.013   1.796  15.597  0.1633 -1.2094  0.6003
20165TIP3    H181986   1.925   1.834  15.603  0.3393 -0.5629 -0.5018
20165TIP3    H281987   2.048   1.833  15.516  2.5480  0.8458  2.4091
20166TIP3   OH281988   5.342   6.349  13.299  0.7412 -0.2158 -0.3810
20166TIP3    H181989   5.256   6.370  13.335  0.6600  0.6087 -1.0093
20166TIP3    H281990   5.327   6.272  13.244 -0.5452  2.1981 -3.7891
20167TIP3   OH281991   5.291   1.893   3.450 -0.2070 -0.2044  0.4164
20167TIP3    H181992   5.243   1.850   3.379 -1.3974  0.4374  0.8136
20167TIP3    H281993   5.383   1.874   3.431 -0.6177 -1.8069 -0.1431
20168TIP3   OH281994   2.599   5.178  13.802 -0.1856  0.6808  0.6808
20168TIP3    H181995   2.631   5.210  13.887  0.9736 -0.5535  0.7467
20168TIP3    H281996   2.535   5.111  13.825  0.5679 -0.0781  0.6047
20169TIP3   OH281997   4.186   2.855  16.239  0.5400 -0.3240  0.2113
20169TIP3    H181998   4.099   2.821  16.216 -0.0792 -0.5516  2.6088
20169TIP3    H281999   4.225   2.880  16.155 -0.8616 -2.4820 -1.1808
20170TIP3   OH282000   5.965   3.066   3.627 -0.0984  0.1355 -0.2518
20170TIP3    H182001   5.932   3.143   3.580 -0.8066 -0.5108 -0.8442
20170TIP3    H282002   5.886   3.027   3.665  0.4651  0.7044  1.6170
20171TIP3   OH282003   4.124   5.730   1.506 -0.2928 -0.2372  0.3247
20171TIP3    H182004   4.061   5.768   1.567  0.6643 -1.7408  2.3847
20171TIP3    H282005   4.094   5.640   1.493 -0.0325 -0.1792 -0.8511
20172TIP3   OH282006   2.145   5.539  15.241  0.2417  0.1786  0.5392
20172TIP3    H182007   2.238   5.518  15.229  0.4117  0.8002  0.7400
20172TIP3    H282008   2.135   5.627  15.206 -0.0753  0.4831  1.3558
20173TIP3   OH282009   5.052   5.598  14.020  0.4539  0.7453  0.2209
20173TIP3    H182010   5.134   5.616  13.976  0.3963 -0.0443 -0.2183
20173TIP3    H282011   4.986   5.603  13.951 -0.0517  2.6114  0.7771
20174TIP3   OH282012   5.163   4.544   0.154  0.5219 -0.4668  0.2431
20174TIP3    H182013   5.080   4.591   0.161  0.6671 -0.2216  0.3309
20174TIP3    H282014   5.220   4.604   0.106  0.0759 -1.4048 -1.5406
20175TIP3   OH282015   1.281   4.585  16.694  0.6414  0.2781 -0.7655
20175TIP3    H182016   1.216   4.588  16.623 -1.2263  1.1185  0.8924
20175TIP3    H282017   1.294   4.492  16.710 -0.0700  0.0928 -1.2030
20176TIP3   OH282018   1.597   5.365  11.828 -0.1436  0.2103 -0.0511
20176TIP3    H182019   1.667   5.398  11.884  0.6169  1.7791 -1.8350
20176TIP3    H282020   1.571   5.440  11.775 -2.2628 -0.6862 -0.3916
20177TIP3   OH282021   1.961   6.086  11.968  0.0897  0.1142 -0.1257
20177TIP3    H182022   1.965   5.997  12.005 -1.4552 -1.1232 -2.6818
20177TIP3    H282023   2.002   6.078  11.882 -1.9439  1.3352 -1.2848
20178TIP3   OH282024   1.993   6.320  11.813 -0.3147 -0.2288  0.5536
20178TIP3    H182025   2.021   6.373  11.887  0.5939 -0.3369  0.2994
20178TIP3    H282026   1.947   6.246  11.853  1.9902 -1.4118  1.1866
20179TIP3   OH282027   2.854   1.657  14.848 -0.0384  0.3905 -0.2573
20179TIP3    H182028   2.839   1.713  14.773 -0.4257 -1.7903 -1.8949
20179TIP3    H282029   2.787   1.682  14.912 -0.6206  1.2991 -1.2085
20180TIP3   OH282030   4.500   2.551  14.204 -0.2571 -0.5303  0.0981
20180TIP3    H182031   4.497   2.587  14.292  0.0432 -1.9823  0.7314
20180TIP3    H282032   4.470   2.461  14.213 -1.3685 -0.3760 -1.4927
20181TIP3   OH282033   1.471   1.433  14.433 -0.2690  0.0893  0.3078
20181TIP3    H182034   1.447   1.357  14.379 -0.3411  0.4978 -0.2475
20181TIP3    H282035   1.562   1.452  14.408  0.0075 -0.2804  1.0090
20182TIP3   OH282036   2.543   0.939  11.057 -0.6746 -0.3894 -0.4322
20182TIP3    H182037   2.573   1.028  11.038  0.1723 -0.3943  0.7754
20182TIP3    H282038   2.530   0.899  10.971 -1.5850  1.0589 -1.0003
20183TIP3   OH282039   2.251   2.717  14.155 -0.3197 -0.3840  0.1818
20183TIP3    H182040   2.234   2.783  14.222  3.7564  1.4311 -0.3332
20183TIP3    H282041   2.292   2.765  14.083  1.3453 -3.2183 -0.9085
20184TIP3   OH282042   3.513   1.706  15.533  0.7791  0.0841 -0.0997
20184TIP3    H182043   3.521   1.678  15.624  0.1449  0.2355  0.0066
20184TIP3    H282044   3.567   1.786  15.528  1.5345 -0.4101 -0.0861
20185TIP3   OH282045   6.748   0.478   0.053 -0.2068 -0.3310  0.0573
20185TIP3    H182046   6.811   0.411   0.078  0.0400 -0.1513 -0.0782
20185TIP3    H282047   6.667   0.452   0.096 -0.4171 -1.3246 -0.9110
20186TIP3   OH282048   6.625   2.389  15.127  0.5724 -0.0459 -0.1568
20186TIP3    H182049   6.670   2.305  15.140 -0.1267 -0.6632 -1.5586
20186TIP3    H282050   6.644   2.413  15.036 -1.7016 -0.2032 -0.7240
20187TIP3   OH282051   1.577   3.219  11.683 -0.3063 -0.2130  0.0417
20187TIP3    H182052   1.636   3.143  11.686  0.4390  0.3820  2.6886
20187TIP3    H282053   1.630   3.288  11.642  0.1867 -0.2040  0.6834
20188TIP3   OH282054   6.189   1.795   4.193  0.0119  0.3725 -0.4574
20188TIP3    H182055   6.272   1.779   4.238  0.0002 -2.0802 -1.1477
20188TIP3    H282056   6.135   1.719   4.216 -1.5413  1.2295 -1.1465
20189TIP3   OH282057   4.754   5.390   4.551  0.0573 -0.2829  0.4708
20189TIP3    H182058   4.727   5.309   4.506 -0.3821  0.5671 -0.8789
20189TIP3    H282059   4.755   5.456   4.481 -1.7706  1.3811  1.8979
20190TIP3   OH282060   1.655   2.087   1.487  0.4345  0.0814  0.5478
20190TIP3    H182061   1.742   2.105   1.524  0.5246 -0.4926  0.6152
20190TIP3    H282062   1.616   2.025   1.548  0.3204 -0.3459  0.0420
20191TIP3   OH282063   0.062   5.581  14.612 -0.6686 -0.2612 -0.1384
20191TIP3    H182064  -0.013   5.539  14.654  0.0351 -0.0325  1.3997
20191TIP3    H282065   0.060   5.671  14.643  0.4515 -0.3483  0.2117
20192TIP3   OH282066   1.882   1.702   5.899  0.0231 -0.1923  0.1967
20192TIP3    H182067   1.920   1.765   5.838  1.4944  0.4221  1.6766
20192TIP3    H282068   1.797   1.740   5.922  1.2515  1.7913  1.7463
20193TIP3   OH282069   2.475   3.504  12.810  0.0313  0.5111 -0.2823
20193TIP3    H182070   2.431   3.467  12.887  2.9137 -0.4652  1.0240
20193TIP3    H282071   2.482   3.431  12.749  0.0558  0.5997 -0.3863
20194TIP3   OH282072   5.333   3.675  15.504 -0.2945  0.0730  0.0162
20194TIP3    H182073   5.409   3.706  15.455  0.0065  3.1397  2.1467
20194TIP3    H282074   5.259   3.691  15.446  0.1714  2.4489 -0.0110
20195TIP3   OH282075   6.180   1.100   0.601  1.1438 -0.5553  0.2904
20195TIP3    H182076   6.096   1.145   0.590 -0.1788 -2.5593  1.5520
20195TIP3    H282077   6.244   1.171   0.602 -0.5304  1.0780 -0.4500
20196TIP3   OH282078   3.794   1.633   4.419  0.7068 -0.6589  0.1267
20196TIP3    H182079   3.734   1.586   4.361 -0.1758  0.0918  0.4145
20196TIP3    H282080   3.738   1.671   4.486  1.4370  0.4895  0.1098
20197TIP3   OH282081   1.784   0.478   5.975  0.3707  0.3626 -0.3598
20197TIP3    H182082   1.856   0.415   5.986 -1.0770 -1.2684  0.2656
20197TIP3    H282083   1.808   0.552   6.030  1.2642 -0.4232  0.3435
20198TIP3   OH282084   6.622   3.343  16.647 -0.0685  0.2792  0.3222
20198TIP3    H182085   6.656   3.409  16.708  1.4103  0.4793 -0.6562
20198TIP3    H282086   6.668   3.361  16.565 -0.0961 -1.6015 -0.1353
20199TIP3   OH282087   2.995   6.411  13.580 -0.3281 -0.3030 -0.0731
20199TIP3    H182088   2.950   6.464  13.515  0.2138 -1.3259 -1.3088
20199TIP3    H282089   3.086   6.408  13.550  0.1416 -0.0417  1.2316
20200TIP3   OH282090   6.520   5.895  13.403 -0.3495 -0.0808 -0.1072
20200TIP3    H182091   6.615   5.884  13.396 -0.5900 -2.8342 -0.4154
20200TIP3    H282092   6.494   5.939  13.323  0.4920 -1.1887 -1.0151
20201TIP3   OH282093   0.984   5.891   4.294 -0.0703 -0.4836 -0.9116
20201TIP3    H182094   0.957   5.825   4.358  1.5099 -0.5717 -0.2845
20201TIP3    H282095   1.032   5.956   4.346 -2.4932  1.7876 -1.3107
20202TIP3   OH282096   0.786   4.201   4.734  0.3128 -0.3311  0.5587
20202TIP3    H182097   0.757   4.203   4.643  0.2244  0.2158  0.5958
20202TIP3    H282098   0.860   4.261   4.737 -0.4361  0.6090  1.0924
20203TIP3   OH282099   2.667   1.650   6.260 -0.2546  0.5468 -0.3855
20203TIP3    H182100   2.736   1.715   6.273  1.1952 -0.7270 -1.4038
20203TIP3    H282101   2.692   1.576   6.316 -0.9521  0.1666 -0.5561
20204TIP3   OH282102   1.707   2.651   4.416  0.2119  1.3243 -0.0824
20204TIP3    H182103   1.719   2.725   4.474  0.4919  0.7445  0.6211
20204TIP3    H282104   1.785   2.597   4.429 -0.7439  0.0585  0.7020
20205TIP3   OH282105   3.609   6.365  16.229 -0.2880 -0.2636 -0.1574
20205TIP3    H182106   3.610   6.405  16.142 -0.4088  0.7369  0.2894
20205TIP3    H282107   3.645   6.432  16.287  0.4732 -1.1863  0.4630
20206TIP3   OH282108   5.486   4.456  13.998 -0.5249  0.3014  0.2241
20206TIP3    H182109   5.413   4.395  13.985  0.7196 -1.0866 -0.4994
20206TIP3    H282110   5.446   4.542  13.990 -2.2081 -0.3982  0.5387
20207TIP3   OH282111   2.996   6.097   3.940 -0.0255 -0.8720 -0.0465
20207TIP3    H182112   2.993   6.004   3.917  0.5346 -0.6136 -1.2144
20207TIP3    H282113   2.986   6.098   4.035  0.0365 -2.1300 -0.0066
20208TIP3   OH282114   6.589   6.420  12.750  0.5832  0.0705 -0.7625
20208TIP3    H182115   6.549   6.506  12.734  0.5916 -0.1585 -2.1289
20208TIP3    H282116   6.617   6.423  12.842 -1.0226  0.8629 -0.2646
20209TIP3   OH282117   3.572   5.077  15.771 -0.1028 -0.4676  0.0830
20209TIP3    H182118   3.644   5.084  15.709 -0.5327  0.0388 -0.3749
20209TIP3    H282119   3.518   5.005  15.737 -1.0818  0.7029 -0.9454
20210TIP3   OH282120   4.386   0.348  13.378 -0.4538  0.2986  0.3845
20210TIP3    H182121   4.349   0.434  13.359 -0.1367 -0.2335 -3.3029
20210TIP3    H282122   4.478   0.365  13.395 -0.6621  0.7884  1.0765
20211TIP3   OH282123   5.990   1.678   4.864  0.6403 -0.6479 -0.3663
20211TIP3    H182124   5.987   1.708   4.773  0.7509 -1.4488 -0.6365
20211TIP3    H282125   6.013   1.586   4.859 -0.3840 -0.9679  0.4215
20212TIP3   OH282126   5.827   5.642   0.736 -0.0999 -0.1907  0.2357
20212TIP3    H182127   5.894   5.610   0.795  1.6218  0.9446 -0.9896
20212TIP3    H282128   5.780   5.564   0.706  2.5080 -1.3918 -0.9982
20213TIP3   OH282129   6.791   3.728  16.229 -0.0158  0.6538  0.1746
20213TIP3    H182130   6.791   3.641  16.267 -0.3326 -0.0776 -1.4206
20213TIP3    H282131   6.820   3.786  16.300 -0.2613 -0.6732  1.3817
20214TIP3   OH282132   4.494   0.553   0.341  0.4019  0.3754  1.0301
20214TIP3    H182133   4.491   0.465   0.302  1.5491  1.3039 -1.3530
20214TIP3    H282134   4.404   0.571   0.368 -0.0847 -1.0495  0.4371
20215TIP3   OH282135   6.705   6.339   5.714 -0.0426 -0.1580 -0.1245
20215TIP3    H182136   6.744   6.251   5.720  0.8225  0.0601 -1.9351
20215TIP3    H282137   6.627   6.334   5.769 -1.1716 -2.7190 -1.7389
20216TIP3   OH282138   4.210   4.253   3.282  0.0974 -0.8552 -0.2253
20216TIP3    H182139   4.289   4.246   3.228  0.1276 -2.1139 -0.0509
20216TIP3    H282140   4.237   4.220   3.368 -0.7634 -1.8762 -0.3288
20217TIP3   OH282141   2.264   1.461  14.408 -0.0785  0.7021 -0.2934
20217TIP3    H182142   2.351   1.439  14.374  0.2476  0.3943  0.7088
20217TIP3    H282143   2.211   1.383  14.390  0.5575 -0.1839  1.4551
20218TIP3   OH282144   6.478   2.320  15.952  0.2917  0.3631  0.4487
20218TIP3    H182145   6.519   2.235  15.935 -2.6841 -0.9764 -0.6877
20218TIP3    H282146   6.422   2.335  15.876 -1.2676  2.0393  1.8437
20219TIP3   OH282147   1.659   0.714   6.161 -0.1845  0.1202 -0.2644
20219TIP3    H182148   1.711   0.640   6.194 -0.1161 -0.1836 -1.0249
20219TIP3    H282149   1.672   0.784   6.225  0.0618 -0.4010  0.2641
20220TIP3   OH282150   5.438   0.945  11.155 -0.2832 -0.3109 -0.1864
20220TIP3    H182151   5.437   0.871  11.094 -0.8292 -0.4355 -0.0343
20220TIP3    H282152   5.498   1.009  11.115 -0.1062 -0.6747 -0.5079
20221TIP3   OH282153   2.615   6.332   5.705  0.1641 -0.4728  0.2923
20221TIP3    H182154   2.669   6.265   5.664 -1.1594 -0.6419 -1.2740
20221TIP3    H282155   2.534   6.287   5.728  0.1226  0.0926  1.3266
20222TIP3   OH282156   4.656   2.183  12.071 -0.2853 -0.1006 -0.3502
20222TIP3    H182157   4.649   2.093  12.103  1.5540 -0.9934 -2.2367
20222TIP3    H282158   4.731   2.182  12.012  0.1462  2.8320 -0.0075
20223TIP3   OH282159   2.336   1.232   2.796 -0.6783 -0.0538  0.3608
20223TIP3    H182160   2.263   1.293   2.808 -0.1848  0.4440  0.9145
20223TIP3    H282161   2.387   1.241   2.877  1.2053  1.2402 -0.8842
20224TIP3   OH282162   5.731   3.747   1.265 -0.3451  0.4723 -0.1479
20224TIP3    H182163   5.682   3.828   1.279 -2.0533 -0.7115  1.1153
20224TIP3    H282164   5.822   3.769   1.287 -1.1555  1.4646  2.5783
20225TIP3   OH282165   2.438   6.439  16.204  0.5210 -0.4843  0.4517
20225TIP3    H182166   2.452   6.509  16.140 -1.8527  0.8155  1.2609
20225TIP3    H282167   2.526   6.403  16.219  1.5018  0.8509 -1.5990
20226TIP3   OH282168   2.187   5.918   0.107 -0.2730  0.0550  0.4561
20226TIP3    H182169   2.199   5.965   0.025  0.6372 -1.2100 -0.1636
20226TIP3    H282170   2.149   5.983   0.166  0.4617  1.4086 -0.5057
20227TIP3   OH282171   5.228   2.981  11.992  0.3002 -0.1056  0.3409
20227TIP3    H182172   5.180   3.056  12.029  0.8239 -0.2914  1.4379
20227TIP3    H282173   5.163   2.936  11.937 -0.8988 -0.4924  1.9883
20228TIP3   OH282174   6.327   2.855   5.955  0.1961  0.0567 -0.1953
20228TIP3    H182175   6.376   2.937   5.954  0.8414 -0.3013  0.5361
20228TIP3    H282176   6.263   2.866   6.026 -0.5442  0.3728 -0.8893
20229TIP3   OH282177   1.929   5.740  16.039  0.0522 -0.3028  0.2083
20229TIP3    H182178   1.844   5.729  16.081  0.1015 -1.1629  0.0925
20229TIP3    H282179   1.919   5.701  15.953  0.5112 -0.2499  0.1261
20230TIP3   OH282180   1.813   3.173  14.506  0.6786 -0.3753  0.5662
20230TIP3    H182181   1.794   3.083  14.478  1.3899 -0.4619  0.3404
20230TIP3    H282182   1.867   3.209  14.435  1.4895 -0.1996  1.2607
20231TIP3   OH282183   0.680   3.183   1.659 -0.1520 -0.2540 -0.5138
20231TIP3    H182184   0.733   3.118   1.612 -0.4576 -1.0463  0.2082
20231TIP3    H282185   0.652   3.244   1.591  1.3127 -0.0707 -0.9746
20232TIP3   OH282186   0.367   6.768   4.686  0.7491 -0.1408  0.7327
20232TIP3    H182187   0.417   6.713   4.746  1.9864 -1.6304 -1.5174
20232TIP3    H282188   0.429   6.837   4.660  1.5205 -1.5330 -1.4408
20233TIP3   OH282189   4.686   4.009   2.738 -0.3220 -0.4303 -0.1120
20233TIP3    H182190   4.775   3.986   2.763 -0.2319  0.5712  0.5343
20233TIP3    H282191   4.682   3.989   2.644 -0.2946 -3.1056  0.3679
20234TIP3   OH282192   2.633   6.224  12.619  0.3219 -0.1466  0.0946
20234TIP3    H182193   2.647   6.283  12.544  0.6324  0.5887  0.7219
20234TIP3    H282194   2.561   6.263  12.668 -0.5270 -1.1414 -0.3107
20235TIP3   OH282195   1.691   1.564  15.754 -0.5257  0.1373  0.6872
20235TIP3    H182196   1.700   1.648  15.708  2.8534 -0.8208 -0.7143
20235TIP3    H282197   1.732   1.579  15.839 -0.1073 -0.0455  0.5165
20236TIP3   OH282198   1.306   4.868  12.751 -0.0472 -0.4262 -0.1181
20236TIP3    H182199   1.303   4.831  12.839 -0.9621 -0.1601 -0.0270
20236TIP3    H282200   1.248   4.944  12.755  0.5390  0.0716 -0.7352
20237TIP3   OH282201   6.289   4.407   1.562  0.1080  0.2235 -0.3279
20237TIP3    H182202   6.232   4.331   1.575  0.6429  0.0503  1.1672
20237TIP3    H282203   6.231   4.482   1.568  0.0635  0.0792  1.7471
20238TIP3   OH282204   5.233   5.623   2.279 -0.2754  0.1489 -0.1211
20238TIP3    H182205   5.190   5.660   2.202  1.0881  0.4212 -0.7685
20238TIP3    H282206   5.321   5.659   2.277  0.3198 -1.2051  0.6138
20239TIP3   OH282207   5.904   2.163   2.210 -0.2976  0.5804 -0.1284
20239TIP3    H182208   5.863   2.077   2.201 -1.2882  0.6127  2.9625
20239TIP3    H282209   5.996   2.144   2.227 -0.4361  0.1435  0.1594
20240TIP3   OH282210   2.958   5.788  15.350  0.4039 -0.0132  0.3204
20240TIP3    H182211   3.016   5.841  15.296 -0.3482 -0.3048 -0.8106
20240TIP3    H282212   2.985   5.698  15.333  0.3896 -0.0964  0.7202
20241TIP3   OH282213   4.208   0.150   5.774  0.1351 -0.3862 -0.0735
20241TIP3    H182214   4.197   0.081   5.708  0.1027  0.3987 -0.9112
20241TIP3    H282215   4.297   0.181   5.763 -0.1601  0.3844 -0.3971
20242TIP3   OH282216   2.812   2.970  13.604  0.2605 -0.1395 -0.1185
20242TIP3    H182217   2.777   3.003  13.521  0.4406 -2.6770 -1.3125
20242TIP3    H282218   2.839   3.048  13.651 -0.9030  1.4805 -1.9506
20243TIP3   OH282219   0.753   3.116   0.909 -0.2553 -0.1023  0.3171
20243TIP3    H182220   0.826   3.056   0.926 -1.4306 -1.8873 -0.5321
20243TIP3    H282221   0.781   3.168   0.834  0.1964 -0.7384  0.0350
20244TIP3   OH282222   0.078   1.461   3.766 -0.2360 -0.1993 -0.0246
20244TIP3    H182223   0.095   1.555   3.776 -0.7143  0.0824 -1.6746
20244TIP3    H282224  -0.017   1.455   3.757 -0.1102 -0.6953 -1.1890
20245TIP3   OH282225   5.596   3.562   2.378 -0.3873 -0.0619 -0.4997
20245TIP3    H182226   5.529   3.630   2.384 -0.5342 -0.2990  0.6706
20245TIP3    H282227   5.641   3.564   2.462  0.4115 -0.5954 -0.9009
20246TIP3   OH282228   1.874   0.122  16.956 -0.6351 -0.0926 -0.2301
20246TIP3    H182229   1.781   0.109  16.941 -0.4082 -1.6024 -0.5647
20246TIP3    H282230   1.915   0.105  16.870  0.0874 -1.5345  0.3581
20247TIP3   OH282231   3.353   3.798   2.509 -0.2371  0.1617 -0.2951
20247TIP3    H182232   3.354   3.740   2.434  0.3765 -0.3638  0.1086
20247TIP3    H282233   3.404   3.874   2.481  2.0817 -1.0613  0.3501
20248TIP3   OH282234   4.765   0.788   5.588  0.5412  0.3892  0.7937
20248TIP3    H182235   4.755   0.850   5.516 -1.6236  1.6491  2.0428
20248TIP3    H282236   4.776   0.843   5.665 -0.0774 -0.8066  1.7715
20249TIP3   OH282237   4.353   2.332  13.332 -0.1705 -0.2718 -0.2792
20249TIP3    H182238   4.407   2.408  13.356 -0.6720 -0.4134  1.4584
20249TIP3    H282239   4.334   2.290  13.416 -0.3572 -2.0177 -1.1728
20250TIP3   OH282240   4.377   5.926  14.538  0.2073  0.1199 -0.9437
20250TIP3    H182241   4.356   6.013  14.504  2.4989  1.5227  0.8875
20250TIP3    H282242   4.447   5.894  14.480  0.1208 -0.0137 -0.9731
20251TIP3   OH282243   3.320   4.746  15.376  0.2235  0.1473  0.3305
20251TIP3    H182244   3.332   4.672  15.317  2.0186  0.9560 -0.3762
20251TIP3    H282245   3.340   4.711  15.463  5.0194  0.5406 -0.3573
20252TIP3   OH282246   3.454   4.406   0.711 -0.2043 -0.5280 -0.5251
20252TIP3    H182247   3.509   4.483   0.696  0.5421 -0.7050  1.1444
20252TIP3    H282248   3.512   4.332   0.693 -0.4960 -0.7166 -0.6980
20253TIP3   OH282249   0.266   6.613  12.167  0.1594  0.3683  0.3224
20253TIP3    H182250   0.185   6.644  12.208  0.8646  2.3499  0.3214
20253TIP3    H282251   0.318   6.693  12.153  0.2131 -0.1625 -3.9178
20254TIP3   OH282252   6.024   0.364  12.980 -0.4991  0.1218  0.0062
20254TIP3    H182253   5.996   0.401  12.896 -1.5177 -1.1293 -0.2463
20254TIP3    H282254   6.074   0.434  13.022  0.2862  0.6821 -1.7610
20255TIP3   OH282255   0.138   0.460  14.649 -0.1996 -0.4558  0.2494
20255TIP3    H182256   0.048   0.482  14.673  0.0866 -1.3778  2.3947
20255TIP3    H282257   0.191   0.532  14.684 -0.0792  0.1231 -1.0752
20256TIP3   OH282258   2.314   3.678   2.897 -0.2912 -0.0940  0.5694
20256TIP3    H182259   2.300   3.755   2.842  0.3093 -1.2063 -1.2602
20256TIP3    H282260   2.259   3.610   2.857  0.0983 -0.9264  1.4015
20257TIP3   OH282261   4.533   2.569  13.392  0.4682  0.2917 -0.1706
20257TIP3    H182262   4.614   2.522  13.371  0.7923 -0.6003  2.6420
20257TIP3    H282263   4.552   2.660  13.369  1.4468 -0.2228 -1.5900
20258TIP3   OH282264   1.668   5.508  11.307 -0.0324  0.1913 -0.3620
20258TIP3    H182265   1.638   5.599  11.305 -0.4175  0.0495 -1.9007
20258TIP3    H282266   1.753   5.509  11.263 -0.6836 -0.3897 -1.6984
20259TIP3   OH282267   3.525   0.346   3.551  0.0224 -0.1916 -0.0778
20259TIP3    H182268   3.470   0.398   3.492  2.3007  0.7404 -1.5236
20259TIP3    H282269   3.569   0.411   3.606  0.2250 -0.8470  0.5457
20260TIP3   OH282270   4.816   5.114   0.903  0.2326 -0.0455  0.2067
20260TIP3    H182271   4.824   5.035   0.957 -3.1823  0.0634  1.0663
20260TIP3    H282272   4.844   5.086   0.816  3.9573 -0.7476  1.4170
20261TIP3   OH282273   6.013   0.168   4.080 -0.5012 -0.0533 -0.4655
20261TIP3    H182274   5.926   0.205   4.066 -0.6601 -0.2400  0.0020
20261TIP3    H282275   5.997   0.090   4.134  0.1041  0.8193  1.0325
20262TIP3   OH282276   0.888   6.100   2.576  0.3879 -0.4345 -0.5272
20262TIP3    H182277   0.974   6.075   2.611 -0.1247 -1.8380 -0.2309
20262TIP3    H282278   0.869   6.034   2.510 -0.9638 -0.7973  0.1917
20263TIP3   OH282279   1.127   3.483  16.112  0.3182  0.0075 -0.3659
20263TIP3    H182280   1.065   3.436  16.056 -0.3712 -0.2218  0.5484
20263TIP3    H282281   1.074   3.548  16.157  0.9477  0.5058 -0.3320
20264TIP3   OH282282   1.049   2.921  12.972  0.5334  0.0538  0.1699
20264TIP3    H182283   1.055   3.008  12.932 -0.3734 -0.6235 -1.5541
20264TIP3    H282284   0.995   2.934  13.050 -1.7033  0.7000 -1.3773
20265TIP3   OH282285   4.732   4.616   0.505  0.2594  0.3785 -0.2387
20265TIP3    H182286   4.676   4.603   0.429 -0.8696 -3.5308  1.0192
20265TIP3    H282287   4.815   4.575   0.481  1.2753  2.4888 -0.5947
20266TIP3   OH282288   0.513   5.985   5.820 -0.6955 -0.0943  0.6320
20266TIP3    H182289   0.428   5.975   5.776 -0.6473 -0.8226  0.6922
20266TIP3    H282290   0.558   6.053   5.770 -1.6006  0.8370  1.0547
20267TIP3   OH282291   1.259   3.719   3.801 -0.2713  0.0040  0.6580
20267TIP3    H182292   1.346   3.688   3.826 -0.2064  0.8035  1.4931
20267TIP3    H282293   1.274   3.801   3.755 -0.5883  0.3434  1.1391
20268TIP3   OH282294   1.358   4.235   0.850  0.0074 -0.1929  0.5855
20268TIP3    H182295   1.286   4.260   0.793  0.4304 -0.5414 -0.1204
20268TIP3    H282296   1.363   4.140   0.841  0.9179 -0.1134  0.1744
20269LIG     O182297   1.671   5.715   9.817  0.3067  0.0362  0.5610
20269LIG     O282298   1.657   5.291   9.611 -0.2967 -0.6262 -0.3369
20269LIG     N182299   1.527   5.455   9.521  0.1987 -0.2316 -0.2977
20269LIG     N282300   1.447   5.789   9.614  0.4739  0.5200 -0.0942
20269LIG     N382301   1.646   5.496   9.727  0.0614  0.1832  0.3169
20269LIG     N482302   1.373   5.644   9.461  0.2802  0.3019  0.3681
20269LIG     C182303   1.517   5.672   9.639 -0.1422 -0.8732 -0.0532
20269LIG     C282304   1.474   5.586   9.535  0.6375 -0.5703 -0.4757
20269LIG     C382305   1.615   5.638   9.733  0.2268  0.2899 -0.2350
20269LIG     C482306   1.612   5.408   9.619  0.0005  0.0540 -0.3873
20269LIG     C582307   1.360   5.763   9.512  0.2314 -0.3012  0.1071
20269LIG     C682308   1.485   5.368   9.407  0.5244  0.4757 -1.0922
20269LIG     C782309   1.448   5.902   9.704  0.5021  0.2890  0.0135
20269LIG     C882310   1.745   5.451   9.828  0.2180 -0.1603  0.3084
20269LIG     H182311   1.307   5.848   9.470  0.7417 -0.2130 -0.3690
20269LIG     H282312   1.551   5.280   9.393 -0.1525 -0.3831  0.8095
20269LIG     H382313   1.486   5.418   9.308 -0.4788  3.1126  0.1390
20269LIG     H482314   1.389   5.323   9.439  0.6642  1.3488  0.6592
20269LIG     H582315   1.353   5.960   9.702  0.6016  1.0937  4.9280
20269LIG     H682316   1.524   5.979   9.678 -1.6556  2.0290 -1.5680
20269LIG     H782317   1.469   5.873   9.809  0.1771  0.0513  0.0117
20269LIG     H882318   1.770   5.345   9.805 -2.3847 -0.3678 -2.1447
20269LIG     H982319   1.693   5.454   9.926  0.2729  0.3844  0.3194
20269LIG    H1082320   1.835   5.515   9.831 -0.0810  0.2625  2.7225
   6.83872   6.83872  17.16664
