Title
43181
    1CHL1    C3    1   4.917   5.888   7.040  0.0351  0.1090  0.4443
    1CHL1    H3    2   4.942   5.994   7.023  1.1612  0.0168  1.3944
    1CHL1    O3    3   4.908   5.851   7.181  0.1168 -0.2218 -0.6257
    1CHL1   H3'    4   4.845   5.916   7.214  0.7978  0.7359 -1.1512
    1CHL1    C4    5   4.788   5.852   6.959  0.5542 -0.7283  0.2551
    1CHL1   H4A    6   4.759   5.749   6.988  2.0375 -1.1606  0.2644
    1CHL1   H4B    7   4.706   5.919   6.993  1.5092  0.7133 -0.1905
    1CHL1    C5    8   4.807   5.854   6.806  0.2493 -0.1407 -0.2525
    1CHL1    C6    9   4.711   5.917   6.736  0.0935 -0.4874  0.7610
    1CHL1    H6   10   4.620   5.954   6.784 -0.2260 -0.5803  0.2321
    1CHL1    C7   11   4.721   5.925   6.592  0.7150 -0.4209  0.8436
    1CHL1   H7A   12   4.620   5.925   6.546  0.1684  2.6134  1.7867
    1CHL1   H7B   13   4.755   6.025   6.559  0.2698 -1.3410 -2.7927
    1CHL1    C8   14   4.825   5.830   6.517 -0.1867  0.5135  0.1771
    1CHL1    H8   15   4.787   5.725   6.519  0.2547  0.3554  0.2292
    1CHL1   C14   16   4.856   5.872   6.376  0.6997  0.1399 -0.6675
    1CHL1   H14   17   4.900   5.974   6.377  0.9009  0.0611 -1.3698
    1CHL1   C15   18   4.731   5.882   6.288  0.0397 -0.2614 -0.1032
    1CHL1  H15A   19   4.666   5.795   6.310 -0.8126  0.4940  0.4672
    1CHL1  H15B   20   4.665   5.970   6.307 -0.3975 -0.2100 -1.6985
    1CHL1   C16   21   4.793   5.885   6.146  0.0843 -0.2998 -0.3051
    1CHL1  H16A   22   4.733   5.809   6.092 -0.6333  0.3181 -0.3995
    1CHL1  H16B   23   4.787   5.987   6.103  0.0417  0.0548  0.5360
    1CHL1   C17   24   4.943   5.845   6.165  0.3399 -0.3220  0.4945
    1CHL1   H17   25   4.993   5.943   6.182  0.6030 -0.1655 -0.9980
    1CHL1   C13   26   4.946   5.786   6.301 -0.6190 -0.2249  0.2713
    1CHL1   C18   27   4.904   5.638   6.282  0.2565 -0.3555  0.1410
    1CHL1  H18A   28   4.916   5.573   6.372  1.4120 -1.9403 -1.1037
    1CHL1  H18B   29   4.802   5.635   6.239  1.0957 -0.3670 -1.9637
    1CHL1  H18C   30   4.966   5.588   6.205  1.5631  3.3388 -1.4058
    1CHL1   C12   31   5.083   5.799   6.381  0.1804  0.0052 -0.4132
    1CHL1  H12A   32   5.169   5.750   6.330  0.1292 -1.0294  0.4549
    1CHL1  H12B   33   5.108   5.907   6.371  2.1809 -0.4295 -0.6712
    1CHL1   C11   34   5.067   5.756   6.531 -0.2104  0.8600  0.1144
    1CHL1  H11A   35   5.042   5.649   6.546  1.5358  0.5888  1.4374
    1CHL1  H11B   36   5.169   5.767   6.572  1.5889  1.2076 -3.9120
    1CHL1    C9   37   4.956   5.834   6.594  0.7127 -1.0470  0.2089
    1CHL1    H9   38   4.984   5.941   6.606  0.7559 -1.2180  1.9081
    1CHL1   C10   39   4.928   5.788   6.743 -0.4303 -0.7079 -0.2972
    1CHL1   C19   40   4.888   5.638   6.758 -0.6066 -0.7673  0.1839
    1CHL1  H19A   41   4.881   5.617   6.867  1.5999 -1.2436  0.2794
    1CHL1  H19B   42   4.793   5.605   6.711 -1.2524  1.2163 -0.0009
    1CHL1  H19C   43   4.979   5.583   6.724  0.3893  2.3342 -2.6797
    1CHL1    C1   44   5.049   5.823   6.842  0.7333  0.3364  0.9469
    1CHL1   H1A   45   5.143   5.773   6.809 -1.2849 -2.3074 -1.3550
    1CHL1   H1B   46   5.076   5.930   6.831  2.8699 -0.3119 -1.0485
    1CHL1    C2   47   5.034   5.791   6.989 -0.5406  0.5240  0.1813
    1CHL1   H2A   48   5.129   5.813   7.043 -1.9415  1.1191  2.5794
    1CHL1   H2B   49   4.999   5.688   7.012  0.0961  0.3937  0.5836
    1CHL1   C20   50   4.998   5.777   6.037 -0.0927  0.6955 -0.3498
    1CHL1   H20   51   4.941   5.691   5.996  1.0548 -1.4762  2.3033
    1CHL1   C21   52   5.142   5.730   6.056 -0.3755 -0.0914 -0.1780
    1CHL1  H21A   53   5.193   5.701   5.961  2.4897  1.2204  0.8568
    1CHL1  H21B   54   5.149   5.642   6.124 -2.1320 -1.2379 -1.3723
    1CHL1  H21C   55   5.205   5.813   6.094 -1.6561  1.0260 -0.3968
    1CHL1   C22   56   5.006   5.881   5.918 -0.2176 -0.3714  0.2576
    1CHL1  H22A   57   5.025   5.982   5.962 -0.1831  0.0004 -0.5917
    1CHL1  H22B   58   5.096   5.852   5.859 -0.3476 -0.0859 -0.0831
    1CHL1   C23   59   4.882   5.882   5.834 -0.2841  0.4418 -0.2977
    1CHL1  H23A   60   4.783   5.891   5.882 -0.6451 -1.6165 -0.5690
    1CHL1  H23B   61   4.892   5.959   5.755 -1.7106  0.1038 -0.8309
    1CHL1   C24   62   4.868   5.750   5.749 -0.1827  0.1075 -0.2053
    1CHL1  H24A   63   4.964   5.742   5.694 -0.6114 -1.7426 -0.7519
    1CHL1  H24B   64   4.858   5.658   5.810 -0.6669 -0.3057 -0.8849
    1CHL1   C25   65   4.745   5.743   5.652  0.0805  0.4339  0.2860
    1CHL1   H25   66   4.742   5.835   5.590 -2.2114  0.5276  0.4404
    1CHL1   C26   67   4.768   5.639   5.540 -0.3239  0.0816 -0.1020
    1CHL1  H26A   68   4.789   5.539   5.584 -0.7952  0.1699  0.3363
    1CHL1  H26B   69   4.683   5.633   5.469 -0.4652  2.3098 -0.1893
    1CHL1  H26C   70   4.858   5.678   5.487 -1.2276  1.8249 -0.4120
    1CHL1   C27   71   4.614   5.722   5.731  0.2231 -0.0822 -0.4360
    1CHL1  H27A   72   4.529   5.715   5.660 -1.5305  0.0480  1.5724
    1CHL1  H27B   73   4.613   5.630   5.793  0.0186  0.5413  0.4989
    1CHL1  H27C   74   4.594   5.807   5.800 -3.3586  0.6677 -2.1420
    2CHL1    C3   75   6.332   0.428   7.189 -0.6013  0.1171 -0.6030
    2CHL1    H3   76   6.256   0.346   7.189  0.4422 -0.8693 -0.6315
    2CHL1    O3   77   6.348   0.462   7.330 -0.5074 -0.4103  0.0514
    2CHL1   H3'   78   6.259   0.470   7.365  0.3871  0.9031  2.2504
    2CHL1    C4   79   6.468   0.370   7.139 -0.8841  0.3810  0.4097
    2CHL1   H4A   80   6.544   0.444   7.174 -1.0157 -0.1263  1.8341
    2CHL1   H4B   81   6.493   0.277   7.196 -2.0429 -0.8889 -1.0676
    2CHL1    C5   82   6.460   0.336   6.989 -0.1105 -0.3394 -0.1730
    2CHL1    C6   83   6.494   0.221   6.945 -0.5203  0.5775  0.6279
    2CHL1    H6   84   6.537   0.141   7.008 -0.2949 -1.3731 -1.8554
    2CHL1    C7   85   6.497   0.179   6.804  0.0015  0.4406 -0.2053
    2CHL1   H7A   86   6.583   0.111   6.784  0.7983  1.0140  1.1166
    2CHL1   H7B   87   6.405   0.119   6.791  0.4968 -0.3561 -0.0771
    2CHL1    C8   88   6.488   0.297   6.708  0.4547 -0.1522  0.7916
    2CHL1    H8   89   6.587   0.346   6.713  1.1438 -1.4649  0.3644
    2CHL1   C14   90   6.471   0.245   6.568 -0.5869 -1.0392 -0.0652
    2CHL1   H14   91   6.393   0.166   6.569 -0.7001 -0.9484 -0.8986
    2CHL1   C15   92   6.589   0.167   6.508  0.3763 -0.3156 -0.0244
    2CHL1  H15A   93   6.679   0.226   6.537 -1.0515  2.3473 -0.6579
    2CHL1  H15B   94   6.602   0.062   6.540  0.9146 -1.0174 -2.3830
    2CHL1   C16   95   6.566   0.166   6.361  0.1625  0.1753 -0.1251
    2CHL1  H16A   96   6.656   0.208   6.312 -0.2966  1.4420  0.0748
    2CHL1  H16B   97   6.542   0.072   6.309 -0.5821 -1.0451  2.2648
    2CHL1   C17   98   6.450   0.271   6.330  0.0562 -0.5487  0.4856
    2CHL1   H17   99   6.349   0.226   6.322 -0.8530  1.6816 -3.6796
    2CHL1   C13  100   6.450   0.357   6.462 -0.0125 -0.8507  0.4660
    2CHL1   C18  101   6.576   0.453   6.464 -0.2607  0.7993 -0.6481
    2CHL1  H18A  102   6.662   0.403   6.414 -1.5656  0.2955 -2.5167
    2CHL1  H18B  103   6.559   0.546   6.406 -1.6400  0.3290 -1.0365
    2CHL1  H18C  104   6.596   0.494   6.565 -1.0380  0.4524 -0.3456
    2CHL1   C12  105   6.315   0.422   6.493  0.3730  0.3387 -0.7148
    2CHL1  H12A  106   6.283   0.500   6.421  0.7546  0.8642 -0.3163
    2CHL1  H12B  107   6.239   0.341   6.505  2.6865 -2.1333 -1.6350
    2CHL1   C11  108   6.321   0.480   6.642  0.0027  0.1184 -0.3567
    2CHL1  H11A  109   6.394   0.564   6.638 -2.5653  2.5128 -0.1580
    2CHL1  H11B  110   6.221   0.517   6.674  0.1704  0.3813 -0.1345
    2CHL1    C9  111   6.373   0.381   6.751  0.7323 -0.0184 -0.0123
    2CHL1    H9  112   6.288   0.313   6.774  1.8391 -1.8384 -1.0454
    2CHL1   C10  113   6.403   0.443   6.893 -0.0116 -0.1212  0.6417
    2CHL1   C19  114   6.499   0.567   6.872  0.4981  0.4705 -0.0820
    2CHL1  H19A  115   6.556   0.609   6.958  0.9317 -0.4864  0.1085
    2CHL1  H19B  116   6.575   0.535   6.798  1.0536  1.4413  0.0484
    2CHL1  H19C  117   6.446   0.653   6.826 -0.6753  0.3326  0.9469
    2CHL1    C1  118   6.273   0.495   6.963  0.0008 -0.3841  0.0975
    2CHL1   H1A  119   6.244   0.580   6.897 -2.6152 -1.0785  0.2391
    2CHL1   H1B  120   6.185   0.427   6.958 -0.4967  0.2852 -0.6359
    2CHL1    C2  121   6.292   0.544   7.105  0.7675 -0.4810 -0.6852
    2CHL1   H2A  122   6.207   0.593   7.157  0.5145  0.3323 -1.8181
    2CHL1   H2B  123   6.375   0.618   7.111  1.2855 -1.1076  0.1781
    2CHL1   C20  124   6.473   0.346   6.198  0.1174 -0.0449  0.4470
    2CHL1   H20  125   6.568   0.403   6.197 -0.2040  0.5249  1.1200
    2CHL1   C21  126   6.351   0.436   6.166 -0.3375 -0.0856 -0.0546
    2CHL1  H21A  127   6.344   0.524   6.233 -0.3780 -0.2821  0.1975
    2CHL1  H21B  128   6.268   0.365   6.184 -0.3384  0.2367  1.2540
    2CHL1  H21C  129   6.359   0.466   6.059  0.9416  1.3304  0.4089
    2CHL1   C22  130   6.481   0.243   6.091  0.3109 -0.2840  0.0843
    2CHL1  H22A  131   6.556   0.163   6.113  0.1957  0.1171  2.2002
    2CHL1  H22B  132   6.381   0.203   6.063 -0.2301  1.5340 -0.7040
    2CHL1   C23  133   6.536   0.300   5.961  0.5293  0.2594 -0.2134
    2CHL1  H23A  134   6.477   0.385   5.921 -0.3208 -0.3052 -0.1833
    2CHL1  H23B  135   6.633   0.352   5.977  0.0115  1.4395 -0.8250
    2CHL1   C24  136   6.542   0.182   5.861 -0.7043 -0.1410 -0.0189
    2CHL1  H24A  137   6.631   0.126   5.896 -0.5969 -0.1612 -0.3182
    2CHL1  H24B  138   6.453   0.116   5.859 -0.5425 -0.4336  1.2933
    2CHL1   C25  139   6.569   0.225   5.712  0.6641  0.1180 -0.5605
    2CHL1   H25  140   6.646   0.305   5.712 -0.5914  1.3814 -0.5971
    2CHL1   C26  141   6.602   0.100   5.636  0.5948 -0.3561  0.1593
    2CHL1  H26A  142   6.616   0.120   5.528  1.8338 -1.3230  0.1198
    2CHL1  H26B  143   6.693   0.045   5.670  0.8340 -1.1560 -1.6503
    2CHL1  H26C  144   6.512   0.036   5.632 -1.3202  2.2180 -1.2227
    2CHL1   C27  145   6.438   0.289   5.652 -0.5789  0.3823 -0.2215
    2CHL1  H27A  146   6.347   0.228   5.674 -0.3008  0.7072  2.2015
    2CHL1  H27B  147   6.415   0.385   5.704  0.6184  1.4359 -1.5708
    2CHL1  H27C  148   6.443   0.311   5.544  0.9300  0.1528 -0.2149
    3CHL1    C3  149   5.839   5.901   7.158 -0.4568  0.2115  0.5333
    3CHL1    H3  150   5.932   5.934   7.107 -0.6224 -0.0521  0.0562
    3CHL1    O3  151   5.857   5.897   7.296 -0.4914  0.2008  0.0284
    3CHL1   H3'  152   5.792   5.836   7.331  0.0761 -0.3267  0.1661
    3CHL1    C4  153   5.735   6.008   7.119 -0.0832  0.1772 -0.0010
    3CHL1   H4A  154   5.642   5.982   7.175 -1.0817  2.2319 -0.6092
    3CHL1   H4B  155   5.760   6.104   7.168 -0.3282  0.4742 -0.4506
    3CHL1    C5  156   5.697   6.019   6.975  0.1975  0.9056 -0.6198
    3CHL1    C6  157   5.701   6.136   6.911  0.0100  0.1041 -0.7657
    3CHL1    H6  158   5.736   6.225   6.965  1.3294  0.6520 -2.4169
    3CHL1    C7  159   5.661   6.149   6.766  0.1093  0.3333  0.1475
    3CHL1   H7A  160   5.589   6.232   6.748  0.8462  0.7280 -1.0976
    3CHL1   H7B  161   5.753   6.163   6.706  1.5285 -1.7597  1.6836
    3CHL1    C8  162   5.598   6.020   6.699  0.3705  0.4530  0.1675
    3CHL1    H8  163   5.491   6.010   6.728 -0.1357 -1.0998 -1.9934
    3CHL1   C14  164   5.609   6.027   6.553  0.0172  0.1466  0.6451
    3CHL1   H14  165   5.720   6.031   6.548  0.1201  0.7808  2.6025
    3CHL1   C15  166   5.556   6.151   6.479  0.0867  0.1928  0.0732
    3CHL1  H15A  167   5.447   6.155   6.503  0.4448  0.3022  1.8530
    3CHL1  H15B  168   5.616   6.241   6.503  0.8512 -0.5117  0.8853
    3CHL1   C16  169   5.559   6.115   6.332 -0.0438  0.2386  0.3196
    3CHL1  H16A  170   5.462   6.130   6.279 -0.1984 -1.7542 -0.0516
    3CHL1  H16B  171   5.633   6.181   6.282 -0.8539  1.0490  0.1710
    3CHL1   C17  172   5.586   5.960   6.326  0.3744  0.1620 -0.1619
    3CHL1   H17  173   5.696   5.950   6.332  0.3709 -0.9191 -1.4237
    3CHL1   C13  174   5.560   5.911   6.470 -0.0789  0.2976 -0.1248
    3CHL1   C18  175   5.403   5.892   6.486  0.9625 -0.0488 -0.4738
    3CHL1  H18A  176   5.363   5.798   6.443  1.6935 -0.3698 -0.4680
    3CHL1  H18B  177   5.367   5.886   6.591  1.7330 -0.9777 -0.2501
    3CHL1  H18C  178   5.351   5.976   6.435  1.0471 -1.7152 -3.5456
    3CHL1   C12  179   5.633   5.778   6.518  0.1984 -0.6413  0.2360
    3CHL1  H12A  180   5.583   5.689   6.474 -0.2256  0.6239 -2.0035
    3CHL1  H12B  181   5.737   5.782   6.479 -0.4217 -0.1891 -1.4374
    3CHL1   C11  182   5.630   5.763   6.671  0.6397 -0.2269 -1.0556
    3CHL1  H11A  183   5.528   5.728   6.697  0.5368  0.5021 -0.4429
    3CHL1  H11B  184   5.700   5.682   6.702  2.1089  1.3805  0.0620
    3CHL1    C9  185   5.666   5.896   6.749  0.3079  0.6587  0.2688
    3CHL1    H9  186   5.770   5.925   6.721  0.2870  1.2969  0.8407
    3CHL1   C10  187   5.659   5.887   6.906  0.1963  0.5977 -0.1241
    3CHL1   C19  188   5.510   5.843   6.944  0.2164  0.5347  0.5817
    3CHL1  H19A  189   5.499   5.823   7.053 -0.9995 -0.2517  0.3270
    3CHL1  H19B  190   5.442   5.930   6.932  0.5802  0.5867 -1.5115
    3CHL1  H19C  191   5.469   5.759   6.885  1.0597  1.3791 -1.2889
    3CHL1    C1  192   5.768   5.775   6.950  0.0236  0.5576 -0.3663
    3CHL1   H1A  193   5.737   5.675   6.912  0.4366  0.5174 -0.5997
    3CHL1   H1B  194   5.866   5.810   6.912 -0.0627 -0.0201 -1.1618
    3CHL1    C2  195   5.790   5.769   7.106 -0.1394  0.5780 -0.1403
    3CHL1   H2A  196   5.854   5.687   7.143 -2.3366 -0.7611  0.8920
    3CHL1   H2B  197   5.689   5.748   7.147 -0.3751  0.7426 -0.6240
    3CHL1   C20  198   5.528   5.889   6.202 -0.8502  0.8931 -0.2701
    3CHL1   H20  199   5.418   5.882   6.209 -0.6499 -1.7199  1.1853
    3CHL1   C21  200   5.561   5.740   6.209 -0.2049 -0.4398 -0.4427
    3CHL1  H21A  201   5.671   5.721   6.214 -0.1581 -0.4445 -1.4128
    3CHL1  H21B  202   5.548   5.686   6.113 -2.3223 -1.0793  0.1443
    3CHL1  H21C  203   5.503   5.694   6.293 -0.3684  1.2214  0.4023
    3CHL1   C22  204   5.581   5.944   6.067  0.3463  0.3647 -0.5250
    3CHL1  H22A  205   5.558   6.053   6.069 -2.1655 -0.0998  1.6932
    3CHL1  H22B  206   5.692   5.937   6.066  0.3112 -0.4123 -1.7944
    3CHL1   C23  207   5.522   5.878   5.945  0.3193 -0.1176 -1.2559
    3CHL1  H23A  208   5.579   5.787   5.917  1.8052 -0.3170  1.9876
    3CHL1  H23B  209   5.422   5.841   5.975  0.9857  0.6890  2.3604
    3CHL1   C24  210   5.517   5.978   5.826 -0.1601 -0.0939 -0.4402
    3CHL1  H24A  211   5.500   6.080   5.866 -2.0435 -0.7966  0.6659
    3CHL1  H24B  212   5.615   5.987   5.774 -0.4020 -0.0921 -0.8988
    3CHL1   C25  213   5.407   5.942   5.715 -0.3079  0.0012 -0.9842
    3CHL1   H25  214   5.316   5.948   5.778 -0.8659 -2.3091 -1.4885
    3CHL1   C26  215   5.404   6.027   5.586 -0.0497  0.0685  0.7455
    3CHL1  H26A  216   5.506   6.001   5.547  0.3282 -0.8898  2.2954
    3CHL1  H26B  217   5.315   6.009   5.522 -0.4907 -2.2713  1.9143
    3CHL1  H26C  218   5.405   6.136   5.607 -0.6948  0.9461 -3.0545
    3CHL1   C27  219   5.414   5.798   5.673  0.7577 -0.5883 -0.3477
    3CHL1  H27A  220   5.499   5.779   5.603  0.9700  1.7005 -0.7797
    3CHL1  H27B  221   5.400   5.734   5.763  0.1330  1.2061  0.8860
    3CHL1  H27C  222   5.317   5.785   5.620 -0.3454  0.0149  1.4564
    4CHL1    C3  223   6.000   0.147   7.098  0.5857  0.1801  0.7329
    4CHL1    H3  224   5.998   0.257   7.086 -1.6907  0.2238  0.9850
    4CHL1    O3  225   5.999   0.122   7.235 -0.3064  0.1700 -0.8199
    4CHL1   H3'  226   5.917   0.081   7.263 -0.2214 -0.7346 -1.8507
    4CHL1    C4  227   5.874   0.087   7.041  0.2282  0.4239  0.6543
    4CHL1   H4A  228   5.861  -0.018   7.076  1.0050 -0.1521 -0.7249
    4CHL1   H4B  229   5.795   0.145   7.093  0.5606  0.7497  0.8012
    4CHL1    C5  230   5.856   0.085   6.891  0.1094 -0.1855 -0.0161
    4CHL1    C6  231   5.750   0.140   6.840  0.4813 -0.4202 -0.1111
    4CHL1    H6  232   5.671   0.181   6.904 -0.7683 -2.2632 -0.4037
    4CHL1    C7  233   5.721   0.155   6.697 -0.5150 -0.1729 -0.0782
    4CHL1   H7A  234   5.614   0.142   6.669 -0.9771  2.8804 -0.0667
    4CHL1   H7B  235   5.736   0.262   6.671  0.5411 -0.2778  0.0595
    4CHL1    C8  236   5.820   0.075   6.606 -0.2159  0.5279  0.5392
    4CHL1    H8  237   5.776  -0.026   6.590 -1.6038  1.4490 -2.1297
    4CHL1   C14  238   5.813   0.136   6.462 -0.5744 -0.9741 -0.1231
    4CHL1   H14  239   5.866   0.232   6.480  1.0296 -2.0116  1.0074
    4CHL1   C15  240   5.676   0.163   6.399 -0.3385 -0.0274 -0.2326
    4CHL1  H15A  241   5.615   0.070   6.406  0.3593 -0.3798  3.3356
    4CHL1  H15B  242   5.618   0.248   6.441 -1.4948 -0.5855 -0.6322
    4CHL1   C16  243   5.702   0.184   6.247  0.1826  0.0174  0.2253
    4CHL1  H16A  244   5.637   0.120   6.184  1.6164 -0.4020 -0.8856
    4CHL1  H16B  245   5.682   0.288   6.215 -2.1474 -0.3623  0.2913
    4CHL1   C17  246   5.857   0.150   6.233  1.1125 -0.8495 -0.0202
    4CHL1   H17  247   5.906   0.248   6.252  3.0661 -2.1044  1.8211
    4CHL1   C13  248   5.904   0.065   6.363 -0.1183  0.5589  0.2171
    4CHL1   C18  249   5.867  -0.081   6.341  0.2096  0.2880  0.2687
    4CHL1  H18A  250   5.879  -0.156   6.422 -1.0856  0.0361  0.2533
    4CHL1  H18B  251   5.765  -0.086   6.297  0.4612 -2.2691 -0.2151
    4CHL1  H18C  252   5.932  -0.118   6.258  0.1944  0.5598  0.1360
    4CHL1   C12  253   6.049   0.090   6.419  0.1973 -0.3742  0.4248
    4CHL1  H12A  254   6.127   0.040   6.357  0.4044  0.8898 -0.3661
    4CHL1  H12B  255   6.078   0.197   6.424 -0.9127 -0.0177 -0.5017
    4CHL1   C11  256   6.072   0.027   6.559  0.8048 -0.0849 -0.1036
    4CHL1  H11A  257   6.058  -0.082   6.540  0.9996 -0.2086  0.4526
    4CHL1  H11B  258   6.172   0.057   6.596  0.5537  1.5662 -0.7033
    4CHL1    C9  259   5.961   0.073   6.661  0.8813  0.2774 -0.6518
    4CHL1    H9  260   5.979   0.183   6.666 -1.5871  0.6726  1.6494
    4CHL1   C10  261   5.971   0.031   6.811 -0.1645 -0.1357  0.5047
    4CHL1   C19  262   5.961  -0.117   6.821 -0.2051  0.1528 -0.0401
    4CHL1  H19A  263   5.940  -0.166   6.919 -0.0436 -0.6881 -0.4242
    4CHL1  H19B  264   5.883  -0.155   6.752 -0.7172  1.7130 -0.3674
    4CHL1  H19C  265   6.051  -0.168   6.781 -0.4076 -1.0118  0.9188
    4CHL1    C1  266   6.103   0.091   6.872  0.2097  0.1111 -0.0616
    4CHL1   H1A  267   6.192   0.033   6.839 -0.3850 -0.8955  0.0728
    4CHL1   H1B  268   6.123   0.199   6.851  0.2151  0.6362  2.3398
    4CHL1    C2  269   6.116   0.077   7.025  0.6166 -0.1923 -0.1546
    4CHL1   H2A  270   6.215   0.116   7.056  0.1235  1.5116 -0.5854
    4CHL1   H2B  271   6.112  -0.031   7.047 -2.9197  0.0909  1.1372
    4CHL1   C20  272   5.907   0.105   6.094  0.1583 -0.1796  0.2615
    4CHL1   H20  273   5.895  -0.005   6.083  0.7390 -0.0214 -3.0446
    4CHL1   C21  274   6.063   0.128   6.087 -0.4293 -0.4045  0.2761
    4CHL1  H21A  275   6.125   0.070   6.159 -3.5346 -1.3286  2.4517
    4CHL1  H21B  276   6.087   0.232   6.117  0.6106 -0.7634  0.7259
    4CHL1  H21C  277   6.099   0.105   5.985  2.1644 -0.2915  1.1108
    4CHL1   C22  278   5.827   0.171   5.976  0.1746 -0.8921 -0.3105
    4CHL1  H22A  279   5.730   0.117   5.977 -0.2999 -0.0859 -1.4179
    4CHL1  H22B  280   5.816   0.277   6.006  0.0637 -1.2779  1.0782
    4CHL1   C23  281   5.881   0.168   5.836 -0.4208 -0.5151 -0.4872
    4CHL1  H23A  282   5.984   0.207   5.820 -0.4852 -0.8466 -1.8396
    4CHL1  H23B  283   5.885   0.061   5.806  2.8723 -0.7512  0.4050
    4CHL1   C24  284   5.773   0.237   5.741 -0.5333 -0.0785 -0.3637
    4CHL1  H24A  285   5.751   0.342   5.767  1.4761  0.5821 -1.1724
    4CHL1  H24B  286   5.816   0.260   5.641 -0.0164 -0.3514 -0.2094
    4CHL1   C25  287   5.645   0.158   5.711  0.3373 -0.4963  0.3274
    4CHL1   H25  288   5.591   0.129   5.804 -1.6622 -1.1583 -0.9800
    4CHL1   C26  289   5.555   0.241   5.616 -0.1353 -0.6161  0.2461
    4CHL1  H26A  290   5.616   0.266   5.526 -0.1012 -1.1442  0.1232
    4CHL1  H26B  291   5.473   0.181   5.572  0.3996  0.2527 -2.1172
    4CHL1  H26C  292   5.511   0.329   5.668 -0.4233 -0.7619  0.2486
    4CHL1   C27  293   5.684   0.032   5.632  0.1921  0.4734 -0.9845
    4CHL1  H27A  294   5.596  -0.023   5.591  0.2779 -0.3189 -0.1336
    4CHL1  H27B  295   5.761   0.057   5.556  0.7696  0.2685 -0.4646
    4CHL1  H27C  296   5.729  -0.038   5.705  0.5841  3.1006  1.4660
    5CHL1    C3  297   1.987   0.773   6.872 -0.0288  0.0188 -0.4118
    5CHL1    H3  298   1.880   0.762   6.845 -0.5637 -0.1530  1.6125
    5CHL1    O3  299   2.004   0.755   7.012 -0.2474  0.8523  0.1253
    5CHL1   H3'  300   2.095   0.776   7.035  0.2500 -0.4977 -0.5102
    5CHL1    C4  301   2.073   0.674   6.804  0.0853  0.3108 -0.7358
    5CHL1   H4A  302   2.174   0.680   6.851  0.5514 -2.9410 -1.0768
    5CHL1   H4B  303   2.028   0.578   6.836  0.6956 -0.1473 -1.2214
    5CHL1    C5  304   2.092   0.681   6.656  0.2030  0.5473 -0.8596
    5CHL1    C6  305   2.074   0.566   6.585  0.5358  0.5274  0.3459
    5CHL1    H6  306   2.051   0.471   6.636 -0.6094  0.1966 -0.7589
    5CHL1    C7  307   2.080   0.556   6.440  0.4197  0.7059  0.0747
    5CHL1   H7A  308   2.139   0.469   6.405 -0.2681  0.4072 -0.3739
    5CHL1   H7B  309   1.976   0.537   6.406  0.7899 -3.7056  0.8120
    5CHL1    C8  310   2.133   0.682   6.373  0.1090 -0.6070 -0.1537
    5CHL1    H8  311   2.244   0.677   6.371  0.1303 -2.3579  1.9362
    5CHL1   C14  312   2.080   0.678   6.221 -0.0868 -0.4281  0.3596
    5CHL1   H14  313   1.970   0.683   6.230 -0.1369 -3.2958  3.5961
    5CHL1   C15  314   2.111   0.556   6.128 -0.6163  0.2553 -0.2643
    5CHL1  H15A  315   2.211   0.508   6.137 -1.5413 -1.9470 -0.7972
    5CHL1  H15B  316   2.047   0.467   6.149  1.1752 -0.5388  2.2270
    5CHL1   C16  317   2.093   0.620   5.985  0.1784 -0.1319 -0.3109
    5CHL1  H16A  318   2.186   0.576   5.943 -0.7357 -2.6029  0.0773
    5CHL1  H16B  319   2.001   0.588   5.930  0.3719  1.9410 -1.9759
    5CHL1   C17  320   2.086   0.771   5.999 -0.0463  0.5159 -0.0123
    5CHL1   H17  321   1.980   0.805   5.997 -1.3859 -3.0908 -1.9998
    5CHL1   C13  322   2.135   0.800   6.138 -0.7442 -0.4121 -0.2590
    5CHL1   C18  323   2.292   0.809   6.142 -0.2733  0.0653  0.1978
    5CHL1  H18A  324   2.325   0.722   6.081 -2.2549  0.3894 -1.4391
    5CHL1  H18B  325   2.335   0.905   6.106  1.0127 -0.3071  0.7058
    5CHL1  H18C  326   2.326   0.796   6.246  0.1032  0.3496  0.1102
    5CHL1   C12  327   2.083   0.928   6.209  0.0235  0.4229 -0.4433
    5CHL1  H12A  328   2.118   1.020   6.158 -1.5261  1.6381  0.5913
    5CHL1  H12B  329   1.973   0.929   6.195 -0.1821  0.3448  1.0524
    5CHL1   C11  330   2.109   0.940   6.364  1.2804  0.0316 -0.4246
    5CHL1  H11A  331   2.218   0.946   6.382  0.8734 -1.0638  3.3549
    5CHL1  H11B  332   2.057   1.030   6.404  0.4659 -0.4256 -0.4223
    5CHL1    C9  333   2.068   0.814   6.446  0.1510  0.2481  0.4079
    5CHL1    H9  334   1.959   0.803   6.430  0.3635 -0.4836 -0.6738
    5CHL1   C10  335   2.103   0.819   6.601 -0.7715  0.3166 -0.6367
    5CHL1   C19  336   2.254   0.856   6.612  0.5912  0.0282  0.3949
    5CHL1  H19A  337   2.288   0.846   6.717 -1.5757 -0.7791  1.0784
    5CHL1  H19B  338   2.315   0.792   6.545  1.2688  0.5177  0.5346
    5CHL1  H19C  339   2.268   0.963   6.584 -1.2512  0.4048  0.7727
    5CHL1    C1  340   2.019   0.931   6.675 -0.0714  0.1524 -0.0990
    5CHL1   H1A  341   2.060   1.029   6.640 -0.0220  0.2660  0.2723
    5CHL1   H1B  342   1.914   0.930   6.638  0.1580 -0.5267 -0.7580
    5CHL1    C2  343   2.027   0.915   6.828 -0.1429  0.1028 -0.4171
    5CHL1   H2A  344   1.958   0.984   6.882  0.3716 -1.5443  2.5494
    5CHL1   H2B  345   2.127   0.935   6.872 -1.1895  1.8227  1.3319
    5CHL1   C20  346   2.148   0.839   5.870  0.3847 -0.1932 -0.4605
    5CHL1   H20  347   2.256   0.812   5.868  0.2785 -0.6020 -1.7809
    5CHL1   C21  348   2.144   0.994   5.883  0.2012  0.5105  0.0604
    5CHL1  H21A  349   2.156   1.035   5.781  0.0094 -2.1738 -1.1183
    5CHL1  H21B  350   2.230   1.042   5.935 -0.9929  0.7276  1.9551
    5CHL1  H21C  351   2.053   1.039   5.929  1.4218  4.1678 -0.7480
    5CHL1   C22  352   2.089   0.792   5.736  0.0473 -0.3994 -0.1798
    5CHL1  H22A  353   2.145   0.832   5.649 -0.9730  0.2266 -0.5560
    5CHL1  H22B  354   2.111   0.683   5.738  0.6269 -0.2826  0.3764
    5CHL1   C23  355   1.943   0.821   5.710 -0.1088 -0.0382 -0.4258
    5CHL1  H23A  356   1.890   0.752   5.780  0.3676  0.1431  0.1119
    5CHL1  H23B  357   1.910   0.924   5.735  0.5172  0.1804 -0.5031
    5CHL1   C24  358   1.908   0.777   5.564 -0.1884 -0.0674 -0.2480
    5CHL1  H24A  359   1.974   0.831   5.494  0.4160  0.8387  0.9802
    5CHL1  H24B  360   1.928   0.670   5.541  2.0668  0.2934 -0.1230
    5CHL1   C25  361   1.759   0.811   5.531 -0.0207  0.2109 -0.6394
    5CHL1   H25  362   1.737   0.913   5.571 -1.8522  0.0269 -1.0470
    5CHL1   C26  363   1.742   0.808   5.380 -1.4035  0.2090  0.3674
    5CHL1  H26A  364   1.638   0.830   5.347 -0.5197  2.0414 -1.3870
    5CHL1  H26B  365   1.807   0.875   5.321 -2.7475 -1.2878 -3.0451
    5CHL1  H26C  366   1.781   0.706   5.360  0.7413  1.2758 -1.2851
    5CHL1   C27  367   1.656   0.716   5.586 -0.0302  0.5975 -0.2278
    5CHL1  H27A  368   1.665   0.702   5.696 -0.2956  1.5400 -0.0803
    5CHL1  H27B  369   1.554   0.753   5.563  0.1033  1.0431 -0.1101
    5CHL1  H27C  370   1.684   0.619   5.539 -1.6127 -1.1399  2.0999
    6CHL1    C3  371   4.870   4.015   6.782 -0.3042  0.2014 -1.3739
    6CHL1    H3  372   4.951   4.091   6.776 -1.0493  1.4263  1.8368
    6CHL1    O3  373   4.862   3.994   6.927 -0.3537 -0.3140  0.2286
    6CHL1   H3'  374   4.916   3.919   6.953  1.5534  1.2852  1.1394
    6CHL1    C4  375   4.744   4.070   6.713 -0.8493 -0.5669  0.4651
    6CHL1   H4A  376   4.662   4.000   6.742  0.1243 -1.2198  1.7934
    6CHL1   H4B  377   4.710   4.169   6.749 -1.7452 -0.7857  0.2475
    6CHL1    C5  378   4.759   4.077   6.566 -0.1908  0.0416 -0.6566
    6CHL1    C6  379   4.731   4.192   6.504 -0.0924  0.1725  0.0411
    6CHL1    H6  380   4.728   4.289   6.555 -1.2250  0.6048 -0.7978
    6CHL1    C7  381   4.719   4.197   6.360 -0.2570  0.3964  0.4670
    6CHL1   H7A  382   4.625   4.248   6.331 -0.2741  0.0045 -0.2061
    6CHL1   H7B  383   4.804   4.263   6.331  1.3148 -1.1191  1.4034
    6CHL1    C8  384   4.729   4.067   6.287  0.0007 -0.1055 -0.3713
    6CHL1    H8  385   4.626   4.025   6.288 -0.2571  0.5044 -0.5952
    6CHL1   C14  386   4.770   4.089   6.144 -0.0968 -0.6351 -0.2649
    6CHL1   H14  387   4.874   4.124   6.164 -0.8310  1.8292 -0.4058
    6CHL1   C15  388   4.713   4.218   6.079  0.0666  0.4036 -0.5255
    6CHL1  H15A  389   4.602   4.216   6.083  0.0618  0.0115 -0.7663
    6CHL1  H15B  390   4.749   4.313   6.122  0.7374 -0.4296  0.8292
    6CHL1   C16  391   4.745   4.200   5.935  0.0621 -0.3144  0.4427
    6CHL1  H16A  392   4.658   4.192   5.866  1.5379 -0.8459 -1.4550
    6CHL1  H16B  393   4.799   4.287   5.891 -1.6366 -0.0275 -1.1826
    6CHL1   C17  394   4.825   4.069   5.926 -0.0058 -0.1369 -0.2359
    6CHL1   H17  395   4.930   4.090   5.953  0.8139 -0.2991 -2.9777
    6CHL1   C13  396   4.772   3.987   6.042  0.1614  0.4580 -0.0851
    6CHL1   C18  397   4.630   3.924   6.013 -0.3770  0.6280  0.0611
    6CHL1  H18A  398   4.573   3.898   6.105  1.4977 -2.5439  0.4673
    6CHL1  H18B  399   4.574   3.996   5.950 -0.7031  2.5935  2.4067
    6CHL1  H18C  400   4.645   3.827   5.963 -0.5061  0.4372  0.3913
    6CHL1   C12  401   4.859   3.870   6.104  0.0015 -0.1252  0.5887
    6CHL1  H12A  402   4.842   3.774   6.051 -1.8085 -0.4102  1.5809
    6CHL1  H12B  403   4.968   3.891   6.114 -0.1092  0.8233 -0.0495
    6CHL1   C11  404   4.822   3.837   6.255  0.2539 -0.3769  0.4821
    6CHL1  H11A  405   4.720   3.795   6.265 -0.0960  0.1103 -0.8636
    6CHL1  H11B  406   4.899   3.771   6.301 -0.3168 -1.0853  0.4383
    6CHL1    C9  407   4.813   3.963   6.350 -0.8704  0.6977  0.6746
    6CHL1    H9  408   4.915   4.005   6.346 -0.9002  0.8162  1.1018
    6CHL1   C10  409   4.791   3.938   6.502 -0.2890 -0.3013 -0.4942
    6CHL1   C19  410   4.675   3.832   6.513  0.2157 -0.8823  0.8271
    6CHL1  H19A  411   4.667   3.811   6.622  1.6516  0.4462  1.2176
    6CHL1  H19B  412   4.587   3.885   6.471  0.9575 -0.5424 -0.3445
    6CHL1  H19C  413   4.700   3.736   6.463  0.2660 -0.7866  0.6685
    6CHL1    C1  414   4.920   3.887   6.571  0.7086 -0.2758 -0.3245
    6CHL1   H1A  415   4.933   3.782   6.538  1.0768  0.0263 -1.1706
    6CHL1   H1B  416   5.002   3.947   6.528 -1.5021  0.9817 -3.1255
    6CHL1    C2  417   4.910   3.885   6.722  0.2503 -0.7029  0.2139
    6CHL1   H2A  418   5.008   3.853   6.763 -0.7153 -2.8386  1.0087
    6CHL1   H2B  419   4.827   3.814   6.742 -1.3987  0.8622 -0.7641
    6CHL1   C20  420   4.804   4.002   5.790 -0.5046  0.2786  0.0553
    6CHL1   H20  421   4.707   3.951   5.775  0.8694 -1.8218 -2.4104
    6CHL1   C21  422   4.904   3.884   5.782 -0.1382 -0.4103 -0.5522
    6CHL1  H21A  423   4.899   3.823   5.689 -0.6769 -1.4744  0.1513
    6CHL1  H21B  424   4.873   3.811   5.859  0.2624  0.8693  0.8735
    6CHL1  H21C  425   5.007   3.918   5.804 -0.7805  0.5708  1.1525
    6CHL1   C22  426   4.805   4.111   5.676  0.3667 -0.3062  0.1224
    6CHL1  H22A  427   4.716   4.178   5.672  0.0247 -0.3279  3.9687
    6CHL1  H22B  428   4.900   4.168   5.672  0.4612 -0.4867 -0.3097
    6CHL1   C23  429   4.797   4.044   5.536 -0.1116 -0.1167  0.0947
    6CHL1  H23A  430   4.881   3.973   5.525  0.1140  0.1970 -0.2196
    6CHL1  H23B  431   4.700   3.994   5.515 -0.1087  0.8366 -2.5633
    6CHL1   C24  432   4.836   4.144   5.421  0.0493  0.7160  0.4084
    6CHL1  H24A  433   4.769   4.232   5.431 -4.1430 -2.0326 -0.8137
    6CHL1  H24B  434   4.941   4.179   5.428  0.6597 -0.7566 -0.7652
    6CHL1   C25  435   4.811   4.097   5.275 -0.3051 -0.7398  0.6911
    6CHL1   H25  436   4.745   4.008   5.280  1.0383 -1.8116 -0.0826
    6CHL1   C26  437   4.743   4.204   5.197 -0.6699 -0.5827 -0.3984
    6CHL1  H26A  438   4.715   4.166   5.096 -0.3097  0.4726 -0.9127
    6CHL1  H26B  439   4.643   4.230   5.237  0.1302  0.3208  1.0786
    6CHL1  H26C  440   4.804   4.296   5.184  1.5916 -1.8903  0.4415
    6CHL1   C27  441   4.946   4.045   5.216 -0.3805 -0.2470  0.2622
    6CHL1  H27A  442   5.011   4.135   5.218 -0.2036 -0.1687 -3.1660
    6CHL1  H27B  443   4.989   3.968   5.283 -0.2861  1.6092  2.4437
    6CHL1  H27C  444   4.928   4.022   5.109 -2.4702  2.3387 -0.0576
    7CHL1    C3  445   6.201   6.296   7.007  0.2870  0.2379  0.5299
    7CHL1    H3  446   6.229   6.395   6.967  0.5222 -0.2737 -0.6147
    7CHL1    O3  447   6.207   6.296   7.145  0.0585 -0.1243 -0.0345
    7CHL1   H3'  448   6.134   6.347   7.180  0.9700 -0.4937  2.6076
    7CHL1    C4  449   6.050   6.259   6.963 -0.8487 -0.8608  0.0270
    7CHL1   H4A  450   6.024   6.159   7.003  0.7732 -1.4828 -0.4236
    7CHL1   H4B  451   5.983   6.327   7.021 -1.6176 -1.2296 -0.4166
    7CHL1    C5  452   6.038   6.258   6.808  0.3485  0.2655  0.1865
    7CHL1    C6  453   5.968   6.355   6.748  0.4240  0.2395  0.1142
    7CHL1    H6  454   5.905   6.419   6.811  0.0619 -0.8890  0.9444
    7CHL1    C7  455   5.950   6.372   6.601  0.1634 -0.2870 -0.0414
    7CHL1   H7A  456   5.843   6.392   6.577 -0.1589  0.9102  2.1211
    7CHL1   H7B  457   6.005   6.461   6.562  1.5471 -1.1542 -0.1181
    7CHL1    C8  458   6.007   6.252   6.526 -0.0710  0.2101 -0.0613
    7CHL1    H8  459   5.934   6.169   6.533 -1.1696  1.1796  0.1093
    7CHL1   C14  460   6.021   6.287   6.376 -0.3486  0.5529 -0.0910
    7CHL1   H14  461   6.104   6.361   6.373  0.8575 -0.7932 -0.7374
    7CHL1   C15  462   5.908   6.342   6.283 -0.1750  0.1132  0.0271
    7CHL1  H15A  463   5.812   6.287   6.296 -0.4046 -0.1887 -2.5592
    7CHL1  H15B  464   5.885   6.450   6.294  0.6284  0.3008 -0.0983
    7CHL1   C16  465   5.959   6.314   6.140  0.0919  0.3812  0.0142
    7CHL1  H16A  466   5.880   6.278   6.071 -0.2401  2.3214 -0.6807
    7CHL1  H16B  467   5.998   6.406   6.090  0.7535  0.3244  0.4129
    7CHL1   C17  468   6.077   6.231   6.154 -0.7986 -0.1557  0.0315
    7CHL1   H17  469   6.164   6.299   6.165 -0.7248 -0.1184 -0.7089
    7CHL1   C13  470   6.077   6.169   6.296 -0.5607  1.5476  0.4841
    7CHL1   C18  471   5.979   6.048   6.302 -0.0384 -0.2165  0.0902
    7CHL1  H18A  472   6.011   5.970   6.230 -0.8029  0.2385 -0.7589
    7CHL1  H18B  473   5.968   5.994   6.398 -0.0049 -2.4636 -1.1221
    7CHL1  H18C  474   5.882   6.089   6.269 -0.1971 -1.4185 -1.0015
    7CHL1   C12  475   6.221   6.132   6.354  0.6035  0.0287  0.3411
    7CHL1  H12A  476   6.279   6.057   6.296  1.7853  1.5459 -0.5115
    7CHL1  H12B  477   6.273   6.230   6.359  1.3035 -0.3977  1.6945
    7CHL1   C11  478   6.208   6.097   6.500 -0.1301  1.3050  0.1481
    7CHL1  H11A  479   6.168   5.994   6.511  0.2406  0.9534 -1.5613
    7CHL1  H11B  480   6.311   6.087   6.540  0.5669  1.2159 -1.5829
    7CHL1    C9  481   6.142   6.208   6.586  0.5930 -0.0963  0.6469
    7CHL1    H9  482   6.208   6.297   6.581 -1.5348  1.5161 -2.7475
    7CHL1   C10  483   6.138   6.163   6.736 -0.1018 -0.5450  0.6768
    7CHL1   C19  484   6.094   6.012   6.757 -0.2994  0.0137  0.1276
    7CHL1  H19A  485   6.076   5.994   6.865  0.2675  1.2401  0.4392
    7CHL1  H19B  486   6.006   5.989   6.693  1.0419 -0.6028 -1.5937
    7CHL1  H19C  487   6.183   5.950   6.732 -0.6394  0.4403 -2.3855
    7CHL1    C1  488   6.281   6.187   6.794  0.3004 -0.5405  0.5361
    7CHL1   H1A  489   6.349   6.108   6.757  0.1853 -0.6175  0.4872
    7CHL1   H1B  490   6.308   6.286   6.751 -1.0788 -0.7074 -0.8451
    7CHL1    C2  491   6.292   6.192   6.948 -0.4991  0.0590  0.1824
    7CHL1   H2A  492   6.394   6.224   6.981 -0.0689  0.3625 -1.3791
    7CHL1   H2B  493   6.260   6.096   6.994 -0.9740  0.8595  1.5954
    7CHL1   C20  494   6.123   6.133   6.041  0.3239  0.1577 -0.3383
    7CHL1   H20  495   6.168   6.048   6.095 -0.9715  0.8768  1.9965
    7CHL1   C21  496   6.232   6.205   5.948 -0.3628  0.8620  0.4597
    7CHL1  H21A  497   6.181   6.284   5.889 -0.9782 -0.5127 -0.9076
    7CHL1  H21B  498   6.263   6.133   5.869  0.4663  1.1191  0.5323
    7CHL1  H21C  499   6.315   6.248   6.009  0.5595  0.0784 -0.2137
    7CHL1   C22  500   6.009   6.069   5.957 -0.0814  0.0832  0.6490
    7CHL1  H22A  501   5.930   6.027   6.023 -3.9642  1.4483 -2.6928
    7CHL1  H22B  502   5.962   6.126   5.874 -0.4668 -2.0427 -0.6749
    7CHL1   C23  503   6.055   5.937   5.885 -0.1896  0.0724 -0.5186
    7CHL1  H23A  504   6.119   5.954   5.795 -0.0805 -0.7498 -0.6026
    7CHL1  H23B  505   6.121   5.889   5.960 -0.9533  1.5243  1.1556
    7CHL1   C24  506   5.933   5.852   5.849  0.0159 -0.1226  0.3335
    7CHL1  H24A  507   5.880   5.832   5.944  1.8264  0.4051  1.4899
    7CHL1  H24B  508   5.861   5.904   5.782  0.3832  0.3234  0.2839
    7CHL1   C25  509   5.978   5.717   5.779 -0.6837 -0.0971 -0.3068
    7CHL1   H25  510   6.036   5.650   5.847 -1.7344 -0.0303  0.6736
    7CHL1   C26  511   5.849   5.642   5.753  0.3770 -0.2443  0.0003
    7CHL1  H26A  512   5.879   5.551   5.695  2.3707  0.3329  0.0457
    7CHL1  H26B  513   5.805   5.601   5.846 -0.2672  0.4880  0.0217
    7CHL1  H26C  514   5.786   5.707   5.689  0.5332  0.6234  0.7226
    7CHL1   C27  515   6.060   5.736   5.651  0.0669 -0.5433 -0.2083
    7CHL1  H27A  516   6.155   5.790   5.672 -0.5485  0.4727  0.0231
    7CHL1  H27B  517   6.079   5.632   5.615  0.2002 -1.4142  2.1587
    7CHL1  H27C  518   6.005   5.790   5.572 -1.7412  1.8372  2.4747
    8CHL1    C3  519   4.362   3.345   6.711  0.2305 -0.4247  0.4417
    8CHL1    H3  520   4.467   3.351   6.676 -0.4017  0.8680 -1.4019
    8CHL1    O3  521   4.355   3.316   6.846 -0.1417  0.0816 -0.1983
    8CHL1   H3'  522   4.262   3.297   6.860 -0.0216  0.9231  2.2192
    8CHL1    C4  523   4.282   3.476   6.689  0.3439 -0.2175  0.1661
    8CHL1   H4A  524   4.180   3.468   6.733 -0.1447 -0.7671 -1.0410
    8CHL1   H4B  525   4.328   3.555   6.752 -0.4646 -1.2602  2.1726
    8CHL1    C5  526   4.260   3.506   6.539  0.6017  0.3265  0.5346
    8CHL1    C6  527   4.291   3.619   6.484  0.2604  0.1991 -0.6026
    8CHL1    H6  528   4.325   3.691   6.560 -2.2119 -0.1763  0.9805
    8CHL1    C7  529   4.279   3.660   6.342  0.0820 -0.6092  0.0537
    8CHL1   H7A  530   4.247   3.765   6.328  0.8554 -0.2933  0.5906
    8CHL1   H7B  531   4.382   3.643   6.305  0.9747  1.6072  1.3046
    8CHL1    C8  532   4.182   3.564   6.265  0.2636  0.6396  0.7036
    8CHL1    H8  533   4.079   3.591   6.297  0.3423  0.9971  0.6647
    8CHL1   C14  534   4.207   3.585   6.116 -0.3696  0.1590 -0.4161
    8CHL1   H14  535   4.312   3.561   6.091 -0.3617 -0.5304  0.2234
    8CHL1   C15  536   4.184   3.732   6.066  0.4835 -0.2336 -0.0020
    8CHL1  H15A  537   4.099   3.785   6.114  0.3298 -1.3318  0.9666
    8CHL1  H15B  538   4.280   3.788   6.069  2.3125 -3.2320  1.8941
    8CHL1   C16  539   4.148   3.715   5.915  0.4096 -0.2283 -0.1800
    8CHL1  H16A  540   4.044   3.750   5.896  0.8118  1.1131 -0.0253
    8CHL1  H16B  541   4.214   3.771   5.845 -1.2659  0.6016 -1.1698
    8CHL1   C17  542   4.155   3.564   5.889  0.2318 -0.1716  0.3338
    8CHL1   H17  543   4.261   3.535   5.874  0.4940 -0.1300  1.9183
    8CHL1   C13  544   4.112   3.507   6.031 -0.4613  0.0150  0.9771
    8CHL1   C18  545   3.966   3.543   6.064  0.7073 -0.1767  0.4811
    8CHL1  H18A  546   3.942   3.513   6.168  4.5333 -2.5977  0.8634
    8CHL1  H18B  547   3.942   3.651   6.056 -1.1731 -0.6379 -1.0047
    8CHL1  H18C  548   3.899   3.489   5.993 -0.6013  0.0057  1.5508
    8CHL1   C12  549   4.135   3.360   6.063 -0.0439 -0.3379  0.6499
    8CHL1  H12A  550   4.058   3.291   6.022  0.3516  1.1789 -3.0886
    8CHL1  H12B  551   4.236   3.329   6.028 -0.3814  0.5063 -1.2155
    8CHL1   C11  552   4.118   3.321   6.213  0.2286 -0.4696  0.2885
    8CHL1  H11A  553   4.012   3.336   6.243  0.2938 -0.3597  0.4645
    8CHL1  H11B  554   4.138   3.213   6.234 -2.6262 -0.6553  2.9254
    8CHL1    C9  555   4.206   3.416   6.302  0.4461  0.5140 -0.6598
    8CHL1    H9  556   4.302   3.389   6.253 -0.3030 -1.2749 -1.2420
    8CHL1   C10  557   4.202   3.389   6.456 -0.1328 -0.3678 -0.3817
    8CHL1   C19  558   4.057   3.381   6.502 -0.3403  0.1669  0.0641
    8CHL1  H19A  559   4.051   3.395   6.612  2.2340  0.3512  0.2477
    8CHL1  H19B  560   3.992   3.455   6.451  1.0926  0.9434 -0.6887
    8CHL1  H19C  561   4.016   3.282   6.473  3.3216 -2.2113  2.2292
    8CHL1    C1  562   4.276   3.258   6.492 -0.5834 -0.5938  0.5658
    8CHL1   H1A  563   4.230   3.172   6.437 -0.3255  0.9560 -2.2848
    8CHL1   H1B  564   4.380   3.265   6.454 -0.6108 -0.0036  0.5981
    8CHL1    C2  565   4.294   3.232   6.644  0.1312  1.1507  0.4749
    8CHL1   H2A  566   4.360   3.142   6.643 -2.3394 -0.7652  0.5907
    8CHL1   H2B  567   4.201   3.198   6.694  1.3565 -2.9126  0.3233
    8CHL1   C20  568   4.078   3.513   5.767  0.3424  0.1089 -0.7945
    8CHL1   H20  569   3.972   3.509   5.800  0.0330 -1.2461 -1.8740
    8CHL1   C21  570   4.120   3.371   5.727 -0.1380 -0.2749 -0.0070
    8CHL1  H21A  571   4.230   3.379   5.724 -0.0339  1.6102  3.5008
    8CHL1  H21B  572   4.072   3.345   5.630  0.9027 -0.8095 -0.3911
    8CHL1  H21C  573   4.092   3.291   5.799 -1.5772  0.9331  0.8415
    8CHL1   C22  574   4.083   3.610   5.646 -0.3230 -0.6619  0.1138
    8CHL1  H22A  575   4.083   3.718   5.674  1.0430 -0.1228 -1.8040
    8CHL1  H22B  576   4.179   3.595   5.593  1.6695  2.7179  2.3797
    8CHL1   C23  577   3.962   3.589   5.549 -1.0470  0.1193 -0.3304
    8CHL1  H23A  578   3.970   3.495   5.489 -3.0849 -0.3057 -0.0246
    8CHL1  H23B  579   3.873   3.578   5.615  0.1048  2.1374  1.6709
    8CHL1   C24  580   3.949   3.712   5.447 -0.0371  0.2383 -0.2013
    8CHL1  H24A  581   3.928   3.807   5.501 -2.3691 -0.4095  0.1371
    8CHL1  H24B  582   4.043   3.717   5.387 -0.9660 -0.1001 -1.7452
    8CHL1   C25  583   3.835   3.699   5.344  0.6138 -0.8232 -0.6609
    8CHL1   H25  584   3.835   3.591   5.317 -3.1411 -0.2765 -3.6204
    8CHL1   C26  585   3.701   3.743   5.402  0.5119  0.4033 -0.4621
    8CHL1  H26A  586   3.608   3.712   5.351 -0.1404 -0.9395  1.4472
    8CHL1  H26B  587   3.696   3.723   5.511 -2.8404  1.7446 -0.2545
    8CHL1  H26C  588   3.698   3.853   5.389 -0.6167  0.4122 -0.1926
    8CHL1   C27  589   3.877   3.783   5.219 -0.6148  0.4602 -0.2986
    8CHL1  H27A  590   3.948   3.720   5.161  0.6659  1.8110 -0.2696
    8CHL1  H27B  591   3.786   3.803   5.157 -1.1015 -3.5224 -1.1400
    8CHL1  H27C  592   3.932   3.879   5.228  0.4102 -0.0924 -0.5716
    9CHL1    C3  593   0.237   6.277   7.027  0.0291 -0.4506  0.3261
    9CHL1    H3  594   0.212   6.375   6.979 -1.1163  0.3280  2.3717
    9CHL1    O3  595   0.275   6.317   7.157 -0.2358  0.4426  0.2520
    9CHL1   H3'  596   0.246   6.245   7.213 -0.7031  0.4577  0.0338
    9CHL1    C4  597   0.110   6.195   7.036  0.2207 -0.3606 -0.2205
    9CHL1   H4A  598   0.131   6.093   7.076  1.6805 -0.1230 -0.3465
    9CHL1   H4B  599   0.034   6.240   7.103 -1.7246 -2.3209 -0.9843
    9CHL1    C5  600   0.058   6.180   6.900 -0.4602  0.0309 -0.1586
    9CHL1    C6  601  -0.069   6.222   6.882 -0.7338  0.2321  0.0098
    9CHL1    H6  602  -0.124   6.267   6.966  0.5675  1.0957  0.4337
    9CHL1    C7  603  -0.140   6.215   6.744 -0.1597 -0.2112 -0.1551
    9CHL1   H7A  604  -0.238   6.164   6.736 -0.9296  1.2671 -0.5176
    9CHL1   H7B  605  -0.155   6.318   6.706 -1.8410 -0.1385  0.6362
    9CHL1    C8  606  -0.052   6.129   6.643  0.6365  0.4230  0.0279
    9CHL1    H8  607  -0.064   6.020   6.661  1.6720  0.1195 -0.9862
    9CHL1   C14  608  -0.104   6.156   6.504  0.5396  0.7059  0.2700
    9CHL1   H14  609  -0.068   6.259   6.484  3.3692 -0.2136  0.1569
    9CHL1   C15  610  -0.253   6.175   6.468  0.0383  0.3647  0.7622
    9CHL1  H15A  611  -0.304   6.077   6.485  2.7565 -1.6383 -1.7372
    9CHL1  H15B  612  -0.300   6.265   6.514 -2.9978  0.6704 -2.4961
    9CHL1   C16  613  -0.246   6.195   6.309  0.3850 -0.1150  0.8906
    9CHL1  H16A  614  -0.320   6.124   6.266  1.2863 -0.6489  0.1888
    9CHL1  H16B  615  -0.267   6.302   6.284  1.1675  0.2264  1.6432
    9CHL1   C17  616  -0.108   6.142   6.263  0.6182 -0.4415  0.4152
    9CHL1   H17  617  -0.034   6.224   6.247  0.6662 -0.3712  0.9733
    9CHL1   C13  618  -0.042   6.075   6.385  0.1778 -0.5054  0.5963
    9CHL1   C18  619  -0.078   5.926   6.399  0.4995  0.7033  0.2047
    9CHL1  H18A  620  -0.086   5.887   6.502 -0.0804 -1.7407 -0.6971
    9CHL1  H18B  621  -0.181   5.914   6.359  0.5840 -3.2231  0.8268
    9CHL1  H18C  622  -0.010   5.860   6.342  0.5105  1.9838 -1.3384
    9CHL1   C12  623   0.113   6.089   6.401  0.2314  0.0294  0.0351
    9CHL1  H12A  624   0.179   6.032   6.333  1.1929 -0.4858  1.3631
    9CHL1  H12B  625   0.134   6.197   6.388  1.1996  0.0661  1.6299
    9CHL1   C11  626   0.168   6.065   6.540  0.2330 -0.2861  0.2964
    9CHL1  H11A  627   0.157   5.957   6.563 -0.3399  0.0159  1.5353
    9CHL1  H11B  628   0.277   6.084   6.555  0.1633  0.3465  0.0439
    9CHL1    C9  629   0.100   6.148   6.653  0.4144  0.4402  0.0863
    9CHL1    H9  630   0.112   6.256   6.628 -1.2623  0.0033 -3.0365
    9CHL1   C10  631   0.158   6.128   6.790  0.0125 -0.0942  0.3441
    9CHL1   C19  632   0.165   5.978   6.831 -0.1341 -0.3664  0.3827
    9CHL1  H19A  633   0.193   5.949   6.934  0.4415 -1.0068  0.0511
    9CHL1  H19B  634   0.064   5.936   6.816 -0.6001  0.9948 -0.4632
    9CHL1  H19C  635   0.241   5.924   6.770 -0.5832  1.0750 -1.5663
    9CHL1    C1  636   0.303   6.181   6.806  1.0388 -0.3080 -0.4359
    9CHL1   H1A  637   0.370   6.110   6.755  1.4809  0.0983 -0.4259
    9CHL1   H1B  638   0.313   6.277   6.750  2.9142 -0.7821 -0.9901
    9CHL1    C2  639   0.351   6.208   6.953 -0.3067 -0.0854 -0.4440
    9CHL1   H2A  640   0.447   6.262   6.948  0.1929 -0.9551 -0.4672
    9CHL1   H2B  641   0.369   6.116   7.014  0.3117  1.4386  1.7876
    9CHL1   C20  642  -0.105   6.061   6.127 -0.1717  0.1882 -0.1659
    9CHL1   H20  643  -0.156   5.965   6.147 -0.2809  0.1008 -0.8449
    9CHL1   C21  644   0.034   6.034   6.079 -0.5139  0.2726  0.0642
    9CHL1  H21A  645   0.048   5.983   5.981  1.4794 -0.4854  0.6894
    9CHL1  H21B  646   0.079   5.967   6.155  0.9654  2.7716  1.5694
    9CHL1  H21C  647   0.099   6.125   6.082  0.0226 -0.0298 -1.2958
    9CHL1   C22  648  -0.173   6.126   6.018 -0.1006 -0.6922 -0.1236
    9CHL1  H22A  649  -0.160   6.071   5.922  0.8396  0.8951 -0.9438
    9CHL1  H22B  650  -0.282   6.111   6.038 -0.4992  1.3031 -0.6096
    9CHL1   C23  651  -0.147   6.276   5.992 -0.1318 -0.2865 -0.5522
    9CHL1  H23A  652  -0.172   6.325   6.088 -1.6134 -0.5453 -0.7779
    9CHL1  H23B  653  -0.038   6.290   5.976  0.3063 -0.8051  1.6165
    9CHL1   C24  654  -0.236   6.345   5.889 -0.3254  0.1149 -0.4530
    9CHL1  H24A  655  -0.328   6.382   5.940 -0.7491 -1.0944 -0.3170
    9CHL1  H24B  656  -0.185   6.439   5.859 -1.8717  1.2751  0.3911
    9CHL1   C25  657  -0.273   6.267   5.763 -0.5735 -0.1035  0.6305
    9CHL1   H25  658  -0.324   6.174   5.795 -0.7374 -0.2167  0.0546
    9CHL1   C26  659  -0.369   6.355   5.681 -0.2839  0.0340  0.1766
    9CHL1  H26A  660  -0.387   6.314   5.579 -1.8041 -1.3775  0.9894
    9CHL1  H26B  661  -0.459   6.370   5.744  0.7395  1.0110  1.4769
    9CHL1  H26C  662  -0.336   6.461   5.667 -1.3199  0.0094 -3.7671
    9CHL1   C27  663  -0.155   6.227   5.679 -0.1379 -0.3200  0.1858
    9CHL1  H27A  664  -0.094   6.314   5.646  2.4965 -1.8497  0.7653
    9CHL1  H27B  665  -0.078   6.168   5.734 -1.0969  0.8122  2.9554
    9CHL1  H27C  666  -0.177   6.165   5.590  0.0026 -0.8764  0.5314
   10CHL1    C3  667   0.401   4.261   7.120 -0.3267  0.4705  0.3485
   10CHL1    H3  668   0.340   4.168   7.116 -1.2080  1.0450  0.1385
   10CHL1    O3  669   0.436   4.282   7.257  0.0588  0.4651  0.7879
   10CHL1   H3'  670   0.359   4.315   7.303  0.3264 -0.0224  1.6031
   10CHL1    C4  671   0.525   4.254   7.016  0.2272 -0.0442 -0.6850
   10CHL1   H4A  672   0.586   4.344   7.038 -0.7157 -0.0769  2.4839
   10CHL1   H4B  673   0.581   4.166   7.055 -1.3576 -0.8519 -0.1316
   10CHL1    C5  674   0.462   4.242   6.879 -0.2474 -0.7733 -0.1490
   10CHL1    C6  675   0.492   4.139   6.798 -0.4229 -0.4795  0.1617
   10CHL1    H6  676   0.560   4.060   6.833 -0.3366 -0.2686  0.4685
   10CHL1    C7  677   0.457   4.130   6.654 -0.7470 -0.0564  0.4266
   10CHL1   H7A  678   0.548   4.113   6.592 -3.1367 -0.2013 -3.3503
   10CHL1   H7B  679   0.381   4.050   6.637 -0.9452  0.0819  0.6681
   10CHL1    C8  680   0.391   4.263   6.594 -0.7582  0.4347 -0.0017
   10CHL1    H8  681   0.476   4.333   6.582 -0.6561  0.1575 -0.8961
   10CHL1   C14  682   0.325   4.239   6.463  0.0828  0.3760  0.0650
   10CHL1   H14  683   0.235   4.182   6.495  1.3285 -1.3194  0.6574
   10CHL1   C15  684   0.401   4.164   6.356 -0.5228  0.3909  0.0165
   10CHL1  H15A  685   0.509   4.186   6.359 -0.0160 -1.5571 -1.7057
   10CHL1  H15B  686   0.393   4.054   6.369 -0.1791 -0.3606 -4.4795
   10CHL1   C16  687   0.334   4.195   6.224  0.3441 -0.0894 -0.5732
   10CHL1  H16A  688   0.397   4.259   6.159  0.0432 -0.0737 -0.8496
   10CHL1  H16B  689   0.287   4.110   6.170 -0.8287  0.3003 -0.1993
   10CHL1   C17  690   0.216   4.298   6.266 -0.2885  0.5198  0.1038
   10CHL1   H17  691   0.130   4.232   6.289 -1.6299  1.8706 -0.8876
   10CHL1   C13  692   0.264   4.368   6.401 -0.5579 -0.2467 -0.1810
   10CHL1   C18  693   0.374   4.471   6.372  1.0239  0.2188  0.0920
   10CHL1  H18A  694   0.332   4.557   6.316  1.0627 -1.1534 -2.1552
   10CHL1  H18B  695   0.414   4.506   6.469  2.7938  1.4293 -1.0193
   10CHL1  H18C  696   0.453   4.427   6.307  2.8904 -0.6440  2.7402
   10CHL1   C12  697   0.151   4.413   6.496 -0.0385  0.0684 -0.4230
   10CHL1  H12A  698   0.106   4.504   6.450  0.5795  0.8860  0.5436
   10CHL1  H12B  699   0.067   4.341   6.499 -1.5665  1.7628 -0.7127
   10CHL1   C11  700   0.194   4.433   6.640  0.9412  0.1885  1.1240
   10CHL1  H11A  701   0.232   4.537   6.645  2.2548 -0.1836 -0.3922
   10CHL1  H11B  702   0.101   4.442   6.702  0.3200  1.4818  0.0529
   10CHL1    C9  703   0.290   4.323   6.691  0.6990  0.0445 -0.3382
   10CHL1    H9  704   0.215   4.245   6.714  0.4438  0.7044  1.2320
   10CHL1   C10  705   0.364   4.353   6.827  0.3283  1.0171 -0.2309
   10CHL1   C19  706   0.441   4.493   6.814 -0.4674  0.4433 -0.0193
   10CHL1  H19A  707   0.508   4.488   6.726 -1.1175 -1.3737 -0.4573
   10CHL1  H19B  708   0.365   4.574   6.808 -1.0166 -0.0936 -0.4074
   10CHL1  H19C  709   0.502   4.508   6.905  2.8602  0.0603 -2.0347
   10CHL1    C1  710   0.253   4.355   6.941  0.3688  0.3290 -0.4449
   10CHL1   H1A  711   0.182   4.438   6.921 -1.4749 -1.0645 -0.0258
   10CHL1   H1B  712   0.187   4.265   6.935 -0.5954  1.0313 -0.7465
   10CHL1    C2  713   0.306   4.381   7.087  0.9113 -0.4498  0.0836
   10CHL1   H2A  714   0.211   4.385   7.145 -0.0816  3.2677 -1.4563
   10CHL1   H2B  715   0.349   4.483   7.098 -1.1228  0.3820  0.7347
   10CHL1   C20  716   0.172   4.377   6.147 -0.2638  0.9301  0.3041
   10CHL1   H20  717   0.256   4.439   6.108  0.9272 -0.5398  0.4313
   10CHL1   C21  718   0.061   4.472   6.182 -0.5972 -0.4138  0.0452
   10CHL1  H21A  719   0.098   4.554   6.247  0.9862 -0.9118 -0.1791
   10CHL1  H21B  720  -0.022   4.421   6.235 -0.5178 -1.9430 -1.2218
   10CHL1  H21C  721   0.021   4.524   6.092 -0.2358  1.3274  0.8489
   10CHL1   C22  722   0.138   4.292   6.021 -0.3994 -0.2347  0.0454
   10CHL1  H22A  723   0.231   4.246   5.981 -0.3027  2.3305 -3.1005
   10CHL1  H22B  724   0.073   4.208   6.055 -1.3308  0.4812  0.0958
   10CHL1   C23  725   0.063   4.349   5.900 -0.2370  0.0298 -0.0272
   10CHL1  H23A  726   0.060   4.263   5.830  3.7879 -0.4846  0.2113
   10CHL1  H23B  727  -0.043   4.378   5.912  0.3544  1.7456  1.7589
   10CHL1   C24  728   0.136   4.478   5.845  1.0831 -0.6443 -0.3799
   10CHL1  H24A  729   0.140   4.560   5.921 -0.2763 -0.9609  0.0610
   10CHL1  H24B  730   0.238   4.452   5.810  1.0320 -1.9940  0.3808
   10CHL1   C25  731   0.066   4.537   5.721 -0.5182  0.2548 -0.2840
   10CHL1   H25  732  -0.044   4.541   5.737 -0.5654  3.8919 -0.5237
   10CHL1   C26  733   0.101   4.686   5.686 -0.6575  0.1277 -0.1313
   10CHL1  H26A  734   0.034   4.721   5.604  0.7730  2.7121 -0.3112
   10CHL1  H26B  735   0.102   4.746   5.779 -2.6463  3.1576 -1.8554
   10CHL1  H26C  736   0.206   4.688   5.649 -0.4276 -0.9533  0.4490
   10CHL1   C27  737   0.098   4.437   5.609  0.1235  0.2906 -0.6013
   10CHL1  H27A  738   0.203   4.438   5.573  0.6717 -1.1794  0.8153
   10CHL1  H27B  739   0.068   4.330   5.609 -0.3746  0.3906 -2.1489
   10CHL1  H27C  740   0.044   4.470   5.517  0.6892  0.8577 -0.7361
   11CHL1    C3  741   5.281   3.653   6.835  0.4244 -0.7977  0.0219
   11CHL1    H3  742   5.174   3.623   6.849  0.0351 -0.6389 -2.2645
   11CHL1    O3  743   5.343   3.705   6.951 -0.0277 -0.4456  0.0608
   11CHL1   H3'  744   5.436   3.693   6.929 -0.6328 -2.7491 -1.6656
   11CHL1    C4  745   5.367   3.536   6.790  0.2911  0.2775  0.1531
   11CHL1   H4A  746   5.476   3.559   6.783  0.6076 -0.5400  1.9368
   11CHL1   H4B  747   5.348   3.458   6.866  0.9603  1.1094  1.2065
   11CHL1    C5  748   5.336   3.489   6.648 -0.8917  0.2050  0.1026
   11CHL1    C6  749   5.310   3.361   6.615  0.4138  0.3992 -0.1511
   11CHL1    H6  750   5.328   3.287   6.694  0.0748  0.7016  0.2148
   11CHL1    C7  751   5.272   3.312   6.479  0.3742 -0.2308 -0.3780
   11CHL1   H7A  752   5.318   3.215   6.449 -2.1592 -1.8901  0.6634
   11CHL1   H7B  753   5.163   3.291   6.469  0.1881 -0.2584  1.3803
   11CHL1    C8  754   5.306   3.407   6.366 -0.1321 -0.3716  0.4818
   11CHL1    H8  755   5.415   3.414   6.345 -0.3138  0.5757 -0.2085
   11CHL1   C14  756   5.225   3.371   6.244 -0.4580  0.0597 -0.3148
   11CHL1   H14  757   5.120   3.371   6.280  0.0789 -2.5370  1.5822
   11CHL1   C15  758   5.231   3.222   6.191 -0.4097 -0.3506 -0.7092
   11CHL1  H15A  759   5.334   3.181   6.184 -0.3810 -0.3057 -0.5603
   11CHL1  H15B  760   5.166   3.157   6.254  2.0828 -1.0361  1.3385
   11CHL1   C16  761   5.178   3.239   6.048  0.3305  0.0898 -0.4354
   11CHL1  H16A  762   5.253   3.198   5.977  0.7351 -0.2466  0.1729
   11CHL1  H16B  763   5.093   3.168   6.050  0.3422  0.0749 -0.4667
   11CHL1   C17  764   5.148   3.390   6.023  0.2240 -0.0927  0.3821
   11CHL1   H17  765   5.044   3.409   6.059 -0.8833 -0.3983 -2.3996
   11CHL1   C13  766   5.233   3.465   6.127 -0.2956 -0.6460 -1.0412
   11CHL1   C18  767   5.381   3.467   6.068 -0.1212 -0.5038 -0.0496
   11CHL1  H18A  768   5.455   3.482   6.150 -0.5104  3.4571 -0.2286
   11CHL1  H18B  769   5.423   3.379   6.014  2.0465 -0.3139  1.1652
   11CHL1  H18C  770   5.393   3.558   6.006 -0.3895  0.1276  0.8067
   11CHL1   C12  771   5.187   3.606   6.171 -0.0941 -0.5835  0.2287
   11CHL1  H12A  772   5.220   3.667   6.085 -0.6155 -1.8471 -0.9124
   11CHL1  H12B  773   5.077   3.621   6.168  0.0082  1.0331  2.3541
   11CHL1   C11  774   5.249   3.648   6.300 -0.1812 -0.2096  0.3970
   11CHL1  H11A  775   5.350   3.688   6.276 -0.1532  0.1192  1.0346
   11CHL1  H11B  776   5.207   3.748   6.323  2.0241  1.8279 -3.3094
   11CHL1    C9  777   5.247   3.546   6.409 -0.0324  0.2430 -0.4403
   11CHL1    H9  778   5.139   3.533   6.430  0.1411  1.5580  1.5192
   11CHL1   C10  779   5.319   3.595   6.539 -0.6135 -0.0215 -0.7906
   11CHL1   C19  780   5.469   3.647   6.513  0.0384  0.3808 -0.1417
   11CHL1  H19A  781   5.532   3.588   6.443 -1.1505  2.1512 -2.8700
   11CHL1  H19B  782   5.457   3.746   6.464 -0.5312  0.9985  1.2002
   11CHL1  H19C  783   5.527   3.672   6.605 -2.0296  1.8020  0.8722
   11CHL1    C1  784   5.245   3.719   6.598 -0.3608  0.7265 -0.2474
   11CHL1   H1A  785   5.287   3.804   6.539 -0.6297  0.1399 -1.2938
   11CHL1   H1B  786   5.139   3.709   6.568  0.3034 -0.6897 -2.3020
   11CHL1    C2  787   5.285   3.765   6.738  0.1028 -0.2102 -0.2519
   11CHL1   H2A  788   5.226   3.854   6.769 -0.2255 -0.4125 -0.2952
   11CHL1   H2B  789   5.390   3.802   6.744 -0.0555  0.3574 -0.9153
   11CHL1   C20  790   5.135   3.430   5.870  0.0934 -0.6532 -0.1734
   11CHL1   H20  791   5.235   3.398   5.832  1.3169  2.4591  0.0786
   11CHL1   C21  792   5.131   3.580   5.843  0.2948  0.6209  0.6606
   11CHL1  H21A  793   5.227   3.633   5.860  2.4168 -2.1190 -1.8297
   11CHL1  H21B  794   5.058   3.631   5.911  1.8915  0.8533  2.2750
   11CHL1  H21C  795   5.096   3.590   5.738 -0.7019 -2.1406  0.6563
   11CHL1   C22  796   5.029   3.348   5.796 -0.3018 -0.0680 -0.3869
   11CHL1  H22A  797   5.038   3.244   5.832  1.6873  0.0468 -0.4470
   11CHL1  H22B  798   4.925   3.382   5.815 -0.2684 -0.0581 -0.2161
   11CHL1   C23  799   5.046   3.347   5.643 -0.1345 -1.2622 -0.3165
   11CHL1  H23A  800   5.063   3.446   5.595  1.3492 -1.7064 -0.7603
   11CHL1  H23B  801   5.139   3.291   5.615  0.5592 -1.7886  2.7071
   11CHL1   C24  802   4.914   3.294   5.579  0.0100 -0.4153  0.5856
   11CHL1  H24A  803   4.890   3.188   5.605 -1.9414 -0.1254  0.1309
   11CHL1  H24B  804   4.827   3.359   5.601 -0.6575 -1.3231  0.6929
   11CHL1   C25  805   4.919   3.308   5.421  0.5721  0.1376 -0.6610
   11CHL1   H25  806   4.946   3.415   5.408 -2.6874  1.2401  0.4239
   11CHL1   C26  807   5.023   3.212   5.366  0.9309 -0.1195 -0.7565
   11CHL1  H26A  808   5.120   3.220   5.421  0.0519  1.5862  0.6602
   11CHL1  H26B  809   4.998   3.104   5.365 -0.6925  0.2365 -1.5003
   11CHL1  H26C  810   5.045   3.240   5.261 -0.6441 -1.2015 -1.4051
   11CHL1   C27  811   4.781   3.296   5.359  0.4413  0.0780  0.1924
   11CHL1  H27A  812   4.797   3.287   5.249  1.4588 -1.7989  0.4428
   11CHL1  H27B  813   4.722   3.215   5.405  0.0092  0.7293  0.8027
   11CHL1  H27C  814   4.719   3.384   5.387  0.3576  0.3660 -0.8615
   12CHL1    C3  815   1.219   2.872   6.832  0.7960 -0.4044 -0.1880
   12CHL1    H3  816   1.305   2.828   6.777  0.0621 -2.5807  0.2826
   12CHL1    O3  817   1.254   2.881   6.968 -0.2627  0.2659 -0.2245
   12CHL1   H3'  818   1.327   2.943   6.969  2.3104 -2.5478 -0.9794
   12CHL1    C4  819   1.187   3.009   6.770 -0.4132 -0.2758 -0.6933
   12CHL1   H4A  820   1.103   3.037   6.836  1.2542  3.7492  0.0676
   12CHL1   H4B  821   1.264   3.085   6.795 -0.5128 -0.7411  1.1832
   12CHL1    C5  822   1.153   2.997   6.624  0.1331  0.3982 -0.2246
   12CHL1    C6  823   1.214   3.072   6.533  0.1632  0.0895  0.3876
   12CHL1    H6  824   1.279   3.149   6.576 -0.4383  0.3437  0.8568
   12CHL1    C7  825   1.184   3.081   6.387 -0.0352  0.1299 -0.1369
   12CHL1   H7A  826   1.167   3.186   6.354 -1.0348 -0.0481 -0.2338
   12CHL1   H7B  827   1.276   3.043   6.338 -0.8924 -1.6922 -0.4163
   12CHL1    C8  828   1.068   2.987   6.345  0.5024 -0.1396  0.1924
   12CHL1    H8  829   0.981   3.055   6.357  1.0641  0.5996  0.1579
   12CHL1   C14  830   1.075   2.949   6.197  0.4248 -0.0656 -0.2835
   12CHL1   H14  831   1.171   2.895   6.183  0.4314  0.0402 -0.6622
   12CHL1   C15  832   1.090   3.060   6.091  0.0739 -0.1046  0.2070
   12CHL1  H15A  833   1.018   3.142   6.111  0.3624 -0.1553  1.5603
   12CHL1  H15B  834   1.191   3.106   6.090 -0.1791  0.5377  1.2783
   12CHL1   C16  835   1.050   2.984   5.961 -0.0497 -0.0640 -0.2344
   12CHL1  H16A  836   0.975   3.051   5.914  1.6533  0.3766 -2.5428
   12CHL1  H16B  837   1.135   2.972   5.890  0.0861 -0.0095 -0.0816
   12CHL1   C17  838   0.996   2.841   6.002  0.2831  0.6022  0.5002
   12CHL1   H17  839   1.087   2.778   6.000  0.5165  0.9357  0.5079
   12CHL1   C13  840   0.962   2.853   6.153  0.7006 -0.1594 -0.3821
   12CHL1   C18  841   0.827   2.930   6.166 -0.6709 -0.9596  1.5549
   12CHL1  H18A  842   0.822   3.023   6.105  0.2542 -0.0304  2.8262
   12CHL1  H18B  843   0.743   2.860   6.145 -0.5895 -0.1246 -2.3809
   12CHL1  H18C  844   0.795   2.956   6.269  2.5140 -1.3567  2.7760
   12CHL1   C12  845   0.969   2.728   6.237  0.1839 -0.2998  0.0729
   12CHL1  H12A  846   0.905   2.645   6.201  0.4649  0.0064 -1.1571
   12CHL1  H12B  847   1.070   2.686   6.218  0.0209 -0.4989 -0.3600
   12CHL1   C11  848   0.946   2.758   6.387 -0.2222  0.2707 -0.3412
   12CHL1  H11A  849   0.840   2.789   6.404  0.1222  1.6191 -0.5787
   12CHL1  H11B  850   0.963   2.659   6.435  0.7357 -0.2481 -1.6977
   12CHL1    C9  851   1.052   2.864   6.434  0.4311  0.2304  0.4536
   12CHL1    H9  852   1.146   2.809   6.411 -0.9218 -1.6316 -0.9204
   12CHL1   C10  853   1.048   2.889   6.591 -1.0788 -0.3124 -0.8306
   12CHL1   C19  854   0.910   2.944   6.640 -0.0936 -0.7201  0.8960
   12CHL1  H19A  855   0.841   2.867   6.601  0.7094 -0.5644 -0.9693
   12CHL1  H19B  856   0.905   2.969   6.748  1.6433  5.1756  0.0058
   12CHL1  H19C  857   0.886   3.036   6.582 -1.8195 -1.4360  0.4108
   12CHL1    C1  858   1.060   2.749   6.670 -0.8304  0.3130 -0.6564
   12CHL1   H1A  859   0.966   2.690   6.658 -1.0326  0.9285 -2.3916
   12CHL1   H1B  860   1.144   2.695   6.621  0.0615  1.2213 -0.1566
   12CHL1    C2  861   1.099   2.771   6.819  0.6334  0.3407 -0.3531
   12CHL1   H2A  862   1.128   2.672   6.862 -1.7585 -1.2005 -2.0249
   12CHL1   H2B  863   1.015   2.814   6.877 -1.8185 -2.1159 -1.8608
   12CHL1   C20  864   0.888   2.786   5.911  0.1372 -0.1467  1.0226
   12CHL1   H20  865   0.806   2.861   5.907  0.3800  0.0633 -0.1015
   12CHL1   C21  866   0.824   2.659   5.950  0.2994 -0.3119 -0.0678
   12CHL1  H21A  867   0.754   2.675   6.035  0.8139 -1.2909  0.5545
   12CHL1  H21B  868   0.892   2.574   5.970 -1.3167 -1.4500  0.8336
   12CHL1  H21C  869   0.756   2.615   5.874 -0.1764 -1.2627  0.8698
   12CHL1   C22  870   0.952   2.763   5.771  0.8038 -0.0621  0.0041
   12CHL1  H22A  871   0.997   2.861   5.743 -2.6495  2.2741  1.9077
   12CHL1  H22B  872   1.033   2.687   5.780  0.9570  0.2397  1.4838
   12CHL1   C23  873   0.843   2.726   5.666  0.7166  1.0205  0.1881
   12CHL1  H23A  874   0.830   2.617   5.683  0.1127  0.9637 -0.5843
   12CHL1  H23B  875   0.745   2.774   5.687 -0.4077 -1.0474 -0.1133
   12CHL1   C24  876   0.879   2.757   5.521  0.0637  0.2572  0.3718
   12CHL1  H24A  877   0.903   2.865   5.520  1.3932  0.0691  2.9015
   12CHL1  H24B  878   0.963   2.690   5.492 -0.7615 -0.3504 -0.7152
   12CHL1   C25  879   0.783   2.715   5.409  0.8267  1.0525 -0.5923
   12CHL1   H25  880   0.762   2.606   5.416 -2.3109  1.5421 -0.5904
   12CHL1   C26  881   0.650   2.783   5.418  0.1524  0.3715  0.1548
   12CHL1  H26A  882   0.598   2.757   5.513  0.2033 -0.9323 -0.1472
   12CHL1  H26B  883   0.651   2.894   5.409 -0.4137  0.3174 -0.6535
   12CHL1  H26C  884   0.580   2.743   5.341  1.5115  0.8367 -1.3753
   12CHL1   C27  885   0.832   2.740   5.275  0.1614 -0.2012  0.4613
   12CHL1  H27A  886   0.928   2.688   5.255 -0.4960 -0.8971 -1.0640
   12CHL1  H27B  887   0.757   2.709   5.199  0.8430 -0.8037  0.0222
   12CHL1  H27C  888   0.850   2.850   5.270  0.0054 -0.0950  1.7606
   13CHL1    C3  889   2.872   2.088   6.294 -0.2062  0.2529  0.2193
   13CHL1    H3  890   2.805   2.157   6.349  0.3416  1.0657 -0.1207
   13CHL1    O3  891   2.957   2.008   6.384 -0.1270  0.3794  0.4728
   13CHL1   H3'  892   2.900   1.953   6.438  2.1111 -1.8519  0.7460
   13CHL1    C4  893   2.779   1.993   6.217 -0.2902  0.0892 -0.5344
   13CHL1   H4A  894   2.829   1.914   6.158  2.1678  1.2994 -0.1966
   13CHL1   H4B  895   2.710   1.944   6.290 -2.2414 -0.9959 -2.9741
   13CHL1    C5  896   2.700   2.074   6.119 -0.4786 -0.0920 -0.1700
   13CHL1    C6  897   2.563   2.067   6.123  0.4376 -0.3113 -0.5559
   13CHL1    H6  898   2.515   2.002   6.198  0.8402  0.3701  0.3131
   13CHL1    C7  899   2.474   2.125   6.016 -0.1638 -0.1483 -0.4999
   13CHL1   H7A  900   2.411   2.038   5.986  1.4052 -1.3379 -0.5440
   13CHL1   H7B  901   2.430   2.215   6.062  3.4284  1.2540  0.5590
   13CHL1    C8  902   2.554   2.163   5.885  0.2140 -0.3145  0.0708
   13CHL1    H8  903   2.573   2.069   5.828 -1.5874  0.2763 -1.6116
   13CHL1   C14  904   2.480   2.255   5.802  0.3993 -0.1854  0.0316
   13CHL1   H14  905   2.471   2.356   5.847 -2.1354 -0.4226  0.1840
   13CHL1   C15  906   2.340   2.223   5.769 -0.2796 -0.0764 -0.4608
   13CHL1  H15A  907   2.344   2.112   5.757  1.0040 -0.1189  0.2470
   13CHL1  H15B  908   2.262   2.252   5.842  0.5678 -0.5267  0.6607
   13CHL1   C16  909   2.311   2.284   5.638 -0.3413 -0.3614  0.3293
   13CHL1  H16A  910   2.279   2.206   5.565 -1.7130 -0.6334  1.1752
   13CHL1  H16B  911   2.233   2.362   5.652 -0.4675 -0.0820 -1.6298
   13CHL1   C17  912   2.440   2.358   5.589  0.6745 -0.2965  0.0273
   13CHL1   H17  913   2.443   2.457   5.638 -0.6626  0.4137 -1.2498
   13CHL1   C13  914   2.547   2.276   5.656  0.1988  0.2710 -0.5192
   13CHL1   C18  915   2.566   2.144   5.574  0.3476 -0.1321 -0.4425
   13CHL1  H18A  916   2.480   2.075   5.559 -0.2909  0.3720  0.7439
   13CHL1  H18B  917   2.612   2.168   5.476  0.3565  1.4379 -0.0731
   13CHL1  H18C  918   2.648   2.093   5.628 -1.0505 -0.6370  1.3172
   13CHL1   C12  919   2.677   2.352   5.699  0.6051 -0.1169  0.5022
   13CHL1  H12A  920   2.725   2.375   5.601  1.9010 -2.8387  0.4019
   13CHL1  H12B  921   2.660   2.442   5.761  0.3617 -0.0064  0.2784
   13CHL1   C11  922   2.771   2.265   5.784 -0.3990 -0.1389 -0.6347
   13CHL1  H11A  923   2.810   2.189   5.714  1.5052  0.7356 -0.5839
   13CHL1  H11B  924   2.862   2.323   5.811  0.8281 -2.1698 -0.2391
   13CHL1    C9  925   2.698   2.223   5.914 -0.8929  0.0505 -0.5257
   13CHL1    H9  926   2.687   2.323   5.961  2.3367  0.4231 -0.3244
   13CHL1   C10  927   2.784   2.145   6.012  0.5726  0.7260 -0.0361
   13CHL1   C19  928   2.863   2.039   5.928 -0.2230  0.5463 -0.0777
   13CHL1  H19A  929   2.941   2.085   5.864 -0.8459 -2.7320 -3.5477
   13CHL1  H19B  930   2.920   1.961   5.982 -0.1347  0.4677 -0.2856
   13CHL1  H19C  931   2.795   1.987   5.857  0.7255  0.0668 -0.6464
   13CHL1    C1  932   2.885   2.239   6.090 -0.2334 -0.0741 -0.1729
   13CHL1   H1A  933   2.956   2.284   6.017 -0.5883  1.1191  0.1987
   13CHL1   H1B  934   2.823   2.321   6.131  0.8717  2.2001 -2.7167
   13CHL1    C2  935   2.963   2.173   6.209 -0.1628  0.7188 -0.1460
   13CHL1   H2A  936   3.003   2.256   6.272 -1.4580  1.6711 -0.5394
   13CHL1   H2B  937   3.053   2.118   6.175 -0.1774  0.0513  0.8454
   13CHL1   C20  938   2.447   2.380   5.434 -0.5682 -0.3352 -0.2482
   13CHL1   H20  939   2.416   2.283   5.389  0.1841 -1.0417  0.7086
   13CHL1   C21  940   2.584   2.413   5.363 -0.2118 -0.5359 -0.7556
   13CHL1  H21A  941   2.587   2.389   5.254 -0.0203  0.8035 -1.0640
   13CHL1  H21B  942   2.668   2.349   5.396 -0.5192 -0.1665  0.8375
   13CHL1  H21C  943   2.631   2.511   5.383 -0.3967 -0.7096  0.6451
   13CHL1   C22  944   2.338   2.479   5.386  0.7294  0.6285 -0.0615
   13CHL1  H22A  945   2.246   2.473   5.448 -0.1105 -0.2447 -1.3199
   13CHL1  H22B  946   2.366   2.586   5.391 -0.2055  0.9048 -0.3914
   13CHL1   C23  947   2.298   2.453   5.233 -0.1355  0.6379 -0.1025
   13CHL1  H23A  948   2.387   2.493   5.179  0.4693 -0.9506 -0.3318
   13CHL1  H23B  949   2.281   2.344   5.223  0.5452  0.6754 -2.3904
   13CHL1   C24  950   2.170   2.524   5.177  0.3524 -0.6584 -0.7844
   13CHL1  H24A  951   2.079   2.521   5.240 -0.7127 -0.7498 -2.2604
   13CHL1  H24B  952   2.212   2.627   5.178 -0.1569 -0.4337  0.9015
   13CHL1   C25  953   2.142   2.478   5.028  0.0848  0.0009  0.7673
   13CHL1   H25  954   2.081   2.559   4.982 -1.4195  0.0486  2.7384
   13CHL1   C26  955   2.268   2.482   4.943 -0.1142 -0.8412 -0.3652
   13CHL1  H26A  956   2.339   2.404   4.979  0.7580  0.1553  0.1068
   13CHL1  H26B  957   2.256   2.459   4.835  1.7567 -2.4487 -0.3038
   13CHL1  H26C  958   2.314   2.582   4.952 -1.0746 -0.5236  1.4214
   13CHL1   C27  959   2.067   2.345   5.022 -0.3272 -0.2374  0.3561
   13CHL1  H27A  960   2.111   2.269   5.090  1.2058 -0.1849 -0.5229
   13CHL1  H27B  961   1.960   2.346   5.048 -0.7916  2.2619 -1.2690
   13CHL1  H27C  962   2.069   2.318   4.914  0.0607  1.4480 -0.0803
   14CHL1    C3  963   5.184   1.757   6.957  0.1960 -0.3526 -0.4084
   14CHL1    H3  964   5.274   1.691   6.955  2.5214  2.4793  1.7222
   14CHL1    O3  965   5.160   1.797   7.088 -0.2691 -0.8511 -0.0409
   14CHL1   H3'  966   5.247   1.831   7.111 -1.4898  4.1769 -1.4496
   14CHL1    C4  967   5.215   1.883   6.870 -0.5849  0.6954  0.2703
   14CHL1   H4A  968   5.133   1.954   6.893 -2.1472 -1.1699  0.7545
   14CHL1   H4B  969   5.308   1.925   6.912  0.6873 -2.1808  0.5481
   14CHL1    C5  970   5.220   1.858   6.718  0.8263  0.0550 -0.5103
   14CHL1    C6  971   5.319   1.904   6.649  0.0890 -0.1694  0.5244
   14CHL1    H6  972   5.398   1.963   6.699  0.8965 -0.5883 -0.2134
   14CHL1    C7  973   5.338   1.872   6.503  0.4012  0.0708 -0.2827
   14CHL1   H7A  974   5.397   1.953   6.454  1.2385 -0.5425 -0.3142
   14CHL1   H7B  975   5.402   1.782   6.508 -1.8951 -1.5756  2.1698
   14CHL1    C8  976   5.200   1.852   6.433  0.0948  0.4188 -1.4137
   14CHL1    H8  977   5.149   1.948   6.453  1.9103  0.5531  4.9001
   14CHL1   C14  978   5.214   1.813   6.291  0.3851 -0.3384 -0.0407
   14CHL1   H14  979   5.255   1.710   6.294  0.7185 -0.1883  0.9571
   14CHL1   C15  980   5.312   1.908   6.204 -0.3113  0.4614 -0.3340
   14CHL1  H15A  981   5.299   2.011   6.244  0.7418  0.6098 -0.3552
   14CHL1  H15B  982   5.419   1.887   6.225 -0.7123 -0.1202  1.2535
   14CHL1   C16  983   5.264   1.885   6.063 -0.3031 -0.0821  0.7801
   14CHL1  H16A  984   5.220   1.972   6.010 -1.0477 -0.3901  0.8824
   14CHL1  H16B  985   5.348   1.844   6.004 -0.5542  0.6771 -0.1450
   14CHL1   C17  986   5.151   1.783   6.066  0.3508  0.1078 -0.0130
   14CHL1   H17  987   5.191   1.680   6.070 -1.0580 -0.4316  1.1351
   14CHL1   C13  988   5.094   1.806   6.211  0.2617  0.1464 -0.1513
   14CHL1   C18  989   5.007   1.933   6.210  0.8858 -0.6070  0.2390
   14CHL1  H18A  990   4.976   1.947   6.316  1.9165 -2.2831  0.8071
   14CHL1  H18B  991   5.066   2.022   6.180  2.0770 -2.0784 -2.0315
   14CHL1  H18C  992   4.914   1.919   6.151  1.0526  0.0193 -0.1839
   14CHL1   C12  993   5.012   1.687   6.283  0.0025 -0.4125 -0.7051
   14CHL1  H12A  994   4.915   1.678   6.230 -0.7994 -0.9229  0.7871
   14CHL1  H12B  995   5.076   1.597   6.276  1.3116  0.5799 -2.2764
   14CHL1   C11  996   4.983   1.709   6.433 -0.1051  0.5602 -0.3578
   14CHL1  H11A  997   4.908   1.789   6.445 -0.6268 -0.0211  0.2895
   14CHL1  H11B  998   4.939   1.617   6.477 -0.9753  0.4462 -1.4229
   14CHL1    C9  999   5.112   1.748   6.513 -0.0729  0.1857  0.5155
   14CHL1    H9 1000   5.165   1.650   6.512  0.3610  0.3513  2.9874
   14CHL1   C10 1001   5.093   1.789   6.662  0.5106 -0.0078  0.1594
   14CHL1   C19 1002   4.982   1.895   6.672  0.2274 -0.5771  0.3667
   14CHL1  H19A 1003   4.882   1.864   6.637  0.0069  0.3403  0.1379
   14CHL1  H19B 1004   4.969   1.926   6.777  2.4501  0.9095  0.2802
   14CHL1  H19C 1005   5.010   1.989   6.619 -1.3797 -0.1665  0.1950
   14CHL1    C1 1006   5.056   1.665   6.753 -0.3988  0.3005 -0.0571
   14CHL1   H1A 1007   4.963   1.617   6.715 -0.9225  1.5438 -0.3894
   14CHL1   H1B 1008   5.131   1.585   6.734  0.3460  0.5769  1.5433
   14CHL1    C2 1009   5.053   1.689   6.900  0.0327 -0.1541 -0.9484
   14CHL1   H2A 1010   5.031   1.601   6.964  2.5559 -1.1518 -1.3481
   14CHL1   H2B 1011   4.970   1.762   6.912 -0.5931 -0.9231 -0.4532
   14CHL1   C20 1012   5.049   1.795   5.951  0.3670  0.5187 -0.0815
   14CHL1   H20 1013   5.007   1.897   5.962 -2.4504 -0.4288 -1.2322
   14CHL1   C21 1014   4.944   1.688   5.960  0.5969 -1.1082  0.0683
   14CHL1  H21A 1015   4.870   1.691   5.878 -0.8736 -0.4992  1.3609
   14CHL1  H21B 1016   4.865   1.703   6.037 -0.9479 -1.3379 -1.4049
   14CHL1  H21C 1017   4.998   1.591   5.963  2.6984  0.0304  1.5014
   14CHL1   C22 1018   5.119   1.786   5.813 -0.4341  0.1926  0.0095
   14CHL1  H22A 1019   5.211   1.849   5.811  0.6510 -1.3191  0.3110
   14CHL1  H22B 1020   5.163   1.687   5.787  0.1900 -0.1213  2.1170
   14CHL1   C23 1021   5.037   1.843   5.697 -0.2907 -0.2894  0.4847
   14CHL1  H23A 1022   4.935   1.799   5.689 -1.1561  1.3989  1.6287
   14CHL1  H23B 1023   5.010   1.945   5.732 -0.7498 -0.0282 -0.6046
   14CHL1   C24 1024   5.106   1.837   5.563 -0.6545  0.5541  0.4041
   14CHL1  H24A 1025   5.215   1.858   5.565 -0.5397 -0.0457  0.8819
   14CHL1  H24B 1026   5.113   1.729   5.536 -2.5028  0.4654  0.1995
   14CHL1   C25 1027   5.036   1.919   5.453 -0.1503  0.1043  0.4532
   14CHL1   H25 1028   5.040   2.028   5.472 -0.7579  0.2022  0.0316
   14CHL1   C26 1029   5.123   1.887   5.331 -0.1033  0.1594  0.3405
   14CHL1  H26A 1030   5.215   1.948   5.346 -0.5934  1.1002 -0.3644
   14CHL1  H26B 1031   5.156   1.781   5.332  0.9594  0.4328 -1.4322
   14CHL1  H26C 1032   5.082   1.913   5.231  0.0781  0.9721  0.4695
   14CHL1   C27 1033   4.888   1.874   5.423  0.6601  0.3468 -0.1690
   14CHL1  H27A 1034   4.861   1.928   5.330 -0.3135  1.1355  0.5410
   14CHL1  H27B 1035   4.875   1.767   5.397  3.4771  0.3760 -2.0519
   14CHL1  H27C 1036   4.813   1.895   5.502 -0.4607 -2.1803 -0.4622
   15CHL1    C3 1037   4.958   6.813   6.658 -0.2703 -0.6101 -0.2123
   15CHL1    H3 1038   4.859   6.836   6.612  1.3574  1.0603 -3.1919
   15CHL1    O3 1039   4.942   6.761   6.790 -0.0772 -0.4775 -0.4123
   15CHL1   H3' 1040   5.027   6.731   6.823 -0.7529  1.4732  3.7456
   15CHL1    C4 1041   5.027   6.704   6.577 -1.1114  0.2237  0.0417
   15CHL1   H4A 1042   5.114   6.663   6.633 -1.2677  0.4647  0.4700
   15CHL1   H4B 1043   4.971   6.609   6.567  0.5192 -0.9156  1.2129
   15CHL1    C5 1044   5.069   6.757   6.445 -0.6074  0.5032  0.1674
   15CHL1    C6 1045   5.039   6.686   6.332  0.0255 -0.2073 -0.8169
   15CHL1    H6 1046   4.987   6.592   6.352 -0.5751  0.2783 -0.0231
   15CHL1    C7 1047   5.069   6.718   6.195 -0.6070 -1.0570 -0.2609
   15CHL1   H7A 1048   5.122   6.630   6.152  2.6443  0.5457  0.1208
   15CHL1   H7B 1049   4.973   6.736   6.143 -0.8800 -0.9719  0.2659
   15CHL1    C8 1050   5.164   6.843   6.177  0.2560  0.3891  0.2757
   15CHL1    H8 1051   5.273   6.823   6.169  0.4216  1.2804  0.1309
   15CHL1   C14 1052   5.127   6.906   6.044  0.1817 -0.1061 -0.3502
   15CHL1   H14 1053   5.022   6.942   6.053  1.4709  4.0832  0.4532
   15CHL1   C15 1054   5.129   6.816   5.918  0.5775 -0.1991 -0.4551
   15CHL1  H15A 1055   5.220   6.753   5.904  0.3593 -1.4597  2.8199
   15CHL1  H15B 1056   5.034   6.758   5.917  1.5854 -1.9460 -0.4932
   15CHL1   C16 1057   5.133   6.926   5.801 -0.0261 -0.3150 -0.8257
   15CHL1  H16A 1058   5.229   6.916   5.745 -0.1194  0.5590 -1.1484
   15CHL1  H16B 1059   5.044   6.914   5.735 -0.5266 -0.8414 -0.0773
   15CHL1   C17 1060   5.141   7.069   5.868  0.6746 -0.4747  0.3930
   15CHL1   H17 1061   5.035   7.092   5.892  0.9049  1.2119 -0.0853
   15CHL1   C13 1062   5.208   7.033   6.005  0.2284 -0.7645 -0.2299
   15CHL1   C18 1063   5.360   7.008   5.984 -0.0058 -0.1215  0.0617
   15CHL1  H18A 1064   5.402   7.111   5.993 -0.2581  0.1082 -1.2093
   15CHL1  H18B 1065   5.400   6.953   6.072  2.1403  2.6751  1.0042
   15CHL1  H18C 1066   5.386   6.953   5.891  1.6307 -0.5040  0.7015
   15CHL1   C12 1067   5.189   7.138   6.116 -0.9293  0.0998 -0.4608
   15CHL1  H12A 1068   5.265   7.219   6.104  1.5855 -1.5363  2.7487
   15CHL1  H12B 1069   5.086   7.177   6.108 -1.3729 -1.2114 -1.4201
   15CHL1   C11 1070   5.213   7.079   6.260 -0.6217 -0.5958  0.3340
   15CHL1  H11A 1071   5.321   7.067   6.280  0.4417  2.5719 -2.6118
   15CHL1  H11B 1072   5.183   7.166   6.323  4.1548  2.5536 -1.1864
   15CHL1    C9 1073   5.137   6.946   6.289  0.4373  0.0956 -0.4389
   15CHL1    H9 1074   5.036   6.988   6.269  0.4263  1.7192  2.4242
   15CHL1   C10 1075   5.141   6.896   6.433  0.2161  0.0145  0.4685
   15CHL1   C19 1076   5.285   6.878   6.482 -0.2434 -0.1200  0.3386
   15CHL1  H19A 1077   5.313   6.981   6.516  1.2166 -0.3882  0.0359
   15CHL1  H19B 1078   5.303   6.802   6.561  0.7475 -1.3033 -0.9736
   15CHL1  H19C 1079   5.345   6.861   6.390 -1.7288  1.9623 -1.1113
   15CHL1    C1 1080   5.067   7.000   6.519 -0.0397 -0.5292  0.4964
   15CHL1   H1A 1081   5.135   7.087   6.533 -1.8503  0.6179  2.9705
   15CHL1   H1B 1082   4.970   7.032   6.475  1.3989  0.4500 -2.1559
   15CHL1    C2 1083   5.033   6.953   6.659 -0.4722  0.0861 -0.2918
   15CHL1   H2A 1084   4.975   7.029   6.715  0.1896  0.7681 -0.5109
   15CHL1   H2B 1085   5.124   6.943   6.723 -0.0921  2.8206 -0.3122
   15CHL1   C20 1086   5.201   7.181   5.784 -0.4437 -0.4267 -0.4390
   15CHL1   H20 1087   5.312   7.174   5.778 -0.2621  2.1252 -1.1903
   15CHL1   C21 1088   5.157   7.318   5.845  0.4790  0.0145  0.1243
   15CHL1  H21A 1089   5.240   7.387   5.817  3.1499 -1.9924  2.4756
   15CHL1  H21B 1090   5.151   7.312   5.956  1.6783  3.3758  0.5018
   15CHL1  H21C 1091   5.067   7.358   5.796 -0.8414 -2.0331  0.7505
   15CHL1   C22 1092   5.155   7.191   5.639  0.1052  0.5361  0.2246
   15CHL1  H22A 1093   5.186   7.095   5.591 -1.5220  0.4997 -0.8324
   15CHL1  H22B 1094   5.044   7.188   5.631  0.0011  0.3387  1.5445
   15CHL1   C23 1095   5.228   7.298   5.552 -0.0382  0.2945 -0.5329
   15CHL1  H23A 1096   5.191   7.398   5.582  0.0067  0.5113 -1.1874
   15CHL1  H23B 1097   5.334   7.293   5.583  0.4205  0.5479 -1.9761
   15CHL1   C24 1098   5.207   7.254   5.401  0.1877 -0.3189  0.4753
   15CHL1  H24A 1099   5.267   7.164   5.375  0.1996  0.3652 -2.0779
   15CHL1  H24B 1100   5.099   7.233   5.390  0.2042  0.6660 -2.6352
   15CHL1   C25 1101   5.246   7.362   5.297 -0.0223  0.1154 -0.1854
   15CHL1   H25 1102   5.348   7.395   5.325 -0.2523  0.6665  0.0193
   15CHL1   C26 1103   5.237   7.318   5.151  0.7789 -0.1952  0.3513
   15CHL1  H26A 1104   5.305   7.236   5.120  2.9793  1.4983  0.4611
   15CHL1  H26B 1105   5.135   7.273   5.148 -1.0037  3.3253  2.3235
   15CHL1  H26C 1106   5.242   7.404   5.081 -0.9304  1.5126  2.2173
   15CHL1   C27 1107   5.162   7.490   5.323  0.6003  0.3533  0.0111
   15CHL1  H27A 1108   5.054   7.479   5.296  0.2966  1.8545  0.5456
   15CHL1  H27B 1109   5.162   7.529   5.427 -2.1798  0.2264  0.1398
   15CHL1  H27C 1110   5.200   7.578   5.267  1.5014 -0.1609 -0.1938
   16CHL1    C3 1111   2.458   6.655   7.097 -0.4127  0.1380 -0.4548
   16CHL1    H3 1112   2.348   6.648   7.089 -0.5373  1.6578 -0.2646
   16CHL1    O3 1113   2.480   6.682   7.235 -0.3904  0.0068 -0.0988
   16CHL1   H3' 1114   2.481   6.777   7.241  2.5968  0.0730  0.1057
   16CHL1    C4 1115   2.522   6.517   7.068  0.9444 -0.1297 -0.1322
   16CHL1   H4A 1116   2.629   6.523   7.098  0.6287  1.3817  0.7985
   16CHL1   H4B 1117   2.476   6.437   7.128 -0.8441 -1.3513 -2.9121
   16CHL1    C5 1118   2.527   6.478   6.917 -0.2295 -0.8414  0.1990
   16CHL1    C6 1119   2.478   6.360   6.886  0.0318 -0.4476 -0.1979
   16CHL1    H6 1120   2.450   6.293   6.969  2.3865 -1.5254 -0.1918
   16CHL1    C7 1121   2.469   6.313   6.743  0.6112  0.2595 -0.1439
   16CHL1   H7A 1122   2.490   6.204   6.742  2.4787  0.5691 -1.8710
   16CHL1   H7B 1123   2.368   6.330   6.699  0.6495 -0.6318 -0.6071
   16CHL1    C8 1124   2.573   6.391   6.653  0.6083 -0.2346 -0.2501
   16CHL1    H8 1125   2.675   6.358   6.680  0.0143 -0.3898  2.0137
   16CHL1   C14 1126   2.536   6.362   6.515  0.1871 -0.2270  0.1306
   16CHL1   H14 1127   2.432   6.393   6.492  0.1077 -0.7616 -0.2679
   16CHL1   C15 1128   2.528   6.211   6.478 -0.0479 -1.2202  0.1939
   16CHL1  H15A 1129   2.615   6.164   6.528 -1.3988 -1.6254  2.2441
   16CHL1  H15B 1130   2.437   6.162   6.516 -1.5608  1.8587  0.8551
   16CHL1   C16 1131   2.524   6.217   6.321  0.3283  0.0550 -0.1395
   16CHL1  H16A 1132   2.596   6.143   6.282  0.8004 -0.5970  1.8427
   16CHL1  H16B 1133   2.419   6.187   6.299  0.6778 -2.5883  1.3867
   16CHL1   C17 1134   2.547   6.357   6.278  0.1898 -0.6140  0.1164
   16CHL1   H17 1135   2.449   6.407   6.260  0.6459 -0.2470 -1.4311
   16CHL1   C13 1136   2.615   6.424   6.402  0.1587 -0.3650 -0.5686
   16CHL1   C18 1137   2.769   6.386   6.397 -0.1218  1.0194  0.2893
   16CHL1  H18A 1138   2.813   6.442   6.312 -1.6316 -1.0299 -2.0290
   16CHL1  H18B 1139   2.822   6.404   6.492 -0.9579  1.4577  0.6837
   16CHL1  H18C 1140   2.772   6.281   6.359  1.1677  1.7200 -1.7214
   16CHL1   C12 1141   2.602   6.579   6.416  0.5984  0.6175  0.6576
   16CHL1  H12A 1142   2.671   6.622   6.341 -2.7848  2.4170 -1.6990
   16CHL1  H12B 1143   2.501   6.620   6.392 -0.1818 -0.0226  2.6441
   16CHL1   C11 1144   2.643   6.627   6.559  0.3131  0.6404 -0.4418
   16CHL1  H11A 1145   2.752   6.608   6.569  0.3373  1.7114  2.3658
   16CHL1  H11B 1146   2.629   6.737   6.570 -1.0164  0.6150 -1.5603
   16CHL1    C9 1147   2.566   6.548   6.677 -0.9745 -0.1459 -0.2828
   16CHL1    H9 1148   2.461   6.559   6.643 -0.0690  1.2010 -2.9829
   16CHL1   C10 1149   2.587   6.588   6.826 -0.2569  0.9108  0.2164
   16CHL1   C19 1150   2.740   6.605   6.845  1.0328  0.1806  0.7791
   16CHL1  H19A 1151   2.768   6.618   6.952  0.7076 -0.1475  0.9039
   16CHL1  H19B 1152   2.796   6.517   6.807 -1.1949 -0.7628 -0.5464
   16CHL1  H19C 1153   2.772   6.692   6.783 -0.0740 -0.9757 -1.5612
   16CHL1    C1 1154   2.508   6.719   6.859 -0.5664 -0.6508 -0.4558
   16CHL1   H1A 1155   2.541   6.796   6.787  0.4083 -1.1126 -0.5287
   16CHL1   H1B 1156   2.400   6.696   6.846 -1.0015  1.6363 -1.3103
   16CHL1    C2 1157   2.520   6.761   7.010  0.7224  0.2480  0.1187
   16CHL1   H2A 1158   2.462   6.855   7.013  0.5955  0.1787 -0.1260
   16CHL1   H2B 1159   2.628   6.783   7.024  0.3312  1.2622  1.9064
   16CHL1   C20 1160   2.607   6.366   6.139 -0.5491 -0.5735 -0.0143
   16CHL1   H20 1161   2.716   6.348   6.128 -0.4332 -1.5922  2.2115
   16CHL1   C21 1162   2.590   6.507   6.094  0.3173 -0.5327 -0.6540
   16CHL1  H21A 1163   2.614   6.523   5.987 -0.0998  1.5880 -0.4789
   16CHL1  H21B 1164   2.660   6.569   6.155  1.4231 -1.9509 -0.4355
   16CHL1  H21C 1165   2.491   6.554   6.114 -0.2381 -1.3561 -1.3986
   16CHL1   C22 1166   2.535   6.272   6.033 -0.5114  0.7653  0.1665
   16CHL1  H22A 1167   2.533   6.170   6.075  1.6666 -0.0079 -1.4331
   16CHL1  H22B 1168   2.434   6.314   6.016 -0.9874 -0.6313 -0.6064
   16CHL1   C23 1169   2.616   6.261   5.900  0.4622  0.5175  0.2100
   16CHL1  H23A 1170   2.600   6.352   5.838 -1.8321 -2.1738 -3.5730
   16CHL1  H23B 1171   2.721   6.246   5.934 -0.1401 -1.4276  1.3163
   16CHL1   C24 1172   2.583   6.141   5.803 -0.3262 -0.1901  0.0441
   16CHL1  H24A 1173   2.629   6.051   5.848 -0.9248 -0.6063 -0.1746
   16CHL1  H24B 1174   2.472   6.134   5.801 -0.5978  2.8290 -1.5951
   16CHL1   C25 1175   2.633   6.152   5.660  0.7847  0.3540  0.2193
   16CHL1   H25 1176   2.619   6.256   5.626  1.6053 -0.0947 -1.6149
   16CHL1   C26 1177   2.784   6.129   5.649 -0.3257 -0.3500  0.1289
   16CHL1  H26A 1178   2.847   6.188   5.719  2.9971 -2.6482 -0.6722
   16CHL1  H26B 1179   2.807   6.020   5.653  0.9517 -0.0721  0.9598
   16CHL1  H26C 1180   2.806   6.164   5.546 -0.4958  0.4340  0.3580
   16CHL1   C27 1181   2.556   6.058   5.564 -0.2870  0.1287 -0.7050
   16CHL1  H27A 1182   2.607   5.960   5.578  0.9591  0.8325 -0.2317
   16CHL1  H27B 1183   2.445   6.047   5.574 -0.1518 -1.2982 -0.5493
   16CHL1  H27C 1184   2.571   6.089   5.458 -0.7670 -1.8305 -1.4016
   17CHL1    C3 1185   2.627   1.248   6.817  0.0588 -0.0169 -1.1621
   17CHL1    H3 1186   2.652   1.355   6.804  1.6086  0.0128  1.4103
   17CHL1    O3 1187   2.615   1.213   6.952  0.3023  0.5392 -0.3437
   17CHL1   H3' 1188   2.607   1.117   6.950  0.7205  0.4931  0.0172
   17CHL1    C4 1189   2.496   1.210   6.741  0.0588  0.1802  0.5676
   17CHL1   H4A 1190   2.471   1.106   6.772 -0.8793 -0.5686 -2.3216
   17CHL1   H4B 1191   2.419   1.279   6.780 -2.4438 -1.6032 -0.9150
   17CHL1    C5 1192   2.506   1.213   6.593 -0.4517  0.2316  0.0902
   17CHL1    C6 1193   2.429   1.292   6.521 -0.4740  0.1680 -0.3109
   17CHL1    H6 1194   2.360   1.363   6.570  0.6822 -0.4530  2.4158
   17CHL1    C7 1195   2.432   1.295   6.371  0.2549  0.7539 -0.0113
   17CHL1   H7A 1196   2.331   1.281   6.325  1.1739 -1.7613 -1.4186
   17CHL1   H7B 1197   2.472   1.398   6.358 -1.6907  1.5720  0.0585
   17CHL1    C8 1198   2.521   1.185   6.312 -1.2006 -0.0348  0.3872
   17CHL1    H8 1199   2.476   1.084   6.302  0.9733 -1.0385  0.0333
   17CHL1   C14 1200   2.559   1.211   6.171 -0.2344  0.2459  0.0092
   17CHL1   H14 1201   2.607   1.311   6.169 -0.7310  0.4852  0.0205
   17CHL1   C15 1202   2.448   1.229   6.072 -0.2787 -1.0886 -0.3808
   17CHL1  H15A 1203   2.350   1.187   6.102 -1.7267  0.6812 -2.3713
   17CHL1  H15B 1204   2.421   1.336   6.075 -0.9082 -1.2088  3.2540
   17CHL1   C16 1205   2.505   1.187   5.933  0.2430 -0.2984  0.2077
   17CHL1  H16A 1206   2.466   1.089   5.898  2.6550 -0.6838 -1.6689
   17CHL1  H16B 1207   2.466   1.260   5.860  1.2150  0.5199  0.4790
   17CHL1   C17 1208   2.657   1.170   5.967  0.1474  0.3093  0.1240
   17CHL1   H17 1209   2.698   1.272   5.983 -0.5485  0.6602 -0.2920
   17CHL1   C13 1210   2.661   1.117   6.107 -0.1861  0.6558 -0.7018
   17CHL1   C18 1211   2.612   0.965   6.120 -0.2027  0.0969 -0.0100
   17CHL1  H18A 1212   2.579   0.927   6.219 -0.6067 -2.9205 -1.1980
   17CHL1  H18B 1213   2.532   0.935   6.049 -0.0549 -1.5780  0.4759
   17CHL1  H18C 1214   2.692   0.895   6.087 -0.9301 -0.1059 -1.4319
   17CHL1   C12 1215   2.795   1.138   6.184 -0.0369  0.0965  0.1835
   17CHL1  H12A 1216   2.875   1.077   6.138 -1.4740 -2.7600  1.2062
   17CHL1  H12B 1217   2.828   1.244   6.187  0.8995 -0.1567 -0.6760
   17CHL1   C11 1218   2.768   1.089   6.327 -0.4230 -0.6413  0.5169
   17CHL1  H11A 1219   2.765   0.978   6.329 -1.4284 -0.6173  1.6874
   17CHL1  H11B 1220   2.862   1.110   6.384  1.6746  0.3813 -3.0175
   17CHL1    C9 1221   2.654   1.170   6.391  0.1593 -0.1051  0.1307
   17CHL1    H9 1222   2.695   1.271   6.408 -0.3329 -0.2113  2.1628
   17CHL1   C10 1223   2.628   1.133   6.539  0.8131 -0.8289  0.5369
   17CHL1   C19 1224   2.598   0.979   6.550  0.2402  0.7464  0.5818
   17CHL1  H19A 1225   2.513   0.954   6.482  0.6548  1.0122 -0.0452
   17CHL1  H19B 1226   2.685   0.928   6.503  0.1991  0.7556  0.4967
   17CHL1  H19C 1227   2.585   0.948   6.656  1.3281 -0.9637  0.2480
   17CHL1    C1 1228   2.760   1.161   6.620  0.1743 -0.0303 -0.6182
   17CHL1   H1A 1229   2.829   1.076   6.599 -2.1442 -1.9703 -0.8034
   17CHL1   H1B 1230   2.804   1.255   6.582  0.0931  0.5010  0.5440
   17CHL1    C2 1231   2.747   1.161   6.770  1.0576 -0.2846  0.1701
   17CHL1   H2A 1232   2.838   1.192   6.825  1.1762 -1.9466  0.9644
   17CHL1   H2B 1233   2.737   1.055   6.803 -0.3225  0.4985  2.5307
   17CHL1   C20 1234   2.750   1.102   5.873 -0.5043 -0.3741  0.6040
   17CHL1   H20 1235   2.847   1.080   5.922 -1.5122 -3.3706  1.5257
   17CHL1   C21 1236   2.769   1.207   5.763  0.0170  0.0711  0.1071
   17CHL1  H21A 1237   2.825   1.299   5.792  0.3248 -0.3684  0.9525
   17CHL1  H21B 1238   2.672   1.226   5.714  0.9022 -0.0726 -1.7808
   17CHL1  H21C 1239   2.843   1.167   5.690  2.6680  0.2265  2.5215
   17CHL1   C22 1240   2.700   0.963   5.815 -0.4535  0.5369 -0.0171
   17CHL1  H22A 1241   2.687   0.888   5.896 -0.9109  1.4665  0.7958
   17CHL1  H22B 1242   2.605   0.983   5.760  0.3564 -0.0630 -1.7040
   17CHL1   C23 1243   2.796   0.893   5.715 -0.5758 -0.9951 -0.0804
   17CHL1  H23A 1244   2.806   0.951   5.621  2.2331  0.9088  1.2549
   17CHL1  H23B 1245   2.898   0.896   5.759 -1.3436 -0.2846  1.7604
   17CHL1   C24 1246   2.771   0.752   5.702 -0.1683  0.2424 -0.4702
   17CHL1  H24A 1247   2.777   0.696   5.798 -3.6276  1.9769  0.9167
   17CHL1  H24B 1248   2.668   0.725   5.672 -0.0887 -1.0228  0.3403
   17CHL1   C25 1249   2.874   0.698   5.595 -0.3945  0.7218  0.1716
   17CHL1   H25 1250   2.972   0.748   5.611  0.4696 -0.8951  0.2107
   17CHL1   C26 1251   2.906   0.544   5.617  0.6360 -0.3121  0.1260
   17CHL1  H26A 1252   2.942   0.491   5.526 -0.9446 -1.5252  0.1533
   17CHL1  H26B 1253   2.960   0.518   5.711 -3.3540 -2.6938  2.0534
   17CHL1  H26C 1254   2.804   0.501   5.627  0.6847 -0.7821 -1.2439
   17CHL1   C27 1255   2.834   0.735   5.453 -0.9229 -0.1535 -0.5274
   17CHL1  H27A 1256   2.814   0.843   5.435 -1.3412 -0.2480 -0.6390
   17CHL1  H27B 1257   2.922   0.712   5.389  0.1213 -2.5403  1.6225
   17CHL1  H27C 1258   2.741   0.682   5.425 -1.1684 -1.4072  2.3204
   18CHL1    C3 1259   2.480   2.516   6.696  0.0587  0.3725  0.1374
   18CHL1    H3 1260   2.406   2.435   6.681 -0.8619  1.3945 -1.0500
   18CHL1    O3 1261   2.545   2.498   6.826 -0.1131  0.2281  0.3279
   18CHL1   H3' 1262   2.600   2.576   6.839 -1.6736  2.0158 -2.6530
   18CHL1    C4 1263   2.579   2.509   6.582  0.3406  0.0323 -0.1577
   18CHL1   H4A 1264   2.660   2.582   6.602  0.3894  0.0321 -0.3483
   18CHL1   H4B 1265   2.615   2.405   6.584 -2.5984 -1.0872 -0.0814
   18CHL1    C5 1266   2.516   2.543   6.453  1.3816 -0.3505  0.5455
   18CHL1    C6 1267   2.520   2.465   6.346  0.4246 -0.0633  0.2831
   18CHL1    H6 1268   2.572   2.368   6.344  1.3787  0.4363 -1.2589
   18CHL1    C7 1269   2.463   2.504   6.210  0.2234  0.0030  0.9234
   18CHL1   H7A 1270   2.522   2.464   6.126 -1.5558  0.7853 -0.7696
   18CHL1   H7B 1271   2.367   2.447   6.206  0.9100 -1.1283 -2.1181
   18CHL1    C8 1272   2.425   2.652   6.194 -0.0607  0.0869 -1.2520
   18CHL1    H8 1273   2.512   2.710   6.157  0.1283 -0.0199 -0.9761
   18CHL1   C14 1274   2.328   2.671   6.079  0.5228  0.7429  0.1828
   18CHL1   H14 1275   2.230   2.628   6.111  0.2339  0.3147 -1.2045
   18CHL1   C15 1276   2.359   2.600   5.947  0.1537 -0.6495 -0.4300
   18CHL1  H15A 1277   2.458   2.613   5.898 -0.0462 -0.7337 -0.8594
   18CHL1  H15B 1278   2.337   2.492   5.962 -1.6482 -0.8002 -3.3525
   18CHL1   C16 1279   2.250   2.662   5.864  0.0649  0.6461 -0.1255
   18CHL1  H16A 1280   2.296   2.665   5.763 -0.6914  0.9899 -0.4601
   18CHL1  H16B 1281   2.162   2.595   5.857 -0.3029  0.9103  1.4517
   18CHL1   C17 1282   2.200   2.798   5.934 -0.5564 -0.5971  1.0104
   18CHL1   H17 1283   2.103   2.770   5.982 -0.6120  0.3945  1.5120
   18CHL1   C13 1284   2.291   2.819   6.054  0.0479 -0.1506  0.0523
   18CHL1   C18 1285   2.418   2.911   6.019 -0.7032  0.1848  0.1543
   18CHL1  H18A 1286   2.485   2.923   6.107 -0.2541  1.5267 -0.3394
   18CHL1  H18B 1287   2.474   2.877   5.929 -1.3228  1.3312 -0.7016
   18CHL1  H18C 1288   2.387   3.014   5.989 -0.8288  0.3195  0.7294
   18CHL1   C12 1289   2.220   2.863   6.185 -0.0345 -1.4333  0.5233
   18CHL1  H12A 1290   2.205   2.972   6.168  1.3157 -1.5002 -1.3050
   18CHL1  H12B 1291   2.119   2.818   6.191 -0.8294 -0.1356 -1.9112
   18CHL1   C11 1292   2.301   2.848   6.311 -0.6108 -0.6673 -0.8089
   18CHL1  H11A 1293   2.382   2.922   6.297 -1.1762 -0.4755 -3.5967
   18CHL1  H11B 1294   2.237   2.873   6.398  0.4711 -1.4226  0.2400
   18CHL1    C9 1295   2.358   2.703   6.324  0.1796 -0.5157  0.1166
   18CHL1    H9 1296   2.264   2.646   6.339 -1.3224  0.3004 -4.6103
   18CHL1   C10 1297   2.444   2.681   6.455 -0.1042  0.5058  0.5868
   18CHL1   C19 1298   2.558   2.788   6.457  0.5771 -0.9163 -0.1894
   18CHL1  H19A 1299   2.613   2.776   6.361 -0.8468 -0.6100 -1.0590
   18CHL1  H19B 1300   2.517   2.891   6.462  0.0626 -1.1406  0.2691
   18CHL1  H19C 1301   2.627   2.778   6.544 -0.8084  0.0370  1.0580
   18CHL1    C1 1302   2.350   2.697   6.585 -0.3896 -0.5710 -0.1002
   18CHL1   H1A 1303   2.318   2.804   6.582 -1.3563 -0.8685 -0.4945
   18CHL1   H1B 1304   2.258   2.638   6.574 -0.9796  0.2142  0.4888
   18CHL1    C2 1305   2.426   2.658   6.713  0.2966 -0.1268 -0.0379
   18CHL1   H2A 1306   2.349   2.654   6.793  0.2929  0.8438  0.0172
   18CHL1   H2B 1307   2.498   2.738   6.743 -2.2831  2.5704 -0.6173
   18CHL1   C20 1308   2.171   2.910   5.831 -0.1287 -0.6636  0.3203
   18CHL1   H20 1309   2.267   2.959   5.803 -0.4856 -0.4558 -0.5708
   18CHL1   C21 1310   2.086   3.006   5.910  0.0651  0.2934 -0.6293
   18CHL1  H21A 1311   2.141   3.060   5.990 -1.3236 -0.0481  0.6179
   18CHL1  H21B 1312   1.991   2.960   5.945 -1.7746  3.0338 -1.6680
   18CHL1  H21C 1313   2.048   3.083   5.839 -1.1137 -0.3575 -0.7413
   18CHL1   C22 1314   2.099   2.858   5.699  0.0121 -0.1905 -0.2361
   18CHL1  H22A 1315   2.157   2.773   5.658  3.2847  0.8714  1.8048
   18CHL1  H22B 1316   1.998   2.832   5.736 -0.4091 -0.4728 -1.5493
   18CHL1   C23 1317   2.090   2.950   5.574 -0.3217 -0.3161  0.0979
   18CHL1  H23A 1318   2.029   3.042   5.589 -1.1491 -0.5749 -1.4563
   18CHL1  H23B 1319   2.191   2.993   5.559  1.0911 -3.1010  0.9709
   18CHL1   C24 1320   2.042   2.883   5.454 -0.5307 -0.4371  0.5614
   18CHL1  H24A 1321   2.085   2.780   5.451  0.8127  0.1023  0.5122
   18CHL1  H24B 1322   1.934   2.861   5.464 -0.6377 -0.0360  0.2945
   18CHL1   C25 1323   2.071   2.955   5.321 -0.1058  0.2110  0.8125
   18CHL1   H25 1324   2.181   2.965   5.306 -0.1528  1.6922  1.3069
   18CHL1   C26 1325   2.007   2.879   5.203  0.5218  0.3998  0.5290
   18CHL1  H26A 1326   1.897   2.892   5.202  0.3674 -0.8083  0.6765
   18CHL1  H26B 1327   2.035   2.916   5.102 -1.3751  1.1765  0.2614
   18CHL1  H26C 1328   2.040   2.775   5.227  1.9705  0.8006  0.3778
   18CHL1   C27 1329   2.023   3.104   5.335 -0.3010  0.0431 -0.1422
   18CHL1  H27A 1330   1.924   3.095   5.386  1.1592 -3.8131  2.4073
   18CHL1  H27B 1331   2.077   3.166   5.409 -1.0872 -0.5825  0.9920
   18CHL1  H27C 1332   2.011   3.152   5.235 -1.1826 -1.2578 -0.6909
   19CHL1    C3 1333   5.790   3.606   6.921 -0.0147  0.8261  0.1160
   19CHL1    H3 1334   5.692   3.641   6.883 -1.5665 -1.7408  1.4878
   19CHL1    O3 1335   5.818   3.632   7.062  0.6736 -0.5331  0.3743
   19CHL1   H3' 1336   5.898   3.583   7.081  0.3829 -0.8575  0.7714
   19CHL1    C4 1337   5.787   3.455   6.893 -0.3349 -0.4821 -0.9203
   19CHL1   H4A 1338   5.876   3.427   6.954  1.6781  1.3777 -2.8343
   19CHL1   H4B 1339   5.700   3.413   6.947 -0.2772  0.8171  0.2537
   19CHL1    C5 1340   5.785   3.417   6.744  0.1331  0.1162  0.7874
   19CHL1    C6 1341   5.689   3.335   6.701  0.0510 -0.9064  0.1752
   19CHL1    H6 1342   5.606   3.309   6.768 -0.5887 -1.5050 -0.8219
   19CHL1    C7 1343   5.680   3.288   6.557  0.1351 -0.0151 -0.1174
   19CHL1   H7A 1344   5.658   3.181   6.541  1.0707 -0.1882 -0.2847
   19CHL1   H7B 1345   5.596   3.345   6.511 -0.2424 -0.6398 -0.2033
   19CHL1    C8 1346   5.800   3.321   6.458 -0.0666 -0.4366 -0.5749
   19CHL1    H8 1347   5.875   3.240   6.473 -1.3822 -1.4532  0.9580
   19CHL1   C14 1348   5.777   3.323   6.306 -0.2803 -0.1518 -0.2177
   19CHL1   H14 1349   5.702   3.403   6.289 -2.5340 -2.0807  0.2036
   19CHL1   C15 1350   5.709   3.198   6.247  0.4238 -0.6812 -0.2429
   19CHL1  H15A 1351   5.755   3.105   6.288  0.3570  0.1915  1.9340
   19CHL1  H15B 1352   5.602   3.209   6.275  0.6520 -1.2395  0.9087
   19CHL1   C16 1353   5.728   3.215   6.099  0.4089  0.2550 -0.1396
   19CHL1  H16A 1354   5.787   3.132   6.055  0.9863  1.6082 -2.0452
   19CHL1  H16B 1355   5.634   3.238   6.045 -2.2441  0.3309  4.0408
   19CHL1   C17 1356   5.827   3.335   6.070 -1.2008 -0.7715  0.6766
   19CHL1   H17 1357   5.766   3.425   6.050  0.2330  0.6533  2.3263
   19CHL1   C13 1358   5.892   3.360   6.217 -0.3013 -0.0319 -0.0670
   19CHL1   C18 1359   6.006   3.248   6.229  0.2684  0.2897  0.0929
   19CHL1  H18A 1360   5.977   3.154   6.179 -0.8175  0.3152  0.6522
   19CHL1  H18B 1361   6.093   3.293   6.175  1.1292 -1.0963  0.2705
   19CHL1  H18C 1362   6.040   3.230   6.333  0.0906  0.6830  0.2212
   19CHL1   C12 1363   5.946   3.497   6.255 -0.1796  0.2339  0.4721
   19CHL1  H12A 1364   6.038   3.515   6.196  0.6723 -0.0995  1.6771
   19CHL1  H12B 1365   5.873   3.579   6.235 -1.4458 -1.1152 -0.6656
   19CHL1   C11 1366   5.977   3.507   6.404  0.5569  0.9231 -0.5476
   19CHL1  H11A 1367   6.063   3.439   6.419  0.6613  0.9417 -1.0425
   19CHL1  H11B 1368   6.007   3.610   6.436  1.2321  0.6831 -0.3998
   19CHL1    C9 1369   5.860   3.464   6.495  0.0323 -0.1258  0.8492
   19CHL1    H9 1370   5.778   3.534   6.472 -1.3262 -1.1716  2.2807
   19CHL1   C10 1371   5.888   3.485   6.649 -0.1799 -1.0962  0.2593
   19CHL1   C19 1372   6.023   3.416   6.682  0.2288  0.0529  0.0254
   19CHL1  H19A 1373   6.112   3.461   6.632  0.1670  0.6471  0.4462
   19CHL1  H19B 1374   6.051   3.415   6.789  0.2501  0.6668  0.0287
   19CHL1  H19C 1375   6.025   3.309   6.651  4.5072 -0.1981  0.5975
   19CHL1    C1 1376   5.884   3.635   6.694 -0.1998  0.2579  0.4393
   19CHL1   H1A 1377   5.960   3.690   6.633 -0.8846 -0.1195 -0.7921
   19CHL1   H1B 1378   5.783   3.672   6.667 -0.8501 -1.6939  0.0781
   19CHL1    C2 1379   5.903   3.661   6.847  0.0057  0.0658 -0.3863
   19CHL1   H2A 1380   5.919   3.768   6.871 -1.0363  0.6510 -2.1595
   19CHL1   H2B 1381   5.996   3.610   6.881 -1.7708 -1.0977  3.2825
   19CHL1   C20 1382   5.922   3.300   5.958  0.5751  0.0808 -0.1161
   19CHL1   H20 1383   5.993   3.218   5.980  1.1401  0.5703 -0.0765
   19CHL1   C21 1384   6.022   3.416   5.938  0.0950  0.4781 -0.7284
   19CHL1  H21A 1385   6.073   3.398   5.841  0.6843 -0.7650 -0.2128
   19CHL1  H21B 1386   6.095   3.410   6.022 -0.4125  0.3413 -0.2917
   19CHL1  H21C 1387   5.957   3.505   5.937 -1.7970 -0.7952 -3.7276
   19CHL1   C22 1388   5.847   3.264   5.823 -0.1147  0.0911 -0.3902
   19CHL1  H22A 1389   5.910   3.259   5.732 -1.6598  0.6326 -1.5318
   19CHL1  H22B 1390   5.789   3.170   5.839 -1.7520  1.0673 -0.3918
   19CHL1   C23 1391   5.736   3.367   5.782  0.1518 -0.7323 -0.4982
   19CHL1  H23A 1392   5.661   3.374   5.864  1.6216 -0.3208  0.8466
   19CHL1  H23B 1393   5.784   3.467   5.772 -0.7565 -0.1266  0.8440
   19CHL1   C24 1394   5.657   3.327   5.655 -0.1050 -0.4360  0.1235
   19CHL1  H24A 1395   5.716   3.346   5.563 -2.1966 -0.7050 -1.3377
   19CHL1  H24B 1396   5.623   3.221   5.654  0.9277 -0.7827  0.1958
   19CHL1   C25 1397   5.523   3.402   5.639 -0.0732 -0.3283 -0.3182
   19CHL1   H25 1398   5.477   3.382   5.738  0.7730 -0.8899 -0.0269
   19CHL1   C26 1399   5.542   3.556   5.624 -0.1163 -0.1627  0.1802
   19CHL1  H26A 1400   5.442   3.600   5.605  0.3859  0.0566 -2.2421
   19CHL1  H26B 1401   5.584   3.597   5.719  0.1519 -1.0256  0.4403
   19CHL1  H26C 1402   5.602   3.579   5.533 -1.3318  0.5095 -0.4728
   19CHL1   C27 1403   5.433   3.350   5.530 -0.6814 -0.1319 -0.4253
   19CHL1  H27A 1404   5.334   3.400   5.531 -0.5800  0.0731 -0.1491
   19CHL1  H27B 1405   5.469   3.364   5.426  1.2647 -1.6689 -0.0168
   19CHL1  H27C 1406   5.414   3.241   5.538  1.2566 -0.4750  0.2174
   20CHL1    C3 1407   4.539   4.651   6.785 -0.6261  0.1751 -0.3388
   20CHL1    H3 1408   4.650   4.643   6.786 -0.4615  0.9898 -3.1401
   20CHL1    O3 1409   4.496   4.654   6.923  0.2195 -0.3764  0.3206
   20CHL1   H3' 1410   4.514   4.745   6.950  0.3528 -0.3172  0.0300
   20CHL1    C4 1411   4.490   4.769   6.707 -0.0898 -0.0849 -0.4091
   20CHL1   H4A 1412   4.380   4.760   6.717  0.2337 -2.2466  2.0939
   20CHL1   H4B 1413   4.525   4.858   6.764  2.1209 -0.2597 -1.3694
   20CHL1    C5 1414   4.535   4.769   6.563 -0.2216 -0.8585 -0.2221
   20CHL1    C6 1415   4.603   4.876   6.518  0.4559 -0.3732 -0.3192
   20CHL1    H6 1416   4.623   4.962   6.583 -0.7888 -0.4798  0.2193
   20CHL1    C7 1417   4.642   4.891   6.373 -0.0380  0.1400 -0.3345
   20CHL1   H7A 1418   4.631   4.997   6.344  1.3800  0.6846  0.9570
   20CHL1   H7B 1419   4.751   4.869   6.368 -0.1561 -0.5477 -0.0089
   20CHL1    C8 1420   4.556   4.787   6.298 -0.1057 -0.5008  0.2131
   20CHL1    H8 1421   4.453   4.824   6.281  0.4062  0.9919  0.1924
   20CHL1   C14 1422   4.608   4.782   6.158  0.6728  0.2254  0.1646
   20CHL1   H14 1423   4.712   4.742   6.156  0.6785  0.2086 -2.6181
   20CHL1   C15 1424   4.625   4.920   6.092  0.4517 -1.1312 -0.5198
   20CHL1  H15A 1425   4.530   4.975   6.110  1.0183 -0.3631  0.2193
   20CHL1  H15B 1426   4.719   4.970   6.122 -0.0712 -0.7043  0.4874
   20CHL1   C16 1427   4.631   4.881   5.945  0.4713 -0.4155 -0.3821
   20CHL1  H16A 1428   4.573   4.948   5.879 -0.9729  0.7630  1.9706
   20CHL1  H16B 1429   4.738   4.896   5.917  0.6221  2.5396  1.4306
   20CHL1   C17 1430   4.602   4.733   5.929 -0.1616  0.4784  0.6202
   20CHL1   H17 1431   4.700   4.681   5.937 -0.0575  0.8708  2.4901
   20CHL1   C13 1432   4.536   4.687   6.061 -0.3040 -0.7149  0.5998
   20CHL1   C18 1433   4.381   4.714   6.048 -0.1129  0.6914 -0.0508
   20CHL1  H18A 1434   4.352   4.820   6.034 -1.8409  0.1298 -0.9760
   20CHL1  H18B 1435   4.344   4.655   5.961 -1.1625  1.1363  0.0804
   20CHL1  H18C 1436   4.332   4.694   6.146  0.6409 -0.1347  0.1739
   20CHL1   C12 1437   4.565   4.551   6.114 -0.5149 -0.4074  0.1987
   20CHL1  H12A 1438   4.520   4.473   6.049 -2.9448 -0.1863  1.5094
   20CHL1  H12B 1439   4.673   4.526   6.110 -0.4123  0.0792 -0.0938
   20CHL1   C11 1440   4.516   4.537   6.258  0.0881 -0.0542  0.3744
   20CHL1  H11A 1441   4.405   4.532   6.248  0.1592  0.9303 -1.1870
   20CHL1  H11B 1442   4.538   4.439   6.307  0.0796  0.6057  1.7341
   20CHL1    C9 1443   4.552   4.647   6.360 -0.1884 -1.2989  0.2960
   20CHL1    H9 1444   4.656   4.613   6.380  0.4007 -0.2347 -0.8163
   20CHL1   C10 1445   4.489   4.643   6.489  0.1483  0.5183 -0.1291
   20CHL1   C19 1446   4.336   4.634   6.477  0.1246  0.2557 -0.1257
   20CHL1  H19A 1447   4.302   4.534   6.442  0.6778 -0.4283  1.1982
   20CHL1  H19B 1448   4.286   4.650   6.575 -2.0569  0.9600 -1.2937
   20CHL1  H19C 1449   4.311   4.725   6.419  2.6890  0.8327 -0.4656
   20CHL1    C1 1450   4.541   4.523   6.576  0.6619 -0.0151 -0.7426
   20CHL1   H1A 1451   4.505   4.429   6.531 -0.0466  0.1452 -0.5302
   20CHL1   H1B 1452   4.651   4.524   6.589  0.4027 -1.1338  2.6334
   20CHL1    C2 1453   4.493   4.522   6.723 -0.4450  0.6787 -0.6891
   20CHL1   H2A 1454   4.536   4.434   6.776  3.3571  1.0294 -2.7767
   20CHL1   H2B 1455   4.384   4.512   6.739 -0.4134 -1.5863 -1.5241
   20CHL1   C20 1456   4.541   4.712   5.788 -0.5417  0.2653 -0.8577
   20CHL1   H20 1457   4.436   4.750   5.788 -0.7855 -0.3757 -0.3442
   20CHL1   C21 1458   4.541   4.562   5.760  0.7738 -0.0823 -0.1870
   20CHL1  H21A 1459   4.483   4.522   5.674 -0.2233  1.9634 -0.5126
   20CHL1  H21B 1460   4.494   4.509   5.846 -1.5412 -1.6855 -2.2985
   20CHL1  H21C 1461   4.644   4.520   5.757  0.8401  0.0525  0.1294
   20CHL1   C22 1462   4.620   4.782   5.674 -0.1428  0.0029 -0.2807
   20CHL1  H22A 1463   4.633   4.888   5.704 -0.2382 -0.7747  2.8305
   20CHL1  H22B 1464   4.723   4.746   5.655  1.5277  4.2478 -0.3370
   20CHL1   C23 1465   4.542   4.795   5.549  0.1047  0.2593  0.2808
   20CHL1  H23A 1466   4.509   4.694   5.514  0.1608  0.1944  0.4165
   20CHL1  H23B 1467   4.450   4.852   5.574 -0.5137 -0.1139 -1.0496
   20CHL1   C24 1468   4.624   4.863   5.434 -0.5389 -0.3907 -0.0721
   20CHL1  H24A 1469   4.564   4.899   5.348 -0.0031  0.4586 -0.1039
   20CHL1  H24B 1470   4.689   4.946   5.470 -0.5315 -0.6317  0.4803
   20CHL1   C25 1471   4.742   4.776   5.377  0.4681 -0.0469 -1.2295
   20CHL1   H25 1472   4.815   4.769   5.460  0.2615  2.5590 -0.7289
   20CHL1   C26 1473   4.703   4.629   5.334  0.0387 -0.5188  0.9513
   20CHL1  H26A 1474   4.601   4.639   5.290  0.9830 -1.5569 -1.6293
   20CHL1  H26B 1475   4.773   4.584   5.261  0.1900  0.0062  0.7661
   20CHL1  H26C 1476   4.691   4.563   5.423  1.2188 -0.1872  1.3745
   20CHL1   C27 1477   4.804   4.854   5.257 -0.7084 -0.0154  0.4959
   20CHL1  H27A 1478   4.832   4.958   5.287 -0.2909 -0.3003  1.1219
   20CHL1  H27B 1479   4.894   4.796   5.227 -0.3792  1.1035 -0.7852
   20CHL1  H27C 1480   4.726   4.867   5.179 -0.1676  2.8410  0.2913
   21CHL1    C3 1481   1.632   5.073   7.294  0.1724 -0.3311  0.6164
   21CHL1    H3 1482   1.597   5.174   7.263  0.4394 -0.5851 -0.5470
   21CHL1    O3 1483   1.609   5.030   7.425 -0.1707 -0.5091 -0.0987
   21CHL1   H3' 1484   1.634   4.938   7.435 -0.9415 -0.7176 -0.0539
   21CHL1    C4 1485   1.578   4.961   7.202  0.3659 -0.4829  0.5170
   21CHL1   H4A 1486   1.615   4.858   7.220  0.7349 -0.4601 -0.0690
   21CHL1   H4B 1487   1.470   4.946   7.222  0.6200 -0.1313  2.3253
   21CHL1    C5 1488   1.601   4.994   7.060  0.3391  0.3686  0.3419
   21CHL1    C6 1489   1.493   5.020   6.981 -0.1654 -0.3043  0.3761
   21CHL1    H6 1490   1.391   5.024   7.021 -0.5502 -1.4980 -0.4249
   21CHL1    C7 1491   1.509   5.057   6.835  0.2876 -0.3538  0.0483
   21CHL1   H7A 1492   1.434   4.989   6.790  1.1399 -1.1789 -0.1388
   21CHL1   H7B 1493   1.477   5.162   6.817  0.7768  0.1278  1.7487
   21CHL1    C8 1494   1.650   5.018   6.787  1.2876  0.1915 -0.0848
   21CHL1    H8 1495   1.656   4.908   6.792  0.3686  0.1716  1.1077
   21CHL1   C14 1496   1.668   5.061   6.641 -0.4416  0.8592  0.1685
   21CHL1   H14 1497   1.663   5.172   6.631 -0.0379  0.8005 -0.8053
   21CHL1   C15 1498   1.562   5.022   6.537  0.4173 -0.1587  0.2419
   21CHL1  H15A 1499   1.525   4.917   6.538 -1.5277  0.4848 -0.2889
   21CHL1  H15B 1500   1.470   5.083   6.550 -0.7271 -1.8649  0.4867
   21CHL1   C16 1501   1.638   5.043   6.404  0.3524  0.4903 -0.7107
   21CHL1  H16A 1502   1.626   4.948   6.348 -1.1697 -1.7666  3.0697
   21CHL1  H16B 1503   1.585   5.116   6.339  0.6622  1.4158  0.0492
   21CHL1   C17 1504   1.785   5.075   6.431 -0.8084  0.1917 -0.4171
   21CHL1   H17 1505   1.794   5.185   6.439 -0.7605  0.0995  1.2066
   21CHL1   C13 1506   1.809   5.030   6.580 -0.8633  0.1772 -0.2322
   21CHL1   C18 1507   1.836   4.881   6.573  0.2435  0.0868 -0.3459
   21CHL1  H18A 1508   1.759   4.831   6.510 -1.2756  1.8106  0.0522
   21CHL1  H18B 1509   1.942   4.863   6.543  0.5049 -1.2342  1.2792
   21CHL1  H18C 1510   1.820   4.839   6.674 -1.2594  2.1166  0.3203
   21CHL1   C12 1511   1.908   5.114   6.667  0.8715  0.3841 -0.0351
   21CHL1  H12A 1512   2.009   5.086   6.630  0.2279  1.0416 -2.5072
   21CHL1  H12B 1513   1.892   5.223   6.658 -0.9687  0.0425 -2.0667
   21CHL1   C11 1514   1.904   5.074   6.814 -0.2265  0.0706 -0.2369
   21CHL1  H11A 1515   1.938   4.968   6.815  0.0181  0.1455  1.0069
   21CHL1  H11B 1516   1.973   5.130   6.881 -0.0513  0.0954 -0.4381
   21CHL1    C9 1517   1.759   5.075   6.879 -1.1855 -0.2776 -0.2387
   21CHL1    H9 1518   1.730   5.180   6.896 -1.5621 -0.2897 -0.7593
   21CHL1   C10 1519   1.755   5.014   7.023 -0.0764 -0.1321 -0.6030
   21CHL1   C19 1520   1.823   4.867   7.019  0.3130 -0.0586  0.7297
   21CHL1  H19A 1521   1.812   4.808   7.112  0.1854 -2.2678 -0.6261
   21CHL1  H19B 1522   1.781   4.810   6.934 -0.1366  2.3694 -0.7700
   21CHL1  H19C 1523   1.933   4.881   7.010  0.3771 -1.2806 -0.6872
   21CHL1    C1 1524   1.823   5.107   7.129 -0.2742 -0.3589 -0.3458
   21CHL1   H1A 1525   1.934   5.104   7.120 -0.0752 -0.9367  1.7299
   21CHL1   H1B 1526   1.787   5.209   7.107 -1.2637 -0.7524 -0.5758
   21CHL1    C2 1527   1.787   5.080   7.273 -0.3156 -0.2962 -0.3395
   21CHL1   H2A 1528   1.830   5.160   7.337  0.6570 -0.9013 -0.2150
   21CHL1   H2B 1529   1.841   4.985   7.297 -0.1122 -0.3722 -1.0712
   21CHL1   C20 1530   1.885   5.032   6.314 -0.1076  0.1621  0.1081
   21CHL1   H20 1531   1.880   4.921   6.314 -0.3621  0.1544 -1.2060
   21CHL1   C21 1532   2.027   5.088   6.348 -0.3671  0.6716  0.8377
   21CHL1  H21A 1533   2.073   5.038   6.437  1.9732  1.6836  0.2674
   21CHL1  H21B 1534   2.012   5.196   6.370  0.3812  1.1352 -0.7979
   21CHL1  H21C 1535   2.103   5.077   6.268  0.6394 -0.5590  1.8917
   21CHL1   C22 1536   1.839   5.066   6.167 -0.7185 -0.5082 -0.5945
   21CHL1  H22A 1537   1.739   5.022   6.150 -1.7709  1.0562  1.2551
   21CHL1  H22B 1538   1.830   5.176   6.154 -2.3782 -0.7121 -1.4268
   21CHL1   C23 1539   1.937   5.012   6.067 -0.2787  0.2568  0.3442
   21CHL1  H23A 1540   2.033   5.065   6.085 -0.4763  0.2121  1.6477
   21CHL1  H23B 1541   1.969   4.910   6.095 -0.5756  0.9793  3.7266
   21CHL1   C24 1542   1.885   5.023   5.923 -0.1225 -0.1512  0.8537
   21CHL1  H24A 1543   1.807   4.946   5.905 -0.8389  0.0241  2.8726
   21CHL1  H24B 1544   1.826   5.116   5.903 -1.0607 -1.0715 -0.8929
   21CHL1   C25 1545   1.993   5.007   5.810  0.0272  0.3313  0.4013
   21CHL1   H25 1546   2.060   5.096   5.820  0.9255 -0.3277  0.3322
   21CHL1   C26 1547   2.079   4.886   5.818 -0.3041  0.0037  0.4763
   21CHL1  H26A 1548   2.150   4.882   5.733  1.1377 -0.6708  1.6634
   21CHL1  H26B 1549   2.129   4.884   5.917  1.3327  1.9058 -0.2620
   21CHL1  H26C 1550   2.022   4.790   5.811  2.3277 -1.6003 -0.6876
   21CHL1   C27 1551   1.932   5.019   5.675  0.1349  0.5737 -0.1157
   21CHL1  H27A 1552   1.860   5.104   5.677  2.9385  3.1487 -0.5877
   21CHL1  H27B 1553   2.017   5.035   5.606  2.2390 -3.8855  1.1003
   21CHL1  H27C 1554   1.882   4.921   5.659 -0.6873  0.8066  0.9588
   22CHL1    C3 1555   4.023   0.897   6.938 -0.1803  0.7234 -0.4027
   22CHL1    H3 1556   4.032   1.008   6.933 -0.6570  0.7051 -2.6783
   22CHL1    O3 1557   4.054   0.858   7.073 -0.3323 -0.5209  0.0849
   22CHL1   H3' 1558   4.013   0.773   7.088  0.7497 -0.9214  0.9174
   22CHL1    C4 1559   3.876   0.856   6.900  0.4507 -0.3491 -0.3587
   22CHL1   H4A 1560   3.878   0.746   6.918  0.5635 -0.0822  1.4244
   22CHL1   H4B 1561   3.803   0.900   6.971 -0.1552 -1.3252 -0.3617
   22CHL1    C5 1562   3.849   0.897   6.757 -0.0393  0.1634 -0.0630
   22CHL1    C6 1563   3.742   0.978   6.732  0.3583 -0.0160 -0.0937
   22CHL1    H6 1564   3.677   1.013   6.814  0.6308  0.4320 -0.0682
   22CHL1    C7 1565   3.702   1.023   6.596 -0.1290 -0.1379  0.8155
   22CHL1   H7A 1566   3.594   0.999   6.586 -0.6497  1.2804  2.5339
   22CHL1   H7B 1567   3.720   1.132   6.588  0.9607 -0.4277 -1.4534
   22CHL1    C8 1568   3.783   0.945   6.485 -0.5819  0.1208  0.3433
   22CHL1    H8 1569   3.736   0.844   6.485 -1.6651  0.5906  1.5108
   22CHL1   C14 1570   3.779   1.021   6.346  0.2771  0.1976 -0.4760
   22CHL1   H14 1571   3.826   1.121   6.362  1.4057 -0.3948 -0.0025
   22CHL1   C15 1572   3.646   1.060   6.302  0.2913 -0.0577 -0.0521
   22CHL1  H15A 1573   3.581   0.970   6.313  3.4224 -2.2709  2.0667
   22CHL1  H15B 1574   3.601   1.147   6.354  1.9627  0.9308 -0.1656
   22CHL1   C16 1575   3.669   1.096   6.152 -0.1321 -0.4785 -0.0560
   22CHL1  H16A 1576   3.610   1.031   6.084  1.4100 -0.7597 -1.1787
   22CHL1  H16B 1577   3.635   1.200   6.129 -1.0813 -0.9117 -0.6988
   22CHL1   C17 1578   3.819   1.064   6.118 -0.0986 -0.4216 -0.2912
   22CHL1   H17 1579   3.870   1.162   6.134 -2.1578  0.6728 -0.0468
   22CHL1   C13 1580   3.854   0.964   6.233 -0.1661  0.4625 -1.1108
   22CHL1   C18 1581   3.795   0.826   6.194 -0.5910 -0.5312 -1.2905
   22CHL1  H18A 1582   3.788   0.764   6.286 -0.4296  0.8346 -0.3327
   22CHL1  H18B 1583   3.696   0.828   6.143 -1.1765  0.8791 -0.1414
   22CHL1  H18C 1584   3.869   0.779   6.125  0.7918  0.6832 -0.6956
   22CHL1   C12 1585   3.998   0.944   6.270 -0.6620  0.1751 -0.2727
   22CHL1  H12A 1586   4.051   0.890   6.189 -0.3458 -0.4902  0.3624
   22CHL1  H12B 1587   4.040   1.046   6.285  1.7055 -0.5971 -1.2684
   22CHL1   C11 1588   4.010   0.867   6.402  0.9855 -0.1459  1.3814
   22CHL1  H11A 1589   3.975   0.766   6.374  2.8250  0.1087 -2.5097
   22CHL1  H11B 1590   4.116   0.852   6.431  0.6953  1.2163  3.3741
   22CHL1    C9 1591   3.931   0.926   6.523 -0.1669 -0.1103  0.2378
   22CHL1    H9 1592   3.980   1.025   6.527  0.0441 -0.2305  0.7188
   22CHL1   C10 1593   3.951   0.851   6.658  0.2062 -0.0311 -0.1334
   22CHL1   C19 1594   3.932   0.698   6.625  0.6484 -0.3130 -0.8101
   22CHL1  H19A 1595   4.018   0.662   6.565  0.6056 -3.5953  0.8889
   22CHL1  H19B 1596   3.913   0.648   6.722  2.7527 -0.3339 -0.3751
   22CHL1  H19C 1597   3.839   0.687   6.565  1.2254  0.3413 -1.8565
   22CHL1    C1 1598   4.095   0.880   6.703  0.9604 -0.0589  0.4956
   22CHL1   H1A 1599   4.186   0.850   6.647  0.4030 -1.2303  0.1665
   22CHL1   H1B 1600   4.097   0.990   6.715 -2.0178 -0.0392  1.8784
   22CHL1    C2 1601   4.122   0.832   6.844 -0.3078  0.2110 -0.2311
   22CHL1   H2A 1602   4.224   0.860   6.880 -0.0963  2.2738 -2.2326
   22CHL1   H2B 1603   4.133   0.722   6.849  3.6769  0.3058 -2.5485
   22CHL1   C20 1604   3.846   1.017   5.976  0.2473  0.4007 -0.3387
   22CHL1   H20 1605   3.840   0.908   5.959 -3.3395  0.3478  0.6596
   22CHL1   C21 1606   3.990   1.065   5.935  0.6957  0.3697 -0.2859
   22CHL1  H21A 1607   3.987   1.175   5.919 -1.5013  0.0681 -2.3987
   22CHL1  H21B 1608   4.029   1.023   5.840  2.5007  1.2610  0.0126
   22CHL1  H21C 1609   4.058   1.046   6.021  0.3291  0.9573  0.1458
   22CHL1   C22 1610   3.754   1.072   5.867  0.1762  0.0709  0.4455
   22CHL1  H22A 1611   3.652   1.029   5.879 -0.2059  0.8994  0.2125
   22CHL1  H22B 1612   3.752   1.180   5.891 -0.5012 -0.4690  3.1087
   22CHL1   C23 1613   3.796   1.043   5.719 -0.4968 -0.5266 -0.1995
   22CHL1  H23A 1614   3.874   1.117   5.691 -0.0451 -1.2373 -0.8553
   22CHL1  H23B 1615   3.842   0.943   5.707  0.7424  0.0600 -0.5188
   22CHL1   C24 1616   3.690   1.070   5.618  0.3287  0.7342 -0.1423
   22CHL1  H24A 1617   3.603   1.011   5.655  2.4520 -1.5589  1.5549
   22CHL1  H24B 1618   3.674   1.179   5.630 -0.9633  0.5721 -0.3099
   22CHL1   C25 1619   3.733   1.028   5.481  0.6877 -1.2234  0.1254
   22CHL1   H25 1620   3.837   1.059   5.458 -0.0201  2.1064  0.8941
   22CHL1   C26 1621   3.732   0.872   5.469  0.4443 -0.2925  0.2527
   22CHL1  H26A 1622   3.744   0.840   5.363  1.4302 -2.1237  0.8668
   22CHL1  H26B 1623   3.825   0.830   5.515  1.7315  0.1331 -1.8322
   22CHL1  H26C 1624   3.643   0.849   5.531  0.5030  2.9163  1.7288
   22CHL1   C27 1625   3.642   1.097   5.381  0.0613 -0.5051  0.6052
   22CHL1  H27A 1626   3.638   1.207   5.398  0.7517 -0.2924 -0.4531
   22CHL1  H27B 1627   3.682   1.073   5.280 -0.3274 -1.0924  0.5877
   22CHL1  H27C 1628   3.541   1.053   5.393 -0.5774  1.4431  3.3444
   23CHL1    C3 1629   2.196   5.332   7.108  0.0315 -0.1838  0.2749
   23CHL1    H3 1630   2.101   5.281   7.082  0.0330  0.1358 -0.3656
   23CHL1    O3 1631   2.194   5.359   7.253 -0.0001 -0.2473  0.2685
   23CHL1   H3' 1632   2.256   5.432   7.258 -0.3333  0.0339  0.3136
   23CHL1    C4 1633   2.304   5.231   7.071 -0.6403 -0.0582  0.0560
   23CHL1   H4A 1634   2.398   5.277   7.108 -1.6484  1.4367  0.8738
   23CHL1   H4B 1635   2.301   5.130   7.118  0.7391 -0.2112 -0.1348
   23CHL1    C5 1636   2.316   5.218   6.917 -0.4230  0.4386 -0.9494
   23CHL1    C6 1637   2.307   5.097   6.854  0.1305 -0.0410 -0.0288
   23CHL1    H6 1638   2.280   5.005   6.908 -0.8077  0.1147 -0.2153
   23CHL1    C7 1639   2.318   5.073   6.707  0.8885  0.4827  0.5538
   23CHL1   H7A 1640   2.380   4.985   6.679 -0.7853 -0.4079 -0.5261
   23CHL1   H7B 1641   2.221   5.056   6.655  1.4977  0.6704 -0.6878
   23CHL1    C8 1642   2.377   5.197   6.636  0.3616 -0.0601 -0.1245
   23CHL1    H8 1643   2.482   5.211   6.668  0.8307 -0.3802 -1.4597
   23CHL1   C14 1644   2.369   5.181   6.487 -0.7387 -0.3493  0.9523
   23CHL1   H14 1645   2.262   5.157   6.468 -0.8173  1.1227 -0.8142
   23CHL1   C15 1646   2.445   5.061   6.416  0.6101  0.3455  0.1617
   23CHL1  H15A 1647   2.553   5.051   6.440  0.4193 -0.5200  0.6855
   23CHL1  H15B 1648   2.388   4.971   6.446  0.9224  0.4759  1.1959
   23CHL1   C16 1649   2.413   5.090   6.271 -0.4661  0.4553  0.2543
   23CHL1  H16A 1650   2.496   5.078   6.198 -1.4966  1.8771 -1.2276
   23CHL1  H16B 1651   2.338   5.016   6.234  1.4227 -2.3233  1.5975
   23CHL1   C17 1652   2.373   5.244   6.263  0.1452  0.1928  0.1037
   23CHL1   H17 1653   2.263   5.254   6.257 -0.0803 -1.8289  0.1001
   23CHL1   C13 1654   2.407   5.300   6.403 -0.1113 -0.0802  0.6202
   23CHL1   C18 1655   2.558   5.330   6.415  0.1043 -0.7822  0.6416
   23CHL1  H18A 1656   2.590   5.338   6.522  2.4735  0.6131 -0.0938
   23CHL1  H18B 1657   2.615   5.256   6.355  0.2746 -0.7223  0.7274
   23CHL1  H18C 1658   2.574   5.429   6.368 -0.4157 -0.8755  0.2587
   23CHL1   C12 1659   2.330   5.426   6.452 -0.4321 -0.0648 -0.4623
   23CHL1  H12A 1660   2.348   5.517   6.392 -3.5017 -0.4565 -2.1765
   23CHL1  H12B 1661   2.227   5.396   6.424 -0.3780 -0.7445  0.0110
   23CHL1   C11 1662   2.347   5.455   6.597 -0.7364  0.1660 -0.1243
   23CHL1  H11A 1663   2.456   5.477   6.609 -0.9401  0.8360  0.6112
   23CHL1  H11B 1664   2.301   5.554   6.620  0.0817  0.3150  0.9992
   23CHL1    C9 1665   2.306   5.330   6.683 -1.0049  0.4889 -0.6731
   23CHL1    H9 1666   2.198   5.314   6.663 -1.0061 -2.0529  1.0148
   23CHL1   C10 1667   2.327   5.350   6.837  0.6539  0.6482  0.0207
   23CHL1   C19 1668   2.466   5.413   6.858  0.8337 -0.2227  0.0835
   23CHL1  H19A 1669   2.538   5.357   6.796  2.2413 -0.8818  2.1868
   23CHL1  H19B 1670   2.488   5.521   6.841  1.0665 -0.0026  1.6147
   23CHL1  H19C 1671   2.496   5.405   6.965 -1.0751 -0.3058  0.6511
   23CHL1    C1 1672   2.218   5.449   6.887 -0.0205  0.7492 -0.1833
   23CHL1   H1A 1673   2.221   5.546   6.834 -0.7035  0.6631 -0.3923
   23CHL1   H1B 1674   2.118   5.406   6.861 -0.1948  1.7398 -1.2152
   23CHL1    C2 1675   2.210   5.468   7.040  0.7714  1.2277  0.0819
   23CHL1   H2A 1676   2.114   5.525   7.047 -0.0379  0.0720 -1.1152
   23CHL1   H2B 1677   2.298   5.524   7.077  1.6197 -0.6904  1.0925
   23CHL1   C20 1678   2.417   5.309   6.131 -0.1970 -0.9290 -0.6618
   23CHL1   H20 1679   2.527   5.324   6.136 -0.5876  2.3001  0.2311
   23CHL1   C21 1680   2.366   5.453   6.121  0.1339 -0.8309 -0.4470
   23CHL1  H21A 1681   2.380   5.501   6.022 -1.7215  0.6423 -0.0463
   23CHL1  H21B 1682   2.415   5.522   6.193 -0.5650 -0.0218 -0.7307
   23CHL1  H21C 1683   2.256   5.459   6.136  0.0591 -1.7257 -0.5644
   23CHL1   C22 1684   2.382   5.222   6.006 -0.5917 -0.7063  0.2048
   23CHL1  H22A 1685   2.453   5.137   5.998 -0.6372 -0.7176 -0.0545
   23CHL1  H22B 1686   2.278   5.185   6.018 -0.3956 -0.7101  2.2394
   23CHL1   C23 1687   2.404   5.292   5.876  0.1570 -0.9694  0.8790
   23CHL1  H23A 1688   2.338   5.381   5.865 -0.6683 -1.8114 -1.7554
   23CHL1  H23B 1689   2.513   5.314   5.883  0.3896 -2.4731  2.6001
   23CHL1   C24 1690   2.391   5.208   5.747  0.4076  0.0973 -0.5415
   23CHL1  H24A 1691   2.443   5.110   5.753 -1.6638 -0.9936  1.3971
   23CHL1  H24B 1692   2.287   5.171   5.730  0.1670  0.6557 -0.3301
   23CHL1   C25 1693   2.439   5.278   5.615 -0.0797  0.1599  0.6225
   23CHL1   H25 1694   2.530   5.342   5.624 -0.1106  0.4584 -0.9275
   23CHL1   C26 1695   2.485   5.168   5.523  0.5211  0.4805 -0.0996
   23CHL1  H26A 1696   2.555   5.093   5.565 -0.7834 -0.2411  0.8665
   23CHL1  H26B 1697   2.392   5.123   5.482  0.6836  2.4949 -3.0545
   23CHL1  H26C 1698   2.532   5.203   5.428 -0.3479 -0.4057 -0.8840
   23CHL1   C27 1699   2.331   5.347   5.539 -0.2880 -0.8632  0.0256
   23CHL1  H27A 1700   2.299   5.435   5.598  1.8818 -1.1247  1.7085
   23CHL1  H27B 1701   2.373   5.393   5.446  3.8102 -0.6285  1.8002
   23CHL1  H27C 1702   2.238   5.289   5.521 -1.3545  0.7361  0.1291
   24CHL1    C3 1703   5.893   2.935   6.903  0.1975  1.2453 -0.1370
   24CHL1    H3 1704   5.784   2.956   6.897  0.2478  1.2679 -1.2595
   24CHL1    O3 1705   5.939   2.952   7.036 -0.2575  0.5873  0.0993
   24CHL1   H3' 1706   6.033   2.932   7.039  0.2197  2.7783  1.2417
   24CHL1    C4 1707   5.932   2.791   6.873  0.1621 -0.6579 -0.0653
   24CHL1   H4A 1708   6.040   2.780   6.896 -0.5427  0.7079  5.4826
   24CHL1   H4B 1709   5.871   2.723   6.937 -1.1038 -1.1407 -1.7116
   24CHL1    C5 1710   5.920   2.757   6.723 -0.0400 -0.0200  0.2267
   24CHL1    C6 1711   5.848   2.648   6.687  0.4643  0.4862 -0.5183
   24CHL1    H6 1712   5.797   2.586   6.762 -1.4136  0.5019 -1.6917
   24CHL1    C7 1713   5.823   2.613   6.543 -0.2057  0.0140 -0.1742
   24CHL1   H7A 1714   5.816   2.505   6.521  1.3840  0.3258 -2.5636
   24CHL1   H7B 1715   5.724   2.663   6.533 -0.8981 -0.8554  1.8189
   24CHL1    C8 1716   5.920   2.679   6.446 -0.9701  0.4673 -0.1028
   24CHL1    H8 1717   6.012   2.619   6.463 -2.1821 -1.1993  0.9287
   24CHL1   C14 1718   5.866   2.672   6.300 -0.3935  0.1864 -0.0618
   24CHL1   H14 1719   5.772   2.732   6.308 -0.2665  0.4539 -0.5560
   24CHL1   C15 1720   5.833   2.532   6.261 -0.3086  0.6984 -0.0987
   24CHL1  H15A 1721   5.907   2.462   6.306  1.1032  0.7253 -2.2237
   24CHL1  H15B 1722   5.735   2.492   6.295  0.8179 -2.2771 -0.0113
   24CHL1   C16 1723   5.830   2.546   6.105 -0.0088 -0.0211  0.0155
   24CHL1  H16A 1724   5.898   2.472   6.057 -0.0011 -2.0502  2.9253
   24CHL1  H16B 1725   5.736   2.519   6.053  0.0080  1.0729 -0.6076
   24CHL1   C17 1726   5.873   2.695   6.072  0.1793  1.4526  0.2477
   24CHL1   H17 1727   5.778   2.754   6.076 -0.9685 -0.3625  1.6563
   24CHL1   C13 1728   5.952   2.733   6.194  0.0228 -0.0521  0.4948
   24CHL1   C18 1729   6.097   2.670   6.181  0.3332 -0.3641 -0.7059
   24CHL1  H18A 1730   6.160   2.677   6.272 -0.5208  0.9187 -0.1768
   24CHL1  H18B 1731   6.083   2.562   6.161 -0.4298 -0.3133 -0.4623
   24CHL1  H18C 1732   6.157   2.721   6.102 -0.1859  1.2544 -0.1136
   24CHL1   C12 1733   5.965   2.879   6.225 -0.6810 -0.6428  0.3584
   24CHL1  H12A 1734   6.039   2.925   6.156 -2.3631  1.7540  0.0328
   24CHL1  H12B 1735   5.868   2.929   6.206 -0.4177  0.1601  1.0857
   24CHL1   C11 1736   6.026   2.902   6.363  0.0806 -0.8728 -0.2317
   24CHL1  H11A 1737   6.133   2.871   6.366  0.4059  0.1394 -0.6067
   24CHL1  H11B 1738   6.017   3.011   6.386  2.0534 -0.7616  0.2395
   24CHL1    C9 1739   5.944   2.831   6.479  0.2560 -0.6539  0.5833
   24CHL1    H9 1740   5.840   2.870   6.482  0.1119 -1.0716  1.8864
   24CHL1   C10 1741   5.985   2.852   6.621  0.6957 -0.4944 -0.8395
   24CHL1   C19 1742   6.138   2.826   6.627  0.1136  0.6625  0.4017
   24CHL1  H19A 1743   6.183   2.834   6.728  1.5427 -0.4111 -0.1067
   24CHL1  H19B 1744   6.155   2.726   6.581  1.0511  0.9019  0.1993
   24CHL1  H19C 1745   6.183   2.909   6.569 -0.4711  0.8085  0.1499
   24CHL1    C1 1746   5.951   3.002   6.660 -0.1888  0.1656  0.4875
   24CHL1   H1A 1747   6.017   3.069   6.601  0.6756 -1.0660  0.0107
   24CHL1   H1B 1748   5.844   3.011   6.633  0.2052 -1.3917 -1.8565
   24CHL1    C2 1749   5.969   3.027   6.811  0.2677  0.2894  0.4464
   24CHL1   H2A 1750   5.943   3.132   6.833 -0.5099  0.4546 -1.1685
   24CHL1   H2B 1751   6.077   3.023   6.837  0.2234 -1.3161  0.5191
   24CHL1   C20 1752   5.927   2.713   5.927  0.1722  0.2647 -0.9455
   24CHL1   H20 1753   6.028   2.670   5.913  0.6585  1.1990 -0.4654
   24CHL1   C21 1754   5.941   2.868   5.909  0.4586  0.1771  0.9294
   24CHL1  H21A 1755   6.046   2.884   5.941  1.3544 -3.2935  0.1846
   24CHL1  H21B 1756   5.874   2.936   5.965  0.1273  0.6897 -0.0638
   24CHL1  H21C 1757   5.921   2.892   5.802  2.2654 -0.9741  0.2781
   24CHL1   C22 1758   5.837   2.655   5.815  0.0289  0.3890 -0.2226
   24CHL1  H22A 1759   5.798   2.555   5.846  1.8751  0.2107  1.8263
   24CHL1  H22B 1760   5.743   2.714   5.803  0.4042  0.7598 -1.4573
   24CHL1   C23 1761   5.914   2.625   5.690  0.2633  0.0584  0.5648
   24CHL1  H23A 1762   5.951   2.722   5.651  0.7366  0.0536  0.9940
   24CHL1  H23B 1763   5.999   2.571   5.737  0.3690  0.1151  0.4413
   24CHL1   C24 1764   5.843   2.536   5.583  0.6334 -0.2630  0.3616
   24CHL1  H24A 1765   5.917   2.498   5.510  0.4163  2.1381 -1.2288
   24CHL1  H24B 1766   5.793   2.454   5.639 -0.4144 -0.9492 -1.4810
   24CHL1   C25 1767   5.729   2.597   5.490  0.9442 -0.4551 -0.0732
   24CHL1   H25 1768   5.680   2.669   5.558 -0.3196 -0.4297 -0.9875
   24CHL1   C26 1769   5.791   2.671   5.371  0.4755 -0.7408 -0.7196
   24CHL1  H26A 1770   5.887   2.719   5.398 -0.8319  0.2474  2.6276
   24CHL1  H26B 1771   5.813   2.597   5.290  0.7213 -1.4521 -0.0212
   24CHL1  H26C 1772   5.726   2.754   5.336  0.7425  0.6518  1.8057
   24CHL1   C27 1773   5.630   2.484   5.447 -0.2625 -0.5589  0.2023
   24CHL1  H27A 1774   5.602   2.410   5.526 -0.4939 -2.7364 -1.8107
   24CHL1  H27B 1775   5.537   2.523   5.401  1.1909  0.3312 -2.1995
   24CHL1  H27C 1776   5.680   2.422   5.369  0.2110  0.7468 -0.5570
   25CHL1    C3 1777   1.783   3.044   6.787  0.0068  0.1706 -0.2335
   25CHL1    H3 1778   1.871   3.089   6.737  0.9679 -1.3143  0.0696
   25CHL1    O3 1779   1.768   3.074   6.927  0.0785 -0.2625 -0.0062
   25CHL1   H3' 1780   1.818   3.010   6.979 -1.6241 -1.0212  0.7629
   25CHL1    C4 1781   1.649   3.100   6.731 -0.1300 -0.5909  0.0687
   25CHL1   H4A 1782   1.560   3.054   6.779  0.3798 -0.7829  0.8495
   25CHL1   H4B 1783   1.656   3.208   6.759  1.4152 -0.9957  1.3763
   25CHL1    C5 1784   1.648   3.081   6.580  0.2161 -0.4267 -0.2973
   25CHL1    C6 1785   1.634   3.184   6.496  0.1854 -0.2865  0.0697
   25CHL1    H6 1786   1.621   3.287   6.533  1.2799 -0.5208  1.1863
   25CHL1    C7 1787   1.625   3.168   6.350 -0.1347  0.8425  0.0866
   25CHL1   H7A 1788   1.552   3.241   6.308 -1.2035  1.0567  2.1893
   25CHL1   H7B 1789   1.727   3.185   6.309  0.5806 -2.6663  0.0450
   25CHL1    C8 1790   1.597   3.023   6.295  0.2863 -0.1496  0.4134
   25CHL1    H8 1791   1.488   3.008   6.300  0.1164  1.1701  1.3715
   25CHL1   C14 1792   1.637   3.009   6.147 -0.1189  0.3581 -0.5020
   25CHL1   H14 1793   1.748   3.018   6.147 -0.2104  1.6957 -1.6814
   25CHL1   C15 1794   1.585   3.112   6.056 -0.8925  0.8228 -0.7535
   25CHL1  H15A 1795   1.474   3.106   6.063 -0.7473 -1.9962  0.8691
   25CHL1  H15B 1796   1.632   3.210   6.073  1.0365 -0.1087 -0.4920
   25CHL1   C16 1797   1.609   3.049   5.920 -0.5476 -0.4919 -0.0750
   25CHL1  H16A 1798   1.515   3.046   5.862  0.2587  0.2630 -1.4871
   25CHL1  H16B 1799   1.697   3.095   5.869  0.8946 -3.2529 -0.2788
   25CHL1   C17 1800   1.655   2.897   5.940  0.0531 -0.4720 -0.1815
   25CHL1   H17 1801   1.766   2.904   5.938  0.0483  0.6251  1.4235
   25CHL1   C13 1802   1.620   2.870   6.089  0.4498 -0.0224  0.2666
   25CHL1   C18 1803   1.468   2.829   6.100  0.1876 -0.6286  0.8156
   25CHL1  H18A 1804   1.406   2.909   6.055  2.1303  0.5831  0.1786
   25CHL1  H18B 1805   1.459   2.737   6.038  1.4796 -0.2209 -0.0203
   25CHL1  H18C 1806   1.429   2.805   6.201  1.3767 -1.4415  1.1067
   25CHL1   C12 1807   1.708   2.778   6.174 -0.0519  0.1716 -0.2552
   25CHL1  H12A 1808   1.691   2.672   6.147  0.9466 -0.6638  2.1573
   25CHL1  H12B 1809   1.814   2.789   6.143  0.3942 -0.4698  0.9812
   25CHL1   C11 1810   1.678   2.779   6.321 -0.0627  0.9694  0.3414
   25CHL1  H11A 1811   1.578   2.734   6.340 -0.1830 -0.0273 -2.3026
   25CHL1  H11B 1812   1.756   2.714   6.367 -0.8304  0.1301  0.4913
   25CHL1    C9 1813   1.686   2.925   6.372 -0.4868 -0.8774  0.3777
   25CHL1    H9 1814   1.789   2.963   6.354 -1.1173  0.1937 -1.2176
   25CHL1   C10 1815   1.668   2.931   6.529  0.3144 -0.2408  0.0239
   25CHL1   C19 1816   1.531   2.857   6.548  0.1559  0.3487  0.5207
   25CHL1  H19A 1817   1.470   2.875   6.456  2.4214  0.6426 -1.0199
   25CHL1  H19B 1818   1.544   2.747   6.554 -0.2433  0.3600  1.7688
   25CHL1  H19C 1819   1.470   2.896   6.632 -2.1566  2.5448 -1.9549
   25CHL1    C1 1820   1.787   2.861   6.609  0.3777  0.1367 -0.0378
   25CHL1   H1A 1821   1.776   2.751   6.608 -0.1499  0.1300  2.3415
   25CHL1   H1B 1822   1.883   2.888   6.559  0.9303  0.9239  1.4115
   25CHL1    C2 1823   1.793   2.894   6.758 -0.2013 -0.0143 -0.7808
   25CHL1   H2A 1824   1.892   2.865   6.801  1.0191  1.1474 -2.6406
   25CHL1   H2B 1825   1.709   2.853   6.818  2.3807 -0.0902  3.1661
   25CHL1   C20 1826   1.607   2.805   5.834  0.0423 -0.3800  0.9871
   25CHL1   H20 1827   1.497   2.795   5.839 -0.2362 -0.5423 -2.5588
   25CHL1   C21 1828   1.674   2.671   5.852 -0.1001 -0.4457 -0.0037
   25CHL1  H21A 1829   1.633   2.595   5.782 -1.5782  0.4533 -0.1422
   25CHL1  H21B 1830   1.647   2.636   5.953  0.5967  1.1798  0.7772
   25CHL1  H21C 1831   1.785   2.673   5.856 -0.0751  0.5040 -0.8332
   25CHL1   C22 1832   1.651   2.850   5.691  0.6800  0.0078  0.3254
   25CHL1  H22A 1833   1.641   2.960   5.680 -0.3489  0.0157  1.1736
   25CHL1  H22B 1834   1.759   2.826   5.681  0.3846 -1.2746 -0.0342
   25CHL1   C23 1835   1.575   2.773   5.577 -0.3014 -0.4055  0.9124
   25CHL1  H23A 1836   1.613   2.668   5.574  3.0746  0.5169  4.0112
   25CHL1  H23B 1837   1.467   2.777   5.603 -0.2489  2.6820  0.9601
   25CHL1   C24 1838   1.596   2.835   5.439 -0.0713 -0.6065 -0.3020
   25CHL1  H24A 1839   1.527   2.921   5.425  0.5744 -0.3469 -2.0201
   25CHL1  H24B 1840   1.696   2.882   5.432  0.0803 -1.2307 -3.4762
   25CHL1   C25 1841   1.567   2.748   5.316 -0.3679  0.2549 -0.3925
   25CHL1   H25 1842   1.584   2.814   5.228  0.1310  1.6517  0.7137
   25CHL1   C26 1843   1.663   2.625   5.315 -0.5605  0.4152 -0.3703
   25CHL1  H26A 1844   1.762   2.660   5.280 -0.6141  1.1272  0.1738
   25CHL1  H26B 1845   1.671   2.547   5.394  2.7641 -0.3037 -1.2811
   25CHL1  H26C 1846   1.638   2.555   5.232  1.0299 -0.9687  0.2604
   25CHL1   C27 1847   1.429   2.702   5.320 -0.3307  0.2483  0.0015
   25CHL1  H27A 1848   1.410   2.643   5.228  0.0443  1.5458 -0.9426
   25CHL1  H27B 1849   1.400   2.658   5.418  0.7004 -0.2396  0.0990
   25CHL1  H27C 1850   1.357   2.785   5.306  1.1553  1.8628  1.4508
   26CHL1    C3 1851   2.878   3.002   6.695  1.6279 -0.2694  0.3074
   26CHL1    H3 1852   2.868   2.925   6.616  1.0048  0.1935 -0.0752
   26CHL1    O3 1853   2.929   2.940   6.812 -0.2495  0.6065 -0.2537
   26CHL1   H3' 1854   2.901   2.984   6.892  1.5908  1.3346  0.0440
   26CHL1    C4 1855   2.980   3.105   6.640 -0.0744 -0.3037  0.4268
   26CHL1   H4A 1856   2.991   3.179   6.723  2.4791 -0.2613  0.1320
   26CHL1   H4B 1857   3.083   3.063   6.636  1.4964  2.9938  1.7688
   26CHL1    C5 1858   2.934   3.162   6.507 -0.2755 -0.2528 -0.3892
   26CHL1    C6 1859   3.003   3.126   6.399 -0.1883  0.5894 -0.4815
   26CHL1    H6 1860   3.087   3.059   6.423 -1.8922 -1.2601  0.5982
   26CHL1    C7 1861   2.971   3.164   6.256  0.7617 -0.2847  0.5278
   26CHL1   H7A 1862   3.057   3.215   6.208 -0.3354 -0.3703 -1.6283
   26CHL1   H7B 1863   2.955   3.069   6.201  0.4921 -0.5141  0.9967
   26CHL1    C8 1864   2.855   3.261   6.248  0.1625  0.3284 -0.0053
   26CHL1    H8 1865   2.890   3.365   6.265 -1.3956  0.8474  0.1811
   26CHL1   C14 1866   2.789   3.244   6.109  0.0491  0.4664  0.7368
   26CHL1   H14 1867   2.774   3.134   6.104  2.3342  0.1302  0.5007
   26CHL1   C15 1868   2.873   3.278   5.984 -0.6387  0.2721 -0.9703
   26CHL1  H15A 1869   2.916   3.377   6.008 -0.0700 -0.6857  2.5114
   26CHL1  H15B 1870   2.944   3.197   5.956 -1.9443 -0.8626 -1.1769
   26CHL1   C16 1871   2.768   3.287   5.870 -0.0059  0.3002  1.3227
   26CHL1  H16A 1872   2.799   3.383   5.822  3.2168 -1.2233  0.0494
   26CHL1  H16B 1873   2.795   3.212   5.792  0.2929  1.2409  0.4980
   26CHL1   C17 1874   2.634   3.287   5.939  0.4247  1.0214 -0.2399
   26CHL1   H17 1875   2.615   3.179   5.955 -0.3618  1.5146  2.9563
   26CHL1   C13 1876   2.658   3.323   6.088 -0.5063 -0.1004 -0.0733
   26CHL1   C18 1877   2.686   3.470   6.102  0.4898 -0.6217 -0.3660
   26CHL1  H18A 1878   2.584   3.514   6.104 -0.7546 -3.3182  0.4055
   26CHL1  H18B 1879   2.737   3.490   6.199 -1.9743  2.5263  0.4436
   26CHL1  H18C 1880   2.749   3.508   6.020  2.3641 -3.8130 -0.5913
   26CHL1   C12 1881   2.559   3.280   6.192  0.2440  0.4644 -0.1243
   26CHL1  H12A 1882   2.463   3.334   6.179  1.5887  2.7769 -1.0897
   26CHL1  H12B 1883   2.538   3.172   6.178  0.9685  0.1133  1.3216
   26CHL1   C11 1884   2.609   3.302   6.333 -0.2565  0.6233 -0.0315
   26CHL1  H11A 1885   2.621   3.407   6.368 -0.7664  0.0787  1.8849
   26CHL1  H11B 1886   2.537   3.269   6.410 -0.1794 -1.1473 -0.6811
   26CHL1    C9 1887   2.749   3.230   6.352 -0.0030 -0.7388  0.0470
   26CHL1    H9 1888   2.727   3.123   6.330 -1.2251 -0.8673  1.7224
   26CHL1   C10 1889   2.803   3.233   6.499 -0.1612  0.4525  0.2096
   26CHL1   C19 1890   2.806   3.377   6.549  0.3004 -0.2318  0.4966
   26CHL1  H19A 1891   2.838   3.371   6.655 -0.9166 -1.8372  0.8221
   26CHL1  H19B 1892   2.897   3.426   6.510  0.2061  1.3168  2.1216
   26CHL1  H19C 1893   2.716   3.441   6.536 -1.7243 -3.2375 -1.9362
   26CHL1    C1 1894   2.701   3.148   6.589 -0.5084  0.5090 -0.1699
   26CHL1   H1A 1895   2.608   3.208   6.605  0.3059  2.3525 -1.9429
   26CHL1   H1B 1896   2.668   3.065   6.523  1.8360  0.1578 -0.9791
   26CHL1    C2 1897   2.749   3.080   6.721 -1.0554  0.1203 -0.1469
   26CHL1   H2A 1898   2.666   3.019   6.762 -2.0142  1.9001  0.6636
   26CHL1   H2B 1899   2.764   3.148   6.807  1.2780 -0.8369  0.2675
   26CHL1   C20 1900   2.526   3.361   5.869  0.1887 -0.1200  0.6524
   26CHL1   H20 1901   2.525   3.466   5.905 -2.8898  0.1775 -0.0350
   26CHL1   C21 1902   2.395   3.290   5.905 -0.2567  0.7748  0.4846
   26CHL1  H21A 1903   2.393   3.193   5.850 -1.1185  0.6291  0.7661
   26CHL1  H21B 1904   2.307   3.348   5.871 -1.2368 -0.9562 -0.0746
   26CHL1  H21C 1905   2.379   3.263   6.011  2.2562  1.6852  1.1742
   26CHL1   C22 1906   2.534   3.356   5.716  0.0764  0.0295  0.8173
   26CHL1  H22A 1907   2.638   3.382   5.687  0.1783  0.0273  1.1745
   26CHL1  H22B 1908   2.529   3.253   5.674  1.2858  0.7204 -1.1706
   26CHL1   C23 1909   2.432   3.438   5.631  0.8613  0.3880  0.2817
   26CHL1  H23A 1910   2.327   3.422   5.662  0.8783 -2.0646 -0.6758
   26CHL1  H23B 1911   2.460   3.543   5.655  1.8461  0.4631 -1.0601
   26CHL1   C24 1912   2.441   3.404   5.485  0.1022 -1.6590 -0.5790
   26CHL1  H24A 1913   2.546   3.431   5.463  0.6752 -2.4792  0.9921
   26CHL1  H24B 1914   2.425   3.295   5.468  0.0270 -2.0653  1.7036
   26CHL1   C25 1915   2.352   3.483   5.387 -0.4611  0.1891  1.4351
   26CHL1   H25 1916   2.372   3.591   5.398  0.7595  0.3254 -1.2962
   26CHL1   C26 1917   2.412   3.454   5.243  0.5684 -0.8650 -0.6553
   26CHL1  H26A 1918   2.354   3.489   5.155 -0.6029 -4.7417 -1.6341
   26CHL1  H26B 1919   2.521   3.473   5.236  0.5168 -0.7239 -1.1253
   26CHL1  H26C 1920   2.417   3.344   5.227  0.6306 -1.3718  2.2565
   26CHL1   C27 1921   2.204   3.454   5.394  0.2411 -0.1205  0.2322
   26CHL1  H27A 1922   2.183   3.348   5.366  1.2421  0.3278 -2.5342
   26CHL1  H27B 1923   2.157   3.465   5.494 -0.2404 -2.1909  0.2962
   26CHL1  H27C 1924   2.144   3.517   5.325  0.8230 -0.3061 -0.4593
   27CHL1    C3 1925   1.125   0.667   6.902  0.7103  0.4016  0.3939
   27CHL1    H3 1926   1.215   0.604   6.884 -0.2636 -0.7306 -0.6374
   27CHL1    O3 1927   1.134   0.727   7.031  0.3471  0.6274  0.0326
   27CHL1   H3' 1928   1.222   0.712   7.064  0.3005  0.3729  0.0436
   27CHL1    C4 1929   1.107   0.770   6.786  0.2401  0.1693 -0.1168
   27CHL1   H4A 1930   1.024   0.840   6.812 -0.1017 -0.6717  1.0908
   27CHL1   H4B 1931   1.205   0.821   6.797 -0.3402  0.6449  4.2611
   27CHL1    C5 1932   1.083   0.709   6.650  0.1179 -0.3207  0.3540
   27CHL1    C6 1933   1.166   0.727   6.539  0.3785 -0.3130  0.4668
   27CHL1    H6 1934   1.256   0.787   6.555  0.6222 -0.6760  0.4773
   27CHL1    C7 1935   1.146   0.660   6.406 -0.7951  0.4220  0.1963
   27CHL1   H7A 1936   1.164   0.727   6.319 -1.7727  0.7648  0.2484
   27CHL1   H7B 1937   1.214   0.572   6.404  0.4172  1.3037  0.7021
   27CHL1    C8 1938   1.008   0.603   6.382 -0.4156 -0.8943  0.4705
   27CHL1    H8 1939   0.941   0.688   6.356 -0.6651 -1.6465 -1.5330
   27CHL1   C14 1940   1.007   0.501   6.265 -0.3522 -0.2396 -0.5072
   27CHL1   H14 1941   1.072   0.418   6.303  0.3291  0.3313 -0.4094
   27CHL1   C15 1942   1.080   0.531   6.130 -0.1291 -0.0917  0.8116
   27CHL1  H15A 1943   1.062   0.635   6.095  3.0870 -0.0007 -0.9659
   27CHL1  H15B 1944   1.188   0.518   6.155  0.2365  2.1912  0.6202
   27CHL1   C16 1945   1.014   0.436   6.027  0.2717 -0.0643 -0.0030
   27CHL1  H16A 1946   0.955   0.495   5.954  1.9744  1.0457 -0.5268
   27CHL1  H16B 1947   1.095   0.383   5.972 -0.2475  0.9226 -1.7969
   27CHL1   C17 1948   0.922   0.347   6.113  0.5650  0.6386 -0.4658
   27CHL1   H17 1949   0.997   0.277   6.156  0.8695  0.0584 -1.8823
   27CHL1   C13 1950   0.877   0.430   6.229 -0.1628 -0.2598 -0.3590
   27CHL1   C18 1951   0.773   0.540   6.182  0.2004  0.3881 -0.2287
   27CHL1  H18A 1952   0.684   0.488   6.140 -0.4412 -0.3999  1.9216
   27CHL1  H18B 1953   0.743   0.601   6.270 -1.0260 -3.5640  2.4030
   27CHL1  H18C 1954   0.817   0.601   6.101  0.4847 -0.2792 -0.5907
   27CHL1   C12 1955   0.829   0.363   6.361  0.2285 -0.2783 -0.2204
   27CHL1  H12A 1956   0.730   0.323   6.331 -0.3395  0.7407  0.2519
   27CHL1  H12B 1957   0.897   0.278   6.384  0.4812 -0.3964 -1.3267
   27CHL1   C11 1958   0.819   0.461   6.482 -0.0499 -0.5257  0.0561
   27CHL1  H11A 1959   0.740   0.538   6.473  1.2933  0.8098 -0.6827
   27CHL1  H11B 1960   0.781   0.405   6.571 -2.8098 -1.0190 -1.3115
   27CHL1    C9 1961   0.955   0.535   6.506 -0.6708  0.8507 -0.1996
   27CHL1    H9 1962   1.026   0.453   6.533 -0.9254  0.5370 -0.4771
   27CHL1   C10 1963   0.966   0.617   6.637  0.4296 -0.6297 -0.8516
   27CHL1   C19 1964   0.830   0.700   6.653  0.3809 -0.7198  0.1280
   27CHL1  H19A 1965   0.809   0.739   6.755 -0.3425  2.0428 -0.9890
   27CHL1  H19B 1966   0.816   0.785   6.584 -2.3311 -0.5189  0.8156
   27CHL1  H19C 1967   0.744   0.630   6.648  1.2353 -1.8341  0.3865
   27CHL1    C1 1968   0.975   0.520   6.760  0.1920  0.0046 -0.3631
   27CHL1   H1A 1969   0.882   0.460   6.749  0.5354 -0.2997 -1.8278
   27CHL1   H1B 1970   1.061   0.450   6.761 -0.5648 -0.9663 -1.1092
   27CHL1    C2 1971   0.996   0.584   6.898  0.3569 -0.1296 -0.6653
   27CHL1   H2A 1972   0.996   0.511   6.982 -1.5563  0.0395 -0.4688
   27CHL1   H2B 1973   0.916   0.656   6.924  1.7976  1.4662 -0.4406
   27CHL1   C20 1974   0.813   0.260   6.058 -0.2358  0.5807 -0.0187
   27CHL1   H20 1975   0.717   0.312   6.075 -0.2800  0.6264 -0.3841
   27CHL1   C21 1976   0.800   0.126   6.140 -0.7914 -0.5016  0.2463
   27CHL1  H21A 1977   0.760   0.148   6.241 -2.0386  2.2348 -0.7600
   27CHL1  H21B 1978   0.892   0.064   6.134  0.5090  1.4830 -3.0316
   27CHL1  H21C 1979   0.714   0.073   6.094 -0.7591 -1.0204  0.7838
   27CHL1   C22 1980   0.829   0.229   5.898 -0.1091  0.3506 -1.1242
   27CHL1  H22A 1981   0.827   0.325   5.842 -0.2367  0.7894 -0.3845
   27CHL1  H22B 1982   0.928   0.179   5.885  0.0271  0.2632  0.1483
   27CHL1   C23 1983   0.731   0.136   5.833  1.2671 -0.5032 -0.2155
   27CHL1  H23A 1984   0.760   0.032   5.858  0.4103 -0.7180 -0.0772
   27CHL1  H23B 1985   0.629   0.153   5.873  1.7565 -0.4693  1.0667
   27CHL1   C24 1986   0.733   0.149   5.675  0.6772 -0.0848  0.0487
   27CHL1  H24A 1987   0.683   0.247   5.658 -0.9746 -1.3013 -3.0344
   27CHL1  H24B 1988   0.840   0.158   5.646  0.9642  1.5330  1.4486
   27CHL1   C25 1989   0.661   0.043   5.586  0.0638  0.1903  0.6595
   27CHL1   H25 1990   0.703  -0.050   5.629  1.1138  0.5232  0.3643
   27CHL1   C26 1991   0.510   0.042   5.609 -0.2249  0.2802 -0.1504
   27CHL1  H26A 1992   0.480   0.009   5.711  0.2002 -1.8386 -0.6655
   27CHL1  H26B 1993   0.480   0.149   5.606  0.2699  0.4289 -0.0203
   27CHL1  H26C 1994   0.445  -0.008   5.535  0.6478 -0.3717 -0.4894
   27CHL1   C27 1995   0.696   0.046   5.432 -0.0478  0.4130  0.3252
   27CHL1  H27A 1996   0.800   0.007   5.421  0.3440  0.3184  3.4624
   27CHL1  H27B 1997   0.627  -0.016   5.371  1.4586 -2.1202  1.0504
   27CHL1  H27C 1998   0.686   0.144   5.380 -0.3451  0.4765  0.5015
   28CHL1    C3 1999   4.949   3.218   6.697  0.2088 -0.0163  0.2960
   28CHL1    H3 2000   5.038   3.267   6.653  0.1411  0.5123  0.7256
   28CHL1    O3 2001   4.965   3.200   6.839 -0.0923  0.0936  1.0044
   28CHL1   H3' 2002   4.879   3.203   6.883  0.9592  3.3377  3.1527
   28CHL1    C4 2003   4.825   3.298   6.676  0.1653  0.4760  0.0680
   28CHL1   H4A 2004   4.744   3.239   6.724  1.6872 -0.6918  1.3021
   28CHL1   H4B 2005   4.834   3.401   6.718 -2.8568  0.9036 -0.0401
   28CHL1    C5 2006   4.800   3.307   6.522 -0.5046 -1.1258 -0.5578
   28CHL1    C6 2007   4.796   3.428   6.463  0.2005 -0.2265 -0.0148
   28CHL1    H6 2008   4.810   3.514   6.530 -1.7082 -0.1124  0.2869
   28CHL1    C7 2009   4.749   3.457   6.321 -0.1766  0.2442 -0.6526
   28CHL1   H7A 2010   4.670   3.534   6.311  0.5855  1.0896 -0.2284
   28CHL1   H7B 2011   4.842   3.493   6.273  0.6901  0.4472  1.1110
   28CHL1    C8 2012   4.713   3.335   6.247 -0.1019  0.5681  0.4828
   28CHL1    H8 2013   4.613   3.302   6.283  0.4472 -0.4128  1.1476
   28CHL1   C14 2014   4.711   3.355   6.098 -0.6233 -0.2460 -0.3490
   28CHL1   H14 2015   4.816   3.364   6.062 -1.7619  1.5260 -3.7131
   28CHL1   C15 2016   4.634   3.467   6.037  0.1567 -0.1095 -0.9475
   28CHL1  H15A 2017   4.542   3.474   6.099  0.9611 -0.8153  0.3772
   28CHL1  H15B 2018   4.686   3.565   6.040  0.7108 -0.4032  1.7618
   28CHL1   C16 2019   4.605   3.430   5.891  0.4700 -0.6576 -0.5046
   28CHL1  H16A 2020   4.496   3.447   5.875  0.7803  1.2203 -0.8162
   28CHL1  H16B 2021   4.668   3.490   5.823  0.5066 -1.8730 -1.5997
   28CHL1   C17 2022   4.642   3.281   5.875 -0.5020  0.6566 -0.7739
   28CHL1   H17 2023   4.747   3.272   5.840 -0.4390 -0.4241 -0.3546
   28CHL1   C13 2024   4.659   3.226   6.027 -0.5610 -0.0001 -0.2887
   28CHL1   C18 2025   4.511   3.187   6.071  0.4270  0.0555 -0.5696
   28CHL1  H18A 2026   4.457   3.281   6.048 -0.7678 -0.6437 -0.6555
   28CHL1  H18B 2027   4.467   3.106   6.009  0.5240  0.6951 -1.5001
   28CHL1  H18C 2028   4.506   3.162   6.179  1.2689  1.4004 -0.1944
   28CHL1   C12 2029   4.758   3.113   6.050  0.5824  0.1407 -0.6588
   28CHL1  H12A 2030   4.721   3.017   6.006 -2.1913  0.1994  1.2403
   28CHL1  H12B 2031   4.862   3.126   6.015  0.8938 -0.1164  0.1499
   28CHL1   C11 2032   4.768   3.084   6.201  0.4723  0.6491  0.4222
   28CHL1  H11A 2033   4.665   3.046   6.221  0.2830  1.4961  1.1109
   28CHL1  H11B 2034   4.844   3.003   6.211 -1.3250 -1.2464 -0.3293
   28CHL1    C9 2035   4.793   3.205   6.288  0.2988 -0.1752  0.6059
   28CHL1    H9 2036   4.898   3.235   6.268 -0.6596  3.1803  0.1161
   28CHL1   C10 2037   4.790   3.184   6.444 -0.1881  0.1452  0.4720
   28CHL1   C19 2038   4.657   3.111   6.469  0.4530 -0.8239  0.7827
   28CHL1  H19A 2039   4.574   3.184   6.453  1.4508  0.3438  0.7836
   28CHL1  H19B 2040   4.648   3.017   6.411  1.8075  0.2343 -1.2840
   28CHL1  H19C 2041   4.653   3.074   6.573 -0.6532  1.0119  1.4558
   28CHL1    C1 2042   4.908   3.081   6.488  0.4755  0.1354  0.4894
   28CHL1   H1A 2043   4.880   2.979   6.453 -0.4106  0.7292 -0.5646
   28CHL1   H1B 2044   4.995   3.121   6.431  0.9928  0.6088  1.5893
   28CHL1    C2 2045   4.930   3.076   6.641 -0.3911  0.2047  0.1599
   28CHL1   H2A 2046   5.018   3.011   6.664 -2.4534 -2.5787  0.7061
   28CHL1   H2B 2047   4.836   3.036   6.683 -0.7513  1.3619  0.4744
   28CHL1   C20 2048   4.555   3.199   5.773  0.4143 -0.7674 -1.2239
   28CHL1   H20 2049   4.462   3.175   5.828  1.5805 -1.3934  0.5738
   28CHL1   C21 2050   4.635   3.067   5.765  0.2250 -0.1031 -0.0903
   28CHL1  H21A 2051   4.745   3.072   5.780  0.5030  0.7277 -2.0340
   28CHL1  H21B 2052   4.621   3.021   5.665 -0.0630  0.8758 -0.5103
   28CHL1  H21C 2053   4.600   2.996   5.843  0.4751  1.3417  1.4001
   28CHL1   C22 2054   4.538   3.272   5.638 -0.6988  0.1743 -1.0059
   28CHL1  H22A 2055   4.485   3.368   5.655  0.9848  0.6458  2.3819
   28CHL1  H22B 2056   4.638   3.293   5.594 -0.2310 -2.6682 -1.5031
   28CHL1   C23 2057   4.437   3.206   5.543  0.6094  0.2486 -0.4867
   28CHL1  H23A 2058   4.480   3.107   5.520  0.2500  0.5096 -2.4243
   28CHL1  H23B 2059   4.335   3.186   5.583  0.4785 -1.6946 -1.6946
   28CHL1   C24 2060   4.426   3.277   5.408  0.2106  0.0555 -0.4108
   28CHL1  H24A 2061   4.349   3.354   5.425 -0.5295 -0.8104  0.2544
   28CHL1  H24B 2062   4.521   3.329   5.384 -1.0479  1.8684 -1.7592
   28CHL1   C25 2063   4.380   3.185   5.293 -0.8034  0.5877 -0.4534
   28CHL1   H25 2064   4.434   3.089   5.301 -0.7248  0.7119  0.5246
   28CHL1   C26 2065   4.230   3.146   5.301 -0.6689  0.5980 -0.3224
   28CHL1  H26A 2066   4.195   3.078   5.221  2.6451  0.1710 -1.5872
   28CHL1  H26B 2067   4.210   3.085   5.392 -1.0814  0.1335 -0.7163
   28CHL1  H26C 2068   4.162   3.229   5.331 -0.0043  0.7986  0.6985
   28CHL1   C27 2069   4.405   3.252   5.154  0.6449 -0.2310 -0.3533
   28CHL1  H27A 2070   4.507   3.293   5.135  0.3786  1.1632  1.0809
   28CHL1  H27B 2071   4.370   3.185   5.073 -1.0410  0.3536 -0.1327
   28CHL1  H27C 2072   4.355   3.351   5.157  1.0930 -0.0193  1.0776
   29CHL1    C3 2073   4.618   2.706   3.727 -0.5794 -1.1720 -0.1690
   29CHL1    H3 2074   4.544   2.625   3.745 -0.7392 -0.8455  0.7174
   29CHL1    O3 2075   4.602   2.737   3.588  0.0640  0.2591  0.3581
   29CHL1   H3' 2076   4.669   2.804   3.573 -0.6241  0.5438 -1.6877
   29CHL1    C4 2077   4.563   2.821   3.816 -0.5662 -0.3552  0.1711
   29CHL1   H4A 2078   4.615   2.915   3.791  1.4211 -1.4895 -0.1958
   29CHL1   H4B 2079   4.456   2.835   3.791 -0.6295 -0.5453  0.3266
   29CHL1    C5 2080   4.574   2.800   3.967 -0.2615 -0.1338  0.0903
   29CHL1    C6 2081   4.471   2.818   4.045  0.0317  0.6202 -1.0465
   29CHL1    H6 2082   4.371   2.844   4.007 -0.2411 -0.0799 -0.8309
   29CHL1    C7 2083   4.480   2.822   4.196 -0.9070  0.0461 -0.3637
   29CHL1   H7A 2084   4.429   2.913   4.236  3.0089  0.8622  3.4529
   29CHL1   H7B 2085   4.422   2.740   4.243 -1.3890  1.6230  1.9764
   29CHL1    C8 2086   4.625   2.818   4.251  0.4330  0.0347  0.0429
   29CHL1    H8 2087   4.664   2.922   4.255 -0.2736  0.2734  2.3791
   29CHL1   C14 2088   4.616   2.762   4.391 -0.8068 -0.0993 -0.0895
   29CHL1   H14 2089   4.568   2.662   4.385 -0.4751 -0.2827  0.2438
   29CHL1   C15 2090   4.533   2.835   4.503 -0.3629  0.6476 -0.4275
   29CHL1  H15A 2091   4.560   2.942   4.505 -1.0944  0.8747  2.3148
   29CHL1  H15B 2092   4.424   2.836   4.482 -1.1131 -0.2871  2.7202
   29CHL1   C16 2093   4.576   2.770   4.636  0.9060 -0.4468  0.3871
   29CHL1  H16A 2094   4.598   2.851   4.710  0.8778 -0.5969  0.5584
   29CHL1  H16B 2095   4.502   2.695   4.670  1.6009 -0.8385  1.0559
   29CHL1   C17 2096   4.708   2.688   4.605  0.6500  0.1499 -0.3724
   29CHL1   H17 2097   4.684   2.579   4.603  1.4771 -0.1032  1.2595
   29CHL1   C13 2098   4.749   2.728   4.463 -0.4671 -0.5879 -0.5318
   29CHL1   C18 2099   4.837   2.855   4.466  0.7605  0.4113  0.0129
   29CHL1  H18A 2100   4.779   2.946   4.491 -0.8587 -0.7685  0.7870
   29CHL1  H18B 2101   4.927   2.849   4.531  1.5387 -0.0165 -1.0823
   29CHL1  H18C 2102   4.882   2.880   4.368  2.3544  2.2603  1.1255
   29CHL1   C12 2103   4.825   2.624   4.375  0.6079  0.7391  0.8714
   29CHL1  H12A 2104   4.925   2.599   4.416  1.7041  2.2059 -0.7580
   29CHL1  H12B 2105   4.757   2.537   4.372  1.4524 -0.0580  2.7867
   29CHL1   C11 2106   4.844   2.672   4.229  0.1092  0.3924  0.2934
   29CHL1  H11A 2107   4.923   2.749   4.215  0.3088 -0.2791 -3.1239
   29CHL1  H11B 2108   4.891   2.592   4.167  1.0129  1.1430 -0.0203
   29CHL1    C9 2109   4.715   2.717   4.162  0.0502 -0.1029 -0.1992
   29CHL1    H9 2110   4.653   2.625   4.166 -0.7184  0.3932 -0.4494
   29CHL1   C10 2111   4.709   2.755   4.013 -0.2151 -0.3691 -0.5390
   29CHL1   C19 2112   4.813   2.870   3.992  0.3453  0.1874 -0.4676
   29CHL1  H19A 2113   4.913   2.850   4.037 -0.0069  0.1345  0.3132
   29CHL1  H19B 2114   4.828   2.896   3.885 -2.4435 -1.3886 -1.3447
   29CHL1  H19C 2115   4.786   2.961   4.050  0.3641 -0.4868  0.6301
   29CHL1    C1 2116   4.753   2.630   3.924  0.3363  0.1537 -0.8544
   29CHL1   H1A 2117   4.855   2.600   3.955  0.4922  2.3583  1.0738
   29CHL1   H1B 2118   4.683   2.547   3.947 -0.7474  1.3680  0.4698
   29CHL1    C2 2119   4.759   2.655   3.771  0.5803 -0.1195  0.0523
   29CHL1   H2A 2120   4.777   2.562   3.712  0.5149  0.9186 -1.6781
   29CHL1   H2B 2121   4.837   2.731   3.748  0.8282 -0.0698  1.0260
   29CHL1   C20 2122   4.811   2.695   4.721 -0.1019  0.0088  0.4181
   29CHL1   H20 2123   4.864   2.791   4.733 -0.6736  0.5590 -1.2589
   29CHL1   C21 2124   4.926   2.597   4.700 -0.0660 -0.2688  0.5462
   29CHL1  H21A 2125   4.993   2.621   4.615  1.9876  0.6563  2.3483
   29CHL1  H21B 2126   4.882   2.496   4.687 -1.3549  0.4153 -0.7138
   29CHL1  H21C 2127   4.994   2.604   4.787  0.2137  0.6435  0.2635
   29CHL1   C22 2128   4.757   2.663   4.866  0.6430 -0.2846  0.3235
   29CHL1  H22A 2129   4.834   2.669   4.945  0.5300  0.3071  0.3964
   29CHL1  H22B 2130   4.678   2.741   4.875 -0.9318 -1.2088 -3.2973
   29CHL1   C23 2131   4.693   2.529   4.878  0.2355  0.1162 -0.0863
   29CHL1  H23A 2132   4.634   2.516   4.785 -0.3888  1.9116  0.0145
   29CHL1  H23B 2133   4.767   2.452   4.906  0.4216 -0.8598 -2.9941
   29CHL1   C24 2134   4.594   2.521   4.992  0.2691 -0.5177 -0.1249
   29CHL1  H24A 2135   4.660   2.516   5.081  1.0048 -0.2363 -0.6385
   29CHL1  H24B 2136   4.525   2.607   4.987  0.7499 -0.1582 -0.7974
   29CHL1   C25 2137   4.509   2.389   4.995 -0.2037  0.2661 -0.2827
   29CHL1   H25 2138   4.443   2.397   4.906 -0.6922  1.8253  0.1885
   29CHL1   C26 2139   4.590   2.260   4.970 -0.6648  0.0370  0.0614
   29CHL1  H26A 2140   4.529   2.169   4.950  0.6633 -0.6966 -0.7615
   29CHL1  H26B 2141   4.652   2.275   4.879  0.0397  0.7130  0.6391
   29CHL1  H26C 2142   4.664   2.235   5.050  2.5658  0.1819 -2.6545
   29CHL1   C27 2143   4.413   2.386   5.115 -0.2666 -0.2049  0.4405
   29CHL1  H27A 2144   4.339   2.303   5.104  2.6071 -2.7011 -2.0380
   29CHL1  H27B 2145   4.465   2.388   5.213 -0.9030 -0.6285  0.7933
   29CHL1  H27C 2146   4.353   2.479   5.113  0.0355 -0.0162  0.1702
   30CHL1    C3 2147   4.298   1.074   3.598  0.1585  0.2366 -0.6803
   30CHL1    H3 2148   4.405   1.066   3.571 -0.6309  0.6865 -4.4639
   30CHL1    O3 2149   4.217   1.053   3.476  0.1008 -0.5738 -0.4918
   30CHL1   H3' 2150   4.126   1.079   3.491  0.7138  1.2093  0.4523
   30CHL1    C4 2151   4.260   0.970   3.705  0.2679  0.6950 -0.1123
   30CHL1   H4A 2152   4.150   0.976   3.716 -0.1908 -0.0773 -3.1694
   30CHL1   H4B 2153   4.276   0.868   3.663  1.6511  1.0038 -0.3923
   30CHL1    C5 2154   4.321   0.988   3.844  0.1321 -0.3035 -0.3138
   30CHL1    C6 2155   4.395   0.891   3.897  0.0056 -0.7433  0.8575
   30CHL1    H6 2156   4.403   0.796   3.842 -0.8913 -0.6909  0.6237
   30CHL1    C7 2157   4.466   0.899   4.025 -0.3371  0.1895  0.5011
   30CHL1   H7A 2158   4.444   0.807   4.084 -1.2368  0.3035  0.3694
   30CHL1   H7B 2159   4.575   0.909   4.007 -0.2842  0.4628  0.9802
   30CHL1    C8 2160   4.419   1.024   4.105  0.0582  0.1234 -0.2252
   30CHL1    H8 2161   4.320   1.006   4.153  0.7076  1.0162  1.5127
   30CHL1   C14 2162   4.523   1.050   4.206 -0.2960 -0.0225 -0.8961
   30CHL1   H14 2163   4.611   1.084   4.147  1.0484  0.8908  1.4779
   30CHL1   C15 2164   4.578   0.933   4.297  0.0022  0.3277 -0.7175
   30CHL1  H15A 2165   4.502   0.860   4.333  0.4421 -0.9690 -2.3092
   30CHL1  H15B 2166   4.651   0.873   4.240 -0.2533  0.3451 -1.0701
   30CHL1   C16 2167   4.648   1.006   4.416  0.0441 -0.3280 -0.2324
   30CHL1  H16A 2168   4.595   0.968   4.507  0.7476  1.5737  1.0235
   30CHL1  H16B 2169   4.756   0.979   4.422 -0.3439 -1.7370  1.3139
   30CHL1   C17 2170   4.624   1.162   4.401  0.2972 -0.0121 -0.3204
   30CHL1   H17 2171   4.711   1.202   4.344  1.1972 -1.8528 -0.3112
   30CHL1   C13 2172   4.496   1.168   4.311 -0.4198  0.1293  0.4021
   30CHL1   C18 2173   4.370   1.133   4.395 -0.2954  0.3570  0.5047
   30CHL1  H18A 2174   4.344   1.212   4.468 -1.1441  0.6479 -0.0936
   30CHL1  H18B 2175   4.285   1.112   4.326  0.9219 -1.8342 -0.4461
   30CHL1  H18C 2176   4.380   1.045   4.463  0.5699  0.6634  0.7803
   30CHL1   C12 2177   4.482   1.292   4.222  0.2591  0.1097  0.5016
   30CHL1  H12A 2178   4.455   1.378   4.287 -0.9213 -0.8402  1.3101
   30CHL1  H12B 2179   4.583   1.302   4.177  0.3341 -3.7044 -0.5641
   30CHL1   C11 2180   4.384   1.279   4.101  0.1659 -0.2088  0.0763
   30CHL1  H11A 2181   4.285   1.283   4.151  0.6701  0.2037  1.0622
   30CHL1  H11B 2182   4.399   1.371   4.041  0.6569 -1.0932 -1.2110
   30CHL1    C9 2183   4.406   1.146   4.015  0.4294 -0.1137  0.1265
   30CHL1    H9 2184   4.501   1.154   3.959 -0.0495  0.9519 -0.5770
   30CHL1   C10 2185   4.310   1.128   3.896  0.1979  0.1697 -0.5890
   30CHL1   C19 2186   4.163   1.134   3.949 -0.1135  0.6002  0.1435
   30CHL1  H19A 2187   4.133   1.062   4.027 -0.6753 -1.0781 -1.5296
   30CHL1  H19B 2188   4.130   1.236   3.977 -0.1652  0.1763  1.6827
   30CHL1  H19C 2189   4.094   1.098   3.870  0.6968  0.0891 -0.3523
   30CHL1    C1 2190   4.337   1.237   3.790 -0.2694  0.3419 -0.0328
   30CHL1   H1A 2191   4.313   1.337   3.832 -1.0863 -0.2681  0.9997
   30CHL1   H1B 2192   4.444   1.224   3.763 -0.8753  2.0091 -3.8756
   30CHL1    C2 2193   4.268   1.218   3.658  0.0795  0.0310  0.3210
   30CHL1   H2A 2194   4.295   1.292   3.580 -1.3150 -0.3974 -0.6119
   30CHL1   H2B 2195   4.157   1.218   3.660  0.0247 -2.5659  0.7636
   30CHL1   C20 2196   4.617   1.244   4.535  0.1001 -0.1105 -0.2859
   30CHL1   H20 2197   4.525   1.215   4.590  1.4570 -1.5125  1.3915
   30CHL1   C21 2198   4.604   1.389   4.524 -0.6266  0.4960  0.1964
   30CHL1  H21A 2199   4.701   1.407   4.473  0.4438 -2.5626  0.9763
   30CHL1  H21B 2200   4.606   1.441   4.622  1.5663 -0.5672  0.7736
   30CHL1  H21C 2201   4.517   1.432   4.470 -1.6961  1.1731  2.3678
   30CHL1   C22 2202   4.733   1.193   4.634  1.3020 -0.3299 -0.2200
   30CHL1  H22A 2203   4.720   1.251   4.728  0.4299 -1.0215  0.0967
   30CHL1  H22B 2204   4.715   1.087   4.663  0.2004 -0.3751 -1.0205
   30CHL1   C23 2205   4.868   1.234   4.569 -0.0477 -0.4430 -0.4643
   30CHL1  H23A 2206   4.879   1.188   4.468 -2.6660  0.1405 -1.0943
   30CHL1  H23B 2207   4.878   1.345   4.563 -0.8044 -0.3235  0.3249
   30CHL1   C24 2208   4.995   1.188   4.633  0.8593  0.5299 -0.2334
   30CHL1  H24A 2209   4.994   1.077   4.637  1.0372  0.4435 -1.8350
   30CHL1  H24B 2210   5.078   1.217   4.564  3.7090  1.1089  3.1748
   30CHL1   C25 2211   5.022   1.245   4.777 -0.0790  0.0776 -0.8829
   30CHL1   H25 2212   4.960   1.182   4.844 -1.5544  0.6592 -1.6583
   30CHL1   C26 2213   5.165   1.217   4.816 -0.0437  0.0438  1.0660
   30CHL1  H26A 2214   5.232   1.249   4.733  1.7617  0.5430  2.6565
   30CHL1  H26B 2215   5.206   1.281   4.897  1.5778  2.3107 -1.3665
   30CHL1  H26C 2216   5.181   1.108   4.830  1.7779  0.3430  1.5005
   30CHL1   C27 2217   4.983   1.392   4.794 -0.2408 -0.0187 -0.3950
   30CHL1  H27A 2218   4.874   1.409   4.780 -0.1221  0.6983 -0.4498
   30CHL1  H27B 2219   5.004   1.426   4.898 -1.2390  0.9468 -0.4886
   30CHL1  H27C 2220   5.048   1.457   4.732  0.4216 -0.4252 -0.1403
   31CHL1    C3 2221   5.852   0.833   3.702 -0.4527 -0.1593 -0.6503
   31CHL1    H3 2222   5.807   0.927   3.740 -0.0089 -1.4005  3.5134
   31CHL1    O3 2223   5.849   0.830   3.561  0.3402  0.0051 -0.5188
   31CHL1   H3' 2224   5.881   0.744   3.535 -0.5507 -1.6037  3.1158
   31CHL1    C4 2225   6.000   0.827   3.757  0.6576  0.1695  0.1435
   31CHL1   H4A 2226   6.040   0.731   3.717 -0.7583  1.2836 -4.5944
   31CHL1   H4B 2227   6.065   0.903   3.708  2.3023  0.0579  2.0148
   31CHL1    C5 2228   6.001   0.845   3.905 -0.6330  0.3969 -0.4562
   31CHL1    C6 2229   6.063   0.947   3.967  0.1215 -0.5602  0.6160
   31CHL1    H6 2230   6.118   1.026   3.913  1.3601  0.1716  2.8247
   31CHL1    C7 2231   6.080   0.958   4.115 -0.3634  0.3322 -0.4268
   31CHL1   H7A 2232   6.186   0.984   4.136 -0.0305 -1.2537  0.0088
   31CHL1   H7B 2233   6.017   1.040   4.156  0.4123  0.2059  1.0698
   31CHL1    C8 2234   6.044   0.825   4.188 -0.2055 -0.8750 -0.4713
   31CHL1    H8 2235   6.131   0.758   4.174  1.7207  0.8954  2.0838
   31CHL1   C14 2236   6.034   0.865   4.333  0.4062 -0.3665 -0.7262
   31CHL1   H14 2237   5.939   0.923   4.328  1.3767  1.3280 -0.1528
   31CHL1   C15 2238   6.149   0.943   4.399  0.1367  1.0125 -0.1571
   31CHL1  H15A 2239   6.239   0.880   4.383 -0.8734 -0.9271  1.3246
   31CHL1  H15B 2240   6.165   1.041   4.349  0.5236 -0.2343 -2.6067
   31CHL1   C16 2241   6.110   0.941   4.547 -0.0945  0.2718  0.3061
   31CHL1  H16A 2242   6.200   0.924   4.610  1.4655  0.7114 -1.7021
   31CHL1  H16B 2243   6.063   1.038   4.573 -0.9434  0.1142 -0.5712
   31CHL1   C17 2244   5.999   0.823   4.566  0.1188 -0.1962  0.4753
   31CHL1   H17 2245   5.903   0.878   4.567 -0.0107 -0.2556 -1.9697
   31CHL1   C13 2246   5.990   0.753   4.428 -0.1956  0.6145  0.6143
   31CHL1   C18 2247   6.089   0.637   4.422 -0.4508  0.1431  0.6710
   31CHL1  H18A 2248   6.115   0.599   4.321 -1.2839  2.3967 -0.4757
   31CHL1  H18B 2249   6.178   0.669   4.480  1.0133 -1.0445 -0.8518
   31CHL1  H18C 2250   6.044   0.552   4.478  2.0159 -1.2952  0.6227
   31CHL1   C12 2251   5.852   0.700   4.377 -0.0922 -0.3316 -0.4725
   31CHL1  H12A 2252   5.823   0.611   4.437 -1.9573  0.3219 -0.3313
   31CHL1  H12B 2253   5.767   0.770   4.394  1.6697  2.1197 -1.2343
   31CHL1   C11 2254   5.859   0.656   4.229 -0.5630  0.4963 -0.5738
   31CHL1  H11A 2255   5.930   0.570   4.234 -0.3616  0.6649 -0.5452
   31CHL1  H11B 2256   5.757   0.628   4.195 -0.1983 -0.8768 -0.5870
   31CHL1    C9 2257   5.906   0.769   4.133 -0.2363  0.4980 -0.0405
   31CHL1    H9 2258   5.828   0.847   4.141  0.4415  1.3916 -1.6650
   31CHL1   C10 2259   5.917   0.742   3.983  0.0398  0.4776 -0.4037
   31CHL1   C19 2260   5.998   0.607   3.960  0.3488 -0.4738 -0.5008
   31CHL1  H19A 2261   6.006   0.567   3.856  1.0568  1.6674 -1.3248
   31CHL1  H19B 2262   6.096   0.612   4.012  0.1676  1.6573 -0.2752
   31CHL1  H19C 2263   5.940   0.533   4.020  1.4921  0.6525  2.1439
   31CHL1    C1 2264   5.773   0.735   3.916 -0.5619 -0.1242 -0.2145
   31CHL1   H1A 2265   5.729   0.641   3.956  0.5940 -0.0584  1.2938
   31CHL1   H1B 2266   5.702   0.812   3.950 -1.7967 -1.7397  1.0124
   31CHL1    C2 2267   5.767   0.725   3.763 -0.6539 -0.2854  0.0922
   31CHL1   H2A 2268   5.666   0.760   3.733 -0.1694  2.9523  1.7830
   31CHL1   H2B 2269   5.796   0.626   3.721  0.3980 -1.3769  3.1166
   31CHL1   C20 2270   5.992   0.744   4.699  0.1734  0.0544  0.5955
   31CHL1   H20 2271   6.085   0.683   4.699 -1.3647 -2.5213 -1.5770
   31CHL1   C21 2272   5.875   0.646   4.690  0.2498 -0.2270  0.2701
   31CHL1  H21A 2273   5.856   0.618   4.796  0.4272 -1.2700  0.0329
   31CHL1  H21B 2274   5.893   0.552   4.633  2.2328 -0.1841  0.7588
   31CHL1  H21C 2275   5.784   0.699   4.654 -0.0912 -0.4303  0.8281
   31CHL1   C22 2276   5.992   0.828   4.826  0.3738 -0.5248  0.2986
   31CHL1  H22A 2277   6.085   0.889   4.828  0.2949 -0.2543 -1.7999
   31CHL1  H22B 2278   5.908   0.899   4.814  0.4057 -0.5505 -0.0977
   31CHL1   C23 2279   5.983   0.757   4.961 -0.2627  0.2401  0.0548
   31CHL1  H23A 2280   5.878   0.723   4.974 -0.2542  0.0740 -0.3192
   31CHL1  H23B 2281   6.049   0.669   4.948 -2.2237 -1.2563 -0.2818
   31CHL1   C24 2282   6.015   0.843   5.082 -0.0929  0.0145  1.0355
   31CHL1  H24A 2283   6.107   0.903   5.071 -0.9646  1.3447  0.8102
   31CHL1  H24B 2284   5.939   0.924   5.086  2.6180  2.8510 -0.6759
   31CHL1   C25 2285   6.004   0.766   5.209 -0.3453 -0.0393 -0.5773
   31CHL1   H25 2286   6.060   0.670   5.209  0.7222  0.5147 -2.6678
   31CHL1   C26 2287   6.064   0.858   5.320  0.6054  0.0117 -0.3024
   31CHL1  H26A 2288   6.015   0.956   5.300  0.5695  0.7385  2.8319
   31CHL1  H26B 2289   6.034   0.825   5.422 -1.4228  1.4467 -0.3713
   31CHL1  H26C 2290   6.173   0.875   5.307  0.5658 -0.4139 -1.2655
   31CHL1   C27 2291   5.855   0.727   5.247 -0.5139  1.2247  0.3490
   31CHL1  H27A 2292   5.858   0.665   5.339  1.0975 -0.2958 -0.6495
   31CHL1  H27B 2293   5.785   0.812   5.262 -1.5897  0.7838 -1.6910
   31CHL1  H27C 2294   5.811   0.667   5.164 -1.9630  1.7279  0.7192
   32CHL1    C3 2295   6.141   3.297   3.825 -0.5752 -0.4007  0.1228
   32CHL1    H3 2296   6.083   3.203   3.819 -2.5331  0.6320  1.6331
   32CHL1    O3 2297   6.125   3.382   3.716 -0.5365  0.3425  0.2057
   32CHL1   H3' 2298   6.135   3.472   3.750 -0.0579  0.5658 -0.5028
   32CHL1    C4 2299   6.096   3.357   3.958  0.5463  0.4058  0.4638
   32CHL1   H4A 2300   6.133   3.462   3.964 -1.8004  1.2184  1.8825
   32CHL1   H4B 2301   5.986   3.368   3.945  0.3173 -0.4085  1.5986
   32CHL1    C5 2302   6.130   3.282   4.083  0.2871 -0.3952 -0.3716
   32CHL1    C6 2303   6.030   3.257   4.178  0.5228 -0.1372  0.0595
   32CHL1    H6 2304   5.931   3.303   4.168 -0.2595 -1.5199  1.0472
   32CHL1    C7 2305   6.059   3.176   4.303  0.0708  0.4670 -0.2301
   32CHL1   H7A 2306   6.010   3.215   4.394  1.7972 -0.2809  1.0846
   32CHL1   H7B 2307   6.029   3.070   4.286 -2.0648  1.1616 -1.1499
   32CHL1    C8 2308   6.210   3.168   4.338  0.5075 -0.4689  0.6059
   32CHL1    H8 2309   6.237   3.271   4.369  0.5607  0.2955 -1.7397
   32CHL1   C14 2310   6.225   3.064   4.445 -0.3107  0.1490  0.2519
   32CHL1   H14 2311   6.178   2.976   4.395 -0.9300 -0.5999  2.0638
   32CHL1   C15 2312   6.145   3.064   4.583 -0.3651 -0.0223  0.2887
   32CHL1  H15A 2313   6.139   3.166   4.627 -1.2682 -0.6497  1.6842
   32CHL1  H15B 2314   6.043   3.023   4.569 -0.6726  1.2528 -1.6973
   32CHL1   C16 2315   6.226   2.966   4.673  0.0199  0.2038  0.3711
   32CHL1  H16A 2316   6.248   3.010   4.772 -1.0270  2.3844 -0.3077
   32CHL1  H16B 2317   6.166   2.875   4.690  2.0167 -1.3361 -0.3696
   32CHL1   C17 2318   6.349   2.918   4.581  0.2607  0.6970 -0.4801
   32CHL1   H17 2319   6.310   2.833   4.521  1.1001  0.4104 -0.6312
   32CHL1   C13 2320   6.366   3.031   4.481 -0.3035 -0.2105 -1.0379
   32CHL1   C18 2321   6.429   3.157   4.548 -0.1627 -0.2392 -0.2828
   32CHL1  H18A 2322   6.430   3.250   4.486  0.6329 -1.3597 -2.0627
   32CHL1  H18B 2323   6.373   3.182   4.640  2.8845 -0.4188  1.7473
   32CHL1  H18C 2324   6.534   3.138   4.580  0.5023 -0.0411 -2.2006
   32CHL1   C12 2325   6.442   2.994   4.348  0.4355 -0.5582  0.4702
   32CHL1  H12A 2326   6.548   2.982   4.379 -0.8320 -3.2508  4.5193
   32CHL1  H12B 2327   6.404   2.900   4.301  1.1066 -1.2858  1.3553
   32CHL1   C11 2328   6.437   3.121   4.251 -0.2978  0.3143  0.2811
   32CHL1  H11A 2329   6.486   3.210   4.295  0.2975 -0.2584  0.8122
   32CHL1  H11B 2330   6.499   3.081   4.167 -2.1816  0.0774 -1.0563
   32CHL1    C9 2331   6.295   3.131   4.212  0.2251 -0.7396  0.7435
   32CHL1    H9 2332   6.257   3.028   4.192  0.6991 -0.4717 -2.0049
   32CHL1   C10 2333   6.269   3.227   4.091 -0.7102  0.0169  0.7348
   32CHL1   C19 2334   6.358   3.365   4.108  0.1494 -0.2288  0.8646
   32CHL1  H19A 2335   6.335   3.453   4.045  0.2837 -0.4998  0.4245
   32CHL1  H19B 2336   6.340   3.407   4.209  0.9356  0.9795  0.5131
   32CHL1  H19C 2337   6.467   3.351   4.093 -0.0807 -1.7822  0.4442
   32CHL1    C1 2338   6.315   3.167   3.955 -0.4930 -0.1837 -0.4385
   32CHL1   H1A 2339   6.420   3.130   3.966 -0.1319  1.1323  0.7403
   32CHL1   H1B 2340   6.252   3.077   3.945  1.3336 -1.4465 -1.3271
   32CHL1    C2 2341   6.291   3.261   3.835  0.6678  0.2163  0.1509
   32CHL1   H2A 2342   6.330   3.222   3.739  1.8388  2.1805 -0.2246
   32CHL1   H2B 2343   6.350   3.355   3.835 -1.5840  1.6823 -0.1452
   32CHL1   C20 2344   6.475   2.868   4.659  0.0529  0.3342 -0.7234
   32CHL1   H20 2345   6.565   2.862   4.593 -0.3273  1.2463 -1.3393
   32CHL1   C21 2346   6.440   2.723   4.705 -0.2821 -0.5799  0.0137
   32CHL1  H21A 2347   6.510   2.696   4.787  1.0169  4.3165  0.7943
   32CHL1  H21B 2348   6.445   2.652   4.620 -0.7350 -1.8339  1.0038
   32CHL1  H21C 2349   6.334   2.722   4.738 -0.0151  1.0808  1.0207
   32CHL1   C22 2350   6.505   2.938   4.792  0.1958 -0.9180 -0.3690
   32CHL1  H22A 2351   6.502   3.049   4.781 -1.6798 -0.9328 -0.3613
   32CHL1  H22B 2352   6.440   2.907   4.876 -1.0323  0.3563 -0.8098
   32CHL1   C23 2353   6.647   2.920   4.839  0.4144  0.3394 -0.5307
   32CHL1  H23A 2354   6.660   2.810   4.852 -2.3381 -0.1644 -1.3360
   32CHL1  H23B 2355   6.724   2.960   4.769  1.2001  0.5489  0.4256
   32CHL1   C24 2356   6.663   2.978   4.976  0.3972  0.2468 -0.5774
   32CHL1  H24A 2357   6.635   3.086   4.970  1.1845  0.3906 -2.1861
   32CHL1  H24B 2358   6.582   2.936   5.040  0.6860  1.8029  0.8879
   32CHL1   C25 2359   6.805   2.968   5.034 -0.3192 -0.1128 -0.3109
   32CHL1   H25 2360   6.881   2.941   4.956  0.0555 -1.2341  0.4145
   32CHL1   C26 2361   6.857   3.105   5.094  0.4349 -0.5454 -0.3371
   32CHL1  H26A 2362   6.843   3.187   5.021  1.1749  0.2484  0.3888
   32CHL1  H26B 2363   6.782   3.131   5.171  1.3714 -0.6544  0.6429
   32CHL1  H26C 2364   6.955   3.113   5.146  0.5210 -1.6729 -0.3071
   32CHL1   C27 2365   6.811   2.851   5.133  0.5390 -0.2270 -0.3154
   32CHL1  H27A 2366   6.904   2.863   5.193  1.9956 -0.9181 -2.3216
   32CHL1  H27B 2367   6.721   2.855   5.199  1.0023 -3.3236  0.6707
   32CHL1  H27C 2368   6.809   2.753   5.082  0.1792 -0.0425 -0.6593
   33CHL1    C3 2369   1.352   4.834   3.827 -0.3164 -0.4235  0.0889
   33CHL1    H3 2370   1.419   4.923   3.834 -0.3468 -0.4146  0.2686
   33CHL1    O3 2371   1.318   4.809   3.695  0.0541 -0.0317  0.3563
   33CHL1   H3' 2372   1.399   4.828   3.647 -0.1165  1.2744  0.5434
   33CHL1    C4 2373   1.426   4.705   3.880  0.1592  0.2776  0.0898
   33CHL1   H4A 2374   1.345   4.631   3.866  2.0542 -1.6337 -1.3885
   33CHL1   H4B 2375   1.513   4.676   3.818  1.5871  2.4570  0.9394
   33CHL1    C5 2376   1.468   4.715   4.029  1.1059 -0.1638  0.1176
   33CHL1    C6 2377   1.601   4.699   4.060  0.8824 -0.7291  0.4302
   33CHL1    H6 2378   1.678   4.691   3.982  0.0953 -0.9251 -0.3544
   33CHL1    C7 2379   1.652   4.713   4.200 -0.0988 -0.0685 -0.2198
   33CHL1   H7A 2380   1.717   4.626   4.223  0.1209 -0.4879 -2.2429
   33CHL1   H7B 2381   1.718   4.803   4.207 -0.5584  0.2824 -0.3206
   33CHL1    C8 2382   1.538   4.720   4.308 -0.5727 -0.2021 -0.2997
   33CHL1    H8 2383   1.494   4.619   4.327 -3.6861  0.6220 -2.5430
   33CHL1   C14 2384   1.592   4.782   4.431 -0.8616  0.1025 -0.8166
   33CHL1   H14 2385   1.627   4.884   4.403 -0.2584 -0.0410 -0.5899
   33CHL1   C15 2386   1.711   4.718   4.507 -0.6816 -0.2764 -0.0265
   33CHL1  H15A 2387   1.700   4.609   4.523  1.0771 -0.3460  0.9243
   33CHL1  H15B 2388   1.809   4.732   4.458 -0.2762  1.5463  1.2063
   33CHL1   C16 2389   1.712   4.785   4.642  0.5203 -0.4854 -0.5064
   33CHL1  H16A 2390   1.727   4.714   4.727 -0.4915 -0.5069 -0.3395
   33CHL1  H16B 2391   1.790   4.864   4.644  2.0879 -1.9619 -0.8860
   33CHL1   C17 2392   1.575   4.868   4.655 -0.3434 -0.3614  0.0243
   33CHL1   H17 2393   1.605   4.968   4.617  1.8308 -0.0277  2.3591
   33CHL1   C13 2394   1.486   4.809   4.546 -0.3140  1.0819  0.0228
   33CHL1   C18 2395   1.423   4.678   4.610 -0.2786 -0.3496 -0.0330
   33CHL1  H18A 2396   1.362   4.706   4.698 -0.6208 -0.3201 -0.2761
   33CHL1  H18B 2397   1.363   4.614   4.541 -0.3656 -0.1436 -0.1489
   33CHL1  H18C 2398   1.512   4.621   4.644  0.3855  0.2084 -0.7914
   33CHL1   C12 2399   1.376   4.903   4.493  0.0785 -0.7421 -0.1887
   33CHL1  H12A 2400   1.302   4.937   4.569  1.6947 -0.3921  1.2736
   33CHL1  H12B 2401   1.440   4.984   4.452  0.4345 -0.7914  0.2613
   33CHL1   C11 2402   1.309   4.835   4.368 -0.9250 -0.0694  0.0970
   33CHL1  H11A 2403   1.258   4.743   4.403  0.4605 -0.4145  1.3214
   33CHL1  H11B 2404   1.228   4.905   4.341 -3.4182 -1.7770  2.6197
   33CHL1    C9 2405   1.415   4.805   4.259  0.0248  0.2625 -0.1831
   33CHL1    H9 2406   1.467   4.901   4.238  1.0935  0.3981  2.6824
   33CHL1   C10 2407   1.352   4.749   4.126  0.6537 -0.3553  0.8460
   33CHL1   C19 2408   1.275   4.620   4.165  1.0811 -0.1218  0.2690
   33CHL1  H19A 2409   1.222   4.584   4.074  0.7532 -1.7853  1.0799
   33CHL1  H19B 2410   1.342   4.543   4.207 -2.8368 -2.7835  2.2820
   33CHL1  H19C 2411   1.193   4.644   4.236 -0.6495  1.7297 -2.1747
   33CHL1    C1 2412   1.268   4.868   4.058  0.7397  0.9662  0.1004
   33CHL1   H1A 2413   1.176   4.872   4.121 -0.5463  0.2228 -1.6426
   33CHL1   H1B 2414   1.328   4.959   4.079 -0.2138  1.3569  1.2617
   33CHL1    C2 2415   1.226   4.859   3.909 -0.1135 -0.3307 -0.1512
   33CHL1   H2A 2416   1.167   4.951   3.888  0.7039  0.5510  1.2141
   33CHL1   H2B 2417   1.164   4.768   3.897 -1.4385  0.8992 -4.0934
   33CHL1   C20 2418   1.514   4.880   4.800  0.3216  1.1356 -0.4847
   33CHL1   H20 2419   1.478   4.779   4.828  0.0710  0.4133 -3.1905
   33CHL1   C21 2420   1.393   4.978   4.801  0.4978 -0.1828 -0.3379
   33CHL1  H21A 2421   1.302   4.920   4.773  1.7820 -0.9076 -3.3529
   33CHL1  H21B 2422   1.409   5.056   4.723  1.7137 -1.1230 -1.0462
   33CHL1  H21C 2423   1.376   5.021   4.902 -0.9682 -0.3304 -0.4985
   33CHL1   C22 2424   1.617   4.932   4.906 -0.8366  0.2709  1.3131
   33CHL1  H22A 2425   1.720   4.924   4.863 -1.3286 -1.7209  0.3891
   33CHL1  H22B 2426   1.585   5.037   4.926 -4.4212  0.0675 -2.1669
   33CHL1   C23 2427   1.608   4.847   5.033 -0.2382  0.2959 -0.5374
   33CHL1  H23A 2428   1.508   4.858   5.080  0.9901 -1.9040  2.9555
   33CHL1  H23B 2429   1.622   4.738   5.025  1.2982  0.4893 -0.7681
   33CHL1   C24 2430   1.704   4.896   5.141  0.1047  0.3042  1.1136
   33CHL1  H24A 2431   1.809   4.869   5.114 -0.1241  1.6852 -1.4694
   33CHL1  H24B 2432   1.694   5.006   5.156  0.7017  0.3503  1.2349
   33CHL1   C25 2433   1.677   4.829   5.273 -0.1396 -0.4943 -0.6683
   33CHL1   H25 2434   1.568   4.841   5.289  0.1732  1.4031  0.2947
   33CHL1   C26 2435   1.699   4.675   5.278 -0.0945 -0.5173 -0.0069
   33CHL1  H26A 2436   1.634   4.622   5.206 -0.4169  0.0022 -0.1052
   33CHL1  H26B 2437   1.805   4.652   5.253 -0.8741 -1.5131 -2.6475
   33CHL1  H26C 2438   1.690   4.637   5.382 -1.3326  0.1514  0.1464
   33CHL1   C27 2439   1.746   4.901   5.399 -0.4659  1.0563 -0.4624
   33CHL1  H27A 2440   1.717   5.008   5.403 -0.0012  1.1405  1.5946
   33CHL1  H27B 2441   1.711   4.856   5.494 -0.3290 -0.2246 -1.0006
   33CHL1  H27C 2442   1.853   4.886   5.374  0.0336  1.9128  1.0126
   34CHL1    C3 2443   0.792   5.764   3.765  0.2656 -0.7785  0.6056
   34CHL1    H3 2444   0.885   5.703   3.771  0.6260 -0.6230 -2.2989
   34CHL1    O3 2445   0.781   5.784   3.624  0.0795 -0.2321  0.1536
   34CHL1   H3' 2446   0.693   5.822   3.626 -0.2569 -1.0244  0.9009
   34CHL1    C4 2447   0.673   5.689   3.815  0.3106 -0.4032 -0.3709
   34CHL1   H4A 2448   0.590   5.760   3.794  0.2111  0.1807  1.7146
   34CHL1   H4B 2449   0.644   5.607   3.747  0.1668 -1.7398  1.2407
   34CHL1    C5 2450   0.691   5.666   3.969  0.2183 -0.1552 -0.6495
   34CHL1    C6 2451   0.689   5.541   4.014  0.1575  0.2466  0.1288
   34CHL1    H6 2452   0.660   5.460   3.945 -0.8920  1.0150 -0.3425
   34CHL1    C7 2453   0.704   5.503   4.154 -0.2243  0.3136 -0.3349
   34CHL1   H7A 2454   0.625   5.432   4.185  1.4161 -1.1574  0.7154
   34CHL1   H7B 2455   0.803   5.453   4.168 -0.3794  0.0834 -0.0516
   34CHL1    C8 2456   0.697   5.616   4.259 -0.3877 -0.5939 -0.0905
   34CHL1    H8 2457   0.592   5.652   4.250  0.0702  0.7055 -0.4429
   34CHL1   C14 2458   0.740   5.583   4.402 -0.1765  0.2975 -1.0373
   34CHL1   H14 2459   0.838   5.532   4.390 -0.4120  0.2102 -2.8043
   34CHL1   C15 2460   0.678   5.467   4.486 -0.0250 -0.2513  0.3686
   34CHL1  H15A 2461   0.567   5.475   4.485  0.0506  1.1158 -1.8052
   34CHL1  H15B 2462   0.719   5.368   4.459  1.4702  0.6886 -0.9068
   34CHL1   C16 2463   0.719   5.505   4.633 -0.3357  0.1301  0.2534
   34CHL1  H16A 2464   0.617   5.512   4.678 -0.8069 -0.3888 -0.7103
   34CHL1  H16B 2465   0.773   5.430   4.694 -1.3297 -0.8846 -0.0773
   34CHL1   C17 2466   0.794   5.641   4.622  0.1136  0.4441  0.2110
   34CHL1   H17 2467   0.895   5.605   4.596  0.0092  0.1623  0.1938
   34CHL1   C13 2468   0.748   5.707   4.497  0.5767  0.2587  0.2592
   34CHL1   C18 2469   0.612   5.764   4.518  0.0389 -0.1563  0.4651
   34CHL1  H18A 2470   0.567   5.816   4.430 -0.3754 -0.1361  0.6878
   34CHL1  H18B 2471   0.534   5.694   4.555 -0.6872  0.3868 -0.0137
   34CHL1  H18C 2472   0.616   5.853   4.584  0.0563  0.1587  0.0505
   34CHL1   C12 2473   0.843   5.806   4.431  0.4126  0.0066 -0.0847
   34CHL1  H12A 2474   0.885   5.884   4.499 -1.7888  1.6406 -0.5073
   34CHL1  H12B 2475   0.931   5.742   4.406 -0.1716 -0.9734  0.3174
   34CHL1   C11 2476   0.797   5.855   4.294 -0.6307 -0.4844  0.3127
   34CHL1  H11A 2477   0.705   5.917   4.304 -0.9222 -0.7518 -0.5809
   34CHL1  H11B 2478   0.876   5.926   4.261 -0.4327 -1.2253 -0.8476
   34CHL1    C9 2479   0.774   5.734   4.197 -0.2314 -0.1523 -0.4292
   34CHL1    H9 2480   0.878   5.698   4.181  0.0683  0.5223 -0.0061
   34CHL1   C10 2481   0.718   5.784   4.058  0.4047  0.1917  0.6652
   34CHL1   C19 2482   0.593   5.880   4.076  0.4060 -0.1343 -0.3051
   34CHL1  H19A 2483   0.523   5.833   4.148  2.5055 -0.7665  1.4400
   34CHL1  H19B 2484   0.630   5.979   4.112  0.3569  0.3373 -1.4948
   34CHL1  H19C 2485   0.549   5.898   3.975 -0.7099  4.4199  0.7449
   34CHL1    C1 2486   0.840   5.854   3.994 -0.0125  1.0844 -0.3015
   34CHL1   H1A 2487   0.868   5.945   4.053  2.6299  1.0055 -1.3119
   34CHL1   H1B 2488   0.932   5.793   3.997 -0.8567 -0.2505 -0.9772
   34CHL1    C2 2489   0.810   5.897   3.839  0.2803 -0.6586 -0.5077
   34CHL1   H2A 2490   0.886   5.957   3.785  0.1188  0.5480  0.5382
   34CHL1   H2B 2491   0.714   5.953   3.833  1.2602  1.1021 -0.3340
   34CHL1   C20 2492   0.807   5.728   4.747  0.5701 -0.3634  0.7728
   34CHL1   H20 2493   0.819   5.835   4.718 -1.0009 -0.2444  0.4710
   34CHL1   C21 2494   0.912   5.661   4.833 -0.6899 -0.1260  0.4127
   34CHL1  H21A 2495   1.010   5.672   4.781  0.1816 -1.2505  1.7744
   34CHL1  H21B 2496   0.886   5.554   4.848  0.4412 -0.6398 -1.0759
   34CHL1  H21C 2497   0.915   5.709   4.933  0.7494 -1.5542  1.0940
   34CHL1   C22 2498   0.672   5.733   4.833  0.6691 -0.4153  0.8130
   34CHL1  H22A 2499   0.583   5.739   4.767 -0.4230 -0.4776  2.2313
   34CHL1  H22B 2500   0.660   5.645   4.900 -0.9125 -0.0062  1.1069
   34CHL1   C23 2501   0.661   5.860   4.920 -0.4733 -0.7319 -0.0176
   34CHL1  H23A 2502   0.756   5.879   4.974  0.1720  1.5298 -1.7662
   34CHL1  H23B 2503   0.644   5.948   4.854  2.2897 -0.2536 -0.2118
   34CHL1   C24 2504   0.533   5.853   5.010 -0.0022 -0.2118 -0.0201
   34CHL1  H24A 2505   0.449   5.838   4.939  0.4529  0.2767 -0.6822
   34CHL1  H24B 2506   0.537   5.768   5.082  0.4830 -0.6040 -0.4952
   34CHL1   C25 2507   0.514   5.977   5.101 -0.6116 -0.0954 -0.6890
   34CHL1   H25 2508   0.508   6.065   5.032  0.7777  0.7633  0.2227
   34CHL1   C26 2509   0.398   5.957   5.201 -0.0374  0.3784 -0.5042
   34CHL1  H26A 2510   0.408   5.864   5.261 -2.4373 -0.5793 -1.4843
   34CHL1  H26B 2511   0.418   6.036   5.276  2.2916 -0.1335 -0.4873
   34CHL1  H26C 2512   0.295   5.958   5.159 -0.8356 -0.1519  1.3309
   34CHL1   C27 2513   0.645   6.013   5.173  0.0417 -0.0593 -0.5713
   34CHL1  H27A 2514   0.631   6.097   5.245  1.7009 -1.4441  1.4921
   34CHL1  H27B 2515   0.695   5.933   5.233  0.9580  0.0367 -1.1835
   34CHL1  H27C 2516   0.724   6.046   5.102  0.6270 -0.0295  0.0802
   35CHL1    C3 2517   2.474   6.141   3.729 -0.3095  0.4219  0.0146
   35CHL1    H3 2518   2.419   6.048   3.755 -0.5465  0.0512 -1.7096
   35CHL1    O3 2519   2.496   6.142   3.592 -0.4905  0.0910  0.6423
   35CHL1   H3' 2520   2.533   6.229   3.573 -1.5327  0.5696  0.7207
   35CHL1    C4 2521   2.384   6.258   3.767 -0.0256  0.7229  0.3655
   35CHL1   H4A 2522   2.425   6.347   3.714  1.6324 -0.5696 -0.6028
   35CHL1   H4B 2523   2.291   6.234   3.712 -1.9794  1.2326  3.2130
   35CHL1    C5 2524   2.367   6.274   3.916 -0.1262  0.9577 -0.7013
   35CHL1    C6 2525   2.241   6.288   3.963  0.6576  0.9173 -0.1583
   35CHL1    H6 2526   2.155   6.280   3.895  1.5745  1.4280 -1.4175
   35CHL1    C7 2527   2.208   6.311   4.110 -0.0188 -0.6176 -0.2323
   35CHL1   H7A 2528   2.138   6.395   4.131 -0.4587 -1.0649  0.1313
   35CHL1   H7B 2529   2.156   6.219   4.147 -0.2704  0.0739  1.2383
   35CHL1    C8 2530   2.327   6.345   4.200  0.0126 -0.1915 -0.0050
   35CHL1    H8 2531   2.351   6.452   4.184 -0.9151 -0.1364 -1.1112
   35CHL1   C14 2532   2.290   6.311   4.345 -0.2500  0.0002  0.1825
   35CHL1   H14 2533   2.257   6.205   4.347  2.2195 -0.8449  0.1647
   35CHL1   C15 2534   2.165   6.377   4.420 -0.0029 -0.6133 -0.2818
   35CHL1  H15A 2535   2.168   6.487   4.403 -1.5776 -0.7043 -1.4799
   35CHL1  H15B 2536   2.062   6.355   4.383 -0.7588  0.5617  1.0221
   35CHL1   C16 2537   2.171   6.329   4.562 -0.7175 -0.4442 -1.0275
   35CHL1  H16A 2538   2.152   6.407   4.638 -0.6417 -0.3619 -1.0912
   35CHL1  H16B 2539   2.100   6.248   4.589  0.8975 -0.6440  3.2827
   35CHL1   C17 2540   2.320   6.276   4.580 -0.4551 -0.1875  0.2102
   35CHL1   H17 2541   2.311   6.165   4.577 -3.1112 -0.0182  0.3827
   35CHL1   C13 2542   2.402   6.317   4.447  0.2945 -0.5828  0.0361
   35CHL1   C18 2543   2.462   6.462   4.460  0.2329  0.3653 -0.0503
   35CHL1  H18A 2544   2.399   6.534   4.517 -2.0613 -1.1620 -0.5207
   35CHL1  H18B 2545   2.563   6.450   4.503  0.6174 -0.7764 -1.2117
   35CHL1  H18C 2546   2.479   6.503   4.359  1.1326  1.5674  0.5654
   35CHL1   C12 2547   2.522   6.236   4.397  0.5881  0.1094 -0.2103
   35CHL1  H12A 2548   2.612   6.250   4.461  0.2718 -1.2661  0.5852
   35CHL1  H12B 2549   2.488   6.130   4.398 -1.2097  0.6383  0.9177
   35CHL1   C11 2550   2.562   6.279   4.255  0.2531  0.1794 -0.3725
   35CHL1  H11A 2551   2.609   6.380   4.249  2.1193 -0.5616  1.0905
   35CHL1  H11B 2552   2.638   6.204   4.226 -0.6433 -1.1272  0.5849
   35CHL1    C9 2553   2.445   6.260   4.154  0.3346  0.0308  0.2693
   35CHL1    H9 2554   2.414   6.154   4.167 -2.9153  0.8962  0.4082
   35CHL1   C10 2555   2.489   6.275   4.002  0.1491 -0.2442 -0.6028
   35CHL1   C19 2556   2.569   6.410   3.989 -0.2436  0.1869  0.9931
   35CHL1  H19A 2557   2.660   6.421   4.051 -1.1291 -0.8302  2.5471
   35CHL1  H19B 2558   2.587   6.426   3.880 -1.9571  0.4416  0.7090
   35CHL1  H19C 2559   2.501   6.497   4.006  0.0725  0.5469  0.4562
   35CHL1    C1 2560   2.573   6.153   3.953  0.3077  0.5333  1.0358
   35CHL1   H1A 2561   2.675   6.172   3.991 -0.3381  1.0968  2.5458
   35CHL1   H1B 2562   2.535   6.058   3.996 -1.1791  0.5385 -0.1693
   35CHL1    C2 2563   2.596   6.145   3.803  0.4771 -0.5016  0.2070
   35CHL1   H2A 2564   2.652   6.053   3.777 -0.0392 -1.4555  2.2326
   35CHL1   H2B 2565   2.653   6.228   3.756 -1.7203 -0.2288 -2.1843
   35CHL1   C20 2566   2.384   6.301   4.717  0.8380  0.3698  0.1984
   35CHL1   H20 2567   2.418   6.406   4.725  1.0199  0.3122  0.1875
   35CHL1   C21 2568   2.511   6.223   4.734  0.3550  0.1827  0.0663
   35CHL1  H21A 2569   2.542   6.255   4.836  0.7396  1.1227 -0.3391
   35CHL1  H21B 2570   2.589   6.240   4.656  0.1588  0.5286 -0.0553
   35CHL1  H21C 2571   2.492   6.113   4.731 -0.5015  0.3046  0.7121
   35CHL1   C22 2572   2.291   6.273   4.842  0.4697  0.4641  0.4130
   35CHL1  H22A 2573   2.207   6.346   4.841 -1.7272 -1.9037  0.4604
   35CHL1  H22B 2574   2.241   6.173   4.842  0.4594  0.4688  0.5330
   35CHL1   C23 2575   2.348   6.290   4.982 -0.0242 -0.2848 -0.0247
   35CHL1  H23A 2576   2.424   6.213   5.008 -1.5854 -1.3490  1.6196
   35CHL1  H23B 2577   2.403   6.385   5.001 -2.7174  1.4314 -0.2735
   35CHL1   C24 2578   2.235   6.274   5.093  0.1428 -0.1669  0.3847
   35CHL1  H24A 2579   2.167   6.360   5.076  0.0836 -0.7721 -3.4499
   35CHL1  H24B 2580   2.182   6.182   5.059  1.0212  0.8108 -4.3053
   35CHL1   C25 2581   2.282   6.268   5.239  0.0581  0.7676  0.1823
   35CHL1   H25 2582   2.346   6.179   5.259 -0.0782  0.8339  0.9430
   35CHL1   C26 2583   2.350   6.398   5.276 -0.5486  0.4062  0.4784
   35CHL1  H26A 2584   2.383   6.399   5.382  0.4933 -0.4045  0.1785
   35CHL1  H26B 2585   2.436   6.406   5.206 -1.8004  0.5390 -1.1128
   35CHL1  H26C 2586   2.282   6.482   5.252 -2.2119 -0.8706  0.5806
   35CHL1   C27 2587   2.160   6.248   5.334  0.3971  0.8569  0.0171
   35CHL1  H27A 2588   2.183   6.231   5.442 -0.9553  1.7621  0.4744
   35CHL1  H27B 2589   2.092   6.336   5.331  0.0912  0.6201  0.0447
   35CHL1  H27C 2590   2.113   6.154   5.299  0.6382  0.1276  1.5812
   36CHL1    C3 2591   0.551   3.805   3.868  0.7026 -0.3688  0.2029
   36CHL1    H3 2592   0.505   3.896   3.913  2.8878 -0.2519  2.3626
   36CHL1    O3 2593   0.588   3.817   3.732 -0.4830 -1.1624 -0.2590
   36CHL1   H3' 2594   0.658   3.752   3.723  1.5064  0.5958  1.3458
   36CHL1    C4 2595   0.675   3.760   3.942 -0.6857 -0.1671  0.1371
   36CHL1   H4A 2596   0.696   3.666   3.886  1.0672 -0.3962  1.1150
   36CHL1   H4B 2597   0.755   3.837   3.942  0.0556 -0.8759 -1.2731
   36CHL1    C5 2598   0.646   3.724   4.082  0.4135  0.7531 -1.2301
   36CHL1    C6 2599   0.697   3.790   4.194  0.2347 -0.4822 -0.0857
   36CHL1    H6 2600   0.763   3.876   4.181 -1.6529  0.8193 -1.6823
   36CHL1    C7 2601   0.684   3.745   4.333  1.1786 -0.2924 -0.1738
   36CHL1   H7A 2602   0.789   3.745   4.371  0.8648  1.0415  0.7726
   36CHL1   H7B 2603   0.644   3.827   4.397  1.3694 -0.0865 -0.3192
   36CHL1    C8 2604   0.605   3.615   4.356  0.2760 -0.0707  0.3507
   36CHL1    H8 2605   0.675   3.529   4.355  0.2034 -0.1715  1.9246
   36CHL1   C14 2606   0.554   3.613   4.499  0.3610  0.5385 -0.3204
   36CHL1   H14 2607   0.481   3.697   4.494 -0.7223 -0.4512 -2.7263
   36CHL1   C15 2608   0.645   3.650   4.612 -0.2012 -0.1067 -0.5841
   36CHL1  H15A 2609   0.742   3.598   4.598  0.3137  0.8277 -0.5043
   36CHL1  H15B 2610   0.659   3.760   4.614 -1.0777  0.0436  2.3271
   36CHL1   C16 2611   0.575   3.602   4.737  0.7936  0.9730 -0.1680
   36CHL1  H16A 2612   0.649   3.549   4.801  2.4800  0.6662 -2.2854
   36CHL1  H16B 2613   0.521   3.686   4.787 -1.3020 -1.1285  1.2801
   36CHL1   C17 2614   0.445   3.511   4.690 -1.0175 -0.6384 -0.2643
   36CHL1   H17 2615   0.351   3.571   4.690 -0.5976  0.0771  1.5276
   36CHL1   C13 2616   0.472   3.483   4.539 -0.0924  0.0419 -0.8281
   36CHL1   C18 2617   0.553   3.359   4.526 -0.6810  0.1732  0.0630
   36CHL1  H18A 2618   0.480   3.275   4.521  1.5493 -1.8693 -0.6271
   36CHL1  H18B 2619   0.608   3.358   4.429 -0.0246  3.0756  0.3163
   36CHL1  H18C 2620   0.630   3.324   4.598  0.7881  0.3527 -1.3667
   36CHL1   C12 2621   0.354   3.494   4.447  0.7956  0.3081  0.6240
   36CHL1  H12A 2622   0.288   3.406   4.461  1.5952 -0.2793  0.7540
   36CHL1  H12B 2623   0.294   3.584   4.471 -3.1746 -1.5859 -1.2035
   36CHL1   C11 2624   0.396   3.480   4.294 -0.6925 -0.6413  0.9783
   36CHL1  H11A 2625   0.459   3.390   4.281  2.4706  1.4321  0.8975
   36CHL1  H11B 2626   0.303   3.469   4.234 -1.0286  1.2345  1.1019
   36CHL1    C9 2627   0.492   3.604   4.258 -0.1034 -0.3096  0.2329
   36CHL1    H9 2628   0.425   3.692   4.263  0.3559  0.1456 -1.2692
   36CHL1   C10 2629   0.540   3.610   4.109 -0.6418 -0.0037  0.3578
   36CHL1   C19 2630   0.608   3.474   4.078  0.3513  1.0207  0.0827
   36CHL1  H19A 2631   0.543   3.386   4.094 -0.9503  1.7035 -1.2514
   36CHL1  H19B 2632   0.624   3.475   3.968  0.1473  0.3265  0.0409
   36CHL1  H19C 2633   0.711   3.468   4.119  1.4397 -1.7279 -2.6881
   36CHL1    C1 2634   0.416   3.654   4.019 -0.7342  0.6291 -0.3418
   36CHL1   H1A 2635   0.341   3.572   4.028  2.1034 -2.2700 -1.0461
   36CHL1   H1B 2636   0.373   3.742   4.070 -0.4663  0.3235  0.4365
   36CHL1    C2 2637   0.448   3.690   3.875  0.0039 -0.1796 -0.5057
   36CHL1   H2A 2638   0.357   3.723   3.820  0.2155 -0.5994 -1.1205
   36CHL1   H2B 2639   0.486   3.601   3.822 -1.1724 -0.2246 -1.3075
   36CHL1   C20 2640   0.415   3.394   4.791  0.3214 -1.1057 -0.3417
   36CHL1   H20 2641   0.502   3.325   4.782  0.4218 -0.9116 -0.8974
   36CHL1   C21 2642   0.290   3.327   4.749  0.6660  0.0053  0.3395
   36CHL1  H21A 2643   0.196   3.386   4.745  0.7793  0.4008  2.2761
   36CHL1  H21B 2644   0.264   3.239   4.811 -2.2119  0.6126  0.1141
   36CHL1  H21C 2645   0.311   3.287   4.648 -2.7200 -3.0731  0.6673
   36CHL1   C22 2646   0.414   3.428   4.943  0.4429 -0.4563 -0.2432
   36CHL1  H22A 2647   0.503   3.493   4.958  0.6022 -0.5063 -0.9420
   36CHL1  H22B 2648   0.335   3.501   4.970 -0.3283 -0.2482 -2.7983
   36CHL1   C23 2649   0.400   3.307   5.036 -0.5585 -0.4968 -0.5544
   36CHL1  H23A 2650   0.301   3.265   5.012 -0.1034 -1.3896 -0.9052
   36CHL1  H23B 2651   0.476   3.233   5.005 -0.3801 -1.6528  2.3237
   36CHL1   C24 2652   0.423   3.359   5.178 -0.4005 -0.4560  0.1555
   36CHL1  H24A 2653   0.521   3.411   5.184 -1.8780  2.4443  1.8975
   36CHL1  H24B 2654   0.346   3.437   5.195  1.9838  2.2589 -0.6708
   36CHL1   C25 2655   0.394   3.254   5.288 -0.0096  0.4000  1.0398
   36CHL1   H25 2656   0.284   3.252   5.299 -0.2516  1.2271 -0.9147
   36CHL1   C26 2657   0.452   3.122   5.240  0.7668  0.1342 -0.3849
   36CHL1  H26A 2658   0.417   3.087   5.140 -1.3157 -1.1800  0.7490
   36CHL1  H26B 2659   0.557   3.154   5.221  1.1410  0.1350  1.5557
   36CHL1  H26C 2660   0.447   3.039   5.314  2.2332  1.0945  0.8643
   36CHL1   C27 2661   0.448   3.305   5.423  0.3111 -0.2759 -0.4657
   36CHL1  H27A 2662   0.407   3.251   5.511  0.8634  0.6267  0.3577
   36CHL1  H27B 2663   0.558   3.291   5.416  0.3674  0.6508 -1.8094
   36CHL1  H27C 2664   0.423   3.412   5.439 -0.8003 -0.3080 -1.7842
   37CHL1    C3 2665   0.890   0.426   3.552 -0.0706 -0.0140 -0.2019
   37CHL1    H3 2666   0.825   0.513   3.575 -1.1841 -1.1788  1.2003
   37CHL1    O3 2667   0.864   0.378   3.423  0.0908  0.5125  0.1692
   37CHL1   H3' 2668   0.950   0.336   3.416  0.0213  0.5851 -1.3639
   37CHL1    C4 2669   1.029   0.487   3.565 -0.9130  0.3862 -0.5735
   37CHL1   H4A 2670   1.103   0.419   3.518 -1.3068 -1.5381  1.4418
   37CHL1   H4B 2671   1.024   0.579   3.501  1.0061  0.7940 -0.1999
   37CHL1    C5 2672   1.068   0.528   3.702 -0.0459 -0.2485 -0.2070
   37CHL1    C6 2673   1.107   0.661   3.722 -0.9736  0.0168 -0.1213
   37CHL1    H6 2674   1.111   0.741   3.647  3.2745 -0.2224 -0.4150
   37CHL1    C7 2675   1.133   0.711   3.861  0.1502  0.0094 -0.2174
   37CHL1   H7A 2676   1.221   0.778   3.861  0.3731 -0.2359 -2.0559
   37CHL1   H7B 2677   1.043   0.769   3.891  0.0795 -0.3851  0.3377
   37CHL1    C8 2678   1.157   0.600   3.966 -0.4421 -0.2196  1.2018
   37CHL1    H8 2679   1.255   0.550   3.951 -1.0821 -1.9697  2.5499
   37CHL1   C14 2680   1.158   0.653   4.107 -0.1157 -0.7833 -0.6785
   37CHL1   H14 2681   1.052   0.682   4.123 -0.2286 -1.3230 -0.4283
   37CHL1   C15 2682   1.252   0.769   4.133 -1.0912  0.0733 -0.0674
   37CHL1  H15A 2683   1.349   0.750   4.082 -2.3607  0.7423 -2.9473
   37CHL1  H15B 2684   1.210   0.867   4.100 -1.3908  0.1446  0.5203
   37CHL1   C16 2685   1.263   0.771   4.285 -0.2861  0.1112  0.2554
   37CHL1  H16A 2686   1.369   0.763   4.316  0.2360  1.3269 -1.0967
   37CHL1  H16B 2687   1.225   0.865   4.331 -0.3049  0.0193  0.4301
   37CHL1   C17 2688   1.176   0.653   4.340 -0.0946  0.4969 -0.1284
   37CHL1   H17 2689   1.071   0.686   4.351 -0.7102 -0.4241 -2.5303
   37CHL1   C13 2690   1.180   0.552   4.222  0.2440  0.2302  0.0438
   37CHL1   C18 2691   1.319   0.483   4.223 -0.5557 -0.1895 -0.7434
   37CHL1  H18A 2692   1.335   0.415   4.309 -0.7107  2.1267  1.2277
   37CHL1  H18B 2693   1.329   0.427   4.128 -1.7060 -0.0932 -0.9256
   37CHL1  H18C 2694   1.405   0.553   4.215  0.3600 -1.1710  0.0866
   37CHL1   C12 2695   1.064   0.452   4.210  0.4370 -0.7458  0.1805
   37CHL1  H12A 2696   1.066   0.377   4.292 -1.6131  0.3080  1.2798
   37CHL1  H12B 2697   0.976   0.516   4.234  1.4678  1.3729 -1.3765
   37CHL1   C11 2698   1.061   0.394   4.070 -0.4278 -0.1229 -1.2261
   37CHL1  H11A 2699   1.152   0.330   4.062  0.0711  0.3716  0.2495
   37CHL1  H11B 2700   0.974   0.324   4.073  1.8394 -3.1381  0.8090
   37CHL1    C9 2701   1.042   0.501   3.956 -0.5335  0.8742 -0.6045
   37CHL1    H9 2702   0.949   0.560   3.970 -0.2401  1.3989 -0.8262
   37CHL1   C10 2703   1.040   0.430   3.813  0.4604  0.3147 -0.1162
   37CHL1   C19 2704   1.148   0.321   3.803  0.3323  0.4035  0.9948
   37CHL1  H19A 2705   1.169   0.277   3.703  0.2907 -0.8311  1.5062
   37CHL1  H19B 2706   1.248   0.363   3.825  1.6230 -2.2176  0.5201
   37CHL1  H19C 2707   1.124   0.230   3.862  1.0506 -1.8454 -1.9233
   37CHL1    C1 2708   0.897   0.369   3.793 -0.1164  0.3865 -0.6519
   37CHL1   H1A 2709   0.885   0.291   3.872 -0.4038  1.6751  0.6103
   37CHL1   H1B 2710   0.822   0.448   3.813  2.5187  2.8854  0.0389
   37CHL1    C2 2711   0.875   0.309   3.653 -1.0567 -0.1168  0.3575
   37CHL1   H2A 2712   0.778   0.256   3.647 -0.4275 -1.2475 -0.4021
   37CHL1   H2B 2713   0.954   0.234   3.632 -0.2692  1.3387 -2.3163
   37CHL1   C20 2714   1.214   0.616   4.486  0.0219  0.3334  0.5185
   37CHL1   H20 2715   1.314   0.567   4.487 -0.1857 -0.1580 -0.7058
   37CHL1   C21 2716   1.111   0.513   4.535 -0.4085  0.6234  0.0242
   37CHL1  H21A 2717   1.007   0.543   4.509 -0.3954 -0.4354 -1.3953
   37CHL1  H21B 2718   1.123   0.502   4.645  0.2872 -0.2347 -0.1264
   37CHL1  H21C 2719   1.125   0.406   4.507 -1.3290 -0.4418  3.2529
   37CHL1   C22 2720   1.232   0.745   4.577 -0.0505  0.2292  0.7459
   37CHL1  H22A 2721   1.309   0.816   4.542 -0.5157  0.7671  0.7974
   37CHL1  H22B 2722   1.133   0.795   4.584 -2.2951 -3.5047 -0.8865
   37CHL1   C23 2723   1.258   0.704   4.725  0.4775  0.1084 -0.2546
   37CHL1  H23A 2724   1.173   0.652   4.774 -0.4032  0.1264 -1.7038
   37CHL1  H23B 2725   1.342   0.632   4.716  0.2184 -0.0021 -2.0621
   37CHL1   C24 2726   1.307   0.817   4.814 -0.5711  0.2023  0.3365
   37CHL1  H24A 2727   1.396   0.861   4.764 -0.2939 -0.4200  0.2759
   37CHL1  H24B 2728   1.228   0.895   4.819 -0.6140  0.0809  1.9773
   37CHL1   C25 2729   1.333   0.773   4.951  0.4517  0.0984 -0.1382
   37CHL1   H25 2730   1.257   0.703   4.992  0.8466 -0.5392 -0.4842
   37CHL1   C26 2731   1.468   0.699   4.950  0.1434 -0.0957 -0.3623
   37CHL1  H26A 2732   1.548   0.773   4.932  2.2720 -1.8559  1.3242
   37CHL1  H26B 2733   1.494   0.648   5.045  4.0999  1.0602 -0.6626
   37CHL1  H26C 2734   1.475   0.625   4.868 -1.1211  0.3566 -0.9147
   37CHL1   C27 2735   1.347   0.893   5.048  0.1349  0.1387  0.4896
   37CHL1  H27A 2736   1.416   0.964   4.997 -0.4079  2.4803  2.7930
   37CHL1  H27B 2737   1.248   0.944   5.058 -1.6940 -2.7644 -1.2133
   37CHL1  H27C 2738   1.384   0.873   5.150 -1.9039  0.6162  1.3676
   38CHL1    C3 2739   6.481   6.251   3.852 -0.2751 -0.1750  0.4258
   38CHL1    H3 2740   6.432   6.346   3.884  2.0663  1.6816 -1.1491
   38CHL1    O3 2741   6.456   6.225   3.713  0.5246  0.4228  0.3831
   38CHL1   H3' 2742   6.370   6.186   3.698 -1.3049  3.7015  1.4164
   38CHL1    C4 2743   6.634   6.255   3.884  1.0095 -0.1527  0.1979
   38CHL1   H4A 2744   6.694   6.166   3.857  3.2569  1.2999  0.1569
   38CHL1   H4B 2745   6.688   6.325   3.816  0.9859 -1.3800 -1.1474
   38CHL1    C5 2746   6.664   6.273   4.030 -0.2401 -0.1377 -0.3877
   38CHL1    C6 2747   6.743   6.369   4.077 -0.0534  0.2839 -0.2197
   38CHL1    H6 2748   6.788   6.435   4.002 -1.3003  0.1326 -1.1251
   38CHL1    C7 2749   6.791   6.393   4.218 -0.3211 -0.0175  0.3351
   38CHL1   H7A 2750   6.900   6.374   4.224 -0.3276 -0.7698 -1.2797
   38CHL1   H7B 2751   6.770   6.497   4.252 -2.9151 -0.3563  0.0208
   38CHL1    C8 2752   6.731   6.278   4.302 -0.4155 -0.2497 -0.1964
   38CHL1    H8 2753   6.801   6.194   4.286  0.8256  0.7866 -0.3244
   38CHL1   C14 2754   6.738   6.326   4.446  0.0663  0.9400  0.6074
   38CHL1   H14 2755   6.659   6.404   4.442 -1.2960 -0.4414 -1.5255
   38CHL1   C15 2756   6.859   6.401   4.496 -0.5438  0.4355  0.5949
   38CHL1  H15A 2757   6.951   6.346   4.467 -0.0275  0.3224  2.2855
   38CHL1  H15B 2758   6.882   6.504   4.462 -0.8015  0.6149  0.9539
   38CHL1   C16 2759   6.847   6.391   4.650  0.6335  0.8595 -0.4526
   38CHL1  H16A 2760   6.936   6.341   4.693  1.7063  3.3087  0.3601
   38CHL1  H16B 2761   6.835   6.492   4.693  1.4193  1.2025 -1.0095
   38CHL1   C17 2762   6.712   6.312   4.675 -0.1842 -0.1648  0.0959
   38CHL1   H17 2763   6.631   6.389   4.671 -1.0284 -1.0083  0.5174
   38CHL1   C13 2764   6.694   6.229   4.551 -0.3481  0.5632  0.5997
   38CHL1   C18 2765   6.792   6.108   4.561  0.2912 -0.1297 -0.0899
   38CHL1  H18A 2766   6.900   6.123   4.580  0.2574 -1.4039  1.2930
   38CHL1  H18B 2767   6.745   6.042   4.638 -1.1641  1.1177  0.1499
   38CHL1  H18C 2768   6.792   6.050   4.466 -0.7490  0.4175 -0.4413
   38CHL1   C12 2769   6.552   6.181   4.512 -0.2715  0.4690  0.3118
   38CHL1  H12A 2770   6.522   6.097   4.579 -0.8063  1.0700  0.8329
   38CHL1  H12B 2771   6.478   6.263   4.522 -1.3381 -0.3227 -0.8627
   38CHL1   C11 2772   6.545   6.121   4.367  0.2714  0.3746  0.4453
   38CHL1  H11A 2773   6.610   6.031   4.374  1.1402  0.9129 -0.4518
   38CHL1  H11B 2774   6.441   6.087   4.348  1.0377 -1.4132 -0.7933
   38CHL1    C9 2775   6.595   6.225   4.263 -0.2790 -0.4217 -0.3775
   38CHL1    H9 2776   6.521   6.308   4.269 -0.3414 -0.0918 -3.7180
   38CHL1   C10 2777   6.591   6.175   4.122  0.6683  0.3812  0.8265
   38CHL1   C19 2778   6.653   6.031   4.111 -0.1460 -0.5892  0.5063
   38CHL1  H19A 2779   6.611   5.951   4.175  2.0167  0.8916  4.0429
   38CHL1  H19B 2780   6.639   5.994   4.007  3.3914  0.7356 -0.5854
   38CHL1  H19C 2781   6.761   6.033   4.132 -0.0067  1.3447 -0.1339
   38CHL1    C1 2782   6.442   6.165   4.079  0.1683 -0.8115  0.0772
   38CHL1   H1A 2783   6.388   6.092   4.143  0.3985 -1.9624 -1.0010
   38CHL1   H1B 2784   6.396   6.265   4.096  1.6744 -0.3009  1.5090
   38CHL1    C2 2785   6.418   6.140   3.925  0.1294  0.1335  0.1272
   38CHL1   H2A 2786   6.313   6.124   3.890 -0.0096  1.9451 -0.3626
   38CHL1   H2B 2787   6.466   6.046   3.891 -0.7176 -0.1549 -0.3180
   38CHL1   C20 2788   6.707   6.243   4.811 -0.0515 -0.0828  0.0574
   38CHL1   H20 2789   6.798   6.179   4.817 -0.0776 -0.0700  0.7425
   38CHL1   C21 2790   6.581   6.153   4.832 -0.4459  0.0381 -0.1173
   38CHL1  H21A 2791   6.603   6.049   4.801 -0.1792  0.7122 -2.3615
   38CHL1  H21B 2792   6.503   6.187   4.761  0.9091  1.0747 -1.1765
   38CHL1  H21C 2793   6.541   6.162   4.935  2.3823 -0.7222  1.1561
   38CHL1   C22 2794   6.702   6.353   4.921 -0.7686 -0.6622 -0.2626
   38CHL1  H22A 2795   6.790   6.418   4.902 -0.6563  0.3621  3.0652
   38CHL1  H22B 2796   6.610   6.413   4.906  0.2889  0.9779 -0.4644
   38CHL1   C23 2797   6.720   6.301   5.068  0.1620  0.2384  0.4622
   38CHL1  H23A 2798   6.650   6.219   5.095  1.1180 -0.5511  0.5668
   38CHL1  H23B 2799   6.821   6.258   5.080  0.2884 -0.1446 -1.6313
   38CHL1   C24 2800   6.701   6.409   5.170  0.1552 -0.1484  0.7827
   38CHL1  H24A 2801   6.757   6.504   5.154  0.0536 -0.1930  0.1560
   38CHL1  H24B 2802   6.596   6.443   5.162  0.2065 -0.3297 -1.0423
   38CHL1   C25 2803   6.724   6.363   5.316 -0.5578 -0.9442 -0.1323
   38CHL1   H25 2804   6.658   6.276   5.336  0.8366 -2.2967 -1.1946
   38CHL1   C26 2805   6.872   6.337   5.357 -0.1777 -0.5838 -0.3893
   38CHL1  H26A 2806   6.865   6.281   5.453  4.1966 -0.2001  0.3372
   38CHL1  H26B 2807   6.920   6.268   5.284  3.3708  0.0852  1.0943
   38CHL1  H26C 2808   6.934   6.428   5.372 -0.5595 -0.1071 -1.5373
   38CHL1   C27 2809   6.681   6.477   5.412  0.4800  0.1555 -0.0336
   38CHL1  H27A 2810   6.743   6.568   5.405 -0.9940  1.1905 -0.1472
   38CHL1  H27B 2811   6.576   6.507   5.390  0.1590  0.4066  1.7416
   38CHL1  H27C 2812   6.687   6.434   5.514  1.0171  1.8276  0.6643
   39CHL1    C3 2813   5.356   2.921   6.638  0.2192 -0.4077  0.0803
   39CHL1    H3 2814   5.324   3.022   6.604  0.4573 -0.7821 -1.3302
   39CHL1    O3 2815   5.360   2.912   6.776  0.5306  0.4268  0.0689
   39CHL1   H3' 2816   5.386   2.820   6.789 -0.5556  0.2253  1.1281
   39CHL1    C4 2817   5.258   2.812   6.585  0.5907  0.6149  0.6928
   39CHL1   H4A 2818   5.294   2.716   6.628  0.4555  1.1220  2.0139
   39CHL1   H4B 2819   5.166   2.830   6.645  1.4533  1.2466  1.8718
   39CHL1    C5 2820   5.248   2.820   6.433  0.1771  0.3507  0.9255
   39CHL1    C6 2821   5.130   2.837   6.381 -0.3475 -0.2184  0.0098
   39CHL1    H6 2822   5.046   2.857   6.449  0.8686  1.8046  1.0296
   39CHL1    C7 2823   5.116   2.842   6.227  0.1052 -0.1013  0.1325
   39CHL1   H7A 2824   5.035   2.776   6.189  1.5767 -2.1941  0.4158
   39CHL1   H7B 2825   5.090   2.942   6.189  1.2227 -0.2675 -1.1492
   39CHL1    C8 2826   5.234   2.802   6.140 -0.3080  0.4986 -0.1405
   39CHL1    H8 2827   5.238   2.691   6.137 -0.3980  0.4010  1.8466
   39CHL1   C14 2828   5.224   2.860   5.999 -0.1200 -0.4715 -0.4225
   39CHL1   H14 2829   5.223   2.969   6.017  0.3630 -0.6706  0.9633
   39CHL1   C15 2830   5.088   2.857   5.924  0.0030  0.0261 -0.4405
   39CHL1  H15A 2831   5.038   2.758   5.915 -1.1863  0.5944 -0.3088
   39CHL1  H15B 2832   5.011   2.927   5.963  0.1382  0.8008 -1.5307
   39CHL1   C16 2833   5.123   2.900   5.780 -0.5093 -0.3758  0.2629
   39CHL1  H16A 2834   5.087   2.822   5.710  0.1719 -0.7819  0.3539
   39CHL1  H16B 2835   5.074   2.998   5.761 -0.3747 -0.2230  0.6884
   39CHL1   C17 2836   5.289   2.905   5.773 -0.6812 -0.8755 -0.3011
   39CHL1   H17 2837   5.315   3.012   5.789 -2.3633 -0.2128 -1.7481
   39CHL1   C13 2838   5.335   2.827   5.897 -0.0942  0.3122 -0.5621
   39CHL1   C18 2839   5.337   2.682   5.865  0.3950  0.4035  0.2353
   39CHL1  H18A 2840   5.349   2.613   5.951  0.5910  0.3282  0.1488
   39CHL1  H18B 2841   5.249   2.644   5.809  0.5213 -0.5678  0.6809
   39CHL1  H18C 2842   5.428   2.658   5.806  0.4978 -0.7524  0.8495
   39CHL1   C12 2843   5.466   2.865   5.967 -0.3802 -0.3470  0.7138
   39CHL1  H12A 2844   5.544   2.805   5.917  1.7308 -0.0092  3.3942
   39CHL1  H12B 2845   5.496   2.972   5.968 -0.7183 -0.2201 -0.4777
   39CHL1   C11 2846   5.486   2.813   6.113 -0.7276  0.4898 -0.0300
   39CHL1  H11A 2847   5.518   2.707   6.107 -0.8779  0.4744 -0.5519
   39CHL1  H11B 2848   5.585   2.847   6.153 -0.5630  0.4209 -0.3796
   39CHL1    C9 2849   5.368   2.853   6.204 -0.5778 -0.0203 -0.6387
   39CHL1    H9 2850   5.359   2.964   6.202  1.6952  0.2068 -1.5666
   39CHL1   C10 2851   5.384   2.819   6.353  0.8233  0.3727  0.2556
   39CHL1   C19 2852   5.443   2.670   6.359 -0.0086 -0.6757  0.5759
   39CHL1  H19A 2853   5.545   2.665   6.314  1.1558  0.8690  2.7979
   39CHL1  H19B 2854   5.461   2.633   6.462 -1.3140 -0.4316  0.9029
   39CHL1  H19C 2855   5.383   2.600   6.299 -0.9331  2.5467 -2.6184
   39CHL1    C1 2856   5.488   2.917   6.428 -0.0376  0.2854  0.2666
   39CHL1   H1A 2857   5.587   2.888   6.387 -0.8589 -2.2450 -0.0850
   39CHL1   H1B 2858   5.469   3.026   6.414  4.8305  1.5179  1.2726
   39CHL1    C2 2859   5.502   2.898   6.582 -0.1106  0.5313 -0.6745
   39CHL1   H2A 2860   5.575   2.962   6.636 -0.8893  0.2449  0.7835
   39CHL1   H2B 2861   5.535   2.795   6.608 -4.0258 -0.8457 -0.5522
   39CHL1   C20 2862   5.346   2.868   5.635 -0.5250 -0.1439 -0.5230
   39CHL1   H20 2863   5.324   2.760   5.619 -0.5731 -0.6167  2.1981
   39CHL1   C21 2864   5.501   2.886   5.633  0.0479  0.6090 -0.2483
   39CHL1  H21A 2865   5.534   2.980   5.681 -0.5677 -0.5981  2.8200
   39CHL1  H21B 2866   5.525   2.870   5.526 -0.1842 -1.6073 -0.0216
   39CHL1  H21C 2867   5.559   2.807   5.686 -0.0842  0.2969 -0.5659
   39CHL1   C22 2868   5.272   2.939   5.523  0.3632 -0.5741 -0.4550
   39CHL1  H22A 2869   5.165   2.946   5.554  1.1334  1.3892  2.1436
   39CHL1  H22B 2870   5.306   3.045   5.522  0.1166 -0.4572  1.0848
   39CHL1   C23 2871   5.278   2.872   5.386  0.4608  0.0017  0.1947
   39CHL1  H23A 2872   5.265   2.761   5.390  2.9267 -0.4937 -2.7503
   39CHL1  H23B 2873   5.191   2.903   5.324  0.7335 -0.5797 -0.4953
   39CHL1   C24 2874   5.395   2.910   5.296  0.9061 -0.1207 -0.5807
   39CHL1  H24A 2875   5.407   3.017   5.323  1.6217 -0.4067  0.2795
   39CHL1  H24B 2876   5.488   2.854   5.323  1.4714 -0.3516 -2.8013
   39CHL1   C25 2877   5.365   2.914   5.143 -0.1527  0.5155  0.4294
   39CHL1   H25 2878   5.467   2.933   5.103 -0.0805  0.9013  0.7960
   39CHL1   C26 2879   5.322   2.779   5.074  0.3214  0.1534  0.6594
   39CHL1  H26A 2880   5.219   2.747   5.103  0.3754 -1.2006 -0.5266
   39CHL1  H26B 2881   5.329   2.793   4.964  0.3177  0.7688  0.7379
   39CHL1  H26C 2882   5.386   2.691   5.094  0.1199  0.3381  2.2313
   39CHL1   C27 2883   5.263   3.030   5.108 -0.2942  0.0661 -0.2011
   39CHL1  H27A 2884   5.164   3.015   5.157 -0.2308 -2.7731 -0.7360
   39CHL1  H27B 2885   5.293   3.132   5.140 -3.0741  0.4823  1.4340
   39CHL1  H27C 2886   5.258   3.026   4.997  1.8053 -0.9547 -0.3159
   40CHL1    C3 2887   6.580   5.203   3.971 -0.0198 -0.2694 -0.0014
   40CHL1    H3 2888   6.532   5.300   3.998  0.2198 -0.2885  0.5001
   40CHL1    O3 2889   6.577   5.183   3.831 -0.2384 -0.0243 -0.5865
   40CHL1   H3' 2890   6.486   5.153   3.821 -1.0520  1.7017  0.9456
   40CHL1    C4 2891   6.717   5.204   4.024 -0.5752  0.5602  0.2586
   40CHL1   H4A 2892   6.767   5.105   4.018 -1.3638  0.1111  0.9678
   40CHL1   H4B 2893   6.779   5.272   3.962 -0.9690 -0.5933 -1.4767
   40CHL1    C5 2894   6.713   5.232   4.173 -0.1254  0.6246  0.0654
   40CHL1    C6 2895   6.772   5.335   4.224 -0.3728 -0.6072 -0.0988
   40CHL1    H6 2896   6.829   5.404   4.159  1.0760 -0.9439  0.7638
   40CHL1    C7 2897   6.770   5.381   4.367 -0.6018 -0.6179  0.2135
   40CHL1   H7A 2898   6.869   5.405   4.412 -0.0226 -2.8768  0.2723
   40CHL1   H7B 2899   6.706   5.472   4.373 -1.5605 -1.3666  1.7686
   40CHL1    C8 2900   6.721   5.267   4.460  0.5329  0.7319 -0.0720
   40CHL1    H8 2901   6.791   5.184   4.480 -1.2687 -1.1578 -1.1618
   40CHL1   C14 2902   6.683   5.328   4.598  0.4934  0.2938  0.5420
   40CHL1   H14 2903   6.596   5.394   4.578  0.7178  0.9806  1.7700
   40CHL1   C15 2904   6.788   5.426   4.666 -0.8709 -0.1476  0.3376
   40CHL1  H15A 2905   6.890   5.388   4.645 -0.2518  1.1936  0.7756
   40CHL1  H15B 2906   6.775   5.531   4.632 -2.1227 -0.1939  0.6186
   40CHL1   C16 2907   6.749   5.413   4.812 -0.1057 -0.0512  0.3183
   40CHL1  H16A 2908   6.839   5.369   4.859 -0.5853 -1.0999  0.2759
   40CHL1  H16B 2909   6.720   5.511   4.855  0.2054  0.8016 -1.3250
   40CHL1   C17 2910   6.626   5.326   4.816  1.0287 -0.2901 -0.2835
   40CHL1   H17 2911   6.547   5.398   4.787  2.5978  0.8456 -1.9991
   40CHL1   C13 2912   6.633   5.232   4.700  0.2969  0.7526 -0.6391
   40CHL1   C18 2913   6.745   5.118   4.730 -0.6115 -0.6447  0.2117
   40CHL1  H18A 2914   6.721   5.054   4.817 -2.6165 -3.3899 -2.2067
   40CHL1  H18B 2915   6.749   5.050   4.643  0.2684 -2.2042  1.4129
   40CHL1  H18C 2916   6.845   5.168   4.732 -1.1656  0.4818  1.2157
   40CHL1   C12 2917   6.498   5.166   4.646 -0.0643 -0.1916  0.1967
   40CHL1  H12A 2918   6.459   5.088   4.715  0.3301 -0.9490 -0.4191
   40CHL1  H12B 2919   6.422   5.248   4.639  2.8059  2.5697 -0.7774
   40CHL1   C11 2920   6.526   5.103   4.508 -0.0855  0.4804  0.3701
   40CHL1  H11A 2921   6.593   5.016   4.527  0.5214  0.8122 -0.2008
   40CHL1  H11B 2922   6.437   5.062   4.456  1.3013 -0.4854 -1.3411
   40CHL1    C9 2923   6.592   5.200   4.408 -0.4367  1.1885 -0.1798
   40CHL1    H9 2924   6.516   5.281   4.411  0.1945  1.7658  2.1282
   40CHL1   C10 2925   6.618   5.147   4.265 -0.1335 -0.7334 -0.0760
   40CHL1   C19 2926   6.677   5.003   4.269 -0.7671 -0.4721  0.1800
   40CHL1  H19A 2927   6.704   4.967   4.168 -2.3094 -2.7754  0.4993
   40CHL1  H19B 2928   6.770   5.009   4.330 -2.2256  0.6222  2.4536
   40CHL1  H19C 2929   6.610   4.923   4.310 -0.2970 -1.0576 -0.1715
   40CHL1    C1 2930   6.479   5.129   4.188 -0.0505  0.3040  0.4842
   40CHL1   H1A 2931   6.407   5.065   4.244 -0.9932  3.1243  2.7384
   40CHL1   H1B 2932   6.433   5.230   4.192  3.0862  1.9103 -0.8986
   40CHL1    C2 2933   6.494   5.092   4.039  0.2740  0.0396 -0.0390
   40CHL1   H2A 2934   6.392   5.081   3.997  0.4649  0.4753 -0.6375
   40CHL1   H2B 2935   6.548   4.995   4.034 -0.5181 -0.3669 -1.0777
   40CHL1   C20 2936   6.606   5.265   4.967  0.5516 -0.3022  0.1282
   40CHL1   H20 2937   6.653   5.164   4.968  1.8251 -0.0829 -5.4775
   40CHL1   C21 2938   6.460   5.253   5.004 -0.1416 -0.4312  0.7354
   40CHL1  H21A 2939   6.409   5.210   4.916 -1.6179  0.6119  1.0526
   40CHL1  H21B 2940   6.417   5.350   5.037  0.3797 -0.4030  1.3665
   40CHL1  H21C 2941   6.453   5.188   5.094  0.0414  1.5148  2.2026
   40CHL1   C22 2942   6.685   5.344   5.084  0.4541  0.4157  0.0687
   40CHL1  H22A 2943   6.792   5.313   5.086  0.8784  1.6979  3.1157
   40CHL1  H22B 2944   6.678   5.454   5.072  1.0792  0.4302 -0.2048
   40CHL1   C23 2945   6.649   5.324   5.233  0.1682  0.3255 -0.9476
   40CHL1  H23A 2946   6.542   5.337   5.259  0.3002  0.0481 -0.2507
   40CHL1  H23B 2947   6.665   5.215   5.248  0.6187  0.1723 -2.4319
   40CHL1   C24 2948   6.744   5.413   5.322  0.4679  0.0237 -0.7239
   40CHL1  H24A 2949   6.848   5.398   5.284  0.3653  0.0489 -1.0138
   40CHL1  H24B 2950   6.711   5.517   5.302  0.7065 -0.2905 -3.0029
   40CHL1   C25 2951   6.744   5.377   5.471  0.1967  0.2429 -0.8327
   40CHL1   H25 2952   6.752   5.266   5.482  2.3037  0.5002  1.0070
   40CHL1   C26 2953   6.874   5.433   5.535 -0.1409 -0.1955 -0.0068
   40CHL1  H26A 2954   6.897   5.397   5.638 -0.3637 -0.9183 -0.1976
   40CHL1  H26B 2955   6.961   5.409   5.470  0.8060  0.8347  0.8500
   40CHL1  H26C 2956   6.872   5.541   5.559  0.8191 -0.1021 -0.3061
   40CHL1   C27 2957   6.612   5.418   5.541  0.1224  0.1857  0.3636
   40CHL1  H27A 2958   6.607   5.387   5.648  1.9190 -0.7815  0.2180
   40CHL1  H27B 2959   6.603   5.528   5.537  2.0455  0.4613  2.1436
   40CHL1  H27C 2960   6.521   5.383   5.488  0.7541 -0.5838 -0.2395
   41CHL1    C3 2961   4.003   6.261   3.889  0.9671 -0.2682 -0.1816
   41CHL1    H3 2962   3.922   6.237   3.960  2.2890 -1.2569  1.0468
   41CHL1    O3 2963   3.956   6.223   3.765  0.2552 -0.0724 -0.4089
   41CHL1   H3' 2964   4.002   6.269   3.695 -2.2911  2.4975 -0.5973
   41CHL1    C4 2965   4.024   6.408   3.895  0.0437 -0.7458 -0.3358
   41CHL1   H4A 2966   4.103   6.435   3.821 -0.5433 -0.5037 -0.8820
   41CHL1   H4B 2967   3.932   6.464   3.871 -0.0487 -0.6288  0.2879
   41CHL1    C5 2968   4.073   6.443   4.037 -0.2770  0.5330 -0.1067
   41CHL1    C6 2969   4.005   6.528   4.114  0.8224 -0.1365  0.0678
   41CHL1    H6 2970   3.921   6.580   4.066  0.4584  0.4179  1.2529
   41CHL1    C7 2971   4.040   6.572   4.252 -0.5102  0.2675 -0.8165
   41CHL1   H7A 2972   4.045   6.683   4.254  1.2184  0.2130  1.3687
   41CHL1   H7B 2973   3.972   6.529   4.328  0.9204  1.2516  1.0915
   41CHL1    C8 2974   4.185   6.530   4.290 -0.0687 -0.6613 -0.2741
   41CHL1    H8 2975   4.256   6.602   4.244 -0.7591  1.2889  1.5327
   41CHL1   C14 2976   4.202   6.526   4.442  0.5964  0.0473 -0.2854
   41CHL1   H14 2977   4.130   6.444   4.463  1.1231 -0.6700 -1.2365
   41CHL1   C15 2978   4.160   6.645   4.524  0.1437  0.2551 -0.9305
   41CHL1  H15A 2979   4.174   6.738   4.465  2.0330  0.0498 -0.8492
   41CHL1  H15B 2980   4.053   6.644   4.556  0.9354 -1.0417  2.0768
   41CHL1   C16 2981   4.238   6.640   4.656 -0.2623 -0.0576  0.3508
   41CHL1  H16A 2982   4.305   6.729   4.662 -1.7737  1.1669 -0.2700
   41CHL1  H16B 2983   4.176   6.648   4.748  0.5956  1.4872  0.8407
   41CHL1   C17 2984   4.308   6.499   4.648  0.5243  0.6462  0.1340
   41CHL1   H17 2985   4.237   6.418   4.675  1.5386 -1.2533 -2.5390
   41CHL1   C13 2986   4.341   6.488   4.499  0.7879 -0.5857 -0.9563
   41CHL1   C18 2987   4.441   6.595   4.462 -0.3679 -0.6774 -0.2648
   41CHL1  H18A 2988   4.407   6.695   4.494 -1.6185 -0.9060 -0.7858
   41CHL1  H18B 2989   4.539   6.563   4.501 -0.0027  0.1101 -0.5269
   41CHL1  H18C 2990   4.445   6.597   4.351  0.5605 -1.2480 -0.2537
   41CHL1   C12 2991   4.376   6.358   4.439 -0.5898  0.6694  1.0526
   41CHL1  H12A 2992   4.485   6.342   4.450 -0.3949  0.6027 -0.6249
   41CHL1  H12B 2993   4.324   6.276   4.493 -0.5513  0.1142  0.2849
   41CHL1   C11 2994   4.363   6.346   4.286 -0.5905 -0.6350 -0.5206
   41CHL1  H11A 2995   4.430   6.427   4.248 -1.2359  0.0200 -0.2977
   41CHL1  H11B 2996   4.415   6.257   4.245  0.1769  1.1243 -3.6708
   41CHL1    C9 2997   4.221   6.389   4.238 -0.3351  0.4773 -0.5518
   41CHL1    H9 2998   4.147   6.324   4.289 -1.6095  2.0434 -0.3236
   41CHL1   C10 2999   4.199   6.368   4.085  0.6339  0.0047  0.0376
   41CHL1   C19 3000   4.323   6.410   4.004 -0.1711  0.1514  0.1453
   41CHL1  H19A 3001   4.336   6.518   4.026  0.6111 -0.0051  0.4822
   41CHL1  H19B 3002   4.413   6.351   4.031 -0.8711 -1.1025 -0.2040
   41CHL1  H19C 3003   4.301   6.400   3.895 -1.1673  1.8843  0.1503
   41CHL1    C1 3004   4.178   6.215   4.066  0.5876  0.0774  1.0561
   41CHL1   H1A 3005   4.278   6.178   4.099  0.6035 -0.2011  0.6872
   41CHL1   H1B 3006   4.103   6.176   4.138 -0.6451  1.2958  0.4767
   41CHL1    C2 3007   4.130   6.173   3.922  0.3143 -0.0568  0.2448
   41CHL1   H2A 3008   4.113   6.064   3.916  1.2717 -0.1127 -2.9143
   41CHL1   H2B 3009   4.206   6.203   3.847 -0.8045  0.7884 -0.5880
   41CHL1   C20 3010   4.419   6.497   4.747 -0.1490 -0.4111 -0.2623
   41CHL1   H20 3011   4.487   6.583   4.727 -0.7491 -0.0827 -0.9501
   41CHL1   C21 3012   4.495   6.370   4.729  0.0273 -0.5039  0.3736
   41CHL1  H21A 3013   4.544   6.337   4.823 -0.4363 -1.5336  0.2709
   41CHL1  H21B 3014   4.562   6.379   4.641 -0.1426  0.8798  0.3730
   41CHL1  H21C 3015   4.424   6.286   4.715  0.5631 -0.9090 -0.0128
   41CHL1   C22 3016   4.384   6.507   4.897  0.2163 -0.0938 -0.4522
   41CHL1  H22A 3017   4.299   6.578   4.905 -0.0641 -0.4120 -0.5872
   41CHL1  H22B 3018   4.348   6.406   4.926 -1.4789  0.6713  0.2136
   41CHL1   C23 3019   4.495   6.563   4.985 -0.6475  0.1453  0.1112
   41CHL1  H23A 3020   4.590   6.511   4.962 -0.1319  0.6171  1.0812
   41CHL1  H23B 3021   4.511   6.671   4.965  0.8885  0.4593  2.5721
   41CHL1   C24 3022   4.455   6.559   5.133  0.6065 -0.5876 -0.8966
   41CHL1  H24A 3023   4.542   6.588   5.195  0.2543  1.0315 -1.1129
   41CHL1  H24B 3024   4.371   6.627   5.159  1.6500 -0.0093  1.1347
   41CHL1   C25 3025   4.405   6.425   5.194 -0.6711 -0.5190 -0.1234
   41CHL1   H25 3026   4.301   6.410   5.160 -0.8117 -3.0383  1.2011
   41CHL1   C26 3027   4.500   6.308   5.147 -0.2674 -0.3031  0.2133
   41CHL1  H26A 3028   4.453   6.213   5.181  1.5867 -1.8966 -1.3595
   41CHL1  H26B 3029   4.503   6.291   5.037 -2.3535 -0.5792  0.1590
   41CHL1  H26C 3030   4.602   6.312   5.191 -0.0600 -0.9468 -0.1843
   41CHL1   C27 3031   4.404   6.444   5.348 -0.1373  0.3035 -0.4532
   41CHL1  H27A 3032   4.344   6.359   5.387 -2.3863  0.6734 -2.7839
   41CHL1  H27B 3033   4.507   6.439   5.388 -0.3877 -0.9015  0.0909
   41CHL1  H27C 3034   4.351   6.535   5.385  0.2840  0.0095  0.9079
   42CHL1    C3 3035   4.424   5.784   4.055  0.0409  0.0943  0.2476
   42CHL1    H3 3036   4.353   5.714   4.104  0.5135 -0.1832  0.5351
   42CHL1    O3 3037   4.380   5.788   3.916  0.6431  0.1011 -0.0683
   42CHL1   H3' 3038   4.445   5.844   3.873  1.1317 -0.0548  0.4564
   42CHL1    C4 3039   4.433   5.927   4.110 -0.0330  0.8515 -0.4218
   42CHL1   H4A 3040   4.493   5.992   4.043 -0.3604  0.9151 -0.6505
   42CHL1   H4B 3041   4.329   5.962   4.101  0.0621  1.2044 -0.1676
   42CHL1    C5 3042   4.492   5.928   4.247 -0.4426 -0.6904 -0.2090
   42CHL1    C6 3043   4.424   5.986   4.346 -0.5467  0.0734  0.0610
   42CHL1    H6 3044   4.329   6.039   4.329 -0.1006  0.0056 -3.2428
   42CHL1    C7 3045   4.486   5.990   4.487  0.0819 -0.2231 -0.3740
   42CHL1   H7A 3046   4.469   6.096   4.516 -0.4490 -0.3201 -0.3226
   42CHL1   H7B 3047   4.434   5.919   4.554  1.3787 -0.0900  0.8152
   42CHL1    C8 3048   4.638   5.959   4.494 -0.2467 -0.0191  0.4081
   42CHL1    H8 3049   4.700   6.034   4.440 -0.4274 -0.9431 -1.1479
   42CHL1   C14 3050   4.693   5.944   4.640 -0.0594 -0.5414  0.1978
   42CHL1   H14 3051   4.626   5.872   4.692 -0.3628  0.0452  0.6266
   42CHL1   C15 3052   4.681   6.072   4.727 -0.0164  0.3756  0.7561
   42CHL1  H15A 3053   4.706   6.158   4.661  2.7414 -0.3053  0.7877
   42CHL1  H15B 3054   4.580   6.091   4.768 -0.5608  0.6971 -0.6574
   42CHL1   C16 3055   4.785   6.053   4.844  0.1641 -0.5425 -0.2608
   42CHL1  H16A 3056   4.846   6.145   4.854 -0.0980 -0.5456  1.7762
   42CHL1  H16B 3057   4.723   6.039   4.935  2.4302  0.8005  1.5886
   42CHL1   C17 3058   4.863   5.924   4.808  0.0484  0.2178  0.6724
   42CHL1   H17 3059   4.797   5.842   4.846  0.3061 -0.2514  0.1261
   42CHL1   C13 3060   4.844   5.905   4.651  0.9837 -0.0864  0.6141
   42CHL1   C18 3061   4.929   6.009   4.572  0.1634  0.1736 -0.6686
   42CHL1  H18A 3062   4.906   6.024   4.465  0.3593  0.2734 -0.6974
   42CHL1  H18B 3063   4.937   6.106   4.625  3.9530 -0.8639  0.9564
   42CHL1  H18C 3064   5.034   5.974   4.581  0.1531  0.4060  0.5010
   42CHL1   C12 3065   4.860   5.765   4.581 -0.2680 -0.4843 -0.3607
   42CHL1  H12A 3066   4.967   5.738   4.589  0.2514  1.9026  3.2392
   42CHL1  H12B 3067   4.801   5.696   4.645  0.0169  0.1825  0.6406
   42CHL1   C11 3068   4.809   5.778   4.440 -1.2166  0.0432 -0.2205
   42CHL1  H11A 3069   4.871   5.839   4.371 -0.3621 -0.1452  0.3613
   42CHL1  H11B 3070   4.812   5.677   4.395  0.0038 -0.3870  0.7922
   42CHL1    C9 3071   4.668   5.832   4.418  0.2405  0.2804  0.6881
   42CHL1    H9 3072   4.598   5.755   4.456 -2.6344  2.0680 -0.6485
   42CHL1   C10 3073   4.621   5.853   4.265  0.1441  0.4758  0.2773
   42CHL1   C19 3074   4.730   5.923   4.186 -0.2807 -0.6599  0.3774
   42CHL1  H19A 3075   4.695   5.944   4.082 -1.0770  0.3659  0.8331
   42CHL1  H19B 3076   4.759   6.020   4.232 -1.5175  0.5197 -1.2044
   42CHL1  H19C 3077   4.822   5.864   4.164  1.4775  2.4288 -1.3194
   42CHL1    C1 3078   4.608   5.713   4.201 -0.4812  0.7880 -0.1760
   42CHL1   H1A 3079   4.701   5.651   4.196 -1.4545 -0.7951  0.6932
   42CHL1   H1B 3080   4.533   5.664   4.266  0.2866  1.0460  0.9362
   42CHL1    C2 3081   4.551   5.701   4.060 -0.5920  0.5862 -0.3981
   42CHL1   H2A 3082   4.526   5.595   4.039 -2.0764  0.5956  1.0798
   42CHL1   H2B 3083   4.620   5.740   3.982  0.9944 -2.1858 -0.4967
   42CHL1   C20 3084   5.001   5.909   4.879  0.8435  0.0615 -0.2746
   42CHL1   H20 3085   5.073   5.956   4.808 -1.6670  2.0038 -1.7034
   42CHL1   C21 3086   5.028   5.759   4.908 -0.3557 -0.0652  0.2463
   42CHL1  H21A 3087   5.127   5.744   4.955 -0.4204  1.4493  0.9158
   42CHL1  H21B 3088   5.021   5.699   4.815 -2.4194 -1.5108  1.2647
   42CHL1  H21C 3089   4.953   5.709   4.973  1.0728 -0.4337  1.6771
   42CHL1   C22 3090   5.012   5.978   5.014  0.6154 -0.6455 -0.1346
   42CHL1  H22A 3091   5.117   5.966   5.050  0.8317 -2.1548 -1.1742
   42CHL1  H22B 3092   4.990   6.084   4.993 -1.4792 -1.2084 -0.9962
   42CHL1   C23 3093   4.918   5.937   5.127  0.3489  0.6665 -0.5080
   42CHL1  H23A 3094   4.811   5.920   5.102 -0.4152 -0.0476  2.8320
   42CHL1  H23B 3095   4.958   5.841   5.166 -0.0227  0.9857  0.7118
   42CHL1   C24 3096   4.919   6.055   5.235  0.3636 -0.2572 -0.2202
   42CHL1  H24A 3097   4.917   6.155   5.186  3.7995 -0.3390 -0.8268
   42CHL1  H24B 3098   4.826   6.048   5.295  1.0992  0.7659  1.1066
   42CHL1   C25 3099   5.033   6.067   5.336  0.0219  0.0560 -0.3799
   42CHL1   H25 3100   5.129   6.069   5.280 -0.1279  0.2302 -0.6281
   42CHL1   C26 3101   5.016   6.192   5.428 -0.1489 -0.2019  0.8572
   42CHL1  H26A 3102   4.982   6.280   5.368 -1.7522 -1.6789 -0.5060
   42CHL1  H26B 3103   4.939   6.171   5.505 -1.4441 -0.6056 -0.4973
   42CHL1  H26C 3104   5.118   6.210   5.467  0.3933  0.1785 -0.6376
   42CHL1   C27 3105   5.025   5.938   5.429 -0.7783  0.3402  0.0417
   42CHL1  H27A 3106   5.028   5.849   5.362  0.0676  1.4968 -1.5066
   42CHL1  H27B 3107   5.123   5.936   5.482 -0.7173  0.1085 -0.0796
   42CHL1  H27C 3108   4.941   5.943   5.502  0.5519  0.6470  1.6035
   43CHL1    C3 3109   5.107   0.736   3.565 -1.1166 -0.1420  0.5861
   43CHL1    H3 3110   5.080   0.632   3.592  3.3750 -1.6639  0.2070
   43CHL1    O3 3111   5.090   0.750   3.427  0.6554 -0.4140  0.5548
   43CHL1   H3' 3112   5.149   0.824   3.405 -1.4292  0.7361 -1.6243
   43CHL1    C4 3113   5.032   0.837   3.655 -0.1195  0.7126 -0.9247
   43CHL1   H4A 3114   5.059   0.940   3.625  0.1487  1.4413  1.5669
   43CHL1   H4B 3115   4.925   0.838   3.626 -0.2130  4.0070 -0.7817
   43CHL1    C5 3116   5.065   0.828   3.810  0.1321 -0.0283 -0.2508
   43CHL1    C6 3117   4.963   0.804   3.897 -0.5777  0.4379  0.9954
   43CHL1    H6 3118   4.862   0.801   3.854 -0.1626  1.9531 -0.1895
   43CHL1    C7 3119   4.987   0.781   4.042  0.6157 -0.7093  0.2977
   43CHL1   H7A 3120   4.905   0.824   4.103 -0.1038 -0.4228 -0.8233
   43CHL1   H7B 3121   4.972   0.671   4.052  1.5306 -0.8129  0.5666
   43CHL1    C8 3122   5.128   0.820   4.089  0.5351  0.2052 -0.6717
   43CHL1    H8 3123   5.133   0.931   4.094  0.6300  0.1743 -0.0144
   43CHL1   C14 3124   5.151   0.761   4.223  0.5997 -0.6082  0.0358
   43CHL1   H14 3125   5.151   0.652   4.203 -1.2002 -0.3648 -1.5840
   43CHL1   C15 3126   5.044   0.792   4.331 -0.3366  0.2504 -0.5797
   43CHL1  H15A 3127   5.019   0.900   4.330  0.1584  0.3690 -0.4356
   43CHL1  H15B 3128   4.952   0.729   4.328 -1.4545  1.8450 -1.2123
   43CHL1   C16 3129   5.127   0.769   4.460  0.3072 -0.0993  0.5007
   43CHL1  H16A 3130   5.126   0.868   4.511  1.7985  0.7266 -0.9454
   43CHL1  H16B 3131   5.094   0.694   4.535 -0.0787  1.2805  1.7567
   43CHL1   C17 3132   5.271   0.736   4.421 -0.2358 -0.0328 -0.3701
   43CHL1   H17 3133   5.266   0.625   4.414 -1.2924  0.0299 -0.6726
   43CHL1   C13 3134   5.290   0.789   4.282 -0.1196 -0.9466  0.0066
   43CHL1   C18 3135   5.311   0.942   4.283 -0.2032 -0.1550  0.7301
   43CHL1  H18A 3136   5.237   0.999   4.343 -0.0265  0.5205  0.3183
   43CHL1  H18B 3137   5.414   0.968   4.317 -0.2047 -2.0557  2.3716
   43CHL1  H18C 3138   5.297   0.979   4.180  0.9887  1.1183  0.9852
   43CHL1   C12 3139   5.392   0.720   4.184 -0.1321  0.0121 -0.2143
   43CHL1  H12A 3140   5.500   0.721   4.207 -0.2088 -1.8922  0.3932
   43CHL1  H12B 3141   5.357   0.615   4.175  0.2925 -0.2552  1.0310
   43CHL1   C11 3142   5.373   0.768   4.041 -0.6970 -0.6751 -0.0447
   43CHL1  H11A 3143   5.411   0.873   4.040  1.5223 -1.4170 -0.9179
   43CHL1  H11B 3144   5.427   0.698   3.974 -1.0615 -1.2256  0.2280
   43CHL1    C9 3145   5.226   0.773   3.987  0.0800  0.4779  0.4360
   43CHL1    H9 3146   5.198   0.666   3.979 -1.3236  0.8199  0.3627
   43CHL1   C10 3147   5.215   0.830   3.842  0.0780 -0.6309  0.2294
   43CHL1   C19 3148   5.272   0.975   3.830  0.6823 -0.6468  0.5582
   43CHL1  H19A 3149   5.236   1.034   3.743 -0.6018 -0.1505  1.4043
   43CHL1  H19B 3150   5.246   1.044   3.913  0.5385  0.6143 -0.5070
   43CHL1  H19C 3151   5.382   0.972   3.819  0.7962 -0.8783  1.6169
   43CHL1    C1 3152   5.295   0.744   3.749  0.0287  0.3392  0.0003
   43CHL1   H1A 3153   5.404   0.754   3.766  0.0903 -1.9901  1.2845
   43CHL1   H1B 3154   5.264   0.638   3.760  1.0500 -0.0188 -0.4471
   43CHL1    C2 3155   5.263   0.759   3.602 -0.4452  0.3165  0.0826
   43CHL1   H2A 3156   5.315   0.683   3.540  0.2914  1.3966 -0.6528
   43CHL1   H2B 3157   5.282   0.858   3.556 -1.7914  1.0402  1.0164
   43CHL1   C20 3158   5.380   0.771   4.526 -0.7536 -0.3726  0.3522
   43CHL1   H20 3159   5.382   0.882   4.535  3.9202 -0.1447 -0.9373
   43CHL1   C21 3160   5.521   0.727   4.481 -0.1505 -0.5846  1.2458
   43CHL1  H21A 3161   5.548   0.792   4.395  0.2715  0.9408  2.4784
   43CHL1  H21B 3162   5.544   0.624   4.446  1.3090 -1.3450  4.1265
   43CHL1  H21C 3163   5.591   0.754   4.563  1.5027 -0.3678 -0.1831
   43CHL1   C22 3164   5.351   0.722   4.671 -0.3187  0.7343  1.0246
   43CHL1  H22A 3165   5.247   0.756   4.694 -0.7273 -0.6459  1.2836
   43CHL1  H22B 3166   5.345   0.612   4.685  2.1226 -0.0447 -2.6270
   43CHL1   C23 3167   5.447   0.774   4.784  0.2410 -1.0472  0.1659
   43CHL1  H23A 3168   5.451   0.705   4.871  1.5066  1.1971  2.0050
   43CHL1  H23B 3169   5.552   0.791   4.752 -0.2302 -1.2874 -1.6102
   43CHL1   C24 3170   5.406   0.916   4.840  0.3083  0.6278 -0.5798
   43CHL1  H24A 3171   5.413   0.992   4.759 -1.0640  0.5540 -0.7823
   43CHL1  H24B 3172   5.302   0.911   4.877  1.2323 -0.3225  2.0832
   43CHL1   C25 3173   5.492   0.970   4.958  0.1107 -0.4298  0.2175
   43CHL1   H25 3174   5.593   0.984   4.915  0.3492 -2.1886  0.1596
   43CHL1   C26 3175   5.437   1.108   4.997  0.4710  0.0144 -0.4065
   43CHL1  H26A 3176   5.421   1.178   4.912  1.1614  1.4077  0.5733
   43CHL1  H26B 3177   5.346   1.092   5.057  0.2525 -1.2256 -1.0282
   43CHL1  H26C 3178   5.523   1.153   5.051  0.4780 -1.4785  0.9112
   43CHL1   C27 3179   5.488   0.877   5.079  0.4726  0.9249 -0.3737
   43CHL1  H27A 3180   5.387   0.832   5.089 -0.1932  2.2600 -0.7481
   43CHL1  H27B 3181   5.567   0.799   5.073  0.2955  0.7559 -0.5197
   43CHL1  H27C 3182   5.505   0.925   5.178 -3.0297 -2.9058  2.3759
   44CHL1    C3 3183   1.504   1.735   3.635 -0.2138  0.4247  0.1087
   44CHL1    H3 3184   1.465   1.834   3.668 -0.7252 -0.6410  2.9844
   44CHL1    O3 3185   1.456   1.715   3.503 -0.0431  0.9204  0.3762
   44CHL1   H3' 3186   1.477   1.798   3.459  5.0379 -1.0695 -1.6623
   44CHL1    C4 3187   1.657   1.729   3.643  0.7595  0.4329 -0.1284
   44CHL1   H4A 3188   1.694   1.629   3.614 -3.6363 -1.1357 -1.0670
   44CHL1   H4B 3189   1.699   1.805   3.573 -0.0840  0.1416 -0.9740
   44CHL1    C5 3190   1.708   1.745   3.785 -0.0540  0.6970 -0.4866
   44CHL1    C6 3191   1.790   1.840   3.823 -0.1124 -0.5971  0.3120
   44CHL1    H6 3192   1.835   1.900   3.743 -0.0279 -1.1405 -0.0575
   44CHL1    C7 3193   1.848   1.851   3.964  0.4687  0.5640  0.5297
   44CHL1   H7A 3194   1.959   1.858   3.963  0.5359 -0.3497 -1.2452
   44CHL1   H7B 3195   1.809   1.950   3.998 -0.4678  0.9242 -1.4518
   44CHL1    C8 3196   1.815   1.727   4.050  0.3760  0.2887  0.2585
   44CHL1    H8 3197   1.887   1.657   4.005 -1.3599 -1.0722 -0.5281
   44CHL1   C14 3198   1.846   1.758   4.192  0.7820 -0.2485  0.4328
   44CHL1   H14 3199   1.781   1.843   4.221  0.9815 -0.2091  0.7739
   44CHL1   C15 3200   1.984   1.811   4.225 -0.5680  1.0748 -0.4562
   44CHL1  H15A 3201   2.051   1.746   4.165 -1.3632 -0.8978  0.6908
   44CHL1  H15B 3202   2.026   1.912   4.210  0.6726  0.6721  0.1368
   44CHL1   C16 3203   2.005   1.769   4.367  0.0684 -0.7366 -0.3453
   44CHL1  H16A 3204   2.090   1.699   4.363  0.2189 -0.4928 -1.8219
   44CHL1  H16B 3205   2.038   1.856   4.428 -0.5199 -2.0234  1.9330
   44CHL1   C17 3206   1.876   1.699   4.422 -0.1175  0.4765  1.0957
   44CHL1   H17 3207   1.798   1.770   4.455 -0.5565  1.0248 -0.9883
   44CHL1   C13 3208   1.821   1.638   4.288  0.6364 -0.3201 -0.1216
   44CHL1   C18 3209   1.907   1.516   4.248  0.4192 -0.0684 -0.4589
   44CHL1  H18A 3210   1.877   1.475   4.149 -1.5261  2.4345 -1.0116
   44CHL1  H18B 3211   2.016   1.533   4.237  0.4754 -0.8201 -1.2150
   44CHL1  H18C 3212   1.884   1.435   4.320 -0.9586  0.1017 -0.6814
   44CHL1   C12 3213   1.670   1.602   4.277 -0.3789  0.2603 -0.3640
   44CHL1  H12A 3214   1.654   1.513   4.341 -0.2890 -1.0241 -2.0399
   44CHL1  H12B 3215   1.607   1.687   4.312  0.6478  0.8297  0.1612
   44CHL1   C11 3216   1.624   1.567   4.137 -0.2066  0.1271  0.5710
   44CHL1  H11A 3217   1.662   1.465   4.114  2.4094  0.7393  1.7618
   44CHL1  H11B 3218   1.514   1.561   4.129 -0.2433 -1.2009  1.7304
   44CHL1    C9 3219   1.671   1.683   4.031  0.0614  0.2978 -0.7624
   44CHL1    H9 3220   1.610   1.772   4.058  0.1293  0.2848 -0.5633
   44CHL1   C10 3221   1.643   1.645   3.885  0.3786  0.0433  0.4074
   44CHL1   C19 3222   1.714   1.515   3.838  0.1864  0.6558  0.6125
   44CHL1  H19A 3223   1.659   1.475   3.751 -1.7395  0.0486  2.0445
   44CHL1  H19B 3224   1.823   1.527   3.818 -0.2659  1.9897 -1.2405
   44CHL1  H19C 3225   1.702   1.438   3.917  1.1288 -3.2081 -2.6693
   44CHL1    C1 3226   1.482   1.632   3.874 -0.4172 -0.2623  0.2648
   44CHL1   H1A 3227   1.449   1.551   3.943  0.4170  0.2004  1.2516
   44CHL1   H1B 3228   1.443   1.727   3.915 -3.3055 -0.7458 -1.1029
   44CHL1    C2 3229   1.446   1.623   3.726  0.0227  0.1702  0.4295
   44CHL1   H2A 3230   1.335   1.632   3.726  0.0374  1.0529  2.6664
   44CHL1   H2B 3231   1.476   1.522   3.692 -1.4177 -1.1181  2.7086
   44CHL1   C20 3232   1.898   1.618   4.549  0.9784 -0.0785  0.1962
   44CHL1   H20 3233   1.951   1.527   4.514 -0.9511 -2.1706  2.4148
   44CHL1   C21 3234   1.763   1.573   4.606 -0.2061  0.6447  0.3718
   44CHL1  H21A 3235   1.705   1.658   4.645 -0.3532 -0.0461  1.7254
   44CHL1  H21B 3236   1.784   1.508   4.694 -0.0423 -1.1562 -0.9389
   44CHL1  H21C 3237   1.691   1.528   4.535 -0.3369  0.7688  0.4281
   44CHL1   C22 3238   1.973   1.689   4.666  0.3213 -0.0515 -0.6026
   44CHL1  H22A 3239   2.057   1.756   4.640 -1.1044  2.0815 -0.0396
   44CHL1  H22B 3240   1.902   1.743   4.733  1.3420  0.9604 -0.3183
   44CHL1   C23 3241   2.050   1.585   4.752 -0.8008 -0.0473  0.1502
   44CHL1  H23A 3242   2.076   1.635   4.848  0.1987  0.0355 -0.1537
   44CHL1  H23B 3243   1.979   1.500   4.759 -1.1761  0.2087 -0.4739
   44CHL1   C24 3244   2.186   1.530   4.691  0.0697  0.7688 -0.8534
   44CHL1  H24A 3245   2.154   1.469   4.604  1.7516 -0.8644 -0.3879
   44CHL1  H24B 3246   2.261   1.604   4.657  2.0817 -0.6257  0.3044
   44CHL1   C25 3247   2.276   1.444   4.788 -0.0692 -0.5625  0.3747
   44CHL1   H25 3248   2.208   1.375   4.843  3.4162 -1.0555  4.6809
   44CHL1   C26 3249   2.379   1.362   4.706 -0.5329  0.1013  0.1737
   44CHL1  H26A 3250   2.436   1.305   4.782 -2.3444  1.1003  2.4245
   44CHL1  H26B 3251   2.330   1.310   4.621 -1.8778  2.9479 -0.9464
   44CHL1  H26C 3252   2.446   1.431   4.650 -1.2412 -0.2670 -1.1783
   44CHL1   C27 3253   2.330   1.536   4.895 -0.0155 -0.3245  0.1128
   44CHL1  H27A 3254   2.401   1.484   4.963 -2.3980 -1.4657  1.8989
   44CHL1  H27B 3255   2.367   1.626   4.843  0.5291 -0.7527 -0.2463
   44CHL1  H27C 3256   2.246   1.561   4.964  1.3828  2.7065  0.8830
   45CHL1    C3 3257   1.920   0.890   3.726  0.6192  0.0458 -0.4634
   45CHL1    H3 3258   1.967   0.802   3.776  1.1397 -0.0069 -1.0352
   45CHL1    O3 3259   1.920   0.888   3.585 -1.1181 -0.0400 -0.7559
   45CHL1   H3' 3260   1.875   0.972   3.574  1.9334  1.7480 -0.7555
   45CHL1    C4 3261   1.768   0.907   3.778 -0.8847 -0.6325  0.1004
   45CHL1   H4A 3262   1.714   0.984   3.719 -1.2128 -1.5501 -0.8318
   45CHL1   H4B 3263   1.716   0.811   3.757  0.1625 -2.0170  3.2071
   45CHL1    C5 3264   1.757   0.928   3.929  0.3041 -0.1234 -0.3481
   45CHL1    C6 3265   1.666   0.857   4.002 -0.6756 -0.0713  0.9183
   45CHL1    H6 3266   1.596   0.787   3.953 -2.3051 -0.2815  3.3415
   45CHL1    C7 3267   1.627   0.881   4.143  0.6672 -0.4779  0.1266
   45CHL1   H7A 3268   1.518   0.901   4.151  0.3045 -1.7069 -1.2308
   45CHL1   H7B 3269   1.651   0.790   4.203 -1.7232 -1.9280 -0.9466
   45CHL1    C8 3270   1.695   1.007   4.206 -0.1480 -0.1755  0.3198
   45CHL1    H8 3271   1.636   1.095   4.172 -0.9159 -0.4411  0.9308
   45CHL1   C14 3272   1.702   0.995   4.356 -0.1014 -0.9200 -0.9906
   45CHL1   H14 3273   1.775   0.918   4.389  0.9267  0.5589  0.3837
   45CHL1   C15 3274   1.570   0.972   4.428  0.0657  0.2324  0.3077
   45CHL1  H15A 3275   1.487   1.034   4.388  0.2432  1.5418  1.8515
   45CHL1  H15B 3276   1.551   0.862   4.424 -0.1748  0.2838  0.0624
   45CHL1   C16 3277   1.598   1.007   4.575 -0.1159  0.0248 -0.0980
   45CHL1  H16A 3278   1.521   1.075   4.616 -0.0880 -1.2699  2.3312
   45CHL1  H16B 3279   1.598   0.916   4.639  0.6668  0.3105  0.3253
   45CHL1   C17 3280   1.738   1.070   4.582 -0.0442  0.5859  0.4896
   45CHL1   H17 3281   1.817   0.993   4.594 -3.1717 -3.2472 -1.3251
   45CHL1   C13 3282   1.768   1.116   4.430  0.9182  0.3002 -0.0186
   45CHL1   C18 3283   1.688   1.252   4.407 -0.2121 -0.4132 -0.3494
   45CHL1  H18A 3284   1.734   1.336   4.463 -0.2142 -0.7037  0.0908
   45CHL1  H18B 3285   1.681   1.273   4.298 -1.9734 -0.9324 -0.3701
   45CHL1  H18C 3286   1.580   1.238   4.429 -0.1843 -0.0371  0.0339
   45CHL1   C12 3287   1.906   1.130   4.372  0.0138  0.1383 -0.0765
   45CHL1  H12A 3288   1.958   1.224   4.403 -0.4222  0.5035 -0.4328
   45CHL1  H12B 3289   1.977   1.048   4.396  0.4352  1.1111  2.3933
   45CHL1   C11 3290   1.909   1.144   4.219  0.6036 -1.0722 -0.3798
   45CHL1  H11A 3291   1.860   1.240   4.192  0.7369 -1.5116 -2.3372
   45CHL1  H11B 3292   2.013   1.148   4.180  0.2530 -1.1765 -1.3601
   45CHL1    C9 3293   1.840   1.025   4.148  0.5252 -0.2513 -0.4312
   45CHL1    H9 3294   1.892   0.936   4.189 -0.1793 -0.6657 -0.4131
   45CHL1   C10 3295   1.842   1.033   3.994 -0.7629  0.4982 -0.1294
   45CHL1   C19 3296   1.787   1.166   3.949 -0.2469  0.0291 -0.7025
   45CHL1  H19A 3297   1.781   1.174   3.838 -0.9102 -0.5207 -0.7116
   45CHL1  H19B 3298   1.687   1.193   3.988 -0.6910 -2.4069  0.0139
   45CHL1  H19C 3299   1.863   1.244   3.971 -0.3018  0.0789 -0.6889
   45CHL1    C1 3300   1.984   1.011   3.937 -0.4273 -0.2163  0.4208
   45CHL1   H1A 3301   2.045   1.098   3.969  2.9350 -2.2624  0.0377
   45CHL1   H1B 3302   2.039   0.926   3.981 -2.0978 -2.0799 -0.9206
   45CHL1    C2 3303   1.999   1.007   3.785 -0.3575  0.3088 -0.3197
   45CHL1   H2A 3304   2.106   0.991   3.761 -0.1878  0.6397  0.2008
   45CHL1   H2B 3305   1.961   1.095   3.728 -2.0109 -1.5496 -2.2493
   45CHL1   C20 3306   1.759   1.169   4.691 -0.1379 -0.2332 -0.2081
   45CHL1   H20 3307   1.697   1.261   4.676  2.2119  1.0681 -2.7884
   45CHL1   C21 3308   1.905   1.215   4.697  0.1889 -0.0467 -0.4498
   45CHL1  H21A 3309   1.972   1.131   4.726 -1.0295 -0.7254  0.4955
   45CHL1  H21B 3310   1.896   1.291   4.777 -1.6581 -0.3152 -0.3706
   45CHL1  H21C 3311   1.939   1.276   4.611  2.4597 -1.3451 -0.5630
   45CHL1   C22 3312   1.721   1.108   4.832  1.1932 -0.0491 -0.3951
   45CHL1  H22A 3313   1.635   1.039   4.825  0.5678  0.8771 -2.5388
   45CHL1  H22B 3314   1.801   1.050   4.884  0.2044 -0.5574  0.6008
   45CHL1   C23 3315   1.668   1.212   4.936  1.0902  0.4799  0.1914
   45CHL1  H23A 3316   1.745   1.291   4.947  0.3375  1.3304 -0.5622
   45CHL1  H23B 3317   1.577   1.267   4.905  1.1318  0.3216 -0.2208
   45CHL1   C24 3318   1.669   1.147   5.071 -0.3037  0.1757 -0.1581
   45CHL1  H24A 3319   1.599   1.061   5.079 -1.1825  0.7994 -0.9738
   45CHL1  H24B 3320   1.770   1.108   5.096 -0.2689 -0.0166 -0.5822
   45CHL1   C25 3321   1.622   1.244   5.184 -0.0435  0.0078 -1.3044
   45CHL1   H25 3322   1.695   1.328   5.178  0.1371 -0.1027 -0.7290
   45CHL1   C26 3323   1.472   1.282   5.167 -1.4203  0.1256 -0.2134
   45CHL1  H26A 3324   1.455   1.369   5.235  2.4306 -0.1227  1.2759
   45CHL1  H26B 3325   1.455   1.307   5.060  1.5311  2.1038 -0.3354
   45CHL1  H26C 3326   1.414   1.192   5.196 -0.4541 -0.0293  1.3787
   45CHL1   C27 3327   1.641   1.184   5.328  0.0735  0.0260  0.8200
   45CHL1  H27A 3328   1.588   1.251   5.398  1.2773 -0.0233  1.7972
   45CHL1  H27B 3329   1.594   1.084   5.343  0.7548 -0.3740  0.3305
   45CHL1  H27C 3330   1.750   1.183   5.350 -0.5575  0.5747  4.5540
   46CHL1    C3 3331   3.250   1.278   3.672 -0.3821  0.3737 -0.9247
   46CHL1    H3 3332   3.142   1.249   3.677  0.4662 -3.2126 -0.9409
   46CHL1    O3 3333   3.291   1.277   3.541 -0.1816  0.0042 -0.2500
   46CHL1   H3' 3334   3.280   1.184   3.520 -3.5259 -0.2224  1.6771
   46CHL1    C4 3335   3.287   1.409   3.755 -0.0866  0.5682 -0.0290
   46CHL1   H4A 3336   3.393   1.433   3.735  0.8117 -1.8888  1.4553
   46CHL1   H4B 3337   3.221   1.495   3.727 -1.0971 -0.4102 -0.7531
   46CHL1    C5 3338   3.267   1.392   3.899 -0.7980  0.1641  0.5457
   46CHL1    C6 3339   3.184   1.465   3.970 -0.4804  0.0230  0.0415
   46CHL1    H6 3340   3.135   1.547   3.916  0.7098  0.5367 -0.2940
   46CHL1    C7 3341   3.166   1.461   4.122 -0.2627 -0.1609 -0.2703
   46CHL1   H7A 3342   3.168   1.564   4.165 -1.5036 -1.4963  3.3139
   46CHL1   H7B 3343   3.071   1.413   4.152 -0.3528 -1.4323 -2.3773
   46CHL1    C8 3344   3.278   1.377   4.184 -0.6157 -0.0002 -0.3876
   46CHL1    H8 3345   3.367   1.443   4.177  0.2729 -1.2750 -1.5633
   46CHL1   C14 3346   3.240   1.356   4.333  0.1001  0.0854 -0.0754
   46CHL1   H14 3347   3.146   1.297   4.332  0.8635 -1.1954  0.8987
   46CHL1   C15 3348   3.202   1.478   4.412 -0.3837 -0.0208 -0.0417
   46CHL1  H15A 3349   3.273   1.563   4.406  0.1033 -0.2510  1.9958
   46CHL1  H15B 3350   3.096   1.502   4.390  0.1311  0.4633 -2.3323
   46CHL1   C16 3351   3.211   1.429   4.557 -0.2501  0.4431 -0.3551
   46CHL1  H16A 3352   3.274   1.491   4.625 -2.6929  0.0054  2.5255
   46CHL1  H16B 3353   3.111   1.430   4.604  0.4505  0.4057  1.1968
   46CHL1   C17 3354   3.262   1.278   4.550  0.0883 -0.0206 -0.3763
   46CHL1   H17 3355   3.172   1.213   4.539  0.7214 -1.0540  0.3026
   46CHL1   C13 3356   3.336   1.270   4.412  0.0555 -0.3103 -0.4576
   46CHL1   C18 3357   3.469   1.349   4.421  0.5001  0.0557  0.5253
   46CHL1  H18A 3358   3.510   1.372   4.321 -0.0050  0.4894  0.4147
   46CHL1  H18B 3359   3.448   1.445   4.472 -2.5051  0.4102 -1.1772
   46CHL1  H18C 3360   3.548   1.289   4.471  0.3144 -0.6407 -0.0060
   46CHL1   C12 3361   3.340   1.136   4.340  0.0715 -0.5669  0.1200
   46CHL1  H12A 3362   3.393   1.058   4.398  0.6631  0.0923  0.4804
   46CHL1  H12B 3363   3.236   1.097   4.342 -0.5552  0.8009 -2.2655
   46CHL1   C11 3364   3.376   1.142   4.189  0.8639 -0.4544 -0.3646
   46CHL1  H11A 3365   3.478   1.183   4.201  0.0936  1.4836 -0.0418
   46CHL1  H11B 3366   3.374   1.038   4.151  0.0608  0.0751 -1.8402
   46CHL1    C9 3367   3.287   1.246   4.114  0.0172 -0.1263  0.3175
   46CHL1    H9 3368   3.185   1.203   4.108  0.4121 -1.0123 -0.2913
   46CHL1   C10 3369   3.344   1.272   3.965 -0.2148  0.2545  0.3727
   46CHL1   C19 3370   3.503   1.303   3.967 -0.2052 -0.3787  0.3749
   46CHL1  H19A 3371   3.567   1.218   3.998  1.0060  0.9065  1.5557
   46CHL1  H19B 3372   3.531   1.326   3.862 -1.3428 -0.1132  0.1142
   46CHL1  H19C 3373   3.521   1.390   4.033  0.1387 -0.9096  0.9917
   46CHL1    C1 3374   3.312   1.144   3.880  0.5845  0.1458 -0.1798
   46CHL1   H1A 3375   3.364   1.058   3.928  0.2318  0.5265  0.9061
   46CHL1   H1B 3376   3.206   1.118   3.899  0.4952  1.7338  1.8512
   46CHL1    C2 3377   3.326   1.154   3.726  0.0473 -0.4667  0.2090
   46CHL1   H2A 3378   3.294   1.057   3.681  0.7376  0.7778 -3.3008
   46CHL1   H2B 3379   3.435   1.151   3.702 -0.2898 -1.4749 -1.3361
   46CHL1   C20 3380   3.335   1.233   4.674 -0.0050 -0.0885  0.6963
   46CHL1   H20 3381   3.423   1.299   4.690 -0.5720  0.8505  0.0318
   46CHL1   C21 3382   3.376   1.081   4.666  0.1477 -0.1421 -0.4868
   46CHL1  H21A 3383   3.288   1.027   4.625 -1.0031 -0.3469  2.0541
   46CHL1  H21B 3384   3.393   1.026   4.761  0.6096 -1.3221 -1.2328
   46CHL1  H21C 3385   3.468   1.082   4.604  0.5631  2.2687  0.0774
   46CHL1   C22 3386   3.244   1.256   4.804 -0.6265  1.1210  0.2824
   46CHL1  H22A 3387   3.171   1.338   4.788 -2.0576  0.3534  2.3236
   46CHL1  H22B 3388   3.183   1.163   4.813 -0.7251  1.3738  3.2165
   46CHL1   C23 3389   3.333   1.293   4.930 -0.3815  0.3497 -0.6331
   46CHL1  H23A 3390   3.368   1.197   4.974  1.7429  1.3815  0.0431
   46CHL1  H23B 3391   3.426   1.343   4.896 -0.3618 -0.0019 -1.1144
   46CHL1   C24 3392   3.266   1.390   5.038 -1.3256  0.8067  0.7356
   46CHL1  H24A 3393   3.184   1.324   5.074 -1.5101  0.8447  0.3887
   46CHL1  H24B 3394   3.341   1.409   5.118  1.3150 -1.0990 -1.1258
   46CHL1   C25 3395   3.197   1.511   4.987  0.5999  0.4111 -0.8361
   46CHL1   H25 3396   3.121   1.474   4.914  0.2784  0.9087 -0.7570
   46CHL1   C26 3397   3.134   1.588   5.107  0.2319 -0.5314  0.0178
   46CHL1  H26A 3398   3.097   1.517   5.184  0.8760  0.1165  0.9513
   46CHL1  H26B 3399   3.218   1.647   5.149  0.1598  0.0382 -0.6215
   46CHL1  H26C 3400   3.061   1.662   5.069  3.6583  2.9212 -0.4744
   46CHL1   C27 3401   3.285   1.607   4.914  0.0206  0.3354  0.6746
   46CHL1  H27A 3402   3.348   1.673   4.977 -1.7175  0.9678  1.8253
   46CHL1  H27B 3403   3.359   1.560   4.846 -0.2132  2.6598 -1.3397
   46CHL1  H27C 3404   3.232   1.676   4.845 -1.0346 -1.3023 -0.1787
   47CHL1    C3 3405   1.370   3.433   3.910  0.3671 -0.0932  0.2109
   47CHL1    H3 3406   1.265   3.466   3.899  0.6597  0.4321 -1.1561
   47CHL1    O3 3407   1.406   3.390   3.782  0.6676 -0.1172  0.7489
   47CHL1   H3' 3408   1.351   3.312   3.770  1.3139 -0.7262  1.6008
   47CHL1    C4 3409   1.452   3.549   3.959  0.9349 -0.9156 -0.3988
   47CHL1   H4A 3410   1.557   3.528   3.930  0.7692 -0.9653 -0.9823
   47CHL1   H4B 3411   1.420   3.635   3.896 -0.3453  0.4380  1.9691
   47CHL1    C5 3412   1.436   3.580   4.107  0.1932  0.2994  0.1090
   47CHL1    C6 3413   1.402   3.705   4.151 -0.0484 -0.7212  0.7826
   47CHL1    H6 3414   1.378   3.785   4.079 -2.6019 -0.6518  1.6030
   47CHL1    C7 3415   1.389   3.738   4.299 -0.1303  0.0280 -0.1433
   47CHL1   H7A 3416   1.428   3.840   4.320 -0.2291 -0.0768  0.5919
   47CHL1   H7B 3417   1.280   3.740   4.323 -0.6577 -2.0625 -2.0246
   47CHL1    C8 3418   1.454   3.637   4.398  0.0840  0.3048  0.4786
   47CHL1    H8 3419   1.563   3.643   4.374 -0.0534  0.5770 -0.0833
   47CHL1   C14 3420   1.413   3.664   4.539  0.0064 -0.3572 -0.1060
   47CHL1   H14 3421   1.304   3.658   4.560 -0.3750  0.6798 -1.6477
   47CHL1   C15 3422   1.442   3.804   4.598 -0.2476  0.2313  1.0212
   47CHL1  H15A 3423   1.547   3.834   4.576 -0.2455 -0.1347  0.4883
   47CHL1  H15B 3424   1.372   3.884   4.568 -0.0144 -0.4629 -1.6455
   47CHL1   C16 3425   1.429   3.787   4.745  0.6105 -0.7363 -0.0652
   47CHL1  H16A 3426   1.511   3.845   4.791 -0.3344 -1.1114  2.2495
   47CHL1  H16B 3427   1.328   3.826   4.773  0.0808 -1.6397 -0.6541
   47CHL1   C17 3428   1.427   3.637   4.778  0.1416  0.4298  0.2033
   47CHL1   H17 3429   1.323   3.598   4.787 -0.2871  1.4223 -0.2587
   47CHL1   C13 3430   1.470   3.564   4.641  0.0985 -0.7516 -0.2581
   47CHL1   C18 3431   1.627   3.553   4.639  0.1720  0.2078 -0.5035
   47CHL1  H18A 3432   1.672   3.651   4.667 -1.6585  1.2013 -0.9191
   47CHL1  H18B 3433   1.666   3.475   4.707 -1.6808  1.6753  2.4467
   47CHL1  H18C 3434   1.672   3.526   4.541 -0.1080  0.6021 -0.7473
   47CHL1   C12 3435   1.418   3.424   4.607  0.2011 -0.1494  0.5491
   47CHL1  H12A 3436   1.465   3.350   4.675  2.1187 -1.0811 -1.6187
   47CHL1  H12B 3437   1.307   3.423   4.608  0.0916  2.6244  0.6511
   47CHL1   C11 3438   1.450   3.385   4.457 -0.0290 -0.1520  0.2809
   47CHL1  H11A 3439   1.559   3.367   4.452  0.3045  1.9278 -1.0491
   47CHL1  H11B 3440   1.397   3.288   4.442  0.1600 -0.2059 -0.0469
   47CHL1    C9 3441   1.409   3.493   4.354  0.2376 -0.8246  0.3474
   47CHL1    H9 3442   1.298   3.498   4.350  0.2638  2.6580  0.9787
   47CHL1   C10 3443   1.458   3.462   4.207  0.6478 -0.6620 -0.5236
   47CHL1   C19 3444   1.606   3.410   4.205 -0.2677 -0.4598  0.2463
   47CHL1  H19A 3445   1.609   3.308   4.251  2.2924 -0.1186  0.9738
   47CHL1  H19B 3446   1.637   3.379   4.103  0.0715  0.2993  0.1192
   47CHL1  H19C 3447   1.686   3.476   4.245  1.7797 -1.9119 -1.2355
   47CHL1    C1 3448   1.361   3.351   4.154  0.8530  0.0482 -0.4699
   47CHL1   H1A 3449   1.374   3.261   4.217  1.1832  0.0635 -0.5159
   47CHL1   H1B 3450   1.258   3.392   4.155 -0.2054 -2.3615 -1.6833
   47CHL1    C2 3451   1.384   3.309   4.007 -0.1415  0.0806  0.0764
   47CHL1   H2A 3452   1.319   3.227   3.970  0.8577 -0.1190 -1.3200
   47CHL1   H2B 3453   1.485   3.266   3.993 -0.2113  0.0500 -0.3441
   47CHL1   C20 3454   1.496   3.589   4.910 -0.3352  0.1442 -0.2126
   47CHL1   H20 3455   1.606   3.605   4.904  0.0812 -1.9732  0.8908
   47CHL1   C21 3456   1.467   3.444   4.937 -1.0461  1.0037  0.3122
   47CHL1  H21A 3457   1.363   3.409   4.920  0.0165 -2.7198  0.3880
   47CHL1  H21B 3458   1.491   3.407   5.039 -2.1930 -0.0937  0.2128
   47CHL1  H21C 3459   1.538   3.376   4.884 -2.4949 -0.5352  0.2755
   47CHL1   C22 3460   1.464   3.678   5.035 -0.2596  0.4643 -0.0390
   47CHL1  H22A 3461   1.528   3.637   5.115 -0.6139 -0.9518 -0.4574
   47CHL1  H22B 3462   1.514   3.775   5.010 -0.3787  0.4848 -0.2056
   47CHL1   C23 3463   1.316   3.690   5.072 -0.3469  0.0840  0.3597
   47CHL1  H23A 3464   1.256   3.756   5.007  0.8162 -1.2034 -2.1367
   47CHL1  H23B 3465   1.278   3.585   5.070  0.7149 -0.3384  1.2094
   47CHL1   C24 3466   1.307   3.733   5.220 -1.2173 -0.4626 -0.6482
   47CHL1  H24A 3467   1.323   3.648   5.291 -1.0374  0.7382  0.7948
   47CHL1  H24B 3468   1.381   3.807   5.258 -0.1925 -1.8297  0.1608
   47CHL1   C25 3469   1.176   3.805   5.258  0.2645 -0.3645 -0.8147
   47CHL1   H25 3470   1.162   3.897   5.196  2.8462  1.1021  0.6180
   47CHL1   C26 3471   1.053   3.713   5.228 -0.6697  0.0699 -0.3645
   47CHL1  H26A 3472   1.065   3.695   5.119  2.1045  2.4757 -0.5785
   47CHL1  H26B 3473   1.065   3.618   5.284 -2.4970  0.2961  0.4952
   47CHL1  H26C 3474   0.956   3.760   5.255 -0.6206  1.0263 -1.7544
   47CHL1   C27 3475   1.189   3.849   5.402  0.1041 -0.4002 -0.9282
   47CHL1  H27A 3476   1.195   3.758   5.466 -2.1452  0.7221  0.9988
   47CHL1  H27B 3477   1.275   3.914   5.429 -0.5374 -0.9280  2.9360
   47CHL1  H27C 3478   1.094   3.882   5.449 -1.6728 -3.4222 -2.0816
   48CHL1    C3 3479   6.180   0.269   3.871  0.7544  0.1239 -0.1108
   48CHL1    H3 3480   6.159   0.375   3.894  0.4688 -0.1513  0.9588
   48CHL1    O3 3481   6.187   0.254   3.728 -0.4572 -0.2028 -0.4285
   48CHL1   H3' 3482   6.234   0.171   3.719  2.0886  1.0316  0.2575
   48CHL1    C4 3483   6.309   0.231   3.938  0.1373  0.4319 -0.2722
   48CHL1   H4A 3484   6.336   0.128   3.905 -0.2022  0.2713 -0.0583
   48CHL1   H4B 3485   6.392   0.294   3.900  1.2516 -1.2019 -0.6515
   48CHL1    C5 3486   6.309   0.250   4.089 -0.0067  0.6209 -0.2633
   48CHL1    C6 3487   6.394   0.329   4.162 -0.2295 -0.3111 -0.3272
   48CHL1    H6 3488   6.474   0.380   4.106 -0.1970 -2.1657 -2.1052
   48CHL1    C7 3489   6.393   0.340   4.311 -0.0276  0.5823  0.4086
   48CHL1   H7A 3490   6.494   0.317   4.353  0.4993  1.0630 -0.5728
   48CHL1   H7B 3491   6.372   0.445   4.343  0.2865  1.2629 -1.4987
   48CHL1    C8 3492   6.296   0.248   4.384  0.5959  0.0051  0.1793
   48CHL1    H8 3493   6.347   0.149   4.389 -0.9434 -0.8260  0.1327
   48CHL1   C14 3494   6.272   0.300   4.521  0.4040 -1.0531 -0.1751
   48CHL1   H14 3495   6.237   0.405   4.516  0.6232 -0.9555  0.2949
   48CHL1   C15 3496   6.389   0.303   4.619  0.4049 -0.3342  0.2723
   48CHL1  H15A 3497   6.462   0.220   4.610  0.9526 -0.1797  2.5709
   48CHL1  H15B 3498   6.454   0.394   4.621 -1.8147  1.3466  2.1722
   48CHL1   C16 3499   6.329   0.305   4.760 -0.0327  0.2228  0.0570
   48CHL1  H16A 3500   6.367   0.225   4.826  2.1193  1.8970  0.9952
   48CHL1  H16B 3501   6.340   0.411   4.793 -2.9476  1.0342 -1.2586
   48CHL1   C17 3502   6.174   0.294   4.737  0.0503 -0.1697  0.1892
   48CHL1   H17 3503   6.135   0.398   4.725  1.8946  0.3943 -1.5532
   48CHL1   C13 3504   6.165   0.225   4.604 -0.2306  0.3895 -0.1084
   48CHL1   C18 3505   6.215   0.083   4.618 -0.2255 -0.1666 -0.4554
   48CHL1  H18A 3506   6.136   0.031   4.676  0.0803  1.7509  1.8259
   48CHL1  H18B 3507   6.230   0.029   4.522 -2.4144 -2.0731  0.1855
   48CHL1  H18C 3508   6.304   0.068   4.683  0.2605  0.7772 -0.8811
   48CHL1   C12 3509   6.031   0.237   4.532  0.5724  0.2146  0.3529
   48CHL1  H12A 3510   5.953   0.187   4.594  1.8698  2.2547  3.9108
   48CHL1  H12B 3511   6.022   0.347   4.540  0.7435  0.2115  0.6008
   48CHL1   C11 3512   6.041   0.181   4.383 -0.2616 -0.1389  0.0814
   48CHL1  H11A 3513   6.054   0.071   4.373  2.6972  0.2122 -0.9169
   48CHL1  H11B 3514   5.943   0.201   4.334 -0.5552 -0.2826  0.6062
   48CHL1    C9 3515   6.163   0.243   4.305 -0.6959  0.4297 -0.6257
   48CHL1    H9 3516   6.141   0.349   4.281 -0.5709  0.3822 -0.9549
   48CHL1   C10 3517   6.190   0.181   4.167  0.1101  0.5597 -0.3879
   48CHL1   C19 3518   6.223   0.028   4.178  0.4420 -0.3625 -0.3381
   48CHL1  H19A 3519   6.129  -0.019   4.215  0.2883  1.3445  1.6636
   48CHL1  H19B 3520   6.239  -0.008   4.074  2.6547  1.8512 -0.8509
   48CHL1  H19C 3521   6.305   0.002   4.248  1.0892 -2.2258 -1.7044
   48CHL1    C1 3522   6.063   0.204   4.085  0.5310 -0.2553  0.0079
   48CHL1   H1A 3523   5.985   0.140   4.130  0.4801  0.7347  1.3797
   48CHL1   H1B 3524   6.043   0.312   4.103  0.4958 -0.3470  0.5317
   48CHL1    C2 3525   6.069   0.192   3.932 -0.4435 -0.1988 -0.4047
   48CHL1   H2A 3526   5.972   0.221   3.885 -0.4341  0.3757 -0.0815
   48CHL1   H2B 3527   6.083   0.082   3.926 -0.1491 -0.1849  0.0221
   48CHL1   C20 3528   6.098   0.223   4.854 -0.2297 -0.2164 -0.1143
   48CHL1   H20 3529   6.012   0.166   4.813  0.3094 -1.6330  0.6555
   48CHL1   C21 3530   6.023   0.330   4.942 -0.0289  0.7960 -0.1623
   48CHL1  H21A 3531   5.954   0.390   4.879 -1.3095  0.7012  1.1114
   48CHL1  H21B 3532   6.106   0.392   4.984  0.2598 -0.3089  0.9719
   48CHL1  H21C 3533   5.973   0.281   5.028  0.7790  0.4869  0.1426
   48CHL1   C22 3534   6.158   0.103   4.933  0.1345  0.2413  0.5353
   48CHL1  H22A 3535   6.068   0.044   4.959  0.2049 -0.6724 -1.1719
   48CHL1  H22B 3536   6.225   0.038   4.873 -1.5208 -0.2880 -0.8188
   48CHL1   C23 3537   6.241   0.147   5.056  0.0351  0.0362 -0.3672
   48CHL1  H23A 3538   6.300   0.241   5.046  0.7091 -0.1134  1.7295
   48CHL1  H23B 3539   6.158   0.172   5.125 -1.1405 -1.4468 -1.1767
   48CHL1   C24 3540   6.317   0.037   5.124  0.2653 -0.0197  0.2712
   48CHL1  H24A 3541   6.239  -0.039   5.150  0.2770 -0.2507 -0.3487
   48CHL1  H24B 3542   6.403   0.004   5.062  0.4776  1.4478 -0.2480
   48CHL1   C25 3543   6.384   0.084   5.259 -0.8374 -0.0757  0.1160
   48CHL1   H25 3544   6.308   0.105   5.337  1.1898  0.7769  1.9830
   48CHL1   C26 3545   6.474  -0.036   5.304 -0.2234  0.0407 -0.3771
   48CHL1  H26A 3546   6.548  -0.061   5.225  0.4134  0.2370  0.1499
   48CHL1  H26B 3547   6.531  -0.014   5.397 -1.6793  0.5481  0.4394
   48CHL1  H26C 3548   6.408  -0.124   5.320 -2.6661  1.6134 -1.1991
   48CHL1   C27 3549   6.483   0.207   5.251  0.6199 -0.0969 -0.2722
   48CHL1  H27A 3550   6.545   0.220   5.342 -0.1683  1.5680  0.0715
   48CHL1  H27B 3551   6.545   0.189   5.161 -2.0133  1.1036 -2.5027
   48CHL1  H27C 3552   6.423   0.301   5.242  2.0339  0.9235  0.6521
   49CHL1    C3 3553   1.943   2.297   7.077  0.6882  0.0846 -0.4354
   49CHL1    H3 3554   1.928   2.189   7.058  2.5961 -0.1631 -0.8141
   49CHL1    O3 3555   1.955   2.314   7.218 -0.3553 -0.5074  0.4846
   49CHL1   H3' 3556   1.986   2.401   7.245 -1.0223 -1.2282  4.0623
   49CHL1    C4 3557   2.087   2.323   7.014  0.0330 -1.1924 -0.0683
   49CHL1   H4A 3558   2.121   2.422   7.050  1.9747 -1.9798  0.4185
   49CHL1   H4B 3559   2.158   2.255   7.066  1.6671  0.7018  0.2966
   49CHL1    C5 3560   2.090   2.314   6.864  1.0961 -0.8402  0.0917
   49CHL1    C6 3561   2.186   2.252   6.792  0.1295 -0.2346 -0.1355
   49CHL1    H6 3562   2.270   2.204   6.845  0.9693 -1.4252 -2.4034
   49CHL1    C7 3563   2.192   2.241   6.642 -0.5924 -0.3960 -0.3512
   49CHL1   H7A 3564   2.297   2.272   6.622 -0.1607  0.0243  2.2017
   49CHL1   H7B 3565   2.181   2.132   6.621 -3.6984 -1.1325  3.7386
   49CHL1    C8 3566   2.084   2.318   6.570 -0.2951 -0.7856  0.9847
   49CHL1    H8 3567   2.116   2.424   6.571  0.1950 -0.9081  3.3543
   49CHL1   C14 3568   2.069   2.288   6.419  0.1706 -0.3122  0.4543
   49CHL1   H14 3569   2.044   2.180   6.411 -0.1589 -0.1215 -1.3027
   49CHL1   C15 3570   2.196   2.304   6.332 -0.3124  0.8211  0.3921
   49CHL1  H15A 3571   2.229   2.408   6.353 -1.3936  1.2264  0.1460
   49CHL1  H15B 3572   2.278   2.236   6.365 -0.5992 -0.1626 -0.8550
   49CHL1   C16 3573   2.144   2.285   6.193 -0.9623  0.3007 -0.0827
   49CHL1  H16A 3574   2.180   2.360   6.120 -2.1330 -0.1923 -1.1988
   49CHL1  H16B 3575   2.157   2.177   6.174  0.4736  0.3915  0.2829
   49CHL1   C17 3576   1.986   2.307   6.202 -0.5403  0.0405  0.1788
   49CHL1   H17 3577   1.947   2.203   6.204  1.1991 -0.6382  0.2089
   49CHL1   C13 3578   1.955   2.366   6.345 -0.2297  0.3323 -0.3119
   49CHL1   C18 3579   1.993   2.519   6.343  0.0702 -0.1710  0.2218
   49CHL1  H18A 3580   1.913   2.565   6.282 -0.3686  3.7028  3.3420
   49CHL1  H18B 3581   1.987   2.552   6.449 -1.4664  0.7678 -0.1261
   49CHL1  H18C 3582   2.087   2.549   6.292  0.8992 -0.8549  1.3088
   49CHL1   C12 3583   1.822   2.324   6.421  0.3011  0.2827  0.2457
   49CHL1  H12A 3584   1.726   2.366   6.383 -0.4275 -0.9074  0.6952
   49CHL1  H12B 3585   1.804   2.214   6.419  1.1346  0.1314  0.8546
   49CHL1   C11 3586   1.833   2.367   6.567  0.8193  0.2983 -0.0941
   49CHL1  H11A 3587   1.844   2.477   6.581  0.0827  0.4146 -0.4258
   49CHL1  H11B 3588   1.735   2.342   6.612  1.9181  0.9177  2.8948
   49CHL1    C9 3589   1.951   2.308   6.650  0.4582  0.2089  0.1749
   49CHL1    H9 3590   1.931   2.202   6.676 -0.5307  1.0090  3.0918
   49CHL1   C10 3591   1.970   2.377   6.795  0.2825  0.3393  0.5851
   49CHL1   C19 3592   2.017   2.527   6.783 -0.0316  0.0085  0.2870
   49CHL1  H19A 3593   2.030   2.567   6.886  3.2745  0.0479 -0.0537
   49CHL1  H19B 3594   2.114   2.546   6.732  0.3831 -0.0933  1.0233
   49CHL1  H19C 3595   1.937   2.585   6.733 -2.0597 -1.6070  1.5064
   49CHL1    C1 3596   1.831   2.374   6.874 -0.4378  0.4580 -0.7741
   49CHL1   H1A 3597   1.766   2.448   6.823 -0.2555  0.2776 -1.2769
   49CHL1   H1B 3598   1.786   2.276   6.851 -0.7038  0.6686 -1.1661
   49CHL1    C2 3599   1.837   2.390   7.022  0.4450 -0.2138 -0.8111
   49CHL1   H2A 3600   1.745   2.373   7.082  1.7515 -1.2122  1.0215
   49CHL1   H2B 3601   1.853   2.495   7.055  1.5392 -0.0562 -1.8090
   49CHL1   C20 3602   1.921   2.375   6.076 -0.2003 -0.4339  0.0821
   49CHL1   H20 3603   1.975   2.472   6.062 -1.7896  0.3420 -0.9550
   49CHL1   C21 3604   1.770   2.393   6.099 -0.8610 -0.6324  0.2949
   49CHL1  H21A 3605   1.729   2.298   6.139 -1.5813 -0.5076 -0.1320
   49CHL1  H21B 3606   1.714   2.424   6.008  0.6326  1.7619  0.1119
   49CHL1  H21C 3607   1.746   2.473   6.172  0.6767  1.1021 -0.9878
   49CHL1   C22 3608   1.958   2.296   5.947 -0.4369 -0.2041 -1.0502
   49CHL1  H22A 3609   2.067   2.283   5.929 -0.4832  0.3905 -1.7963
   49CHL1  H22B 3610   1.906   2.198   5.952 -0.8572  0.0646  1.7269
   49CHL1   C23 3611   1.901   2.367   5.820 -0.2386  0.2489 -0.1540
   49CHL1  H23A 3612   1.791   2.379   5.821 -0.1450  1.2174 -0.3403
   49CHL1  H23B 3613   1.936   2.472   5.823  1.8210 -0.3923  0.3858
   49CHL1   C24 3614   1.939   2.296   5.684  0.0425 -0.0899 -0.0831
   49CHL1  H24A 3615   2.049   2.277   5.689  0.0501  0.1343  3.6446
   49CHL1  H24B 3616   1.890   2.197   5.674  0.4105 -0.3271  0.4031
   49CHL1   C25 3617   1.911   2.380   5.558  0.3570  0.0965 -0.2695
   49CHL1   H25 3618   1.802   2.401   5.553 -0.0149 -1.5856  0.0603
   49CHL1   C26 3619   1.989   2.518   5.556  0.7662  0.0040 -0.0330
   49CHL1  H26A 3620   1.970   2.556   5.453 -2.6132 -1.6670 -0.1731
   49CHL1  H26B 3621   1.943   2.590   5.627  0.8419 -1.3054  1.3865
   49CHL1  H26C 3622   2.094   2.509   5.590  0.5189 -1.6120  0.3474
   49CHL1   C27 3623   1.945   2.301   5.436  0.8942 -0.4257 -0.4581
   49CHL1  H27A 3624   1.912   2.349   5.342  0.8460 -1.3037 -0.8978
   49CHL1  H27B 3625   2.053   2.280   5.418  0.5382 -2.5097 -0.4776
   49CHL1  H27C 3626   1.893   2.202   5.439  0.0022 -0.0224 -1.9962
   50CHL1    C3 3627   5.600   1.385   3.729 -0.1538 -0.2671  0.0393
   50CHL1    H3 3628   5.707   1.359   3.711 -0.8640 -3.1827 -0.4930
   50CHL1    O3 3629   5.544   1.412   3.599  0.3767  0.5948 -0.2965
   50CHL1   H3' 3630   5.461   1.458   3.616  0.1318  1.2464 -2.8440
   50CHL1    C4 3631   5.532   1.267   3.791 -0.2669 -0.6709 -0.2277
   50CHL1   H4A 3632   5.422   1.285   3.787 -0.1600 -0.0331 -0.4280
   50CHL1   H4B 3633   5.559   1.175   3.736  1.0280 -0.1211 -0.5496
   50CHL1    C5 3634   5.579   1.247   3.938  0.0841 -0.9239  0.7564
   50CHL1    C6 3635   5.614   1.134   3.994  0.4663 -0.0503  0.1360
   50CHL1    H6 3636   5.610   1.042   3.934  0.6462  1.0006 -1.5536
   50CHL1    C7 3637   5.642   1.114   4.139 -0.4052  0.6859  0.3493
   50CHL1   H7A 3638   5.581   1.033   4.185  0.6204  0.2454  0.9518
   50CHL1   H7B 3639   5.748   1.085   4.153 -0.6431 -0.0351  0.6927
   50CHL1    C8 3640   5.604   1.233   4.232 -0.1295 -0.0840  0.5713
   50CHL1    H8 3641   5.495   1.226   4.252 -0.8486 -1.0747 -3.0042
   50CHL1   C14 3642   5.684   1.223   4.364 -0.0310 -0.0094 -0.3830
   50CHL1   H14 3643   5.786   1.241   4.322  0.2837 -1.9585 -0.5548
   50CHL1   C15 3644   5.683   1.088   4.433  0.0059 -0.1735  0.4197
   50CHL1  H15A 3645   5.579   1.053   4.450  0.2004 -0.3766  1.2247
   50CHL1  H15B 3646   5.740   1.003   4.390  0.0748 -0.1901  0.5442
   50CHL1   C16 3647   5.727   1.128   4.574 -0.8801 -0.7531 -0.6358
   50CHL1  H16A 3648   5.647   1.082   4.636 -1.2458  0.4526 -0.1853
   50CHL1  H16B 3649   5.824   1.082   4.603 -1.5631 -1.3446  0.7701
   50CHL1   C17 3650   5.740   1.281   4.579  0.0748 -0.4463  0.2812
   50CHL1   H17 3651   5.848   1.298   4.560  0.8823 -0.9411  3.8110
   50CHL1   C13 3652   5.665   1.338   4.462  0.4223 -0.0760  0.2175
   50CHL1   C18 3653   5.512   1.347   4.490  0.1579  0.1660 -0.1203
   50CHL1  H18A 3654   5.496   1.425   4.567 -2.5324 -0.2374 -0.1788
   50CHL1  H18B 3655   5.450   1.374   4.402 -0.9549 -1.0262  0.2811
   50CHL1  H18C 3656   5.487   1.245   4.524 -2.5981  0.6470 -0.5292
   50CHL1   C12 3657   5.715   1.466   4.391 -0.1654  0.0720  0.0569
   50CHL1  H12A 3658   5.694   1.553   4.457 -0.3332  0.8153 -0.9471
   50CHL1  H12B 3659   5.826   1.461   4.378 -0.1872  0.1147 -0.1448
   50CHL1   C11 3660   5.640   1.497   4.255 -0.9188  0.5618 -0.0331
   50CHL1  H11A 3661   5.539   1.541   4.275 -0.7730  1.4247 -1.1059
   50CHL1  H11B 3662   5.702   1.579   4.215 -0.4061  0.1694 -0.0502
   50CHL1    C9 3663   5.637   1.364   4.164 -0.1591  0.3092  0.1911
   50CHL1    H9 3664   5.745   1.355   4.142 -0.5959  1.5011 -2.9952
   50CHL1   C10 3665   5.575   1.380   4.019 -0.8296 -0.4832 -0.1483
   50CHL1   C19 3666   5.427   1.416   4.034 -0.2974 -0.5837 -0.3716
   50CHL1  H19A 3667   5.423   1.517   4.079  0.1667 -1.1166  0.9304
   50CHL1  H19B 3668   5.362   1.437   3.947  1.0228 -0.1179 -1.2772
   50CHL1  H19C 3669   5.373   1.349   4.104 -0.0790  1.1303  1.5122
   50CHL1    C1 3670   5.648   1.502   3.944  0.1989  0.1653  0.3410
   50CHL1   H1A 3671   5.624   1.593   4.002 -1.0229  1.2220 -1.6805
   50CHL1   H1B 3672   5.758   1.488   3.945  0.3152  1.0518  1.5887
   50CHL1    C2 3673   5.598   1.516   3.806 -0.2485 -0.0915  0.2652
   50CHL1   H2A 3674   5.649   1.601   3.756  0.5678 -1.4692 -1.3457
   50CHL1   H2B 3675   5.491   1.545   3.822  0.2071  2.0786 -0.2410
   50CHL1   C20 3676   5.721   1.344   4.719  0.1883 -0.2304 -0.0325
   50CHL1   H20 3677   5.615   1.336   4.750  0.0920 -4.1607 -0.8013
   50CHL1   C21 3678   5.762   1.487   4.707  0.4214 -0.1749 -0.4693
   50CHL1  H21A 3679   5.668   1.539   4.678 -0.8792 -1.8404  0.5634
   50CHL1  H21B 3680   5.845   1.498   4.634  0.4146  0.4232 -0.3896
   50CHL1  H21C 3681   5.803   1.525   4.802 -0.9024 -0.8190  0.3940
   50CHL1   C22 3682   5.788   1.266   4.828 -0.4333 -0.1801 -0.2589
   50CHL1  H22A 3683   5.761   1.158   4.823  0.0953 -0.3213 -0.1307
   50CHL1  H22B 3684   5.898   1.275   4.815 -0.6259  1.0257 -1.2788
   50CHL1   C23 3685   5.765   1.332   4.973  0.1148  0.7076  0.1561
   50CHL1  H23A 3686   5.795   1.439   4.979  0.6729  0.6449 -1.2247
   50CHL1  H23B 3687   5.657   1.336   4.999  0.4184 -0.8721  1.8307
   50CHL1   C24 3688   5.853   1.257   5.084 -0.5516 -0.5350 -1.1537
   50CHL1  H24A 3689   5.837   1.149   5.062  0.6226 -0.4798 -2.4059
   50CHL1  H24B 3690   5.959   1.290   5.080 -0.7467  0.7428  1.7917
   50CHL1   C25 3691   5.785   1.299   5.220 -0.7174  0.2517 -0.4788
   50CHL1   H25 3692   5.676   1.279   5.206 -0.8323 -0.6553  1.4250
   50CHL1   C26 3693   5.832   1.220   5.348 -0.9061  0.0476  0.1254
   50CHL1  H26A 3694   5.776   1.254   5.437  1.7353  0.3531  1.7754
   50CHL1  H26B 3695   5.819   1.110   5.334 -2.5052  0.0309  1.4533
   50CHL1  H26C 3696   5.937   1.227   5.383 -0.2395 -2.0810 -1.2568
   50CHL1   C27 3697   5.806   1.448   5.239 -0.0313  0.7368 -0.3116
   50CHL1  H27A 3698   5.915   1.469   5.242 -0.1031  1.1022 -0.0943
   50CHL1  H27B 3699   5.754   1.515   5.167  0.8862  2.2970  0.4183
   50CHL1  H27C 3700   5.766   1.477   5.339  0.0175  2.0023 -0.6408
   51CHL1    C3 3701   2.210   2.542   3.458 -0.8140 -0.1538  1.3171
   51CHL1    H3 3702   2.101   2.564   3.460 -0.5507  1.9465 -1.1947
   51CHL1    O3 3703   2.261   2.518   3.328  0.1827 -0.0421 -0.0291
   51CHL1   H3' 3704   2.356   2.504   3.328  0.2127  0.0043 -1.5706
   51CHL1    C4 3705   2.288   2.658   3.518 -0.4631 -0.1230 -0.4877
   51CHL1   H4A 3706   2.398   2.649   3.502 -0.4348  1.4183 -1.3038
   51CHL1   H4B 3707   2.257   2.743   3.454  0.4616  1.2143  0.7781
   51CHL1    C5 3708   2.255   2.673   3.668 -0.2342 -0.1438 -0.1465
   51CHL1    C6 3709   2.203   2.782   3.714  0.6785 -0.1653  0.1289
   51CHL1    H6 3710   2.181   2.858   3.637 -1.0652 -2.2399 -1.5578
   51CHL1    C7 3711   2.182   2.804   3.857 -0.0886  0.1770  0.0394
   51CHL1   H7A 3712   2.230   2.901   3.882  3.5323 -1.1100 -1.3034
   51CHL1   H7B 3713   2.074   2.796   3.884 -0.0525 -0.8594 -0.0642
   51CHL1    C8 3714   2.238   2.692   3.952 -0.4820 -0.1983 -0.4335
   51CHL1    H8 3715   2.346   2.716   3.943  0.2167 -2.6269  0.6863
   51CHL1   C14 3716   2.183   2.705   4.092 -0.1277 -1.0298 -0.0672
   51CHL1   H14 3717   2.077   2.676   4.075 -0.2937 -1.2903  1.2778
   51CHL1   C15 3718   2.183   2.840   4.156  0.1843  0.2986 -1.3027
   51CHL1  H15A 3719   2.281   2.893   4.156  1.0455 -1.2263 -0.2363
   51CHL1  H15B 3720   2.099   2.906   4.127 -2.1502 -0.9137  2.0808
   51CHL1   C16 3721   2.147   2.812   4.308  0.2389 -0.1438 -0.1128
   51CHL1  H16A 3722   2.213   2.875   4.371  1.1772  0.2162 -1.3945
   51CHL1  H16B 3723   2.038   2.822   4.322  0.1236 -1.3533 -0.0664
   51CHL1   C17 3724   2.172   2.656   4.327  0.4999  0.0322  0.1247
   51CHL1   H17 3725   2.071   2.610   4.319  0.3605  0.4060 -0.2926
   51CHL1   C13 3726   2.247   2.607   4.194  0.5724  0.0664  0.3372
   51CHL1   C18 3727   2.395   2.640   4.196  0.2210  0.0245  0.2964
   51CHL1  H18A 3728   2.426   2.745   4.214  2.0899 -0.7508  1.9671
   51CHL1  H18B 3729   2.440   2.574   4.273 -0.4507 -0.2341  0.4800
   51CHL1  H18C 3730   2.439   2.614   4.097 -1.1013 -0.0892 -0.2808
   51CHL1   C12 3731   2.210   2.461   4.135 -1.1356  0.0050 -0.3794
   51CHL1  H12A 3732   2.255   2.382   4.200 -2.3428 -2.0367 -1.8980
   51CHL1  H12B 3733   2.100   2.455   4.150 -0.7539 -2.0345  2.3904
   51CHL1   C11 3734   2.261   2.445   3.990 -0.1684 -0.3034 -0.6683
   51CHL1  H11A 3735   2.371   2.436   4.008 -0.0925  0.9582 -0.3963
   51CHL1  H11B 3736   2.222   2.353   3.941  1.3829 -0.3039 -1.9902
   51CHL1    C9 3737   2.215   2.557   3.892  0.0652  0.5792 -0.9968
   51CHL1    H9 3738   2.106   2.546   3.874 -0.0858  2.2759 -1.3322
   51CHL1   C10 3739   2.275   2.545   3.749  0.3252  0.1241  0.0687
   51CHL1   C19 3740   2.431   2.516   3.765  0.0326 -0.2944  0.1499
   51CHL1  H19A 3741   2.445   2.409   3.793 -0.7122 -0.5455 -0.4077
   51CHL1  H19B 3742   2.484   2.547   3.673 -2.8164  0.0354 -1.5141
   51CHL1  H19C 3743   2.476   2.579   3.845  0.0247  2.7251 -2.0575
   51CHL1    C1 3744   2.202   2.427   3.679 -0.4375  1.1797 -0.0998
   51CHL1   H1A 3745   2.230   2.333   3.730 -2.2008 -0.5241 -2.0762
   51CHL1   H1B 3746   2.094   2.440   3.703 -0.1241  0.3017  1.9205
   51CHL1    C2 3747   2.230   2.410   3.531  0.8233  0.4775  0.3605
   51CHL1   H2A 3748   2.166   2.329   3.491  0.6102  1.2983 -1.0528
   51CHL1   H2B 3749   2.334   2.372   3.521  0.0716 -1.2249 -1.7322
   51CHL1   C20 3750   2.237   2.616   4.462  0.5781  0.6464  0.0196
   51CHL1   H20 3751   2.337   2.662   4.473  1.2910 -0.6881 -0.6650
   51CHL1   C21 3752   2.261   2.462   4.479  0.7276 -0.1580  0.7290
   51CHL1  H21A 3753   2.305   2.455   4.580  0.1744  1.4942  1.1143
   51CHL1  H21B 3754   2.324   2.424   4.396 -0.4269  1.3527 -0.9200
   51CHL1  H21C 3755   2.167   2.404   4.472  1.5999 -1.4936 -0.7684
   51CHL1   C22 3756   2.152   2.655   4.593  0.0736  0.1690  0.3570
   51CHL1  H22A 3757   2.198   2.609   4.684 -1.1306  0.1725  0.9948
   51CHL1  H22B 3758   2.155   2.764   4.616 -0.7585 -0.0486  1.6618
   51CHL1   C23 3759   1.996   2.615   4.596 -0.3258  0.2732  0.1307
   51CHL1  H23A 3760   1.951   2.692   4.531 -0.5557 -0.3318 -0.4408
   51CHL1  H23B 3761   1.971   2.516   4.552 -0.1890 -0.6428  1.9996
   51CHL1   C24 3762   1.933   2.616   4.735  0.0016 -0.2252 -1.0287
   51CHL1  H24A 3763   1.975   2.530   4.791 -0.7457  0.3688  0.5093
   51CHL1  H24B 3764   1.967   2.710   4.783 -0.0869 -0.1386 -1.1349
   51CHL1   C25 3765   1.778   2.609   4.735  0.0605 -0.0609 -0.4706
   51CHL1   H25 3766   1.744   2.692   4.669  1.0319  2.7047  2.2681
   51CHL1   C26 3767   1.717   2.471   4.686  0.4788 -1.5458  0.5938
   51CHL1  H26A 3768   1.721   2.448   4.577 -2.6806 -0.3547  0.1386
   51CHL1  H26B 3769   1.757   2.387   4.747 -1.4483 -0.7171  3.1978
   51CHL1  H26C 3770   1.609   2.478   4.708  0.0344 -0.0905 -1.7125
   51CHL1   C27 3771   1.721   2.643   4.872 -0.1326 -0.3179 -0.8832
   51CHL1  H27A 3772   1.784   2.722   4.917  1.5890 -1.3577 -1.3950
   51CHL1  H27B 3773   1.617   2.683   4.866 -0.2902 -0.7429 -0.9960
   51CHL1  H27C 3774   1.720   2.557   4.943  0.7962 -0.4924 -1.0684
   52CHL1    C3 3775   4.859   4.683   4.025 -0.7381  0.7515 -0.0082
   52CHL1    H3 3776   4.779   4.754   4.055 -0.4237  2.7089 -3.2876
   52CHL1    O3 3777   4.841   4.650   3.892  0.0723  0.3350  0.2857
   52CHL1   H3' 3778   4.747   4.629   3.885  0.4267 -1.0205 -0.8258
   52CHL1    C4 3779   4.998   4.758   4.035  0.1256 -0.2994  0.1083
   52CHL1   H4A 3780   5.083   4.700   3.992  2.1903  2.1623  0.5931
   52CHL1   H4B 3781   4.996   4.848   3.970 -1.1129 -0.4151 -0.0283
   52CHL1    C5 3782   5.037   4.802   4.175  0.2173  0.9457 -0.3402
   52CHL1    C6 3783   5.074   4.924   4.208 -0.4658  0.0077  0.1430
   52CHL1    H6 3784   5.082   5.001   4.130  2.7359 -1.4488 -1.1255
   52CHL1    C7 3785   5.113   4.963   4.344  0.0231 -0.3165 -0.1424
   52CHL1   H7A 3786   5.201   5.032   4.343 -0.4593  0.3111  0.2325
   52CHL1   H7B 3787   5.026   5.021   4.380  0.0621 -1.2983  1.6279
   52CHL1    C8 3788   5.133   4.844   4.444  0.5279  0.1292  0.2806
   52CHL1    H8 3789   5.237   4.814   4.416 -0.0733 -1.0317 -0.7645
   52CHL1   C14 3790   5.129   4.887   4.588  0.4300  0.3605  0.0337
   52CHL1   H14 3791   5.024   4.919   4.604  0.5057 -0.3712  2.5124
   52CHL1   C15 3792   5.215   5.008   4.638 -0.0866  0.1387 -0.1270
   52CHL1  H15A 3793   5.312   5.002   4.583  0.1887 -3.0830  0.5286
   52CHL1  H15B 3794   5.165   5.104   4.613 -1.7342 -1.1399 -2.0482
   52CHL1   C16 3795   5.226   4.988   4.797  0.3726  0.7094  0.2757
   52CHL1  H16A 3796   5.335   4.986   4.817  0.2152  1.1946  1.2256
   52CHL1  H16B 3797   5.192   5.075   4.857 -1.3862  0.6870 -0.6152
   52CHL1   C17 3798   5.137   4.864   4.827  0.1205  0.5917  0.2781
   52CHL1   H17 3799   5.030   4.893   4.834 -1.0550 -3.5298  2.2963
   52CHL1   C13 3800   5.142   4.779   4.697 -0.6933 -0.1720  1.1495
   52CHL1   C18 3801   5.279   4.706   4.689  0.0179 -0.1994 -0.1034
   52CHL1  H18A 3802   5.303   4.654   4.784  1.7426 -2.1781 -1.5315
   52CHL1  H18B 3803   5.274   4.623   4.615  0.9508  1.0159 -1.5982
   52CHL1  H18C 3804   5.354   4.784   4.663 -0.1532 -0.9250 -3.2296
   52CHL1   C12 3805   5.036   4.673   4.674  0.1423 -0.7281  0.1756
   52CHL1  H12A 3806   5.071   4.588   4.737  1.1463 -1.6281 -1.5385
   52CHL1  H12B 3807   4.937   4.722   4.689  1.7084  2.0759  2.5641
   52CHL1   C11 3808   5.044   4.621   4.525  0.1300 -0.1267  0.6733
   52CHL1  H11A 3809   5.135   4.561   4.503 -1.2332 -1.5852 -1.3765
   52CHL1  H11B 3810   4.948   4.566   4.520 -0.9516  1.6245  1.2800
   52CHL1    C9 3811   5.032   4.730   4.425  0.1765  0.1528 -0.2239
   52CHL1    H9 3812   4.941   4.782   4.459 -0.1515 -2.2175  2.9929
   52CHL1   C10 3813   5.021   4.681   4.276 -0.5526 -0.6933 -0.4441
   52CHL1   C19 3814   5.135   4.580   4.250 -0.6558 -0.3602 -0.6995
   52CHL1  H19A 3815   5.230   4.637   4.246 -0.3331 -0.5714  2.0491
   52CHL1  H19B 3816   5.149   4.501   4.327  1.0888  0.8812  0.3330
   52CHL1  H19C 3817   5.131   4.527   4.152 -1.4000 -0.2657 -0.7258
   52CHL1    C1 3818   4.884   4.607   4.258 -0.4475  0.7620 -0.3235
   52CHL1   H1A 3819   4.890   4.526   4.335  1.1448  0.5427 -0.6440
   52CHL1   H1B 3820   4.812   4.684   4.293 -0.2536  1.8089 -2.1237
   52CHL1    C2 3821   4.849   4.563   4.118 -0.5134  0.1116 -0.2212
   52CHL1   H2A 3822   4.743   4.529   4.117 -1.2457  2.2472 -1.2586
   52CHL1   H2B 3823   4.911   4.475   4.087 -1.7297  0.0812 -2.8978
   52CHL1   C20 3824   5.161   4.798   4.969  0.1411  0.3289  0.2543
   52CHL1   H20 3825   5.254   4.737   4.963  1.2481  1.9315  0.5533
   52CHL1   C21 3826   5.048   4.697   5.000 -0.6772 -0.7843  0.3226
   52CHL1  H21A 3827   4.954   4.757   4.999  0.3856  0.9589 -0.9643
   52CHL1  H21B 3828   5.062   4.654   5.101  1.3953  0.0808  0.4632
   52CHL1  H21C 3829   5.035   4.609   4.933  0.0244 -1.4622  1.0566
   52CHL1   C22 3830   5.180   4.897   5.090  0.2161 -0.1019 -0.1366
   52CHL1  H22A 3831   5.267   4.956   5.055  0.4066  0.0463  0.5550
   52CHL1  H22B 3832   5.091   4.962   5.109 -0.9179 -0.7998 -2.6159
   52CHL1   C23 3833   5.215   4.820   5.216 -0.5059 -0.1737 -0.0525
   52CHL1  H23A 3834   5.125   4.777   5.266  1.5966 -3.0604  1.5389
   52CHL1  H23B 3835   5.274   4.736   5.176  0.1332  0.5840 -0.7482
   52CHL1   C24 3836   5.303   4.906   5.317  0.2744 -0.3476 -0.2469
   52CHL1  H24A 3837   5.339   4.838   5.397 -0.2293  0.4646  0.6991
   52CHL1  H24B 3838   5.396   4.942   5.268  1.2674 -3.5493 -0.9608
   52CHL1   C25 3839   5.228   5.018   5.394  0.3577 -0.2881  0.2238
   52CHL1   H25 3840   5.176   5.077   5.316  1.0028 -1.2550 -0.9701
   52CHL1   C26 3841   5.110   4.992   5.494  1.0972  0.6012  0.1296
   52CHL1  H26A 3842   5.142   4.927   5.579  1.8419 -1.0645 -1.3563
   52CHL1  H26B 3843   5.049   5.078   5.526  0.0455  0.7707 -2.1336
   52CHL1  H26C 3844   5.041   4.927   5.435 -1.3338  3.0577  0.0952
   52CHL1   C27 3845   5.325   5.111   5.474  0.1127  0.5506  0.0217
   52CHL1  H27A 3846   5.423   5.141   5.430  0.4589  2.4469  1.8974
   52CHL1  H27B 3847   5.264   5.198   5.508 -1.5333  0.2252 -1.9008
   52CHL1  H27C 3848   5.357   5.054   5.564 -0.6715 -0.2892 -0.2207
   53CHL1    C3 3849   2.292   0.876   3.521 -0.2478  0.7708  0.0149
   53CHL1    H3 3850   2.189   0.910   3.546  0.0301  1.2914  0.4827
   53CHL1    O3 3851   2.294   0.878   3.377  0.3991  0.5505 -0.3713
   53CHL1   H3' 3852   2.247   0.800   3.347  0.9087  0.0374  0.1476
   53CHL1    C4 3853   2.387   0.980   3.572 -0.1754  0.0200 -0.4634
   53CHL1   H4A 3854   2.484   0.944   3.531 -0.1945 -0.4194 -0.1273
   53CHL1   H4B 3855   2.367   1.075   3.517 -1.4229 -0.4411 -0.8356
   53CHL1    C5 3856   2.389   0.999   3.719  0.4201  0.6240 -0.4876
   53CHL1    C6 3857   2.376   1.121   3.768 -0.0739  0.0897 -0.3212
   53CHL1    H6 3858   2.365   1.210   3.705 -1.9105  0.0698 -0.0770
   53CHL1    C7 3859   2.373   1.129   3.916 -0.8835 -0.5696 -0.3172
   53CHL1   H7A 3860   2.444   1.207   3.950  0.2630 -1.3500 -0.8577
   53CHL1   H7B 3861   2.270   1.162   3.944  0.1058  0.1023  2.8609
   53CHL1    C8 3862   2.399   1.001   4.008 -0.5985 -0.2007 -0.1381
   53CHL1    H8 3863   2.510   0.993   4.013 -0.4591  1.1157 -0.6643
   53CHL1   C14 3864   2.338   1.019   4.148  0.7031  0.8080  0.1683
   53CHL1   H14 3865   2.229   1.019   4.129  1.0292  1.7136 -2.0135
   53CHL1   C15 3866   2.359   1.153   4.224 -0.1111 -0.1499 -0.3996
   53CHL1  H15A 3867   2.466   1.182   4.214  0.2803 -1.2127  0.4930
   53CHL1  H15B 3868   2.300   1.231   4.172  1.7034 -0.3155 -2.8888
   53CHL1   C16 3869   2.322   1.119   4.367  0.1593 -0.1061 -0.0251
   53CHL1  H16A 3870   2.397   1.144   4.444 -1.5555 -0.5960  1.8920
   53CHL1  H16B 3871   2.235   1.183   4.393  1.4348  0.4194  3.4504
   53CHL1   C17 3872   2.301   0.960   4.370 -0.0532  0.3027 -0.6892
   53CHL1   H17 3873   2.190   0.947   4.369 -0.0767  0.4859 -0.4418
   53CHL1   C13 3874   2.363   0.906   4.242 -0.8210  0.1371 -0.0382
   53CHL1   C18 3875   2.517   0.900   4.260  0.6219 -0.2562 -0.4642
   53CHL1  H18A 3876   2.551   0.824   4.334 -0.7536  1.3593  1.9450
   53CHL1  H18B 3877   2.585   0.879   4.175  2.7825 -0.0023  1.1302
   53CHL1  H18C 3878   2.562   0.993   4.300  0.7151 -0.6429  0.3648
   53CHL1   C12 3879   2.321   0.775   4.173  0.2870 -0.0327 -0.2061
   53CHL1  H12A 3880   2.346   0.694   4.244 -2.4164 -0.3289  0.5472
   53CHL1  H12B 3881   2.210   0.765   4.170  0.3530 -0.6449 -1.4801
   53CHL1   C11 3882   2.375   0.748   4.031 -0.0802  0.3727 -0.0797
   53CHL1  H11A 3883   2.479   0.711   4.043 -0.8212 -1.2938  1.6612
   53CHL1  H11B 3884   2.329   0.657   3.989  1.8486 -1.5026  1.6279
   53CHL1    C9 3885   2.348   0.875   3.948  0.8025 -0.2638  0.4685
   53CHL1    H9 3886   2.237   0.873   3.943  0.8321 -1.9515 -2.3410
   53CHL1   C10 3887   2.394   0.864   3.795 -0.2097  0.7926 -0.5155
   53CHL1   C19 3888   2.545   0.822   3.785 -0.0577 -0.2854 -0.1070
   53CHL1  H19A 3889   2.605   0.887   3.853 -4.0461  2.3693  1.2070
   53CHL1  H19B 3890   2.555   0.717   3.820 -0.4529 -1.0852 -2.2362
   53CHL1  H19C 3891   2.578   0.830   3.679 -0.3372  0.3000 -0.1494
   53CHL1    C1 3892   2.299   0.755   3.727  0.9617  0.1876 -0.1485
   53CHL1   H1A 3893   2.330   0.662   3.780  0.0824 -0.7354 -1.1866
   53CHL1   H1B 3894   2.191   0.769   3.748  0.1759 -1.9343 -2.2437
   53CHL1    C2 3895   2.325   0.738   3.574  0.0735 -0.0339 -0.4771
   53CHL1   H2A 3896   2.246   0.669   3.538 -0.5600  1.2502 -1.6557
   53CHL1   H2B 3897   2.434   0.718   3.561  0.5866  2.1312 -0.0026
   53CHL1   C20 3898   2.333   0.897   4.504 -0.1285 -0.1660 -0.6574
   53CHL1   H20 3899   2.442   0.913   4.522  0.2197  0.2523 -2.8569
   53CHL1   C21 3900   2.300   0.747   4.508  0.2298 -0.0662  0.1663
   53CHL1  H21A 3901   2.225   0.715   4.433 -0.2647 -0.3870  0.7925
   53CHL1  H21B 3902   2.277   0.717   4.613 -0.0326 -1.3791 -0.2444
   53CHL1  H21C 3903   2.388   0.680   4.502  0.0272 -0.4508  1.2798
   53CHL1   C22 3904   2.264   0.971   4.625  0.4494  0.0375  0.4632
   53CHL1  H22A 3905   2.236   1.075   4.597 -1.2201 -0.0947  1.5435
   53CHL1  H22B 3906   2.175   0.911   4.655  0.5361  0.0715  0.7882
   53CHL1   C23 3907   2.355   0.978   4.746  0.4779  0.1077  0.0621
   53CHL1  H23A 3908   2.409   0.882   4.760 -0.4305 -0.1647  2.2838
   53CHL1  H23B 3909   2.426   1.061   4.728  1.1142 -0.8312 -1.9350
   53CHL1   C24 3910   2.267   1.013   4.883  0.2422  0.1053  0.0880
   53CHL1  H24A 3911   2.239   1.119   4.869  2.3321  0.9977  2.1727
   53CHL1  H24B 3912   2.174   0.951   4.882 -0.1371  0.5901 -2.4469
   53CHL1   C25 3913   2.340   1.009   5.019  0.0215 -1.1809  0.5722
   53CHL1   H25 3914   2.365   0.902   5.035  0.1468 -1.6828 -2.3893
   53CHL1   C26 3915   2.457   1.104   5.007 -0.3104  0.0685 -0.7995
   53CHL1  H26A 3916   2.415   1.199   4.968 -2.0477  0.2868  1.3699
   53CHL1  H26B 3917   2.515   1.111   5.102 -0.8519 -0.6300 -0.4042
   53CHL1  H26C 3918   2.528   1.060   4.934 -0.4574 -1.4139 -0.0752
   53CHL1   C27 3919   2.247   1.060   5.132  0.3315 -0.2407  0.4111
   53CHL1  H27A 3920   2.296   1.059   5.231  1.5499  0.0566 -0.1587
   53CHL1  H27B 3921   2.212   1.164   5.111  2.4313  0.3086 -0.6828
   53CHL1  H27C 3922   2.158   0.994   5.142  1.0125 -1.3664 -0.6368
   54CHL1    C3 3923   2.893   2.200   3.484 -0.4591 -1.2692  0.0982
   54CHL1    H3 3924   2.899   2.101   3.535  1.0313  0.1038  2.8255
   54CHL1    O3 3925   2.905   2.184   3.345  0.1311  0.3616  0.3924
   54CHL1   H3' 3926   2.847   2.253   3.310  0.2231  0.2608  0.0369
   54CHL1    C4 3927   2.765   2.255   3.524  1.0402  0.0736  0.4800
   54CHL1   H4A 3928   2.758   2.357   3.480 -2.5274 -1.5083 -3.2885
   54CHL1   H4B 3929   2.682   2.184   3.506 -0.0991  0.9153  2.1809
   54CHL1    C5 3930   2.765   2.265   3.674 -0.5540  0.0932  0.0348
   54CHL1    C6 3931   2.671   2.200   3.749  0.0879  0.0024 -0.1954
   54CHL1    H6 3932   2.603   2.136   3.690 -2.0564  2.4251 -0.5490
   54CHL1    C7 3933   2.653   2.221   3.896 -0.4659 -0.1388 -0.4509
   54CHL1   H7A 3934   2.550   2.251   3.924  0.7941  1.3045  3.2394
   54CHL1   H7B 3935   2.671   2.121   3.942  1.2975 -0.5473 -1.8920
   54CHL1    C8 3936   2.738   2.338   3.957 -0.0568 -0.0429 -0.2130
   54CHL1    H8 3937   2.688   2.433   3.928  0.8212  1.0807  1.7650
   54CHL1   C14 3938   2.751   2.319   4.108  0.6662  0.6395  0.4535
   54CHL1   H14 3939   2.803   2.222   4.125 -0.5832 -0.3822 -1.2605
   54CHL1   C15 3940   2.614   2.296   4.183 -0.4297 -0.0364  0.1699
   54CHL1  H15A 3941   2.545   2.378   4.155 -1.3561 -0.9724 -0.3551
   54CHL1  H15B 3942   2.569   2.196   4.164  2.1460 -1.5151  1.3815
   54CHL1   C16 3943   2.651   2.320   4.326  0.3847  0.0877 -0.3254
   54CHL1  H16A 3944   2.583   2.399   4.363 -0.9219 -1.0129 -0.2804
   54CHL1  H16B 3945   2.621   2.230   4.385 -0.8538  0.9703  0.4408
   54CHL1   C17 3946   2.797   2.370   4.330  0.5706  0.7083  0.7510
   54CHL1   H17 3947   2.861   2.280   4.333 -1.3032 -0.6977  0.2570
   54CHL1   C13 3948   2.831   2.415   4.184 -0.2447  0.4566 -0.3693
   54CHL1   C18 3949   2.766   2.558   4.156  0.4900  0.3415  0.2196
   54CHL1  H18A 3950   2.670   2.558   4.213  2.0026 -2.6662  3.1530
   54CHL1  H18B 3951   2.832   2.637   4.200  0.5550  0.2704  0.2492
   54CHL1  H18C 3952   2.747   2.568   4.048 -1.3079 -0.3702  0.4400
   54CHL1   C12 3953   2.976   2.410   4.124 -0.1439  0.1858  0.2723
   54CHL1  H12A 3954   3.040   2.493   4.158 -0.7963  0.9293 -0.2809
   54CHL1  H12B 3955   3.026   2.314   4.148 -0.5523 -0.6950 -2.1510
   54CHL1   C11 3956   2.980   2.426   3.966 -0.0421 -0.1194  0.4375
   54CHL1  H11A 3957   2.965   2.534   3.948  2.2877 -0.0553 -1.7564
   54CHL1  H11B 3958   3.083   2.396   3.938 -1.4709 -4.5737 -0.8859
   54CHL1    C9 3959   2.881   2.334   3.894 -1.1052 -0.3720 -0.2623
   54CHL1    H9 3960   2.917   2.231   3.914 -0.9948 -0.1765  0.5778
   54CHL1   C10 3961   2.875   2.349   3.740 -1.2931 -0.7257  0.7890
   54CHL1   C19 3962   2.851   2.494   3.709  0.3257  0.4603  0.0611
   54CHL1  H19A 3963   2.848   2.514   3.600 -0.6264  0.1523  0.0188
   54CHL1  H19B 3964   2.752   2.530   3.743  1.1017  2.5683  0.2462
   54CHL1  H19C 3965   2.926   2.564   3.752 -0.8289  0.8545  1.5368
   54CHL1    C1 3966   3.014   2.312   3.682  0.1494  0.4115 -0.1561
   54CHL1   H1A 3967   3.078   2.402   3.696 -1.5537  1.6934 -0.2628
   54CHL1   H1B 3968   3.049   2.224   3.740  0.1107 -1.1193 -2.3265
   54CHL1    C2 3969   3.018   2.281   3.524 -0.5458  0.5711 -0.1144
   54CHL1   H2A 3970   3.104   2.220   3.491 -1.3082  0.0417 -1.1665
   54CHL1   H2B 3971   3.020   2.378   3.470  2.4519 -0.4213 -2.0184
   54CHL1   C20 3972   2.823   2.453   4.452 -0.4619  0.9499 -0.0674
   54CHL1   H20 3973   2.753   2.540   4.449  0.0485  1.3782  0.2217
   54CHL1   C21 3974   2.961   2.514   4.448 -0.5833 -0.1594 -0.4925
   54CHL1  H21A 3975   3.040   2.436   4.448 -1.5354 -1.1661  0.6749
   54CHL1  H21B 3976   2.974   2.583   4.535  1.6314 -0.4009 -0.5879
   54CHL1  H21C 3977   2.971   2.583   4.361  1.1126  0.1292 -0.1092
   54CHL1   C22 3978   2.823   2.382   4.586 -0.5979  0.2479 -0.2731
   54CHL1  H22A 3979   2.745   2.302   4.584 -1.3499  0.8900  1.3521
   54CHL1  H22B 3980   2.926   2.343   4.597 -0.1160  1.8760  1.3441
   54CHL1   C23 3981   2.790   2.459   4.713  0.0587  0.1012 -0.4558
   54CHL1  H23A 3982   2.856   2.547   4.720 -1.2619  1.0517  0.8579
   54CHL1  H23B 3983   2.690   2.507   4.710 -1.0166 -1.9481  0.1919
   54CHL1   C24 3984   2.808   2.366   4.833  0.0389 -0.1535 -1.0360
   54CHL1  H24A 3985   2.914   2.333   4.838  1.7826  4.5221 -1.3941
   54CHL1  H24B 3986   2.788   2.426   4.924  0.5049 -2.8376  0.9450
   54CHL1   C25 3987   2.704   2.257   4.851 -0.0917 -0.0507 -0.6960
   54CHL1   H25 3988   2.743   2.178   4.784  5.4886  0.9259  0.8953
   54CHL1   C26 3989   2.707   2.208   5.000  0.0526  1.0455 -0.0436
   54CHL1  H26A 3990   2.642   2.271   5.064 -1.6897 -0.1686 -0.5417
   54CHL1  H26B 3991   2.671   2.104   5.015 -0.9771  1.6841  2.3926
   54CHL1  H26C 3992   2.809   2.207   5.044  0.5990  0.6676 -1.2856
   54CHL1   C27 3993   2.557   2.303   4.816 -0.3163  0.1378  0.6652
   54CHL1  H27A 3994   2.542   2.326   4.709 -1.7845 -1.2666  0.5161
   54CHL1  H27B 3995   2.483   2.226   4.851 -1.6685  0.8300 -0.5637
   54CHL1  H27C 3996   2.536   2.397   4.870 -1.2925  0.0685  0.4269
   55CHL1    C3 3997   5.972   3.931   3.970 -0.2442 -0.3227  0.5315
   55CHL1    H3 3998   5.991   4.029   4.020  1.8400 -0.6767  0.5187
   55CHL1    O3 3999   5.949   3.933   3.832  0.0914  0.2175  0.0065
   55CHL1   H3' 4000   6.008   3.863   3.804 -0.6667  0.0021 -1.1361
   55CHL1    C4 4001   6.095   3.837   3.984 -0.0953  0.2888  0.5057
   55CHL1   H4A 4002   6.072   3.743   3.929 -0.7834  0.7275  0.0305
   55CHL1   H4B 4003   6.183   3.878   3.930 -1.5151 -1.2097 -3.3456
   55CHL1    C5 4004   6.116   3.796   4.128 -0.4503  0.6639  1.1594
   55CHL1    C6 4005   6.232   3.806   4.191  0.0944  0.0864 -0.1428
   55CHL1    H6 4006   6.321   3.842   4.136  0.1836 -0.4910 -0.3840
   55CHL1    C7 4007   6.260   3.765   4.328 -0.2388 -0.5019  0.4622
   55CHL1   H7A 4008   6.361   3.719   4.320  1.3889  2.8099  0.3938
   55CHL1   H7B 4009   6.268   3.855   4.392 -1.8672 -0.4286  0.5963
   55CHL1    C8 4010   6.152   3.679   4.389  0.3850  0.5657  0.1281
   55CHL1    H8 4011   6.173   3.577   4.349  0.6020  0.8966 -0.6260
   55CHL1   C14 4012   6.172   3.678   4.536 -0.1004 -0.0492 -0.1896
   55CHL1   H14 4013   6.150   3.779   4.576  2.3019  1.1920 -1.7451
   55CHL1   C15 4014   6.307   3.637   4.588  0.1235 -0.3502 -0.0154
   55CHL1  H15A 4015   6.345   3.549   4.533  0.9196 -0.1254  0.1478
   55CHL1  H15B 4016   6.386   3.716   4.586  0.8365 -0.8201  3.2887
   55CHL1   C16 4017   6.289   3.610   4.738 -0.2353  0.1252 -0.3038
   55CHL1  H16A 4018   6.345   3.521   4.774  0.6378 -0.0674 -2.0666
   55CHL1  H16B 4019   6.331   3.693   4.798  0.2206  0.2576 -0.7992
   55CHL1   C17 4020   6.130   3.602   4.749 -0.3436 -0.3118 -0.0387
   55CHL1   H17 4021   6.107   3.703   4.789  1.9028 -0.5493  2.1581
   55CHL1   C13 4022   6.082   3.589   4.606 -0.5681  0.1729 -0.1026
   55CHL1   C18 4023   6.104   3.440   4.578 -0.0954 -0.3704 -0.8340
   55CHL1  H18A 4024   6.191   3.398   4.633 -0.6543  0.0288  0.3748
   55CHL1  H18B 4025   6.012   3.384   4.607  0.2308 -2.3457 -3.2496
   55CHL1  H18C 4026   6.118   3.412   4.471  1.5418 -1.0711 -0.4660
   55CHL1   C12 4027   5.940   3.628   4.580  0.3535 -0.0545  0.4158
   55CHL1  H12A 4028   5.875   3.550   4.627 -0.3446  0.2626 -0.0003
   55CHL1  H12B 4029   5.923   3.731   4.618 -0.7886 -0.0398 -0.0967
   55CHL1   C11 4030   5.913   3.632   4.427  0.2960  0.2140  0.0927
   55CHL1  H11A 4031   5.927   3.526   4.399 -3.6751  0.2179 -2.7811
   55CHL1  H11B 4032   5.804   3.651   4.413  0.7542  1.8017 -1.7614
   55CHL1    C9 4033   6.016   3.724   4.357  0.1415  0.2129  0.1407
   55CHL1    H9 4034   5.998   3.825   4.400 -0.2966  1.7370 -3.2572
   55CHL1   C10 4035   5.993   3.735   4.203  0.3643 -0.4185 -0.1572
   55CHL1   C19 4036   5.965   3.597   4.148 -0.1377  0.5773  0.6546
   55CHL1  H19A 4037   6.038   3.515   4.167  0.1274  0.8342  0.7473
   55CHL1  H19B 4038   5.871   3.550   4.183 -0.8949 -0.1863 -2.0913
   55CHL1  H19C 4039   5.944   3.602   4.039 -0.6459 -0.4338  0.6916
   55CHL1    C1 4040   5.882   3.838   4.190  0.4332  0.3260 -0.3572
   55CHL1   H1A 4041   5.787   3.808   4.240 -1.2924  0.3309 -3.4098
   55CHL1   H1B 4042   5.916   3.934   4.234  0.4027 -0.1581  0.7653
   55CHL1    C2 4043   5.850   3.873   4.038 -0.7696 -0.3532 -0.3137
   55CHL1   H2A 4044   5.767   3.947   4.046 -2.4705 -2.3148  1.7563
   55CHL1   H2B 4045   5.807   3.784   3.988 -1.3873 -1.7047  2.3824
   55CHL1   C20 4046   6.077   3.508   4.862  0.1196 -0.4700  0.0500
   55CHL1   H20 4047   6.062   3.408   4.816  0.8199 -1.6625  2.2297
   55CHL1   C21 4048   5.935   3.565   4.910 -0.5196  0.1984 -0.0752
   55CHL1  H21A 4049   5.889   3.500   4.988  1.1911 -3.6572 -1.9920
   55CHL1  H21B 4050   5.862   3.573   4.826  0.7095 -0.2853 -1.2300
   55CHL1  H21C 4051   5.949   3.670   4.944 -1.7457 -0.0839  1.4300
   55CHL1   C22 4052   6.173   3.484   4.978 -0.8227 -0.6251  0.6544
   55CHL1  H22A 4053   6.267   3.444   4.934  1.0140  4.5596 -0.9554
   55CHL1  H22B 4054   6.206   3.581   5.021  4.1351 -1.1019 -1.3311
   55CHL1   C23 4055   6.127   3.381   5.087  0.2106 -0.5701  0.4146
   55CHL1  H23A 4056   6.032   3.426   5.124  0.1615  0.1636 -0.5650
   55CHL1  H23B 4057   6.099   3.283   5.043 -1.9925 -0.0884  0.6356
   55CHL1   C24 4058   6.227   3.368   5.201  0.4458  0.4411  0.4092
   55CHL1  H24A 4059   6.240   3.467   5.251 -1.1005  2.1653 -2.3621
   55CHL1  H24B 4060   6.197   3.299   5.283 -1.3305 -0.4144 -0.8997
   55CHL1   C25 4061   6.367   3.321   5.155  0.0819  0.6943  0.1388
   55CHL1   H25 4062   6.403   3.387   5.074 -1.9746  1.1038 -0.4944
   55CHL1   C26 4063   6.465   3.328   5.269  0.7149  1.4174  0.2731
   55CHL1  H26A 4064   6.478   3.436   5.289  1.5869  1.0901  1.5506
   55CHL1  H26B 4065   6.411   3.273   5.348  0.8788 -0.4678 -0.8696
   55CHL1  H26C 4066   6.558   3.276   5.238 -0.4893 -0.6129 -0.1194
   55CHL1   C27 4067   6.359   3.176   5.117  0.7521 -0.4406 -0.5722
   55CHL1  H27A 4068   6.331   3.118   5.208  1.6927 -0.1445 -0.0785
   55CHL1  H27B 4069   6.282   3.158   5.039 -1.1282 -1.5295  1.4134
   55CHL1  H27C 4070   6.457   3.135   5.083 -0.0013 -1.4072 -1.6299
   56CHL1    C3 4071   6.551   1.356   3.637 -0.0995  0.0589  0.9555
   56CHL1    H3 4072   6.621   1.441   3.650 -2.0930  1.5211  2.7342
   56CHL1    O3 4073   6.522   1.343   3.495  0.7457 -0.2857 -0.7136
   56CHL1   H3' 4074   6.610   1.333   3.458  0.9374 -1.3694  0.0115
   56CHL1    C4 4075   6.613   1.226   3.684  0.0053  0.3560 -0.0130
   56CHL1   H4A 4076   6.546   1.140   3.662  0.1013 -0.1563  1.5589
   56CHL1   H4B 4077   6.706   1.211   3.625  0.2763  1.2571  0.1684
   56CHL1    C5 4078   6.651   1.230   3.831  0.1174  0.3966 -0.3316
   56CHL1    C6 4079   6.773   1.218   3.878  0.5380 -0.2463 -0.1019
   56CHL1    H6 4080   6.865   1.188   3.825  2.1446 -1.7827  3.2127
   56CHL1    C7 4081   6.810   1.222   4.026 -0.1319  0.3543 -0.5170
   56CHL1   H7A 4082   6.870   1.129   4.034 -2.7910 -1.3989  0.3549
   56CHL1   H7B 4083   6.868   1.317   4.025 -1.3528  1.1630  1.4493
   56CHL1    C8 4084   6.692   1.228   4.126 -0.2320  0.1502  0.3480
   56CHL1    H8 4085   6.663   1.123   4.145 -0.3122 -0.1449 -1.2649
   56CHL1   C14 4086   6.732   1.287   4.263  0.0124  0.1864 -0.0170
   56CHL1   H14 4087   6.753   1.394   4.243  0.1950 -0.0254 -1.0407
   56CHL1   C15 4088   6.861   1.236   4.326  0.2628  0.2718 -0.8488
   56CHL1  H15A 4089   6.864   1.125   4.326  1.2944  0.2663 -2.4255
   56CHL1  H15B 4090   6.951   1.278   4.275  1.1624 -1.7582 -1.0090
   56CHL1   C16 4091   6.847   1.299   4.471 -0.1966 -0.2080 -0.1117
   56CHL1  H16A 4092   6.849   1.218   4.548  0.3895  0.3413  0.4719
   56CHL1  H16B 4093   6.929   1.372   4.488 -0.1946 -0.3499  0.5206
   56CHL1   C17 4094   6.705   1.366   4.477  0.0483  0.3512 -0.2326
   56CHL1   H17 4095   6.709   1.468   4.432 -0.6320  0.8316  0.7466
   56CHL1   C13 4096   6.623   1.287   4.370 -0.0373 -0.2718 -0.2834
   56CHL1   C18 4097   6.586   1.147   4.427  0.5522 -0.7777 -0.0099
   56CHL1  H18A 4098   6.530   1.095   4.347  0.6830  1.9128 -1.9873
   56CHL1  H18B 4099   6.680   1.093   4.451  0.3939 -0.5497  1.1982
   56CHL1  H18C 4100   6.524   1.136   4.518 -0.6009 -1.5684 -0.8627
   56CHL1   C12 4101   6.512   1.369   4.312 -0.3299  0.7907 -0.5239
   56CHL1  H12A 4102   6.421   1.364   4.375 -1.2364 -0.0060 -1.8486
   56CHL1  H12B 4103   6.538   1.477   4.306 -2.6385  1.6827  2.6410
   56CHL1   C11 4104   6.466   1.315   4.178  0.4826  0.0894  0.1590
   56CHL1  H11A 4105   6.431   1.210   4.194 -1.7191  0.4657 -1.6452
   56CHL1  H11B 4106   6.378   1.375   4.146 -1.4271 -2.7626 -0.3576
   56CHL1    C9 4107   6.576   1.311   4.069  0.8731 -0.2394 -0.5751
   56CHL1    H9 4108   6.617   1.411   4.047 -0.4309  0.5102  0.2610
   56CHL1   C10 4109   6.527   1.264   3.923  0.3493  0.1161 -0.2527
   56CHL1   C19 4110   6.445   1.137   3.942 -0.5563 -0.5806  0.4349
   56CHL1  H19A 4111   6.346   1.163   3.985 -0.6057  1.5881 -0.8770
   56CHL1  H19B 4112   6.431   1.089   3.843  0.1733 -0.4695  0.2723
   56CHL1  H19C 4113   6.507   1.065   4.000  0.1101 -1.5232 -1.3702
   56CHL1    C1 4114   6.440   1.382   3.867 -0.7129  0.4029  1.4024
   56CHL1   H1A 4115   6.338   1.381   3.912 -0.4282 -1.3001  2.0871
   56CHL1   H1B 4116   6.490   1.479   3.886  0.2460  0.5383 -1.3772
   56CHL1    C2 4117   6.418   1.379   3.713  0.7234  0.9120 -0.7974
   56CHL1   H2A 4118   6.368   1.477   3.695 -0.8896  0.1138 -0.8915
   56CHL1   H2B 4119   6.355   1.296   3.675  1.6458  0.5682 -1.6153
   56CHL1   C20 4120   6.650   1.401   4.616 -0.1810 -1.6039  0.3898
   56CHL1   H20 4121   6.585   1.322   4.660 -0.3911  0.2753  3.8798
   56CHL1   C21 4122   6.571   1.537   4.593 -0.0590  0.2111  0.0369
   56CHL1  H21A 4123   6.495   1.541   4.674 -1.7213  1.2103 -1.5018
   56CHL1  H21B 4124   6.512   1.540   4.500  2.4027  0.0339 -1.6194
   56CHL1  H21C 4125   6.636   1.627   4.590  1.8125 -1.0752  0.5301
   56CHL1   C22 4126   6.760   1.436   4.722 -0.5047  0.9843 -0.2185
   56CHL1  H22A 4127   6.832   1.351   4.715  0.3259  1.6903 -0.5348
   56CHL1  H22B 4128   6.824   1.523   4.694 -0.4725  1.2534  0.6763
   56CHL1   C23 4129   6.704   1.461   4.863  1.1315  0.2245  0.6611
   56CHL1  H23A 4130   6.658   1.562   4.861  0.0953 -0.2188  1.1249
   56CHL1  H23B 4131   6.623   1.389   4.888  0.3290  0.9848  0.2997
   56CHL1   C24 4132   6.823   1.450   4.966  0.7449  0.4729  0.9969
   56CHL1  H24A 4133   6.874   1.352   4.980  0.9813  0.6361  1.2862
   56CHL1  H24B 4134   6.906   1.514   4.930  0.9536 -0.7276 -0.7264
   56CHL1   C25 4135   6.776   1.501   5.104 -0.0397 -0.5066 -0.2552
   56CHL1   H25 4136   6.695   1.576   5.088 -1.7471 -2.5771 -1.7825
   56CHL1   C26 4137   6.721   1.383   5.183  0.0007  0.5966 -0.2461
   56CHL1  H26A 4138   6.620   1.352   5.148  0.7038 -0.1087 -1.7212
   56CHL1  H26B 4139   6.792   1.298   5.178 -1.7189 -0.9074 -0.0588
   56CHL1  H26C 4140   6.712   1.403   5.292 -0.4749 -1.1928  0.0737
   56CHL1   C27 4141   6.892   1.562   5.183 -0.0227 -0.0515  0.6599
   56CHL1  H27A 4142   6.943   1.644   5.127  2.5235 -2.1059 -0.2255
   56CHL1  H27B 4143   6.869   1.609   5.281 -0.2958 -0.3944  0.7618
   56CHL1  H27C 4144   6.967   1.483   5.204 -0.9034 -1.5494 -1.5031
   57SAPC     N 4145   5.130   3.806   7.464  0.1442 -0.2144 -1.0774
   57SAPC   C12 4146   5.264   3.791   7.396 -0.4943 -0.1656  0.4528
   57SAPC  H12A 4147   5.266   3.688   7.363 -1.4021 -0.6455  1.8050
   57SAPC  H12B 4148   5.345   3.781   7.467  0.8080 -1.8691 -1.1691
   57SAPC   C13 4149   5.113   3.705   7.573 -0.3146 -0.0190 -0.3536
   57SAPC  H13A 4150   5.167   3.616   7.546 -1.3162 -0.2510 -1.6796
   57SAPC  H13B 4151   5.153   3.743   7.666 -1.6023  2.5757 -0.7687
   57SAPC  H13C 4152   5.010   3.675   7.580 -0.3414  0.0962 -0.2267
   57SAPC   C14 4153   5.114   3.943   7.523  0.0828 -0.4523  0.0530
   57SAPC  H14A 4154   5.165   3.957   7.617 -0.8881  0.6428  0.4417
   57SAPC  H14B 4155   5.131   4.022   7.452  0.6555 -0.3134  0.3348
   57SAPC  H14C 4156   5.007   3.950   7.538  0.0393  0.7573 -0.7239
   57SAPC   C15 4157   5.020   3.789   7.364 -0.4993 -0.3183  0.4423
   57SAPC  H15A 4158   4.925   3.778   7.415 -0.7149 -0.1355  0.0832
   57SAPC  H15B 4159   5.016   3.863   7.286  1.4495 -2.9901 -2.4724
   57SAPC  H15C 4160   5.029   3.696   7.308  0.2015 -0.8928  1.4797
   57SAPC   C11 4161   5.316   3.891   7.288  0.2025 -0.3290 -0.6203
   57SAPC  H11A 4162   5.229   3.885   7.219 -1.6276  0.2566  1.5315
   57SAPC  H11B 4163   5.406   3.856   7.233 -0.6663 -0.8634 -1.7406
   57SAPC     P 4164   5.466   4.043   7.443 -0.0623 -0.1267 -0.2161
   57SAPC   O13 4165   5.459   4.184   7.497  0.2272 -0.4211  1.0345
   57SAPC   O14 4166   5.461   3.944   7.552  0.3814 -0.0677  0.4682
   57SAPC   O12 4167   5.339   4.025   7.340 -0.0915  0.0256 -0.0942
   57SAPC   O11 4168   5.585   4.026   7.341  0.5978  0.2567  0.2181
   57SAPC    C1 4169   5.633   4.132   7.260 -0.3233  0.0126 -0.0421
   57SAPC    HA 4170   5.541   4.185   7.228  1.3096  2.0481 -1.6559
   57SAPC    HB 4171   5.702   4.198   7.317  0.3654  0.2466 -1.1058
   57SAPC    C2 4172   5.705   4.084   7.130  0.5673  0.4433  0.2412
   57SAPC    HS 4173   5.654   3.990   7.100 -2.0593  1.8138  0.0868
   57SAPC   O21 4174   5.850   4.075   7.159 -0.0129 -0.8467  0.5950
   57SAPC   C21 4175   5.885   3.963   7.229 -0.7621  0.0456  0.0220
   57SAPC   O22 4176   5.814   3.869   7.250  0.1151  0.2767  0.1642
   57SAPC   C22 4177   6.032   3.988   7.271  0.3219  0.6811  0.0977
   57SAPC   H2R 4178   6.072   4.077   7.216 -1.4003 -0.1831 -2.8031
   57SAPC   H2S 4179   6.029   4.012   7.379 -0.9444  0.1959  0.1827
   57SAPC    C3 4180   5.670   4.174   7.006 -0.0455 -0.4469  0.5177
   57SAPC    HX 4181   5.700   4.279   7.023  2.8290 -0.4226 -3.3217
   57SAPC    HY 4182   5.560   4.174   6.990  0.0972 -1.4389 -0.6214
   57SAPC   O31 4183   5.742   4.144   6.886  0.1813  0.1971 -0.6321
   57SAPC   C31 4184   5.681   4.045   6.822 -0.8130 -0.6999  0.3160
   57SAPC   O32 4185   5.580   3.993   6.855  0.5036 -0.1702  0.7507
   57SAPC   C32 4186   5.762   4.002   6.688 -0.1397  0.5217 -0.2132
   57SAPC   H2X 4187   5.810   3.907   6.717  0.8164  0.2149 -2.5919
   57SAPC   H2Y 4188   5.836   4.080   6.660  0.2117  0.6509  1.0214
   57SAPC   C23 4189   6.125   3.867   7.245  0.0409  0.3888 -0.1302
   57SAPC   H3R 4190   6.077   3.771   7.274  1.6127 -0.4215 -0.1322
   57SAPC   H3S 4191   6.210   3.872   7.316 -1.8307 -1.1419  2.3928
   57SAPC   C24 4192   6.175   3.867   7.099  0.2171  0.9507 -0.4175
   57SAPC   H4R 4193   6.089   3.849   7.031 -0.2301 -3.7339  1.0850
   57SAPC   H4S 4194   6.236   3.776   7.079 -0.0273  0.4246  1.1058
   57SAPC   C25 4195   6.263   3.978   7.065 -0.1388 -0.2304  0.1195
   57SAPC   H5R 4196   6.352   3.983   7.129  0.0123 -1.6555  0.0629
   57SAPC   C26 4197   6.241   4.086   6.993 -0.5282 -0.3052  0.0692
   57SAPC   H6R 4198   6.319   4.162   6.977  1.7579 -2.5438 -0.0699
   57SAPC   C27 4199   6.122   4.104   6.903  0.0007 -0.6451  0.2386
   57SAPC   H7R 4200   6.140   4.206   6.863  3.3341 -1.6058 -1.1500
   57SAPC   H7S 4201   6.030   4.097   6.964 -0.1837  3.8458  0.7764
   57SAPC   C28 4202   6.126   4.012   6.779  0.1958 -0.2886 -0.0293
   57SAPC   H8R 4203   6.132   3.907   6.809 -0.7287 -1.2014 -2.7407
   57SAPC   C29 4204   6.115   4.049   6.649  0.1161  1.0796  0.0755
   57SAPC   H9R 4205   6.115   3.967   6.576  1.2544 -0.0154  1.2507
   57SAPC  C210 4206   6.104   4.196   6.611  0.0546  0.2270 -0.3783
   57SAPC  H10R 4207   6.031   4.234   6.685  0.4226 -2.0145  1.2423
   57SAPC  H10S 4208   6.059   4.198   6.509 -0.6367 -1.4244 -0.1322
   57SAPC  C211 4209   6.225   4.286   6.624 -0.3111 -0.0622 -0.4935
   57SAPC  H11R 4210   6.284   4.256   6.711  1.0932 -0.0511 -1.4189
   57SAPC  C212 4211   6.268   4.374   6.530 -0.3596  0.7629 -0.7733
   57SAPC  H12R 4212   6.368   4.418   6.538 -1.1247  2.2550  1.9281
   57SAPC  C213 4213   6.195   4.413   6.411 -0.5141 -0.3455  0.0588
   57SAPC  H13R 4214   6.088   4.401   6.439 -0.6132 -0.3274 -0.3002
   57SAPC  H13S 4215   6.215   4.340   6.329  1.1014 -0.8074  0.8231
   57SAPC  C214 4216   6.220   4.551   6.356  0.2435  0.1414  0.5126
   57SAPC  H14R 4217   6.285   4.617   6.416  2.9435 -3.3458  1.8177
   57SAPC  C215 4218   6.151   4.607   6.249 -0.0074 -0.1417 -0.4585
   57SAPC  H15R 4219   6.179   4.708   6.214 -2.4262  0.2189 -1.4922
   57SAPC  C216 4220   6.072   4.515   6.171 -0.1613 -0.0805  0.0814
   57SAPC  H16R 4221   5.966   4.519   6.205  0.3598 -0.3142  1.8198
   57SAPC  H16S 4222   6.100   4.408   6.184 -0.1029  0.1505  2.3497
   57SAPC  C217 4223   6.073   4.537   6.013 -0.5997  0.1103 -0.0492
   57SAPC  H17R 4224   6.015   4.457   5.962  1.2198 -1.3511  0.0721
   57SAPC  H17S 4225   6.178   4.518   5.981 -0.2469  1.0230  0.5268
   57SAPC  C218 4226   6.018   4.671   5.959  0.7084  0.3856  0.1569
   57SAPC  H18R 4227   6.066   4.762   6.001 -0.0215  0.5415  0.6754
   57SAPC  H18S 4228   5.914   4.677   5.998  0.7482  3.4329  0.0129
   57SAPC  C219 4229   6.015   4.682   5.809  0.3772  0.9782  0.4691
   57SAPC  H19R 4230   5.926   4.735   5.767 -0.1725 -1.8520 -2.4323
   57SAPC  H19S 4231   6.021   4.585   5.755 -0.7950  0.9741  0.3103
   57SAPC  C220 4232   6.132   4.769   5.762  0.0691  0.6071 -0.6064
   57SAPC  H20R 4233   6.124   4.872   5.802  0.5401 -0.1168  1.5146
   57SAPC  H20S 4234   6.145   4.777   5.652  1.4467 -0.0375 -0.5049
   57SAPC  H20T 4235   6.230   4.729   5.795 -0.4353 -1.4108 -1.4308
   57SAPC   C33 4236   5.671   3.978   6.569  0.0440  0.0281 -0.1849
   57SAPC   H3X 4237   5.615   4.070   6.544  0.5948  0.1803 -0.9341
   57SAPC   H3Y 4238   5.603   3.892   6.585  1.9569 -1.1451  2.3551
   57SAPC   C34 4239   5.757   3.953   6.445 -0.1505  0.2741  0.2341
   57SAPC   H4X 4240   5.821   3.866   6.470 -1.0421  0.1177  2.1405
   57SAPC   H4Y 4241   5.819   4.046   6.437  0.1319  0.0848  0.2077
   57SAPC   C35 4242   5.670   3.900   6.331  0.2694  0.4149  0.8149
   57SAPC   H5X 4243   5.594   3.978   6.311 -1.2529 -1.3507 -0.6444
   57SAPC   H5Y 4244   5.633   3.805   6.377  1.4540 -0.4568  0.0182
   57SAPC   C36 4245   5.737   3.869   6.199  0.3070  0.6481  0.0002
   57SAPC   H6X 4246   5.827   3.811   6.229 -0.0567  0.6895  1.2334
   57SAPC   H6Y 4247   5.785   3.955   6.148 -0.1378  0.0439 -1.4817
   57SAPC   C37 4248   5.646   3.788   6.111  0.1692  0.5754 -0.6270
   57SAPC   H7X 4249   5.558   3.854   6.095 -0.7063 -1.0118 -2.7662
   57SAPC   H7Y 4250   5.606   3.700   6.165 -0.1674  0.6614 -0.7353
   57SAPC   C38 4251   5.702   3.738   5.967  0.4496 -0.3799 -0.0708
   57SAPC   H8X 4252   5.621   3.683   5.915  0.6581  2.9024 -4.4104
   57SAPC   H8Y 4253   5.791   3.675   5.988  1.3251  1.1182  1.0177
   57SAPC   C39 4254   5.739   3.853   5.875  0.2456 -0.4875  0.2793
   57SAPC   H9X 4255   5.820   3.902   5.932 -0.2367  0.8292 -0.1282
   57SAPC   H9Y 4256   5.656   3.925   5.861 -1.0917 -1.5429  2.3979
   57SAPC  C310 4257   5.793   3.812   5.737  0.4172  0.2274  0.1044
   57SAPC  H10X 4258   5.707   3.764   5.687  1.6188 -1.5783 -0.3373
   57SAPC  H10Y 4259   5.874   3.735   5.736 -0.1404 -0.4505  1.9106
   57SAPC  C311 4260   5.833   3.946   5.662  0.6319  0.0385 -0.4014
   57SAPC  H11X 4261   5.753   4.018   5.688 -0.6350 -1.6829  0.6830
   57SAPC  H11Y 4262   5.833   3.921   5.554  0.4912 -1.0113 -0.1662
   57SAPC  C312 4263   5.967   4.012   5.707  0.2724  0.5570  0.2811
   57SAPC  H12X 4264   6.006   3.984   5.807 -1.8812  2.7619  1.8604
   57SAPC  H12Y 4265   5.937   4.118   5.722  0.7673  1.1860 -2.5989
   57SAPC  C313 4266   6.071   3.990   5.594  0.2633 -0.4981 -0.1588
   57SAPC  H13X 4267   6.033   4.012   5.492 -2.3440 -1.4656  0.5151
   57SAPC  H13Y 4268   6.104   3.885   5.582  3.3279  0.5162 -1.8193
   57SAPC  C314 4269   6.203   4.078   5.622  0.1617  0.5255 -0.0012
   57SAPC  H14X 4270   6.272   4.057   5.537  0.3695 -0.7995  0.4723
   57SAPC  H14Y 4271   6.248   4.058   5.722 -1.8974  1.7114  1.2442
   57SAPC  C315 4272   6.164   4.232   5.612 -0.7075 -0.1459 -0.1415
   57SAPC  H15X 4273   6.095   4.269   5.690 -0.6042  1.0472 -0.5895
   57SAPC  H15Y 4274   6.105   4.243   5.519 -1.8547  0.7339  0.6778
   57SAPC  C316 4275   6.294   4.315   5.594  0.1867  0.2314 -0.7453
   57SAPC  H16X 4276   6.343   4.280   5.501  0.7433 -0.5478 -0.1791
   57SAPC  H16Y 4277   6.362   4.286   5.676 -0.0623  1.0893 -0.2190
   57SAPC  C317 4278   6.284   4.471   5.594  0.4493  0.0118 -0.3931
   57SAPC  H17X 4279   6.385   4.505   5.565  1.1159 -1.7160 -0.2197
   57SAPC  H17Y 4280   6.257   4.497   5.699 -0.9420 -2.9332  0.0660
   57SAPC  C318 4281   6.161   4.523   5.513  0.1649 -0.5714  0.6264
   57SAPC  H18X 4282   6.180   4.632   5.503  0.2158 -0.7782 -2.4806
   57SAPC  H18Y 4283   6.060   4.518   5.558 -0.8084  1.5710 -1.1351
   57SAPC  H18Z 4284   6.159   4.469   5.416 -2.0465  0.2920  0.1275
   58SAPC     N 4285   4.026   3.360   7.332 -0.4114 -0.9935  0.3463
   58SAPC   C12 4286   4.052   3.424   7.191  0.1311  0.6627 -0.3189
   58SAPC  H12A 4287   3.960   3.471   7.161 -1.8572 -2.0067  1.1564
   58SAPC  H12B 4288   4.074   3.343   7.123  1.5966  0.6632  0.1298
   58SAPC   C13 4289   3.933   3.246   7.317 -0.2351  0.4715  0.0284
   58SAPC  H13A 4290   3.959   3.194   7.226  0.1882  1.9614 -0.7413
   58SAPC  H13B 4291   3.954   3.185   7.403  2.9762  0.8904 -0.3373
   58SAPC  H13C 4292   3.834   3.284   7.297 -0.1600  1.6505  1.6275
   58SAPC   C14 4293   4.163   3.302   7.382  0.3732  0.7775 -0.1618
   58SAPC  H14A 4294   4.247   3.367   7.362 -0.0548  1.3280 -0.1679
   58SAPC  H14B 4295   4.154   3.285   7.488 -1.3342 -0.6489 -0.4764
   58SAPC  H14C 4296   4.198   3.215   7.327  0.4359  0.4389  0.4073
   58SAPC   C15 4297   3.989   3.452   7.435  0.3227 -0.3634 -0.7212
   58SAPC  H15A 4298   3.894   3.491   7.402 -0.3634 -0.7923  0.6600
   58SAPC  H15B 4299   3.964   3.406   7.530  2.3453 -0.2834 -0.1170
   58SAPC  H15C 4300   4.067   3.523   7.456  1.0514 -1.4148  0.2951
   58SAPC   C11 4301   4.164   3.524   7.177 -0.1276  0.1342 -0.1823
   58SAPC  H11A 4302   4.165   3.549   7.068 -0.6812  2.0652  0.2141
   58SAPC  H11B 4303   4.265   3.485   7.203  0.2353  0.7554 -0.6136
   58SAPC     P 4304   4.033   3.742   7.215  0.3683  0.0914 -0.1819
   58SAPC   O13 4305   3.940   3.685   7.116  0.3996 -0.2684  0.4777
   58SAPC   O14 4306   3.962   3.780   7.341  0.0346  0.0922 -0.2054
   58SAPC   O12 4307   4.142   3.637   7.255 -0.0699  0.2066 -0.3674
   58SAPC   O11 4308   4.112   3.864   7.155 -0.2602  0.0058  0.0084
   58SAPC    C1 4309   4.231   3.858   7.078 -0.8053 -0.1179 -0.0387
   58SAPC    HA 4310   4.297   3.930   7.129 -1.8595 -0.1670  1.4567
   58SAPC    HB 4311   4.271   3.755   7.076  1.6905  0.8006 -0.4371
   58SAPC    C2 4312   4.210   3.912   6.931 -0.2609 -0.6491  0.2832
   58SAPC    HS 4313   4.165   4.014   6.930 -0.2418 -0.5461 -3.4114
   58SAPC   O21 4314   4.129   3.820   6.857  0.1014 -0.9204  0.2400
   58SAPC   C21 4315   4.060   3.882   6.750 -1.7359 -0.0189 -0.2991
   58SAPC   O22 4316   4.069   4.000   6.731  0.0103  0.2528  0.2001
   58SAPC   C22 4317   4.003   3.774   6.656  0.5324 -0.0301 -0.0262
   58SAPC   H2R 4318   4.077   3.749   6.577 -2.4212 -2.4968 -2.2857
   58SAPC   H2S 4319   3.980   3.694   6.729 -2.3264 -1.9565 -2.7663
   58SAPC    C3 4320   4.350   3.936   6.874 -0.1241 -0.0050 -0.1811
   58SAPC    HX 4321   4.398   3.836   6.881 -0.4087 -0.1557 -0.3586
   58SAPC    HY 4322   4.405   4.007   6.939 -0.1975 -0.2558  0.1527
   58SAPC   O31 4323   4.355   3.966   6.729 -0.3569  0.5581  0.4753
   58SAPC   C31 4324   4.378   4.094   6.705  0.4868 -0.0195  1.1330
   58SAPC   O32 4325   4.373   4.182   6.785 -0.1756  0.7180  0.5332
   58SAPC   C32 4326   4.395   4.113   6.549 -0.3014 -0.4595 -0.5225
   58SAPC   H2X 4327   4.497   4.083   6.514 -0.3872 -0.6571 -0.6029
   58SAPC   H2Y 4328   4.401   4.223   6.535 -1.5822 -0.5048 -1.5291
   58SAPC   C23 4329   3.872   3.831   6.597  0.0524  0.8795 -0.2824
   58SAPC   H3R 4330   3.885   3.915   6.526 -1.1053 -0.3871 -2.0744
   58SAPC   H3S 4331   3.798   3.863   6.674 -0.1166 -0.3860  0.1062
   58SAPC   C24 4332   3.807   3.715   6.522  0.1459  0.1689 -0.1752
   58SAPC   H4R 4333   3.792   3.630   6.591  2.3082 -0.1779 -0.0499
   58SAPC   H4S 4334   3.884   3.678   6.450  2.2409  0.5485  1.7429
   58SAPC   C25 4335   3.681   3.767   6.459  0.2920 -0.2914  0.2666
   58SAPC   H5R 4336   3.588   3.761   6.516 -0.0826  0.0859 -0.2968
   58SAPC   C26 4337   3.674   3.809   6.332 -0.9036 -0.3978 -0.3986
   58SAPC   H6R 4338   3.573   3.843   6.305 -1.9356 -2.1078  1.0836
   58SAPC   C27 4339   3.791   3.836   6.238 -0.5539  0.0276 -0.0169
   58SAPC   H7R 4340   3.782   3.772   6.147  0.2297 -1.2187  0.7595
   58SAPC   H7S 4341   3.892   3.804   6.270  1.0145  1.7923 -2.8143
   58SAPC   C28 4342   3.793   3.980   6.189  0.2206 -0.3412 -0.7327
   58SAPC   H8R 4343   3.789   4.049   6.274  0.3653 -0.3424 -0.7245
   58SAPC   C29 4344   3.797   4.025   6.058 -0.0817  0.0366 -0.0081
   58SAPC   H9R 4345   3.795   4.135   6.045  0.3328 -0.1972 -2.5886
   58SAPC  C210 4346   3.792   3.944   5.933 -1.1797  1.1682  0.4726
   58SAPC  H10R 4347   3.690   3.915   5.902 -0.3090 -1.9017  0.1350
   58SAPC  H10S 4348   3.835   3.845   5.960 -1.1670  1.4208  1.4103
   58SAPC  C211 4349   3.873   4.007   5.817 -0.0717 -0.2954  0.4422
   58SAPC  H11R 4350   3.980   4.013   5.842 -0.3988 -0.3287  1.8997
   58SAPC  C212 4351   3.824   4.059   5.699  0.4874  0.0688  0.3270
   58SAPC  H12R 4352   3.899   4.092   5.626  1.1237 -1.3269  0.2999
   58SAPC  C213 4353   3.682   4.074   5.658 -0.2197  0.4857  0.2838
   58SAPC  H13R 4354   3.616   4.068   5.747  1.9007  0.2653  1.9351
   58SAPC  H13S 4355   3.652   3.988   5.595 -2.3993  1.2843  0.1429
   58SAPC  C214 4356   3.660   4.218   5.603  1.2525  0.0116  0.0447
   58SAPC  H14R 4357   3.634   4.293   5.679 -3.5022 -0.1335 -1.1443
   58SAPC  C215 4358   3.659   4.251   5.472  0.0476  0.8015  0.2086
   58SAPC  H15R 4359   3.656   4.357   5.445  0.4482  0.3435 -1.7932
   58SAPC  C216 4360   3.667   4.157   5.354 -0.4010  0.2519  0.1041
   58SAPC  H16R 4361   3.613   4.062   5.371  0.6780 -0.0806  1.9161
   58SAPC  H16S 4362   3.768   4.113   5.339  0.2993  0.9797  2.3855
   58SAPC  C217 4363   3.602   4.238   5.234  0.2077  0.2703  0.5645
   58SAPC  H17R 4364   3.635   4.174   5.149  0.8394 -1.4396  2.0425
   58SAPC  H17S 4365   3.652   4.337   5.226  1.7258 -0.5610 -0.7737
   58SAPC  C218 4366   3.451   4.254   5.225 -0.2403 -0.5779 -0.2241
   58SAPC  H18R 4367   3.415   4.323   5.304  0.8035 -0.2326 -0.0405
   58SAPC  H18S 4368   3.425   4.148   5.245  2.6634 -1.5518 -1.1066
   58SAPC  C219 4369   3.411   4.291   5.087  0.0909  0.1537  0.0430
   58SAPC  H19R 4370   3.452   4.211   5.021  1.1190 -0.5091  1.4536
   58SAPC  H19S 4371   3.451   4.390   5.057 -0.8946  0.4039 -0.4989
   58SAPC  C220 4372   3.254   4.308   5.067  0.1910  0.2839  0.4566
   58SAPC  H20R 4373   3.191   4.219   5.092  0.3037 -0.6623 -2.3427
   58SAPC  H20S 4374   3.236   4.324   4.959 -0.3676  1.9162  0.7775
   58SAPC  H20T 4375   3.219   4.397   5.124  1.3387  2.2144 -1.7145
   58SAPC   C33 4376   4.277   4.065   6.460 -0.2911  0.2996  0.2286
   58SAPC   H3X 4377   4.184   4.116   6.493  0.2302 -0.0535  2.4288
   58SAPC   H3Y 4378   4.263   3.955   6.465  0.1613  0.1562 -1.3090
   58SAPC   C34 4379   4.301   4.110   6.314 -0.1662  0.8459  0.0465
   58SAPC   H4X 4380   4.393   4.067   6.271  1.3984  0.3444  3.5165
   58SAPC   H4Y 4381   4.300   4.221   6.304 -0.2174  0.9842  1.3924
   58SAPC   C35 4382   4.187   4.053   6.223 -1.0393 -0.1884 -0.0782
   58SAPC   H5X 4383   4.096   4.106   6.259  0.7818  1.3496  2.6596
   58SAPC   H5Y 4384   4.169   3.944   6.229 -3.9193  0.1472 -0.7875
   58SAPC   C36 4385   4.192   4.086   6.071 -0.4704  0.2876 -0.0502
   58SAPC   H6X 4386   4.107   4.039   6.017  0.0216 -0.6650 -0.0141
   58SAPC   H6Y 4387   4.289   4.037   6.044 -0.0760  0.7989  0.4114
   58SAPC   C37 4388   4.213   4.237   6.041  1.1056  0.2914 -0.3379
   58SAPC   H7X 4389   4.310   4.275   6.079 -0.5631  3.9676  0.7635
   58SAPC   H7Y 4390   4.138   4.302   6.091 -0.9368  0.3154 -3.1322
   58SAPC   C38 4391   4.177   4.280   5.888  0.1868 -0.2807 -0.0537
   58SAPC   H8X 4392   4.211   4.385   5.876  0.3264 -0.1824  1.1559
   58SAPC   H8Y 4393   4.068   4.267   5.873  0.3608  0.1543 -2.1363
   58SAPC   C39 4394   4.241   4.196   5.784  0.3853  0.5541 -0.0535
   58SAPC   H9X 4395   4.216   4.090   5.807 -3.0127  1.3882  0.6324
   58SAPC   H9Y 4396   4.349   4.223   5.792  0.7410 -0.6013 -0.6535
   58SAPC  C310 4397   4.174   4.229   5.646 -0.4588 -0.0614 -0.8479
   58SAPC  H10X 4398   4.193   4.334   5.618 -1.5642  0.7346  1.1312
   58SAPC  H10Y 4399   4.066   4.203   5.655 -0.3975 -1.3174 -3.0360
   58SAPC  C311 4400   4.215   4.126   5.542  0.3695  0.0411 -0.0112
   58SAPC  H11X 4401   4.201   4.028   5.592 -0.3431 -0.2952 -0.8349
   58SAPC  H11Y 4402   4.322   4.150   5.523 -0.3014  3.3559 -0.1498
   58SAPC  C312 4403   4.130   4.115   5.420  0.1764 -0.3594  0.3540
   58SAPC  H12X 4404   4.035   4.060   5.437 -1.4500  1.7836 -1.1956
   58SAPC  H12Y 4405   4.184   4.048   5.350 -1.9250 -2.7497  0.8870
   58SAPC  C313 4406   4.095   4.255   5.358  0.4338  0.6431  0.5071
   58SAPC  H13X 4407   4.029   4.313   5.427 -2.5735  0.1757 -1.7754
   58SAPC  H13Y 4408   4.023   4.229   5.278  1.3849  1.7016 -0.7348
   58SAPC  C314 4409   4.212   4.341   5.308 -0.0491  0.7506 -0.0557
   58SAPC  H14X 4410   4.281   4.277   5.249 -0.9947 -1.5154  1.1901
   58SAPC  H14Y 4411   4.285   4.368   5.388  2.6055 -0.3540 -1.9252
   58SAPC  C315 4412   4.181   4.465   5.234  0.2134  0.1281  0.5918
   58SAPC  H15X 4413   4.104   4.533   5.277 -1.0337 -1.4177  0.8840
   58SAPC  H15Y 4414   4.140   4.432   5.137 -0.2491 -1.1447  1.2060
   58SAPC  C316 4415   4.304   4.543   5.196  0.2207 -0.3090  0.2933
   58SAPC  H16X 4416   4.358   4.475   5.127 -0.6082 -1.6488  0.9297
   58SAPC  H16Y 4417   4.361   4.564   5.289  0.9235 -0.7297 -0.0416
   58SAPC  C317 4418   4.276   4.675   5.119 -0.2710  0.4893 -0.4950
   58SAPC  H17X 4419   4.211   4.739   5.182 -0.5737  2.0622 -2.3256
   58SAPC  H17Y 4420   4.216   4.663   5.026 -0.8835 -1.9139  0.1388
   58SAPC  C318 4421   4.404   4.756   5.089 -0.0882 -0.1936 -0.5710
   58SAPC  H18X 4422   4.383   4.848   5.032  0.1738  0.1959 -0.0440
   58SAPC  H18Y 4423   4.478   4.703   5.025  0.4184  1.4478 -1.3888
   58SAPC  H18Z 4424   4.452   4.779   5.187 -1.7937  0.3558  0.1749
   59SAPC     N 4425   0.157   2.287   7.754 -0.6488  0.1884 -0.7882
   59SAPC   C12 4426   0.048   2.381   7.802 -0.4213  0.2735 -0.4144
   59SAPC  H12A 4427   0.066   2.481   7.766  0.0311  1.0799  1.8625
   59SAPC  H12B 4428   0.062   2.381   7.909  2.7059  0.0040 -0.7438
   59SAPC   C13 4429   0.291   2.338   7.798 -0.2275 -0.1915  0.3500
   59SAPC  H13A 4430   0.375   2.273   7.778 -0.1408 -0.2394  0.8654
   59SAPC  H13B 4431   0.312   2.435   7.754  0.1623 -0.8521 -0.9770
   59SAPC  H13C 4432   0.296   2.353   7.905  2.2310  0.7100  0.1667
   59SAPC   C14 4433   0.140   2.152   7.829 -0.7677 -0.3853  1.0194
   59SAPC  H14A 4434   0.042   2.108   7.813 -1.3672  0.5592  1.9995
   59SAPC  H14B 4435   0.212   2.081   7.792 -0.8067  0.7715 -1.5657
   59SAPC  H14C 4436   0.151   2.159   7.936  1.5254 -1.8612  0.9454
   59SAPC   C15 4437   0.160   2.270   7.608 -0.0195  0.4522 -0.2158
   59SAPC  H15A 4438   0.085   2.203   7.568  0.7793 -1.9687  2.0212
   59SAPC  H15B 4439   0.162   2.363   7.554  1.2569  1.1690  1.0002
   59SAPC  H15C 4440   0.248   2.214   7.579 -0.7756  0.3562 -2.5382
   59SAPC   C11 4441  -0.101   2.342   7.772 -0.3805  0.0198 -0.1890
   59SAPC  H11A 4442  -0.116   2.319   7.664 -0.9096 -0.2397 -0.0610
   59SAPC  H11B 4443  -0.167   2.426   7.803 -2.9305 -2.0412  0.2180
   59SAPC     P 4444  -0.278   2.158   7.833 -0.1459  0.1441  0.0321
   59SAPC   O13 4445  -0.280   2.036   7.912  0.0591  0.4321  0.3781
   59SAPC   O14 4446  -0.386   2.254   7.870 -0.0472 -0.0217  0.3291
   59SAPC   O12 4447  -0.144   2.227   7.846  0.3752  0.6088  0.1688
   59SAPC   O11 4448  -0.296   2.117   7.680  0.7012 -0.0497 -0.3125
   59SAPC    C1 4449  -0.190   2.046   7.614 -0.0250  0.1189  0.0895
   59SAPC    HA 4450  -0.100   2.111   7.607  0.1720 -0.0178  1.2636
   59SAPC    HB 4451  -0.166   1.959   7.678 -0.8176 -0.4696 -0.3896
   59SAPC    C2 4452  -0.234   2.011   7.469  0.1689  0.1080  0.5943
   59SAPC    HS 4453  -0.142   1.974   7.418 -0.5996 -1.3482  0.1943
   59SAPC   O21 4454  -0.288   2.131   7.405  0.5115  0.0371 -0.7058
   59SAPC   C21 4455  -0.189   2.212   7.377  0.1907  0.3241  0.1055
   59SAPC   O22 4456  -0.069   2.195   7.377 -0.1510  1.0916  0.2370
   59SAPC   C22 4457  -0.252   2.342   7.326 -0.3918  0.9179 -0.3652
   59SAPC   H2R 4458  -0.361   2.339   7.344 -0.6489  1.5908 -1.7266
   59SAPC   H2S 4459  -0.219   2.423   7.394  0.9543  0.7604 -0.7999
   59SAPC    C3 4460  -0.340   1.894   7.473 -0.4979  0.0940  0.7901
   59SAPC    HX 4461  -0.421   1.915   7.547 -1.0913  1.3314 -0.1641
   59SAPC    HY 4462  -0.285   1.803   7.502  2.1942  1.5602  0.5809
   59SAPC   O31 4463  -0.422   1.878   7.357  0.2725  0.0896 -0.4660
   59SAPC   C31 4464  -0.362   1.869   7.242  0.6863 -0.5649 -0.1308
   59SAPC   O32 4465  -0.244   1.861   7.228 -0.8435  0.8841 -0.2198
   59SAPC   C32 4466  -0.468   1.843   7.129  0.4167  0.0651  0.3927
   59SAPC   H2X 4467  -0.544   1.921   7.152  1.3717  0.9174  0.7549
   59SAPC   H2Y 4468  -0.521   1.750   7.161  1.4354  0.2678  2.9302
   59SAPC   C23 4469  -0.205   2.378   7.184 -0.1861 -0.0322  0.0629
   59SAPC   H3R 4470  -0.105   2.340   7.157 -0.2105 -0.3957  0.4932
   59SAPC   H3S 4471  -0.189   2.488   7.179 -2.1954  0.3627  1.0597
   59SAPC   C24 4472  -0.299   2.333   7.072 -0.3365 -0.5002 -0.7600
   59SAPC   H4R 4473  -0.285   2.413   6.996 -0.4991  1.8656  1.5439
   59SAPC   H4S 4474  -0.401   2.336   7.117 -0.8273  0.4222 -1.8823
   59SAPC   C25 4475  -0.271   2.198   7.012 -0.4335 -0.3368  0.6016
   59SAPC   H5R 4476  -0.269   2.112   7.081 -0.0261  0.3938  1.5252
   59SAPC   C26 4477  -0.234   2.173   6.883  0.4338  0.6946 -0.2288
   59SAPC   H6R 4478  -0.219   2.066   6.863  1.2092  0.2855  2.1438
   59SAPC   C27 4479  -0.231   2.265   6.762 -1.1068  0.0209 -0.0278
   59SAPC   H7R 4480  -0.311   2.341   6.775  0.1876  1.5987 -0.8065
   59SAPC   H7S 4481  -0.260   2.203   6.675  2.6742 -2.4331  0.2115
   59SAPC   C28 4482  -0.096   2.335   6.731 -0.7512  0.1184  0.0637
   59SAPC   H8R 4483  -0.054   2.400   6.810 -0.1289  0.6266 -0.6756
   59SAPC   C29 4484  -0.019   2.324   6.618  0.1913 -0.2348 -1.1035
   59SAPC   H9R 4485   0.067   2.394   6.619 -0.2641  0.5304  3.2687
   59SAPC  C210 4486  -0.043   2.243   6.490 -0.6653 -0.5693 -0.4992
   59SAPC  H10R 4487  -0.081   2.313   6.413  1.9139  2.2984  0.6116
   59SAPC  H10S 4488  -0.117   2.160   6.496 -1.6601  0.4041  1.4484
   59SAPC  C211 4489   0.082   2.177   6.429 -0.4070 -0.8830 -0.5209
   59SAPC  H11R 4490   0.136   2.109   6.495  0.8795 -0.5981 -1.2548
   59SAPC  C212 4491   0.130   2.195   6.303 -0.2924 -0.6127  0.2716
   59SAPC  H12R 4492   0.228   2.156   6.273 -0.1424  1.4687 -2.2880
   59SAPC  C213 4493   0.072   2.289   6.201  0.3453  0.7092 -0.3963
   59SAPC  H13R 4494   0.151   2.300   6.123 -0.0646 -2.9045 -1.4928
   59SAPC  H13S 4495   0.041   2.386   6.246 -0.0211  0.8573 -0.9587
   59SAPC  C214 4496  -0.058   2.230   6.142  0.1119 -0.1005 -0.5229
   59SAPC  H14R 4497  -0.135   2.190   6.210  2.1400 -3.0146  0.2544
   59SAPC  C215 4498  -0.087   2.219   6.013  0.1569  0.8695 -0.1967
   59SAPC  H15R 4499  -0.189   2.187   5.990  1.0435 -2.7015  0.3151
   59SAPC  C216 4500  -0.004   2.261   5.896 -0.6900 -0.0715 -0.6278
   59SAPC  H16R 4501   0.089   2.202   5.882 -0.1180  0.5685  0.2923
   59SAPC  H16S 4502   0.026   2.362   5.932 -0.0265 -0.4051 -0.2380
   59SAPC  C217 4503  -0.082   2.257   5.767  0.0917  0.0927  0.4053
   59SAPC  H17R 4504  -0.158   2.337   5.755 -0.0151 -0.2281 -1.3996
   59SAPC  H17S 4505  -0.124   2.154   5.760 -0.1550  0.3259 -2.9039
   59SAPC  C218 4506   0.023   2.274   5.653  0.1640  0.3396  0.1205
   59SAPC  H18R 4507   0.109   2.205   5.664  2.2176  2.4488 -1.6291
   59SAPC  H18S 4508   0.076   2.370   5.668  3.2238 -1.0409 -1.1410
   59SAPC  C219 4509  -0.040   2.254   5.513 -0.2109  0.3473  1.0108
   59SAPC  H19R 4510  -0.082   2.151   5.510  0.3430  0.1054  1.3065
   59SAPC  H19S 4511   0.041   2.264   5.437  0.5581  3.1019  2.0638
   59SAPC  C220 4512  -0.153   2.352   5.466  0.1939  0.2141  0.0700
   59SAPC  H20R 4513  -0.126   2.460   5.455  0.2723  0.0315 -2.1280
   59SAPC  H20S 4514  -0.240   2.344   5.533  0.4425  1.6990  0.6234
   59SAPC  H20T 4515  -0.183   2.315   5.365  0.2094  0.4265 -0.0140
   59SAPC   C33 4516  -0.422   1.831   6.989 -0.2708 -0.0423 -0.1110
   59SAPC   H3X 4517  -0.360   1.740   6.972  1.5600  1.2136 -0.4292
   59SAPC   H3Y 4518  -0.353   1.915   6.968 -0.7781 -0.4236 -3.9771
   59SAPC   C34 4519  -0.539   1.848   6.895 -0.0472  0.3968 -0.1622
   59SAPC   H4X 4520  -0.544   1.954   6.863 -0.0160  0.2027 -0.8262
   59SAPC   H4Y 4521  -0.635   1.819   6.944  1.2992 -2.6392  0.8963
   59SAPC   C35 4522  -0.525   1.771   6.761  0.9336  0.0382 -0.3924
   59SAPC   H5X 4523  -0.623   1.793   6.714  1.1032  2.7142  0.3401
   59SAPC   H5Y 4524  -0.502   1.663   6.775 -0.0056 -0.4921 -2.5383
   59SAPC   C36 4525  -0.410   1.824   6.674 -0.2306 -0.4633 -0.0634
   59SAPC   H6X 4526  -0.317   1.805   6.732 -0.7750 -0.6187  0.7683
   59SAPC   H6Y 4527  -0.419   1.934   6.665  1.0771 -0.3351 -0.0199
   59SAPC   C37 4528  -0.414   1.743   6.544 -0.1892 -0.1467  0.8830
   59SAPC   H7X 4529  -0.521   1.727   6.521 -0.2352 -0.6093  1.4014
   59SAPC   H7Y 4530  -0.372   1.640   6.553  2.7579  0.8347 -0.1818
   59SAPC   C38 4531  -0.355   1.822   6.415 -0.0009 -0.7086 -0.6850
   59SAPC   H8X 4532  -0.379   1.930   6.412 -1.0740 -0.8789  0.8251
   59SAPC   H8Y 4533  -0.408   1.779   6.327  0.2764  0.3428 -1.3864
   59SAPC   C39 4534  -0.204   1.798   6.397 -0.2662  0.2594  0.7145
   59SAPC   H9X 4535  -0.196   1.687   6.398 -0.3009  0.2434 -0.0812
   59SAPC   H9Y 4536  -0.142   1.841   6.479 -1.0177  2.0133  0.3949
   59SAPC  C310 4537  -0.148   1.850   6.261 -0.1965 -0.2591 -0.6539
   59SAPC  H10X 4538  -0.038   1.865   6.272  0.0194 -2.5579  1.0349
   59SAPC  H10Y 4539  -0.191   1.952   6.250 -0.0164 -0.3391 -2.2831
   59SAPC  C311 4540  -0.173   1.758   6.144  0.5325  0.8997  0.4854
   59SAPC  H11X 4541  -0.271   1.707   6.156  1.6861 -1.7178 -0.4001
   59SAPC  H11Y 4542  -0.093   1.682   6.136  0.9320  1.4478 -1.1464
   59SAPC  C312 4543  -0.162   1.827   6.005 -0.3977  0.4151  0.0610
   59SAPC  H12X 4544  -0.084   1.905   6.018  1.2716 -0.9785 -1.1098
   59SAPC  H12Y 4545  -0.262   1.870   5.985 -0.5670 -0.5737 -1.4793
   59SAPC  C313 4546  -0.136   1.725   5.894  0.1311 -0.2263  0.6502
   59SAPC  H13X 4547  -0.186   1.627   5.910 -0.1030 -0.4652 -1.3858
   59SAPC  H13Y 4548  -0.026   1.708   5.897  0.7612  3.0509 -0.2367
   59SAPC  C314 4549  -0.184   1.764   5.750 -0.1885 -0.4434  0.3873
   59SAPC  H14X 4550  -0.161   1.677   5.685 -1.0383  0.7927 -1.6494
   59SAPC  H14Y 4551  -0.124   1.853   5.720 -1.1151  1.4651  3.6442
   59SAPC  C315 4552  -0.338   1.801   5.737 -0.5246 -0.1610 -0.1173
   59SAPC  H15X 4553  -0.352   1.896   5.793 -0.5312 -0.4283  0.3436
   59SAPC  H15Y 4554  -0.398   1.719   5.782  0.7187 -0.4398  1.0942
   59SAPC  C316 4555  -0.382   1.831   5.596  0.5884 -0.4605  0.1965
   59SAPC  H16X 4556  -0.492   1.849   5.601  0.8467  1.1696  0.7646
   59SAPC  H16Y 4557  -0.351   1.744   5.535  0.5303 -1.1937  1.2019
   59SAPC  C317 4558  -0.327   1.956   5.539  0.6218  0.0785  0.1693
   59SAPC  H17X 4559  -0.219   1.942   5.518  0.3141 -0.6252 -0.9688
   59SAPC  H17Y 4560  -0.331   2.037   5.616 -1.4641  2.2951 -2.0669
   59SAPC  C318 4561  -0.400   1.991   5.419 -0.5437 -0.5413 -0.0734
   59SAPC  H18X 4562  -0.368   1.936   5.328  0.8106 -0.1836  0.1728
   59SAPC  H18Y 4563  -0.387   2.097   5.388 -1.3450 -0.3548  0.1936
   59SAPC  H18Z 4564  -0.510   1.979   5.432 -0.6724  1.7474  1.5373
   60SAPC     N 4565   6.462   1.343   7.536  0.3207  0.1521 -0.2042
   60SAPC   C12 4566   6.339   1.259   7.559 -0.6667  0.3109  0.3174
   60SAPC  H12A 4567   6.289   1.295   7.648  1.5412  0.1285  1.7155
   60SAPC  H12B 4568   6.374   1.157   7.565  4.1813  1.6367 -0.6104
   60SAPC   C13 4569   6.554   1.292   7.427  0.0461 -0.0286 -0.8649
   60SAPC  H13A 4570   6.501   1.299   7.334 -1.8067 -0.3166  0.1180
   60SAPC  H13B 4571   6.637   1.361   7.433  0.1511 -0.2366  3.9897
   60SAPC  H13C 4572   6.602   1.198   7.449  0.7233  0.1196 -1.6924
   60SAPC   C14 4573   6.442   1.488   7.500  0.3517  0.6105 -0.3631
   60SAPC  H14A 4574   6.380   1.499   7.412 -0.5606  1.3936  0.3546
   60SAPC  H14B 4575   6.393   1.532   7.586 -0.4622 -0.4807 -0.2443
   60SAPC  H14C 4576   6.536   1.539   7.489  1.7386 -1.0210  2.7745
   60SAPC   C15 4577   6.541   1.327   7.659  0.0186 -0.5562 -0.1048
   60SAPC  H15A 4578   6.567   1.222   7.668  0.9716 -0.3570 -0.4079
   60SAPC  H15B 4579   6.628   1.390   7.665 -0.2819 -0.2128  0.7873
   60SAPC  H15C 4580   6.491   1.333   7.754  0.4136 -0.6540  0.1097
   60SAPC   C11 4581   6.228   1.280   7.450  0.7151  0.5937  0.2250
   60SAPC  H11A 4582   6.152   1.199   7.463 -2.2831  3.1384 -0.1811
   60SAPC  H11B 4583   6.284   1.279   7.354  1.3486 -1.0425  0.5853
   60SAPC     P 4584   6.058   1.430   7.567 -0.0096 -0.0942  0.1858
   60SAPC   O13 4585   6.112   1.362   7.688  0.1799 -0.2518 -0.3190
   60SAPC   O14 4586   6.020   1.568   7.585  0.0828  0.3163 -0.4343
   60SAPC   O12 4587   6.162   1.410   7.445 -0.7877 -0.1601 -0.4223
   60SAPC   O11 4588   5.935   1.340   7.512 -0.0048 -0.2720  0.3964
   60SAPC    C1 4589   5.870   1.392   7.393 -0.2837 -0.3004 -0.1555
   60SAPC    HA 4590   5.859   1.503   7.397 -0.4654 -0.3011 -0.6649
   60SAPC    HB 4591   5.924   1.362   7.301  0.8455 -0.2539  0.4719
   60SAPC    C2 4592   5.726   1.336   7.379 -0.1314  0.1923  0.4162
   60SAPC    HS 4593   5.668   1.379   7.463  1.9209  1.4616  1.2750
   60SAPC   O21 4594   5.727   1.198   7.386  0.2246  0.1245  0.3055
   60SAPC   C21 4595   5.606   1.136   7.401  0.4543  0.5930  0.5141
   60SAPC   O22 4596   5.505   1.195   7.436 -0.1326 -0.7612 -0.2346
   60SAPC   C22 4597   5.614   0.982   7.400 -0.1504  0.7413  0.0771
   60SAPC   H2R 4598   5.715   0.948   7.369 -0.8955 -5.0176  2.6233
   60SAPC   H2S 4599   5.594   0.964   7.508  2.8394  1.5334  0.8532
   60SAPC    C3 4600   5.662   1.394   7.241  0.1505 -0.4539 -0.0449
   60SAPC    HX 4601   5.697   1.499   7.242 -1.8640  0.2863 -1.0889
   60SAPC    HY 4602   5.553   1.394   7.265  0.4881 -2.5160  1.7510
   60SAPC   O31 4603   5.696   1.323   7.123 -0.2126  0.2451  0.3966
   60SAPC   C31 4604   5.776   1.378   7.040 -0.0887  0.0444  0.4919
   60SAPC   O32 4605   5.834   1.487   7.047  0.1749 -0.2673  0.6066
   60SAPC   C32 4606   5.788   1.291   6.911 -0.4729  0.5467 -0.3475
   60SAPC   H2X 4607   5.694   1.307   6.853 -2.0676 -0.5117  1.8090
   60SAPC   H2Y 4608   5.792   1.184   6.942 -2.0630  0.5255 -0.0968
   60SAPC   C23 4609   5.509   0.916   7.303  0.0586  0.1865 -0.5415
   60SAPC   H3R 4610   5.411   0.959   7.331 -0.1795 -1.1641  0.8029
   60SAPC   H3S 4611   5.502   0.806   7.318 -2.0349  0.4560  0.8679
   60SAPC   C24 4612   5.537   0.938   7.149  0.2094  0.0345 -0.0593
   60SAPC   H4R 4613   5.632   0.890   7.118 -0.1251 -0.0167 -1.0396
   60SAPC   H4S 4614   5.532   1.047   7.127 -0.3941  0.2371  1.0042
   60SAPC   C25 4615   5.432   0.867   7.065  0.2840  0.4578 -0.3709
   60SAPC   H5R 4616   5.377   0.786   7.115  1.6813  0.0218  0.5224
   60SAPC   C26 4617   5.408   0.884   6.932 -0.3074  0.4371  0.4003
   60SAPC   H6R 4618   5.326   0.824   6.889  0.5634 -1.2264  0.9616
   60SAPC   C27 4619   5.492   0.971   6.839 -0.1866  0.2737  0.1268
   60SAPC   H7R 4620   5.576   0.924   6.784  1.0974  1.4049  1.0720
   60SAPC   H7S 4621   5.550   1.050   6.890  2.0699  0.0464 -1.9477
   60SAPC   C28 4622   5.412   1.042   6.736  0.2755  0.3355 -0.1899
   60SAPC   H8R 4623   5.308   1.052   6.771  0.2477  0.7655 -0.3928
   60SAPC   C29 4624   5.461   1.082   6.612  0.2089  0.2250  0.1390
   60SAPC   H9R 4625   5.400   1.139   6.541 -1.0000 -1.0893  0.1009
   60SAPC  C210 4626   5.603   1.054   6.564 -0.9443  0.4339  0.3923
   60SAPC  H10R 4627   5.666   1.000   6.638 -0.5197  0.0327 -0.2492
   60SAPC  H10S 4628   5.654   1.150   6.540 -0.5616 -0.1331 -1.2245
   60SAPC  C211 4629   5.613   0.977   6.437  0.6987  0.5355 -0.4961
   60SAPC  H11R 4630   5.570   0.876   6.443  0.3975  0.7239  0.6582
   60SAPC  C212 4631   5.681   1.013   6.324 -0.2981 -0.0160  0.2062
   60SAPC  H12R 4632   5.680   0.944   6.238 -2.4091  2.4264 -1.9066
   60SAPC  C213 4633   5.746   1.148   6.310 -0.6030  0.2876  0.1635
   60SAPC  H13R 4634   5.799   1.176   6.404  0.8565 -0.1425 -0.5021
   60SAPC  H13S 4635   5.669   1.226   6.296  0.0246  1.0355  0.7412
   60SAPC  C214 4636   5.844   1.158   6.196 -0.2700 -0.4006  0.6798
   60SAPC  H14R 4637   5.949   1.139   6.221  1.2943  2.2454 -2.9702
   60SAPC  C215 4638   5.822   1.184   6.070  0.0105  0.0485  0.2382
   60SAPC  H15R 4639   5.907   1.205   6.004  0.0547  0.8604  0.5409
   60SAPC  C216 4640   5.687   1.215   6.013 -0.2733 -0.4933  0.0110
   60SAPC  H16R 4641   5.666   1.309   6.068  1.4195  1.8818 -3.0660
   60SAPC  H16S 4642   5.606   1.147   6.047 -0.6021  0.2243  0.6977
   60SAPC  C217 4643   5.683   1.235   5.865  0.4057 -0.0868  0.3439
   60SAPC  H17R 4644   5.759   1.310   5.832  0.6602 -0.7485 -0.6268
   60SAPC  H17S 4645   5.591   1.287   5.832  0.9588  0.6553 -0.0665
   60SAPC  C218 4646   5.683   1.103   5.784 -0.1007 -0.6008  0.1692
   60SAPC  H18R 4647   5.613   1.116   5.699  0.4490  1.2212 -0.0373
   60SAPC  H18S 4648   5.646   1.018   5.845 -1.5928  1.1825  1.8358
   60SAPC  C219 4649   5.828   1.078   5.751 -0.2064  0.5829 -0.4061
   60SAPC  H19R 4650   5.882   1.068   5.848  0.5090  1.5569 -0.6904
   60SAPC  H19S 4651   5.880   1.160   5.698 -1.6236  1.3410 -0.6623
   60SAPC  C220 4652   5.850   0.944   5.672 -0.2977  0.1674  0.4794
   60SAPC  H20R 4653   5.786   0.951   5.581  1.8057 -0.1446 -1.1062
   60SAPC  H20S 4654   5.815   0.862   5.739  0.1071  0.2217  0.7654
   60SAPC  H20T 4655   5.959   0.925   5.657 -0.3556  0.2940 -0.1407
   60SAPC   C33 4656   5.905   1.313   6.818 -0.0038 -0.1681  0.3691
   60SAPC   H3X 4657   5.901   1.236   6.738 -1.2793 -0.8144  1.0252
   60SAPC   H3Y 4658   5.997   1.300   6.877 -0.6495 -3.1621  0.8811
   60SAPC   C34 4659   5.905   1.449   6.745  0.3075  0.2190  1.1920
   60SAPC   H4X 4660   5.930   1.524   6.824  3.3957 -0.3472  0.8956
   60SAPC   H4Y 4661   5.814   1.473   6.687  1.4127  0.9264 -0.3297
   60SAPC   C35 4662   6.028   1.455   6.650 -0.3003 -0.0587  0.5702
   60SAPC   H5X 4663   6.119   1.415   6.700 -0.4152  1.6518  2.2742
   60SAPC   H5Y 4664   6.045   1.564   6.639  1.2423 -0.5914 -4.6078
   60SAPC   C36 4665   6.015   1.403   6.506 -0.1128  0.3185  0.3843
   60SAPC   H6X 4666   5.932   1.464   6.465  0.4580  0.7684 -0.1137
   60SAPC   H6Y 4667   5.984   1.297   6.498 -1.0508  0.4346  2.0355
   60SAPC   C37 4668   6.145   1.411   6.423 -0.2559  0.5667  0.1473
   60SAPC   H7X 4669   6.224   1.360   6.484  0.0619  0.2483 -0.5241
   60SAPC   H7Y 4670   6.168   1.519   6.410  2.7521  0.2619  1.9392
   60SAPC   C38 4671   6.132   1.347   6.284  0.1227 -0.3687 -0.2405
   60SAPC   H8X 4672   6.040   1.396   6.243 -1.1510 -0.3492  2.4446
   60SAPC   H8Y 4673   6.113   1.239   6.300 -1.2110 -0.5928 -2.6925
   60SAPC   C39 4674   6.241   1.374   6.184 -0.3378  0.4801 -0.2147
   60SAPC   H9X 4675   6.225   1.315   6.092  0.0165  1.7698 -1.1296
   60SAPC   H9Y 4676   6.342   1.353   6.225  1.0068  2.9972 -1.9775
   60SAPC  C310 4677   6.251   1.525   6.143 -0.0248  0.0388  0.3968
   60SAPC  H10X 4678   6.354   1.539   6.103 -0.5767 -0.9615 -1.4941
   60SAPC  H10Y 4679   6.234   1.592   6.230  5.1468  0.5691  1.3207
   60SAPC  C311 4680   6.146   1.567   6.036  1.0087  0.3446  0.8297
   60SAPC  H11X 4681   6.151   1.677   6.025 -1.8936  0.3073 -2.9363
   60SAPC  H11Y 4682   6.047   1.531   6.071  0.6343  2.9379  2.7069
   60SAPC  C312 4683   6.184   1.517   5.893 -0.4757  0.7081  0.7729
   60SAPC  H12X 4684   6.183   1.406   5.888 -1.6299  0.6879  1.1356
   60SAPC  H12Y 4685   6.291   1.546   5.886  0.2542 -1.9188  0.2872
   60SAPC  C313 4686   6.096   1.581   5.781  0.6699 -0.0805 -0.7782
   60SAPC  H13X 4687   6.109   1.690   5.798  0.1830 -0.0888 -0.3458
   60SAPC  H13Y 4688   5.988   1.566   5.801  0.2863  2.2457 -0.8368
   60SAPC  C314 4689   6.143   1.547   5.637  0.8338 -0.3887  0.5964
   60SAPC  H14X 4690   6.156   1.438   5.625  3.8553 -0.0361 -0.3844
   60SAPC  H14Y 4691   6.241   1.596   5.620 -0.2092  1.4558 -0.4214
   60SAPC  C315 4692   6.038   1.595   5.527  0.0703  0.1793 -0.7100
   60SAPC  H15X 4693   5.938   1.553   5.550  0.3639 -0.8806 -1.3050
   60SAPC  H15Y 4694   6.076   1.555   5.431 -2.8465 -2.0695 -1.0624
   60SAPC  C316 4695   6.028   1.748   5.522  0.6662  0.4280  0.1293
   60SAPC  H16X 4696   6.125   1.790   5.487  0.8247  0.1468  0.2271
   60SAPC  H16Y 4697   6.009   1.786   5.625  2.0883 -2.5589  1.6284
   60SAPC  C317 4698   5.923   1.781   5.419 -0.4416  0.5261 -1.4530
   60SAPC  H17X 4699   5.827   1.754   5.467  0.6066  0.7525  0.9157
   60SAPC  H17Y 4700   5.941   1.714   5.332  1.5779  1.0095 -1.4556
   60SAPC  C318 4701   5.919   1.924   5.370  0.4150  0.8347 -0.5083
   60SAPC  H18X 4702   6.025   1.947   5.344  0.6282  0.3508 -0.0746
   60SAPC  H18Y 4703   5.874   1.990   5.447  0.3649 -0.5425  0.6837
   60SAPC  H18Z 4704   5.855   1.927   5.280  0.4610 -1.2802 -0.6427
   61SAPC     N 4705   3.303   1.815   7.526 -0.5678  0.7666 -0.2615
   61SAPC   C12 4706   3.376   1.805   7.388  0.2461 -0.0564  0.0631
   61SAPC  H12A 4707   3.463   1.865   7.410  2.5562 -3.2740  0.4337
   61SAPC  H12B 4708   3.324   1.850   7.305  1.3028 -2.1404 -1.8412
   61SAPC   C13 4709   3.395   1.782   7.642 -0.5306  0.1443  0.2622
   61SAPC  H13A 4710   3.411   1.676   7.654 -0.9658 -0.1176 -1.2484
   61SAPC  H13B 4711   3.486   1.837   7.622 -1.6234  1.8138 -0.3702
   61SAPC  H13C 4712   3.353   1.828   7.730  1.2222 -1.3439  1.9480
   61SAPC   C14 4713   3.267   1.957   7.541  0.0700  0.3837  0.0426
   61SAPC  H14A 4714   3.350   2.026   7.541  0.6871 -0.3185  0.7643
   61SAPC  H14B 4715   3.184   1.983   7.477 -1.2203 -1.5169  0.8440
   61SAPC  H14C 4716   3.234   1.973   7.643  2.2588  0.1246  0.8619
   61SAPC   C15 4717   3.172   1.740   7.534  0.2930 -0.2231 -0.0272
   61SAPC  H15A 4718   3.189   1.634   7.538 -1.1635 -0.4926 -0.1955
   61SAPC  H15B 4719   3.121   1.781   7.620 -0.5614  0.3031 -0.7548
   61SAPC  H15C 4720   3.101   1.756   7.454  0.0327 -0.5328  0.1385
   61SAPC   C11 4721   3.432   1.668   7.334 -0.3241 -1.1869 -0.2938
   61SAPC  H11A 4722   3.479   1.694   7.237 -1.4164 -0.7311 -0.7118
   61SAPC  H11B 4723   3.350   1.596   7.310  0.3528 -1.9374 -0.4208
   61SAPC     P 4724   3.671   1.695   7.434 -0.1540 -0.0544 -0.3181
   61SAPC   O13 4725   3.642   1.825   7.487 -0.0746  0.4721  0.4314
   61SAPC   O14 4726   3.772   1.612   7.496  0.1785  0.3473 -1.0271
   61SAPC   O12 4727   3.532   1.611   7.418  0.4396  0.6039 -0.0228
   61SAPC   O11 4728   3.722   1.703   7.289 -0.2064  0.0765 -0.2726
   61SAPC    C1 4729   3.792   1.602   7.218 -0.3439  0.6978  0.5767
   61SAPC    HA 4730   3.782   1.499   7.259  2.2965 -0.2439 -0.8836
   61SAPC    HB 4731   3.755   1.601   7.113 -1.3497 -1.3447  0.8937
   61SAPC    C2 4732   3.936   1.652   7.194  0.3815 -0.1073  0.0352
   61SAPC    HS 4733   3.976   1.689   7.291  1.1349 -1.2221  0.1752
   61SAPC   O21 4734   3.930   1.757   7.098  0.0452 -0.0612 -0.8361
   61SAPC   C21 4735   4.047   1.823   7.082 -0.2875 -0.1278 -0.2011
   61SAPC   O22 4736   4.144   1.819   7.159  0.2222  0.4523  0.2737
   61SAPC   C22 4737   4.045   1.909   6.954  0.3914 -0.1453  0.4429
   61SAPC   H2R 4738   3.939   1.910   6.922  0.9102  0.1877 -1.3550
   61SAPC   H2S 4739   4.065   2.014   6.986 -2.1111  1.4303 -2.6632
   61SAPC    C3 4740   4.020   1.530   7.145 -0.2978  0.1307  0.1876
   61SAPC    HX 4741   4.017   1.456   7.228  1.1356  2.9779  2.9883
   61SAPC    HY 4742   4.125   1.566   7.140  0.1003 -0.3499  3.0108
   61SAPC   O31 4743   3.965   1.482   7.020 -0.1563  0.1180  0.1334
   61SAPC   C31 4744   3.972   1.355   7.009  0.4453  0.6803  0.0570
   61SAPC   O32 4745   4.032   1.284   7.086 -0.2463  1.2260 -0.0845
   61SAPC   C32 4746   3.883   1.310   6.888 -0.0441 -0.1621  0.8433
   61SAPC   H2X 4747   3.786   1.263   6.913 -2.2548  3.2677 -0.5649
   61SAPC   H2Y 4748   3.945   1.225   6.852  2.2108  2.7015 -2.7624
   61SAPC   C23 4749   4.145   1.848   6.850  0.2723  0.0358 -0.2165
   61SAPC   H3R 4750   4.252   1.858   6.877  0.5398 -0.8045 -0.9353
   61SAPC   H3S 4751   4.131   1.925   6.771  0.4878  1.3978  1.0275
   61SAPC   C24 4752   4.104   1.705   6.807 -0.7796  0.0471  0.8270
   61SAPC   H4R 4753   4.000   1.713   6.769  0.0450 -0.9361 -1.9197
   61SAPC   H4S 4754   4.112   1.637   6.894 -0.4351  0.0336  0.7875
   61SAPC   C25 4755   4.193   1.663   6.689  0.8118 -0.5418 -0.3434
   61SAPC   H5R 4756   4.280   1.600   6.714  0.3077 -3.8710 -5.4786
   61SAPC   C26 4757   4.192   1.720   6.569  1.1846  0.1323  0.0829
   61SAPC   H6R 4758   4.269   1.689   6.497  0.1214 -0.0855 -0.9892
   61SAPC   C27 4759   4.083   1.815   6.519 -0.9364  0.0113  0.2413
   61SAPC   H7R 4760   4.021   1.857   6.601 -0.0081 -0.2404  1.0918
   61SAPC   H7S 4761   4.017   1.755   6.453 -1.0378  0.5743 -0.1682
   61SAPC   C28 4762   4.150   1.931   6.445 -0.0144  0.1067 -0.4773
   61SAPC   H8R 4763   4.165   2.023   6.505  0.7202  0.8200 -1.7154
   61SAPC   C29 4764   4.187   1.939   6.315  0.1587  0.9970 -0.2482
   61SAPC   H9R 4765   4.235   2.025   6.266 -1.7931  1.0182 -2.2729
   61SAPC  C210 4766   4.180   1.820   6.221 -0.0653  0.2335  0.0056
   61SAPC  H10R 4767   4.147   1.849   6.119 -3.9502 -3.3348 -0.0010
   61SAPC  H10S 4768   4.100   1.747   6.243 -0.3731 -0.2390 -2.4733
   61SAPC  C211 4769   4.304   1.741   6.224 -0.6989 -0.1345 -0.4893
   61SAPC  H11R 4770   4.305   1.662   6.300  1.5966 -0.2289 -0.5230
   61SAPC  C212 4771   4.413   1.769   6.137 -0.1127  0.6857  0.2141
   61SAPC  H12R 4772   4.508   1.715   6.148  0.0309  1.2512  2.1763
   61SAPC  C213 4773   4.415   1.881   6.041 -0.4768  0.3364  0.2249
   61SAPC  H13R 4774   4.346   1.962   6.073  0.0171  1.8333 -2.2609
   61SAPC  H13S 4775   4.362   1.854   5.948  1.5599 -2.4117 -0.2510
   61SAPC  C214 4776   4.550   1.934   6.005  0.3977  0.4346 -0.9841
   61SAPC  H14R 4777   4.590   1.932   5.902  1.1455  0.2759 -0.6922
   61SAPC  C215 4778   4.654   1.972   6.084  0.1092  0.4510  0.3669
   61SAPC  H15R 4779   4.747   2.000   6.033 -0.8150 -0.0198 -1.7055
   61SAPC  C216 4780   4.642   2.002   6.232  0.4263  0.0704  0.1244
   61SAPC  H16R 4781   4.695   1.928   6.296  1.2010 -0.7998 -1.4522
   61SAPC  H16S 4782   4.537   1.992   6.266  0.4560  0.6140  0.3851
   61SAPC  C217 4783   4.690   2.140   6.283  0.3408 -0.0077 -0.0696
   61SAPC  H17R 4784   4.646   2.227   6.231 -0.8461 -0.5379  0.0253
   61SAPC  H17S 4785   4.801   2.140   6.275  0.3077 -0.8244 -0.6546
   61SAPC  C218 4786   4.649   2.159   6.428 -0.1975 -0.8190 -0.1690
   61SAPC  H18R 4787   4.709   2.094   6.495  1.1843 -0.0863 -0.6552
   61SAPC  H18S 4788   4.541   2.140   6.447 -0.0487 -1.7824 -0.2391
   61SAPC  C219 4789   4.684   2.302   6.489  0.8500 -0.4354 -0.0475
   61SAPC  H19R 4790   4.623   2.379   6.437  0.8862 -0.1846  0.2783
   61SAPC  H19S 4791   4.787   2.342   6.476 -0.0988  2.7399  1.1336
   61SAPC  C220 4792   4.646   2.311   6.636  0.1640 -0.2372  0.3268
   61SAPC  H20R 4793   4.536   2.305   6.650  0.2689 -1.7013  0.5954
   61SAPC  H20S 4794   4.678   2.406   6.684 -1.0912  0.1785  0.3888
   61SAPC  H20T 4795   4.701   2.225   6.678  0.3136 -0.4717 -0.3440
   61SAPC   C33 4796   3.874   1.422   6.779 -0.2392 -0.7025 -0.1330
   61SAPC   H3X 4797   3.952   1.405   6.702  1.5631 -0.8367  1.6395
   61SAPC   H3Y 4798   3.892   1.522   6.822  1.8866 -0.2129 -1.9903
   61SAPC   C34 4799   3.734   1.425   6.720  0.6058 -0.0421 -0.3234
   61SAPC   H4X 4800   3.674   1.462   6.807  0.8736  0.0044 -0.1578
   61SAPC   H4Y 4801   3.688   1.332   6.681 -1.3494  1.3459 -1.5013
   61SAPC   C35 4802   3.736   1.525   6.607  0.5275 -0.3251  0.0288
   61SAPC   H5X 4803   3.775   1.621   6.647  0.5676 -1.0727  1.8717
   61SAPC   H5Y 4804   3.630   1.535   6.577  0.3220  0.1064  0.8757
   61SAPC   C36 4805   3.817   1.479   6.481  0.7156 -0.6689 -0.1425
   61SAPC   H6X 4806   3.787   1.376   6.454 -2.5362  0.1374 -0.0688
   61SAPC   H6Y 4807   3.926   1.478   6.500  0.5518 -0.8214  0.8720
   61SAPC   C37 4808   3.777   1.565   6.354  0.1939  0.2595 -0.4983
   61SAPC   H7X 4809   3.819   1.667   6.365  2.1071 -0.7004  2.0491
   61SAPC   H7Y 4810   3.666   1.567   6.346  0.1088  0.0005  0.5561
   61SAPC   C38 4811   3.823   1.513   6.221 -0.3782 -0.3926 -0.5174
   61SAPC   H8X 4812   3.812   1.403   6.222 -1.5275 -0.3763  3.2253
   61SAPC   H8Y 4813   3.932   1.519   6.201 -0.2088 -1.4815  0.0406
   61SAPC   C39 4814   3.745   1.561   6.102 -0.3025 -0.3948  0.5461
   61SAPC   H9X 4815   3.746   1.672   6.094 -1.4094 -0.4078  0.0323
   61SAPC   H9Y 4816   3.639   1.529   6.109 -1.0869  0.5607 -3.8381
   61SAPC  C310 4817   3.778   1.491   5.969 -0.2595  0.2928 -0.1831
   61SAPC  H10X 4818   3.763   1.385   6.000  0.0528  0.2486 -0.1798
   61SAPC  H10Y 4819   3.887   1.492   5.948 -0.4700  2.2193 -1.4432
   61SAPC  C311 4820   3.690   1.536   5.861 -0.2276 -0.2304  0.0788
   61SAPC  H11X 4821   3.712   1.642   5.836  1.1310 -0.4448  0.2887
   61SAPC  H11Y 4822   3.585   1.528   5.895 -0.2644  0.6589  0.1993
   61SAPC  C312 4823   3.710   1.462   5.733  0.9431 -0.1957  0.2784
   61SAPC  H12X 4824   3.653   1.500   5.646 -2.0095  0.5852  2.3891
   61SAPC  H12Y 4825   3.670   1.362   5.759  0.4017 -0.2127 -0.5991
   61SAPC  C313 4826   3.861   1.455   5.696 -0.5523  0.0032  0.4078
   61SAPC  H13X 4827   3.900   1.395   5.782 -0.3372 -0.9105 -0.3154
   61SAPC  H13Y 4828   3.902   1.558   5.693 -0.4940 -0.0328 -0.0424
   61SAPC  C314 4829   3.906   1.377   5.572  0.4339  0.2627 -0.0260
   61SAPC  H14X 4830   3.874   1.433   5.482  1.1694  0.0180 -0.4450
   61SAPC  H14Y 4831   3.866   1.274   5.556  0.5074  0.2797 -0.3288
   61SAPC  C315 4832   4.067   1.377   5.581 -0.1556 -0.3999 -0.5027
   61SAPC  H15X 4833   4.076   1.330   5.681  0.4615 -1.5775 -1.0827
   61SAPC  H15Y 4834   4.113   1.477   5.573 -1.2337  0.0402 -1.6198
   61SAPC  C316 4835   4.109   1.286   5.473 -0.0954  1.1258 -0.1353
   61SAPC  H16X 4836   4.046   1.297   5.382 -0.6764 -0.6542  0.0078
   61SAPC  H16Y 4837   4.104   1.184   5.517 -0.2640 -0.1771 -2.9543
   61SAPC  C317 4838   4.247   1.322   5.417 -0.0372  0.2037 -0.3367
   61SAPC  H17X 4839   4.309   1.323   5.509 -0.5787  1.8245  0.0405
   61SAPC  H17Y 4840   4.237   1.426   5.378 -2.0277  0.8954  1.8250
   61SAPC  C318 4841   4.306   1.231   5.314 -0.3976  0.1776  0.2427
   61SAPC  H18X 4842   4.356   1.147   5.368 -1.6509 -0.6957  0.0964
   61SAPC  H18Y 4843   4.388   1.282   5.260 -0.0195 -1.4395 -0.7523
   61SAPC  H18Z 4844   4.235   1.194   5.237  1.4511 -1.1754 -0.8706
   62SAPC     N 4845   1.483   6.694   8.082 -0.2325  0.0084 -0.2772
   62SAPC   C12 4846   1.530   6.559   8.021  0.2107  0.3650 -0.2360
   62SAPC  H12A 4847   1.488   6.477   8.077  2.1398 -1.0358 -0.7758
   62SAPC  H12B 4848   1.636   6.546   8.031 -0.0524 -1.3409  0.7020
   62SAPC   C13 4849   1.501   6.707   8.233  0.5207 -0.1043  0.2343
   62SAPC  H13A 4850   1.441   6.629   8.277  0.8690 -0.6099 -0.1637
   62SAPC  H13B 4851   1.606   6.703   8.259  0.4202  0.7989  0.8310
   62SAPC  H13C 4852   1.465   6.803   8.266  0.6630  0.2453 -0.6065
   62SAPC   C14 4853   1.541   6.810   8.014 -0.2043 -0.1672  0.3467
   62SAPC  H14A 4854   1.649   6.816   8.009 -0.2649 -0.0552 -1.3065
   62SAPC  H14B 4855   1.516   6.811   7.909  1.1751  2.8534 -0.0685
   62SAPC  H14C 4856   1.517   6.902   8.067  0.6649  1.2392 -1.5923
   62SAPC   C15 4857   1.336   6.689   8.059 -0.8353 -0.1438 -0.0413
   62SAPC  H15A 4858   1.287   6.778   8.098 -0.4037  0.1112 -0.0678
   62SAPC  H15B 4859   1.321   6.676   7.953 -3.2193  1.1183  0.0608
   62SAPC  H15C 4860   1.288   6.604   8.105  0.4618 -0.3040  1.1074
   62SAPC   C11 4861   1.493   6.541   7.875 -0.4588 -0.5937 -0.2340
   62SAPC  H11A 4862   1.382   6.535   7.865 -1.0540 -1.0097  4.2044
   62SAPC  H11B 4863   1.533   6.442   7.845  1.8162  0.4543 -0.9078
   62SAPC     P 4864   1.500   6.688   7.664  0.1467  0.0892  0.0355
   62SAPC   O13 4865   1.371   6.752   7.704  0.1616 -0.0968 -0.2802
   62SAPC   O14 4866   1.593   6.783   7.589 -0.0702 -0.0349 -0.2121
   62SAPC   O12 4867   1.568   6.632   7.795 -0.1256 -0.7581  0.2637
   62SAPC   O11 4868   1.470   6.565   7.583 -0.0647 -0.7543 -0.4533
   62SAPC    C1 4869   1.556   6.457   7.538 -1.0763  0.3460  0.4215
   62SAPC    HA 4870   1.589   6.386   7.617  0.5899  1.5391  0.8653
   62SAPC    HB 4871   1.504   6.391   7.465  3.1080 -3.8823  0.7992
   62SAPC    C2 4872   1.690   6.501   7.457  0.5846  0.0609  0.3965
   62SAPC    HS 4873   1.744   6.570   7.526 -0.3536  0.1151  1.1123
   62SAPC   O21 4874   1.658   6.570   7.338 -0.6874  0.3219  0.0883
   62SAPC   C21 4875   1.749   6.652   7.282  0.3511  0.5690  0.6588
   62SAPC   O22 4876   1.865   6.654   7.320  0.3892  0.4185 -0.1070
   62SAPC   C22 4877   1.673   6.743   7.187  0.0432 -0.1087  0.1230
   62SAPC   H2R 4878   1.586   6.793   7.233  0.6397  2.2292 -1.1024
   62SAPC   H2S 4879   1.743   6.828   7.171 -0.2365  0.2620  0.8724
   62SAPC    C3 4880   1.773   6.367   7.431  0.7390  0.3446  0.1555
   62SAPC    HX 4881   1.816   6.333   7.527  3.0708  1.5021 -0.3798
   62SAPC    HY 4882   1.862   6.392   7.368  1.7936  0.8252  1.7602
   62SAPC   O31 4883   1.691   6.258   7.381  0.0650  0.0853  0.0658
   62SAPC   C31 4884   1.678   6.249   7.251 -0.3127 -0.2976 -0.0310
   62SAPC   O32 4885   1.720   6.330   7.174  0.0748 -0.3463  0.7100
   62SAPC   C32 4886   1.611   6.123   7.204  0.1383  0.0909 -0.9756
   62SAPC   H2X 4887   1.506   6.149   7.180  0.3476  1.2896 -0.6716
   62SAPC   H2Y 4888   1.611   6.048   7.285  1.3677 -0.5947 -1.5727
   62SAPC   C23 4889   1.634   6.671   7.055 -0.1771 -0.1920 -0.0025
   62SAPC   H3R 4890   1.594   6.571   7.079 -1.2060 -0.2670 -1.8718
   62SAPC   H3S 4891   1.730   6.668   6.998 -0.3108  1.3412 -0.3454
   62SAPC   C24 4892   1.525   6.747   6.979  0.0133 -0.8902  0.3507
   62SAPC   H4R 4893   1.437   6.743   7.046 -0.0109  1.8518  0.5850
   62SAPC   H4S 4894   1.505   6.699   6.880 -0.2150  0.7782 -0.4498
   62SAPC   C25 4895   1.569   6.889   6.955  0.0171  0.8505 -0.2729
   62SAPC   H5R 4896   1.535   6.965   7.028  0.7307  1.1144 -0.2123
   62SAPC   C26 4897   1.635   6.930   6.846 -0.0110 -0.8444  0.6533
   62SAPC   H6R 4898   1.666   7.035   6.858  1.2310 -1.2542  1.2351
   62SAPC   C27 4899   1.684   6.856   6.722  0.1100 -0.3363  0.3990
   62SAPC   H7R 4900   1.632   6.892   6.631 -1.0280 -0.8148  0.8366
   62SAPC   H7S 4901   1.680   6.745   6.726  0.1786 -0.4939 -2.1562
   62SAPC   C28 4902   1.834   6.899   6.711  0.0647 -0.1963  0.1855
   62SAPC   H8R 4903   1.906   6.873   6.789  0.3706  1.9303  0.6621
   62SAPC   C29 4904   1.888   6.945   6.597  0.0156  0.5344 -0.0065
   62SAPC   H9R 4905   1.998   6.943   6.596  0.0076 -0.3354 -1.0471
   62SAPC  C210 4906   1.828   6.974   6.458  0.2800  0.2870 -0.1649
   62SAPC  H10R 4907   1.885   7.059   6.416  0.3127  1.0056  1.2698
   62SAPC  H10S 4908   1.725   7.011   6.477  0.6948  0.5090  1.8703
   62SAPC  C211 4909   1.808   6.859   6.367  0.1011  0.6556  0.4868
   62SAPC  H11R 4910   1.798   6.761   6.417 -0.4454  2.1101  3.4657
   62SAPC  C212 4911   1.791   6.877   6.228  0.2134  0.0177 -0.3341
   62SAPC  H12R 4912   1.784   6.786   6.167 -0.4518  0.0453 -0.3051
   62SAPC  C213 4913   1.789   7.018   6.169  0.2561  0.2498  0.4660
   62SAPC  H13R 4914   1.733   7.082   6.241 -2.4043 -0.9546 -0.4400
   62SAPC  H13S 4915   1.715   7.019   6.087 -0.1022  0.9257  0.7858
   62SAPC  C214 4916   1.931   7.054   6.123  0.8965 -0.5916  0.0246
   62SAPC  H14R 4917   2.009   7.051   6.201  0.3732 -2.3013  0.5179
   62SAPC  C215 4918   1.959   7.109   6.005 -0.5294  0.0660 -0.3730
   62SAPC  H15R 4919   2.066   7.126   5.988  0.1730 -2.1460  1.3250
   62SAPC  C216 4920   1.865   7.139   5.891 -0.3076 -0.4309  0.0908
   62SAPC  H16R 4921   1.830   7.243   5.902  0.9885  0.3044 -2.0012
   62SAPC  H16S 4922   1.774   7.076   5.895 -0.1482 -0.6903 -0.2668
   62SAPC  C217 4923   1.943   7.133   5.752 -0.1788 -0.5783  0.1867
   62SAPC  H17R 4924   1.992   7.033   5.753  0.4772 -0.2710  1.4407
   62SAPC  H17S 4925   2.018   7.216   5.743  1.5283 -1.8052  2.1900
   62SAPC  C218 4926   1.844   7.144   5.635 -0.1441  0.5459  0.9241
   62SAPC  H18R 4927   1.801   7.246   5.626 -4.0053 -0.9286  0.6573
   62SAPC  H18S 4928   1.760   7.071   5.643  0.3373 -0.6374 -2.6999
   62SAPC  C219 4929   1.924   7.107   5.503 -0.1424  0.0522 -0.2448
   62SAPC  H19R 4930   1.853   7.063   5.431  0.5694 -0.5733 -0.5814
   62SAPC  H19S 4931   2.012   7.041   5.519  1.3717  2.2262  0.8929
   62SAPC  C220 4932   1.984   7.225   5.427 -0.4956 -0.0220 -1.0242
   62SAPC  H20R 4933   1.924   7.316   5.448  2.1351  1.5060  0.4227
   62SAPC  H20S 4934   1.974   7.201   5.319 -0.6565 -1.2090 -0.7592
   62SAPC  H20T 4935   2.091   7.245   5.452 -0.5284 -0.4165 -0.5556
   62SAPC   C33 4936   1.686   6.060   7.080  0.1064  0.6566  0.7778
   62SAPC   H3X 4937   1.787   6.024   7.106  0.2877 -2.0947 -2.9464
   62SAPC   H3Y 4938   1.696   6.136   6.999  2.4476 -1.7304 -1.3535
   62SAPC   C34 4939   1.603   5.937   7.027 -0.3847 -0.3278 -0.7166
   62SAPC   H4X 4940   1.499   5.970   7.010  0.0768 -0.3029 -4.4883
   62SAPC   H4Y 4941   1.601   5.857   7.104  0.6493 -0.5897 -0.9435
   62SAPC   C35 4942   1.651   5.884   6.893 -0.1366  0.0906 -0.9707
   62SAPC   H5X 4943   1.606   5.784   6.877 -1.7440  0.5375  0.4996
   62SAPC   H5Y 4944   1.761   5.869   6.897 -0.5447 -3.9170 -0.4188
   62SAPC   C36 4945   1.627   5.982   6.773  0.8799 -0.0578  0.2868
   62SAPC   H6X 4946   1.692   6.073   6.769 -0.1155  0.6687  0.3051
   62SAPC   H6Y 4947   1.519   6.005   6.784  0.5547 -1.4009  0.0401
   62SAPC   C37 4948   1.659   5.916   6.636  0.0981  0.3886  0.4203
   62SAPC   H7X 4949   1.623   5.812   6.626  1.9576 -0.1522 -1.3616
   62SAPC   H7Y 4950   1.769   5.910   6.638  0.1617  1.3414  2.0627
   62SAPC   C38 4951   1.631   6.005   6.513  0.2749 -0.1865  0.6581
   62SAPC   H8X 4952   1.699   6.093   6.518  0.3017 -0.2550  1.9293
   62SAPC   H8Y 4953   1.523   6.031   6.516 -0.0329 -1.4098  0.6782
   62SAPC   C39 4954   1.659   5.933   6.388 -0.1999  0.1173  0.4404
   62SAPC   H9X 4955   1.590   5.848   6.375 -0.1774 -0.0898  1.5440
   62SAPC   H9Y 4956   1.762   5.891   6.397  0.4584  1.6041  0.3184
   62SAPC  C310 4957   1.654   6.022   6.267 -0.6081  0.1201 -1.0036
   62SAPC  H10X 4958   1.740   6.093   6.275 -0.8968  0.2713  2.0955
   62SAPC  H10Y 4959   1.573   6.097   6.269  0.9028  1.8098  0.0139
   62SAPC  C311 4960   1.656   5.948   6.134  0.5381 -0.6106  0.6287
   62SAPC  H11X 4961   1.556   5.900   6.130 -0.3349  0.7709  3.5940
   62SAPC  H11Y 4962   1.732   5.869   6.115 -0.5370 -1.2008 -1.5497
   62SAPC  C312 4963   1.673   6.051   6.017 -0.3714 -0.1242 -0.5070
   62SAPC  H12X 4964   1.758   6.120   6.033 -2.6003  2.6774 -0.0595
   62SAPC  H12Y 4965   1.588   6.122   6.011  0.9163  1.4134 -1.5576
   62SAPC  C313 4966   1.693   5.965   5.882  0.1160 -0.3446 -0.1420
   62SAPC  H13X 4967   1.600   5.907   5.862 -0.0583 -0.3697  0.6995
   62SAPC  H13Y 4968   1.773   5.889   5.891  1.8624  1.5190  0.9347
   62SAPC  C314 4969   1.703   6.047   5.754 -0.1839 -0.0363 -0.5022
   62SAPC  H14X 4970   1.811   6.073   5.755  0.0353 -0.8648  0.9265
   62SAPC  H14Y 4971   1.663   6.150   5.757 -0.7740 -0.1530 -2.6325
   62SAPC  C315 4972   1.663   5.982   5.621 -0.0839 -0.4714  0.2298
   62SAPC  H15X 4973   1.554   5.967   5.635 -0.1963 -0.3734 -0.4831
   62SAPC  H15Y 4974   1.722   5.888   5.608  1.9837  0.7397  0.3896
   62SAPC  C316 4975   1.694   6.071   5.507 -0.4121 -0.2892  0.3282
   62SAPC  H16X 4976   1.802   6.085   5.482 -0.8925  0.1201 -1.7642
   62SAPC  H16Y 4977   1.641   6.164   5.537  0.1091  0.1779 -0.1663
   62SAPC  C317 4978   1.641   6.029   5.365 -0.7287 -0.5166  0.4053
   62SAPC  H17X 4979   1.532   6.012   5.380 -0.8869  0.8878  0.9718
   62SAPC  H17Y 4980   1.684   5.931   5.335 -1.6984 -0.7710 -0.2219
   62SAPC  C318 4981   1.656   6.135   5.257 -0.0367 -0.1150 -0.2363
   62SAPC  H18X 4982   1.579   6.212   5.277  0.3311  0.2248 -0.1089
   62SAPC  H18Y 4983   1.625   6.092   5.160 -2.5766  0.6352  0.1826
   62SAPC  H18Z 4984   1.756   6.182   5.245 -0.1773  0.0836 -0.6745
   63SAPC     N 4985   1.445   1.647   7.845  0.1925  0.4287  0.0293
   63SAPC   C12 4986   1.301   1.612   7.856  0.0212  0.2033  0.1737
   63SAPC  H12A 4987   1.249   1.676   7.926  0.0238  1.2377 -0.7465
   63SAPC  H12B 4988   1.285   1.509   7.886 -0.2798  0.3463  0.5127
   63SAPC   C13 4989   1.463   1.798   7.813 -0.3716  0.2725  0.5642
   63SAPC  H13A 4990   1.399   1.815   7.728  1.9660  2.8310 -0.8777
   63SAPC  H13B 4991   1.431   1.862   7.894 -0.3683  1.7286 -0.5221
   63SAPC  H13C 4992   1.566   1.819   7.788 -0.5084 -0.7670 -1.0191
   63SAPC   C14 4993   1.513   1.610   7.979 -0.1687 -0.0395 -0.0947
   63SAPC  H14A 4994   1.619   1.619   7.962  0.1288 -1.6962  0.7018
   63SAPC  H14B 4995   1.494   1.671   8.066 -0.9906 -0.8300  0.2962
   63SAPC  H14C 4996   1.493   1.506   7.999 -2.3827 -0.6913 -4.3777
   63SAPC   C15 4997   1.506   1.580   7.734 -0.2734  0.4917  0.1200
   63SAPC  H15A 4998   1.489   1.474   7.744 -1.9772  0.9878  3.9557
   63SAPC  H15B 4999   1.478   1.613   7.635 -1.4731 -0.5322  0.0941
   63SAPC  H15C 5000   1.614   1.582   7.744 -0.4605  0.2099  2.8390
   63SAPC   C11 5001   1.214   1.626   7.727 -0.4069 -0.1096 -0.1161
   63SAPC  H11A 5002   1.111   1.601   7.761  0.1162  0.8480  2.4153
   63SAPC  H11B 5003   1.257   1.553   7.655  1.8442 -0.7991  1.7882
   63SAPC     P 5004   1.181   1.770   7.517 -0.0636  0.4007  0.0203
   63SAPC   O13 5005   1.070   1.682   7.483  0.8745  0.6319 -0.0626
   63SAPC   O14 5006   1.157   1.916   7.497 -0.0104 -0.3873 -0.2817
   63SAPC   O12 5007   1.217   1.762   7.670  0.0633  0.1044  0.3280
   63SAPC   O11 5008   1.313   1.719   7.445 -0.2520  0.3359  0.4390
   63SAPC    C1 5009   1.423   1.812   7.413  0.8580 -0.1427  0.0228
   63SAPC    HA 5010   1.445   1.872   7.505 -0.5309 -0.8198  0.8303
   63SAPC    HB 5011   1.519   1.758   7.404  0.3104 -1.1215 -0.0281
   63SAPC    C2 5012   1.389   1.903   7.292  0.1117  0.0376  1.1630
   63SAPC    HS 5013   1.299   1.967   7.302  1.4640  2.0325  1.0303
   63SAPC   O21 5014   1.385   1.818   7.173 -0.5144  0.4033 -0.4481
   63SAPC   C21 5015   1.257   1.798   7.133 -0.3926 -0.8960 -0.1209
   63SAPC   O22 5016   1.153   1.848   7.178 -0.6472  0.4875 -0.1397
   63SAPC   C22 5017   1.262   1.703   7.012 -0.3723 -0.1842 -0.3382
   63SAPC   H2R 5018   1.361   1.709   6.962 -1.2560 -0.3870 -2.1966
   63SAPC   H2S 5019   1.254   1.603   7.061 -2.4400  0.0137 -0.1929
   63SAPC    C3 5020   1.511   2.006   7.281 -0.0988  0.2017  0.0964
   63SAPC    HX 5021   1.607   1.971   7.324  1.1646  0.8228 -2.0583
   63SAPC    HY 5022   1.475   2.088   7.346  0.9175  0.3030  0.5425
   63SAPC   O31 5023   1.515   2.066   7.145  0.0441  0.1047 -0.4684
   63SAPC   C31 5024   1.602   2.000   7.069 -0.3197 -0.2806 -0.4062
   63SAPC   O32 5025   1.680   1.915   7.107  0.1413 -0.1272 -0.2655
   63SAPC   C32 5026   1.580   2.045   6.923 -0.3801 -0.1995 -0.4592
   63SAPC   H2X 5027   1.631   2.142   6.905 -1.4666  0.7640  1.3577
   63SAPC   H2Y 5028   1.471   2.065   6.915 -1.0372 -3.3698 -0.5685
   63SAPC   C23 5029   1.150   1.718   6.917  0.4440  0.5691  0.1966
   63SAPC   H3R 5030   1.133   1.817   6.870 -1.5396  0.3925  0.4695
   63SAPC   H3S 5031   1.059   1.706   6.980 -0.4013  0.5427 -0.9881
   63SAPC   C24 5032   1.146   1.613   6.798  0.0294 -0.3057 -0.2090
   63SAPC   H4R 5033   1.048   1.629   6.748  0.0347  1.5607  0.2886
   63SAPC   H4S 5034   1.154   1.514   6.846  0.5302  0.2440  0.8738
   63SAPC   C25 5035   1.264   1.642   6.706  0.1811  0.1146 -0.5121
   63SAPC   H5R 5036   1.361   1.653   6.755  0.6592 -1.0994 -1.1382
   63SAPC   C26 5037   1.264   1.621   6.575 -0.1209  0.2052 -0.4140
   63SAPC   H6R 5038   1.356   1.631   6.516  0.3133  2.7242  0.5516
   63SAPC   C27 5039   1.132   1.590   6.510  0.3630 -0.4611  0.0071
   63SAPC   H7R 5040   1.061   1.672   6.534 -0.2170 -0.2793 -2.1227
   63SAPC   H7S 5041   1.097   1.489   6.539 -0.3331 -0.1736  0.1831
   63SAPC   C28 5042   1.129   1.586   6.355  0.1167 -0.2656 -0.1064
   63SAPC   H8R 5043   1.195   1.656   6.303  1.1032 -1.5457 -0.6561
   63SAPC   C29 5044   1.050   1.502   6.284  0.4688  0.1519 -0.4840
   63SAPC   H9R 5045   1.043   1.518   6.176  1.1396 -4.2898 -1.3805
   63SAPC  C210 5046   0.955   1.411   6.340  0.5174  0.1423  0.7412
   63SAPC  H10R 5047   0.989   1.343   6.421 -1.1927 -0.2011  1.2174
   63SAPC  H10S 5048   0.930   1.336   6.262  3.8696 -1.5058  1.0628
   63SAPC  C211 5049   0.827   1.483   6.387 -0.3557  0.2002 -0.3143
   63SAPC  H11R 5050   0.830   1.489   6.497  0.2621  1.3280 -0.3746
   63SAPC  C212 5051   0.719   1.528   6.322 -0.2039  0.2657 -0.0356
   63SAPC  H12R 5052   0.631   1.556   6.381  1.6796  0.5726  2.8054
   63SAPC  C213 5053   0.706   1.502   6.174 -0.3736 -0.4052  0.1623
   63SAPC  H13R 5054   0.608   1.455   6.151  0.9124 -1.7602 -3.3104
   63SAPC  H13S 5055   0.785   1.432   6.139  0.1438 -0.4473  1.3671
   63SAPC  C214 5056   0.708   1.634   6.104  0.8448  0.4846 -0.3272
   63SAPC  H14R 5057   0.754   1.713   6.165 -0.3054 -1.7589  3.8115
   63SAPC  C215 5058   0.641   1.663   5.990  0.1711  0.8362 -0.4794
   63SAPC  H15R 5059   0.670   1.756   5.938 -1.5018  1.1328 -0.9257
   63SAPC  C216 5060   0.566   1.573   5.893  0.4299  0.6418  0.4242
   63SAPC  H16R 5061   0.461   1.560   5.928  0.7865 -1.3837  0.9043
   63SAPC  H16S 5062   0.608   1.470   5.895  0.3842  0.6263  2.2472
   63SAPC  C217 5063   0.564   1.629   5.748 -1.1014  0.2786  0.1081
   63SAPC  H17R 5064   0.662   1.662   5.707 -1.6391 -0.0296 -1.5172
   63SAPC  H17S 5065   0.492   1.714   5.748 -0.1929  1.0735 -0.8232
   63SAPC  C218 5066   0.523   1.528   5.646  0.1147 -0.3073  0.8149
   63SAPC  H18R 5067   0.414   1.514   5.661  0.0563  0.2950  0.9946
   63SAPC  H18S 5068   0.570   1.428   5.655 -2.8169 -2.1737 -2.4077
   63SAPC  C219 5069   0.545   1.583   5.503 -0.2481  0.1662  0.1892
   63SAPC  H19R 5070   0.655   1.584   5.486 -0.1513 -2.1222  0.3595
   63SAPC  H19S 5071   0.513   1.687   5.483 -1.3968 -0.3706 -0.8972
   63SAPC  C220 5072   0.467   1.514   5.400  0.0910  0.3391 -0.1640
   63SAPC  H20R 5073   0.361   1.518   5.432  0.2988  2.4288  0.4067
   63SAPC  H20S 5074   0.498   1.407   5.398  2.1183  0.8621  0.3717
   63SAPC  H20T 5075   0.468   1.547   5.294  1.5324  1.7896  0.2653
   63SAPC   C33 5076   1.624   1.949   6.812  0.0672 -0.6726 -0.1701
   63SAPC   H3X 5077   1.550   1.866   6.809  0.4595 -1.0251 -0.2954
   63SAPC   H3Y 5078   1.721   1.899   6.833 -0.2961 -1.0112  0.7334
   63SAPC   C34 5079   1.633   2.009   6.670  0.1695  0.1281 -0.2207
   63SAPC   H4X 5080   1.712   1.960   6.609  0.3482 -0.2608  0.3187
   63SAPC   H4Y 5081   1.678   2.108   6.691 -2.2564  0.8649  2.0833
   63SAPC   C35 5082   1.494   2.030   6.610 -0.3852  0.0581  0.2979
   63SAPC   H5X 5083   1.436   2.097   6.677  0.6256  0.9318  0.3189
   63SAPC   H5Y 5084   1.447   1.929   6.610  0.0824 -0.1741 -0.6434
   63SAPC   C36 5085   1.485   2.078   6.465 -0.6343 -0.2993 -0.7378
   63SAPC   H6X 5086   1.541   2.174   6.457  0.2801 -0.9297 -2.6975
   63SAPC   H6Y 5087   1.378   2.099   6.449 -0.2982  1.3671 -0.9634
   63SAPC   C37 5088   1.523   1.983   6.346 -0.0246  0.6347 -0.0563
   63SAPC   H7X 5089   1.458   1.894   6.359 -0.6041  0.8613 -1.2720
   63SAPC   H7Y 5090   1.632   1.962   6.349 -0.3188 -0.8612  0.9308
   63SAPC   C38 5091   1.480   2.049   6.211 -0.2862 -0.5006 -0.6435
   63SAPC   H8X 5092   1.530   2.147   6.199 -2.1934  0.7514  1.0547
   63SAPC   H8Y 5093   1.373   2.077   6.201 -0.1490 -0.3469 -1.9343
   63SAPC   C39 5094   1.509   1.965   6.088 -0.5425 -0.1862 -0.6453
   63SAPC   H9X 5095   1.450   1.872   6.104  0.0056 -0.2706  1.0517
   63SAPC   H9Y 5096   1.619   1.950   6.088 -0.4339 -0.0008  2.3096
   63SAPC  C310 5097   1.479   2.034   5.957 -0.0197  0.2698 -0.1579
   63SAPC  H10X 5098   1.531   2.132   5.948 -0.9640  0.6589 -2.0304
   63SAPC  H10Y 5099   1.370   2.054   5.960 -0.4990 -1.7657 -1.7000
   63SAPC  C311 5100   1.512   1.957   5.828  0.1102  0.4468 -0.8428
   63SAPC  H11X 5101   1.451   1.865   5.826 -1.5485  1.5104 -1.5101
   63SAPC  H11Y 5102   1.620   1.931   5.823 -0.1752 -0.7985 -0.8525
   63SAPC  C312 5103   1.470   2.020   5.686  0.8163  0.0008  0.0761
   63SAPC  H12X 5104   1.364   2.053   5.694  0.6777 -0.1087 -1.1691
   63SAPC  H12Y 5105   1.467   1.936   5.613 -1.4773 -0.5145  0.6684
   63SAPC  C313 5106   1.566   2.130   5.637  0.2151 -0.0287  0.0453
   63SAPC  H13X 5107   1.670   2.096   5.622  0.6362  0.9974  0.5731
   63SAPC  H13Y 5108   1.574   2.208   5.716 -2.1959 -0.9270  1.2887
   63SAPC  C314 5109   1.527   2.189   5.501 -0.2208  0.3520  0.0605
   63SAPC  H14X 5110   1.577   2.288   5.495 -1.5750  1.0323 -0.4386
   63SAPC  H14Y 5111   1.419   2.215   5.501 -0.5539 -0.9667 -0.0231
   63SAPC  C315 5112   1.542   2.099   5.368 -0.1470  0.4565  0.0646
   63SAPC  H15X 5113   1.447   2.044   5.354  1.1410 -1.8502 -0.2079
   63SAPC  H15Y 5114   1.616   2.017   5.384 -1.0184 -0.1184  1.2922
   63SAPC  C316 5115   1.571   2.177   5.236 -0.3045 -0.2013 -0.4378
   63SAPC  H16X 5116   1.634   2.111   5.173  0.7632  0.3092  0.0717
   63SAPC  H16Y 5117   1.634   2.268   5.251 -1.2256  0.3462  0.2083
   63SAPC  C317 5118   1.450   2.213   5.148 -0.2961  0.2780  0.1902
   63SAPC  H17X 5119   1.485   2.293   5.079  2.0049 -0.8598 -0.0716
   63SAPC  H17Y 5120   1.368   2.258   5.208 -0.7826 -0.7543  0.3320
   63SAPC  C318 5121   1.394   2.098   5.074 -0.4075  0.4734 -0.1452
   63SAPC  H18X 5122   1.474   2.042   5.020  0.0235  1.7370 -0.8485
   63SAPC  H18Y 5123   1.320   2.134   4.999  2.2049  0.8944 -2.6942
   63SAPC  H18Z 5124   1.338   2.028   5.140  1.5088  0.2652  1.3695
   64SAPC     N 5125   3.504   2.697   7.425  0.4737 -0.3017 -0.4068
   64SAPC   C12 5126   3.601   2.752   7.324  0.0494  0.6906 -0.3446
   64SAPC  H12A 5127   3.630   2.682   7.247  0.7329 -1.5488  1.8351
   64SAPC  H12B 5128   3.701   2.756   7.365 -0.1680 -0.8421  0.3689
   64SAPC   C13 5129   3.520   2.548   7.449  0.1761  0.1877 -0.6654
   64SAPC  H13A 5130   3.612   2.529   7.504  0.7448 -0.6253 -1.8621
   64SAPC  H13B 5131   3.449   2.493   7.509  2.0634  0.6047  2.1354
   64SAPC  H13C 5132   3.515   2.502   7.352 -0.0630  1.2952 -1.1876
   64SAPC   C14 5133   3.502   2.781   7.553 -0.8713  0.1227  0.6270
   64SAPC  H14A 5134   3.436   2.741   7.629 -0.0948 -2.3553  0.1018
   64SAPC  H14B 5135   3.601   2.790   7.595 -0.9020 -2.5276  1.4273
   64SAPC  H14C 5136   3.475   2.880   7.521  0.0562  0.2999  0.3675
   64SAPC   C15 5137   3.368   2.708   7.359  0.5731  0.0832 -0.0552
   64SAPC  H15A 5138   3.362   2.659   7.263 -1.9595 -0.9626  0.5422
   64SAPC  H15B 5139   3.292   2.655   7.416 -0.1025  0.5885 -0.4654
   64SAPC  H15C 5140   3.338   2.811   7.347 -3.9685 -1.0184 -0.0242
   64SAPC   C11 5141   3.565   2.891   7.266  0.6970 -0.2538  0.0351
   64SAPC  H11A 5142   3.482   2.866   7.196  1.8442 -1.6601 -0.8836
   64SAPC  H11B 5143   3.653   2.925   7.209  0.9275  0.9166  1.0628
   64SAPC     P 5144   3.411   3.096   7.326 -0.4511 -0.3146 -0.4067
   64SAPC   O13 5145   3.290   3.014   7.320 -0.4939  0.7304 -0.7177
   64SAPC   O14 5146   3.409   3.205   7.425 -0.9673  0.3609  0.0170
   64SAPC   O12 5147   3.526   2.993   7.359  0.0723  0.1893 -0.5299
   64SAPC   O11 5148   3.449   3.145   7.184 -0.2681  0.3358  0.0928
   64SAPC    C1 5149   3.570   3.200   7.137  0.3297  0.0156 -0.4535
   64SAPC    HA 5150   3.559   3.307   7.163 -1.6039 -0.9420  3.5625
   64SAPC    HB 5151   3.657   3.152   7.188  0.0716 -0.2063 -0.2165
   64SAPC    C2 5152   3.596   3.201   6.981  0.7912 -0.3365 -0.5797
   64SAPC    HS 5153   3.674   3.273   6.951  0.4689  1.3888  2.3002
   64SAPC   O21 5154   3.478   3.216   6.912 -0.0740  0.2376  0.4578
   64SAPC   C21 5155   3.405   3.332   6.930 -0.2815  0.6151  0.1380
   64SAPC   O22 5156   3.446   3.423   7.002  0.2449 -0.4095  0.4092
   64SAPC   C22 5157   3.274   3.324   6.843 -1.0487  0.2435 -0.7457
   64SAPC   H2R 5158   3.267   3.232   6.781 -2.5458 -1.2989  1.5501
   64SAPC   H2S 5159   3.190   3.316   6.915  0.6666 -1.8705  1.1734
   64SAPC    C3 5160   3.657   3.058   6.944 -0.1130  0.2227 -0.8060
   64SAPC    HX 5161   3.573   2.990   6.970  0.5024 -0.2055  0.1197
   64SAPC    HY 5162   3.742   3.036   7.011 -0.9594 -0.0804  0.2068
   64SAPC   O31 5163   3.682   3.036   6.809  0.2105  0.7396 -0.2032
   64SAPC   C31 5164   3.796   3.084   6.765 -0.2320 -0.4763  0.2286
   64SAPC   O32 5165   3.871   3.155   6.826  0.1389 -0.0108 -0.1924
   64SAPC   C32 5166   3.812   3.032   6.618  0.1350  0.7339 -0.6967
   64SAPC   H2X 5167   3.812   2.921   6.629 -1.5734  0.7591 -0.2438
   64SAPC   H2Y 5168   3.913   3.063   6.583  1.3090 -2.7586 -0.8688
   64SAPC   C23 5169   3.275   3.446   6.750  0.0031  0.1167  0.2485
   64SAPC   H3R 5170   3.296   3.537   6.810 -0.1449 -1.2387  2.4491
   64SAPC   H3S 5171   3.176   3.447   6.701  0.9138 -1.1701 -1.7867
   64SAPC   C24 5172   3.371   3.431   6.630  0.7845 -0.2084 -0.7137
   64SAPC   H4R 5173   3.353   3.333   6.582 -0.5143 -0.0215 -0.6544
   64SAPC   H4S 5174   3.474   3.431   6.672  1.9452  0.7114 -3.3290
   64SAPC   C25 5175   3.354   3.545   6.538  0.2281 -0.9057  0.7577
   64SAPC   H5R 5176   3.358   3.642   6.590 -0.5752 -0.7997  0.6450
   64SAPC   C26 5177   3.339   3.546   6.403  0.2775  0.1504 -0.1867
   64SAPC   H6R 5178   3.307   3.642   6.361 -1.1116  0.1680  0.8173
   64SAPC   C27 5179   3.340   3.428   6.300  0.0336 -0.9429 -0.3671
   64SAPC   H7R 5180   3.276   3.451   6.213 -0.2063 -0.4735 -0.0671
   64SAPC   H7S 5181   3.307   3.335   6.351  2.7399 -1.6967  0.2216
   64SAPC   C28 5182   3.487   3.417   6.260  0.0115 -0.0242  0.6954
   64SAPC   H8R 5183   3.554   3.349   6.313  0.8488  0.8502  0.7742
   64SAPC   C29 5184   3.542   3.490   6.157  0.2026 -0.0241 -0.4683
   64SAPC   H9R 5185   3.649   3.473   6.139  0.3987 -0.6860  1.1147
   64SAPC  C210 5186   3.477   3.585   6.060  0.0905 -0.3047 -0.1417
   64SAPC  H10R 5187   3.438   3.682   6.100  0.4567  0.2654 -1.1401
   64SAPC  H10S 5188   3.388   3.542   6.009  0.6418  0.4007 -1.7686
   64SAPC  C211 5189   3.574   3.625   5.951  0.4779  0.4611 -0.6268
   64SAPC  H11R 5190   3.645   3.701   5.987  2.8517 -2.0358  0.4168
   64SAPC  C212 5191   3.586   3.578   5.825 -0.6028 -0.0586  0.9065
   64SAPC  H12R 5192   3.667   3.617   5.762 -0.8202 -0.8352  0.1185
   64SAPC  C213 5193   3.505   3.469   5.752  0.2426 -0.1843 -0.0199
   64SAPC  H13R 5194   3.457   3.411   5.834  0.2900  0.0495  0.1727
   64SAPC  H13S 5195   3.568   3.395   5.697 -1.5067 -1.7022 -0.0850
   64SAPC  C214 5196   3.399   3.534   5.668  0.5606 -0.1079  0.0936
   64SAPC  H14R 5197   3.341   3.612   5.721  2.0951  1.6433 -0.6712
   64SAPC  C215 5198   3.372   3.521   5.531  0.0007  0.1795  0.6001
   64SAPC  H15R 5199   3.291   3.566   5.472 -1.6071 -3.1805  0.0368
   64SAPC  C216 5200   3.452   3.426   5.443  0.0486  0.4758 -0.3586
   64SAPC  H16R 5201   3.413   3.326   5.472 -1.0575  0.9731 -0.0827
   64SAPC  H16S 5202   3.560   3.439   5.469  0.7095 -1.8586 -1.6007
   64SAPC  C217 5203   3.434   3.445   5.297  0.1684  0.0717 -0.4697
   64SAPC  H17R 5204   3.452   3.549   5.265 -0.3117  0.4257  0.3953
   64SAPC  H17S 5205   3.325   3.439   5.278  0.1778  0.0530 -0.5172
   64SAPC  C218 5206   3.523   3.345   5.217 -0.3036 -0.1695  0.2407
   64SAPC  H18R 5207   3.481   3.245   5.244 -0.4726 -0.5269 -1.2749
   64SAPC  H18S 5208   3.630   3.364   5.240 -0.6833  2.6837 -0.0788
   64SAPC  C219 5209   3.526   3.348   5.063 -0.1482  1.1161  0.6047
   64SAPC  H19R 5210   3.603   3.273   5.035 -0.6937 -1.0808  4.2695
   64SAPC  H19S 5211   3.553   3.450   5.030 -1.8889  0.6839 -2.4632
   64SAPC  C220 5212   3.392   3.311   4.994 -0.1712 -0.0037 -0.4224
   64SAPC  H20R 5213   3.403   3.306   4.884 -1.6551  0.3412 -0.6091
   64SAPC  H20S 5214   3.319   3.387   5.029 -0.2938  0.0641 -0.8266
   64SAPC  H20T 5215   3.348   3.211   5.019 -2.1718  0.1068 -3.1020
   64SAPC   C33 5216   3.686   3.063   6.537  0.1174  1.1346 -0.4026
   64SAPC   H3X 5217   3.667   3.173   6.534 -1.5146  0.8667 -2.5310
   64SAPC   H3Y 5218   3.599   3.007   6.578 -1.7680  2.0970 -2.8432
   64SAPC   C34 5219   3.712   3.026   6.387 -0.2459 -0.5660  0.5005
   64SAPC   H4X 5220   3.766   2.929   6.386  2.7457  0.9753  0.3601
   64SAPC   H4Y 5221   3.786   3.098   6.346 -1.0182  0.5122  0.9573
   64SAPC   C35 5222   3.596   3.031   6.282 -0.0604 -0.0434 -0.2142
   64SAPC   H5X 5223   3.636   3.028   6.179  0.9328 -0.6201  0.1767
   64SAPC   H5Y 5224   3.547   3.131   6.286 -2.1563 -1.0092 -0.1893
   64SAPC   C36 5225   3.485   2.926   6.302  0.1156 -0.3694 -0.4955
   64SAPC   H6X 5226   3.486   2.902   6.410  3.1317 -2.2348 -0.8276
   64SAPC   H6Y 5227   3.530   2.831   6.267  2.8237  0.4758  0.4672
   64SAPC   C37 5228   3.337   2.947   6.250  0.4512  0.5471 -0.0402
   64SAPC   H7X 5229   3.279   3.031   6.294 -0.6340 -0.8052  1.2158
   64SAPC   H7Y 5230   3.288   2.851   6.274  1.0381  0.2790  0.1134
   64SAPC   C38 5231   3.352   2.964   6.101 -0.2747  0.3868  0.8126
   64SAPC   H8X 5232   3.439   2.911   6.057  0.1622  0.6889  1.3043
   64SAPC   H8Y 5233   3.362   3.073   6.083 -3.3231  0.9715  1.9962
   64SAPC   C39 5234   3.219   2.916   6.036  0.1132 -0.2995  0.0879
   64SAPC   H9X 5235   3.139   2.968   6.094  0.5137 -0.2615  0.6115
   64SAPC   H9Y 5236   3.206   2.806   6.050  1.8688 -0.2528  3.0441
   64SAPC  C310 5237   3.198   2.950   5.883  0.0855  0.6602  0.0677
   64SAPC  H10X 5238   3.096   2.913   5.863  0.0366  0.3458  0.8494
   64SAPC  H10Y 5239   3.272   2.884   5.832  0.2993  1.0791 -0.1741
   64SAPC  C311 5240   3.221   3.104   5.861 -0.3632  0.7268 -0.2492
   64SAPC  H11X 5241   3.330   3.126   5.872  0.3503 -2.7927  1.2406
   64SAPC  H11Y 5242   3.159   3.157   5.936 -1.0266  0.5241 -0.6492
   64SAPC  C312 5243   3.163   3.148   5.732  0.0854  0.3371  0.4375
   64SAPC  H12X 5244   3.150   3.257   5.713  1.2280  0.4879  0.4619
   64SAPC  H12Y 5245   3.056   3.118   5.736  0.3757 -1.0997 -1.2607
   64SAPC  C313 5246   3.218   3.067   5.611 -0.1658 -0.7518 -0.8272
   64SAPC  H13X 5247   3.199   2.959   5.626 -4.3603  0.0581  1.1745
   64SAPC  H13Y 5248   3.324   3.092   5.591  0.3295  0.3801  2.4759
   64SAPC  C314 5249   3.114   3.094   5.501 -0.3370 -0.1439 -0.5882
   64SAPC  H14X 5250   3.114   3.201   5.473  2.3195  0.1595  0.3121
   64SAPC  H14Y 5251   3.015   3.057   5.535 -1.2144 -0.8692 -3.6368
   64SAPC  C315 5252   3.147   3.007   5.374  0.3254  0.3622 -0.5569
   64SAPC  H15X 5253   3.063   3.008   5.302  1.1079  0.0046 -1.5093
   64SAPC  H15Y 5254   3.165   2.904   5.413 -1.1072 -0.0677 -0.9796
   64SAPC  C316 5255   3.267   3.056   5.288 -0.3645  0.4389 -0.1456
   64SAPC  H16X 5256   3.352   3.041   5.358 -0.1875 -0.1432 -0.4775
   64SAPC  H16Y 5257   3.250   3.165   5.272  2.2852  1.1007  0.9338
   64SAPC  C317 5258   3.275   2.987   5.155 -0.5277 -0.1637  1.0331
   64SAPC  H17X 5259   3.354   3.026   5.086 -1.4888 -0.6813 -0.4014
   64SAPC  H17Y 5260   3.171   3.001   5.119  0.5115 -0.2348 -2.3342
   64SAPC  C318 5261   3.287   2.833   5.174 -0.1424 -0.7348  1.1886
   64SAPC  H18X 5262   3.355   2.807   5.258  1.8211 -0.7244 -0.3404
   64SAPC  H18Y 5263   3.330   2.780   5.086 -0.3393 -0.5548  0.9843
   64SAPC  H18Z 5264   3.181   2.803   5.192 -0.9873  1.7669  0.8030
   65SAPC     N 5265   3.940   4.325   2.755  0.3608  0.3887 -0.2694
   65SAPC   C12 5266   3.882   4.457   2.797 -0.3226  0.4063 -0.3211
   65SAPC  H12A 5267   3.780   4.470   2.763 -0.0369  0.3869 -1.2193
   65SAPC  H12B 5268   3.936   4.533   2.742  0.8378  0.0201  0.2579
   65SAPC   C13 5269   3.930   4.297   2.613  0.4017 -0.5928  0.6840
   65SAPC  H13A 5270   3.965   4.374   2.546 -3.5012  1.4633  0.7049
   65SAPC  H13B 5271   3.980   4.202   2.597 -2.2727 -2.5665  2.9764
   65SAPC  H13C 5272   3.826   4.286   2.586  0.8281  0.9566 -1.8675
   65SAPC   C14 5273   4.083   4.323   2.798  0.3076  0.3100  0.1427
   65SAPC  H14A 5274   4.130   4.238   2.752 -2.6133 -0.1221 -2.3942
   65SAPC  H14B 5275   4.135   4.411   2.763 -0.1631  0.2537 -0.7020
   65SAPC  H14C 5276   4.072   4.320   2.906  2.2407 -0.6126  0.3620
   65SAPC   C15 5277   3.863   4.214   2.835  0.2417  0.6467  0.6163
   65SAPC  H15A 5278   3.761   4.212   2.802  0.2720  0.2225  0.5447
   65SAPC  H15B 5279   3.896   4.113   2.814  4.3437  2.3796 -2.6146
   65SAPC  H15C 5280   3.874   4.225   2.942  0.8013  1.0741  0.5246
   65SAPC   C11 5281   3.890   4.488   2.951 -0.0403  0.4110 -0.2143
   65SAPC  H11A 5282   3.853   4.592   2.969  1.1012  0.5565  1.5776
   65SAPC  H11B 5283   3.998   4.488   2.977  0.1209 -0.9457 -0.8295
   65SAPC     P 5284   3.668   4.412   3.060 -0.4348  0.1230  0.5054
   65SAPC   O13 5285   3.605   4.461   2.935  0.5249  0.3452  0.0562
   65SAPC   O14 5286   3.623   4.284   3.114  0.0341 -0.1927 -0.0321
   65SAPC   O12 5287   3.823   4.400   3.037  0.2768  0.5971 -0.5131
   65SAPC   O11 5288   3.655   4.533   3.157 -0.0077  0.7827 -0.2938
   65SAPC    C1 5289   3.751   4.572   3.250  0.0131 -0.3871 -0.4878
   65SAPC    HA 5290   3.843   4.511   3.252 -0.0527 -0.7035  4.3365
   65SAPC    HB 5291   3.778   4.679   3.239 -2.0083  0.0875 -1.3399
   65SAPC    C2 5292   3.714   4.556   3.403  0.0788 -0.2698  0.1164
   65SAPC    HS 5293   3.811   4.554   3.457 -0.6881  0.3559  1.5846
   65SAPC   O21 5294   3.649   4.430   3.435 -0.5347 -0.5869  0.4244
   65SAPC   C21 5295   3.717   4.319   3.432 -0.3865 -0.3243  0.1344
   65SAPC   O22 5296   3.838   4.304   3.419  0.5714  0.3966  0.1134
   65SAPC   C22 5297   3.617   4.206   3.436  0.8037 -0.7923 -0.7925
   65SAPC   H2R 5298   3.577   4.193   3.333  1.5257 -1.4205 -1.0030
   65SAPC   H2S 5299   3.678   4.116   3.456  2.0055  0.1584 -0.0780
   65SAPC    C3 5300   3.630   4.675   3.454  0.5313 -0.4238 -0.1047
   65SAPC    HX 5301   3.529   4.690   3.411  1.3891  4.4639 -1.1078
   65SAPC    HY 5302   3.681   4.772   3.434  0.5925 -0.5675 -0.6645
   65SAPC   O31 5303   3.624   4.667   3.596 -0.1894  0.3499  0.1661
   65SAPC   C31 5304   3.511   4.612   3.645 -0.0050 -0.7723 -0.3393
   65SAPC   O32 5305   3.415   4.582   3.577 -0.3827 -0.4725 -0.3432
   65SAPC   C32 5306   3.520   4.617   3.798 -0.1981  0.0542  0.2771
   65SAPC   H2X 5307   3.540   4.724   3.821 -0.1997 -0.3214  2.1928
   65SAPC   H2Y 5308   3.607   4.562   3.837  1.4409  3.2433  1.4959
   65SAPC   C23 5309   3.512   4.208   3.554  0.0468  0.3706 -0.5772
   65SAPC   H3R 5310   3.429   4.146   3.516 -1.5504  0.0610  3.0409
   65SAPC   H3S 5311   3.466   4.309   3.566 -0.2125  0.4881 -2.3099
   65SAPC   C24 5312   3.563   4.172   3.691  1.0354 -0.0313 -0.4314
   65SAPC   H4R 5313   3.619   4.076   3.683 -0.0806 -1.0508  2.5792
   65SAPC   H4S 5314   3.472   4.158   3.754 -0.0255  2.1299 -1.3879
   65SAPC   C25 5315   3.664   4.271   3.750  0.1274 -0.4756 -0.4402
   65SAPC   H5R 5316   3.698   4.348   3.680 -2.8067  1.1683 -0.1968
   65SAPC   C26 5317   3.690   4.280   3.883  0.9158 -0.3840  0.4026
   65SAPC   H6R 5318   3.761   4.360   3.909 -0.7290  1.4569 -0.4265
   65SAPC   C27 5319   3.659   4.183   3.998  0.4416 -0.0264  0.2373
   65SAPC   H7R 5320   3.725   4.194   4.087  0.1947 -2.0384  0.7071
   65SAPC   H7S 5321   3.672   4.083   3.953  1.6801  0.2196  0.0008
   65SAPC   C28 5322   3.520   4.195   4.053  0.1271 -0.6701 -0.0651
   65SAPC   H8R 5323   3.454   4.220   3.969  0.9761 -0.0246 -0.5606
   65SAPC   C29 5324   3.478   4.160   4.178 -0.1573 -0.3191  0.0866
   65SAPC   H9R 5325   3.371   4.164   4.204  0.0162 -0.1528  0.8041
   65SAPC  C210 5326   3.566   4.119   4.296  0.3291 -0.1620 -0.1654
   65SAPC  H10R 5327   3.637   4.043   4.257  1.0025  1.6033 -2.7094
   65SAPC  H10S 5328   3.494   4.069   4.364  0.8816 -0.7005  0.0248
   65SAPC  C211 5329   3.627   4.234   4.366  0.6212 -0.5358  0.1046
   65SAPC  H11R 5330   3.656   4.322   4.307  2.4396 -1.6753 -0.7986
   65SAPC  C212 5331   3.649   4.254   4.498  0.3867  0.2539  0.7568
   65SAPC  H12R 5332   3.698   4.350   4.525  1.5814  0.1579 -0.8820
   65SAPC  C213 5333   3.622   4.147   4.607 -0.6857 -0.4098 -0.0103
   65SAPC  H13R 5334   3.704   4.074   4.621 -0.5714 -0.5691 -1.4346
   65SAPC  H13S 5335   3.538   4.084   4.571 -0.0781 -1.7814  0.8715
   65SAPC  C214 5336   3.583   4.214   4.738  0.0253  0.1765 -0.3633
   65SAPC  H14R 5337   3.475   4.216   4.758 -0.1751 -0.8420 -1.2405
   65SAPC  C215 5338   3.662   4.278   4.826 -0.0124 -0.2728 -0.1677
   65SAPC  H15R 5339   3.619   4.330   4.913 -2.0047 -0.4278 -1.0145
   65SAPC  C216 5340   3.809   4.302   4.811  0.4526  0.5779  0.9592
   65SAPC  H16R 5341   3.828   4.411   4.815  2.7104  0.3956 -1.7858
   65SAPC  H16S 5342   3.851   4.264   4.716 -0.2863 -0.0586  0.8719
   65SAPC  C217 5343   3.888   4.229   4.923  0.0725 -0.6449  0.0671
   65SAPC  H17R 5344   3.845   4.243   5.024 -1.1441 -3.2088 -0.0307
   65SAPC  H17S 5345   3.986   4.281   4.933 -0.5718  0.7346 -0.5327
   65SAPC  C218 5346   3.911   4.080   4.890  0.1381  0.1610  0.1563
   65SAPC  H18R 5347   3.940   4.067   4.783 -2.8801  1.5737 -0.9192
   65SAPC  H18S 5348   3.813   4.031   4.903  0.9377 -1.6845 -0.3772
   65SAPC  C219 5349   4.003   4.016   4.995  0.0398  0.1306 -1.1213
   65SAPC  H19R 5350   4.004   3.907   4.978 -0.4518  0.0538 -0.6690
   65SAPC  H19S 5351   3.968   4.052   5.094 -0.3555  0.9023 -1.5263
   65SAPC  C220 5352   4.149   4.058   4.969 -0.3158  0.1577 -0.2169
   65SAPC  H20R 5353   4.166   4.166   4.955  2.3470 -0.2838 -0.8432
   65SAPC  H20S 5354   4.184   3.997   4.883  1.2791  0.1773  0.4017
   65SAPC  H20T 5355   4.198   4.033   5.065 -0.4862  2.9563  0.6869
   65SAPC   C33 5356   3.402   4.557   3.879  0.0439 -0.4405 -0.1322
   65SAPC   H3X 5357   3.390   4.451   3.846  2.3433 -0.7955 -0.0254
   65SAPC   H3Y 5358   3.312   4.616   3.852  1.6380  2.5506  0.6542
   65SAPC   C34 5359   3.412   4.570   4.032 -0.5315 -0.6207  0.1398
   65SAPC   H4X 5360   3.407   4.679   4.053 -1.4990 -0.0593 -2.5833
   65SAPC   H4Y 5361   3.517   4.542   4.052  0.3870  1.5702 -1.2598
   65SAPC   C35 5362   3.303   4.491   4.114 -0.1503  0.2273 -0.1056
   65SAPC   H5X 5363   3.305   4.389   4.069 -2.3591 -1.4982  3.2522
   65SAPC   H5Y 5364   3.201   4.533   4.107 -0.6791 -0.8819  0.6997
   65SAPC   C36 5365   3.351   4.470   4.257 -0.1977 -0.6930  0.2863
   65SAPC   H6X 5366   3.461   4.458   4.245 -0.1394  1.8060 -2.7403
   65SAPC   H6Y 5367   3.306   4.388   4.317 -0.7363 -1.3666 -1.0171
   65SAPC   C37 5368   3.326   4.597   4.345 -0.4919  0.1200  0.0836
   65SAPC   H7X 5369   3.223   4.638   4.335 -0.3638  0.0696 -1.6159
   65SAPC   H7Y 5370   3.379   4.686   4.304  0.0132  0.0566  0.5837
   65SAPC   C38 5371   3.369   4.570   4.496  0.1756 -0.2197  0.6549
   65SAPC   H8X 5372   3.475   4.536   4.492  0.0809 -0.4593 -0.0105
   65SAPC   H8Y 5373   3.321   4.474   4.524 -0.2435 -0.1498  0.2084
   65SAPC   C39 5374   3.348   4.691   4.581 -0.0271  0.4197 -0.2313
   65SAPC   H9X 5375   3.246   4.732   4.565 -0.1268  0.6150  0.8409
   65SAPC   H9Y 5376   3.429   4.761   4.551  1.3600 -1.8176 -2.1328
   65SAPC  C310 5377   3.347   4.672   4.727  0.3432  0.5363  0.7262
   65SAPC  H10X 5378   3.452   4.646   4.752  0.0610 -1.3366  0.1466
   65SAPC  H10Y 5379   3.269   4.597   4.752  1.3374 -1.0397 -0.6028
   65SAPC  C311 5380   3.314   4.800   4.797  0.3391  0.0034 -0.2588
   65SAPC  H11X 5381   3.206   4.821   4.786  0.3554 -0.6745 -2.0080
   65SAPC  H11Y 5382   3.385   4.868   4.746  1.1542 -0.0617  0.7567
   65SAPC  C312 5383   3.327   4.797   4.953 -0.3008 -0.1350 -0.4733
   65SAPC  H12X 5384   3.222   4.784   4.987 -0.1335  0.7911  0.4508
   65SAPC  H12Y 5385   3.369   4.895   4.986  3.6411 -1.4954 -0.9253
   65SAPC  C313 5386   3.419   4.690   5.019 -0.7856 -0.4073 -0.1554
   65SAPC  H13X 5387   3.525   4.705   4.986 -0.1239 -3.4371  0.3160
   65SAPC  H13Y 5388   3.396   4.592   4.973  0.7838 -0.3381 -1.1669
   65SAPC  C314 5389   3.409   4.692   5.176  0.1006 -0.6657  0.2086
   65SAPC  H14X 5390   3.446   4.594   5.212  0.2327 -0.6415  0.1390
   65SAPC  H14Y 5391   3.304   4.713   5.206  0.7901  1.7390  1.1780
   65SAPC  C315 5392   3.482   4.798   5.256  0.4816  0.2937 -0.2086
   65SAPC  H15X 5393   3.438   4.897   5.232 -0.5089  0.3983  1.8081
   65SAPC  H15Y 5394   3.591   4.795   5.235  0.6498  2.1195  0.2056
   65SAPC  C316 5395   3.451   4.792   5.412  0.3579 -0.0143 -0.0892
   65SAPC  H16X 5396   3.493   4.693   5.440  1.3181  0.1968 -0.7489
   65SAPC  H16Y 5397   3.340   4.796   5.425 -0.0773 -1.3592 -2.6568
   65SAPC  C317 5398   3.516   4.905   5.483  0.0446 -0.1941 -0.3929
   65SAPC  H17X 5399   3.468   5.002   5.458 -0.9092 -0.4847  0.2797
   65SAPC  H17Y 5400   3.620   4.910   5.443 -0.0300 -1.2458 -0.7496
   65SAPC  C318 5401   3.523   4.884   5.633 -0.2829 -0.1117 -1.0810
   65SAPC  H18X 5402   3.435   4.830   5.674  0.6742 -0.5176  0.5028
   65SAPC  H18Y 5403   3.543   4.981   5.683  0.1040 -0.6053 -0.2598
   65SAPC  H18Z 5404   3.611   4.821   5.658 -0.8657 -0.1431  1.0745
   66SAPC     N 5405   5.755   6.798   2.814  0.0981  0.3626  0.1668
   66SAPC   C12 5406   5.875   6.801   2.908  0.2477 -0.5234  0.4655
   66SAPC  H12A 5407   5.926   6.896   2.902 -0.1976 -0.1568  2.0480
   66SAPC  H12B 5408   5.937   6.714   2.893 -0.0567 -0.6249 -0.2321
   66SAPC   C13 5409   5.664   6.914   2.850 -0.3054 -0.0941  0.3802
   66SAPC  H13A 5410   5.704   7.008   2.818 -0.9573  0.2813  0.6406
   66SAPC  H13B 5411   5.563   6.911   2.811 -1.1116 -1.8443  2.3878
   66SAPC  H13C 5412   5.649   6.924   2.957  1.6869  0.4549  0.6384
   66SAPC   C14 5413   5.795   6.810   2.671  0.3054  0.4235  0.0030
   66SAPC  H14A 5414   5.842   6.721   2.634  0.5564  0.2510  0.7246
   66SAPC  H14B 5415   5.707   6.834   2.614 -1.1946 -0.9168  1.6182
   66SAPC  H14C 5416   5.866   6.891   2.657  2.2316 -1.1363  0.2751
   66SAPC   C15 5417   5.681   6.665   2.838 -0.3382 -0.4210  0.0923
   66SAPC  H15A 5418   5.741   6.585   2.797 -0.0669  0.2441 -0.8769
   66SAPC  H15B 5419   5.649   6.661   2.941 -0.5247  1.2540  0.1272
   66SAPC  H15C 5420   5.587   6.671   2.785 -2.3766  0.4008  3.5430
   66SAPC   C11 5421   5.855   6.808   3.067  0.6957  1.1251  0.0020
   66SAPC  H11A 5422   5.779   6.886   3.090  0.5470  0.9498  0.1094
   66SAPC  H11B 5423   5.952   6.854   3.096  1.9904 -0.0671 -2.1958
   66SAPC     P 5424   5.938   6.581   3.149 -0.2759 -0.2720  0.2845
   66SAPC   O13 5425   5.885   6.444   3.180  0.1433 -0.0898 -0.4359
   66SAPC   O14 5426   6.026   6.582   3.033 -0.4191 -0.5066  0.3230
   66SAPC   O12 5427   5.817   6.684   3.129 -0.1589  0.0976  0.2137
   66SAPC   O11 5428   6.023   6.631   3.275  0.2480 -0.7174 -0.5268
   66SAPC    C1 5429   5.981   6.659   3.406  0.8502  0.6197 -0.5887
   66SAPC    HA 5430   5.870   6.667   3.418  1.1593  0.6791  4.5541
   66SAPC    HB 5431   6.007   6.575   3.474 -2.7149 -2.5865 -2.7771
   66SAPC    C2 5432   6.027   6.799   3.456  0.1920 -0.5666  0.1848
   66SAPC    HS 5433   6.035   6.806   3.567 -1.5475  1.6045  0.2571
   66SAPC   O21 5434   5.938   6.898   3.408  0.5229  0.0171  0.7284
   66SAPC   C21 5435   5.846   6.949   3.484 -0.1169 -0.4793 -0.4840
   66SAPC   O22 5436   5.837   6.926   3.603 -0.3452 -0.0244  0.1317
   66SAPC   C22 5437   5.758   7.041   3.398  1.1766  0.1407  0.1019
   66SAPC   H2R 5438   5.818   7.131   3.372 -0.9364  1.3876 -0.8203
   66SAPC   H2S 5439   5.732   6.994   3.301 -1.7635  0.9161  0.4105
   66SAPC    C3 5440   6.160   6.838   3.404  0.6219 -0.4658 -0.5897
   66SAPC    HX 5441   6.194   6.942   3.422 -0.6676 -0.1310  0.0149
   66SAPC    HY 5442   6.151   6.836   3.293 -0.4718  1.0739 -0.5650
   66SAPC   O31 5443   6.270   6.742   3.430  0.7001 -0.4523  0.0647
   66SAPC   C31 5444   6.326   6.757   3.549  0.6200 -0.2705 -0.8095
   66SAPC   O32 5445   6.291   6.835   3.639  0.0068  0.3826  0.1346
   66SAPC   C32 5446   6.455   6.666   3.541 -0.1013  0.2314 -0.2877
   66SAPC   H2X 5447   6.545   6.722   3.508  0.6296 -0.2504  0.8402
   66SAPC   H2Y 5448   6.431   6.586   3.468  0.0180 -0.7417  0.7232
   66SAPC   C23 5449   5.624   7.088   3.471 -1.1710  0.6728  0.3701
   66SAPC   H3R 5450   5.582   7.007   3.534  1.9490 -0.1504  1.6234
   66SAPC   H3S 5451   5.545   7.120   3.401 -0.5342  1.2165 -0.1096
   66SAPC   C24 5452   5.654   7.215   3.563  0.0326 -0.2337 -0.3910
   66SAPC   H4R 5453   5.713   7.288   3.504  1.7141 -3.4369 -3.0205
   66SAPC   H4S 5454   5.726   7.181   3.641 -0.6053  0.0300  0.3169
   66SAPC   C25 5455   5.529   7.269   3.624  0.5353 -0.0270 -0.4170
   66SAPC   H5R 5456   5.447   7.285   3.553 -1.3828 -0.3793  1.5897
   66SAPC   C26 5457   5.507   7.270   3.757  0.6296 -0.1660  0.5959
   66SAPC   H6R 5458   5.418   7.313   3.804  0.3917  1.4992 -1.2770
   66SAPC   C27 5459   5.605   7.226   3.871  0.0615 -0.2444  0.5067
   66SAPC   H7R 5460   5.585   7.307   3.945  0.4591  0.4224 -0.0910
   66SAPC   H7S 5461   5.715   7.238   3.856  0.0854 -0.0325  0.8318
   66SAPC   C28 5462   5.590   7.081   3.915  0.0255 -0.2184  0.2855
   66SAPC   H8R 5463   5.556   7.022   3.829  0.6643  0.9234 -0.7879
   66SAPC   C29 5464   5.596   7.033   4.035 -0.2721  0.3664 -0.3929
   66SAPC   H9R 5465   5.559   6.933   4.061 -1.8571  1.3227  1.2055
   66SAPC  C210 5466   5.646   7.108   4.155 -0.2112 -0.8421 -0.4315
   66SAPC  H10R 5467   5.675   7.213   4.136 -0.4262 -0.8219 -0.6467
   66SAPC  H10S 5468   5.739   7.055   4.187 -0.1947  0.7425  2.4223
   66SAPC  C211 5469   5.537   7.114   4.263  0.4311 -0.3826  1.0242
   66SAPC  H11R 5470   5.450   7.170   4.224  0.0606  0.4380  2.9107
   66SAPC  C212 5471   5.533   7.105   4.395  0.8180  0.2595 -0.6800
   66SAPC  H12R 5472   5.446   7.151   4.444  1.7534  0.9604  0.3886
   66SAPC  C213 5473   5.652   7.074   4.486  0.3559  0.4014  0.1955
   66SAPC  H13R 5474   5.743   7.042   4.430 -0.0479 -1.5779  0.5722
   66SAPC  H13S 5475   5.610   6.985   4.538  0.5717 -0.4794 -1.0936
   66SAPC  C214 5476   5.703   7.181   4.580 -0.0463  0.3335 -0.4842
   66SAPC  H14R 5477   5.790   7.242   4.550  0.5608  0.2097  0.9248
   66SAPC  C215 5478   5.654   7.208   4.698  0.3639 -0.3046 -0.0524
   66SAPC  H15R 5479   5.701   7.284   4.763  2.7908 -0.5643 -1.3936
   66SAPC  C216 5480   5.534   7.147   4.769  0.2319  0.1156  0.1905
   66SAPC  H16R 5481   5.519   7.044   4.731  1.3790  0.8921 -2.6153
   66SAPC  H16S 5482   5.440   7.206   4.759  0.5301  0.8699  1.5577
   66SAPC  C217 5483   5.568   7.117   4.914  0.0757  0.4077 -0.0875
   66SAPC  H17R 5484   5.660   7.055   4.924 -0.2738  0.0435  0.9247
   66SAPC  H17S 5485   5.492   7.044   4.949  1.3945 -0.4735  0.9971
   66SAPC  C218 5486   5.586   7.237   5.003  0.1211 -0.7235  0.1605
   66SAPC  H18R 5487   5.492   7.292   5.024  0.5091  0.3717 -0.8561
   66SAPC  H18S 5488   5.657   7.316   4.970 -0.3732 -0.1441  0.4838
   66SAPC  C219 5489   5.638   7.189   5.140  0.0518 -0.6826 -0.5033
   66SAPC  H19R 5490   5.650   7.281   5.201  0.3030 -1.9612  1.4755
   66SAPC  H19S 5491   5.739   7.144   5.129 -0.1946 -0.9836 -1.6721
   66SAPC  C220 5492   5.553   7.094   5.224 -0.6757  0.8259  0.7483
   66SAPC  H20R 5493   5.545   6.992   5.179 -0.0804  1.2168 -0.2921
   66SAPC  H20S 5494   5.456   7.142   5.246 -0.3601  2.0737 -0.4809
   66SAPC  H20T 5495   5.617   7.077   5.314  1.8361 -0.1493 -1.0875
   66SAPC   C33 5496   6.489   6.616   3.683  0.4431 -0.5245  0.7720
   66SAPC   H3X 5497   6.551   6.525   3.672 -0.6762 -1.5250  2.3707
   66SAPC   H3Y 5498   6.395   6.590   3.735  0.4492  1.5047  1.8996
   66SAPC   C34 5499   6.568   6.716   3.765 -0.2508 -0.5719  0.4436
   66SAPC   H4X 5500   6.510   6.811   3.772  1.4007  0.3480  3.5246
   66SAPC   H4Y 5501   6.668   6.734   3.718 -1.4530 -0.0564 -2.1254
   66SAPC   C35 5502   6.582   6.660   3.906 -0.3919  0.0803 -0.4665
   66SAPC   H5X 5503   6.659   6.580   3.909  0.6562  1.0953  0.6138
   66SAPC   H5Y 5504   6.484   6.623   3.945  0.1882 -2.1673 -1.0128
   66SAPC   C36 5505   6.619   6.768   4.012  0.0820 -0.3311  0.0443
   66SAPC   H6X 5506   6.530   6.835   4.010 -0.4751 -0.9791 -3.2131
   66SAPC   H6Y 5507   6.713   6.823   3.986 -0.0276 -0.0998  0.1383
   66SAPC   C37 5508   6.632   6.704   4.143 -0.2972 -0.1047  0.1811
   66SAPC   H7X 5509   6.740   6.675   4.146  0.0731  1.2762  2.4395
   66SAPC   H7Y 5510   6.560   6.619   4.139  0.4897 -0.7584 -1.6937
   66SAPC   C38 5511   6.607   6.806   4.252  0.3873  0.5155  0.1556
   66SAPC   H8X 5512   6.519   6.865   4.218  1.3813  1.4272 -0.9532
   66SAPC   H8Y 5513   6.692   6.877   4.246 -0.8845  2.1055  0.4471
   66SAPC   C39 5514   6.607   6.746   4.393 -0.6677  0.0475 -0.1323
   66SAPC   H9X 5515   6.696   6.682   4.408 -1.0377 -0.3602  0.3698
   66SAPC   H9Y 5516   6.513   6.688   4.400 -1.1989  1.0571  2.5674
   66SAPC  C310 5517   6.596   6.842   4.510 -0.1090 -0.1123 -0.0185
   66SAPC  H10X 5518   6.493   6.881   4.502  0.8075  2.0587 -3.3352
   66SAPC  H10Y 5519   6.672   6.923   4.501 -0.3378  0.5330  2.8293
   66SAPC  C311 5520   6.637   6.766   4.641  0.3200 -0.2082 -0.2149
   66SAPC  H11X 5521   6.715   6.693   4.612 -0.2519 -1.1947  0.6847
   66SAPC  H11Y 5522   6.542   6.721   4.676  0.8140 -2.1781 -1.2702
   66SAPC  C312 5523   6.705   6.864   4.738 -0.3743  0.2052 -1.5796
   66SAPC  H12X 5524   6.634   6.948   4.751 -2.0041 -1.3238 -0.1011
   66SAPC  H12Y 5525   6.798   6.912   4.700 -0.0397  0.0544 -0.9591
   66SAPC  C313 5526   6.724   6.790   4.875  0.1163 -0.7186 -0.0058
   66SAPC  H13X 5527   6.799   6.709   4.862  1.9367  0.7813  0.7654
   66SAPC  H13Y 5528   6.627   6.742   4.901 -0.9215  1.2125 -0.1397
   66SAPC  C314 5529   6.780   6.883   4.988 -0.2890 -0.1494 -0.3414
   66SAPC  H14X 5530   6.693   6.939   5.029 -0.0152  0.3841 -0.4779
   66SAPC  H14Y 5531   6.860   6.952   4.954  1.0332 -0.7053  1.4715
   66SAPC  C315 5532   6.826   6.797   5.110  0.2979 -0.7025 -0.6142
   66SAPC  H15X 5533   6.911   6.733   5.077  0.4938 -1.2509  0.8778
   66SAPC  H15Y 5534   6.740   6.734   5.141 -0.6698  0.5999 -0.5565
   66SAPC  C316 5535   6.854   6.888   5.231 -0.1806  0.2693  0.0518
   66SAPC  H16X 5536   6.767   6.930   5.285  1.1061  0.1422  2.3945
   66SAPC  H16Y 5537   6.910   6.975   5.191  2.1879 -1.5858 -0.9624
   66SAPC  C317 5538   6.932   6.812   5.344  0.0699 -0.3446 -0.1281
   66SAPC  H17X 5539   6.873   6.720   5.369  0.8955 -0.5703  1.0678
   66SAPC  H17Y 5540   6.932   6.881   5.431  2.1650 -0.0717 -0.2923
   66SAPC  C318 5541   7.077   6.777   5.315  0.0168 -0.4316 -0.2099
   66SAPC  H18X 5542   7.132   6.731   5.400  1.4136  0.2392 -0.7285
   66SAPC  H18Y 5543   7.136   6.867   5.289 -1.2138  0.8533  1.1703
   66SAPC  H18Z 5544   7.091   6.696   5.240 -0.5488 -0.2972 -0.4704
   67SAPC     N 5545   3.831   2.912   2.559  0.2596 -0.8272 -0.4286
   67SAPC   C12 5546   3.953   2.995   2.595  0.1346 -0.3924 -0.4391
   67SAPC  H12A 5547   3.936   3.089   2.546 -1.0293 -0.8461 -0.9263
   67SAPC  H12B 5548   4.042   2.953   2.549 -0.5138 -1.1865 -1.0025
   67SAPC   C13 5549   3.702   2.980   2.594 -0.0746 -0.1366 -0.8075
   67SAPC  H13A 5550   3.616   2.916   2.579 -0.3303  0.0678 -0.2546
   67SAPC  H13B 5551   3.696   3.013   2.697 -2.2962  0.9792 -1.2310
   67SAPC  H13C 5552   3.685   3.071   2.538  2.0202  0.1145 -1.1252
   67SAPC   C14 5553   3.831   2.890   2.411  0.3443 -0.4375 -0.4768
   67SAPC  H14A 5554   3.739   2.850   2.371  1.5285 -2.2682 -1.5137
   67SAPC  H14B 5555   3.852   2.984   2.361  1.0552 -0.6033 -0.4927
   67SAPC  H14C 5556   3.907   2.816   2.391  1.3362  0.2795  0.5672
   67SAPC   C15 5557   3.839   2.780   2.631  0.0571  0.3362 -0.4564
   67SAPC  H15A 5558   3.842   2.797   2.737 -0.3653 -1.6354 -0.0868
   67SAPC  H15B 5559   3.754   2.716   2.612  0.1294 -0.1801  0.8376
   67SAPC  H15C 5560   3.934   2.737   2.603  0.6639  2.7575 -2.4498
   67SAPC   C11 5561   3.991   3.015   2.748  0.1062 -0.5128 -0.6550
   67SAPC  H11A 5562   4.070   3.093   2.753 -0.9999  0.6644 -0.9527
   67SAPC  H11B 5563   4.039   2.926   2.793  2.9005  2.0388  1.9327
   67SAPC     P 5564   3.858   3.178   2.893  0.3159  0.2190  0.1350
   67SAPC   O13 5565   3.939   3.281   2.826  0.0016  0.3897 -0.0774
   67SAPC   O14 5566   3.711   3.198   2.906  0.0703  0.0540  0.3641
   67SAPC   O12 5567   3.881   3.037   2.832  0.3540 -0.5060 -0.5101
   67SAPC   O11 5568   3.920   3.164   3.040  0.8314  0.3344  0.1626
   67SAPC    C1 5569   3.929   3.038   3.105 -0.1434  0.7992 -0.3648
   67SAPC    HA 5570   3.831   2.987   3.116  0.9596 -1.1671  1.1171
   67SAPC    HB 5571   4.000   2.971   3.052  1.9047  2.2086  0.4644
   67SAPC    C2 5572   3.982   3.056   3.255 -0.3837  0.2534 -0.1860
   67SAPC    HS 5573   3.959   2.963   3.312 -3.7182  1.3122  0.4080
   67SAPC   O21 5574   3.916   3.162   3.325 -0.0134  0.1118  0.0998
   67SAPC   C21 5575   3.868   3.130   3.442  0.2581  0.8344 -0.0513
   67SAPC   O22 5576   3.862   3.022   3.496  0.3574  0.2563 -0.6788
   67SAPC   C22 5577   3.825   3.257   3.516  0.2836 -0.0377  0.2475
   67SAPC   H2R 5578   3.796   3.327   3.435 -4.1084 -2.3128 -0.4600
   67SAPC   H2S 5579   3.738   3.239   3.584 -0.6060  4.3826  0.6181
   67SAPC    C3 5580   4.132   3.081   3.260  0.6370  0.0499 -0.4400
   67SAPC    HX 5581   4.167   3.162   3.193 -0.3737  1.1224  0.2887
   67SAPC    HY 5582   4.173   2.986   3.221  0.5172 -1.2638  2.3980
   67SAPC   O31 5583   4.183   3.115   3.395  0.9375 -0.0663  1.2054
   67SAPC   C31 5584   4.210   3.008   3.471  0.1907 -0.6416 -0.4725
   67SAPC   O32 5585   4.183   2.894   3.438  0.2594 -0.3383  0.4241
   67SAPC   C32 5586   4.271   3.043   3.606  0.3332  0.0733 -0.2865
   67SAPC   H2X 5587   4.298   3.151   3.605 -0.6650  0.3283 -0.8446
   67SAPC   H2Y 5588   4.370   2.997   3.628 -0.1803 -0.2725  1.4570
   67SAPC   C23 5589   3.940   3.312   3.585 -0.1465  0.2858 -0.1037
   67SAPC   H3R 5590   4.019   3.359   3.523  2.1731 -0.0773  2.3972
   67SAPC   H3S 5591   3.979   3.236   3.656 -0.1745  1.8543  1.6832
   67SAPC   C24 5592   3.904   3.419   3.688 -0.2583 -0.5671  0.4030
   67SAPC   H4R 5593   3.994   3.428   3.753 -1.2948  1.4181  1.6622
   67SAPC   H4S 5594   3.817   3.383   3.745 -0.4938  1.3414  1.3209
   67SAPC   C25 5595   3.888   3.559   3.633  0.9507 -0.2189  0.2332
   67SAPC   H5R 5596   3.966   3.585   3.559 -0.1684  1.2671 -0.4657
   67SAPC   C26 5597   3.793   3.650   3.674  0.2026  0.1592  0.4202
   67SAPC   H6R 5598   3.787   3.744   3.617  0.4310  0.2623  0.5599
   67SAPC   C27 5599   3.678   3.631   3.774 -0.0137  0.1106 -0.0019
   67SAPC   H7R 5600   3.719   3.555   3.845 -0.9882 -1.3217 -0.9296
   67SAPC   H7S 5601   3.591   3.590   3.719  1.5015 -3.9424  0.3049
   67SAPC   C28 5602   3.637   3.759   3.844 -0.2942  0.5029 -0.4007
   67SAPC   H8R 5603   3.630   3.854   3.788 -0.6923  0.3621 -0.5955
   67SAPC   C29 5604   3.598   3.764   3.976 -0.0891  0.2644 -0.4218
   67SAPC   H9R 5605   3.570   3.861   4.020  1.0260  0.4730 -0.1262
   67SAPC  C210 5606   3.586   3.649   4.074  0.2225  0.5004  0.5206
   67SAPC  H10R 5607   3.669   3.576   4.065 -0.3699 -0.2399  0.9574
   67SAPC  H10S 5608   3.500   3.581   4.054  0.0992  0.5664  0.8155
   67SAPC  C211 5609   3.587   3.691   4.218 -0.1914  0.9123  0.1921
   67SAPC  H11R 5610   3.680   3.727   4.265 -0.9766  1.8731  1.0638
   67SAPC  C212 5611   3.472   3.716   4.293  0.5441  0.1790 -1.0244
   67SAPC  H12R 5612   3.481   3.745   4.399  1.3581 -1.2940 -0.6667
   67SAPC  C213 5613   3.332   3.685   4.251 -0.8014 -0.7091  0.4337
   67SAPC  H13R 5614   3.323   3.575   4.259 -0.9978 -0.6278  1.4287
   67SAPC  H13S 5615   3.327   3.707   4.142  2.9215  0.0193  0.2549
   67SAPC  C214 5616   3.212   3.737   4.317  0.2547 -0.0538  0.2449
   67SAPC  H14R 5617   3.149   3.792   4.246  0.4375 -0.7997 -0.5165
   67SAPC  C215 5618   3.177   3.740   4.446  0.0046  0.1299 -0.3743
   67SAPC  H15R 5619   3.077   3.776   4.477  0.6475 -0.5668  2.7830
   67SAPC  C216 5620   3.258   3.679   4.561 -0.0738 -0.6592 -1.3502
   67SAPC  H16R 5621   3.343   3.614   4.534  1.5242  0.7934 -0.0529
   67SAPC  H16S 5622   3.196   3.619   4.631  2.1677 -2.7040 -1.0286
   67SAPC  C217 5623   3.324   3.782   4.654 -0.0607 -0.2933 -0.0447
   67SAPC  H17R 5624   3.245   3.857   4.675 -0.2502 -0.1848 -1.0883
   67SAPC  H17S 5625   3.401   3.839   4.597  1.5084 -1.6820  0.6177
   67SAPC  C218 5626   3.376   3.731   4.786 -0.8942  0.8674  0.4243
   67SAPC  H18R 5627   3.446   3.647   4.767 -0.7030  1.4767 -1.8581
   67SAPC  H18S 5628   3.291   3.685   4.840 -0.5114 -2.9294 -1.8553
   67SAPC  C219 5629   3.445   3.839   4.869  0.0784 -0.0624 -0.0655
   67SAPC  H19R 5630   3.370   3.922   4.878  1.6472  1.3770  0.2128
   67SAPC  H19S 5631   3.541   3.878   4.829 -0.4004 -0.5717 -1.7941
   67SAPC  C220 5632   3.465   3.785   5.013  0.3949  0.2442 -0.0930
   67SAPC  H20R 5633   3.368   3.746   5.051  0.3541 -0.1978 -0.6228
   67SAPC  H20S 5634   3.495   3.857   5.092 -0.4303  0.0497  0.4018
   67SAPC  H20T 5635   3.537   3.700   5.010  0.0274 -0.1070  0.7717
   67SAPC   C33 5636   4.178   3.001   3.720 -0.8681 -0.1347  0.2038
   67SAPC   H3X 5637   4.203   2.895   3.742  0.5101  0.4410  1.6186
   67SAPC   H3Y 5638   4.070   3.015   3.696 -0.7681 -0.3644 -0.3964
   67SAPC   C34 5639   4.208   3.083   3.853  0.1033  0.5376 -0.1821
   67SAPC   H4X 5640   4.200   3.193   3.836  1.2755  0.5795 -0.5572
   67SAPC   H4Y 5641   4.313   3.056   3.878 -0.0751 -0.5724 -0.5821
   67SAPC   C35 5642   4.117   3.029   3.965 -0.0849 -0.0291  0.5371
   67SAPC   H5X 5643   4.129   2.918   3.970  1.9012  0.1050 -0.1962
   67SAPC   H5Y 5644   4.017   3.061   3.928 -0.1008  0.9309  1.3700
   67SAPC   C36 5645   4.152   3.083   4.099 -1.3832 -0.4507  0.6880
   67SAPC   H6X 5646   4.100   3.180   4.110  0.7928  1.2316 -2.2371
   67SAPC   H6Y 5647   4.261   3.105   4.101 -1.3137 -0.2634 -1.7615
   67SAPC   C37 5648   4.111   2.997   4.212 -0.1112 -0.1082  0.0511
   67SAPC   H7X 5649   4.152   2.894   4.202 -0.0071 -0.1504  0.9072
   67SAPC   H7Y 5650   4.001   2.982   4.220 -0.1152  0.4531  1.1243
   67SAPC   C38 5651   4.147   3.037   4.355  0.4640  0.3078 -0.1160
   67SAPC   H8X 5652   4.103   3.136   4.379 -0.5236  0.0147 -0.6648
   67SAPC   H8Y 5653   4.258   3.049   4.353  1.0564 -3.7178  0.4648
   67SAPC   C39 5654   4.101   2.930   4.465 -0.4328 -0.1761 -0.2164
   67SAPC   H9X 5655   4.137   2.825   4.450  0.4160 -0.0740  0.9563
   67SAPC   H9Y 5656   3.990   2.933   4.465 -0.4400 -0.4071 -0.2290
   67SAPC  C310 5657   4.158   2.981   4.596  0.1621 -0.2909  0.6524
   67SAPC  H10X 5658   4.123   3.085   4.615 -1.5647 -0.2879 -1.9313
   67SAPC  H10Y 5659   4.269   2.988   4.590  0.1464  3.2917  2.3436
   67SAPC  C311 5660   4.123   2.889   4.713 -0.6500 -0.2477  0.9320
   67SAPC  H11X 5661   4.137   2.786   4.675  0.8201  0.6028 -1.0537
   67SAPC  H11Y 5662   4.014   2.896   4.733 -1.2852 -1.0895 -1.7369
   67SAPC  C312 5663   4.195   2.934   4.843  0.3297 -0.4233  0.1336
   67SAPC  H12X 5664   4.184   3.044   4.845 -1.0147 -0.5466  1.0766
   67SAPC  H12Y 5665   4.303   2.912   4.829  0.9176  2.4061 -0.2074
   67SAPC  C313 5666   4.145   2.870   4.973  0.8718 -0.0315 -0.2584
   67SAPC  H13X 5667   4.226   2.877   5.049  1.6345 -1.1409 -0.9351
   67SAPC  H13Y 5668   4.126   2.765   4.941 -0.0629  0.4898 -1.5221
   67SAPC  C314 5669   4.021   2.927   5.034 -0.4107 -0.4664  0.3934
   67SAPC  H14X 5670   3.932   2.906   4.970 -1.7662  3.6381  0.6732
   67SAPC  H14Y 5671   4.042   3.035   5.043  1.0928 -0.4802 -2.0819
   67SAPC  C315 5672   4.004   2.874   5.180 -0.0330 -0.7008  0.2183
   67SAPC  H15X 5673   4.097   2.905   5.232  1.8658  0.8560 -3.6922
   67SAPC  H15Y 5674   4.004   2.763   5.171  1.0886 -0.6249 -0.9828
   67SAPC  C316 5675   3.894   2.908   5.269 -0.4777 -0.2865  0.4298
   67SAPC  H16X 5676   3.911   3.005   5.320 -0.6811 -0.1255  0.1904
   67SAPC  H16Y 5677   3.887   2.831   5.349 -2.8898  0.5508  1.1086
   67SAPC  C317 5678   3.754   2.917   5.202 -0.0901  0.3727 -0.3874
   67SAPC  H17X 5679   3.728   2.811   5.179 -1.9498  0.9669 -1.2020
   67SAPC  H17Y 5680   3.747   2.968   5.103 -0.5935 -0.3979 -0.7601
   67SAPC  C318 5681   3.640   2.967   5.294  0.5093  0.3014 -0.4547
   67SAPC  H18X 5682   3.676   2.962   5.399 -0.0424  1.1189 -0.2144
   67SAPC  H18Y 5683   3.552   2.901   5.284 -0.6311  2.1249 -3.8108
   67SAPC  H18Z 5684   3.611   3.071   5.267 -0.3211  0.5362  1.2050
   68SAPC     N 5685   2.973   5.665   2.883  0.2663 -0.0971 -0.3560
   68SAPC   C12 5686   2.968   5.517   2.912  0.4681 -0.1299  0.0143
   68SAPC  H12A 5687   3.005   5.473   2.821  1.1522  0.4865 -0.0234
   68SAPC  H12B 5688   2.865   5.485   2.914  0.8263 -1.2976  0.2361
   68SAPC   C13 5689   3.113   5.706   2.865 -0.0242 -0.0497 -0.3892
   68SAPC  H13A 5690   3.114   5.805   2.823  1.4000  0.5695  1.0099
   68SAPC  H13B 5691   3.157   5.703   2.964 -1.3499 -0.3315  0.2180
   68SAPC  H13C 5692   3.162   5.632   2.805 -0.9760 -1.4486  0.4929
   68SAPC   C14 5693   2.893   5.709   2.765 -0.2919  0.0734 -0.3832
   68SAPC  H14A 5694   2.937   5.803   2.733  1.5483 -0.1441  1.3362
   68SAPC  H14B 5695   2.901   5.648   2.676  1.0312 -0.5122  0.1209
   68SAPC  H14C 5696   2.791   5.723   2.797  0.0542 -0.3893  0.9858
   68SAPC   C15 5697   2.916   5.731   3.006 -0.3349  0.2329 -0.1248
   68SAPC  H15A 5698   2.976   5.689   3.086 -0.2104 -1.2352 -0.9543
   68SAPC  H15B 5699   2.922   5.839   3.012 -1.5170  0.3310 -0.5493
   68SAPC  H15C 5700   2.813   5.702   3.018 -0.0877 -1.4018 -1.6021
   68SAPC   C11 5701   3.043   5.441   3.029 -0.7754  0.0935  0.2827
   68SAPC  H11A 5702   3.047   5.330   3.027 -2.5967  0.0106 -0.2840
   68SAPC  H11B 5703   2.980   5.459   3.119 -2.1138  0.1517 -0.6429
   68SAPC     P 5704   3.286   5.423   3.117  0.0872  0.1292  0.3912
   68SAPC   O13 5705   3.306   5.305   3.026  0.3198 -0.4435 -0.2803
   68SAPC   O14 5706   3.401   5.509   3.133 -0.1972 -0.1267  0.6302
   68SAPC   O12 5707   3.164   5.506   3.062  1.0110  0.5433 -0.0194
   68SAPC   O11 5708   3.244   5.364   3.257  0.7396 -0.0599  0.5975
   68SAPC    C1 5709   3.170   5.444   3.352  0.3378  0.2371  0.1953
   68SAPC    HA 5710   3.129   5.536   3.303  0.5045 -0.9887 -2.4223
   68SAPC    HB 5711   3.081   5.387   3.385  0.0652 -0.3651 -1.4928
   68SAPC    C2 5712   3.252   5.495   3.474 -0.1888  0.0974  0.8028
   68SAPC    HS 5713   3.338   5.552   3.431 -1.3952  0.4129 -1.3388
   68SAPC   O21 5714   3.290   5.377   3.548 -0.1345 -0.5115  0.0203
   68SAPC   C21 5715   3.388   5.399   3.626 -0.3416  0.4862 -0.5084
   68SAPC   O22 5716   3.478   5.482   3.624  0.3456 -0.2517 -0.5789
   68SAPC   C22 5717   3.366   5.304   3.748  0.3040 -0.0759 -0.4415
   68SAPC   H2R 5718   3.292   5.345   3.820  1.4803 -1.8781  1.9119
   68SAPC   H2S 5719   3.323   5.209   3.712 -0.3690 -0.6423  1.7254
   68SAPC    C3 5720   3.177   5.597   3.555 -0.8133 -0.3278 -0.1781
   68SAPC    HX 5721   3.087   5.544   3.590  0.1982 -0.7709  1.8679
   68SAPC    HY 5722   3.160   5.680   3.482  2.1074  1.4530  0.9636
   68SAPC   O31 5723   3.244   5.645   3.673  0.4234 -0.2468 -0.9115
   68SAPC   C31 5724   3.333   5.740   3.646  0.7778  0.4841 -0.6310
   68SAPC   O32 5725   3.370   5.778   3.535  0.0985  0.0643  0.6185
   68SAPC   C32 5726   3.388   5.798   3.776  0.3706  0.1155 -1.1113
   68SAPC   H2X 5727   3.336   5.893   3.799 -1.0375 -0.6376 -1.0456
   68SAPC   H2Y 5728   3.492   5.835   3.765  0.5047  0.9049  1.8173
   68SAPC   C23 5729   3.501   5.268   3.825 -0.2078  0.4226  0.2653
   68SAPC   H3R 5730   3.563   5.231   3.741  0.2394  0.8873  0.3833
   68SAPC   H3S 5731   3.491   5.180   3.891 -2.0781 -1.8370 -2.7998
   68SAPC   C24 5732   3.571   5.382   3.901  1.1701 -0.6963  0.4679
   68SAPC   H4R 5733   3.524   5.388   4.001 -2.0412  1.2515 -1.0156
   68SAPC   H4S 5734   3.558   5.484   3.861 -0.1993 -0.5680  1.1921
   68SAPC   C25 5735   3.720   5.359   3.927 -0.1594 -1.1518  0.1822
   68SAPC   H5R 5736   3.785   5.408   3.852  0.4388 -0.0896  1.3359
   68SAPC   C26 5737   3.777   5.303   4.031 -0.2267 -0.2163  0.0021
   68SAPC   H6R 5738   3.885   5.325   4.038 -0.3923  0.4679  0.4672
   68SAPC   C27 5739   3.711   5.237   4.153  0.2958 -0.3646 -0.3953
   68SAPC   H7R 5740   3.735   5.129   4.149 -0.6909 -0.7612  2.0896
   68SAPC   H7S 5741   3.600   5.241   4.151  0.2822  0.6571  0.8700
   68SAPC   C28 5742   3.748   5.298   4.285 -0.4265  0.2905 -0.5529
   68SAPC   H8R 5743   3.750   5.407   4.274 -0.1814  0.3102 -0.3258
   68SAPC   C29 5744   3.804   5.230   4.390 -0.3682 -0.3252 -0.4824
   68SAPC   H9R 5745   3.833   5.285   4.480  1.6007 -0.4335 -1.0042
   68SAPC  C210 5746   3.839   5.082   4.396  0.2593  0.1311 -0.3092
   68SAPC  H10R 5747   3.754   5.023   4.355 -2.4943  2.3911  1.7594
   68SAPC  H10S 5748   3.862   5.058   4.502  1.1226  1.4024 -0.1843
   68SAPC  C211 5749   3.956   5.043   4.304 -0.4046 -0.3917 -0.0649
   68SAPC  H11R 5750   3.925   5.035   4.199  0.9114  1.9126 -0.6833
   68SAPC  C212 5751   4.082   5.005   4.332 -0.5323 -0.1588  0.1497
   68SAPC  H12R 5752   4.144   4.974   4.246 -0.9333  0.1892 -0.2671
   68SAPC  C213 5753   4.155   4.999   4.463  0.1371 -0.4357 -0.6887
   68SAPC  H13R 5754   4.091   4.986   4.554  1.2914  0.7171  0.3191
   68SAPC  H13S 5755   4.209   5.094   4.477  0.1392 -0.6814  1.3708
   68SAPC  C214 5756   4.255   4.879   4.473  0.7321 -0.1781 -1.0210
   68SAPC  H14R 5757   4.205   4.784   4.450  0.5711 -0.0661 -1.1362
   68SAPC  C215 5758   4.381   4.874   4.511  0.4732 -0.0740  0.0631
   68SAPC  H15R 5759   4.421   4.773   4.528 -1.6102 -0.8116  1.0082
   68SAPC  C216 5760   4.473   4.991   4.551  0.0884 -0.4364  0.6589
   68SAPC  H16R 5761   4.416   5.086   4.547  2.2383  0.8944 -0.8988
   68SAPC  H16S 5762   4.568   4.996   4.494  0.0562  0.2482  0.6533
   68SAPC  C217 5763   4.520   4.993   4.701  0.3581 -0.2813  0.2500
   68SAPC  H17R 5764   4.433   4.983   4.769  1.4402 -0.3943  1.6460
   68SAPC  H17S 5765   4.576   5.089   4.708 -2.5961  1.8481 -2.3267
   68SAPC  C218 5766   4.615   4.879   4.730  1.0763  0.7690  0.6084
   68SAPC  H18R 5767   4.679   4.850   4.644  1.7041  0.3833  1.1946
   68SAPC  H18S 5768   4.564   4.782   4.748  1.6202  0.3871  0.1393
   68SAPC  C219 5769   4.698   4.897   4.854  0.2159  0.2114 -0.1298
   68SAPC  H19R 5770   4.758   4.806   4.874  0.2557  0.4035  0.6447
   68SAPC  H19S 5771   4.639   4.904   4.948 -1.1431  0.7419 -0.9747
   68SAPC  C220 5772   4.802   5.017   4.855 -0.2047  0.1717  0.2315
   68SAPC  H20R 5773   4.841   5.041   4.754  0.2856 -1.5884 -0.0285
   68SAPC  H20S 5774   4.887   4.995   4.922  0.8067  1.4596 -0.5902
   68SAPC  H20T 5775   4.746   5.104   4.896 -0.0253 -0.0986  1.0711
   68SAPC   C33 5776   3.375   5.704   3.906  0.6620  0.4194 -0.5128
   68SAPC   H3X 5777   3.397   5.600   3.875  1.8160  0.8407 -1.1648
   68SAPC   H3Y 5778   3.272   5.712   3.945  0.7484 -0.5057 -0.0866
   68SAPC   C34 5779   3.474   5.741   4.020  0.4344 -0.5733 -0.2876
   68SAPC   H4X 5780   3.471   5.851   4.035  0.7760 -0.1774 -2.6318
   68SAPC   H4Y 5781   3.577   5.707   3.994  0.8093 -0.1770  0.6512
   68SAPC   C35 5782   3.433   5.689   4.165 -0.4764 -0.6313  0.8054
   68SAPC   H5X 5783   3.370   5.598   4.151 -1.0701  0.0590 -1.4210
   68SAPC   H5Y 5784   3.360   5.747   4.225 -1.1158 -0.2732 -0.2875
   68SAPC   C36 5785   3.558   5.651   4.245 -0.3503 -0.7058 -0.0683
   68SAPC   H6X 5786   3.618   5.743   4.259 -1.8544  0.0827  1.5431
   68SAPC   H6Y 5787   3.618   5.571   4.196  0.3606 -1.6661  2.2574
   68SAPC   C37 5788   3.520   5.586   4.376 -0.4308  0.2562 -0.2879
   68SAPC   H7X 5789   3.618   5.582   4.428 -0.3661  0.7570 -0.3645
   68SAPC   H7Y 5790   3.480   5.483   4.366 -1.7261  0.5940  1.0333
   68SAPC   C38 5791   3.433   5.669   4.467 -0.1710  0.0605  0.9987
   68SAPC   H8X 5792   3.331   5.676   4.425  0.2140  0.3727  0.0856
   68SAPC   H8Y 5793   3.475   5.772   4.475  2.3108 -0.8354  0.4829
   68SAPC   C39 5794   3.425   5.621   4.609 -0.7039  0.2397  1.2517
   68SAPC   H9X 5795   3.524   5.640   4.656 -0.0243  1.5085 -0.5645
   68SAPC   H9Y 5796   3.392   5.516   4.622  0.9720 -0.5983 -0.6734
   68SAPC  C310 5797   3.326   5.716   4.694 -0.0663 -0.0324  0.7648
   68SAPC  H10X 5798   3.227   5.675   4.664 -0.9151  0.6581  2.4790
   68SAPC  H10Y 5799   3.332   5.822   4.664  0.0959  0.0443  1.0568
   68SAPC  C311 5800   3.351   5.700   4.840  0.3740  0.4861  0.1994
   68SAPC  H11X 5801   3.459   5.709   4.866  0.3934  0.7891  0.0217
   68SAPC  H11Y 5802   3.324   5.596   4.868  2.1722  0.2972  1.4303
   68SAPC  C312 5803   3.261   5.798   4.920  0.3973  0.6056 -0.9019
   68SAPC  H12X 5804   3.253   5.760   5.024  0.3625 -0.0003 -1.1231
   68SAPC  H12Y 5805   3.160   5.789   4.874 -2.0163 -0.3065  3.9399
   68SAPC  C313 5806   3.307   5.943   4.932 -0.5057 -0.1889  0.0741
   68SAPC  H13X 5807   3.296   5.996   4.835 -2.7455 -0.1229  0.3240
   68SAPC  H13Y 5808   3.414   5.934   4.960  0.0340 -0.7071 -2.0264
   68SAPC  C314 5809   3.234   6.021   5.033 -0.4408 -0.1675  0.2446
   68SAPC  H14X 5810   3.128   5.991   5.044 -1.1687  2.2048  0.2806
   68SAPC  H14Y 5811   3.231   6.125   4.993  0.1207 -1.0269 -2.1948
   68SAPC  C315 5812   3.291   6.002   5.181 -0.5184  0.5090 -0.0705
   68SAPC  H15X 5813   3.350   6.088   5.220 -1.8718  1.6871 -0.5488
   68SAPC  H15Y 5814   3.355   5.911   5.186 -0.3687  0.6681  1.1990
   68SAPC  C316 5815   3.172   6.008   5.275  0.0696 -0.0535 -0.4409
   68SAPC  H16X 5816   3.203   6.007   5.382 -0.1627 -0.1543 -0.3737
   68SAPC  H16Y 5817   3.104   5.920   5.266  0.4828 -0.4707  0.3704
   68SAPC  C317 5818   3.100   6.140   5.279  0.3225 -0.1050  0.9192
   68SAPC  H17X 5819   3.082   6.170   5.174  1.4224  2.1125  1.3102
   68SAPC  H17Y 5820   3.151   6.227   5.327 -1.0368  1.3483 -0.1446
   68SAPC  C318 5821   2.954   6.120   5.326  0.4272  0.3203 -0.4844
   68SAPC  H18X 5822   2.911   6.060   5.243  0.2170  0.5062 -0.5102
   68SAPC  H18Y 5823   2.901   6.217   5.322  0.2584  0.3386  1.6153
   68SAPC  H18Z 5824   2.941   6.075   5.426  0.0874 -2.4363 -1.6858
   69SAPC     N 5825   3.774   2.279   2.852  0.2458  0.2643 -0.4113
   69SAPC   C12 5826   3.738   2.255   2.998 -0.2349 -0.0109  0.2195
   69SAPC  H12A 5827   3.639   2.295   3.014  0.3297  1.7232 -0.3900
   69SAPC  H12B 5828   3.817   2.308   3.050  1.2727 -1.0100 -0.9374
   69SAPC   C13 5829   3.688   2.201   2.759 -0.1107  0.3120 -0.1764
   69SAPC  H13A 5830   3.588   2.232   2.787  0.1301  1.9600 -1.0406
   69SAPC  H13B 5831   3.716   2.225   2.658  0.9754  0.2565  0.0945
   69SAPC  H13C 5832   3.695   2.095   2.775  0.5695  0.1672 -1.3461
   69SAPC   C14 5833   3.759   2.430   2.821  0.0501 -0.2425  0.3695
   69SAPC  H14A 5834   3.657   2.458   2.841  0.8321  3.4011 -0.0895
   69SAPC  H14B 5835   3.821   2.497   2.877  0.4345 -0.9792  0.8412
   69SAPC  H14C 5836   3.780   2.440   2.715 -1.3942  2.2420  0.2409
   69SAPC   C15 5837   3.918   2.242   2.824  0.5978 -0.1570  0.5601
   69SAPC  H15A 5838   3.939   2.140   2.854  0.9967 -1.2967 -3.0868
   69SAPC  H15B 5839   3.941   2.267   2.721  0.1864  0.3139  0.5785
   69SAPC  H15C 5840   3.984   2.313   2.870 -0.5416  1.4602 -0.2098
   69SAPC   C11 5841   3.721   2.110   3.046 -0.1189 -0.4174 -0.7785
   69SAPC  H11A 5842   3.717   2.105   3.157 -0.1371  1.9917 -0.6224
   69SAPC  H11B 5843   3.806   2.048   3.010 -0.2457 -0.7621 -0.4952
   69SAPC     P 5844   3.556   1.907   3.029 -0.1828  0.6373  0.1481
   69SAPC   O13 5845   3.423   1.893   2.962  0.8775  0.4573  0.3054
   69SAPC   O14 5846   3.664   1.814   2.982  0.3369 -0.1879  0.2366
   69SAPC   O12 5847   3.599   2.057   2.997 -1.0393  0.1351  0.3549
   69SAPC   O11 5848   3.548   1.896   3.186  0.6606  0.6794 -0.6700
   69SAPC    C1 5849   3.456   1.996   3.238  0.9459 -0.6481  0.6932
   69SAPC    HA 5850   3.450   2.094   3.186 -1.7252 -1.0087  0.1668
   69SAPC    HB 5851   3.358   1.944   3.246  0.6126 -0.1506 -0.0701
   69SAPC    C2 5852   3.481   2.053   3.388  0.3688  0.0262 -0.0820
   69SAPC    HS 5853   3.585   2.093   3.392  0.1734  0.4191  2.9518
   69SAPC   O21 5854   3.470   1.946   3.479  0.1112 -0.5085 -0.0317
   69SAPC   C21 5855   3.566   1.862   3.508  0.2543 -0.8644 -0.3240
   69SAPC   O22 5856   3.677   1.871   3.468 -0.1787 -0.2132  1.1596
   69SAPC   C22 5857   3.514   1.768   3.615  0.3362  0.2830  0.2207
   69SAPC   H2R 5858   3.403   1.761   3.607  0.5428 -2.6280 -1.8746
   69SAPC   H2S 5859   3.554   1.666   3.597  0.1158 -0.1538  1.9684
   69SAPC    C3 5860   3.376   2.161   3.427  0.0080 -0.0010 -0.7745
   69SAPC    HX 5861   3.278   2.115   3.405 -0.5725  0.7866  0.0901
   69SAPC    HY 5862   3.382   2.248   3.358 -0.2519 -0.9499 -2.0212
   69SAPC   O31 5863   3.376   2.195   3.571 -0.1248  0.3438 -0.0129
   69SAPC   C31 5864   3.445   2.299   3.601 -0.2909 -0.3276 -0.8097
   69SAPC   O32 5865   3.531   2.351   3.526 -0.0051 -0.3478 -0.7353
   69SAPC   C32 5866   3.389   2.350   3.737  0.1284 -0.9466  0.2767
   69SAPC   H2X 5867   3.375   2.266   3.808  1.3885 -1.0373  0.4428
   69SAPC   H2Y 5868   3.292   2.395   3.707  0.2887 -1.6198 -1.3694
   69SAPC   C23 5869   3.558   1.799   3.763  0.2427  0.0951 -0.4548
   69SAPC   H3R 5870   3.664   1.832   3.752  0.0528  1.1969  0.7419
   69SAPC   H3S 5871   3.557   1.703   3.819  0.9976  0.9077  1.0041
   69SAPC   C24 5872   3.478   1.906   3.848  0.4213  0.9164  0.0466
   69SAPC   H4R 5873   3.473   2.001   3.790  0.2756  1.1140  0.3820
   69SAPC   H4S 5874   3.541   1.925   3.938  0.6666 -1.4217  0.4178
   69SAPC   C25 5875   3.341   1.860   3.886  0.5173  0.7848 -0.4020
   69SAPC   H5R 5876   3.260   1.892   3.819  1.2732  0.9698 -1.2493
   69SAPC   C26 5877   3.313   1.801   4.003 -0.7417 -0.4034 -0.3523
   69SAPC   H6R 5878   3.208   1.775   4.026 -0.1053 -1.4129  1.6341
   69SAPC   C27 5879   3.415   1.772   4.118  0.1327 -0.0288 -0.0271
   69SAPC   H7R 5880   3.511   1.827   4.107  0.5566 -0.6137  0.6862
   69SAPC   H7S 5881   3.444   1.665   4.128  0.9420  0.1006 -0.8264
   69SAPC   C28 5882   3.360   1.801   4.253  0.2650 -0.4171 -0.1519
   69SAPC   H8R 5883   3.259   1.763   4.271  0.1363 -0.5381 -1.0634
   69SAPC   C29 5884   3.431   1.834   4.366  0.5122 -0.2104 -0.0752
   69SAPC   H9R 5885   3.381   1.873   4.456  1.3388  2.9446 -0.8583
   69SAPC  C210 5886   3.577   1.869   4.375 -0.0109  0.1901  0.4522
   69SAPC  H10R 5887   3.602   1.928   4.466  0.3586 -1.4842  1.4819
   69SAPC  H10S 5888   3.598   1.957   4.310  1.2026  1.2205  2.1547
   69SAPC  C211 5889   3.668   1.751   4.345 -0.3973 -0.2634  0.4804
   69SAPC  H11R 5890   3.677   1.713   4.242  2.5577 -0.3668  0.6932
   69SAPC  C212 5891   3.733   1.678   4.437  0.3911 -0.2976  0.1647
   69SAPC  H12R 5892   3.796   1.600   4.391 -0.8201 -1.1213 -0.1402
   69SAPC  C213 5893   3.734   1.701   4.586 -0.1864 -0.2962  0.3681
   69SAPC  H13R 5894   3.721   1.810   4.604 -0.4898 -0.1194 -0.8513
   69SAPC  H13S 5895   3.835   1.677   4.625 -0.0934  0.7001  0.7678
   69SAPC  C214 5896   3.632   1.618   4.666 -0.2572 -0.4185  0.5408
   69SAPC  H14R 5897   3.530   1.623   4.626  0.2642 -2.0881 -1.1446
   69SAPC  C215 5898   3.647   1.543   4.776  1.0031  0.7689  0.3723
   69SAPC  H15R 5899   3.559   1.494   4.821  1.6304 -0.9329 -0.1921
   69SAPC  C216 5900   3.775   1.507   4.846 -0.3697  0.0054  0.0631
   69SAPC  H16R 5901   3.866   1.546   4.796 -0.3295 -0.7257 -0.4432
   69SAPC  H16S 5902   3.795   1.398   4.841 -1.8471 -0.2573 -0.7945
   69SAPC  C217 5903   3.771   1.553   4.992  0.0370  0.0092 -0.1299
   69SAPC  H17R 5904   3.681   1.512   5.042 -0.2053  0.9505  0.2335
   69SAPC  H17S 5905   3.756   1.663   4.990  2.5388  0.4100 -1.9364
   69SAPC  C218 5906   3.901   1.528   5.066  0.8374  0.1848 -0.4550
   69SAPC  H18R 5907   3.913   1.575   5.166  0.2374  0.3195 -0.4424
   69SAPC  H18S 5908   3.985   1.570   5.007  1.4430  0.3558  0.5041
   69SAPC  C219 5909   3.939   1.380   5.087 -0.2460  0.3722  0.0095
   69SAPC  H19R 5910   4.040   1.381   5.134 -0.3694  0.8730  0.2683
   69SAPC  H19S 5911   3.943   1.319   4.994  1.6311 -0.1398  0.3887
   69SAPC  C220 5912   3.850   1.303   5.182 -0.5502  0.2174 -0.1963
   69SAPC  H20R 5913   3.830   1.364   5.273  0.8296  1.2136 -0.5265
   69SAPC  H20S 5914   3.910   1.218   5.222  1.9745  0.9367 -2.2126
   69SAPC  H20T 5915   3.761   1.263   5.130 -0.6698 -1.1057  0.9425
   69SAPC   C33 5916   3.492   2.456   3.795  0.2600  0.1739  0.2439
   69SAPC   H3X 5917   3.512   2.539   3.723  2.6945  0.0710  0.7307
   69SAPC   H3Y 5918   3.586   2.404   3.821 -0.3446  0.7942  4.1828
   69SAPC   C34 5919   3.444   2.514   3.925  0.0122 -0.2560  0.5604
   69SAPC   H4X 5920   3.347   2.473   3.959  0.1595  0.3772  1.8074
   69SAPC   H4Y 5921   3.420   2.622   3.912 -0.3875 -0.5345 -1.1925
   69SAPC   C35 5922   3.540   2.479   4.042  0.0610  0.0554 -0.1442
   69SAPC   H5X 5923   3.621   2.555   4.036 -0.8942  0.9967 -1.7914
   69SAPC   H5Y 5924   3.582   2.376   4.035  0.8478  0.3789 -0.2586
   69SAPC   C36 5925   3.494   2.511   4.185 -0.5129  0.7019  0.4369
   69SAPC   H6X 5926   3.416   2.589   4.174 -1.8012 -0.7208 -1.0430
   69SAPC   H6Y 5927   3.578   2.555   4.243 -0.2245 -0.5402  0.9900
   69SAPC   C37 5928   3.435   2.394   4.264 -0.1335  0.4850 -0.3796
   69SAPC   H7X 5929   3.521   2.327   4.285  0.6986  1.4633 -0.5739
   69SAPC   H7Y 5930   3.356   2.338   4.208 -0.1530 -0.8503  0.9354
   69SAPC   C38 5931   3.369   2.438   4.397 -0.4429 -0.3950  0.2241
   69SAPC   H8X 5932   3.286   2.509   4.376 -1.6666 -2.1680 -1.2975
   69SAPC   H8Y 5933   3.449   2.493   4.451  1.1694 -1.8727 -0.5546
   69SAPC   C39 5934   3.323   2.317   4.482 -0.0036 -0.1674 -0.6704
   69SAPC   H9X 5935   3.283   2.247   4.406 -1.3189 -0.8489  0.5908
   69SAPC   H9Y 5936   3.246   2.360   4.550  0.8646  0.7120 -0.2246
   69SAPC  C310 5937   3.434   2.257   4.564 -0.0226 -0.6207 -0.2104
   69SAPC  H10X 5938   3.462   2.328   4.645  0.2642 -0.0398 -0.7978
   69SAPC  H10Y 5939   3.509   2.228   4.487 -3.2690 -1.6152 -3.2867
   69SAPC  C311 5940   3.387   2.129   4.629  0.8379 -0.0643  0.4433
   69SAPC  H11X 5941   3.393   2.035   4.570  2.5350  0.2828  0.0010
   69SAPC  H11Y 5942   3.286   2.144   4.672 -0.5933 -0.3569 -2.5956
   69SAPC  C312 5943   3.491   2.102   4.745 -0.2031  0.2328  0.7003
   69SAPC  H12X 5944   3.499   2.189   4.813  2.0564  1.7015 -1.2988
   69SAPC  H12Y 5945   3.589   2.075   4.700  0.8359  1.9551  1.8489
   69SAPC  C313 5946   3.452   1.982   4.830 -0.9776 -0.2970  0.7779
   69SAPC  H13X 5947   3.424   1.894   4.768  0.2208 -0.2240  0.1181
   69SAPC  H13Y 5948   3.367   2.017   4.893 -0.0349 -0.9723  2.4886
   69SAPC  C314 5949   3.566   1.933   4.915  0.3488  0.2525 -0.0337
   69SAPC  H14X 5950   3.631   1.879   4.844  1.8421  0.5428  1.0612
   69SAPC  H14Y 5951   3.526   1.853   4.981 -1.0375  0.2329 -0.8527
   69SAPC  C315 5952   3.640   2.041   5.007 -0.1429  0.5491 -0.4000
   69SAPC  H15X 5953   3.573   2.082   5.085 -2.1561 -1.1516 -1.1627
   69SAPC  H15Y 5954   3.684   2.125   4.947  1.4193  1.5474  1.9841
   69SAPC  C316 5955   3.756   1.973   5.094  1.0032 -0.4588 -0.5119
   69SAPC  H16X 5956   3.723   1.873   5.129 -0.4745  0.1045 -0.2337
   69SAPC  H16Y 5957   3.774   2.032   5.187 -0.3421 -2.3209  1.0099
   69SAPC  C317 5958   3.894   1.954   5.023  0.6447  0.3530 -0.5699
   69SAPC  H17X 5959   3.871   1.897   4.930 -2.2369 -1.3025  0.9924
   69SAPC  H17Y 5960   3.958   1.903   5.098  0.0965  0.0005 -0.3294
   69SAPC  C318 5961   3.956   2.093   4.992 -0.3976  0.5687  0.0714
   69SAPC  H18X 5962   3.873   2.150   4.947 -1.4609  0.5946  1.9555
   69SAPC  H18Y 5963   4.044   2.084   4.924 -1.3552  0.1692 -1.1404
   69SAPC  H18Z 5964   3.988   2.135   5.090  1.6090 -1.9645  0.6256
   70SAPC     N 5965   0.868   3.970   3.280  0.2461 -0.1886  0.4242
   70SAPC   C12 5966   0.876   3.999   3.426  0.0145  0.0205 -0.6673
   70SAPC  H12A 5967   0.952   3.937   3.471 -1.6172 -1.2019  0.5520
   70SAPC  H12B 5968   0.786   3.968   3.477 -0.3050  3.0706  0.8590
   70SAPC   C13 5969   0.989   4.032   3.210  0.0939  0.2555 -0.0962
   70SAPC  H13A 5970   1.002   4.134   3.242 -0.1648 -0.0059  0.8851
   70SAPC  H13B 5971   1.082   3.978   3.219 -0.3914 -0.5315  0.2904
   70SAPC  H13C 5972   0.960   4.044   3.107 -1.4755  0.1238  0.3050
   70SAPC   C14 5973   0.876   3.821   3.267  0.1233  0.0128  0.3256
   70SAPC  H14A 5974   0.795   3.769   3.316 -0.2895 -1.0746 -1.4315
   70SAPC  H14B 5975   0.868   3.802   3.161  1.8424 -0.6361  0.2781
   70SAPC  H14C 5976   0.971   3.779   3.297 -0.8720 -2.1922  0.6260
   70SAPC   C15 5977   0.737   4.026   3.221 -0.4127 -0.0627 -0.0938
   70SAPC  H15A 5978   0.728   4.133   3.232 -0.8202 -0.1478  0.4280
   70SAPC  H15B 5979   0.717   4.010   3.117 -0.1891 -0.4095 -0.0847
   70SAPC  H15C 5980   0.649   3.987   3.270 -0.5098  0.9565  0.5681
   70SAPC   C11 5981   0.892   4.145   3.474 -0.1414  1.0217  1.1151
   70SAPC  H11A 5982   0.877   4.149   3.584 -2.4939 -1.2954  0.9854
   70SAPC  H11B 5983   0.808   4.207   3.438  1.0274  3.0080  1.6671
   70SAPC     P 5984   1.003   4.371   3.417  0.3213  0.2726 -0.1160
   70SAPC   O13 5985   1.137   4.413   3.366 -0.5439 -0.5809 -0.2577
   70SAPC   O14 5986   0.889   4.396   3.320 -0.1274 -0.3488  0.5598
   70SAPC   O12 5987   1.011   4.212   3.436  0.1265  0.3853  0.3164
   70SAPC   O11 5988   0.956   4.428   3.561  0.7251 -0.1513 -0.2268
   70SAPC    C1 5989   1.059   4.458   3.656 -0.0551  0.2088  1.5263
   70SAPC    HA 5990   1.122   4.371   3.682 -1.0001 -0.9063  0.2009
   70SAPC    HB 5991   1.122   4.531   3.602 -0.4094 -1.2169 -0.9695
   70SAPC    C2 5992   1.016   4.517   3.787  0.0832 -0.2118  0.3171
   70SAPC    HS 5993   1.097   4.523   3.864 -0.0521  0.5571  0.3990
   70SAPC   O21 5994   0.913   4.429   3.836  0.0262 -0.0582 -0.3409
   70SAPC   C21 5995   0.952   4.318   3.901  0.0894 -0.3427  0.5257
   70SAPC   O22 5996   1.063   4.281   3.926  0.5699 -0.2888 -0.2708
   70SAPC   C22 5997   0.817   4.248   3.939 -0.5417  0.0787  0.5618
   70SAPC   H2R 5998   0.749   4.241   3.852 -1.4278 -1.3613  1.3258
   70SAPC   H2S 5999   0.828   4.141   3.966 -1.9265 -0.2207  0.0389
   70SAPC    C3 6000   0.955   4.658   3.763 -0.7393 -0.4318 -0.2151
   70SAPC    HX 6001   0.881   4.658   3.681  0.0916  0.0786 -0.9854
   70SAPC    HY 6002   1.032   4.728   3.723 -0.3932 -0.6130  0.1255
   70SAPC   O31 6003   0.900   4.707   3.882 -0.1035 -0.5816 -0.5410
   70SAPC   C31 6004   0.775   4.679   3.910  0.1246 -0.3008  0.2744
   70SAPC   O32 6005   0.704   4.600   3.854 -0.1878 -0.2329  0.6473
   70SAPC   C32 6006   0.738   4.758   4.038 -0.1666  0.6737 -0.1732
   70SAPC   H2X 6007   0.716   4.862   4.005 -0.1823  1.4585  2.1091
   70SAPC   H2Y 6008   0.823   4.753   4.110  1.1463  1.9300 -1.5515
   70SAPC   C23 6009   0.756   4.323   4.056 -0.0306  0.1080 -0.3641
   70SAPC   H3R 6010   0.649   4.294   4.060  0.0197 -0.2600 -1.3961
   70SAPC   H3S 6011   0.751   4.433   4.035  3.1155  0.1077 -1.5899
   70SAPC   C24 6012   0.812   4.280   4.192 -1.1614 -0.7331  0.3338
   70SAPC   H4R 6013   0.825   4.170   4.185  2.2767 -0.4047 -0.1615
   70SAPC   H4S 6014   0.740   4.291   4.277  0.6174  4.9399  1.4875
   70SAPC   C25 6015   0.947   4.343   4.225 -0.3519 -0.0481 -0.1132
   70SAPC   H5R 6016   1.027   4.306   4.160  0.5872  2.9984 -0.8502
   70SAPC   C26 6017   0.976   4.428   4.323 -0.1923  0.1739 -0.0547
   70SAPC   H6R 6018   1.078   4.465   4.336 -0.5609  1.9242 -1.5721
   70SAPC   C27 6019   0.868   4.490   4.408  1.0771 -0.3286 -0.3658
   70SAPC   H7R 6020   0.864   4.430   4.501  1.8094  1.3583  0.8118
   70SAPC   H7S 6021   0.773   4.496   4.350  0.1146 -2.1800  0.9272
   70SAPC   C28 6022   0.898   4.627   4.451 -0.3768  0.1907  0.1052
   70SAPC   H8R 6023   0.877   4.696   4.368 -0.3266 -1.8169 -1.6530
   70SAPC   C29 6024   0.967   4.657   4.560 -0.3840 -0.7165  0.4700
   70SAPC   H9R 6025   0.974   4.762   4.593  1.3992 -0.2308 -1.2493
   70SAPC  C210 6026   1.014   4.561   4.662 -0.5970 -0.9417 -0.3762
   70SAPC  H10R 6027   1.122   4.567   4.684 -0.9600  0.3881  1.1774
   70SAPC  H10S 6028   1.001   4.458   4.622  0.1787 -0.1207 -2.8846
   70SAPC  C211 6029   0.941   4.564   4.794 -0.0204 -0.1541  0.2571
   70SAPC  H11R 6030   0.838   4.526   4.784 -1.6456  3.5977  0.6887
   70SAPC  C212 6031   0.978   4.619   4.921 -0.0672  0.1207 -0.1772
   70SAPC  H12R 6032   0.909   4.623   5.006  0.0797  0.4373 -0.0709
   70SAPC  C213 6033   1.107   4.698   4.952  0.1814  0.0532  0.2857
   70SAPC  H13R 6034   1.096   4.807   4.969 -1.2089 -0.1459  0.8642
   70SAPC  H13S 6035   1.177   4.687   4.867  1.5462 -2.2020  1.6234
   70SAPC  C214 6036   1.179   4.644   5.070  0.0541 -0.4732 -0.1733
   70SAPC  H14R 6037   1.201   4.537   5.063  0.7432 -0.5732  2.5147
   70SAPC  C215 6038   1.212   4.705   5.186  0.1504 -0.7770  0.8838
   70SAPC  H15R 6039   1.253   4.638   5.263 -0.4096 -1.4771  0.5862
   70SAPC  C216 6040   1.192   4.847   5.229  0.0131  0.1195 -0.3980
   70SAPC  H16R 6041   1.094   4.888   5.197 -0.1943  0.5847  0.7705
   70SAPC  H16S 6042   1.279   4.907   5.195  2.4814 -1.5711  2.4383
   70SAPC  C217 6043   1.179   4.866   5.383 -0.3232 -0.3711  0.3662
   70SAPC  H17R 6044   1.169   4.976   5.390  0.5724 -0.0357 -2.4617
   70SAPC  H17S 6045   1.269   4.831   5.439 -0.6667  1.1249  1.9440
   70SAPC  C218 6046   1.051   4.826   5.460 -0.3109 -0.0660 -0.0599
   70SAPC  H18R 6047   1.045   4.715   5.460  1.2618 -0.2221 -2.2181
   70SAPC  H18S 6048   0.960   4.864   5.410 -1.6341 -1.9145  0.8258
   70SAPC  C219 6049   1.046   4.873   5.605  0.1772  0.2137 -0.3368
   70SAPC  H19R 6050   1.046   4.984   5.614 -0.1651  0.1194  1.0992
   70SAPC  H19S 6051   1.142   4.835   5.648 -0.4863 -0.1809  0.8292
   70SAPC  C220 6052   0.930   4.803   5.688 -0.1194 -0.5263  0.1539
   70SAPC  H20R 6053   0.834   4.854   5.663 -0.0049 -0.0312  0.7059
   70SAPC  H20S 6054   0.944   4.814   5.798  0.8395 -0.7653  0.0605
   70SAPC  H20T 6055   0.926   4.694   5.671 -2.2484 -0.2004 -1.9397
   70SAPC   C33 6056   0.628   4.695   4.120  0.9004  0.8784  0.2087
   70SAPC   H3X 6057   0.661   4.594   4.151  0.5984  1.8779  4.4495
   70SAPC   H3Y 6058   0.536   4.690   4.057  1.0723 -1.4398  0.0515
   70SAPC   C34 6059   0.595   4.783   4.240 -0.0449 -0.5028 -0.2926
   70SAPC   H4X 6060   0.560   4.885   4.214 -0.5557 -0.6623 -0.2345
   70SAPC   H4Y 6061   0.688   4.806   4.296 -0.2559 -0.7125  0.1490
   70SAPC   C35 6062   0.487   4.723   4.323  0.0586  0.2284 -0.0396
   70SAPC   H5X 6063   0.523   4.619   4.338 -0.7818 -0.3128 -1.4630
   70SAPC   H5Y 6064   0.393   4.715   4.264  0.3201  1.4878 -0.6757
   70SAPC   C36 6065   0.466   4.794   4.455  0.3134 -0.5572  0.2828
   70SAPC   H6X 6066   0.365   4.762   4.490 -0.5342  1.6282 -0.0210
   70SAPC   H6Y 6067   0.465   4.904   4.443 -1.5498 -0.5662 -0.0338
   70SAPC   C37 6068   0.569   4.755   4.557  0.1022 -0.3667  0.9096
   70SAPC   H7X 6069   0.572   4.648   4.585 -1.6964 -0.9998 -0.9943
   70SAPC   H7Y 6070   0.667   4.786   4.515 -0.7364  1.5488  0.2138
   70SAPC   C38 6071   0.558   4.842   4.684  0.4828  0.3058 -0.4157
   70SAPC   H8X 6072   0.450   4.835   4.708  0.3866  2.8130  0.0563
   70SAPC   H8Y 6073   0.578   4.948   4.661 -1.4492  0.2878 -2.4342
   70SAPC   C39 6074   0.638   4.799   4.806 -0.0436  0.8063 -0.3228
   70SAPC   H9X 6075   0.743   4.798   4.772 -0.2413 -0.8221 -0.9720
   70SAPC   H9Y 6076   0.609   4.699   4.845 -1.6473  2.5380  3.4929
   70SAPC  C310 6077   0.619   4.897   4.919  0.7276 -0.3945 -0.5226
   70SAPC  H10X 6078   0.512   4.884   4.948  0.7828  0.1805 -0.0622
   70SAPC  H10Y 6079   0.657   4.997   4.891  1.7013 -0.4820  0.4409
   70SAPC  C311 6080   0.695   4.847   5.044  0.0167 -0.2931 -0.3722
   70SAPC  H11X 6081   0.773   4.921   5.070  0.1001 -1.2246  2.3033
   70SAPC  H11Y 6082   0.750   4.757   5.011 -0.2064 -0.6243  0.1490
   70SAPC  C312 6083   0.605   4.821   5.166 -0.0745 -0.5245 -0.1870
   70SAPC  H12X 6084   0.665   4.775   5.247 -0.1775  0.4632  0.4673
   70SAPC  H12Y 6085   0.529   4.747   5.133 -0.2350  0.0446 -1.1459
   70SAPC  C313 6086   0.532   4.941   5.220  0.1922 -0.1584  0.4976
   70SAPC  H13X 6087   0.465   4.915   5.305  0.9394 -1.2843  0.7694
   70SAPC  H13Y 6088   0.468   4.964   5.133  0.8185 -2.2972 -0.5969
   70SAPC  C314 6089   0.623   5.065   5.264  0.4864  0.2266  0.3661
   70SAPC  H14X 6090   0.563   5.155   5.236  0.8986  0.7440  1.1122
   70SAPC  H14Y 6091   0.717   5.071   5.205  0.9709 -1.0987  0.9728
   70SAPC  C315 6092   0.658   5.061   5.416  0.1639 -0.1572 -0.1485
   70SAPC  H15X 6093   0.705   4.962   5.432 -1.4009 -0.6878  1.3751
   70SAPC  H15Y 6094   0.566   5.077   5.476  0.0858  1.4233 -0.6451
   70SAPC  C316 6095   0.754   5.176   5.442  0.5302 -0.0685 -0.5760
   70SAPC  H16X 6096   0.704   5.272   5.417 -1.8246 -1.3279 -0.9439
   70SAPC  H16Y 6097   0.839   5.176   5.370 -0.6655  1.5212 -2.0853
   70SAPC  C317 6098   0.817   5.185   5.585 -0.0172  0.0332  0.0023
   70SAPC  H17X 6099   0.886   5.271   5.599 -0.9440  0.5886  1.4932
   70SAPC  H17Y 6100   0.884   5.098   5.593  2.0722  1.4707 -0.9295
   70SAPC  C318 6101   0.719   5.191   5.692  0.6868 -0.5084  0.3262
   70SAPC  H18X 6102   0.635   5.255   5.657  1.4576  0.5437  0.3696
   70SAPC  H18Y 6103   0.760   5.236   5.785  0.9975 -0.5295  0.1996
   70SAPC  H18Z 6104   0.683   5.091   5.725  2.1983 -0.8936  0.8892
   71SAPC     N 6105   6.674   5.996   2.931  0.1473 -0.0901  0.2308
   71SAPC   C12 6106   6.635   5.990   3.076  0.3020  0.0298 -0.8997
   71SAPC  H12A 6107   6.527   6.001   3.081  0.3340  0.6841 -1.5041
   71SAPC  H12B 6108   6.670   6.078   3.127 -1.4454 -0.2905  0.9717
   71SAPC   C13 6109   6.577   5.920   2.852 -0.5406 -0.0158 -0.3264
   71SAPC  H13A 6110   6.576   5.820   2.894 -0.9974  0.8790  1.9139
   71SAPC  H13B 6111   6.480   5.960   2.879 -0.8052 -0.7367 -0.1598
   71SAPC  H13C 6112   6.597   5.911   2.746  1.8349 -1.7752  0.1802
   71SAPC   C14 6113   6.679   6.134   2.874  0.8978 -0.3903  0.2619
   71SAPC  H14A 6114   6.581   6.177   2.886 -0.0464 -2.3663  0.0059
   71SAPC  H14B 6115   6.754   6.197   2.921  0.2087 -0.3112  1.2931
   71SAPC  H14C 6116   6.700   6.132   2.768  0.1105 -1.3980  0.1150
   71SAPC   C15 6117   6.807   5.939   2.905  0.1875 -0.1943  0.1484
   71SAPC  H15A 6118   6.811   5.936   2.797 -1.2099  0.2531  0.0604
   71SAPC  H15B 6119   6.884   5.999   2.951 -1.9785  1.6476  1.6260
   71SAPC  H15C 6120   6.813   5.835   2.933 -0.2301 -0.2246  0.1346
   71SAPC   C11 6121   6.665   5.859   3.160  0.2477  0.0195  0.8127
   71SAPC  H11A 6122   6.640   5.873   3.267  0.2285  0.2875  0.7736
   71SAPC  H11B 6123   6.775   5.840   3.161 -0.0991 -2.7094 -1.2473
   71SAPC     P 6124   6.675   5.608   3.079 -0.2790  0.0727 -0.3249
   71SAPC   O13 6125   6.575   5.508   3.043  0.4612 -1.1278  0.7792
   71SAPC   O14 6126   6.785   5.621   2.976  1.2334 -0.5660 -0.4118
   71SAPC   O12 6127   6.594   5.746   3.099 -0.4417  0.0026  0.6243
   71SAPC   O11 6128   6.732   5.571   3.221 -0.3868 -0.1571  0.3875
   71SAPC    C1 6129   6.648   5.518   3.325 -0.6117 -0.2128 -0.7219
   71SAPC    HA 6130   6.543   5.548   3.303  0.1075  2.4568 -0.8122
   71SAPC    HB 6131   6.671   5.409   3.326 -1.8887 -0.5665  2.8486
   71SAPC    C2 6132   6.686   5.563   3.470 -0.3909  0.2883 -0.5506
   71SAPC    HS 6133   6.680   5.673   3.460  0.1403  0.0997 -4.5599
   71SAPC   O21 6134   6.825   5.529   3.491 -0.1109 -0.7177  0.1225
   71SAPC   C21 6135   6.885   5.584   3.588  0.3749  0.6373  0.2619
   71SAPC   O22 6136   6.854   5.688   3.644  0.6643 -0.5898  0.4621
   71SAPC   C22 6137   7.007   5.496   3.615  0.3716  0.2269  0.8023
   71SAPC   H2R 6138   6.990   5.387   3.624 -1.4373  0.4177 -0.0901
   71SAPC   H2S 6139   7.064   5.492   3.520  0.6251  1.1967  0.9016
   71SAPC    C3 6140   6.596   5.496   3.571 -0.0758  0.0558  0.2616
   71SAPC    HX 6141   6.605   5.387   3.553  3.1649  0.5693 -2.1260
   71SAPC    HY 6142   6.492   5.520   3.543 -0.1793 -0.4261  0.2356
   71SAPC   O31 6143   6.637   5.517   3.708 -0.0385  0.0745 -0.0878
   71SAPC   C31 6144   6.538   5.529   3.799  0.0153  0.7028  0.7678
   71SAPC   O32 6145   6.417   5.522   3.768  0.5443 -0.1177  0.7044
   71SAPC   C32 6146   6.598   5.574   3.933 -0.3290  0.3355  0.6017
   71SAPC   H2X 6147   6.681   5.642   3.903 -0.1849 -0.2255 -0.3258
   71SAPC   H2Y 6148   6.654   5.491   3.982  3.7509  1.6931 -1.2584
   71SAPC   C23 6149   7.084   5.544   3.744  0.2129  0.0392  0.2377
   71SAPC   H3R 6150   7.097   5.654   3.747 -0.2759  0.1116 -0.2597
   71SAPC   H3S 6151   7.182   5.491   3.738 -0.5685 -1.6409  1.3604
   71SAPC   C24 6152   7.002   5.506   3.872  0.4805  0.4486  0.0481
   71SAPC   H4R 6153   6.970   5.401   3.852  0.3153 -0.0408  2.6095
   71SAPC   H4S 6154   6.909   5.566   3.881  1.6897  2.4478 -0.3034
   71SAPC   C25 6155   7.068   5.500   4.009  0.5163  0.2731 -0.2120
   71SAPC   H5R 6156   7.145   5.422   4.018  2.6119  2.2847  0.3908
   71SAPC   C26 6157   7.049   5.575   4.121 -0.4154 -0.0876  0.5170
   71SAPC   H6R 6158   7.106   5.551   4.213  1.6845 -0.5326 -0.8252
   71SAPC   C27 6159   6.947   5.685   4.125  0.4403 -0.5455  0.4286
   71SAPC   H7R 6160   6.851   5.647   4.166 -1.8337  1.9521 -2.1221
   71SAPC   H7S 6161   6.922   5.714   4.020  0.6996 -0.1778  0.4660
   71SAPC   C28 6162   6.988   5.810   4.202 -0.3133 -0.0375 -0.4369
   71SAPC   H8R 6163   7.030   5.896   4.147  1.7085 -0.2209  0.6947
   71SAPC   C29 6164   7.003   5.807   4.338 -0.1982 -0.1870  0.1043
   71SAPC   H9R 6165   7.036   5.895   4.395  1.6508 -0.4761 -0.4538
   71SAPC  C210 6166   6.974   5.698   4.434 -1.0678  0.8485 -0.2467
   71SAPC  H10R 6167   6.926   5.610   4.386 -1.2162 -0.0149  1.4320
   71SAPC  H10S 6168   6.883   5.733   4.487 -2.1051 -0.8332 -0.8194
   71SAPC  C211 6169   7.089   5.668   4.529 -0.7411  0.1784  0.4016
   71SAPC  H11R 6170   7.155   5.595   4.480 -1.0399  0.1880 -0.0234
   71SAPC  C212 6171   7.106   5.715   4.653  0.2007  0.3838 -0.2167
   71SAPC  H12R 6172   7.183   5.672   4.719 -0.9320 -1.6881 -0.1678
   71SAPC  C213 6173   7.014   5.820   4.714 -0.1970  0.0309  0.7867
   71SAPC  H13R 6174   6.972   5.896   4.645 -0.4865 -0.6445  0.1915
   71SAPC  H13S 6175   7.078   5.875   4.785 -0.3171 -0.3553  1.1990
   71SAPC  C214 6176   6.904   5.760   4.780  0.0936  0.7350 -0.4759
   71SAPC  H14R 6177   6.805   5.764   4.734 -0.5542 -0.9502  0.6847
   71SAPC  C215 6178   6.899   5.715   4.907 -0.6464  0.8590  1.2320
   71SAPC  H15R 6179   6.807   5.666   4.941 -0.5878 -0.9901 -0.9751
   71SAPC  C216 6180   7.009   5.703   5.013  0.5272 -0.0269  1.0376
   71SAPC  H16R 6181   6.974   5.754   5.105  1.9135  0.6269  1.2229
   71SAPC  H16S 6182   7.098   5.765   4.987 -0.7245  1.1707 -0.5819
   71SAPC  C217 6183   7.048   5.556   5.058  0.6446 -0.8387  0.2211
   71SAPC  H17R 6184   7.085   5.494   4.974  2.5201  1.9026 -1.0941
   71SAPC  H17S 6185   6.950   5.509   5.081 -1.1092  3.0688  1.6347
   71SAPC  C218 6186   7.145   5.560   5.175 -0.0732  0.5441 -0.5470
   71SAPC  H18R 6187   7.098   5.621   5.255  2.3567  0.8023  0.7843
   71SAPC  H18S 6188   7.237   5.613   5.145 -0.9108  2.2011 -0.3110
   71SAPC  C219 6189   7.179   5.420   5.225  0.5083  0.5021 -0.3427
   71SAPC  H19R 6190   7.225   5.360   5.143 -2.7821 -0.3849 -1.7017
   71SAPC  H19S 6191   7.089   5.360   5.251  0.7949  0.3459  0.2999
   71SAPC  C220 6192   7.261   5.423   5.351  1.0333  0.9258 -0.3486
   71SAPC  H20R 6193   7.248   5.327   5.404 -0.6157  1.6676  0.6726
   71SAPC  H20S 6194   7.220   5.496   5.424 -0.8003  0.4094 -0.8299
   71SAPC  H20T 6195   7.369   5.437   5.326  1.7631 -2.3248  0.4996
   71SAPC   C33 6196   6.501   5.645   4.032  0.4408 -0.3305  0.4343
   71SAPC   H3X 6197   6.412   5.580   4.050 -1.6054  1.7831 -1.4986
   71SAPC   H3Y 6198   6.468   5.745   3.999  0.4019  0.0164  1.4849
   71SAPC   C34 6199   6.558   5.667   4.174 -0.0531  0.0758 -0.0856
   71SAPC   H4X 6200   6.649   5.731   4.175  0.6280 -0.8582  1.6383
   71SAPC   H4Y 6201   6.587   5.564   4.203 -2.5558 -1.2287 -1.8239
   71SAPC   C35 6202   6.454   5.710   4.275  0.2393  0.0264 -0.9346
   71SAPC   H5X 6203   6.351   5.689   4.239 -0.0881  0.6700 -0.4074
   71SAPC   H5Y 6204   6.435   5.819   4.288  1.1920 -0.0218  1.4542
   71SAPC   C36 6205   6.487   5.656   4.415 -0.1059 -0.8120 -0.8649
   71SAPC   H6X 6206   6.598   5.663   4.416 -0.1539  0.1037 -1.0280
   71SAPC   H6Y 6207   6.463   5.548   4.404 -0.8262 -0.5479 -2.0595
   71SAPC   C37 6208   6.411   5.735   4.527 -0.1924  0.1987 -0.2820
   71SAPC   H7X 6209   6.302   5.737   4.509 -0.1977  0.7288 -0.2125
   71SAPC   H7Y 6210   6.453   5.838   4.527  1.0842 -0.2339  2.0918
   71SAPC   C38 6211   6.437   5.679   4.661  0.2264  0.4341 -0.4843
   71SAPC   H8X 6212   6.546   5.670   4.680 -0.0077  0.9430  1.2492
   71SAPC   H8Y 6213   6.399   5.577   4.681  0.2212  0.2761 -1.2748
   71SAPC   C39 6214   6.386   5.775   4.773  0.4838 -0.2636  0.4885
   71SAPC   H9X 6215   6.276   5.763   4.764  0.3398 -0.3241  2.1565
   71SAPC   H9Y 6216   6.412   5.877   4.738 -0.2398 -0.5466 -0.9780
   71SAPC  C310 6217   6.440   5.738   4.911 -0.1436  0.3903  0.2514
   71SAPC  H10X 6218   6.548   5.764   4.921 -0.3502  1.2258  0.3282
   71SAPC  H10Y 6219   6.413   5.630   4.918 -0.4186  0.2663 -2.0427
   71SAPC  C311 6220   6.372   5.823   5.013  0.7318 -0.3775 -0.1242
   71SAPC  H11X 6221   6.261   5.810   5.015  0.7069 -0.1750 -0.0712
   71SAPC  H11Y 6222   6.396   5.931   5.002 -0.7439 -0.1383 -1.3051
   71SAPC  C312 6223   6.419   5.779   5.145  0.5324 -0.0059 -0.7587
   71SAPC  H12X 6224   6.379   5.677   5.163  1.8364 -0.5657 -0.9427
   71SAPC  H12Y 6225   6.358   5.842   5.214  0.1181  0.1870 -1.2976
   71SAPC  C313 6226   6.568   5.797   5.185 -1.0110 -0.1463 -0.0600
   71SAPC  H13X 6227   6.606   5.891   5.138  0.9687 -1.7955 -2.0231
   71SAPC  H13Y 6228   6.631   5.713   5.147  1.2642  1.6709 -0.5924
   71SAPC  C314 6229   6.597   5.795   5.338  0.1937  0.2659  0.2382
   71SAPC  H14X 6230   6.564   5.699   5.382  1.0509  0.1018  0.5409
   71SAPC  H14Y 6231   6.542   5.882   5.381 -2.4245 -0.5066 -1.3280
   71SAPC  C315 6232   6.742   5.805   5.384  0.1713 -0.0142 -0.1211
   71SAPC  H15X 6233   6.804   5.717   5.357  1.9474  1.8145 -2.4901
   71SAPC  H15Y 6234   6.729   5.785   5.492  3.7462 -0.9213  0.2834
   71SAPC  C316 6235   6.804   5.945   5.350  0.1189  0.8630  1.0009
   71SAPC  H16X 6236   6.740   6.023   5.396 -2.5282 -0.9540  0.6688
   71SAPC  H16Y 6237   6.799   5.964   5.241  3.6949 -1.5910  0.2468
   71SAPC  C317 6238   6.946   5.964   5.391 -0.0382  0.5023  0.2922
   71SAPC  H17X 6239   6.986   6.065   5.365  0.1257  0.1675 -0.8298
   71SAPC  H17Y 6240   7.015   5.894   5.340 -0.1549  0.2630  0.4633
   71SAPC  C318 6241   6.961   5.930   5.538  0.6472 -0.1376 -0.1267
   71SAPC  H18X 6242   6.876   5.967   5.599  1.5105  1.6770  0.0175
   71SAPC  H18Y 6243   7.053   5.971   5.584  0.6768 -1.5057  1.1030
   71SAPC  H18Z 6244   6.954   5.821   5.562  0.9027 -0.5279 -1.7154
   72SAPC     N 6245   5.840   4.035   3.082 -0.0654 -0.1123  0.0339
   72SAPC   C12 6246   5.887   4.074   3.219  0.0107  0.8909 -0.0778
   72SAPC  H12A 6247   5.986   4.033   3.228  0.2414  1.1430 -1.3314
   72SAPC  H12B 6248   5.825   4.022   3.291  1.3910 -0.2084  0.3800
   72SAPC   C13 6249   5.698   4.071   3.067 -0.0219  1.0564 -0.1256
   72SAPC  H13A 6250   5.665   4.070   2.964 -3.4676  0.0885  0.8460
   72SAPC  H13B 6251   5.639   4.006   3.130 -0.4778  0.4624 -1.1398
   72SAPC  H13C 6252   5.686   4.171   3.104 -0.3205  2.6450 -4.0465
   72SAPC   C14 6253   5.926   4.097   2.974  0.4973 -0.4681  0.5138
   72SAPC  H14A 6254   5.901   4.061   2.875 -0.0141 -0.7851  0.7551
   72SAPC  H14B 6255   5.915   4.204   2.975  0.3823 -0.4767  0.2875
   72SAPC  H14C 6256   6.032   4.075   2.980  0.6496  0.5027  1.5928
   72SAPC   C15 6257   5.846   3.881   3.058 -0.1288 -0.9086 -0.7000
   72SAPC  H15A 6258   5.795   3.860   2.965  1.6600  1.5922 -2.3642
   72SAPC  H15B 6259   5.947   3.843   3.053  0.6641  0.9834  0.0422
   72SAPC  H15C 6260   5.790   3.823   3.129 -0.3319 -1.6368 -1.4302
   72SAPC   C11 6261   5.902   4.223   3.246  0.2865 -0.5732 -0.3574
   72SAPC  H11A 6262   5.904   4.233   3.357  1.6890 -0.6851 -0.3505
   72SAPC  H11B 6263   5.816   4.285   3.212  1.3273  0.2248 -1.6645
   72SAPC     P 6264   6.086   4.411   3.192  0.0045  0.3235 -0.0983
   72SAPC   O13 6265   6.146   4.435   3.064 -0.0178 -0.3822 -0.3975
   72SAPC   O14 6266   5.990   4.511   3.240  0.1461  0.3446 -0.0343
   72SAPC   O12 6267   6.019   4.267   3.179 -0.0282 -0.3932 -0.5337
   72SAPC   O11 6268   6.188   4.373   3.310  0.2927 -0.0545 -0.1520
   72SAPC    C1 6269   6.252   4.483   3.378 -0.3333 -0.0506  0.3634
   72SAPC    HA 6270   6.356   4.448   3.392 -0.3106 -0.0820  0.1156
   72SAPC    HB 6271   6.251   4.571   3.311  0.8220 -0.9558 -0.9225
   72SAPC    C2 6272   6.189   4.511   3.515 -0.8302 -0.2045  0.0216
   72SAPC    HS 6273   6.103   4.579   3.499 -0.0500  1.2043  1.4852
   72SAPC   O21 6274   6.288   4.557   3.607 -0.6000 -0.1152  0.1213
   72SAPC   C21 6275   6.299   4.688   3.606 -0.6444 -1.1464 -1.0591
   72SAPC   O22 6276   6.227   4.771   3.556  0.0128  0.0437 -0.2218
   72SAPC   C22 6277   6.430   4.721   3.673  0.0758  0.0178  0.7839
   72SAPC   H2R 6278   6.476   4.626   3.708 -1.1537 -0.2360  1.7693
   72SAPC   H2S 6279   6.492   4.771   3.596 -2.3931  1.3766 -0.4510
   72SAPC    C3 6280   6.124   4.384   3.581 -0.4427  0.2161  0.1512
   72SAPC    HX 6281   6.210   4.316   3.561 -0.9275 -0.0211 -1.2687
   72SAPC    HY 6282   6.042   4.362   3.509  0.2094  0.3431 -0.6438
   72SAPC   O31 6283   6.083   4.389   3.718 -0.0140 -0.4653  0.2205
   72SAPC   C31 6284   5.987   4.487   3.737  0.6808 -0.4806  0.4794
   72SAPC   O32 6285   5.932   4.550   3.647 -0.0965  0.0774 -0.0051
   72SAPC   C32 6286   5.961   4.506   3.888  0.2556  0.3573  0.3383
   72SAPC   H2X 6287   5.989   4.610   3.916  1.8810 -0.7467  3.3122
   72SAPC   H2Y 6288   6.027   4.432   3.939 -2.2871 -0.6290  2.4284
   72SAPC   C23 6289   6.409   4.809   3.792 -0.4570 -0.1315  0.4340
   72SAPC   H3R 6290   6.349   4.898   3.767  0.6543  0.1272 -1.5473
   72SAPC   H3S 6291   6.508   4.846   3.828  0.6347  0.0810 -2.4897
   72SAPC   C24 6292   6.334   4.737   3.907  0.4760  0.1433  0.1816
   72SAPC   H4R 6293   6.233   4.706   3.872 -0.5675  1.5360  1.7653
   72SAPC   H4S 6294   6.316   4.811   3.988 -0.9887 -0.7069  0.6728
   72SAPC   C25 6295   6.401   4.614   3.964 -0.3164 -0.4463 -0.0013
   72SAPC   H5R 6296   6.424   4.536   3.890  0.9370  1.5300 -1.7949
   72SAPC   C26 6297   6.448   4.602   4.085  0.3820  0.1123  0.3007
   72SAPC   H6R 6298   6.499   4.506   4.102 -1.9627 -1.9233 -3.0158
   72SAPC   C27 6299   6.451   4.687   4.206 -0.0441  0.8787  0.1319
   72SAPC   H7R 6300   6.496   4.785   4.178 -0.4580  1.5159  1.6021
   72SAPC   H7S 6301   6.519   4.636   4.277 -1.7719  0.2799  1.4232
   72SAPC   C28 6302   6.323   4.720   4.271 -0.4876 -0.3011  0.3232
   72SAPC   H8R 6303   6.229   4.715   4.213 -0.8809 -0.5941  0.9856
   72SAPC   C29 6304   6.316   4.742   4.403 -0.0466  0.8035  0.2196
   72SAPC   H9R 6305   6.217   4.739   4.452 -0.3608 -1.3273 -0.4257
   72SAPC  C210 6306   6.434   4.739   4.500 -0.4845  0.1845  0.4275
   72SAPC  H10R 6307   6.435   4.828   4.566 -2.4258  0.7521 -0.2415
   72SAPC  H10S 6308   6.528   4.757   4.444 -0.5665  1.2782  0.6346
   72SAPC  C211 6309   6.447   4.615   4.581  0.7203 -0.0284 -0.2229
   72SAPC  H11R 6310   6.394   4.525   4.546 -1.9445 -0.0719  3.4404
   72SAPC  C212 6311   6.499   4.609   4.706 -0.5077 -0.2696 -0.1049
   72SAPC  H12R 6312   6.500   4.512   4.758  1.3904  0.3728  1.1693
   72SAPC  C213 6313   6.554   4.723   4.782  0.2133  0.0093  0.6152
   72SAPC  H13R 6314   6.592   4.801   4.713 -1.0233  0.5276  0.4997
   72SAPC  H13S 6315   6.640   4.685   4.842  0.4528  0.6663  0.7003
   72SAPC  C214 6316   6.447   4.791   4.860  0.1321  0.2601 -0.1600
   72SAPC  H14R 6317   6.345   4.777   4.821  0.3472  1.6458 -1.3241
   72SAPC  C215 6318   6.468   4.859   4.972 -0.4687  0.1166 -0.2236
   72SAPC  H15R 6319   6.392   4.917   5.026 -0.2416  0.4826 -0.2903
   72SAPC  C216 6320   6.601   4.880   5.037 -0.5701  0.6421 -0.1351
   72SAPC  H16R 6321   6.626   4.978   5.083  2.7756 -0.0378 -0.2812
   72SAPC  H16S 6322   6.691   4.859   4.976 -0.4362  1.8052 -0.3748
   72SAPC  C217 6323   6.606   4.777   5.151 -0.0682  0.5767  0.6594
   72SAPC  H17R 6324   6.708   4.768   5.194 -1.2597 -0.6931  3.4452
   72SAPC  H17S 6325   6.582   4.678   5.108 -2.1919  1.4448 -0.3051
   72SAPC  C218 6326   6.499   4.801   5.255 -0.2129 -0.0986 -0.1972
   72SAPC  H18R 6327   6.403   4.789   5.200  1.4107 -1.0024 -2.9804
   72SAPC  H18S 6328   6.505   4.908   5.284  0.6580 -0.2497  0.2302
   72SAPC  C219 6329   6.497   4.712   5.378  0.3370 -0.0853 -0.2230
   72SAPC  H19R 6330   6.462   4.610   5.354  0.0727  0.0741 -0.5383
   72SAPC  H19S 6331   6.419   4.761   5.440  0.8415  1.0087 -0.4098
   72SAPC  C220 6332   6.632   4.706   5.444 -0.3876  0.1820  0.0724
   72SAPC  H20R 6333   6.712   4.645   5.396  1.8994  1.6568  1.7425
   72SAPC  H20S 6334   6.620   4.659   5.543  1.4424  0.4349  0.4607
   72SAPC  H20T 6335   6.679   4.805   5.467 -1.3747  0.3826  1.3123
   72SAPC   C33 6336   5.816   4.493   3.933 -0.0987 -0.5494 -0.0280
   72SAPC   H3X 6337   5.749   4.568   3.885 -1.2424 -1.1281  0.6223
   72SAPC   H3Y 6338   5.796   4.505   4.042 -3.0613 -1.9381 -0.3243
   72SAPC   C34 6339   5.763   4.349   3.906  0.2620  0.0716 -0.3681
   72SAPC   H4X 6340   5.793   4.327   3.801  0.7846 -1.5374  0.0809
   72SAPC   H4Y 6341   5.653   4.347   3.917  0.4176 -1.8169  1.5173
   72SAPC   C35 6342   5.818   4.246   4.004  0.7676 -1.0169  0.3039
   72SAPC   H5X 6343   5.927   4.263   4.010  0.9628 -2.0472 -0.0887
   72SAPC   H5Y 6344   5.810   4.144   3.962 -1.9560 -0.5798 -0.4347
   72SAPC   C36 6345   5.749   4.251   4.138 -0.0629 -0.4633 -0.1191
   72SAPC   H6X 6346   5.756   4.349   4.189  2.0967 -0.8073  0.3600
   72SAPC   H6Y 6347   5.820   4.185   4.193  0.0166 -0.8380 -0.6623
   72SAPC   C37 6348   5.605   4.194   4.148  0.2615  0.0007 -0.0402
   72SAPC   H7X 6349   5.618   4.086   4.123  2.9139  0.5509 -1.3792
   72SAPC   H7Y 6350   5.537   4.233   4.069 -0.2966  2.4482  1.5599
   72SAPC   C38 6351   5.536   4.212   4.288 -0.0051 -0.2311  0.0329
   72SAPC   H8X 6352   5.598   4.169   4.369  1.3966  0.4175 -0.6531
   72SAPC   H8Y 6353   5.437   4.162   4.282 -1.2545  1.9750  1.0108
   72SAPC   C39 6354   5.517   4.365   4.329 -0.5913 -0.0895  0.1166
   72SAPC   H9X 6355   5.496   4.416   4.232 -1.3333 -0.8589 -0.1365
   72SAPC   H9Y 6356   5.614   4.404   4.365 -1.8989  1.3108  2.3448
   72SAPC  C310 6357   5.401   4.404   4.426 -0.4070  0.0562  0.1752
   72SAPC  H10X 6358   5.311   4.379   4.366  0.0122 -1.2794  0.0572
   72SAPC  H10Y 6359   5.406   4.513   4.444 -1.2674  0.5464 -2.2156
   72SAPC  C311 6360   5.404   4.332   4.563  0.1827 -0.9278 -0.0860
   72SAPC  H11X 6361   5.411   4.221   4.551 -0.0750 -1.1169  1.3494
   72SAPC  H11Y 6362   5.305   4.336   4.614  0.0556 -1.1818 -0.3048
   72SAPC  C312 6363   5.512   4.386   4.650  0.2237  0.3877 -0.4059
   72SAPC  H12X 6364   5.505   4.497   4.645 -0.1973  0.4167  0.5729
   72SAPC  H12Y 6365   5.609   4.346   4.615 -0.5358 -1.2050 -0.7694
   72SAPC  C313 6366   5.501   4.331   4.791 -0.1032 -0.0460 -0.7668
   72SAPC  H13X 6367   5.482   4.222   4.774  1.3533 -0.0861 -2.5462
   72SAPC  H13Y 6368   5.414   4.365   4.849 -1.9417 -0.4384 -3.1188
   72SAPC  C314 6369   5.632   4.355   4.868  0.0213 -0.5236 -0.1947
   72SAPC  H14X 6370   5.713   4.303   4.811 -1.5822 -1.3929 -1.7640
   72SAPC  H14Y 6371   5.636   4.316   4.972  2.0111 -0.2704 -0.1343
   72SAPC  C315 6372   5.673   4.512   4.876 -0.2358  0.1345 -0.4540
   72SAPC  H15X 6373   5.687   4.555   4.774  1.4096  1.2347  0.2064
   72SAPC  H15Y 6374   5.773   4.510   4.924  0.4434  0.1853 -1.8117
   72SAPC  C316 6375   5.592   4.590   4.978 -0.3701 -0.0861  0.2391
   72SAPC  H16X 6376   5.607   4.538   5.075  0.0279 -1.0003 -0.2936
   72SAPC  H16Y 6377   5.483   4.604   4.963 -0.0170  1.4086 -1.2425
   72SAPC  C317 6378   5.654   4.727   5.006 -0.2060  0.1587  0.3874
   72SAPC  H17X 6379   5.741   4.719   5.074 -0.0709  1.5330  0.4018
   72SAPC  H17Y 6380   5.575   4.776   5.066 -0.7114 -0.5828  0.3492
   72SAPC  C318 6381   5.698   4.797   4.877  0.2845 -0.0379  0.0786
   72SAPC  H18X 6382   5.619   4.809   4.800  1.7525 -0.9099 -1.6217
   72SAPC  H18Y 6383   5.780   4.736   4.833 -0.4513 -1.3482  0.4898
   72SAPC  H18Z 6384   5.730   4.900   4.905 -0.8390  0.0260  1.2013
   73SLPC     N 6385   4.983   5.998   7.736  0.1516  1.2690  0.5488
   73SLPC   C13 6386   4.969   5.993   7.884  0.0747 -1.2823 -0.5136
   73SLPC  H13A 6387   4.887   5.932   7.920  0.0053 -0.9840 -0.1572
   73SLPC  H13B 6388   5.061   5.953   7.925  1.7569 -0.7926 -3.5370
   73SLPC  H13C 6389   4.941   6.089   7.926 -1.4663 -2.6194  1.7442
   73SLPC   C14 6390   5.009   5.862   7.680 -0.2619  0.0468 -0.5085
   73SLPC  H14A 6391   5.109   5.831   7.709  0.3175  2.9081  1.0235
   73SLPC  H14B 6392   4.928   5.796   7.706 -1.0875  0.9312 -0.7696
   73SLPC  H14C 6393   4.996   5.867   7.573 -1.0226  2.3747 -0.3719
   73SLPC   C15 6394   5.092   6.098   7.701  0.1889  0.6666 -0.2210
   73SLPC  H15A 6395   5.056   6.193   7.739 -0.3222  1.0695 -1.6582
   73SLPC  H15B 6396   5.189   6.078   7.744 -0.1356  2.2435  1.3496
   73SLPC  H15C 6397   5.098   6.096   7.593  0.1909 -1.4895 -0.2241
   73SLPC   C12 6398   4.854   6.048   7.678  0.7216 -0.3495 -0.4197
   73SLPC  H12A 6399   4.800   6.122   7.736 -1.0358 -1.4855 -0.5322
   73SLPC  H12B 6400   4.790   5.961   7.689 -0.4492  0.4695 -0.6284
   73SLPC   C11 6401   4.845   6.100   7.540 -0.0100  0.7885  0.6434
   73SLPC  H11A 6402   4.918   6.046   7.476 -0.2105  0.2513  0.8667
   73SLPC  H11B 6403   4.895   6.199   7.534  0.1517  0.7656  1.4978
   73SLPC     P 6404   4.645   5.993   7.421  0.4168 -0.3064  0.1769
   73SLPC   O13 6405   4.696   5.997   7.284 -0.0440  0.1173  0.1030
   73SLPC   O14 6406   4.656   5.869   7.496 -0.8498  0.6772  0.1083
   73SLPC   O12 6407   4.711   6.109   7.499 -0.4631 -0.2106  0.4116
   73SLPC   O11 6408   4.488   6.023   7.433  0.1533  0.5280  0.1772
   73SLPC    C1 6409   4.405   5.925   7.374  0.7447 -0.0688 -0.1694
   73SLPC    HA 6410   4.434   5.818   7.386 -2.2381 -1.3646 -3.0177
   73SLPC    HB 6411   4.304   5.937   7.418  1.0426  0.3890  0.3981
   73SLPC    C2 6412   4.374   5.953   7.222 -0.0757 -0.1525 -1.0424
   73SLPC    HS 6413   4.478   5.940   7.185  0.5809 -0.9853  0.9273
   73SLPC   O21 6414   4.321   6.087   7.217 -0.4544 -0.0283  0.4931
   73SLPC   C21 6415   4.358   6.159   7.105  0.3499  0.4105  0.3063
   73SLPC   O22 6416   4.445   6.124   7.020 -0.2519  0.6101  0.2216
   73SLPC   C22 6417   4.280   6.286   7.100  0.5305  0.1212 -0.6913
   73SLPC   H2R 6418   4.175   6.251   7.107  0.4118  0.6159  0.1250
   73SLPC   H2S 6419   4.303   6.348   7.190 -0.0780  0.5619 -0.8330
   73SLPC    C3 6420   4.266   5.859   7.160  0.1506  0.0886  0.5233
   73SLPC    HX 6421   4.177   5.866   7.226 -0.5819  1.6890 -0.5619
   73SLPC    HY 6422   4.286   5.750   7.163  1.1597  0.2922  2.2413
   73SLPC   O31 6423   4.219   5.900   7.032 -0.6621  0.7473  0.8056
   73SLPC   C31 6424   4.293   5.847   6.931 -0.9931 -0.4131 -0.8365
   73SLPC   O32 6425   4.391   5.777   6.946 -0.0006 -0.7726 -0.2649
   73SLPC   C32 6426   4.218   5.851   6.792  0.0460 -0.3448  0.1169
   73SLPC   H2X 6427   4.134   5.923   6.801 -0.5799 -1.2488  2.6864
   73SLPC   H2Y 6428   4.171   5.751   6.779 -3.0942  0.9546  0.6462
   73SLPC   C23 6429   4.300   6.361   6.964 -0.2640  0.0505 -0.7488
   73SLPC   H3R 6430   4.408   6.384   6.950 -0.0750 -1.3087 -1.6643
   73SLPC   H3S 6431   4.233   6.448   6.981 -0.1339  0.5162 -2.4435
   73SLPC   C24 6432   4.248   6.285   6.842  0.5712 -0.4983 -0.1261
   73SLPC   H4R 6433   4.151   6.237   6.869  0.1386  0.5828  0.2826
   73SLPC   H4S 6434   4.321   6.203   6.824  0.0365 -0.8868 -0.5535
   73SLPC   C25 6435   4.235   6.380   6.722 -0.9276 -0.3262 -0.3482
   73SLPC   H5R 6436   4.337   6.406   6.687 -0.0404  0.9014  2.8062
   73SLPC   H5S 6437   4.180   6.467   6.764 -0.3810  0.1298 -0.5740
   73SLPC   C26 6438   4.169   6.328   6.597  0.5658 -0.4131  0.0935
   73SLPC   H6R 6439   4.074   6.274   6.620  0.6573 -0.1409  1.1820
   73SLPC   H6S 6440   4.234   6.248   6.559  2.8755  0.2689  2.3102
   73SLPC   C27 6441   4.156   6.440   6.493  0.0901 -0.2530  0.5714
   73SLPC   H7R 6442   4.251   6.486   6.459 -0.6525  0.0165 -1.2630
   73SLPC   H7S 6443   4.094   6.521   6.537  1.8732  0.6034  1.5898
   73SLPC   C28 6444   4.079   6.382   6.372 -0.6032 -0.1216 -0.6307
   73SLPC   H8R 6445   3.988   6.332   6.412  0.7686 -0.6862  1.9715
   73SLPC   H8S 6446   4.139   6.299   6.329  0.7829  1.1982 -1.3393
   73SLPC   C29 6447   4.051   6.493   6.269 -0.8520 -0.1865 -0.6791
   73SLPC   H9R 6448   3.977   6.573   6.286 -1.1400 -0.2762 -1.4602
   73SLPC  C210 6449   4.104   6.502   6.148  0.5171 -0.1237 -0.1055
   73SLPC  H10R 6450   4.084   6.586   6.080  3.7137  0.2634 -0.7339
   73SLPC  C211 6451   4.206   6.407   6.092 -0.1206  0.2591  0.0102
   73SLPC  H11R 6452   4.144   6.332   6.038  0.2987 -0.9392  1.1135
   73SLPC  H11S 6453   4.266   6.357   6.172 -0.7815  1.3602  1.2395
   73SLPC  C212 6454   4.300   6.476   5.994 -0.2497  0.3692  0.4385
   73SLPC  H12R 6455   4.356   6.558   6.041  0.9167  0.6223 -1.2775
   73SLPC  C213 6456   4.301   6.471   5.860 -0.0706 -0.3056 -0.4365
   73SLPC  H13R 6457   4.385   6.519   5.808  0.4087 -0.8926 -0.2146
   73SLPC  C214 6458   4.228   6.381   5.763 -0.3243 -0.6562  0.5118
   73SLPC  H14R 6459   4.157   6.315   5.818  0.1333 -0.4245  1.3928
   73SLPC  H14S 6460   4.306   6.318   5.717  2.7557  2.9512  0.3110
   73SLPC  C215 6461   4.163   6.467   5.648  0.1316  0.4765 -0.9802
   73SLPC  H15R 6462   4.130   6.397   5.568  0.0074 -1.0651  0.3684
   73SLPC  H15S 6463   4.237   6.539   5.605  1.1106  1.2425  1.7427
   73SLPC  C216 6464   4.042   6.549   5.698 -0.1315 -0.0642  0.3062
   73SLPC  H16R 6465   4.074   6.622   5.775 -1.0503 -0.0370  0.6788
   73SLPC  H16S 6466   3.975   6.486   5.760  0.3473 -1.9998 -1.0436
   73SLPC  C217 6467   3.970   6.633   5.585  0.3992  0.2847  0.7639
   73SLPC  H17R 6468   3.972   6.570   5.493  1.0062  1.2948  0.0586
   73SLPC  H17S 6469   4.031   6.721   5.557 -0.4799  0.3726 -1.0432
   73SLPC  C218 6470   3.833   6.692   5.615  0.0749 -0.1367  0.2103
   73SLPC  H18R 6471   3.855   6.770   5.691  1.4633  0.8005 -1.0976
   73SLPC  H18S 6472   3.755   6.618   5.643 -0.5966  0.5530  0.1750
   73SLPC  H18T 6473   3.791   6.734   5.522 -0.1552 -2.1525 -0.6459
   73SLPC   C33 6474   4.312   5.888   6.683 -0.0612 -0.0291  0.4390
   73SLPC   H3X 6475   4.394   5.814   6.675 -0.0727  0.1690 -4.0364
   73SLPC   H3Y 6476   4.364   5.984   6.707 -0.9010  0.7285 -0.6430
   73SLPC   C34 6477   4.261   5.908   6.538 -0.1008 -0.0629 -0.4480
   73SLPC   H4X 6478   4.164   5.962   6.534 -1.5119 -2.1662  2.3054
   73SLPC   H4Y 6479   4.238   5.807   6.498  0.4234 -0.1637 -0.4959
   73SLPC   C35 6480   4.368   5.971   6.441  0.0423 -0.0756 -0.3983
   73SLPC   H5X 6481   4.460   5.909   6.430  0.2877  0.3526 -0.7527
   73SLPC   H5Y 6482   4.404   6.070   6.474 -2.0211  0.6985 -0.3127
   73SLPC   C36 6483   4.293   5.993   6.305  0.2985 -0.2704  0.2554
   73SLPC   H6X 6484   4.208   6.062   6.323  1.1279  0.9172 -0.2990
   73SLPC   H6Y 6485   4.262   5.894   6.265 -1.3433  0.2903  0.0479
   73SLPC   C37 6486   4.393   6.060   6.209  0.5635  0.2516 -0.4098
   73SLPC   H7X 6487   4.473   5.984   6.194  0.9039  0.7265 -1.0861
   73SLPC   H7Y 6488   4.436   6.155   6.247 -1.4793  0.4678  1.5193
   73SLPC   C38 6489   4.337   6.092   6.067 -0.0648  0.5915  0.4200
   73SLPC   H8X 6490   4.386   6.179   6.019  1.1287 -0.2739  0.0014
   73SLPC   H8Y 6491   4.236   6.136   6.078 -1.6728 -1.7204 -3.0293
   73SLPC   C39 6492   4.319   5.969   5.974 -0.2957  0.0863 -0.0995
   73SLPC   H9X 6493   4.271   5.886   6.031  1.1373 -1.0220 -0.4418
   73SLPC   H9Y 6494   4.415   5.929   5.935 -0.8897 -1.6480  0.1154
   73SLPC  C310 6495   4.220   5.995   5.851 -0.4851  0.4517  0.2641
   73SLPC  H10X 6496   4.277   6.050   5.773  0.4885 -0.9195 -0.0222
   73SLPC  H10Y 6497   4.143   6.068   5.885  0.8340  1.3113  1.5813
   73SLPC  C311 6498   4.151   5.874   5.808 -0.2011 -0.3022  0.0396
   73SLPC  H11X 6499   4.092   5.905   5.719 -2.0262  0.4803  1.4485
   73SLPC  H11Y 6500   4.082   5.836   5.887  1.0492 -2.6525  0.0668
   73SLPC  C312 6501   4.251   5.758   5.777  0.1344  0.1665 -0.2465
   73SLPC  H12X 6502   4.306   5.731   5.870 -1.2274 -0.5114  0.4026
   73SLPC  H12Y 6503   4.321   5.819   5.717 -0.5772  1.0709 -0.1780
   73SLPC  C313 6504   4.203   5.636   5.697 -0.4618  0.4627  0.1556
   73SLPC  H13X 6505   4.116   5.583   5.742  0.8084 -2.1539 -0.2524
   73SLPC  H13Y 6506   4.296   5.575   5.696  0.6750  2.1436  0.2489
   73SLPC  C314 6507   4.182   5.682   5.546  0.1400  0.5831  0.0092
   73SLPC  H14X 6508   4.269   5.744   5.516  0.0061  0.5695 -0.4153
   73SLPC  H14Y 6509   4.088   5.740   5.553 -0.1715 -0.0267  1.1231
   73SLPC  C315 6510   4.153   5.556   5.457  0.1191  0.6308  0.0015
   73SLPC  H15X 6511   4.066   5.506   5.506 -0.3921  2.1431  0.6884
   73SLPC  H15Y 6512   4.243   5.491   5.449 -1.1673 -1.1247 -0.9616
   73SLPC  C316 6513   4.113   5.594   5.311 -0.3859  0.3237  0.3697
   73SLPC  H16X 6514   4.061   5.692   5.314  1.0364  1.1076  0.7579
   73SLPC  H16Y 6515   4.056   5.505   5.276 -0.8216  0.4198  0.8257
   73SLPC  C317 6516   4.241   5.626   5.232  0.4800 -0.4226  0.9798
   73SLPC  H17X 6517   4.286   5.525   5.228  1.4556 -0.0102  1.1430
   73SLPC  H17Y 6518   4.311   5.695   5.283  0.9019  0.7639 -1.0635
   73SLPC  C318 6519   4.215   5.652   5.078 -0.2879  0.1570  0.1461
   73SLPC  H18X 6520   4.194   5.555   5.028 -0.8322  0.0819  0.5183
   73SLPC  H18Y 6521   4.301   5.712   5.039 -0.4639  0.0256 -0.4543
   73SLPC  H18Z 6522   4.124   5.715   5.069  0.0385  0.7550  0.8603
   74SLPC     N 6523   6.275   6.488   7.464  0.1224 -0.6179  0.1022
   74SLPC   C13 6524   6.311   6.500   7.605 -0.0792  0.1305 -0.2123
   74SLPC  H13A 6525   6.348   6.597   7.632 -1.2517  0.3952  0.5338
   74SLPC  H13B 6526   6.224   6.490   7.668 -0.0990 -0.4375 -0.3220
   74SLPC  H13C 6527   6.390   6.435   7.639  0.8704  0.7428 -1.2198
   74SLPC   C14 6528   6.243   6.342   7.439 -0.0028  0.3088  0.4355
   74SLPC  H14A 6529   6.215   6.331   7.335 -1.6535 -0.9315  0.9805
   74SLPC  H14B 6530   6.325   6.273   7.453 -0.4839 -0.4802 -0.5052
   74SLPC  H14C 6531   6.161   6.309   7.501 -0.1410 -0.3306 -0.0783
   74SLPC   C15 6532   6.391   6.530   7.382 -0.4645  0.5377 -0.5857
   74SLPC  H15A 6533   6.468   6.455   7.389 -1.7336 -1.0163 -2.2169
   74SLPC  H15B 6534   6.358   6.546   7.280 -2.4796 -1.8515 -0.3842
   74SLPC  H15C 6535   6.442   6.621   7.413  0.5027 -0.5562  1.1934
   74SLPC   C12 6536   6.158   6.578   7.434  0.4781  0.0152  0.1398
   74SLPC  H12A 6537   6.188   6.681   7.451  0.3730  0.2288 -0.9227
   74SLPC  H12B 6538   6.074   6.549   7.495 -0.0181  1.6419  0.2603
   74SLPC   C11 6539   6.100   6.580   7.286  0.2079 -0.3686  0.3176
   74SLPC  H11A 6540   6.177   6.599   7.209 -1.1480  1.9165 -0.5559
   74SLPC  H11B 6541   6.038   6.671   7.274 -0.6450 -0.5926  2.4913
   74SLPC     P 6542   5.891   6.431   7.325  0.3635  0.2765  0.0610
   74SLPC   O13 6543   5.899   6.309   7.411  0.1407  0.3706  0.5129
   74SLPC   O14 6544   5.845   6.556   7.393  0.0145  0.1575  0.5143
   74SLPC   O12 6545   6.033   6.456   7.257 -0.2814  0.1702 -0.0813
   74SLPC   O11 6546   5.797   6.395   7.205  0.2474  0.2661  0.0019
   74SLPC    C1 6547   5.770   6.479   7.091  0.4293 -0.1395  0.0935
   74SLPC    HA 6548   5.853   6.551   7.077  0.6685 -0.6560 -1.2426
   74SLPC    HB 6549   5.770   6.419   6.998 -0.1567 -1.3277  0.8326
   74SLPC    C2 6550   5.628   6.546   7.090 -0.0423  0.1842  0.3594
   74SLPC    HS 6551   5.615   6.590   7.192 -1.8394  2.2522 -0.6585
   74SLPC   O21 6552   5.530   6.440   7.067 -0.3351  0.3083 -0.1927
   74SLPC   C21 6553   5.402   6.480   7.085 -0.0954  0.4412  0.0750
   74SLPC   O22 6554   5.374   6.589   7.129  0.5625 -0.3895  0.3904
   74SLPC   C22 6555   5.300   6.369   7.050 -0.4844  0.1524 -0.2761
   74SLPC   H2R 6556   5.270   6.317   7.144 -0.6280  1.0114  0.1667
   74SLPC   H2S 6557   5.208   6.424   7.020 -0.9734 -0.5451 -0.0914
   74SLPC    C3 6558   5.614   6.663   6.987  1.3146  0.0477 -0.4098
   74SLPC    HX 6559   5.692   6.737   7.016  1.6636 -0.6666  0.5035
   74SLPC    HY 6560   5.517   6.718   6.997 -0.2044 -2.0646 -2.5275
   74SLPC   O31 6561   5.644   6.614   6.857  0.0051 -0.1402 -0.2239
   74SLPC   C31 6562   5.563   6.646   6.758  0.4542 -0.1166  0.0661
   74SLPC   O32 6563   5.467   6.718   6.765 -0.1377  0.2795 -0.6076
   74SLPC   C32 6564   5.603   6.569   6.635 -0.3626 -0.1315  0.2356
   74SLPC   H2X 6565   5.599   6.464   6.671  0.6610 -0.4817 -0.6397
   74SLPC   H2Y 6566   5.709   6.595   6.614 -0.8035  0.9848 -0.7783
   74SLPC   C23 6567   5.338   6.268   6.945  0.1024 -0.3713  0.4402
   74SLPC   H3R 6568   5.401   6.192   6.995  2.0417  0.5301 -0.5255
   74SLPC   H3S 6569   5.395   6.312   6.860  1.2553  0.1396  1.4513
   74SLPC   C24 6570   5.214   6.182   6.904 -0.1895 -0.1487 -0.1620
   74SLPC   H4R 6571   5.146   6.181   6.991  2.2711 -0.0873  1.8875
   74SLPC   H4S 6572   5.253   6.079   6.893  1.0365  0.4763 -2.3813
   74SLPC   C25 6573   5.134   6.234   6.788  0.5251 -0.2864 -0.0616
   74SLPC   H5R 6574   5.110   6.340   6.813 -4.6884 -1.8584  3.2852
   74SLPC   H5S 6575   5.042   6.177   6.763 -0.0456  1.6339 -2.7213
   74SLPC   C26 6576   5.202   6.221   6.651  0.5183  0.2520  0.4795
   74SLPC   H6R 6577   5.246   6.119   6.640  0.6506  0.1946  1.4611
   74SLPC   H6S 6578   5.286   6.292   6.638  1.2063 -0.9720 -2.7099
   74SLPC   C27 6579   5.108   6.245   6.530 -0.7315 -0.3463  0.7218
   74SLPC   H7R 6580   5.068   6.348   6.535 -0.3645 -0.2556  2.1477
   74SLPC   H7S 6581   5.020   6.186   6.562 -2.5193  0.3759 -2.4087
   74SLPC   C28 6582   5.157   6.200   6.384  0.0787 -0.0919  0.1625
   74SLPC   H8R 6583   5.182   6.094   6.403  0.5502  0.4535  2.9854
   74SLPC   H8S 6584   5.251   6.255   6.363 -1.6020  2.7232 -0.4719
   74SLPC   C29 6585   5.051   6.221   6.280  0.8945  0.1483 -0.7003
   74SLPC   H9R 6586   4.948   6.201   6.313  1.1476  0.2146  0.1377
   74SLPC  C210 6587   5.074   6.255   6.146 -0.1230 -0.2142 -0.6704
   74SLPC  H10R 6588   4.989   6.258   6.076 -1.1952 -1.8747  0.4747
   74SLPC  C211 6589   5.219   6.283   6.103 -0.0380  0.2820  0.0475
   74SLPC  H11R 6590   5.303   6.258   6.171  0.1581  1.3235  0.2110
   74SLPC  H11S 6591   5.236   6.392   6.088 -3.4395  0.7140 -1.8212
   74SLPC  C212 6592   5.232   6.213   5.970 -0.5670 -0.0347  0.1992
   74SLPC  H12R 6593   5.259   6.106   5.976  0.0854  0.0543 -0.8815
   74SLPC  C213 6594   5.201   6.260   5.849  0.2381  0.7402  0.0183
   74SLPC  H13R 6595   5.228   6.199   5.762  1.6105 -0.1855  1.0379
   74SLPC  C214 6596   5.151   6.391   5.806 -0.0393 -0.7754  0.4555
   74SLPC  H14R 6597   5.131   6.456   5.894  0.4077  1.7369 -1.2197
   74SLPC  H14S 6598   5.056   6.378   5.751 -0.9235  0.6311  1.5746
   74SLPC  C215 6599   5.258   6.461   5.722 -0.4897 -0.7320  0.5252
   74SLPC  H15R 6600   5.323   6.385   5.674  1.2378 -1.0424  3.1516
   74SLPC  H15S 6601   5.324   6.513   5.795  3.1227 -1.1629 -2.1829
   74SLPC  C216 6602   5.214   6.570   5.625  0.4799 -0.0809 -0.8499
   74SLPC  H16R 6603   5.141   6.641   5.670 -0.1022 -0.5641 -1.0006
   74SLPC  H16S 6604   5.154   6.526   5.543 -1.3939  0.7519 -0.0031
   74SLPC  C217 6605   5.327   6.648   5.564 -0.2691  0.4026  0.1872
   74SLPC  H17R 6606   5.390   6.576   5.506 -0.8212  2.0441 -2.6391
   74SLPC  H17S 6607   5.390   6.682   5.649 -1.6645 -2.0417  2.3715
   74SLPC  C218 6608   5.286   6.767   5.480 -1.0662 -0.4712  0.1470
   74SLPC  H18R 6609   5.227   6.740   5.390 -0.3436 -0.3654 -0.3639
   74SLPC  H18S 6610   5.375   6.827   5.451 -2.5971  1.3879 -1.0030
   74SLPC  H18T 6611   5.231   6.847   5.535 -0.1790 -0.6838  1.3718
   74SLPC   C33 6612   5.515   6.600   6.514 -0.0112  0.0635  0.1834
   74SLPC   H3X 6613   5.534   6.708   6.496  1.4282  0.0112  1.1860
   74SLPC   H3Y 6614   5.406   6.587   6.527  0.2377 -0.9728  1.3984
   74SLPC   C34 6615   5.574   6.522   6.394  0.5489 -0.4036  0.6983
   74SLPC   H4X 6616   5.550   6.413   6.398 -0.9790 -0.0505  2.5953
   74SLPC   H4Y 6617   5.684   6.540   6.392  0.7627 -1.6050 -0.1868
   74SLPC   C35 6618   5.516   6.588   6.262 -0.8134  0.6207 -0.4054
   74SLPC   H5X 6619   5.515   6.699   6.270  0.3720  0.6971 -1.1477
   74SLPC   H5Y 6620   5.410   6.554   6.255 -0.0016 -2.0068 -1.2164
   74SLPC   C36 6621   5.596   6.538   6.140  0.4306  0.7240  0.2290
   74SLPC   H6X 6622   5.568   6.434   6.114 -0.6371  1.3718 -1.4338
   74SLPC   H6Y 6623   5.702   6.528   6.168  0.7234 -2.1733 -1.4705
   74SLPC   C37 6624   5.563   6.621   6.018 -0.1253  0.2303  0.0619
   74SLPC   H7X 6625   5.626   6.711   6.035  1.1361 -0.8895  1.5826
   74SLPC   H7Y 6626   5.458   6.656   6.009 -0.8754 -1.3606  1.9512
   74SLPC   C38 6627   5.613   6.542   5.907 -0.5993 -0.3014  0.5407
   74SLPC   H8X 6628   5.580   6.592   5.813  0.4099  2.5092  1.5731
   74SLPC   H8Y 6629   5.579   6.436   5.904 -1.8104  0.0800 -0.8007
   74SLPC   C39 6630   5.763   6.557   5.883  0.5577  0.3381 -0.5537
   74SLPC   H9X 6631   5.820   6.521   5.971 -0.6064 -1.8033 -0.6178
   74SLPC   H9Y 6632   5.789   6.665   5.875  1.2421  0.1162 -1.4147
   74SLPC  C310 6633   5.819   6.498   5.757 -0.0935  0.7054 -0.3062
   74SLPC  H10X 6634   5.920   6.543   5.755  0.5964 -0.3344  3.0681
   74SLPC  H10Y 6635   5.756   6.516   5.667 -2.1544 -2.4066  0.3216
   74SLPC  C311 6636   5.847   6.348   5.767  0.5200  0.8373  0.7477
   74SLPC  H11X 6637   5.750   6.294   5.775 -0.0453  1.2833 -2.0177
   74SLPC  H11Y 6638   5.905   6.330   5.861  1.8763 -0.2373 -0.2556
   74SLPC  C312 6639   5.930   6.291   5.654  0.0640  0.5616  0.1312
   74SLPC  H12X 6640   5.922   6.183   5.676  0.0424  0.7983  1.3146
   74SLPC  H12Y 6641   6.034   6.330   5.657  0.0693  0.5279  0.3622
   74SLPC  C313 6642   5.853   6.305   5.518 -0.7542  0.0585 -0.0684
   74SLPC  H13X 6643   5.856   6.408   5.476  0.2863 -0.2485 -0.7920
   74SLPC  H13Y 6644   5.751   6.263   5.533 -0.5761 -0.2360  0.3363
   74SLPC  C314 6645   5.908   6.202   5.419  0.0183 -0.0022 -0.3637
   74SLPC  H14X 6646   6.017   6.186   5.437  0.1963  0.3016 -1.1078
   74SLPC  H14Y 6647   5.900   6.255   5.321  1.1632  0.9067  0.0053
   74SLPC  C315 6648   5.845   6.062   5.429  0.2594  0.2018 -0.3388
   74SLPC  H15X 6649   5.742   6.084   5.393  0.6590  1.8702 -0.5336
   74SLPC  H15Y 6650   5.842   6.027   5.535 -0.1872 -0.6517 -0.6206
   74SLPC  C316 6651   5.919   5.962   5.336 -0.4100 -0.1377  0.0105
   74SLPC  H16X 6652   5.875   5.860   5.340  2.2506 -1.4568 -1.2001
   74SLPC  H16Y 6653   6.017   5.939   5.385  0.4421  1.2508 -0.9808
   74SLPC  C317 6654   5.944   6.010   5.194  0.6346  0.1717 -0.4937
   74SLPC  H17X 6655   6.027   6.083   5.202  1.2456 -0.7264  2.9775
   74SLPC  H17Y 6656   5.857   6.065   5.153  0.9043  2.0602  1.2960
   74SLPC  C318 6657   5.988   5.891   5.104  0.8947 -0.2448 -0.0267
   74SLPC  H18X 6658   6.028   5.910   5.002  0.7096 -2.0740 -0.4853
   74SLPC  H18Y 6659   5.902   5.825   5.083 -0.3638  1.1528  0.5647
   74SLPC  H18Z 6660   6.064   5.830   5.158  2.1303  1.8410  0.7030
   75SLPC     N 6661   2.703   1.346   7.368  0.5836  0.3249  0.0591
   75SLPC   C13 6662   2.826   1.382   7.447 -0.1968 -0.5727  0.2620
   75SLPC  H13A 6663   2.796   1.422   7.543 -2.1856  2.1679 -1.3332
   75SLPC  H13B 6664   2.889   1.298   7.471  1.9042  1.0420  0.6976
   75SLPC  H13C 6665   2.880   1.461   7.397  0.0814  0.6683  2.3927
   75SLPC   C14 6666   2.752   1.303   7.233 -0.0803 -0.0641 -0.5628
   75SLPC  H14A 6667   2.811   1.370   7.173  1.2776 -2.0351 -1.5679
   75SLPC  H14B 6668   2.809   1.211   7.234  1.9357  1.1439 -0.6214
   75SLPC  H14C 6669   2.666   1.284   7.170  0.3219  0.1336 -1.1793
   75SLPC   C15 6670   2.627   1.472   7.343 -0.1015  0.5988 -0.1641
   75SLPC  H15A 6671   2.532   1.459   7.294 -0.4446 -1.5268  0.9397
   75SLPC  H15B 6672   2.614   1.521   7.438 -0.2500 -1.0830  0.7226
   75SLPC  H15C 6673   2.690   1.536   7.283  0.5527 -0.3199 -0.4904
   75SLPC   C12 6674   2.624   1.238   7.441 -0.1111  0.2361  0.0084
   75SLPC  H12A 6675   2.624   1.267   7.545 -0.4487  0.8861 -0.1645
   75SLPC  H12B 6676   2.672   1.141   7.445 -1.0769 -0.2159  1.2371
   75SLPC   C11 6677   2.484   1.209   7.377 -0.1900 -0.7645 -0.3747
   75SLPC  H11A 6678   2.495   1.125   7.305  0.7802 -2.8179  1.9883
   75SLPC  H11B 6679   2.445   1.295   7.319 -0.0603 -0.1082  0.4855
   75SLPC     P 6680   2.300   1.279   7.550  0.2260 -0.0805 -0.1150
   75SLPC   O13 6681   2.345   1.290   7.694  0.7633  0.3928  0.3135
   75SLPC   O14 6682   2.313   1.404   7.473  0.5895  0.2298 -0.6698
   75SLPC   O12 6683   2.395   1.170   7.481 -0.3108 -0.0119  0.3530
   75SLPC   O11 6684   2.162   1.216   7.540  0.2231  0.5547 -0.4076
   75SLPC    C1 6685   2.132   1.090   7.484  0.3714 -0.1264 -0.7169
   75SLPC    HA 6686   2.214   1.018   7.466 -0.8126 -1.1823 -2.0821
   75SLPC    HB 6687   2.067   1.050   7.564 -0.7906  1.8364 -0.5957
   75SLPC    C2 6688   2.047   1.106   7.354 -0.7947  1.0260 -0.2114
   75SLPC    HS 6689   2.018   1.006   7.315  1.7325 -0.3869  1.2499
   75SLPC   O21 6690   2.116   1.176   7.256  0.4869 -1.0458  0.3884
   75SLPC   C21 6691   2.214   1.118   7.194  0.6103  0.7810  0.5607
   75SLPC   O22 6692   2.252   1.004   7.213 -0.2708  0.3140  0.5539
   75SLPC   C22 6693   2.262   1.198   7.080  0.0899  0.2196 -0.2218
   75SLPC   H2R 6694   2.279   1.302   7.116 -1.1346 -0.3328  2.1967
   75SLPC   H2S 6695   2.361   1.153   7.058  0.6258 -0.3678  2.8982
   75SLPC    C3 6696   1.916   1.181   7.386  0.2559  0.6614  0.3675
   75SLPC    HX 6697   1.948   1.284   7.412  3.5810 -0.1072 -0.2158
   75SLPC    HY 6698   1.874   1.143   7.482 -0.4948 -0.8321 -0.5139
   75SLPC   O31 6699   1.822   1.184   7.271  0.0116  0.2543  0.6842
   75SLPC   C31 6700   1.706   1.117   7.291 -0.2454  0.8566  0.1420
   75SLPC   O32 6701   1.669   1.071   7.399  0.2284 -0.2360  1.1283
   75SLPC   C32 6702   1.624   1.106   7.159  0.5154  0.0507  0.0625
   75SLPC   H2X 6703   1.580   1.206   7.141 -1.4699 -0.7888  0.0673
   75SLPC   H2Y 6704   1.536   1.042   7.180 -0.1647  0.1119 -2.3270
   75SLPC   C23 6705   2.170   1.202   6.959  0.3760 -0.4204 -0.0165
   75SLPC   H3R 6706   2.094   1.122   6.967 -0.1770  0.1221  0.2515
   75SLPC   H3S 6707   2.234   1.180   6.871 -0.0573  0.6693 -0.6246
   75SLPC   C24 6708   2.099   1.337   6.953 -0.0117 -0.2021  0.4964
   75SLPC   H4R 6709   2.170   1.423   6.949  1.0401 -1.0550 -3.2410
   75SLPC   H4S 6710   2.043   1.356   7.047  2.3083  2.1175  1.5470
   75SLPC   C25 6711   1.997   1.351   6.832 -0.2481  0.3590  0.1039
   75SLPC   H5R 6712   1.929   1.436   6.855  1.7711  1.0241  5.0068
   75SLPC   H5S 6713   1.943   1.255   6.824  1.7172 -0.8099  0.1546
   75SLPC   C26 6714   2.066   1.364   6.692 -0.0581 -0.1297  0.3771
   75SLPC   H6R 6715   2.159   1.303   6.692  0.6974  0.9847 -0.0277
   75SLPC   H6S 6716   2.097   1.471   6.688 -0.0105 -0.1242  0.8775
   75SLPC   C27 6717   1.981   1.334   6.569  0.0566 -0.1624 -0.1731
   75SLPC   H7R 6718   1.904   1.413   6.578  1.9522  1.6219  1.5265
   75SLPC   H7S 6719   1.941   1.230   6.578  2.0113 -0.9941 -0.5838
   75SLPC   C28 6720   2.069   1.321   6.438 -0.2531 -0.7370  0.3971
   75SLPC   H8R 6721   2.009   1.263   6.364  1.5330 -0.9966 -0.9018
   75SLPC   H8S 6722   2.164   1.268   6.459  1.8766  1.6029 -2.5060
   75SLPC   C29 6723   2.098   1.464   6.376  0.2729  0.8496 -0.1285
   75SLPC   H9R 6724   2.168   1.519   6.440  1.1660 -2.7074  2.2667
   75SLPC  C210 6725   2.054   1.513   6.266  0.4476 -0.3866 -0.2431
   75SLPC  H10R 6726   2.074   1.618   6.238 -1.7688  0.1026 -0.1318
   75SLPC  C211 6727   1.970   1.448   6.151 -0.3218  0.0907 -0.1292
   75SLPC  H11R 6728   1.892   1.513   6.107 -0.8541 -1.0452 -0.9046
   75SLPC  H11S 6729   1.920   1.354   6.184  1.2854 -0.1284  1.9429
   75SLPC  C212 6730   2.072   1.393   6.052  0.5364 -0.4810  0.0164
   75SLPC  H12R 6731   2.150   1.325   6.087  2.8286  1.9261 -0.1142
   75SLPC  C213 6732   2.065   1.411   5.917 -0.4080  0.5809  0.5140
   75SLPC  H13R 6733   2.159   1.394   5.862 -1.1225  2.2539 -1.2935
   75SLPC  C214 6734   1.955   1.480   5.835 -0.6192 -0.1261 -1.2019
   75SLPC  H14R 6735   1.989   1.582   5.809 -0.2890 -0.2920 -1.4305
   75SLPC  H14S 6736   1.858   1.480   5.890 -0.2666  0.1304 -0.5634
   75SLPC  C215 6737   1.935   1.407   5.705  0.2665  0.3331 -0.2267
   75SLPC  H15R 6738   1.837   1.440   5.666  0.1542  0.4063  0.1168
   75SLPC  H15S 6739   1.916   1.301   5.728  1.7328  0.4699  1.9491
   75SLPC  C216 6740   2.040   1.424   5.607  0.3845  0.1116 -0.1315
   75SLPC  H16R 6741   2.124   1.355   5.627 -0.9563 -1.1782  1.4212
   75SLPC  H16S 6742   2.082   1.526   5.612  0.3040  0.1188  0.5143
   75SLPC  C217 6743   1.995   1.408   5.458  0.3713 -0.3892 -0.3821
   75SLPC  H17R 6744   1.912   1.478   5.435  1.0634  1.0889  1.3876
   75SLPC  H17S 6745   1.960   1.308   5.425 -2.0543  0.1516  0.3400
   75SLPC  C218 6746   2.101   1.465   5.362  0.1008  0.4593  0.0230
   75SLPC  H18R 6747   2.076   1.450   5.255  1.9848 -3.8097  0.0032
   75SLPC  H18S 6748   2.195   1.407   5.366 -0.7705 -1.1002 -1.0381
   75SLPC  H18T 6749   2.122   1.572   5.382 -1.4297  1.6842 -3.9670
   75SLPC   C33 6750   1.698   1.071   7.027 -0.6866 -0.4185 -0.3584
   75SLPC   H3X 6751   1.769   0.988   7.048 -1.9205 -1.9541 -1.9053
   75SLPC   H3Y 6752   1.765   1.155   6.998 -0.0867 -0.5096  0.7102
   75SLPC   C34 6753   1.595   1.027   6.918 -0.0159 -0.0270 -0.1138
   75SLPC   H4X 6754   1.515   1.103   6.901 -0.5769  0.1866  2.9082
   75SLPC   H4Y 6755   1.543   0.933   6.948  1.9783 -0.7440  1.3245
   75SLPC   C35 6756   1.657   1.016   6.788 -0.3985  0.0707  0.3285
   75SLPC   H5X 6757   1.731   0.934   6.789 -0.9657 -0.4475  0.7613
   75SLPC   H5Y 6758   1.714   1.110   6.771  1.1607 -0.4792  2.1503
   75SLPC   C36 6759   1.552   0.996   6.674  0.1306  0.3794  0.1587
   75SLPC   H6X 6760   1.503   1.093   6.650 -1.3560 -0.1565  0.8985
   75SLPC   H6Y 6761   1.478   0.923   6.712  0.3108 -1.9678 -3.5935
   75SLPC   C37 6762   1.606   0.961   6.535  0.3888 -0.7145  0.1094
   75SLPC   H7X 6763   1.519   0.937   6.469  0.9975  0.2365 -1.0748
   75SLPC   H7Y 6764   1.677   0.876   6.546  0.1599 -0.9857 -0.4589
   75SLPC   C38 6765   1.688   1.082   6.468  0.5269 -0.2160  0.2659
   75SLPC   H8X 6766   1.762   1.123   6.540 -0.4816  1.5954  0.3378
   75SLPC   H8Y 6767   1.624   1.172   6.454  0.9703 -0.0171 -0.5636
   75SLPC   C39 6768   1.740   1.045   6.328  0.0575 -0.0828 -0.0942
   75SLPC   H9X 6769   1.739   0.935   6.315  1.6073 -0.0504 -0.6593
   75SLPC   H9Y 6770   1.847   1.074   6.325  1.3702 -3.2984  4.4507
   75SLPC  C310 6771   1.658   1.099   6.210  0.0083 -0.6321  0.1249
   75SLPC  H10X 6772   1.642   1.208   6.221 -1.3645 -0.7016 -0.9146
   75SLPC  H10Y 6773   1.557   1.052   6.204 -0.2458 -0.6854  3.1567
   75SLPC  C311 6774   1.742   1.089   6.077  0.2963 -0.0299 -0.3918
   75SLPC  H11X 6775   1.765   0.982   6.060 -0.0984 -0.2100  0.1965
   75SLPC  H11Y 6776   1.819   1.169   6.084  0.2896 -0.1081  0.7873
   75SLPC  C312 6777   1.682   1.140   5.946 -0.4413  0.0602  0.4454
   75SLPC  H12X 6778   1.766   1.171   5.881  0.1473 -0.7217  0.8255
   75SLPC  H12Y 6779   1.626   1.227   5.987 -2.0760 -2.2595  3.5453
   75SLPC  C313 6780   1.600   1.033   5.875  1.2510  0.6570 -0.2655
   75SLPC  H13X 6781   1.523   1.007   5.952  1.3982 -1.5121 -0.7706
   75SLPC  H13Y 6782   1.656   0.939   5.855 -0.1072 -0.5052  1.1192
   75SLPC  C314 6783   1.537   1.092   5.749 -0.4530 -0.3033  0.2533
   75SLPC  H14X 6784   1.603   1.054   5.669 -0.6330 -1.4569  0.6444
   75SLPC  H14Y 6785   1.545   1.203   5.751 -0.3654 -0.3242  1.8111
   75SLPC  C315 6786   1.397   1.051   5.708  0.3275 -0.0993  0.2387
   75SLPC  H15X 6787   1.327   1.101   5.778  1.4221  0.6337  0.8569
   75SLPC  H15Y 6788   1.394   0.941   5.721 -0.5260 -0.3192 -1.4910
   75SLPC  C316 6789   1.367   1.082   5.560 -0.0478 -0.3280  0.2831
   75SLPC  H16X 6790   1.434   1.045   5.480  0.7871 -1.2567  1.3736
   75SLPC  H16Y 6791   1.380   1.191   5.548  2.6117 -0.3217  2.2589
   75SLPC  C317 6792   1.222   1.045   5.521 -0.6095 -0.3061 -0.4264
   75SLPC  H17X 6793   1.149   1.082   5.596 -0.4401 -0.1249 -0.3522
   75SLPC  H17Y 6794   1.217   0.934   5.527 -1.6203 -0.3420 -1.6849
   75SLPC  C318 6795   1.170   1.074   5.382 -0.1435  0.3661 -1.3459
   75SLPC  H18X 6796   1.132   1.178   5.370  0.8218  0.6618 -1.9086
   75SLPC  H18Y 6797   1.084   1.008   5.358  1.5899 -1.5073 -2.7589
   75SLPC  H18Z 6798   1.248   1.047   5.308 -1.7362 -0.3675 -2.8443
   76SLPC     N 6799   3.880   1.018   7.371 -0.0659 -0.8608 -0.4727
   76SLPC   C13 6800   3.902   1.049   7.517  0.4857 -0.0879 -0.3505
   76SLPC  H13A 6801   3.909   1.156   7.527 -0.7040  0.0453 -0.6965
   76SLPC  H13B 6802   3.823   1.012   7.580  3.1477 -0.6980  2.8695
   76SLPC  H13C 6803   3.994   1.009   7.555  1.6589  1.8685 -1.0176
   76SLPC   C14 6804   3.858   0.866   7.369 -0.7414 -0.3337  0.1273
   76SLPC  H14A 6805   3.940   0.807   7.409 -1.3263 -1.3230 -0.0916
   76SLPC  H14B 6806   3.769   0.839   7.424 -0.9065  1.3274  0.7167
   76SLPC  H14C 6807   3.839   0.829   7.269 -0.5607 -0.9076  0.2951
   76SLPC   C15 6808   4.001   1.059   7.295 -0.5116 -0.1831 -0.0604
   76SLPC  H15A 6809   4.094   1.016   7.330 -1.4374 -0.7372  1.8760
   76SLPC  H15B 6810   3.976   1.040   7.192  0.0677 -0.8941 -0.0786
   76SLPC  H15C 6811   4.021   1.162   7.320  0.0917 -0.3763  0.2878
   76SLPC   C12 6812   3.756   1.089   7.326  0.2445 -0.2045 -0.0858
   76SLPC  H12A 6813   3.776   1.195   7.339  2.8774 -0.7207  0.7573
   76SLPC  H12B 6814   3.678   1.064   7.396  2.2901 -0.0375  2.4112
   76SLPC   C11 6815   3.702   1.072   7.181 -0.4666 -0.3986 -0.7382
   76SLPC  H11A 6816   3.790   1.088   7.116  0.4007  0.3006  0.5531
   76SLPC  H11B 6817   3.629   1.154   7.163 -1.9091 -1.8260 -1.5646
   76SLPC     P 6818   3.496   0.914   7.228  0.0929 -0.4817 -0.1173
   76SLPC   O13 6819   3.462   0.769   7.197 -0.3120 -0.2603 -0.7569
   76SLPC   O14 6820   3.494   0.960   7.368  0.6045 -0.2276  0.5215
   76SLPC   O12 6821   3.636   0.948   7.164 -0.2223  0.7920 -0.6601
   76SLPC   O11 6822   3.402   1.014   7.153  0.1422 -0.1663 -0.0283
   76SLPC    C1 6823   3.372   0.997   7.015 -0.0206 -0.3158 -0.0634
   76SLPC    HA 6824   3.456   0.963   6.951 -0.1206  1.8463 -1.4266
   76SLPC    HB 6825   3.282   0.935   6.999 -0.7121  0.5926  0.2536
   76SLPC    C2 6826   3.339   1.139   6.952  0.4454  0.8397  0.0615
   76SLPC    HS 6827   3.285   1.194   7.032 -0.6943  2.8139 -1.9321
   76SLPC   O21 6828   3.253   1.120   6.840 -0.6223  0.2672  0.2564
   76SLPC   C21 6829   3.183   1.217   6.808  0.1862 -0.0234  0.3135
   76SLPC   O22 6830   3.155   1.315   6.879 -0.1310 -0.6353  0.6271
   76SLPC   C22 6831   3.128   1.208   6.666 -0.5248  0.3546 -0.0514
   76SLPC   H2R 6832   3.062   1.119   6.659 -1.2437  0.9772 -2.0688
   76SLPC   H2S 6833   3.067   1.301   6.664 -0.8639  0.1269 -1.9765
   76SLPC    C3 6834   3.470   1.213   6.907  0.6685  0.4514  0.4087
   76SLPC    HX 6835   3.517   1.164   6.819 -0.0401  1.8738 -0.8039
   76SLPC    HY 6836   3.541   1.202   6.992 -0.5886  0.1981  1.4553
   76SLPC   O31 6837   3.440   1.347   6.859  0.5123 -0.0046 -0.3106
   76SLPC   C31 6838   3.407   1.437   6.950 -0.1221 -0.0544 -0.2444
   76SLPC   O32 6839   3.415   1.425   7.070  0.3981  0.7829 -0.0731
   76SLPC   C32 6840   3.361   1.567   6.881  0.1528  0.3990 -0.1556
   76SLPC   H2X 6841   3.424   1.649   6.921  0.2467  0.4907 -0.4866
   76SLPC   H2Y 6842   3.260   1.574   6.927  0.5867  2.1019  0.5877
   76SLPC   C23 6843   3.230   1.203   6.558 -0.3115 -0.3345  0.0103
   76SLPC   H3R 6844   3.283   1.105   6.554  0.1499 -0.0685 -3.4791
   76SLPC   H3S 6845   3.313   1.272   6.584 -1.6869  1.0808  0.7813
   76SLPC   C24 6846   3.182   1.239   6.420 -0.2169 -0.2996 -0.0352
   76SLPC   H4R 6847   3.151   1.345   6.435  0.6968 -0.1455  0.9290
   76SLPC   H4S 6848   3.105   1.161   6.408  0.4074 -1.2003  1.5142
   76SLPC   C25 6849   3.290   1.218   6.319  0.3536 -0.2758 -0.6040
   76SLPC   H5R 6850   3.335   1.118   6.333  2.2903  0.6560  0.2783
   76SLPC   H5S 6851   3.371   1.292   6.334  0.9111 -0.5501 -2.1173
   76SLPC   C26 6852   3.226   1.239   6.183  0.3549  0.2596 -0.6572
   76SLPC   H6R 6853   3.168   1.334   6.178  1.5855  1.0337 -0.4225
   76SLPC   H6S 6854   3.156   1.158   6.152  1.0926 -1.3819  1.6841
   76SLPC   C27 6855   3.331   1.240   6.074 -0.0027  0.2075  0.3537
   76SLPC   H7R 6856   3.351   1.135   6.045  0.6758  1.2779 -3.5613
   76SLPC   H7S 6857   3.413   1.305   6.111  1.9959 -0.5156 -2.4553
   76SLPC   C28 6858   3.282   1.310   5.940 -0.3966  0.6578  0.7855
   76SLPC   H8R 6859   3.269   1.419   5.953  0.0014  0.9615 -1.1165
   76SLPC   H8S 6860   3.181   1.268   5.920 -0.0277 -1.6034  3.0684
   76SLPC   C29 6861   3.372   1.280   5.822  0.0444  0.8677 -0.4043
   76SLPC   H9R 6862   3.458   1.215   5.846 -0.5419  0.0024 -0.6085
   76SLPC  C210 6863   3.356   1.305   5.690 -0.0714 -0.7554  0.1466
   76SLPC  H10R 6864   3.431   1.264   5.621  0.1680 -3.8741  2.0749
   76SLPC  C211 6865   3.246   1.386   5.623  0.5085 -0.6646  0.3936
   76SLPC  H11R 6866   3.286   1.417   5.524  0.2214  1.3318  0.8648
   76SLPC  H11S 6867   3.234   1.482   5.678 -0.0620 -0.6523  0.2577
   76SLPC  C212 6868   3.122   1.305   5.603 -0.7323  0.2626 -0.7577
   76SLPC  H12R 6869   3.065   1.294   5.696 -1.8262 -0.7212 -1.5167
   76SLPC  C213 6870   3.080   1.240   5.499  0.0581  0.4160 -0.4783
   76SLPC  H13R 6871   2.990   1.177   5.501  0.9698 -1.0348 -1.8809
   76SLPC  C214 6872   3.137   1.247   5.357  0.7348  0.2106 -0.7417
   76SLPC  H14R 6873   3.156   1.352   5.328  2.2189  0.9784  2.5577
   76SLPC  H14S 6874   3.054   1.231   5.286 -0.2360  1.3701  0.0989
   76SLPC  C215 6875   3.252   1.155   5.331 -0.2148  0.1244  1.1548
   76SLPC  H15R 6876   3.350   1.168   5.384  0.5979 -1.1226  0.0255
   76SLPC  H15S 6877   3.278   1.181   5.226 -0.7161  2.6754  1.6009
   76SLPC  C216 6878   3.224   1.007   5.336 -0.2480  0.2347  0.0354
   76SLPC  H16R 6879   3.114   1.003   5.321 -0.3174  0.5405  0.4584
   76SLPC  H16S 6880   3.238   0.989   5.444  0.7118  2.6203  0.3686
   76SLPC  C217 6881   3.297   0.916   5.235 -0.0526 -0.3883 -0.5022
   76SLPC  H17R 6882   3.407   0.912   5.249  0.0579 -0.7783 -1.3805
   76SLPC  H17S 6883   3.281   0.940   5.127 -1.7228 -1.2470 -0.4760
   76SLPC  C218 6884   3.237   0.773   5.252  0.3426 -0.0422 -0.0417
   76SLPC  H18R 6885   3.306   0.699   5.207  1.4693  0.8229  0.2309
   76SLPC  H18S 6886   3.138   0.769   5.200 -0.3914 -1.0984  1.3843
   76SLPC  H18T 6887   3.225   0.755   5.360 -1.1667 -0.3865 -0.2451
   76SLPC   C33 6888   3.351   1.554   6.730  0.1166 -0.2727  0.2192
   76SLPC   H3X 6889   3.283   1.473   6.696 -1.3616  0.6881  0.8278
   76SLPC   H3Y 6890   3.453   1.527   6.694  0.4016 -0.0937  0.8733
   76SLPC   C34 6891   3.313   1.692   6.670  0.0196  0.4577  0.0515
   76SLPC   H4X 6892   3.394   1.767   6.684  0.8826  0.1058 -2.5088
   76SLPC   H4Y 6893   3.224   1.725   6.728 -0.8259 -1.4988 -0.0551
   76SLPC   C35 6894   3.291   1.673   6.520 -0.0630  0.1416  0.6128
   76SLPC   H5X 6895   3.245   1.760   6.469  0.8123 -0.1312 -0.6868
   76SLPC   H5Y 6896   3.210   1.600   6.501  0.3949 -0.3222  0.4427
   76SLPC   C36 6897   3.409   1.636   6.435  0.2764  0.4618 -0.2977
   76SLPC   H6X 6898   3.454   1.555   6.495 -2.4249 -0.6909  0.2654
   76SLPC   H6Y 6899   3.486   1.717   6.440  0.9040 -0.2083  1.9236
   76SLPC   C37 6900   3.386   1.609   6.288  0.2582 -0.0037  0.1374
   76SLPC   H7X 6901   3.317   1.522   6.279  1.6799 -1.1609  0.0273
   76SLPC   H7Y 6902   3.473   1.591   6.221 -1.2059  0.6871 -2.0731
   76SLPC   C38 6903   3.319   1.720   6.200 -0.2950 -0.6115  0.0187
   76SLPC   H8X 6904   3.220   1.733   6.249 -0.6232  1.1734 -1.0185
   76SLPC   H8Y 6905   3.311   1.682   6.096  2.0918 -1.8866  0.2256
   76SLPC   C39 6906   3.408   1.848   6.203 -0.2209 -0.1447 -0.2268
   76SLPC   H9X 6907   3.505   1.826   6.154  0.9778  1.4466  1.3345
   76SLPC   H9Y 6908   3.423   1.882   6.307 -1.5660  2.6814 -0.8644
   76SLPC  C310 6909   3.353   1.972   6.135  0.3278 -0.5684  0.2369
   76SLPC  H10X 6910   3.429   2.052   6.151 -0.4549 -0.1560  2.1917
   76SLPC  H10Y 6911   3.258   2.005   6.182 -0.2518 -1.1231 -0.5345
   76SLPC  C311 6912   3.309   1.945   5.993 -0.3546  0.0531  0.4253
   76SLPC  H11X 6913   3.279   2.039   5.941  1.4909  0.7581  0.5636
   76SLPC  H11Y 6914   3.220   1.880   5.984 -0.7378  0.7925 -1.8075
   76SLPC  C312 6915   3.421   1.890   5.898 -0.2018  0.0250 -0.2913
   76SLPC  H12X 6916   3.462   1.797   5.943 -1.4265 -0.5515 -0.2999
   76SLPC  H12Y 6917   3.513   1.952   5.891 -0.3041  0.1666 -0.3911
   76SLPC  C313 6918   3.370   1.844   5.763  0.4595 -0.3108 -0.4599
   76SLPC  H13X 6919   3.323   1.930   5.711  0.2633  0.9568  1.6556
   76SLPC  H13Y 6920   3.303   1.755   5.772  2.9696 -2.0835  3.4212
   76SLPC  C314 6921   3.485   1.794   5.672 -0.1127  0.9034  0.2359
   76SLPC  H14X 6922   3.514   1.690   5.697  0.2253  0.6268 -1.2012
   76SLPC  H14Y 6923   3.579   1.851   5.687  0.6102 -0.4704  1.0173
   76SLPC  C315 6924   3.453   1.805   5.521 -0.6801 -0.1755  0.2241
   76SLPC  H15X 6925   3.399   1.901   5.512  0.0765  0.5307  2.5678
   76SLPC  H15Y 6926   3.378   1.728   5.492  1.5755 -1.7416 -1.8246
   76SLPC  C316 6927   3.565   1.818   5.420  0.1351  0.3780  0.1069
   76SLPC  H16X 6928   3.646   1.888   5.448 -0.3290  0.6123  0.8902
   76SLPC  H16Y 6929   3.520   1.845   5.322  1.2021  2.2800  0.0909
   76SLPC  C317 6930   3.638   1.685   5.401  0.2007  0.4134 -0.2166
   76SLPC  H17X 6931   3.688   1.660   5.497 -2.5531  0.0575  1.2221
   76SLPC  H17Y 6932   3.721   1.707   5.331  0.3027 -0.7338 -0.4621
   76SLPC  C318 6933   3.553   1.571   5.341 -0.6985 -0.4242 -0.1733
   76SLPC  H18X 6934   3.540   1.578   5.230  0.0633  0.8114 -0.2067
   76SLPC  H18Y 6935   3.454   1.565   5.392 -0.3975 -0.0676  0.4677
   76SLPC  H18Z 6936   3.592   1.472   5.371 -2.6993 -1.2854 -0.2376
   77SLPC     N 6937   1.512   5.436   7.895 -0.2152 -0.1178 -0.6172
   77SLPC   C13 6938   1.638   5.499   7.845 -0.1506  0.0036  0.5269
   77SLPC  H13A 6939   1.701   5.441   7.779  0.2590  2.7104 -1.6442
   77SLPC  H13B 6940   1.609   5.590   7.796  1.0471  0.3485  0.4282
   77SLPC  H13C 6941   1.703   5.535   7.924  1.1805  1.0579 -0.9912
   77SLPC   C14 6942   1.413   5.544   7.943 -0.4901 -0.1760 -0.4491
   77SLPC  H14A 6943   1.458   5.587   8.031  0.5637 -1.7839 -0.1635
   77SLPC  H14B 6944   1.401   5.618   7.866  0.5890  0.2954 -0.1857
   77SLPC  H14C 6945   1.319   5.502   7.976 -0.9841 -1.0201 -2.7802
   77SLPC   C15 6946   1.552   5.344   8.006  0.0377  0.4370  0.6916
   77SLPC  H15A 6947   1.597   5.395   8.090 -2.7143  0.6468  2.1642
   77SLPC  H15B 6948   1.469   5.296   8.056  0.4224  0.5338  1.4362
   77SLPC  H15C 6949   1.621   5.270   7.969 -0.4755  1.3037 -2.2228
   77SLPC   C12 6950   1.450   5.359   7.781  0.2022  0.0479 -0.2495
   77SLPC  H12A 6951   1.523   5.301   7.727  0.8561  1.1505 -0.5910
   77SLPC  H12B 6952   1.424   5.436   7.710  0.2916  0.4170  0.1121
   77SLPC   C11 6953   1.323   5.270   7.802  0.7496  0.1529 -0.0626
   77SLPC  H11A 6954   1.336   5.205   7.891 -2.4443 -0.6960 -0.1220
   77SLPC  H11B 6955   1.303   5.208   7.712  0.7355  0.1405 -0.0506
   77SLPC     P 6956   1.137   5.441   7.737 -0.4404 -0.0032 -0.0473
   77SLPC   O13 6957   1.030   5.363   7.688  0.2410 -0.1185 -0.1281
   77SLPC   O14 6958   1.115   5.571   7.806 -0.0181 -0.1087  0.3707
   77SLPC   O12 6959   1.217   5.349   7.835  0.0839 -0.3264 -0.3184
   77SLPC   O11 6960   1.233   5.459   7.617  0.2694  0.3600 -0.0834
   77SLPC    C1 6961   1.278   5.586   7.571 -0.1969 -0.4604 -0.0707
   77SLPC    HA 6962   1.233   5.674   7.621  0.9843  0.7488 -1.0719
   77SLPC    HB 6963   1.386   5.599   7.593 -0.3733  0.3884  0.3242
   77SLPC    C2 6964   1.260   5.590   7.414 -0.5426  0.4486 -0.3567
   77SLPC    HS 6965   1.276   5.696   7.387 -0.3231  0.3104 -0.7684
   77SLPC   O21 6966   1.127   5.546   7.375 -0.0462 -0.1462 -0.2612
   77SLPC   C21 6967   1.034   5.628   7.415  0.3066 -0.3979  0.7257
   77SLPC   O22 6968   1.055   5.739   7.456 -0.2865 -0.3076  0.3100
   77SLPC   C22 6969   0.895   5.560   7.403 -0.3183  0.3394  0.1962
   77SLPC   H2R 6970   0.897   5.449   7.412 -1.7384  0.2070 -0.6600
   77SLPC   H2S 6971   0.841   5.601   7.492  1.3080  1.8104  0.5571
   77SLPC    C3 6972   1.367   5.496   7.340  0.5759 -0.3142  0.0374
   77SLPC    HX 6973   1.365   5.394   7.384 -1.0459  0.4741  1.9444
   77SLPC    HY 6974   1.469   5.534   7.360  1.3662 -1.9343 -0.7813
   77SLPC   O31 6975   1.331   5.478   7.201  0.1787 -0.0468  0.2336
   77SLPC   C31 6976   1.375   5.571   7.120  0.5778  0.4001  1.1846
   77SLPC   O32 6977   1.436   5.674   7.146 -0.8081  0.6104  0.0351
   77SLPC   C32 6978   1.359   5.505   6.982 -0.5703  0.1907  0.1278
   77SLPC   H2X 6979   1.265   5.446   6.982 -1.0934  1.0083  0.6486
   77SLPC   H2Y 6980   1.438   5.427   6.979 -1.6948 -0.9834  0.3513
   77SLPC   C23 6981   0.827   5.628   7.287 -0.2861  0.1485 -0.4443
   77SLPC   H3R 6982   0.819   5.739   7.279  1.5380  0.3924  0.5630
   77SLPC   H3S 6983   0.727   5.580   7.285 -0.2270  0.0226 -2.5361
   77SLPC   C24 6984   0.893   5.583   7.152  0.0587 -0.3805  0.1351
   77SLPC   H4R 6985   0.904   5.473   7.142 -0.7224 -0.3493 -1.3464
   77SLPC   H4S 6986   0.995   5.627   7.139  0.6307 -1.6775  0.1054
   77SLPC   C25 6987   0.815   5.631   7.029 -0.0920 -0.0927 -0.3745
   77SLPC   H5R 6988   0.814   5.741   7.046  0.2674 -0.2530  0.8095
   77SLPC   H5S 6989   0.709   5.598   7.032 -0.1160  0.0259  0.3779
   77SLPC   C26 6990   0.895   5.602   6.901 -0.0381  0.3646 -0.6722
   77SLPC   H6R 6991   0.899   5.492   6.888 -1.1693  0.1694  0.4293
   77SLPC   H6S 6992   1.001   5.635   6.902 -0.1939  0.8862 -1.0258
   77SLPC   C27 6993   0.819   5.666   6.787  0.0347 -0.1433 -0.5025
   77SLPC   H7R 6994   0.810   5.775   6.805 -0.2399 -0.2776  0.1705
   77SLPC   H7S 6995   0.715   5.630   6.797 -0.0397  0.7506  4.1333
   77SLPC   C28 6996   0.854   5.616   6.640 -0.3470  0.3260 -0.2301
   77SLPC   H8R 6997   0.778   5.669   6.578 -1.3636  2.8236  2.8963
   77SLPC   H8S 6998   0.825   5.508   6.636 -1.1655  0.5703 -1.8591
   77SLPC   C29 6999   0.987   5.650   6.588 -0.7696 -0.3278  0.2745
   77SLPC   H9R 7000   1.073   5.634   6.656 -0.6804  0.1490  0.2738
   77SLPC  C210 7001   1.017   5.697   6.465 -0.2079  0.1649 -0.1846
   77SLPC  H10R 7002   1.122   5.704   6.433 -0.7659  2.3700 -1.7862
   77SLPC  C211 7003   0.928   5.737   6.353 -0.0666  0.9406  0.7206
   77SLPC  H11R 7004   0.850   5.658   6.347  1.5398 -0.6210 -0.6921
   77SLPC  H11S 7005   0.981   5.746   6.255 -1.7562  3.7743 -0.0627
   77SLPC  C212 7006   0.842   5.853   6.381 -0.0688 -0.3093 -0.1093
   77SLPC  H12R 7007   0.779   5.849   6.471 -0.8039 -1.5619 -0.6436
   77SLPC  C213 7008   0.832   5.963   6.301 -0.5852 -0.1953 -0.4248
   77SLPC  H13R 7009   0.746   6.030   6.319  1.1326  2.0907 -0.2948
   77SLPC  C214 7010   0.898   5.990   6.168  0.5766  0.2106  0.0529
   77SLPC  H14R 7011   0.972   5.912   6.136 -0.4355 -0.6184 -0.3116
   77SLPC  H14S 7012   0.959   6.083   6.160  0.2258  0.3253 -2.1473
   77SLPC  C215 7013   0.795   6.006   6.055 -0.1970  0.2691  0.2928
   77SLPC  H15R 7014   0.735   6.096   6.080  0.2585  1.2152 -1.8461
   77SLPC  H15S 7015   0.744   5.908   6.043  1.5706 -0.6219 -0.2867
   77SLPC  C216 7016   0.855   6.041   5.917  0.1008 -0.3451 -0.4268
   77SLPC  H16R 7017   0.920   5.962   5.873  2.4117  0.1658  1.7984
   77SLPC  H16S 7018   0.904   6.139   5.934 -1.9636  0.4626  1.2989
   77SLPC  C217 7019   0.744   6.070   5.814 -0.0838  0.0940 -0.2291
   77SLPC  H17R 7020   0.693   6.160   5.855  0.1352  0.2397 -0.2756
   77SLPC  H17S 7021   0.663   5.998   5.791  0.2556  0.7681 -4.3280
   77SLPC  C218 7022   0.790   6.118   5.678 -0.2739 -1.0476  0.3743
   77SLPC  H18R 7023   0.836   6.219   5.687 -0.0161 -0.8941 -1.9262
   77SLPC  H18S 7024   0.705   6.145   5.612  0.2092  1.2104  0.5917
   77SLPC  H18T 7025   0.872   6.071   5.619 -2.2505  1.8193 -5.4398
   77SLPC   C33 7026   1.361   5.596   6.857  0.3228  0.4183  0.3720
   77SLPC   H3X 7027   1.456   5.651   6.845  2.2986 -3.0639 -1.7384
   77SLPC   H3Y 7028   1.277   5.668   6.845 -0.0933 -0.3121 -1.4626
   77SLPC   C34 7029   1.350   5.508   6.733 -0.4678  0.6330  0.7256
   77SLPC   H4X 7030   1.251   5.458   6.732 -0.6909  0.7467  4.2603
   77SLPC   H4Y 7031   1.432   5.433   6.736 -0.0653  1.0972  1.5813
   77SLPC   C35 7032   1.383   5.597   6.606 -0.2681  0.0044 -0.6898
   77SLPC   H5X 7033   1.490   5.626   6.611  0.0463 -0.6567 -2.9142
   77SLPC   H5Y 7034   1.310   5.681   6.605 -0.0768  0.1746 -0.4032
   77SLPC   C36 7035   1.380   5.511   6.474 -0.3737  0.1201  0.2025
   77SLPC   H6X 7036   1.276   5.479   6.456  0.1982 -0.3999 -2.6363
   77SLPC   H6Y 7037   1.442   5.421   6.491  2.3187  1.7679 -0.1506
   77SLPC   C37 7038   1.425   5.591   6.350  0.1429  0.0417 -0.9283
   77SLPC   H7X 7039   1.526   5.637   6.355  0.1604 -0.0944  0.1725
   77SLPC   H7Y 7040   1.345   5.668   6.344  0.2648  0.5238  2.1208
   77SLPC   C38 7041   1.410   5.501   6.226  0.2129  0.1840  0.3104
   77SLPC   H8X 7042   1.301   5.479   6.213  0.2524 -2.0108  2.7429
   77SLPC   H8Y 7043   1.459   5.401   6.232 -2.4246 -1.2832 -0.8473
   77SLPC   C39 7044   1.466   5.575   6.111  0.2151 -0.5406 -0.2664
   77SLPC   H9X 7045   1.562   5.621   6.141 -0.2760 -0.3869  1.1451
   77SLPC   H9Y 7046   1.393   5.656   6.091 -0.5082 -0.3831  2.6408
   77SLPC  C310 7047   1.478   5.487   5.991 -0.2266  0.7022 -0.4275
   77SLPC  H10X 7048   1.381   5.441   5.961 -0.2211  0.3105  0.1339
   77SLPC  H10Y 7049   1.539   5.399   6.021 -1.4321  0.4456  1.4027
   77SLPC  C311 7050   1.541   5.563   5.876  0.3718  0.1107 -0.2158
   77SLPC  H11X 7051   1.634   5.620   5.898  0.6522 -0.4948  0.1952
   77SLPC  H11Y 7052   1.455   5.622   5.839  0.8236 -0.1399 -1.7503
   77SLPC  C312 7053   1.585   5.475   5.755  0.1282  0.3988  0.1625
   77SLPC  H12X 7054   1.522   5.384   5.767  0.7196 -0.1535 -0.7833
   77SLPC  H12Y 7055   1.689   5.437   5.765 -0.3371 -0.4520  2.6610
   77SLPC  C313 7056   1.554   5.517   5.614  0.2159 -0.1886 -0.2977
   77SLPC  H13X 7057   1.454   5.566   5.606 -0.0400 -0.8512 -1.4297
   77SLPC  H13Y 7058   1.554   5.428   5.547  1.1185 -0.1726 -0.3341
   77SLPC  C314 7059   1.661   5.611   5.562 -0.2597 -0.1260  0.2053
   77SLPC  H14X 7060   1.716   5.676   5.634 -1.3230 -0.3541  1.2617
   77SLPC  H14Y 7061   1.609   5.679   5.491 -0.0418  0.6654  0.7835
   77SLPC  C315 7062   1.772   5.550   5.468  0.6447  0.1524 -0.1617
   77SLPC  H15X 7063   1.816   5.632   5.408 -0.4889  0.2646 -0.8656
   77SLPC  H15Y 7064   1.716   5.479   5.404 -2.3739 -0.1943  2.5954
   77SLPC  C316 7065   1.880   5.494   5.550  0.3344  0.8151  0.2161
   77SLPC  H16X 7066   1.855   5.421   5.629  1.8278 -1.0955 -0.9887
   77SLPC  H16Y 7067   1.935   5.577   5.599  1.0688  0.4684 -0.0131
   77SLPC  C317 7068   1.981   5.404   5.468  0.8586 -0.2464 -0.9132
   77SLPC  H17X 7069   1.927   5.314   5.430  1.0612 -1.5970  1.7248
   77SLPC  H17Y 7070   2.047   5.357   5.545 -0.4438 -1.5066 -0.5271
   77SLPC  C318 7071   2.061   5.474   5.360  0.2704 -0.7131  0.3351
   77SLPC  H18X 7072   1.994   5.547   5.309 -1.5446 -1.6306  1.3223
   77SLPC  H18Y 7073   2.091   5.392   5.292 -1.8278 -0.7041 -0.6844
   77SLPC  H18Z 7074   2.148   5.532   5.399  0.1685  0.2426 -0.7925
   78SLPC     N 7075   2.607   3.348   7.391  0.4150 -0.2302  0.6221
   78SLPC   C13 7076   2.596   3.499   7.392 -0.2509 -0.0096 -0.0131
   78SLPC  H13A 7077   2.492   3.522   7.372  0.0880  1.0555 -0.6587
   78SLPC  H13B 7078   2.623   3.542   7.488  0.2107 -3.6106  1.6206
   78SLPC  H13C 7079   2.655   3.537   7.310  1.7194 -2.6791  0.0525
   78SLPC   C14 7080   2.509   3.285   7.486  0.2382 -0.5357 -0.3953
   78SLPC  H14A 7081   2.550   3.287   7.586 -0.3508  1.5503 -0.1489
   78SLPC  H14B 7082   2.411   3.329   7.476 -0.1674 -1.3215 -0.0390
   78SLPC  H14C 7083   2.500   3.179   7.463 -4.2307  0.0012 -2.0314
   78SLPC   C15 7084   2.747   3.304   7.432  0.5040 -0.1157 -0.2879
   78SLPC  H15A 7085   2.814   3.318   7.349  0.8524 -1.6377 -0.2979
   78SLPC  H15B 7086   2.767   3.353   7.526  0.1746 -1.0928  0.3067
   78SLPC  H15C 7087   2.751   3.196   7.442  0.0915 -0.1183 -0.1100
   78SLPC   C12 7088   2.566   3.312   7.248  0.1219 -0.3170  0.9432
   78SLPC  H12A 7089   2.627   3.351   7.168 -0.9954 -0.0365  0.2039
   78SLPC  H12B 7090   2.466   3.347   7.228 -1.0633 -3.6140  0.5113
   78SLPC   C11 7091   2.551   3.163   7.223  0.2071  0.0781 -0.7103
   78SLPC  H11A 7092   2.517   3.151   7.118  2.1175 -2.2275 -1.1580
   78SLPC  H11B 7093   2.477   3.124   7.295 -1.2750  0.8477 -1.7595
   78SLPC     P 7094   2.796   3.104   7.131  0.6808  0.3188 -0.7357
   78SLPC   O13 7095   2.915   3.112   7.215  0.3671 -0.2315 -0.5444
   78SLPC   O14 7096   2.799   2.998   7.030 -0.9246  0.5354 -0.5027
   78SLPC   O12 7097   2.675   3.086   7.231  0.2713  0.0432 -0.2992
   78SLPC   O11 7098   2.759   3.237   7.063 -0.9749  0.0307 -0.5417
   78SLPC    C1 7099   2.867   3.323   7.017  0.2585  0.3701  0.3809
   78SLPC    HA 7100   2.939   3.354   7.096  1.8885 -0.7687 -0.5945
   78SLPC    HB 7101   2.926   3.260   6.948 -0.0909 -0.0918  0.4906
   78SLPC    C2 7102   2.823   3.454   6.946 -0.2429 -0.5674  0.0911
   78SLPC    HS 7103   2.797   3.529   7.024 -0.1225 -0.8049  0.3603
   78SLPC   O21 7104   2.719   3.427   6.850  0.4286 -0.0240  0.0470
   78SLPC   C21 7105   2.600   3.439   6.898 -0.0336  0.0910  0.0743
   78SLPC   O22 7106   2.573   3.459   7.017  0.0145 -0.6282 -0.2982
   78SLPC   C22 7107   2.496   3.452   6.790 -0.1274 -0.2390 -0.9655
   78SLPC   H2R 7108   2.489   3.361   6.727 -2.5820 -1.1221  0.4778
   78SLPC   H2S 7109   2.399   3.458   6.843  0.6637  1.1368  0.4222
   78SLPC    C3 7110   2.946   3.510   6.866  1.0132  0.2242  0.0884
   78SLPC    HX 7111   2.993   3.437   6.795 -0.0694  2.4073 -3.0985
   78SLPC    HY 7112   3.014   3.533   6.950  0.1253 -1.9510  1.4855
   78SLPC   O31 7113   2.900   3.628   6.803 -0.0193  0.3717 -0.0247
   78SLPC   C31 7114   2.992   3.721   6.790 -0.0788 -0.0996  0.0315
   78SLPC   O32 7115   3.108   3.709   6.825  0.2517 -0.2094 -1.0001
   78SLPC   C32 7116   2.921   3.839   6.723 -0.2535 -0.1670  0.1282
   78SLPC   H2X 7117   2.987   3.928   6.737  0.3001 -0.5972  0.2896
   78SLPC   H2Y 7118   2.822   3.842   6.773  0.0793 -3.9873  1.3166
   78SLPC   C23 7119   2.524   3.581   6.704  0.5121 -0.4964 -0.1415
   78SLPC   H3R 7120   2.629   3.584   6.667 -0.0683  3.4117 -2.0144
   78SLPC   H3S 7121   2.528   3.677   6.760  0.7609 -1.6003  1.8419
   78SLPC   C24 7122   2.429   3.615   6.589 -0.4448  0.2756  0.1898
   78SLPC   H4R 7123   2.330   3.643   6.632  0.0192 -0.5840  1.9123
   78SLPC   H4S 7124   2.402   3.521   6.535  0.0899  0.5078 -0.4923
   78SLPC   C25 7125   2.490   3.720   6.499 -0.5997 -0.0474  0.3154
   78SLPC   H5R 7126   2.590   3.688   6.462 -0.2278 -0.2761  1.4762
   78SLPC   H5S 7127   2.519   3.802   6.568  3.9619 -2.5720  1.8030
   78SLPC   C26 7128   2.403   3.760   6.378  0.5400 -0.0131  0.0793
   78SLPC   H6R 7129   2.457   3.819   6.301 -1.5108 -0.7284 -1.9857
   78SLPC   H6S 7130   2.317   3.820   6.414 -0.5689 -2.5382  1.9734
   78SLPC   C27 7131   2.347   3.632   6.314  0.7473  0.2214 -0.0115
   78SLPC   H7R 7132   2.271   3.591   6.383  0.6045 -2.6018 -1.6978
   78SLPC   H7S 7133   2.421   3.554   6.287 -1.5455 -0.9719 -3.6107
   78SLPC   C28 7134   2.283   3.658   6.176  0.2156 -0.3041  0.6694
   78SLPC   H8R 7135   2.274   3.564   6.116  1.7255 -0.3139  0.4390
   78SLPC   H8S 7136   2.356   3.706   6.107 -2.2282 -0.5465 -2.3305
   78SLPC   C29 7137   2.149   3.735   6.180  0.2252  0.4606  0.0350
   78SLPC   H9R 7138   2.123   3.768   6.282 -0.1702 -0.8733  0.3820
   78SLPC  C210 7139   2.075   3.778   6.076 -0.1876  0.0437  0.7237
   78SLPC  H10R 7140   1.996   3.853   6.088  1.5098  1.7140  1.9579
   78SLPC  C211 7141   2.106   3.754   5.934  0.1380 -0.0326  0.3185
   78SLPC  H11R 7142   2.023   3.694   5.891  1.3411 -2.1012  0.7669
   78SLPC  H11S 7143   2.198   3.695   5.917  0.9101  1.3390 -0.5257
   78SLPC  C212 7144   2.126   3.882   5.855  0.3276  0.0526  0.2078
   78SLPC  H12R 7145   2.126   3.977   5.910 -0.7401  0.0994  0.1455
   78SLPC  C213 7146   2.167   3.895   5.724  0.9392  0.9948 -0.4536
   78SLPC  H13R 7147   2.182   3.997   5.684  0.2759  0.8438 -1.1023
   78SLPC  C214 7148   2.180   3.777   5.624  0.4164 -0.0014  0.2051
   78SLPC  H14R 7149   2.179   3.681   5.680  1.7231 -0.2011 -0.0895
   78SLPC  H14S 7150   2.282   3.777   5.580  0.3162  0.1474 -0.0298
   78SLPC  C215 7151   2.083   3.781   5.509 -0.3246  0.4156  0.3935
   78SLPC  H15R 7152   2.096   3.696   5.438 -0.5738  0.2148  0.5876
   78SLPC  H15S 7153   2.097   3.877   5.454 -1.6314  0.0463 -0.6523
   78SLPC  C216 7154   1.937   3.768   5.553  0.2159  0.2297 -0.0847
   78SLPC  H16R 7155   1.920   3.846   5.630  1.3595  1.9682 -1.4962
   78SLPC  H16S 7156   1.919   3.670   5.601 -0.5109 -0.1293 -1.0513
   78SLPC  C217 7157   1.838   3.778   5.446  0.4847  0.7256  0.5882
   78SLPC  H17R 7158   1.859   3.689   5.383 -1.7969  0.3309  0.3075
   78SLPC  H17S 7159   1.854   3.874   5.392 -2.5429  2.5468  2.6291
   78SLPC  C218 7160   1.687   3.767   5.485 -0.3412 -0.8198 -0.3505
   78SLPC  H18R 7161   1.663   3.864   5.532  1.1562  0.3355 -1.8551
   78SLPC  H18S 7162   1.675   3.695   5.569  0.4471  0.8977  1.3000
   78SLPC  H18T 7163   1.613   3.748   5.404 -0.1216  1.1121 -1.0477
   78SLPC   C33 7164   2.878   3.812   6.581  0.0046  0.0588 -0.3174
   78SLPC   H3X 7165   2.826   3.902   6.542  2.1464  1.9577  0.9615
   78SLPC   H3Y 7166   2.813   3.722   6.572  1.2072 -1.0341  1.2892
   78SLPC   C34 7167   2.992   3.794   6.485  0.1404  0.0100 -0.3216
   78SLPC   H4X 7168   3.027   3.690   6.501 -1.1418 -0.4804 -0.6540
   78SLPC   H4Y 7169   3.070   3.870   6.507 -0.2225 -0.8462  5.0421
   78SLPC   C35 7170   2.945   3.802   6.339 -1.1021 -0.1509 -0.0555
   78SLPC   H5X 7171   2.914   3.904   6.307  0.8779  0.6796  0.5038
   78SLPC   H5Y 7172   2.857   3.741   6.314 -0.3172 -0.5930 -1.8848
   78SLPC   C36 7173   3.053   3.732   6.252 -0.1703 -0.3442 -0.2920
   78SLPC   H6X 7174   3.083   3.631   6.287  0.0363 -0.4523 -0.7724
   78SLPC   H6Y 7175   3.144   3.794   6.266 -0.6899  0.2159  0.7024
   78SLPC   C37 7176   3.014   3.737   6.110  0.2819  0.7892 -0.0328
   78SLPC   H7X 7177   2.982   3.839   6.080 -0.5896  0.1600 -1.3986
   78SLPC   H7Y 7178   2.921   3.676   6.099 -0.1886  1.0986  1.9126
   78SLPC   C38 7179   3.117   3.686   6.013 -0.2864 -0.1921 -0.0336
   78SLPC   H8X 7180   3.128   3.576   6.026  0.9318 -0.3039 -1.6902
   78SLPC   H8Y 7181   3.211   3.739   6.041  0.0299 -0.0188 -1.3220
   78SLPC   C39 7182   3.096   3.718   5.865 -0.5382 -0.0724 -0.1241
   78SLPC   H9X 7183   3.200   3.733   5.829  0.1002  0.8120  1.8932
   78SLPC   H9Y 7184   3.050   3.819   5.855 -1.5078 -0.6094 -1.3361
   78SLPC  C310 7185   2.992   3.624   5.801  0.1218 -0.9294 -0.6142
   78SLPC  H10X 7186   2.896   3.638   5.855  0.4911 -1.8362  0.3111
   78SLPC  H10Y 7187   3.035   3.523   5.815  2.6920  0.1195 -0.4627
   78SLPC  C311 7188   2.963   3.660   5.654  0.2400 -0.1346  0.0642
   78SLPC  H11X 7189   3.050   3.663   5.585  0.0979  3.4380 -0.1425
   78SLPC  H11Y 7190   2.924   3.763   5.667 -0.1593 -0.6628  5.0041
   78SLPC  C312 7191   2.863   3.559   5.592 -0.5819  0.1115  0.0427
   78SLPC  H12X 7192   2.790   3.529   5.670  2.4863 -2.6834  2.1520
   78SLPC  H12Y 7193   2.924   3.469   5.570 -0.0582  0.5057 -0.1445
   78SLPC  C313 7194   2.795   3.604   5.464  0.3642  0.0161 -0.3876
   78SLPC  H13X 7195   2.745   3.524   5.405  0.6664 -1.1483  0.8969
   78SLPC  H13Y 7196   2.874   3.632   5.391  0.2879  0.6064 -0.2488
   78SLPC  C314 7197   2.705   3.730   5.476  0.0756  0.0450  0.1727
   78SLPC  H14X 7198   2.748   3.813   5.537 -0.4445  0.6003 -0.2069
   78SLPC  H14Y 7199   2.617   3.699   5.536  0.0532 -1.2630 -0.5075
   78SLPC  C315 7200   2.651   3.780   5.349 -0.6884  0.3010  0.0145
   78SLPC  H15X 7201   2.598   3.698   5.297  0.3463  0.3844 -1.2061
   78SLPC  H15Y 7202   2.730   3.820   5.282 -1.4601 -0.9934 -1.7465
   78SLPC  C316 7203   2.547   3.889   5.379 -0.3870 -0.4265 -0.2180
   78SLPC  H16X 7204   2.602   3.974   5.425  0.1727 -0.4741 -0.7805
   78SLPC  H16Y 7205   2.467   3.855   5.448 -1.1836  0.9518 -0.4272
   78SLPC  C317 7206   2.478   3.949   5.249 -0.5071 -0.2970  0.0590
   78SLPC  H17X 7207   2.441   3.869   5.181  1.1617 -1.7324  0.7603
   78SLPC  H17Y 7208   2.551   4.017   5.200 -1.1644  0.4972  0.1681
   78SLPC  C318 7209   2.354   4.030   5.284 -0.1418  0.1744  0.2729
   78SLPC  H18X 7210   2.283   3.985   5.356  0.3552 -2.0601 -0.5640
   78SLPC  H18Y 7211   2.300   4.048   5.188 -0.5722 -1.0890  0.2580
   78SLPC  H18Z 7212   2.385   4.125   5.332  0.9883  0.5480 -1.1103
   79SLPC     N 7213   3.087   6.578   7.777 -0.2560  0.3634  0.0224
   79SLPC   C13 7214   3.188   6.692   7.762 -0.0268 -0.1032  0.3002
   79SLPC  H13A 7215   3.227   6.729   7.856  2.8211  0.2573 -0.9025
   79SLPC  H13B 7216   3.265   6.674   7.688  0.7114 -1.5532  1.3712
   79SLPC  H13C 7217   3.131   6.779   7.733 -1.1714 -1.3942 -1.5555
   79SLPC   C14 7218   2.976   6.625   7.859  0.1525  0.5503 -0.2121
   79SLPC  H14A 7219   2.937   6.711   7.807 -0.6756  0.5564  0.4065
   79SLPC  H14B 7220   2.892   6.557   7.867 -0.8706  1.8856  0.7630
   79SLPC  H14C 7221   3.010   6.655   7.957 -0.9217  0.4270  0.2095
   79SLPC   C15 7222   3.143   6.457   7.846 -0.1226 -0.0392 -0.3571
   79SLPC  H15A 7223   3.229   6.419   7.795  0.7144  0.2973  0.7590
   79SLPC  H15B 7224   3.174   6.494   7.943 -2.9329  0.8488  0.3209
   79SLPC  H15C 7225   3.064   6.384   7.858 -0.4511  0.2227 -0.8622
   79SLPC   C12 7226   3.029   6.528   7.641  0.7510 -0.3217  0.3560
   79SLPC  H12A 7227   3.116   6.511   7.580 -0.3178 -1.5215 -0.9100
   79SLPC  H12B 7228   2.982   6.607   7.584 -2.3556 -2.4433 -0.2746
   79SLPC   C11 7229   2.936   6.405   7.642 -0.5805 -0.5735  0.2512
   79SLPC  H11A 7230   2.985   6.322   7.696 -0.4366 -0.9180 -0.4023
   79SLPC  H11B 7231   2.936   6.376   7.534  0.7625  0.2179  0.0115
   79SLPC     P 7232   2.695   6.503   7.623  0.3942  0.1551 -0.3179
   79SLPC   O13 7233   2.599   6.555   7.721 -0.3912  0.7908 -0.1953
   79SLPC   O14 7234   2.757   6.605   7.540 -0.1500 -0.3470 -0.8178
   79SLPC   O12 7235   2.807   6.427   7.703 -0.0381  0.0726  0.2354
   79SLPC   O11 7236   2.636   6.389   7.540  0.2370 -0.9259  0.0805
   79SLPC    C1 7237   2.629   6.255   7.578  0.1342  0.2535  0.2926
   79SLPC    HA 7238   2.706   6.212   7.645  1.1492 -1.1355 -1.6560
   79SLPC    HB 7239   2.527   6.234   7.616 -0.2301  2.1500  0.4623
   79SLPC    C2 7240   2.655   6.171   7.446  0.0459 -0.0588  0.1133
   79SLPC    HS 7241   2.585   6.085   7.457  0.1787 -0.3716 -1.2656
   79SLPC   O21 7242   2.779   6.118   7.448 -0.3985  0.0271 -0.1686
   79SLPC   C21 7243   2.798   5.998   7.394  0.2059 -0.4352  0.2892
   79SLPC   O22 7244   2.722   5.937   7.319 -0.0273 -0.1852 -0.1672
   79SLPC   C22 7245   2.931   5.934   7.429 -0.3090  0.2024 -0.1891
   79SLPC   H2R 7246   2.935   5.940   7.540  0.2595  3.3640 -0.2896
   79SLPC   H2S 7247   2.917   5.826   7.406 -1.5945  0.0831  0.9873
   79SLPC    C3 7248   2.626   6.248   7.319  0.4767 -0.4767  0.2800
   79SLPC    HX 7249   2.693   6.335   7.304 -2.1193  1.5190 -0.3123
   79SLPC    HY 7250   2.521   6.284   7.311 -0.0834 -2.0779  0.0132
   79SLPC   O31 7251   2.663   6.172   7.199  0.1865 -0.0935  0.6167
   79SLPC   C31 7252   2.563   6.105   7.147  0.8547  0.2512 -0.6043
   79SLPC   O32 7253   2.446   6.100   7.193 -0.0737  0.1401  0.1361
   79SLPC   C32 7254   2.602   6.029   7.025  0.6835 -0.3759  0.6342
   79SLPC   H2X 7255   2.697   5.971   7.028  1.6538  1.1244  0.6072
   79SLPC   H2Y 7256   2.614   6.100   6.940  0.4476 -1.5801 -0.4371
   79SLPC   C23 7257   3.054   6.002   7.367 -0.3871 -0.1661  0.8141
   79SLPC   H3R 7258   3.141   5.957   7.419  0.8382 -0.8807 -1.7206
   79SLPC   H3S 7259   3.052   6.109   7.398 -3.2367  0.2604 -0.5293
   79SLPC   C24 7260   3.080   5.970   7.223 -0.0282 -0.2758  0.2978
   79SLPC   H4R 7261   3.085   5.859   7.209 -0.3460 -0.4125  1.2292
   79SLPC   H4S 7262   3.180   6.007   7.193 -0.0760 -0.1725  0.2656
   79SLPC   C25 7263   2.977   6.034   7.129  0.5244  0.4538  0.5235
   79SLPC   H5R 7264   2.979   6.141   7.162  0.2387 -0.0981  2.4916
   79SLPC   H5S 7265   2.872   6.000   7.144  1.1116 -1.6725  0.0976
   79SLPC   C26 7266   3.004   6.026   6.982 -0.2014 -0.8847 -0.6084
   79SLPC   H6R 7267   2.995   5.920   6.949 -0.0471 -1.5727  1.3805
   79SLPC   H6S 7268   3.110   6.057   6.982  0.0872 -1.6566  1.7889
   79SLPC   C27 7269   2.921   6.130   6.896  0.0574 -0.0859 -0.0588
   79SLPC   H7R 7270   2.916   6.229   6.948 -0.6931 -0.7065  1.1020
   79SLPC   H7S 7271   2.823   6.078   6.894 -0.0424  0.0870  0.2424
   79SLPC   C28 7272   2.971   6.153   6.751 -0.4334 -0.6423 -0.2068
   79SLPC   H8R 7273   3.071   6.201   6.754  0.5892 -2.6942  0.4860
   79SLPC   H8S 7274   2.894   6.218   6.705 -2.9281 -1.7271  2.0976
   79SLPC   C29 7275   2.983   6.026   6.675 -0.2057 -0.5340 -0.0906
   79SLPC   H9R 7276   2.960   5.932   6.727  0.5142 -1.2122 -0.9564
   79SLPC  C210 7277   3.019   6.021   6.546 -0.7488  0.0910  0.4003
   79SLPC  H10R 7278   3.032   5.926   6.493 -0.9526  0.3344 -0.0925
   79SLPC  C211 7279   3.057   6.131   6.456 -0.1833 -0.3109 -0.7160
   79SLPC  H11R 7280   3.094   6.218   6.514  1.6303 -0.7894 -1.0867
   79SLPC  H11S 7281   2.975   6.171   6.393 -0.1892  0.6197 -0.1333
   79SLPC  C212 7282   3.176   6.099   6.365  0.1752  0.1114 -0.2252
   79SLPC  H12R 7283   3.251   6.037   6.417  0.9564  1.4606  0.3165
   79SLPC  C213 7284   3.191   6.136   6.238  0.0186  0.4531  0.5349
   79SLPC  H13R 7285   3.277   6.100   6.180 -0.3669 -0.4793  0.5212
   79SLPC  C214 7286   3.087   6.207   6.155 -0.4151 -0.4071  0.2664
   79SLPC  H14R 7287   3.131   6.293   6.101 -0.5045 -0.0670  0.7310
   79SLPC  H14S 7288   3.018   6.258   6.226  0.8477  0.6120  0.8088
   79SLPC  C215 7289   3.020   6.109   6.053 -0.6073 -0.1440 -0.2735
   79SLPC  H15R 7290   2.948   6.165   5.990  1.2649 -0.1201 -2.5168
   79SLPC  H15S 7291   2.965   6.027   6.105  2.6879 -1.4206  1.5597
   79SLPC  C216 7292   3.107   6.043   5.948 -0.1329  0.2942  0.3383
   79SLPC  H16R 7293   3.203   6.009   5.993 -0.6300 -2.1277 -0.2989
   79SLPC  H16S 7294   3.131   6.125   5.877  0.1367 -0.5834 -0.6082
   79SLPC  C217 7295   3.029   5.928   5.874 -0.0151 -0.4459 -0.7484
   79SLPC  H17R 7296   2.932   5.957   5.830  0.3450  3.5687  0.6661
   79SLPC  H17S 7297   3.002   5.857   5.955 -1.8461  2.8481  1.8092
   79SLPC  C218 7298   3.108   5.865   5.768 -0.0922  0.1553 -0.0911
   79SLPC  H18R 7299   3.081   5.759   5.749  0.8467  0.0333 -0.8405
   79SLPC  H18S 7300   3.215   5.851   5.794 -0.0788  2.2411  1.2069
   79SLPC  H18T 7301   3.102   5.920   5.672 -0.8576 -1.7502 -1.2093
   79SLPC   C33 7302   2.498   5.932   6.970  0.3090 -0.2796 -0.2356
   79SLPC   H3X 7303   2.408   5.987   6.935  1.7337  3.4708  1.5373
   79SLPC   H3Y 7304   2.462   5.876   7.059  0.0575 -2.2555 -1.5019
   79SLPC   C34 7305   2.550   5.840   6.856 -0.2571  0.9264 -0.5143
   79SLPC   H4X 7306   2.486   5.757   6.821  0.8779  0.1760 -0.8526
   79SLPC   H4Y 7307   2.643   5.803   6.904 -0.2648  0.8292 -0.5759
   79SLPC   C35 7308   2.575   5.907   6.724 -0.6505  0.5521 -0.1430
   79SLPC   H5X 7309   2.645   5.990   6.752 -0.1227  0.0877 -0.0720
   79SLPC   H5Y 7310   2.482   5.951   6.684 -0.3659  0.2589 -1.1385
   79SLPC   C36 7311   2.642   5.801   6.629  0.4657 -0.6950  0.4166
   79SLPC   H6X 7312   2.568   5.720   6.615 -2.6568  2.0165  0.0540
   79SLPC   H6Y 7313   2.742   5.768   6.665  0.5653  0.3893  1.1815
   79SLPC   C37 7314   2.657   5.857   6.486 -0.1087 -0.1474 -0.3830
   79SLPC   H7X 7315   2.752   5.915   6.479  1.1991 -2.1691 -0.0765
   79SLPC   H7Y 7316   2.568   5.921   6.469 -0.6687 -0.9659 -0.5577
   79SLPC   C38 7317   2.688   5.746   6.385 -0.0842  0.0152 -0.1007
   79SLPC   H8X 7318   2.630   5.657   6.417  0.5226 -0.2933  0.1442
   79SLPC   H8Y 7319   2.795   5.719   6.395 -0.1834 -0.7105 -0.8923
   79SLPC   C39 7320   2.642   5.787   6.245 -0.4233 -0.0529 -0.1063
   79SLPC   H9X 7321   2.673   5.888   6.214 -0.8008  0.7486  1.9462
   79SLPC   H9Y 7322   2.531   5.797   6.253 -0.2326  1.6847  0.8092
   79SLPC  C310 7323   2.696   5.690   6.138  0.1560 -0.1118 -0.2814
   79SLPC  H10X 7324   2.663   5.587   6.163 -0.1683 -0.7740 -3.0664
   79SLPC  H10Y 7325   2.807   5.686   6.141  0.2309  1.1726 -0.9012
   79SLPC  C311 7326   2.648   5.719   5.998 -0.5976 -0.5461  0.3612
   79SLPC  H11X 7327   2.702   5.811   5.966 -1.4458 -0.6135 -1.4059
   79SLPC  H11Y 7328   2.538   5.726   5.988 -0.4818 -0.5674 -1.3102
   79SLPC  C312 7329   2.690   5.613   5.901  0.1512 -0.0043  0.6045
   79SLPC  H12X 7330   2.641   5.518   5.930 -0.1604  0.8404  3.0961
   79SLPC  H12Y 7331   2.801   5.618   5.904  0.3264 -1.0402 -1.8899
   79SLPC  C313 7332   2.655   5.655   5.758  0.2796 -1.2915  0.3504
   79SLPC  H13X 7333   2.681   5.761   5.736  0.3795 -1.1115  1.2996
   79SLPC  H13Y 7334   2.544   5.661   5.758  0.2315 -1.1527  2.9034
   79SLPC  C314 7335   2.729   5.573   5.651  0.1473  0.8191 -0.1703
   79SLPC  H14X 7336   2.673   5.586   5.556  0.5449 -2.6927 -1.0568
   79SLPC  H14Y 7337   2.711   5.464   5.668  1.2669  0.6859  0.2181
   79SLPC  C315 7338   2.879   5.604   5.630  0.2765  0.2754 -0.5779
   79SLPC  H15X 7339   2.932   5.556   5.715 -0.0843  0.6450 -0.1384
   79SLPC  H15Y 7340   2.894   5.713   5.646 -1.6771  0.6643 -1.0877
   79SLPC  C316 7341   2.947   5.542   5.504 -0.1941 -0.3221 -0.0851
   79SLPC  H16X 7342   2.927   5.433   5.506  0.0417 -0.3636  0.2509
   79SLPC  H16Y 7343   3.057   5.556   5.513 -0.2453  0.7486 -0.9949
   79SLPC  C317 7344   2.902   5.602   5.374  0.2185 -0.1708  0.6860
   79SLPC  H17X 7345   2.882   5.711   5.380  1.8322  0.2284 -0.4793
   79SLPC  H17Y 7346   2.803   5.555   5.356  0.6361 -1.4800  1.6435
   79SLPC  C318 7347   2.985   5.579   5.247  0.3923 -0.1897  0.9450
   79SLPC  H18X 7348   2.935   5.642   5.171 -0.4141 -0.0502  1.5817
   79SLPC  H18Y 7349   2.974   5.473   5.213  0.3752  0.4085 -1.0059
   79SLPC  H18Z 7350   3.088   5.618   5.266 -0.4314  1.0999  3.0771
   80SLPC     N 7351   5.148   1.134   7.963 -0.0959 -0.6046  0.0379
   80SLPC   C13 7352   5.025   1.152   8.041  0.4789 -0.1530 -0.3015
   80SLPC  H13A 7353   5.040   1.126   8.145  4.2223 -0.1581 -0.7200
   80SLPC  H13B 7354   4.981   1.250   8.028 -0.7834 -0.8897 -2.0147
   80SLPC  H13C 7355   4.943   1.092   8.004 -1.0512  0.3170  2.0570
   80SLPC   C14 7356   5.224   1.016   8.011 -1.1275  0.4791  0.4462
   80SLPC  H14A 7357   5.170   0.934   7.967 -1.0226  0.7224 -0.1480
   80SLPC  H14B 7358   5.323   1.014   7.967 -1.7010  1.2817 -0.9516
   80SLPC  H14C 7359   5.223   1.009   8.119 -0.2809 -1.4492  0.3607
   80SLPC   C15 7360   5.237   1.254   7.991 -0.3201 -0.0707  0.0967
   80SLPC  H15A 7361   5.186   1.348   7.979  0.1694 -0.0109 -1.7949
   80SLPC  H15B 7362   5.259   1.250   8.097 -1.0477 -0.6541  0.2296
   80SLPC  H15C 7363   5.331   1.251   7.937  1.1677  1.2375  2.4315
   80SLPC   C12 7364   5.126   1.130   7.803 -0.1144  0.1102 -0.1155
   80SLPC  H12A 7365   5.217   1.096   7.756  0.6692 -0.7755  1.9076
   80SLPC  H12B 7366   5.098   1.227   7.766  1.4990 -0.0063 -1.7436
   80SLPC   C11 7367   5.024   1.030   7.737  0.6929 -0.2219  0.0243
   80SLPC  H11A 7368   5.057   0.928   7.767 -1.6236 -0.6745  1.3434
   80SLPC  H11B 7369   5.026   1.036   7.626  0.3832  1.1804  0.0823
   80SLPC     P 7370   4.809   1.178   7.729 -0.0838 -0.1455 -0.3026
   80SLPC   O13 7371   4.675   1.182   7.794 -0.4420 -0.1594 -0.0122
   80SLPC   O14 7372   4.888   1.303   7.722 -0.4940  0.6194 -0.1718
   80SLPC   O12 7373   4.889   1.047   7.783  0.6563 -0.2519  0.1571
   80SLPC   O11 7374   4.773   1.132   7.583 -0.1976 -0.3951 -0.3123
   80SLPC    C1 7375   4.698   1.009   7.557 -0.3762 -0.6722 -0.1364
   80SLPC    HA 7376   4.762   0.919   7.567  0.8697  0.1293 -0.6707
   80SLPC    HB 7377   4.616   1.001   7.633  0.8500 -0.0352  1.2993
   80SLPC    C2 7378   4.629   1.027   7.420 -0.2569 -0.5139  0.0430
   80SLPC    HS 7379   4.580   0.935   7.380  0.7650 -0.3880 -1.6078
   80SLPC   O21 7380   4.731   1.055   7.325  0.3802 -0.0871 -0.1074
   80SLPC   C21 7381   4.828   0.967   7.301 -0.2862  0.0010 -0.1342
   80SLPC   O22 7382   4.840   0.855   7.351  0.4850  0.4206  0.5638
   80SLPC   C22 7383   4.923   1.016   7.190  0.4270  0.5141  0.4674
   80SLPC   H2R 7384   4.906   0.949   7.103  2.7046  1.2818 -0.6394
   80SLPC   H2S 7385   4.904   1.124   7.171 -0.5391  0.3983  0.7203
   80SLPC    C3 7386   4.525   1.145   7.415  0.0316 -0.1003 -0.5400
   80SLPC    HX 7387   4.585   1.234   7.443 -2.5413  0.7726  2.8631
   80SLPC    HY 7388   4.455   1.118   7.497 -0.8211 -0.2113 -1.2835
   80SLPC   O31 7389   4.460   1.167   7.286  0.0066 -0.4575 -0.3756
   80SLPC   C31 7390   4.365   1.084   7.259 -0.0321 -0.4104 -0.0549
   80SLPC   O32 7391   4.304   1.024   7.348  0.6358 -0.3855 -0.3599
   80SLPC   C32 7392   4.325   1.079   7.109 -0.8481 -0.1420  0.7838
   80SLPC   H2X 7393   4.215   1.091   7.099 -0.5218  1.2216 -2.5736
   80SLPC   H2Y 7394   4.338   0.973   7.077 -1.9532  0.3139 -1.3706
   80SLPC   C23 7395   5.077   0.987   7.211 -0.2942  0.1451 -0.8299
   80SLPC   H3R 7396   5.130   1.013   7.116  2.3341 -0.6286  0.3143
   80SLPC   H3S 7397   5.100   0.881   7.234 -1.3503 -0.5479 -2.7557
   80SLPC   C24 7398   5.132   1.076   7.328 -0.0316  0.2519 -0.7845
   80SLPC   H4R 7399   5.218   1.031   7.383 -0.4036 -2.1624 -2.0988
   80SLPC   H4S 7400   5.054   1.092   7.406  1.1872  1.2109  0.2994
   80SLPC   C25 7401   5.184   1.210   7.276 -0.2819  0.6130 -0.7572
   80SLPC   H5R 7402   5.216   1.268   7.365 -0.1703 -1.6141  0.7326
   80SLPC   H5S 7403   5.091   1.265   7.249 -2.5577 -2.0350  1.1006
   80SLPC   C26 7404   5.289   1.207   7.159  0.4226 -0.0629 -0.4919
   80SLPC   H6R 7405   5.263   1.142   7.072  3.1566 -0.9230 -0.7686
   80SLPC   H6S 7406   5.382   1.168   7.206  0.8469 -0.0725 -1.3242
   80SLPC   C27 7407   5.319   1.349   7.106 -0.6952  0.7908 -0.5565
   80SLPC   H7R 7408   5.361   1.410   7.188 -0.0752 -1.3227  0.7639
   80SLPC   H7S 7409   5.224   1.393   7.068 -1.0761 -1.1843 -2.0762
   80SLPC   C28 7410   5.419   1.350   6.987 -0.1965 -0.2976 -0.2386
   80SLPC   H8R 7411   5.371   1.301   6.900  1.4857  0.9602 -1.9455
   80SLPC   H8S 7412   5.511   1.297   7.019  1.0856  0.4250 -2.5544
   80SLPC   C29 7413   5.453   1.489   6.949 -0.4138 -0.3037  0.1624
   80SLPC   H9R 7414   5.454   1.558   7.035 -0.2561  0.6467 -0.5770
   80SLPC  C210 7415   5.477   1.526   6.824  0.6578 -0.2925  0.0363
   80SLPC  H10R 7416   5.488   1.634   6.806  1.5951 -0.2408  0.7781
   80SLPC  C211 7417   5.489   1.439   6.701  0.7128 -0.3568  0.9675
   80SLPC  H11R 7418   5.522   1.335   6.718  1.0093 -0.4359 -0.0138
   80SLPC  H11S 7419   5.572   1.487   6.643 -0.0867  0.6204  0.6025
   80SLPC  C212 7420   5.366   1.436   6.616  0.0672  0.1021  0.2750
   80SLPC  H12R 7421   5.269   1.458   6.663 -0.4156 -0.0131 -0.6445
   80SLPC  C213 7422   5.365   1.462   6.480  0.0285 -0.5389 -0.2721
   80SLPC  H13R 7423   5.264   1.470   6.436 -0.8555  2.2417  1.9390
   80SLPC  C214 7424   5.483   1.466   6.390  0.2564  0.0514  0.4063
   80SLPC  H14R 7425   5.568   1.422   6.446 -1.1636 -2.3117  0.8934
   80SLPC  H14S 7426   5.510   1.572   6.371  1.5752 -0.5233 -1.1328
   80SLPC  C215 7427   5.453   1.388   6.256 -0.6341  0.0793  0.4872
   80SLPC  H15R 7428   5.429   1.284   6.287  0.0002  0.2155  1.4760
   80SLPC  H15S 7429   5.550   1.363   6.208 -0.9881 -2.3993  0.9153
   80SLPC  C216 7430   5.360   1.447   6.149  0.1096 -0.4264  0.6915
   80SLPC  H16R 7431   5.396   1.540   6.099 -1.3178 -0.3281 -0.1939
   80SLPC  H16S 7432   5.272   1.484   6.206  0.7861  2.0806  0.2432
   80SLPC  C217 7433   5.313   1.338   6.048 -0.8096 -0.2065 -0.0396
   80SLPC  H17R 7434   5.276   1.252   6.106 -1.8188  0.0985 -0.2022
   80SLPC  H17S 7435   5.399   1.313   5.983  2.9711  1.9754  3.6637
   80SLPC  C218 7436   5.187   1.383   5.973 -0.5038 -0.6231  0.0801
   80SLPC  H18R 7437   5.099   1.388   6.041  0.4024 -1.6207  1.3477
   80SLPC  H18S 7438   5.167   1.322   5.882 -0.4381 -1.0377  0.3463
   80SLPC  H18T 7439   5.207   1.487   5.939 -0.9719 -0.4588  0.3011
   80SLPC   C33 7440   4.376   1.192   7.018  0.7944 -0.5006  0.3226
   80SLPC   H3X 7441   4.487   1.182   7.018  0.7911 -0.6830 -0.6122
   80SLPC   H3Y 7442   4.355   1.287   7.071  0.2158  0.0829 -0.9150
   80SLPC   C34 7443   4.314   1.200   6.876 -0.1261 -0.3696 -0.2751
   80SLPC   H4X 7444   4.206   1.221   6.894 -0.6137 -2.7809 -0.0621
   80SLPC   H4Y 7445   4.319   1.105   6.820  0.1997 -0.2454 -0.4585
   80SLPC   C35 7446   4.384   1.299   6.778 -0.9039  0.0023 -0.4496
   80SLPC   H5X 7447   4.493   1.291   6.792 -1.0381 -0.7968  0.2301
   80SLPC   H5Y 7448   4.363   1.406   6.799 -1.2499  0.0829 -1.1831
   80SLPC   C36 7449   4.367   1.263   6.634 -1.0530 -0.0958  0.6622
   80SLPC   H6X 7450   4.418   1.166   6.618 -0.2119  0.3392  0.6940
   80SLPC   H6Y 7451   4.418   1.334   6.566 -0.5365 -2.6687 -1.8572
   80SLPC   C37 7452   4.224   1.256   6.588 -0.4286 -0.2306 -0.0286
   80SLPC   H7X 7453   4.172   1.354   6.597  1.2200  0.6071  0.8533
   80SLPC   H7Y 7454   4.162   1.196   6.657 -0.0753  1.2602  1.6560
   80SLPC   C38 7455   4.224   1.210   6.441  0.1775  0.4480 -0.5397
   80SLPC   H8X 7456   4.119   1.196   6.408 -0.5615  2.1864  0.9004
   80SLPC   H8Y 7457   4.278   1.113   6.443 -0.8691 -0.1487 -0.4040
   80SLPC   C39 7458   4.276   1.316   6.350 -0.3386 -0.6591  0.8341
   80SLPC   H9X 7459   4.387   1.327   6.351 -0.2765 -1.2713  0.8783
   80SLPC   H9Y 7460   4.237   1.414   6.383 -0.1439 -0.0198 -0.7284
   80SLPC  C310 7461   4.228   1.289   6.205 -0.7465 -0.6431  0.5780
   80SLPC  H10X 7462   4.117   1.287   6.206 -0.7865 -2.3249  3.2396
   80SLPC  H10Y 7463   4.266   1.190   6.171  2.1070  0.6830 -0.4481
   80SLPC  C311 7464   4.293   1.383   6.099  0.0703 -0.1340 -0.1258
   80SLPC  H11X 7465   4.397   1.355   6.073 -0.2416 -1.0554 -0.4459
   80SLPC  H11Y 7466   4.298   1.486   6.140  0.1265 -0.0026 -0.4562
   80SLPC  C312 7467   4.208   1.418   5.978  0.6005  1.0909  0.6931
   80SLPC  H12X 7468   4.106   1.460   5.992 -0.4786 -1.4610  0.9933
   80SLPC  H12Y 7469   4.180   1.320   5.934 -2.3350  1.7359  0.9329
   80SLPC  C313 7470   4.283   1.496   5.868  0.3121  0.3768 -0.0445
   80SLPC  H13X 7471   4.306   1.593   5.917  2.7927  1.4175 -2.9554
   80SLPC  H13Y 7472   4.210   1.526   5.789  0.9451 -0.2513 -0.8818
   80SLPC  C314 7473   4.404   1.426   5.825 -0.3425 -0.0451 -0.7866
   80SLPC  H14X 7474   4.382   1.320   5.803 -0.1397 -0.0607 -0.9125
   80SLPC  H14Y 7475   4.474   1.447   5.909  0.1425  0.8266 -1.3954
   80SLPC  C315 7476   4.464   1.492   5.696 -0.0409 -0.3735 -0.0614
   80SLPC  H15X 7477   4.403   1.480   5.604 -0.8171 -1.2715  0.5508
   80SLPC  H15Y 7478   4.558   1.437   5.674 -0.2369 -1.4169  1.5165
   80SLPC  C316 7479   4.477   1.643   5.715 -0.4317 -0.3542 -0.0906
   80SLPC  H16X 7480   4.499   1.666   5.822 -0.3410 -0.3970 -0.1006
   80SLPC  H16Y 7481   4.382   1.695   5.691  0.0824  0.2691 -0.8323
   80SLPC  C317 7482   4.588   1.712   5.625  0.4269 -0.8193 -0.6006
   80SLPC  H17X 7483   4.678   1.647   5.630  1.9554  1.2846  0.5277
   80SLPC  H17Y 7484   4.615   1.809   5.672  2.1295 -1.5938  0.1035
   80SLPC  C318 7485   4.543   1.710   5.476  0.1478  0.3855 -0.4882
   80SLPC  H18X 7486   4.449   1.770   5.474 -1.2574 -1.5225  2.2605
   80SLPC  H18Y 7487   4.517   1.606   5.448  0.5363  0.5329 -1.4497
   80SLPC  H18Z 7488   4.609   1.750   5.396  0.5616 -0.4275 -0.5613
   81SLPC     N 7489   5.972   5.569   3.116 -0.1964  0.2709 -0.5776
   81SLPC   C13 7490   6.115   5.575   3.062  0.0782  0.2488 -0.6965
   81SLPC  H13A 7491   6.125   5.667   3.005 -0.8933 -1.6385 -4.2449
   81SLPC  H13B 7492   6.196   5.563   3.132  0.0021  1.7180 -0.3208
   81SLPC  H13C 7493   6.114   5.504   2.980 -2.4278 -0.3539 -0.2175
   81SLPC   C14 7494   5.927   5.429   3.149  0.5541  0.2234 -0.2135
   81SLPC  H14A 7495   5.993   5.374   3.215  0.1994 -0.4713 -0.4295
   81SLPC  H14B 7496   5.828   5.425   3.190 -0.0563  1.3371 -1.5159
   81SLPC  H14C 7497   5.910   5.379   3.055 -4.0471  1.6183 -0.3504
   81SLPC   C15 7498   5.893   5.626   3.003 -0.1007  1.5893  0.6340
   81SLPC  H15A 7499   5.791   5.638   3.034 -0.5088  1.9737 -0.7883
   81SLPC  H15B 7500   5.929   5.725   2.981  0.3823  1.0234 -1.2565
   81SLPC  H15C 7501   5.894   5.557   2.920  2.5041  0.9847  1.0773
   81SLPC   C12 7502   5.963   5.654   3.237 -0.1419 -0.6563 -0.4916
   81SLPC  H12A 7503   6.037   5.608   3.300  1.5700  0.6453 -1.4669
   81SLPC  H12B 7504   5.862   5.648   3.275 -0.6364  0.8903 -1.4489
   81SLPC   C11 7505   6.005   5.804   3.211  0.2557 -0.7883  0.5381
   81SLPC  H11A 7506   6.109   5.808   3.170  0.6468 -0.4871  1.5365
   81SLPC  H11B 7507   6.019   5.848   3.311  0.6492 -1.0965  0.6240
   81SLPC     P 7508   5.782   5.928   3.218  0.0954  0.0959 -0.1615
   81SLPC   O13 7509   5.724   6.049   3.152  0.0421 -0.0878  0.1935
   81SLPC   O14 7510   5.695   5.806   3.248 -0.1011 -0.0331 -0.1008
   81SLPC   O12 7511   5.902   5.869   3.135  0.3618 -0.5177 -0.9305
   81SLPC   O11 7512   5.837   5.981   3.362  0.0075 -0.1862  0.5552
   81SLPC    C1 7513   5.863   6.126   3.374  0.2592  0.0300 -0.1931
   81SLPC    HA 7514   5.934   6.163   3.297 -0.0594  1.7782  0.3201
   81SLPC    HB 7515   5.773   6.185   3.346  0.4906  0.0225 -0.9836
   81SLPC    C2 7516   5.906   6.174   3.516  0.2349 -0.0987 -0.6481
   81SLPC    HS 7517   6.005   6.127   3.534 -0.1966 -0.0064  2.4908
   81SLPC   O21 7518   5.805   6.122   3.607 -0.3116 -0.5822 -0.3139
   81SLPC   C21 7519   5.863   6.099   3.726 -0.0696 -0.3841  0.0310
   81SLPC   O22 7520   5.983   6.091   3.743 -0.6891 -0.1786  0.3282
   81SLPC   C22 7521   5.763   6.093   3.835  0.0310 -0.5005  0.3193
   81SLPC   H2R 7522   5.734   5.987   3.853  2.5041 -1.1943  0.4791
   81SLPC   H2S 7523   5.807   6.144   3.923 -4.0948  1.5013  1.5089
   81SLPC    C3 7524   5.907   6.327   3.526 -0.2150 -0.3526  0.0793
   81SLPC    HX 7525   5.814   6.371   3.482  0.8939  0.5136 -1.4733
   81SLPC    HY 7526   5.992   6.360   3.463  0.9472 -2.2940  0.5623
   81SLPC   O31 7527   5.923   6.374   3.662 -0.1049  0.4414 -0.0569
   81SLPC   C31 7528   6.039   6.408   3.712  0.1920  0.3699 -0.0760
   81SLPC   O32 7529   6.144   6.409   3.647  0.2457 -0.4015 -0.6177
   81SLPC   C32 7530   6.022   6.454   3.854  0.1074 -0.0831 -0.4680
   81SLPC   H2X 7531   5.952   6.387   3.910 -1.7865  2.7586  0.7992
   81SLPC   H2Y 7532   5.981   6.557   3.853 -2.4380 -0.9305  1.8100
   81SLPC   C23 7533   5.640   6.185   3.808  0.0424 -0.0921 -0.2117
   81SLPC   H3R 7534   5.599   6.156   3.709  1.9142  0.3236 -1.1435
   81SLPC   H3S 7535   5.684   6.286   3.794  2.5822 -1.0262  0.4202
   81SLPC   C24 7536   5.540   6.181   3.918 -0.0974  0.3410 -0.0695
   81SLPC   H4R 7537   5.466   6.264   3.915  0.9396  1.2576 -1.9137
   81SLPC   H4S 7538   5.591   6.196   4.015 -1.1233  0.3515  0.4808
   81SLPC   C25 7539   5.486   6.037   3.938  0.3109 -0.5414 -0.2941
   81SLPC   H5R 7540   5.576   5.980   3.970  0.2862 -0.4298 -0.0252
   81SLPC   H5S 7541   5.456   5.994   3.840 -0.4251 -0.7623  0.0244
   81SLPC   C26 7542   5.368   6.010   4.023 -0.4466  0.2283 -0.1269
   81SLPC   H6R 7543   5.321   5.912   3.998 -2.7318  1.2749 -0.2343
   81SLPC   H6S 7544   5.288   6.085   4.002 -0.8890 -0.7709 -2.2583
   81SLPC   C27 7545   5.412   6.012   4.172  0.0011  0.7245 -0.3804
   81SLPC   H7R 7546   5.450   6.112   4.200  0.8942  0.6948 -1.4234
   81SLPC   H7S 7547   5.493   5.937   4.189  0.7865  1.9179  1.5364
   81SLPC   C28 7548   5.297   5.975   4.272  0.4661 -0.3208  0.6881
   81SLPC   H8R 7549   5.347   5.965   4.371 -0.2438  4.0117  1.7081
   81SLPC   H8S 7550   5.261   5.875   4.240 -1.2386  0.5242 -0.1023
   81SLPC   C29 7551   5.177   6.074   4.282  0.5112  0.1906 -0.3120
   81SLPC   H9R 7552   5.107   6.078   4.198  0.9261 -0.9918 -0.7458
   81SLPC  C210 7553   5.178   6.178   4.365  0.2047  0.1700 -0.7074
   81SLPC  H10R 7554   5.096   6.251   4.372 -0.0185 -0.2598  1.9400
   81SLPC  C211 7555   5.274   6.213   4.475 -0.6181  0.6967 -0.4582
   81SLPC  H11R 7556   5.275   6.319   4.508  2.5038 -0.2197  3.1496
   81SLPC  H11S 7557   5.380   6.187   4.455  0.3169  2.1638  2.1067
   81SLPC  C212 7558   5.245   6.128   4.598  0.3537 -0.0307 -0.1187
   81SLPC  H12R 7559   5.211   6.029   4.564  1.1440 -0.2387 -0.3028
   81SLPC  C213 7560   5.248   6.174   4.725 -0.6600 -0.9038  0.4539
   81SLPC  H13R 7561   5.227   6.102   4.805  0.6574 -1.9683 -0.1101
   81SLPC  C214 7562   5.299   6.312   4.775 -0.3794  0.6552  0.0261
   81SLPC  H14R 7563   5.220   6.385   4.748 -3.0444 -1.2256  2.1662
   81SLPC  H14S 7564   5.393   6.344   4.726 -0.1599 -0.1338 -0.0793
   81SLPC  C215 7565   5.325   6.297   4.926 -0.6125 -0.4535  0.1001
   81SLPC  H15R 7566   5.414   6.231   4.935  0.5067  1.0748  0.5081
   81SLPC  H15S 7567   5.231   6.272   4.981 -0.1014  1.4533  1.9687
   81SLPC  C216 7568   5.349   6.434   4.998 -0.0887 -0.5183  0.4496
   81SLPC  H16R 7569   5.253   6.489   5.006  0.0341 -0.0936 -0.7090
   81SLPC  H16S 7570   5.421   6.494   4.938 -0.8900 -1.1216 -1.1996
   81SLPC  C217 7571   5.400   6.431   5.141  0.2073 -1.0380  0.5677
   81SLPC  H17R 7572   5.324   6.395   5.214  2.5626 -2.7198  2.3488
   81SLPC  H17S 7573   5.421   6.539   5.157  1.4487 -1.2980  0.7882
   81SLPC  C218 7574   5.519   6.347   5.175 -0.3919  0.8941 -0.3336
   81SLPC  H18R 7575   5.489   6.240   5.172 -1.3268  1.0803  1.0601
   81SLPC  H18S 7576   5.551   6.362   5.280  0.8897  3.4096 -1.0127
   81SLPC  H18T 7577   5.600   6.364   5.102  1.0766 -0.3332  0.9440
   81SLPC   C33 7578   6.164   6.464   3.924  0.7362 -0.4006  0.2938
   81SLPC   H3X 7579   6.235   6.516   3.857 -0.9818  1.4790 -0.1491
   81SLPC   H3Y 7580   6.208   6.364   3.944 -0.8835 -1.3378 -0.5803
   81SLPC   C34 7581   6.159   6.544   4.054 -0.1343 -0.4798 -0.6793
   81SLPC   H4X 7582   6.110   6.641   4.031  3.1033  1.7038  0.9159
   81SLPC   H4Y 7583   6.263   6.555   4.090 -0.7857  0.3300  1.0363
   81SLPC   C35 7584   6.082   6.489   4.173  0.4194 -0.3074 -0.2237
   81SLPC   H5X 7585   5.988   6.459   4.123  0.6006 -0.7463 -0.3095
   81SLPC   H5Y 7586   6.058   6.568   4.248  0.0689 -0.8320  0.2233
   81SLPC   C36 7587   6.155   6.376   4.250  0.5414  0.3948 -0.2073
   81SLPC   H6X 7588   6.195   6.301   4.179 -3.1129 -0.6424 -1.3991
   81SLPC   H6Y 7589   6.079   6.321   4.310 -0.5586  0.8769 -1.1156
   81SLPC   C37 7590   6.268   6.423   4.343  0.4044  0.3399  0.2533
   81SLPC   H7X 7591   6.359   6.458   4.290 -0.1200  2.9587  0.9417
   81SLPC   H7Y 7592   6.307   6.337   4.402  0.9956  0.0888 -0.4802
   81SLPC   C38 7593   6.243   6.532   4.448  0.7022  0.2271 -0.5271
   81SLPC   H8X 7594   6.199   6.625   4.407 -0.2576 -0.5062 -1.2113
   81SLPC   H8Y 7595   6.343   6.563   4.486  0.0181  1.3828  0.4205
   81SLPC   C39 7596   6.153   6.486   4.573 -0.4985 -0.3093 -0.2881
   81SLPC   H9X 7597   6.094   6.397   4.541 -1.7352  0.4610 -0.2057
   81SLPC   H9Y 7598   6.086   6.565   4.613 -0.4862 -0.1751 -0.5284
   81SLPC  C310 7599   6.238   6.435   4.695 -1.0656  0.3207  0.3315
   81SLPC  H10X 7600   6.321   6.371   4.657  1.0806  1.0984  3.3302
   81SLPC  H10Y 7601   6.168   6.366   4.747 -2.2413  0.1203 -1.4536
   81SLPC  C311 7602   6.297   6.538   4.789  0.3243 -0.0861 -0.2172
   81SLPC  H11X 7603   6.237   6.631   4.785 -1.9126 -1.4585 -0.2016
   81SLPC  H11Y 7604   6.398   6.559   4.747 -0.0630  0.7982 -0.7258
   81SLPC  C312 7605   6.321   6.489   4.930 -0.8070 -0.3291 -0.6430
   81SLPC  H12X 7606   6.395   6.553   4.983 -1.3103  0.3922 -0.7942
   81SLPC  H12Y 7607   6.380   6.394   4.931 -0.1325  0.0608 -1.8716
   81SLPC  C313 7608   6.191   6.476   5.005  0.8049 -0.3042 -0.2788
   81SLPC  H13X 7609   6.121   6.424   4.936  2.7523 -0.6199 -2.0941
   81SLPC  H13Y 7610   6.144   6.576   5.010 -1.0197 -0.9782 -2.4885
   81SLPC  C314 7611   6.202   6.404   5.143 -0.3452 -0.1258 -0.2060
   81SLPC  H14X 7612   6.103   6.378   5.186  0.0082  0.4090  0.9757
   81SLPC  H14Y 7613   6.243   6.475   5.218 -1.7227 -1.9509  2.4043
   81SLPC  C315 7614   6.288   6.281   5.155  0.5352 -0.2116  1.0472
   81SLPC  H15X 7615   6.391   6.318   5.137 -0.7686  1.4604 -4.9092
   81SLPC  H15Y 7616   6.270   6.203   5.078  2.9209 -1.9849  2.1314
   81SLPC  C316 7617   6.283   6.221   5.302 -0.1776  0.3983  0.0053
   81SLPC  H16X 7618   6.183   6.247   5.341 -1.6581 -2.9529 -1.1591
   81SLPC  H16Y 7619   6.365   6.270   5.359 -0.4635 -2.5782  3.2917
   81SLPC  C317 7620   6.313   6.072   5.307 -0.0062 -0.1011 -0.3933
   81SLPC  H17X 7621   6.419   6.065   5.274  0.4119  2.6083  0.0786
   81SLPC  H17Y 7622   6.242   6.018   5.242 -0.6329 -0.6154  0.6866
   81SLPC  C318 7623   6.296   6.014   5.448 -0.3514  0.0051 -0.2590
   81SLPC  H18X 7624   6.192   6.034   5.481  0.1940  0.8118  1.0652
   81SLPC  H18Y 7625   6.357   6.074   5.519  1.0315 -0.9293 -0.6158
   81SLPC  H18Z 7626   6.309   5.906   5.471 -1.0225  0.6463  3.9173
   82SLPC     N 7627   3.227   4.502   2.898 -0.4604 -0.3462  0.5607
   82SLPC   C13 7628   3.193   4.581   2.773  0.3531 -0.4206  1.2518
   82SLPC  H13A 7629   3.281   4.596   2.712 -1.7489 -0.8197 -2.1491
   82SLPC  H13B 7630   3.110   4.547   2.715  0.2618  1.2583  0.3302
   82SLPC  H13C 7631   3.156   4.676   2.810 -0.9889 -0.3225 -0.2854
   82SLPC   C14 7632   3.309   4.379   2.852 -0.4449  0.1668  0.2382
   82SLPC  H14A 7633   3.256   4.324   2.775 -0.8240  1.9585 -0.8462
   82SLPC  H14B 7634   3.406   4.411   2.816  0.8000 -1.0927  2.2820
   82SLPC  H14C 7635   3.325   4.307   2.930  0.3586  1.1559  1.0035
   82SLPC   C15 7636   3.103   4.462   2.962 -0.3243 -0.0675  0.3954
   82SLPC  H15A 7637   3.036   4.416   2.890 -0.3263  2.8173 -1.6222
   82SLPC  H15B 7638   3.122   4.398   3.047 -0.0224 -1.5123 -0.7085
   82SLPC  H15C 7639   3.044   4.545   2.998 -0.0770  0.9209 -1.3415
   82SLPC   C12 7640   3.306   4.584   3.000  0.0324  0.4910  0.5053
   82SLPC  H12A 7641   3.276   4.687   2.994 -0.0387  0.4258 -0.3329
   82SLPC  H12B 7642   3.412   4.589   2.980  0.3082  0.2824  1.7872
   82SLPC   C11 7643   3.286   4.548   3.154  0.1789  0.6151 -0.0557
   82SLPC  H11A 7644   3.362   4.590   3.224  2.0340 -0.4122 -1.3631
   82SLPC  H11B 7645   3.305   4.440   3.169 -0.5733  0.6119  0.9589
   82SLPC     P 7646   3.104   4.729   3.203 -0.0671 -0.2601  0.0307
   82SLPC   O13 7647   3.197   4.814   3.134  0.0194  0.3090 -0.3812
   82SLPC   O14 7648   2.963   4.731   3.163 -0.2168  0.4620  0.0446
   82SLPC   O12 7649   3.150   4.582   3.198 -0.1006 -0.7078  0.5456
   82SLPC   O11 7650   3.112   4.752   3.362  0.2176  0.3762  0.8762
   82SLPC    C1 7651   3.005   4.734   3.453 -0.5337  0.3760  0.2523
   82SLPC    HA 7652   2.907   4.745   3.401 -0.5306  0.5316  0.2780
   82SLPC    HB 7653   3.013   4.629   3.490  1.0030  0.5547  0.4595
   82SLPC    C2 7654   3.020   4.831   3.574 -0.2032 -0.0493  0.0142
   82SLPC    HS 7655   2.950   4.807   3.657  0.9073  0.4712  1.1412
   82SLPC   O21 7656   3.003   4.960   3.526  0.5702  0.0278 -0.1891
   82SLPC   C21 7657   2.885   4.995   3.490  0.2036  0.0404  0.4111
   82SLPC   O22 7658   2.782   4.930   3.489 -0.3996  0.1493 -0.2605
   82SLPC   C22 7659   2.890   5.140   3.428 -0.2783 -0.5938 -0.3322
   82SLPC   H2R 7660   2.992   5.167   3.395  0.3006  0.3060  2.0153
   82SLPC   H2S 7661   2.819   5.136   3.342 -2.2563  1.4307  1.0795
   82SLPC    C3 7662   3.157   4.813   3.654 -0.0013 -0.6927 -0.6174
   82SLPC    HX 7663   3.243   4.850   3.593  0.8926  1.9341  1.9999
   82SLPC    HY 7664   3.177   4.704   3.652  0.8265 -0.5656 -2.6644
   82SLPC   O31 7665   3.167   4.869   3.787 -0.3666 -0.6127  0.8254
   82SLPC   C31 7666   3.276   4.925   3.827 -0.6170 -0.1930  0.7222
   82SLPC   O32 7667   3.385   4.922   3.768 -0.2360 -0.0730 -1.2100
   82SLPC   C32 7668   3.250   4.987   3.961  0.2513 -0.6646 -0.6479
   82SLPC   H2X 7669   3.160   4.941   4.007  0.8107 -0.8808  0.2521
   82SLPC   H2Y 7670   3.233   5.094   3.937 -0.0393 -0.5761 -0.0806
   82SLPC   C23 7671   2.835   5.246   3.527 -0.3308 -0.3885 -0.1185
   82SLPC   H3R 7672   2.744   5.202   3.573 -0.0526  0.4717  1.2838
   82SLPC   H3S 7673   2.824   5.347   3.482 -0.9015 -1.2406 -2.0300
   82SLPC   C24 7674   2.930   5.272   3.644  0.1948 -0.0027  0.5217
   82SLPC   H4R 7675   3.010   5.337   3.604 -0.1182  1.2397  1.8384
   82SLPC   H4S 7676   2.981   5.178   3.675  1.4153 -0.0184 -1.3436
   82SLPC   C25 7677   2.860   5.325   3.776  0.0615 -0.0003  1.1420
   82SLPC   H5R 7678   2.809   5.237   3.820  0.3975 -0.7456  0.0755
   82SLPC   H5S 7679   2.797   5.416   3.767 -0.1903 -0.0597  2.1897
   82SLPC   C26 7680   2.965   5.372   3.882 -0.4450  0.8126  1.1046
   82SLPC   H6R 7681   3.005   5.470   3.848 -1.4448  0.8037 -0.1581
   82SLPC   H6S 7682   3.045   5.298   3.859 -0.2755  1.7544 -1.8410
   82SLPC   C27 7683   2.916   5.379   4.022 -0.2548 -0.2965 -0.0716
   82SLPC   H7R 7684   2.903   5.279   4.070  1.2667  0.6748  2.6006
   82SLPC   H7S 7685   2.813   5.418   4.012  0.2154  0.4689 -2.4521
   82SLPC   C28 7686   2.992   5.471   4.120  0.1453 -0.6967  0.0752
   82SLPC   H8R 7687   2.920   5.459   4.204  1.0662 -1.1992  0.8030
   82SLPC   H8S 7688   2.998   5.576   4.084 -2.0850 -0.2484  0.8596
   82SLPC   C29 7689   3.123   5.422   4.166  0.6075 -0.9957  0.3144
   82SLPC   H9R 7690   3.195   5.407   4.084 -0.2573  0.0886 -0.6782
   82SLPC  C210 7691   3.167   5.397   4.291 -0.5463 -0.1899 -0.5126
   82SLPC  H10R 7692   3.274   5.373   4.299 -0.9002 -1.7668 -0.3372
   82SLPC  C211 7693   3.103   5.405   4.426 -0.6650  0.7994 -0.3603
   82SLPC  H11R 7694   3.068   5.507   4.452 -1.4179 -0.2161  3.1410
   82SLPC  H11S 7695   3.182   5.394   4.503 -1.1608 -0.2499  0.0145
   82SLPC  C212 7696   2.992   5.305   4.449  0.1874  0.6238 -0.0816
   82SLPC  H12R 7697   2.906   5.326   4.384 -1.1602  0.5488  1.5835
   82SLPC  C213 7698   2.981   5.197   4.531  0.2293 -0.1609  0.4540
   82SLPC  H13R 7699   2.885   5.145   4.525  0.0492  0.0888  1.1193
   82SLPC  C214 7700   3.079   5.160   4.645 -0.3716 -0.0197  0.2287
   82SLPC  H14R 7701   3.162   5.233   4.652 -3.0570  3.7973 -2.9772
   82SLPC  H14S 7702   3.127   5.063   4.617  3.7090  2.0117 -0.4869
   82SLPC  C215 7703   3.005   5.148   4.773 -0.8610 -0.4221 -0.0460
   82SLPC  H15R 7704   2.928   5.068   4.765 -1.1889  0.0119 -1.7377
   82SLPC  H15S 7705   2.943   5.235   4.804 -3.2083 -2.6080  1.8645
   82SLPC  C216 7706   3.103   5.114   4.877 -0.2301  0.1478  0.2206
   82SLPC  H16R 7707   3.168   5.202   4.895 -0.9605  1.1291 -1.7007
   82SLPC  H16S 7708   3.168   5.029   4.848  1.4043  1.5466 -0.3424
   82SLPC  C217 7709   3.045   5.082   5.015  0.2793  0.4695 -0.5693
   82SLPC  H17R 7710   3.001   4.980   5.010  0.1278  0.4046  1.4870
   82SLPC  H17S 7711   2.961   5.150   5.042 -1.5678 -1.3460 -1.4115
   82SLPC  C218 7712   3.137   5.097   5.131  0.6872 -0.2226  0.1664
   82SLPC  H18R 7713   3.085   5.056   5.220 -0.2740 -3.2024 -1.6382
   82SLPC  H18S 7714   3.156   5.206   5.141 -0.4028  0.3599 -3.0032
   82SLPC  H18T 7715   3.237   5.051   5.120  0.3513 -1.4961  2.0515
   82SLPC   C33 7716   3.367   4.993   4.059 -0.1310  0.0783 -0.4915
   82SLPC   H3X 7717   3.450   5.062   4.034 -0.0297  0.4352  0.7319
   82SLPC   H3Y 7718   3.407   4.893   4.081 -0.2922  0.1978  0.3910
   82SLPC   C34 7719   3.307   5.045   4.192 -0.5704 -0.0481 -0.3859
   82SLPC   H4X 7720   3.242   4.961   4.224 -0.8267  0.3288  0.0896
   82SLPC   H4Y 7721   3.258   5.144   4.190 -2.8038 -1.0582  0.8146
   82SLPC   C35 7722   3.423   5.056   4.301 -0.1567 -0.3303  0.3665
   82SLPC   H5X 7723   3.481   5.147   4.276  0.5798 -0.7536  0.5087
   82SLPC   H5Y 7724   3.486   4.964   4.303  1.5761  0.8228  1.2564
   82SLPC   C36 7725   3.366   5.078   4.441  0.8596  0.2028 -0.1501
   82SLPC   H6X 7726   3.295   4.995   4.466  1.4761 -0.3163 -0.1096
   82SLPC   H6Y 7727   3.288   5.157   4.433 -1.0163 -1.3736  1.4373
   82SLPC   C37 7728   3.472   5.105   4.544 -0.0853 -0.5871 -0.4038
   82SLPC   H7X 7729   3.555   5.165   4.502 -0.0503 -0.0040  0.4853
   82SLPC   H7Y 7730   3.523   5.010   4.571  0.4312 -0.0472  0.5391
   82SLPC   C38 7731   3.425   5.183   4.674 -0.4011  0.4354  0.1732
   82SLPC   H8X 7732   3.348   5.117   4.721 -1.0411  1.4257  0.5434
   82SLPC   H8Y 7733   3.371   5.276   4.648  0.3669  0.6503 -0.7188
   82SLPC   C39 7734   3.543   5.219   4.762 -0.2896 -0.3072 -0.1220
   82SLPC   H9X 7735   3.620   5.283   4.713 -0.6578  0.3071  0.0845
   82SLPC   H9Y 7736   3.595   5.123   4.782 -1.7738 -1.2890 -0.7985
   82SLPC  C310 7737   3.505   5.295   4.889 -0.5325  0.6329  0.2075
   82SLPC  H10X 7738   3.419   5.242   4.934 -1.7208  1.7518 -0.6777
   82SLPC  H10Y 7739   3.459   5.388   4.848  2.0271  0.9699 -2.2325
   82SLPC  C311 7740   3.607   5.325   5.003 -0.6966 -1.1104  0.0151
   82SLPC  H11X 7741   3.692   5.382   4.960 -1.5826 -0.2609 -0.6568
   82SLPC  H11Y 7742   3.645   5.225   5.033  0.4972 -0.3731  1.0293
   82SLPC  C312 7743   3.543   5.410   5.125 -0.6329 -0.6663 -0.8159
   82SLPC  H12X 7744   3.564   5.514   5.093  0.5141 -1.1637 -1.7368
   82SLPC  H12Y 7745   3.604   5.398   5.217  1.1268 -1.5218 -2.0329
   82SLPC  C313 7746   3.391   5.389   5.146  0.0664 -0.3163 -0.4740
   82SLPC  H13X 7747   3.376   5.279   5.148 -1.7571 -0.1567  2.7725
   82SLPC  H13Y 7748   3.338   5.439   5.063 -0.3013  1.8152  0.9552
   82SLPC  C314 7749   3.341   5.444   5.281 -0.0602 -0.7766  0.3360
   82SLPC  H14X 7750   3.232   5.422   5.276  0.0921 -2.3270  2.4462
   82SLPC  H14Y 7751   3.347   5.554   5.296  0.8008 -0.4927 -1.7430
   82SLPC  C315 7752   3.381   5.373   5.408  0.3129  0.0787  0.2463
   82SLPC  H15X 7753   3.443   5.284   5.384 -1.1208 -0.9862  0.3696
   82SLPC  H15Y 7754   3.296   5.327   5.462 -1.1371  0.0330 -1.9716
   82SLPC  C316 7755   3.460   5.456   5.512 -0.2553 -0.1138  0.2596
   82SLPC  H16X 7756   3.555   5.492   5.468 -0.2087 -2.1458 -1.4906
   82SLPC  H16Y 7757   3.495   5.390   5.595 -0.2245 -1.1428 -0.5492
   82SLPC  C317 7758   3.374   5.566   5.571 -0.0777 -0.6676  0.0820
   82SLPC  H17X 7759   3.277   5.532   5.613 -1.9386  4.1487  0.4182
   82SLPC  H17Y 7760   3.337   5.621   5.481 -0.4410 -1.4974 -0.2876
   82SLPC  C318 7761   3.454   5.649   5.668 -0.5431 -0.2002  0.2616
   82SLPC  H18X 7762   3.398   5.724   5.728  0.6784  1.9655 -1.1514
   82SLPC  H18Y 7763   3.537   5.713   5.630 -0.6963 -0.0792  0.1291
   82SLPC  H18Z 7764   3.521   5.587   5.731  1.3036  0.3678 -1.0357
   83SLPC     N 7765   2.414   0.544   2.729 -0.6258 -0.5897  0.1792
   83SLPC   C13 7766   2.442   0.663   2.637 -0.2130  0.6402 -0.2792
   83SLPC  H13A 7767   2.450   0.647   2.530 -2.4092 -0.9259 -0.2816
   83SLPC  H13B 7768   2.365   0.738   2.649 -1.7866 -1.0682  0.8245
   83SLPC  H13C 7769   2.534   0.711   2.668  0.0494 -1.9959  3.6964
   83SLPC   C14 7770   2.479   0.420   2.674 -0.4981 -0.0419 -0.4413
   83SLPC  H14A 7771   2.470   0.342   2.748  0.1584  0.8823  0.6416
   83SLPC  H14B 7772   2.441   0.387   2.579  1.4954 -0.3966 -1.1610
   83SLPC  H14C 7773   2.583   0.443   2.657 -0.5258 -0.8792 -1.9167
   83SLPC   C15 7774   2.267   0.520   2.709  0.1849 -0.1452  0.1271
   83SLPC  H15A 7775   2.239   0.499   2.607  0.2452 -0.2384  0.1295
   83SLPC  H15B 7776   2.247   0.434   2.771  1.4823  0.1548  1.0060
   83SLPC  H15C 7777   2.205   0.600   2.748  0.0265 -0.9721  1.6536
   83SLPC   C12 7778   2.444   0.569   2.873 -0.1071 -0.8350 -0.4967
   83SLPC  H12A 7779   2.551   0.579   2.888 -0.3768  0.5441  0.7424
   83SLPC  H12B 7780   2.413   0.485   2.932  0.0867  0.3920  1.4448
   83SLPC   C11 7781   2.377   0.691   2.945 -0.6092 -0.8175  0.5474
   83SLPC  H11A 7782   2.392   0.785   2.888 -1.1522 -2.4017 -2.3689
   83SLPC  H11B 7783   2.424   0.713   3.044 -2.1959  1.2103  0.9360
   83SLPC     P 7784   2.182   0.567   3.072 -0.5896  0.0737  0.2041
   83SLPC   O13 7785   2.129   0.651   3.188  0.5168  1.2554  0.3485
   83SLPC   O14 7786   2.111   0.448   3.023 -0.1875 -0.0460  0.2146
   83SLPC   O12 7787   2.235   0.664   2.954 -0.5228 -0.2029 -0.0234
   83SLPC   O11 7788   2.319   0.500   3.126  0.1672 -0.1700 -0.0951
   83SLPC    C1 7789   2.333   0.455   3.258  0.6977  0.1384  0.1582
   83SLPC    HA 7790   2.372   0.535   3.324  0.8785 -0.2343  0.5028
   83SLPC    HB 7791   2.245   0.411   3.309  1.1246  0.4807  1.2117
   83SLPC    C2 7792   2.451   0.348   3.270  0.0983 -0.5863  0.3987
   83SLPC    HS 7793   2.396   0.252   3.258 -1.1794  0.1997 -0.3480
   83SLPC   O21 7794   2.520   0.365   3.395 -0.1742  0.7062  0.2842
   83SLPC   C21 7795   2.466   0.315   3.502 -0.6619 -0.1466 -0.6771
   83SLPC   O22 7796   2.372   0.240   3.508  0.0867 -0.4711 -0.6854
   83SLPC   C22 7797   2.539   0.360   3.626 -0.6339  0.2813 -0.0552
   83SLPC   H2R 7798   2.646   0.331   3.619 -1.0105 -1.5947  1.1759
   83SLPC   H2S 7799   2.532   0.470   3.615  0.7344  0.1428 -3.7364
   83SLPC    C3 7800   2.546   0.359   3.146 -0.0518 -0.0190 -0.9556
   83SLPC    HX 7801   2.584   0.462   3.130  0.6613 -0.2480 -0.7442
   83SLPC    HY 7802   2.491   0.331   3.053 -0.3974 -1.5313 -0.3337
   83SLPC   O31 7803   2.661   0.285   3.172  0.7302 -0.2726 -0.3000
   83SLPC   C31 7804   2.647   0.152   3.167 -0.7600  0.0227  0.3681
   83SLPC   O32 7805   2.554   0.092   3.122  0.6625  0.5393  0.0670
   83SLPC   C32 7806   2.774   0.087   3.229 -0.3614 -0.2150  0.2847
   83SLPC   H2X 7807   2.794   0.149   3.319 -1.0706 -2.0210  1.7337
   83SLPC   H2Y 7808   2.859   0.105   3.159  0.2056  1.5752  1.3560
   83SLPC   C23 7809   2.471   0.309   3.754  0.1068 -0.1950 -0.5290
   83SLPC   H3R 7810   2.478   0.199   3.766 -0.7033 -0.2156 -0.1603
   83SLPC   H3S 7811   2.362   0.331   3.742  0.3324  0.9018 -0.6872
   83SLPC   C24 7812   2.512   0.388   3.880  0.5459 -0.2520 -0.0140
   83SLPC   H4R 7813   2.490   0.494   3.854 -1.8674 -1.1051 -1.8863
   83SLPC   H4S 7814   2.622   0.379   3.876  0.6976  1.1026  0.3680
   83SLPC   C25 7815   2.446   0.340   4.012  0.4121  0.3519  0.1697
   83SLPC   H5R 7816   2.444   0.230   4.027 -1.5812  0.2271 -0.7111
   83SLPC   H5S 7817   2.340   0.372   4.005  0.6822  1.2543 -0.0110
   83SLPC   C26 7818   2.509   0.402   4.136  0.2037  0.7509 -0.3889
   83SLPC   H6R 7819   2.527   0.511   4.126 -2.1786  1.2080 -0.3218
   83SLPC   H6S 7820   2.610   0.357   4.147 -0.2248  0.2721  2.5036
   83SLPC   C27 7821   2.439   0.386   4.270  0.1144  0.3220  0.0012
   83SLPC   H7R 7822   2.400   0.282   4.267  2.4363 -0.6086  0.3835
   83SLPC   H7S 7823   2.358   0.461   4.288 -0.7718 -0.5852 -0.0978
   83SLPC   C28 7824   2.527   0.418   4.390 -0.5738 -0.2505  0.7708
   83SLPC   H8R 7825   2.549   0.527   4.379  1.4983 -0.6925  0.0640
   83SLPC   H8S 7826   2.627   0.369   4.388 -0.6826 -0.6782 -3.3937
   83SLPC   C29 7827   2.445   0.385   4.515 -0.1895  0.7095  0.2561
   83SLPC   H9R 7828   2.340   0.362   4.493  0.4963 -1.0252 -1.4662
   83SLPC  C210 7829   2.500   0.391   4.636  0.1844 -0.5498  0.0133
   83SLPC  H10R 7830   2.453   0.349   4.727 -0.1366  1.8367  1.0172
   83SLPC  C211 7831   2.647   0.419   4.668  0.7635 -0.1067 -0.1135
   83SLPC  H11R 7832   2.707   0.459   4.583  2.1478 -0.8416  0.4924
   83SLPC  H11S 7833   2.706   0.326   4.679 -0.9959 -1.5357 -1.8590
   83SLPC  C212 7834   2.671   0.517   4.780 -0.0496 -0.2178  0.5426
   83SLPC  H12R 7835   2.646   0.623   4.761 -3.8198 -1.1090 -0.1184
   83SLPC  C213 7836   2.726   0.495   4.901 -0.0977 -0.6305 -0.4560
   83SLPC  H13R 7837   2.731   0.575   4.976  2.1100 -1.9754  0.9407
   83SLPC  C214 7838   2.748   0.363   4.961  0.0533  0.0306  0.6277
   83SLPC  H14R 7839   2.759   0.286   4.881  0.1333  0.9139 -0.2312
   83SLPC  H14S 7840   2.647   0.346   5.003 -0.2036  0.0223  0.0166
   83SLPC  C215 7841   2.845   0.356   5.078 -0.1170 -0.0416  0.2405
   83SLPC  H15R 7842   2.798   0.288   5.153 -0.7381 -1.0298 -1.0017
   83SLPC  H15S 7843   2.858   0.452   5.133 -0.6852  1.6135 -2.3151
   83SLPC  C216 7844   2.975   0.294   5.033 -0.8320  0.2791  0.4579
   83SLPC  H16R 7845   3.016   0.364   4.957 -2.5065  1.4408  0.5652
   83SLPC  H16S 7846   2.965   0.192   4.990  0.8598 -0.8883  2.6298
   83SLPC  C217 7847   3.063   0.272   5.159  0.5646  0.2512 -0.1946
   83SLPC  H17R 7848   3.124   0.182   5.135  1.7521  1.1972 -0.8051
   83SLPC  H17S 7849   2.997   0.248   5.245  1.1044  1.0458  0.4467
   83SLPC  C218 7850   3.149   0.386   5.223  0.8439 -0.1237 -0.8701
   83SLPC  H18R 7851   3.245   0.405   5.170  0.9665 -1.7420 -1.2885
   83SLPC  H18S 7852   3.168   0.359   5.329 -2.8689 -0.8531 -0.2618
   83SLPC  H18T 7853   3.089   0.479   5.220  0.5293 -0.3402 -1.5146
   83SLPC   C33 7854   2.743  -0.057   3.280  0.0822 -0.3923  0.1796
   83SLPC   H3X 7855   2.836  -0.118   3.280 -0.2582 -0.9266  1.2451
   83SLPC   H3Y 7856   2.682  -0.116   3.209 -1.2602  0.6494  0.4219
   83SLPC   C34 7857   2.675  -0.060   3.412  1.1540 -0.2707  0.3029
   83SLPC   H4X 7858   2.632  -0.161   3.428 -0.9125  0.5712  0.4063
   83SLPC   H4Y 7859   2.582  -0.001   3.422  1.0723 -0.7559  3.7024
   83SLPC   C35 7860   2.764  -0.035   3.534  0.3337 -0.0837  1.0182
   83SLPC   H5X 7861   2.813   0.063   3.515 -1.7294  0.4215 -2.5510
   83SLPC   H5Y 7862   2.831  -0.119   3.560 -1.6487 -2.3188 -0.6755
   83SLPC   C36 7863   2.681  -0.013   3.660  0.4012  0.5789  0.1898
   83SLPC   H6X 7864   2.591  -0.078   3.651  1.4849 -0.9486 -0.0503
   83SLPC   H6Y 7865   2.655   0.095   3.654  3.5545  1.3607 -2.0499
   83SLPC   C37 7866   2.757  -0.036   3.788 -0.3039  0.5325 -0.5382
   83SLPC   H7X 7867   2.834   0.044   3.794 -0.7407  1.0577 -1.5807
   83SLPC   H7Y 7868   2.810  -0.133   3.774  0.9115  1.2387 -1.0431
   83SLPC   C38 7869   2.670  -0.030   3.912  1.6891 -0.0985  0.6080
   83SLPC   H8X 7870   2.618  -0.128   3.914  2.1490 -0.4816 -2.5066
   83SLPC   H8Y 7871   2.583   0.039   3.899  2.5620  0.7884 -0.7805
   83SLPC   C39 7872   2.743   0.001   4.039  0.4501  0.3258 -0.3232
   83SLPC   H9X 7873   2.797   0.095   4.063  1.2693 -0.7743  2.5111
   83SLPC   H9Y 7874   2.815  -0.082   4.049  1.1592  0.9889  0.2258
   83SLPC  C310 7875   2.651  -0.002   4.165  0.7426  0.7437  0.1872
   83SLPC  H10X 7876   2.607  -0.101   4.190  0.9837  0.6721  0.3319
   83SLPC  H10Y 7877   2.563   0.063   4.147 -0.5557 -1.4004 -1.8832
   83SLPC  C311 7878   2.730   0.018   4.296 -0.2652  0.4710  0.2382
   83SLPC  H11X 7879   2.787   0.114   4.305  1.2281 -0.3411 -0.1912
   83SLPC  H11Y 7880   2.803  -0.065   4.307  0.5477  1.2706  1.0380
   83SLPC  C312 7881   2.633   0.002   4.416 -0.2060 -0.5309 -0.4559
   83SLPC  H12X 7882   2.576  -0.093   4.415 -1.1849 -0.0137  1.4708
   83SLPC  H12Y 7883   2.555   0.081   4.420 -1.1478 -1.4220  3.3979
   83SLPC  C313 7884   2.714   0.003   4.544  0.1446 -0.2464  0.3672
   83SLPC  H13X 7885   2.749   0.108   4.538  0.1785 -0.2853 -0.1492
   83SLPC  H13Y 7886   2.800  -0.066   4.553  0.9469  0.7574  0.6311
   83SLPC  C314 7887   2.618  -0.008   4.667 -0.1275  0.3872  0.0506
   83SLPC  H14X 7888   2.551  -0.096   4.660 -0.8920  1.0069 -0.5805
   83SLPC  H14Y 7889   2.553   0.082   4.667 -0.2579  0.2931  0.0096
   83SLPC  C315 7890   2.703  -0.007   4.794 -0.0718 -0.6162  1.0300
   83SLPC  H15X 7891   2.773   0.080   4.798  0.7245 -1.1023 -0.9946
   83SLPC  H15Y 7892   2.765  -0.099   4.803  2.4420  0.9872  1.3473
   83SLPC  C316 7893   2.617   0.005   4.922 -0.0128 -0.5659 -0.2718
   83SLPC  H16X 7894   2.556  -0.084   4.946  0.4980 -0.6505  0.7564
   83SLPC  H16Y 7895   2.551   0.094   4.919 -0.0359 -0.5625  0.3136
   83SLPC  C317 7896   2.704   0.017   5.049 -0.1576  0.1402  0.8632
   83SLPC  H17X 7897   2.769   0.102   5.018  0.9908 -1.4328 -1.2869
   83SLPC  H17Y 7898   2.770  -0.072   5.049 -2.7982 -2.0194 -2.5084
   83SLPC  C318 7899   2.631   0.036   5.177 -0.4079 -0.1879 -0.0736
   83SLPC  H18X 7900   2.555  -0.043   5.196 -0.7354  0.1151 -0.1288
   83SLPC  H18Y 7901   2.597   0.141   5.182  1.9320  0.6817 -0.8651
   83SLPC  H18Z 7902   2.701   0.034   5.264  1.1610 -0.2360 -1.2911
   84SLPC     N 7903   4.887   4.598   3.171  0.2512  0.2099 -0.0940
   84SLPC   C13 7904   5.027   4.550   3.130  0.3738  0.4665  0.0351
   84SLPC  H13A 7905   5.050   4.447   3.155  0.2320 -0.3398 -2.7866
   84SLPC  H13B 7906   5.023   4.544   3.022  0.4992  2.5584 -0.1225
   84SLPC  H13C 7907   5.096   4.626   3.160  0.4959  0.3983 -0.0707
   84SLPC   C14 7908   4.775   4.507   3.117 -0.6877  0.0819  0.2181
   84SLPC  H14A 7909   4.685   4.567   3.117 -2.0706 -1.9092  0.3637
   84SLPC  H14B 7910   4.794   4.451   3.027 -1.1427  1.8062 -0.9935
   84SLPC  H14C 7911   4.743   4.430   3.186 -0.3655 -0.7419 -0.5402
   84SLPC   C15 7912   4.869   4.723   3.100  0.1880  0.4304  0.3712
   84SLPC  H15A 7913   4.959   4.782   3.100 -0.0860  0.8875 -0.9282
   84SLPC  H15B 7914   4.846   4.714   2.995 -0.5152 -2.4590  0.6877
   84SLPC  H15C 7915   4.785   4.785   3.129 -2.3493 -1.7979 -1.7003
   84SLPC   C12 7916   4.878   4.617   3.321  0.1952 -0.6969  0.1370
   84SLPC  H12A 7917   4.785   4.662   3.351 -1.5730 -2.7571 -1.9369
   84SLPC  H12B 7918   4.959   4.684   3.348  0.0009  0.0984 -1.1603
   84SLPC   C11 7919   4.900   4.489   3.417  0.2701 -0.2237  0.3050
   84SLPC  H11A 7920   4.896   4.514   3.525  1.0087  0.0225  0.2772
   84SLPC  H11B 7921   5.004   4.454   3.398 -0.4947 -1.3872 -2.0972
   84SLPC     P 7922   4.678   4.362   3.461 -0.4759 -0.2512 -0.0655
   84SLPC   O13 7923   4.590   4.271   3.388  0.0407 -0.0193  0.5053
   84SLPC   O14 7924   4.720   4.336   3.600  0.0840 -0.3059  0.1005
   84SLPC   O12 7925   4.812   4.379   3.384 -0.2023 -0.1427  0.8423
   84SLPC   O11 7926   4.621   4.509   3.450  0.1426  0.7147  0.1892
   84SLPC    C1 7927   4.622   4.612   3.547  0.2263 -0.0578  0.1278
   84SLPC    HA 7928   4.697   4.600   3.628  0.9647 -1.6442 -0.7483
   84SLPC    HB 7929   4.644   4.701   3.484  0.6566 -0.2106  0.0646
   84SLPC    C2 7930   4.485   4.630   3.611  0.1832  0.4053 -0.4317
   84SLPC    HS 7931   4.485   4.718   3.679 -2.4125 -0.0236  0.2207
   84SLPC   O21 7932   4.445   4.514   3.688 -0.7751  0.1843 -0.0992
   84SLPC   C21 7933   4.515   4.490   3.804 -0.0031  0.1586  0.3726
   84SLPC   O22 7934   4.588   4.575   3.861 -0.0068 -0.2808  0.0468
   84SLPC   C22 7935   4.469   4.353   3.861  0.4919 -0.3573  0.4758
   84SLPC   H2R 7936   4.397   4.378   3.943  0.4320  0.3076  0.2300
   84SLPC   H2S 7937   4.410   4.316   3.774  1.1503  1.9988 -1.0665
   84SLPC    C3 7938   4.375   4.676   3.514  0.7333 -0.5704  0.4381
   84SLPC    HX 7939   4.366   4.606   3.429  0.7554  1.3471 -1.1991
   84SLPC    HY 7940   4.413   4.774   3.478 -2.0229  0.1266 -0.9040
   84SLPC   O31 7941   4.249   4.699   3.587  0.2368  0.1014  0.1325
   84SLPC   C31 7942   4.143   4.621   3.561  0.9625 -0.0822 -0.2955
   84SLPC   O32 7943   4.136   4.542   3.465  0.2128 -0.5132 -0.1895
   84SLPC   C32 7944   4.033   4.620   3.665 -0.8322 -0.8185 -0.1259
   84SLPC   H2X 7945   3.948   4.677   3.622  2.5236  3.2099 -2.2478
   84SLPC   H2Y 7946   4.061   4.671   3.760  1.4036 -0.0802 -1.1149
   84SLPC   C23 7947   4.581   4.255   3.904  0.4977 -0.4358  0.0122
   84SLPC   H3R 7948   4.650   4.301   3.978 -3.4073  0.4408  3.4481
   84SLPC   H3S 7949   4.647   4.226   3.819 -0.5027  1.1799 -1.3996
   84SLPC   C24 7950   4.538   4.125   3.966  0.9896  0.0313 -0.4222
   84SLPC   H4R 7951   4.630   4.063   3.974  1.2510  0.6385  2.0092
   84SLPC   H4S 7952   4.463   4.088   3.893 -1.3118  0.3493  1.6450
   84SLPC   C25 7953   4.457   4.147   4.100  0.2000 -0.2624  0.5972
   84SLPC   H5R 7954   4.360   4.195   4.077  0.2582 -0.3730  0.1244
   84SLPC   H5S 7955   4.515   4.223   4.158  0.5796  0.7551 -1.0654
   84SLPC   C26 7956   4.457   4.023   4.192 -0.0927  0.2425 -0.0803
   84SLPC   H6R 7957   4.411   4.057   4.287  0.7632 -0.4848  0.6146
   84SLPC   H6S 7958   4.560   3.990   4.221 -0.7632 -1.2546  0.6945
   84SLPC   C27 7959   4.377   3.906   4.137  0.3866  0.2584 -0.5525
   84SLPC   H7R 7960   4.410   3.870   4.037 -3.2711 -0.3012 -1.7221
   84SLPC   H7S 7961   4.272   3.943   4.130  0.3528  0.5135  1.0240
   84SLPC   C28 7962   4.371   3.782   4.225  0.7534  0.2229  0.7229
   84SLPC   H8R 7963   4.325   3.700   4.165 -0.8643  0.5749  1.4440
   84SLPC   H8S 7964   4.292   3.797   4.301 -0.2733 -0.6882 -0.1102
   84SLPC   C29 7965   4.505   3.734   4.269  0.3405  0.8610 -0.1010
   84SLPC   H9R 7966   4.588   3.727   4.197  1.0034 -0.2952  0.7427
   84SLPC  C210 7967   4.534   3.683   4.394  0.1985 -0.6245 -0.2920
   84SLPC  H10R 7968   4.634   3.650   4.425 -0.3691 -2.8489 -0.6438
   84SLPC  C211 7969   4.433   3.673   4.510  0.6292 -0.2804 -0.2199
   84SLPC  H11R 7970   4.357   3.753   4.496  0.3581 -0.0541  2.1321
   84SLPC  H11S 7971   4.496   3.684   4.602  1.3644 -0.9880 -0.6207
   84SLPC  C212 7972   4.351   3.542   4.519  0.2565 -0.1143 -0.2920
   84SLPC  H12R 7973   4.326   3.491   4.424 -1.9760 -1.8522  1.1191
   84SLPC  C213 7974   4.321   3.477   4.634  0.6154 -0.3307 -0.4508
   84SLPC  H13R 7975   4.250   3.393   4.633 -2.3446  1.9566 -2.0841
   84SLPC  C214 7976   4.337   3.533   4.771  0.3727  0.3490  0.0181
   84SLPC  H14R 7977   4.397   3.625   4.758  0.4367  0.1934 -0.8347
   84SLPC  H14S 7978   4.396   3.465   4.835 -2.8037 -2.2271  0.4887
   84SLPC  C215 7979   4.213   3.555   4.856  0.4485 -0.8924 -0.1968
   84SLPC  H15R 7980   4.133   3.616   4.810  0.0727 -2.0070 -1.0677
   84SLPC  H15S 7981   4.243   3.598   4.954 -1.6591 -0.1676  0.1661
   84SLPC  C216 7982   4.138   3.422   4.889 -0.2787 -1.4673  0.0285
   84SLPC  H16R 7983   4.196   3.362   4.963 -1.0297 -1.9500  0.2274
   84SLPC  H16S 7984   4.120   3.366   4.795 -1.4268  0.5145 -1.0019
   84SLPC  C217 7985   4.005   3.457   4.959  0.3307  0.4316  1.1278
   84SLPC  H17R 7986   3.927   3.387   4.924 -0.7395  0.8654  2.5508
   84SLPC  H17S 7987   3.975   3.559   4.928  1.2494  1.1734  2.5508
   84SLPC  C218 7988   4.011   3.463   5.110  0.4697 -0.4412  0.0492
   84SLPC  H18R 7989   4.053   3.374   5.161 -0.8399 -1.9461 -1.3772
   84SLPC  H18S 7990   3.910   3.477   5.154  1.4892 -0.4621  2.6018
   84SLPC  H18T 7991   4.078   3.548   5.137  0.6477 -0.3223 -0.7307
   84SLPC   C33 7992   4.002   4.469   3.712 -0.6893 -0.4968  0.5177
   84SLPC   H3X 7993   3.964   4.410   3.626  2.3841  0.1365 -1.4516
   84SLPC   H3Y 7994   3.913   4.464   3.778 -0.7049 -0.8802  0.4721
   84SLPC   C34 7995   4.118   4.399   3.774  0.6733 -0.6514  0.4948
   84SLPC   H4X 7996   4.158   4.456   3.860  0.1609 -0.8629  0.8823
   84SLPC   H4Y 7997   4.193   4.390   3.693 -0.1378  0.4795 -0.3953
   84SLPC   C35 7998   4.090   4.264   3.831 -0.1541 -0.0855  0.7098
   84SLPC   H5X 7999   3.998   4.273   3.892 -1.4565  2.0801 -1.3925
   84SLPC   H5Y 8000   4.176   4.224   3.889  0.4234  0.1555  0.0353
   84SLPC   C36 8001   4.055   4.152   3.728  0.9687 -0.1007  0.5321
   84SLPC   H6X 8002   4.122   4.163   3.640  0.3747 -3.2038 -0.4184
   84SLPC   H6Y 8003   3.951   4.152   3.690  0.5228 -0.0395  1.6926
   84SLPC   C37 8004   4.099   4.014   3.773 -0.3880 -0.0347 -0.1827
   84SLPC   H7X 8005   4.205   4.015   3.804 -0.1816 -0.5543 -0.8473
   84SLPC   H7Y 8006   4.090   3.945   3.686  2.3467  1.0738 -1.4584
   84SLPC   C38 8007   4.029   3.945   3.891 -0.5807 -0.2622 -0.4218
   84SLPC   H8X 8008   3.919   3.952   3.882 -0.6476  2.5338  1.2301
   84SLPC   H8Y 8009   4.060   4.006   3.978 -0.8813 -0.4600 -0.1726
   84SLPC   C39 8010   4.072   3.798   3.910  0.3053 -0.1571 -0.6063
   84SLPC   H9X 8011   4.183   3.799   3.909  0.3297  1.8674 -0.1024
   84SLPC   H9Y 8012   4.034   3.739   3.825 -0.9455  1.1572 -1.0031
   84SLPC  C310 8013   4.027   3.725   4.041  0.2086 -0.2214 -0.2163
   84SLPC  H10X 8014   3.916   3.722   4.043  0.2092 -3.2362  2.7431
   84SLPC  H10Y 8015   4.070   3.774   4.131  0.0530  0.5873 -0.5650
   84SLPC  C311 8016   4.076   3.574   4.041  0.7418 -0.0147  0.4280
   84SLPC  H11X 8017   4.183   3.583   4.068  0.8282  0.6850 -0.1167
   84SLPC  H11Y 8018   4.054   3.515   3.950  1.5408  1.1934 -0.5819
   84SLPC  C312 8019   4.003   3.505   4.166  0.0132  0.0510  0.2497
   84SLPC  H12X 8020   3.938   3.429   4.117  0.7546  0.2315 -1.0676
   84SLPC  H12Y 8021   3.943   3.582   4.220  1.6837  0.1847  2.0465
   84SLPC  C313 8022   4.100   3.444   4.268 -0.5922 -0.0195  0.0300
   84SLPC  H13X 8023   4.176   3.524   4.286 -1.1621  0.8151 -1.1151
   84SLPC  H13Y 8024   4.149   3.357   4.220  0.6176 -1.0637  2.9758
   84SLPC  C314 8025   4.025   3.416   4.405  0.1714 -0.1559  0.8520
   84SLPC  H14X 8026   4.097   3.354   4.461  1.4474 -3.2250 -3.6136
   84SLPC  H14Y 8027   3.953   3.334   4.381  1.0326 -1.4548  2.5132
   84SLPC  C315 8028   3.966   3.537   4.476 -0.6085  0.2959 -0.4477
   84SLPC  H15X 8029   3.878   3.584   4.425 -0.5869 -1.0495 -1.8085
   84SLPC  H15Y 8030   4.039   3.614   4.509 -1.7988  1.6841 -0.9059
   84SLPC  C316 8031   3.896   3.494   4.610  0.5100 -0.2430 -0.5867
   84SLPC  H16X 8032   3.971   3.450   4.678 -1.0094  0.6894  1.8225
   84SLPC  H16Y 8033   3.815   3.421   4.588 -0.9416  0.9864  0.4764
   84SLPC  C317 8034   3.843   3.619   4.689  0.4974 -0.2796 -0.0102
   84SLPC  H17X 8035   3.928   3.676   4.732 -0.7327  1.4114  0.2617
   84SLPC  H17Y 8036   3.792   3.581   4.781 -0.3701  1.8915  0.4720
   84SLPC  C318 8037   3.748   3.716   4.615 -0.7440  0.1489 -0.4192
   84SLPC  H18X 8038   3.796   3.762   4.526 -0.5369  0.0205 -0.3757
   84SLPC  H18Y 8039   3.713   3.803   4.675  2.1616 -0.1374  1.9476
   84SLPC  H18Z 8040   3.658   3.667   4.572 -0.3032 -0.0272 -1.1681
   85SLPC     N 8041   1.794   5.968   3.120  0.2548 -0.4876 -0.3535
   85SLPC   C13 8042   1.696   6.014   3.019 -0.3306 -0.0183  0.1567
   85SLPC  H13A 8043   1.598   6.021   3.065 -1.2160  0.0751 -1.6532
   85SLPC  H13B 8044   1.722   6.109   2.976  1.7922 -0.5575  0.1452
   85SLPC  H13C 8045   1.683   5.939   2.942  1.5714  3.2278 -3.6864
   85SLPC   C14 8046   1.923   5.967   3.048  0.9272  0.5032 -0.1919
   85SLPC  H14A 8047   2.001   5.924   3.109  0.3447  1.4624  1.2853
   85SLPC  H14B 8048   1.919   5.903   2.962 -1.2497  1.1981 -0.6663
   85SLPC  H14C 8049   1.952   6.066   3.017 -0.7857  1.2610  0.4656
   85SLPC   C15 8050   1.755   5.829   3.170  0.2081 -0.2203 -0.3183
   85SLPC  H15A 8051   1.716   5.762   3.094 -0.1119  0.6466 -0.9389
   85SLPC  H15B 8052   1.844   5.782   3.209  1.4309 -0.0533 -2.6966
   85SLPC  H15C 8053   1.676   5.840   3.242  0.6562 -0.3048  0.1936
   85SLPC   C12 8054   1.796   6.071   3.230  0.5823 -0.0153 -0.5580
   85SLPC  H12A 8055   1.809   6.166   3.179 -0.4358  0.2345 -0.3872
   85SLPC  H12B 8056   1.884   6.069   3.292  0.6033  0.1297 -0.5823
   85SLPC   C11 8057   1.678   6.088   3.326  0.4795 -0.2510  0.1069
   85SLPC  H11A 8058   1.722   6.164   3.393  0.0007 -0.7229  0.9716
   85SLPC  H11B 8059   1.662   5.997   3.388 -1.0360 -0.5158 -0.6062
   85SLPC     P 8060   1.533   6.280   3.236 -0.3696  0.0467 -0.2426
   85SLPC   O13 8061   1.655   6.358   3.201  0.2283  1.0799 -0.1971
   85SLPC   O14 8062   1.422   6.285   3.137  0.0304 -0.4747  0.3635
   85SLPC   O12 8063   1.563   6.126   3.261 -0.0652 -0.5317 -0.0336
   85SLPC   O11 8064   1.472   6.339   3.365 -0.3896 -0.5186 -0.1061
   85SLPC    C1 8065   1.333   6.323   3.397  0.3811  0.1782  0.1398
   85SLPC    HA 8066   1.267   6.319   3.308  1.2416  0.6741 -0.5439
   85SLPC    HB 8067   1.313   6.234   3.461 -1.2153  0.9036  0.7168
   85SLPC    C2 8068   1.280   6.441   3.491  1.0137 -0.1173 -0.1084
   85SLPC    HS 8069   1.300   6.535   3.434 -3.9245  1.5196  0.3542
   85SLPC   O21 8070   1.360   6.450   3.614 -0.5255  0.2472  0.1353
   85SLPC   C21 8071   1.345   6.562   3.676  0.3347  0.1811 -0.2552
   85SLPC   O22 8072   1.316   6.666   3.622 -0.7035  0.2396  0.1490
   85SLPC   C22 8073   1.413   6.528   3.815  0.0296  0.1781  0.3447
   85SLPC   H2R 8074   1.406   6.418   3.832 -2.5729 -0.2596 -2.5996
   85SLPC   H2S 8075   1.521   6.553   3.809 -0.2068  0.9298 -1.8819
   85SLPC    C3 8076   1.131   6.426   3.526  0.7357 -0.2413  0.5601
   85SLPC    HX 8077   1.062   6.449   3.442  1.8763  4.7409  0.7067
   85SLPC    HY 8078   1.101   6.511   3.590 -1.8458  0.1330 -0.9655
   85SLPC   O31 8079   1.106   6.305   3.594  0.4399 -0.1548  0.3837
   85SLPC   C31 8080   1.120   6.298   3.725 -0.0735  0.2342  0.3702
   85SLPC   O32 8081   1.129   6.389   3.804 -0.2193 -0.3039  0.5531
   85SLPC   C32 8082   1.124   6.151   3.766  0.0867  0.2828  0.2578
   85SLPC   H2X 8083   1.162   6.089   3.682 -0.5415  0.3440 -0.0822
   85SLPC   H2Y 8084   1.018   6.116   3.773 -0.0001  0.3153 -0.6652
   85SLPC   C23 8085   1.362   6.605   3.931 -0.2673  0.3708 -0.0067
   85SLPC   H3R 8086   1.251   6.601   3.933 -0.2405 -0.2308  1.0410
   85SLPC   H3S 8087   1.396   6.711   3.935 -1.2806  0.6558  1.8633
   85SLPC   C24 8088   1.411   6.544   4.065 -1.0628  0.2167 -0.2889
   85SLPC   H4R 8089   1.521   6.553   4.073 -0.5943 -2.6118 -2.0461
   85SLPC   H4S 8090   1.390   6.435   4.066  1.6708 -0.3663 -0.1641
   85SLPC   C25 8091   1.332   6.601   4.185 -0.5449 -0.5701 -0.6455
   85SLPC   H5R 8092   1.368   6.704   4.202  1.4400 -0.9948 -1.8653
   85SLPC   H5S 8093   1.224   6.609   4.159 -0.0760  0.0203 -2.6447
   85SLPC   C26 8094   1.342   6.520   4.316  0.2649 -0.6854  0.6757
   85SLPC   H6R 8095   1.447   6.540   4.348  0.1345  0.2016  0.5584
   85SLPC   H6S 8096   1.322   6.412   4.299  2.6518 -0.9636 -0.9158
   85SLPC   C27 8097   1.247   6.578   4.419 -0.6505 -0.7288 -0.1252
   85SLPC   H7R 8098   1.141   6.571   4.387 -0.8672 -0.9066  0.6101
   85SLPC   H7S 8099   1.283   6.682   4.436 -1.5017 -0.2430 -1.1560
   85SLPC   C28 8100   1.237   6.500   4.550 -0.0746 -0.4514 -0.1347
   85SLPC   H8R 8101   1.334   6.512   4.604 -0.3548 -1.0362  0.5116
   85SLPC   H8S 8102   1.222   6.393   4.523  2.3287 -1.0245  0.5095
   85SLPC   C29 8103   1.129   6.562   4.637 -0.6221 -0.1911  0.1756
   85SLPC   H9R 8104   1.027   6.555   4.597 -0.0036 -1.3861 -1.2578
   85SLPC  C210 8105   1.136   6.615   4.759 -0.3739  0.2382 -0.3778
   85SLPC  H10R 8106   1.037   6.644   4.799 -0.9721  0.7181 -2.1155
   85SLPC  C211 8107   1.256   6.635   4.851 -0.2141  0.1164  0.0407
   85SLPC  H11R 8108   1.261   6.743   4.875  0.6638 -0.3205  2.0557
   85SLPC  H11S 8109   1.348   6.611   4.794 -0.1082 -0.0178  0.2689
   85SLPC  C212 8110   1.255   6.544   4.974 -0.7754  0.2988  0.3865
   85SLPC  H12R 8111   1.204   6.447   4.959 -0.4340 -0.2412  2.4005
   85SLPC  C213 8112   1.277   6.579   5.098  0.1282 -0.0250 -0.4126
   85SLPC  H13R 8113   1.275   6.498   5.173 -1.6475  1.8390  1.7069
   85SLPC  C214 8114   1.317   6.704   5.160  0.0920 -0.2999  0.6562
   85SLPC  H14R 8115   1.320   6.796   5.097  0.3095  1.5376  3.1436
   85SLPC  H14S 8116   1.423   6.689   5.190 -0.3848 -0.2595  2.4847
   85SLPC  C215 8117   1.223   6.741   5.274 -0.9078  0.5931  0.3791
   85SLPC  H15R 8118   1.222   6.648   5.335  3.6518  1.1454  1.6705
   85SLPC  H15S 8119   1.125   6.773   5.231 -0.7509 -0.8002 -1.1241
   85SLPC  C216 8120   1.272   6.848   5.366  0.4830  0.5756  0.3755
   85SLPC  H16R 8121   1.283   6.944   5.311  1.5717  0.8572  1.0440
   85SLPC  H16S 8122   1.365   6.828   5.424 -0.6702  2.0908  2.9291
   85SLPC  C217 8123   1.161   6.877   5.475 -1.0906  0.1403 -0.0235
   85SLPC  H17R 8124   1.151   6.792   5.546 -0.8164  0.3876  0.3123
   85SLPC  H17S 8125   1.069   6.886   5.413  0.2156  0.5573 -1.9916
   85SLPC  C218 8126   1.191   7.003   5.559 -0.0231 -0.5185  0.4635
   85SLPC  H18R 8127   1.228   7.091   5.503  0.4769 -1.8102 -1.3465
   85SLPC  H18S 8128   1.278   6.975   5.622  0.0813  1.9996  1.5203
   85SLPC  H18T 8129   1.108   7.035   5.624  1.2151  1.0422  1.3423
   85SLPC   C33 8130   1.200   6.135   3.898  0.3051  0.6012  0.4820
   85SLPC   H3X 8131   1.152   6.189   3.982  0.0719  0.3955  0.4797
   85SLPC   H3Y 8132   1.308   6.164   3.892  0.2646  0.6526 -0.0270
   85SLPC   C34 8133   1.208   5.985   3.931 -0.1647  0.0033  0.4701
   85SLPC   H4X 8134   1.245   5.934   3.839 -2.4440 -0.2474 -0.3703
   85SLPC   H4Y 8135   1.110   5.936   3.947  0.5348 -2.3851 -1.9288
   85SLPC   C35 8136   1.303   5.956   4.048 -0.8878 -0.1947 -0.2520
   85SLPC   H5X 8137   1.359   6.052   4.058 -1.9558  0.6330 -1.7564
   85SLPC   H5Y 8138   1.362   5.869   4.013 -0.5461  0.3202 -0.9870
   85SLPC   C36 8139   1.229   5.936   4.181 -0.2586 -0.5747  0.0171
   85SLPC   H6X 8140   1.180   5.839   4.158  2.2796 -1.3080 -3.0232
   85SLPC   H6Y 8141   1.158   6.019   4.195 -1.0385 -1.4762  1.7135
   85SLPC   C37 8142   1.317   5.934   4.311  0.9266 -0.2353  0.4064
   85SLPC   H7X 8143   1.364   6.035   4.319  0.7184 -0.1777  0.9465
   85SLPC   H7Y 8144   1.387   5.851   4.291  1.2030  0.1834 -0.4513
   85SLPC   C38 8145   1.238   5.920   4.444 -0.1076 -0.2918 -0.8016
   85SLPC   H8X 8146   1.193   5.819   4.453  0.3231 -0.3559  1.0431
   85SLPC   H8Y 8147   1.154   5.992   4.453  0.1637  0.2992 -2.5356
   85SLPC   C39 8148   1.331   5.944   4.569 -0.0294  0.4251 -0.0135
   85SLPC   H9X 8149   1.400   6.029   4.550  0.7992 -0.0037  0.9929
   85SLPC   H9Y 8150   1.393   5.856   4.597 -2.2996 -1.3311 -0.1742
   85SLPC  C310 8151   1.242   5.974   4.690  0.0618 -0.6988  0.0577
   85SLPC  H10X 8152   1.183   5.889   4.731 -1.2084 -0.2941 -0.8841
   85SLPC  H10Y 8153   1.171   6.054   4.660  1.3881  0.5118  0.0146
   85SLPC  C311 8154   1.321   6.035   4.809  0.0089  0.4647  0.4962
   85SLPC  H11X 8155   1.380   6.122   4.774 -1.4803  1.0696 -0.5989
   85SLPC  H11Y 8156   1.390   5.960   4.853  1.7984  1.7758  0.0217
   85SLPC  C312 8157   1.229   6.087   4.921  0.4326  0.1637  0.0273
   85SLPC  H12X 8158   1.122   6.064   4.900 -0.2367  0.4832  2.6541
   85SLPC  H12Y 8159   1.246   6.197   4.917 -0.0229  0.1947 -1.5587
   85SLPC  C313 8160   1.270   6.036   5.055  0.2853  1.1632 -0.8933
   85SLPC  H13X 8161   1.380   6.025   5.066  0.0888  0.1375  0.1385
   85SLPC  H13Y 8162   1.228   5.934   5.066  1.8941  0.2573 -2.4480
   85SLPC  C314 8163   1.195   6.124   5.159  0.4851  0.5200  0.4696
   85SLPC  H14X 8164   1.086   6.114   5.145 -0.0017  2.4002  2.3632
   85SLPC  H14Y 8165   1.215   6.230   5.134 -1.4352  0.4636 -1.5487
   85SLPC  C315 8166   1.247   6.099   5.301 -0.6074 -0.6394 -0.2875
   85SLPC  H15X 8167   1.347   6.139   5.329 -0.7627 -1.5622  1.8205
   85SLPC  H15Y 8168   1.266   5.990   5.307  0.2699 -0.4973 -0.3048
   85SLPC  C316 8169   1.136   6.147   5.395 -0.1037  0.4909  0.7873
   85SLPC  H16X 8170   1.145   6.111   5.499 -1.3338  2.3605  1.5889
   85SLPC  H16Y 8171   1.034   6.119   5.361  0.2185 -0.1883  0.3582
   85SLPC  C317 8172   1.127   6.301   5.407 -0.5986  0.3475  0.8298
   85SLPC  H17X 8173   1.113   6.348   5.308 -0.8256 -0.7661  0.3161
   85SLPC  H17Y 8174   1.228   6.339   5.435 -0.3049 -1.3417  2.2771
   85SLPC  C318 8175   1.028   6.338   5.513  1.1530  0.7802 -0.0498
   85SLPC  H18X 8176   0.929   6.295   5.488  0.8720  1.3058  0.1479
   85SLPC  H18Y 8177   1.005   6.447   5.512 -1.1150  0.4445  2.7272
   85SLPC  H18Z 8178   1.063   6.314   5.615  2.1437  3.1681  0.2393
   86SLPC     N 8179   0.970   2.792   2.649  0.3754  0.0389  0.1423
   86SLPC   C13 8180   0.823   2.789   2.633  0.3707 -0.7199 -1.1426
   86SLPC  H13A 8181   0.794   2.865   2.563  2.0226  1.7397  0.6675
   86SLPC  H13B 8182   0.785   2.688   2.630 -2.0528 -0.0648  1.6405
   86SLPC  H13C 8183   0.784   2.823   2.728  1.3171 -0.6237 -0.7751
   86SLPC   C14 8184   1.024   2.935   2.651  0.2391  0.5009 -0.1039
   86SLPC  H14A 8185   1.130   2.924   2.634 -0.3859 -2.1665 -3.0853
   86SLPC  H14B 8186   0.972   2.999   2.582 -0.5027 -0.3176 -0.3169
   86SLPC  H14C 8187   1.008   2.987   2.745 -0.4237  0.5840 -0.2603
   86SLPC   C15 8188   1.029   2.727   2.526  0.4121 -0.0053  0.7061
   86SLPC  H15A 8189   1.049   2.798   2.448  1.4572  0.0544  1.0094
   86SLPC  H15B 8190   1.122   2.671   2.531 -0.4097 -1.6063 -0.7485
   86SLPC  H15C 8191   0.957   2.654   2.493 -2.7782  3.5448 -0.9143
   86SLPC   C12 8192   1.014   2.728   2.776  0.3411  0.8575 -0.1292
   86SLPC  H12A 8193   0.984   2.624   2.767 -0.0419  0.7605  1.8392
   86SLPC  H12B 8194   0.955   2.752   2.863  1.0404  0.0203  0.5940
   86SLPC   C11 8195   1.167   2.724   2.814 -0.4060 -0.3895  0.0207
   86SLPC  H11A 8196   1.227   2.688   2.728  0.9139  1.0622  0.2915
   86SLPC  H11B 8197   1.199   2.648   2.889  1.5083  0.2025 -0.1614
   86SLPC     P 8198   1.160   2.928   2.977 -0.4539  0.0779  0.6590
   86SLPC   O13 8199   1.280   2.954   3.059 -0.0635  0.0001 -0.1868
   86SLPC   O14 8200   1.088   3.050   2.931 -0.2572 -0.6444 -0.5800
   86SLPC   O12 8201   1.213   2.858   2.845  0.2710 -0.2645 -0.0637
   86SLPC   O11 8202   1.063   2.831   3.055  0.5349 -0.2469  0.2923
   86SLPC    C1 8203   1.090   2.735   3.162 -0.4215 -0.2380  1.1904
   86SLPC    HA 8204   1.049   2.635   3.138 -1.8085 -0.0112  2.5024
   86SLPC    HB 8205   1.200   2.724   3.180 -0.4601 -0.8447  1.0647
   86SLPC    C2 8206   1.025   2.788   3.300 -0.0828  1.1135 -0.0012
   86SLPC    HS 8207   1.037   2.712   3.380 -3.8398  0.5074  0.1612
   86SLPC   O21 8208   0.886   2.819   3.282  0.0721  0.0377 -0.8526
   86SLPC   C21 8209   0.807   2.718   3.249 -0.4996 -0.7314  0.0394
   86SLPC   O22 8210   0.835   2.602   3.225  0.5968  0.1174  0.0026
   86SLPC   C22 8211   0.667   2.770   3.271  0.3554  0.2591 -0.1986
   86SLPC   H2R 8212   0.655   2.876   3.301 -1.7025 -0.5054  1.9811
   86SLPC   H2S 8213   0.602   2.762   3.181  0.8353 -2.1575 -0.3952
   86SLPC    C3 8214   1.102   2.912   3.349 -0.6014 -0.2323 -0.2453
   86SLPC    HX 8215   1.113   2.979   3.262  4.3004  1.7919  1.6098
   86SLPC    HY 8216   1.207   2.891   3.379 -0.2830 -1.2745 -1.9757
   86SLPC   O31 8217   1.046   2.981   3.463 -0.3247 -0.1195 -0.0959
   86SLPC   C31 8218   0.998   3.102   3.445  0.3305  0.6841 -0.0586
   86SLPC   O32 8219   0.977   3.162   3.345  0.1538 -0.0407 -0.1044
   86SLPC   C32 8220   0.986   3.155   3.592  0.1480 -0.0395 -0.1107
   86SLPC   H2X 8221   1.093   3.178   3.613  0.7006  0.1427 -2.6770
   86SLPC   H2Y 8222   0.942   3.071   3.649  0.2768 -0.3309 -0.4361
   86SLPC   C23 8223   0.574   2.686   3.367 -0.2615 -0.1511 -0.0132
   86SLPC   H3R 8224   0.570   2.581   3.331  1.1811 -1.2252  2.6419
   86SLPC   H3S 8225   0.472   2.729   3.368  0.5240  1.8170  0.4821
   86SLPC   C24 8226   0.632   2.679   3.509 -0.6594  0.0249  0.7046
   86SLPC   H4R 8227   0.735   2.638   3.507 -1.1726 -1.2947 -1.8221
   86SLPC   H4S 8228   0.569   2.615   3.574 -0.2426  0.2941  1.3805
   86SLPC   C25 8229   0.627   2.811   3.583  0.3917  0.1232 -0.1230
   86SLPC   H5R 8230   0.520   2.843   3.581  0.0484 -1.0064 -1.1838
   86SLPC   H5S 8231   0.700   2.880   3.536 -1.4779  1.2783 -1.4838
   86SLPC   C26 8232   0.681   2.799   3.726  0.1847 -0.5602  0.6342
   86SLPC   H6R 8233   0.613   2.729   3.778 -1.3189 -0.0786 -0.6099
   86SLPC   H6S 8234   0.656   2.897   3.770  2.4998  0.5977 -0.4312
   86SLPC   C27 8235   0.833   2.761   3.733  0.2647 -0.0830 -0.0918
   86SLPC   H7R 8236   0.899   2.805   3.655 -0.2154  2.1009  0.6610
   86SLPC   H7S 8237   0.830   2.650   3.722 -1.0187 -0.3508  2.1817
   86SLPC   C28 8238   0.891   2.784   3.877  0.1250 -0.6124 -0.2001
   86SLPC   H8R 8239   0.979   2.716   3.870  2.0621  1.6611  0.4825
   86SLPC   H8S 8240   0.823   2.741   3.954 -0.5930 -0.2147 -0.6013
   86SLPC   C29 8241   0.923   2.926   3.922  0.4254 -0.4977 -0.1747
   86SLPC   H9R 8242   0.860   3.011   3.892  1.7615  1.4539  2.1981
   86SLPC  C210 8243   1.040   2.955   3.981 -0.1324 -0.3014  0.3687
   86SLPC  H10R 8244   1.060   3.061   4.002 -2.0504  0.2471 -0.3537
   86SLPC  C211 8245   1.151   2.857   3.999  0.0140 -0.0081  0.4733
   86SLPC  H11R 8246   1.152   2.785   3.915 -0.5236  0.4729  0.0434
   86SLPC  H11S 8247   1.136   2.799   4.092  0.3052  2.7325  2.3664
   86SLPC  C212 8248   1.297   2.906   4.001  0.1741  0.2918 -0.0582
   86SLPC  H12R 8249   1.327   2.955   4.094 -1.8294  0.2846  0.6496
   86SLPC  C213 8250   1.386   2.878   3.905 -0.4066 -0.5487  0.1766
   86SLPC  H13R 8251   1.490   2.914   3.911 -0.5025 -0.2108 -0.1343
   86SLPC  C214 8252   1.351   2.811   3.774 -0.3932  0.7647  0.2880
   86SLPC  H14R 8253   1.423   2.848   3.697 -0.0388 -1.3935 -0.4703
   86SLPC  H14S 8254   1.248   2.834   3.740 -0.2696  0.4830 -0.3029
   86SLPC  C215 8255   1.377   2.660   3.790 -0.4606  0.4127 -0.7701
   86SLPC  H15R 8256   1.282   2.625   3.836 -0.2402  0.5352 -0.2200
   86SLPC  H15S 8257   1.462   2.638   3.858 -1.4913 -0.4968  0.2771
   86SLPC  C216 8258   1.399   2.597   3.646  0.1506 -0.4397 -0.7089
   86SLPC  H16R 8259   1.419   2.488   3.657 -2.6995 -1.1079 -1.1628
   86SLPC  H16S 8260   1.491   2.644   3.604  0.5855  0.9983  1.6906
   86SLPC  C217 8261   1.292   2.632   3.547 -0.4083 -0.8362  0.1458
   86SLPC  H17R 8262   1.290   2.743   3.533 -0.1094 -0.8079  0.3123
   86SLPC  H17S 8263   1.192   2.611   3.590 -0.1695 -1.5858  0.3507
   86SLPC  C218 8264   1.324   2.565   3.418 -0.6316 -0.6315 -0.3823
   86SLPC  H18R 8265   1.360   2.461   3.423  0.1389 -0.4101 -1.1607
   86SLPC  H18S 8266   1.392   2.623   3.353 -0.0439  0.8569  1.4767
   86SLPC  H18T 8267   1.231   2.559   3.356 -1.3526 -0.5343  0.6591
   86SLPC   C33 8268   0.899   3.288   3.596 -0.2883  0.0140  0.3560
   86SLPC   H3X 8269   0.792   3.258   3.600 -0.5955  1.0495  0.4067
   86SLPC   H3Y 8270   0.921   3.356   3.511  2.2639 -0.3749  0.6386
   86SLPC   C34 8271   0.932   3.379   3.718 -0.0835  0.0937  0.0362
   86SLPC   H4X 8272   0.856   3.461   3.716  0.8932  1.0124 -1.3463
   86SLPC   H4Y 8273   1.036   3.415   3.704  0.5163 -0.7835  1.9526
   86SLPC   C35 8274   0.920   3.311   3.850  0.4523 -0.0982 -0.9556
   86SLPC   H5X 8275   1.004   3.239   3.842 -0.4258 -1.2567 -0.0258
   86SLPC   H5Y 8276   0.824   3.258   3.862 -0.1149  0.7107 -1.7508
   86SLPC   C36 8277   0.942   3.410   3.971  0.6882  0.1468  0.5761
   86SLPC   H6X 8278   0.862   3.487   3.982 -0.4917 -1.1210  1.1506
   86SLPC   H6Y 8279   1.034   3.472   3.964  0.1536  1.3614  2.8958
   86SLPC   C37 8280   0.937   3.331   4.104 -0.2112 -0.1034  0.2313
   86SLPC   H7X 8281   1.003   3.242   4.110 -0.4375 -0.3044 -0.2277
   86SLPC   H7Y 8282   0.837   3.284   4.113 -0.1926 -0.2355 -0.2261
   86SLPC   C38 8283   0.961   3.429   4.221 -0.1646 -0.1272  0.2449
   86SLPC   H8X 8284   0.877   3.501   4.226  0.4249  0.5367  0.6521
   86SLPC   H8Y 8285   1.047   3.495   4.193 -1.3170  1.1181 -0.4757
   86SLPC   C39 8286   0.986   3.363   4.356  0.6035 -0.1571  0.6756
   86SLPC   H9X 8287   1.080   3.303   4.357  0.4125 -0.4529  1.2275
   86SLPC   H9Y 8288   0.894   3.304   4.373  0.8135 -0.6109  0.2700
   86SLPC  C310 8289   0.999   3.459   4.477 -0.3585 -0.6025  0.0505
   86SLPC  H10X 8290   0.903   3.509   4.501 -0.7176 -1.6143  0.8080
   86SLPC  H10Y 8291   1.078   3.533   4.454 -1.8704  0.5957 -1.5195
   86SLPC  C311 8292   1.023   3.395   4.613 -0.9990  0.1716  0.0858
   86SLPC  H11X 8293   1.109   3.326   4.625 -0.5265  0.9300  1.3072
   86SLPC  H11Y 8294   0.933   3.335   4.640 -0.8455 -0.3047 -0.4397
   86SLPC  C312 8295   1.042   3.509   4.710  0.1024  0.2240  0.4401
   86SLPC  H12X 8296   0.954   3.574   4.691 -0.3652 -0.7739 -0.9760
   86SLPC  H12Y 8297   1.126   3.578   4.689 -0.1888  0.7331  0.9183
   86SLPC  C313 8298   1.069   3.470   4.858  0.0559  0.0994 -0.0964
   86SLPC  H13X 8299   1.058   3.571   4.904 -2.4258 -0.0569 -0.2297
   86SLPC  H13Y 8300   1.168   3.430   4.889  1.1655  2.8416  0.1850
   86SLPC  C314 8301   0.959   3.372   4.905  0.3944 -0.7188  0.2319
   86SLPC  H14X 8302   0.977   3.272   4.861 -0.3259 -0.3405 -0.9871
   86SLPC  H14Y 8303   0.864   3.401   4.855  0.0441  0.3303  1.4641
   86SLPC  C315 8304   0.940   3.367   5.060  0.1552 -0.3013  0.1549
   86SLPC  H15X 8305   0.849   3.319   5.101 -1.2726  2.8288  0.9275
   86SLPC  H15Y 8306   0.932   3.474   5.089  3.6846 -0.0383  0.6985
   86SLPC  C316 8307   1.059   3.290   5.126 -0.3249 -0.6619 -0.4026
   86SLPC  H16X 8308   1.043   3.302   5.235  0.9042 -0.4479 -0.2256
   86SLPC  H16Y 8309   1.152   3.347   5.105  0.8405 -2.5327 -0.4711
   86SLPC  C317 8310   1.055   3.141   5.091 -0.7508  0.8914 -0.1374
   86SLPC  H17X 8311   1.039   3.110   4.985 -0.7992  1.5297 -0.3250
   86SLPC  H17Y 8312   0.959   3.105   5.133 -1.7611  1.1833 -2.0502
   86SLPC  C318 8313   1.164   3.057   5.160 -0.3624  0.4719  0.2628
   86SLPC  H18X 8314   1.174   2.952   5.127 -1.3664 -0.1907  1.9519
   86SLPC  H18Y 8315   1.142   3.062   5.269 -1.2676 -1.2861  0.1926
   86SLPC  H18Z 8316   1.261   3.104   5.132 -0.0012  0.4433  1.3974
   87SLPC     N 8317   6.697   2.847   2.922 -0.2468 -0.4575  0.3599
   87SLPC   C13 8318   6.712   3.001   2.934  0.5038  1.0666 -0.3034
   87SLPC  H13A 8319   6.718   3.038   3.036 -0.4086  0.8906 -0.1813
   87SLPC  H13B 8320   6.797   3.039   2.878  2.7022 -0.5272  1.7363
   87SLPC  H13C 8321   6.626   3.051   2.893 -0.4490  0.7524  1.2177
   87SLPC   C14 8322   6.672   2.822   2.775  0.2799 -0.4034 -0.2430
   87SLPC  H14A 8323   6.639   2.721   2.758  2.3366 -1.4526  1.4859
   87SLPC  H14B 8324   6.593   2.886   2.739  1.9034  2.1361  0.4134
   87SLPC  H14C 8325   6.766   2.840   2.725  1.1126  1.4507  1.8085
   87SLPC   C15 8326   6.573   2.812   2.992 -0.0540 -0.1844  0.3587
   87SLPC  H15A 8327   6.590   2.818   3.098  2.2964 -1.7799  0.1474
   87SLPC  H15B 8328   6.490   2.874   2.960  0.7136 -0.1631 -1.7747
   87SLPC  H15C 8329   6.551   2.708   2.969  0.4609 -0.1497 -0.3349
   87SLPC   C12 8330   6.809   2.762   2.976 -0.7321 -0.3498 -0.2241
   87SLPC  H12A 8331   6.793   2.658   2.955 -3.2846 -0.5954  2.2868
   87SLPC  H12B 8332   6.818   2.774   3.083  2.8191 -0.8997 -0.3354
   87SLPC   C11 8333   6.950   2.800   2.926 -0.3392  0.2880  1.5543
   87SLPC  H11A 8334   6.943   2.824   2.818 -0.6854  2.1053  1.9480
   87SLPC  H11B 8335   7.014   2.711   2.943 -0.6913 -0.1673  0.6177
   87SLPC     P 8336   7.051   2.882   3.153  0.1254 -0.4279  0.3255
   87SLPC   O13 8337   7.139   2.764   3.158  0.0229  0.8742  0.0294
   87SLPC   O14 8338   7.131   3.002   3.185 -0.4326 -0.3546 -0.3399
   87SLPC   O12 8339   6.998   2.909   3.000 -0.1226  0.2994  0.4382
   87SLPC   O11 8340   6.920   2.872   3.239  0.1849 -0.0630  0.2343
   87SLPC    C1 8341   6.844   2.991   3.276  0.2103 -0.3300 -0.2194
   87SLPC    HA 8342   6.844   3.074   3.202 -0.8026  0.2666  0.4138
   87SLPC    HB 8343   6.737   2.961   3.265  0.3420  0.0395 -3.5124
   87SLPC    C2 8344   6.869   3.034   3.421  0.3106 -0.1438 -0.5958
   87SLPC    HS 8345   6.961   3.096   3.413  1.0521 -1.2580 -0.9788
   87SLPC   O21 8346   6.912   2.921   3.503  0.3440 -0.2575  0.3658
   87SLPC   C21 8347   6.841   2.822   3.526 -0.2380 -0.0570 -0.6423
   87SLPC   O22 8348   6.719   2.806   3.507  0.0097 -0.1794  0.3376
   87SLPC   C22 8349   6.936   2.713   3.583  0.0937 -0.3926 -0.8008
   87SLPC   H2R 8350   6.883   2.617   3.599  0.6383 -0.1467  4.1624
   87SLPC   H2S 8351   7.039   2.720   3.543  0.1593  1.8308 -0.3829
   87SLPC    C3 8352   6.767   3.129   3.491  0.0414 -0.1265 -0.4607
   87SLPC    HX 8353   6.684   3.057   3.506 -1.1763  1.1003 -1.0813
   87SLPC    HY 8354   6.732   3.199   3.412 -1.6583  1.2016  1.3870
   87SLPC   O31 8355   6.830   3.193   3.605  0.5799  0.0672 -0.7320
   87SLPC   C31 8356   6.737   3.232   3.701 -0.0619 -0.2940 -0.1388
   87SLPC   O32 8357   6.617   3.216   3.689 -0.0683 -0.3279 -0.1964
   87SLPC   C32 8358   6.807   3.309   3.812 -0.2085 -0.1048 -0.6913
   87SLPC   H2X 8359   6.790   3.419   3.808 -1.3185 -0.1342  1.6071
   87SLPC   H2Y 8360   6.917   3.295   3.808  0.2348  2.7445 -4.1992
   87SLPC   C23 8361   6.960   2.738   3.737 -0.3124 -0.3663  0.0435
   87SLPC   H3R 8362   6.869   2.706   3.793 -0.5090  0.2268  0.0692
   87SLPC   H3S 8363   6.975   2.845   3.763  2.7728 -0.3397 -1.4879
   87SLPC   C24 8364   7.084   2.660   3.785  0.8773 -0.3563  0.1726
   87SLPC   H4R 8365   7.175   2.686   3.726  0.4236 -3.1961 -1.9915
   87SLPC   H4S 8366   7.063   2.554   3.760 -1.2109 -0.5113  2.1833
   87SLPC   C25 8367   7.097   2.648   3.937 -0.9293 -0.2005 -0.2699
   87SLPC   H5R 8368   7.006   2.601   3.979 -0.2865 -0.3947  0.9509
   87SLPC   H5S 8369   7.110   2.750   3.980  2.3584 -0.9290  0.7463
   87SLPC   C26 8370   7.207   2.549   3.982  0.2055  0.2291 -0.9496
   87SLPC   H6R 8371   7.306   2.580   3.944  0.3791 -0.5974 -1.1752
   87SLPC   H6S 8372   7.189   2.446   3.946 -0.9851 -0.6803  1.9735
   87SLPC   C27 8373   7.240   2.565   4.132  0.1227 -0.1410  0.3966
   87SLPC   H7R 8374   7.220   2.673   4.151 -1.3721 -0.0567 -1.3413
   87SLPC   H7S 8375   7.339   2.525   4.163  0.0174 -0.2009  0.6607
   87SLPC   C28 8376   7.139   2.491   4.227  0.0681 -0.6042  0.0455
   87SLPC   H8R 8377   7.035   2.499   4.188 -0.5623 -2.2981  1.2613
   87SLPC   H8S 8378   7.145   2.555   4.318  1.0846 -1.4154  0.5736
   87SLPC   C29 8379   7.179   2.346   4.246  0.1117  0.1336  0.3688
   87SLPC   H9R 8380   7.249   2.305   4.171 -0.0985  0.1698  0.1510
   87SLPC  C210 8381   7.139   2.271   4.354 -0.3701 -0.1700 -0.0794
   87SLPC  H10R 8382   7.183   2.171   4.354 -0.9440 -0.4327  0.6984
   87SLPC  C211 8383   7.061   2.323   4.468  0.1243  0.4625  0.6085
   87SLPC  H11R 8384   7.014   2.235   4.516 -1.6416  0.9848 -0.0907
   87SLPC  H11S 8385   6.985   2.390   4.423  0.0425 -0.6145 -0.9396
   87SLPC  C212 8386   7.148   2.391   4.570 -0.1451  0.2788 -0.1410
   87SLPC  H12R 8387   7.239   2.443   4.535  0.8629  0.2963  2.2718
   87SLPC  C213 8388   7.120   2.401   4.704 -0.5420  0.6111  0.3461
   87SLPC  H13R 8389   7.199   2.429   4.775  0.8727 -1.2562 -0.3885
   87SLPC  C214 8390   7.000   2.336   4.775  0.0261 -0.1923  0.0797
   87SLPC  H14R 8391   7.030   2.244   4.829  0.2221 -1.1641 -1.5969
   87SLPC  H14S 8392   6.921   2.317   4.699  0.2164  0.9582 -0.4223
   87SLPC  C215 8393   6.951   2.440   4.882  0.1940  0.2266  0.3534
   87SLPC  H15R 8394   6.850   2.402   4.908 -0.2245 -0.4499 -1.9986
   87SLPC  H15S 8395   6.947   2.538   4.829 -0.3058 -0.1527 -0.3289
   87SLPC  C216 8396   7.045   2.425   5.000  0.1349  0.3362 -0.1227
   87SLPC  H16R 8397   7.148   2.465   4.989  0.2929  0.0436  0.2731
   87SLPC  H16S 8398   7.048   2.316   5.022 -1.6746  0.2909  0.0839
   87SLPC  C217 8399   6.988   2.482   5.132 -0.0726  0.0512 -0.6286
   87SLPC  H17R 8400   6.889   2.431   5.131  0.4351 -1.0007  0.5287
   87SLPC  H17S 8401   6.990   2.593   5.130  0.2208  0.0635  0.0469
   87SLPC  C218 8402   7.059   2.424   5.246  0.1015 -0.0956 -0.4090
   87SLPC  H18R 8403   7.169   2.438   5.236  0.0911 -0.0223 -0.4230
   87SLPC  H18S 8404   7.035   2.316   5.251  0.7899 -0.2312  0.1774
   87SLPC  H18T 8405   7.022   2.467   5.342  1.6473 -2.3042  1.2985
   87SLPC   C33 8406   6.745   3.272   3.945 -0.3237 -0.3377 -0.5103
   87SLPC   H3X 8407   6.764   3.163   3.949 -0.8266 -0.4579 -1.2823
   87SLPC   H3Y 8408   6.635   3.289   3.952 -0.2610  1.1186 -2.3356
   87SLPC   C34 8409   6.814   3.346   4.069 -0.4956  0.1070  0.8534
   87SLPC   H4X 8410   6.797   3.454   4.049  1.4100 -0.0106 -2.0713
   87SLPC   H4Y 8411   6.924   3.330   4.061 -0.2847  1.9113 -0.6361
   87SLPC   C35 8412   6.762   3.318   4.210 -0.3062  0.0892  1.0870
   87SLPC   H5X 8413   6.728   3.214   4.227  2.1827 -1.1145 -0.6571
   87SLPC   H5Y 8414   6.683   3.392   4.233  0.0931  0.7280  0.4793
   87SLPC   C36 8415   6.867   3.350   4.310 -0.5411  0.1710 -0.6937
   87SLPC   H6X 8416   6.895   3.456   4.295  0.6127 -0.2464 -1.5954
   87SLPC   H6Y 8417   6.955   3.282   4.302 -0.8856 -0.5132  0.8867
   87SLPC   C37 8418   6.810   3.330   4.454  0.6154 -0.3054 -0.3311
   87SLPC   H7X 8419   6.866   3.260   4.519 -2.6421 -0.5138  2.5143
   87SLPC   H7Y 8420   6.714   3.275   4.451  0.3311 -0.1958  2.9627
   87SLPC   C38 8421   6.791   3.463   4.529  0.3927  0.0177  0.2707
   87SLPC   H8X 8422   6.731   3.530   4.463  3.0629  2.0929 -0.2452
   87SLPC   H8Y 8423   6.896   3.499   4.536  0.3194  0.2903 -0.0044
   87SLPC   C39 8424   6.732   3.453   4.673 -0.1619  0.0737 -0.3089
   87SLPC   H9X 8425   6.801   3.403   4.744 -0.8930 -0.7834 -0.1831
   87SLPC   H9Y 8426   6.652   3.376   4.674  1.4275 -1.6113 -0.2457
   87SLPC  C310 8427   6.699   3.588   4.722  0.3859 -0.6769  0.5263
   87SLPC  H10X 8428   6.614   3.621   4.659 -0.3816 -1.0044  1.3748
   87SLPC  H10Y 8429   6.782   3.661   4.710 -0.7769  0.7760  0.9768
   87SLPC  C311 8430   6.642   3.583   4.870  0.1095  0.9885 -0.3762
   87SLPC  H11X 8431   6.587   3.487   4.874  1.4093  0.1614 -1.3421
   87SLPC  H11Y 8432   6.578   3.672   4.888 -1.2805  0.3889 -2.0741
   87SLPC  C312 8433   6.761   3.573   4.964 -0.0774 -1.2322 -0.1354
   87SLPC  H12X 8434   6.821   3.666   4.950 -1.1534 -0.7505 -1.8387
   87SLPC  H12Y 8435   6.834   3.494   4.937 -0.1120 -0.5879 -2.3880
   87SLPC  C313 8436   6.717   3.560   5.109  0.0410 -0.0153  0.2176
   87SLPC  H13X 8437   6.692   3.454   5.130  1.0486 -0.3545 -0.2426
   87SLPC  H13Y 8438   6.621   3.613   5.126  0.0632 -0.0770  0.5286
   87SLPC  C314 8439   6.825   3.621   5.198  0.4250  0.8175 -0.5144
   87SLPC  H14X 8440   6.830   3.729   5.173 -0.1409  0.2295 -3.5198
   87SLPC  H14Y 8441   6.921   3.575   5.167  0.2463  0.6762 -0.8634
   87SLPC  C315 8442   6.785   3.592   5.339 -0.4352  0.4679 -0.3442
   87SLPC  H15X 8443   6.674   3.603   5.344 -0.6709  0.1617 -3.1948
   87SLPC  H15Y 8444   6.825   3.667   5.411 -0.9183 -0.1056  0.5552
   87SLPC  C316 8445   6.811   3.446   5.394  0.1678  0.1409  0.0799
   87SLPC  H16X 8446   6.913   3.421   5.356  0.6878  0.4554  1.2349
   87SLPC  H16Y 8447   6.740   3.370   5.355  0.6556 -0.3656  0.1686
   87SLPC  C317 8448   6.792   3.446   5.544  0.3521 -0.0901 -0.6265
   87SLPC  H17X 8449   6.846   3.528   5.595  0.1966 -0.4313  0.1022
   87SLPC  H17Y 8450   6.832   3.350   5.584  0.1037  0.0427 -0.0436
   87SLPC  C318 8451   6.644   3.454   5.599 -0.7171  0.2854  0.4486
   87SLPC  H18X 8452   6.622   3.552   5.647  0.4503 -0.1033  1.8508
   87SLPC  H18Y 8453   6.631   3.373   5.674  3.6424 -0.6038  0.5334
   87SLPC  H18Z 8454   6.574   3.438   5.514 -0.3618 -0.2520  0.2504
   88SLPC     N 8455   6.135   3.471   2.860 -0.1854  0.2345  0.3710
   88SLPC   C13 8456   6.058   3.351   2.825  0.3188 -0.0433  0.1615
   88SLPC  H13A 8457   6.026   3.301   2.915  2.2536 -0.2371  0.7912
   88SLPC  H13B 8458   5.975   3.369   2.760 -0.0819 -3.3774 -0.4105
   88SLPC  H13C 8459   6.122   3.279   2.776  0.6091  0.8374 -0.7977
   88SLPC   C14 8460   6.059   3.565   2.937  0.2185 -0.6428  0.2230
   88SLPC  H14A 8461   5.968   3.591   2.886  0.7981 -0.8419 -0.9468
   88SLPC  H14B 8462   6.024   3.526   3.032  3.0791 -1.1514  1.1604
   88SLPC  H14C 8463   6.111   3.655   2.965  0.1992 -0.7044  0.4614
   88SLPC   C15 8464   6.172   3.534   2.729  0.1141  0.1517  0.8492
   88SLPC  H15A 8465   6.079   3.567   2.685 -1.8009  1.5614  5.2696
   88SLPC  H15B 8466   6.234   3.620   2.746 -1.0431  0.4828  4.1923
   88SLPC  H15C 8467   6.216   3.458   2.666 -2.0087  0.3138 -0.9730
   88SLPC   C12 8468   6.260   3.426   2.944 -0.0034  0.1117 -0.2172
   88SLPC  H12A 8469   6.336   3.502   2.956  0.6413 -0.4644 -0.5899
   88SLPC  H12B 8470   6.309   3.353   2.881 -0.5812  0.3449 -0.9457
   88SLPC   C11 8471   6.235   3.362   3.081  0.0900  0.9167  0.3046
   88SLPC  H11A 8472   6.157   3.408   3.145 -1.2420 -0.4592 -0.2652
   88SLPC  H11B 8473   6.332   3.373   3.134  0.0211  0.5089  0.5159
   88SLPC     P 8474   6.293   3.114   3.007 -0.1518 -0.2730 -0.2232
   88SLPC   O13 8475   6.223   2.984   3.012 -0.1629 -0.2886 -0.3056
   88SLPC   O14 8476   6.346   3.164   2.881  0.2728  0.0257  0.2361
   88SLPC   O12 8477   6.201   3.227   3.073  0.2163 -0.2163  0.0029
   88SLPC   O11 8478   6.419   3.111   3.097  0.0641  0.6522  0.3844
   88SLPC    C1 8479   6.414   3.031   3.221  0.7862  0.1347  0.1691
   88SLPC    HA 8480   6.354   2.938   3.206  2.5292 -0.8363 -1.1532
   88SLPC    HB 8481   6.519   2.996   3.234  0.0655 -2.6192 -0.5952
   88SLPC    C2 8482   6.372   3.111   3.348 -0.2772 -0.3409  0.5456
   88SLPC    HS 8483   6.270   3.151   3.329 -0.6823 -1.8909 -0.8566
   88SLPC   O21 8484   6.468   3.217   3.360 -0.4256  0.1965 -0.2332
   88SLPC   C21 8485   6.414   3.327   3.421 -0.3162  0.4135 -0.0761
   88SLPC   O22 8486   6.305   3.329   3.475 -0.3170 -0.4353  0.1915
   88SLPC   C22 8487   6.518   3.440   3.405  0.1852 -0.2504  0.0534
   88SLPC   H2R 8488   6.602   3.418   3.474  0.7202  1.8323  0.1265
   88SLPC   H2S 8489   6.569   3.442   3.307  1.1021  1.6433  0.5137
   88SLPC    C3 8490   6.368   3.031   3.477 -0.6643 -0.3348  1.0769
   88SLPC    HX 8491   6.359   3.104   3.560 -0.2730  2.8919 -1.5097
   88SLPC    HY 8492   6.466   2.982   3.497  0.6003  1.1872 -0.8932
   88SLPC   O31 8493   6.267   2.928   3.479  0.0596  0.2190  0.5269
   88SLPC   C31 8494   6.150   2.969   3.529  0.7341 -0.2299 -0.2806
   88SLPC   O32 8495   6.123   3.083   3.560  0.3158 -0.1611 -0.2710
   88SLPC   C32 8496   6.056   2.856   3.546  0.0002 -0.2418 -0.4073
   88SLPC   H2X 8497   6.063   2.784   3.462  2.9715 -0.1612 -0.3261
   88SLPC   H2Y 8498   5.953   2.897   3.555 -0.3181 -0.5623 -2.3339
   88SLPC   C23 8499   6.465   3.577   3.437 -0.8595 -0.3139  0.2135
   88SLPC   H3R 8500   6.375   3.593   3.374  0.5616 -1.8080 -2.3922
   88SLPC   H3S 8501   6.545   3.651   3.415 -0.8904  0.0807  1.3756
   88SLPC   C24 8502   6.424   3.606   3.585  0.0319 -0.0875  0.6254
   88SLPC   H4R 8503   6.380   3.518   3.636  1.6279 -1.2640  0.0539
   88SLPC   H4S 8504   6.345   3.684   3.585  0.1918  0.0871 -0.4487
   88SLPC   C25 8505   6.545   3.655   3.668 -0.2334 -0.4571 -0.4958
   88SLPC   H5R 8506   6.598   3.739   3.618 -1.1154 -0.4061 -1.3892
   88SLPC   H5S 8507   6.613   3.567   3.673  2.5091  1.5476 -0.3870
   88SLPC   C26 8508   6.511   3.695   3.810 -0.0299  0.2143 -0.0944
   88SLPC   H6R 8509   6.440   3.612   3.824 -0.8736  0.7272 -1.2207
   88SLPC   H6S 8510   6.449   3.787   3.815  1.2811  1.1331 -0.1097
   88SLPC   C27 8511   6.644   3.708   3.889  0.5013  0.1714  0.3372
   88SLPC   H7R 8512   6.706   3.791   3.849 -0.2865  0.0647 -1.2271
   88SLPC   H7S 8513   6.706   3.617   3.879  1.3631  0.7905 -0.0509
   88SLPC   C28 8514   6.619   3.734   4.037  0.0413  0.8824  0.4317
   88SLPC   H8R 8515   6.562   3.643   4.066 -0.9028  1.2012 -0.3851
   88SLPC   H8S 8516   6.543   3.809   4.066 -0.3090  0.3749  0.8587
   88SLPC   C29 8517   6.752   3.760   4.107 -0.4660  0.7959 -0.0515
   88SLPC   H9R 8518   6.842   3.708   4.073  1.1758  1.8550  2.3708
   88SLPC  C210 8519   6.768   3.837   4.221  0.0705  0.2834 -0.2441
   88SLPC  H10R 8520   6.872   3.861   4.247 -0.6415  3.2658  0.3176
   88SLPC  C211 8521   6.670   3.916   4.311  0.1325  0.2193 -0.5138
   88SLPC  H11R 8522   6.719   3.932   4.410  0.1585 -2.0557 -0.1075
   88SLPC  H11S 8523   6.579   3.857   4.332  0.9121 -1.8871 -2.6787
   88SLPC  C212 8524   6.628   4.046   4.243 -0.0652 -1.0023 -0.1160
   88SLPC  H12R 8525   6.624   4.036   4.133 -0.2121 -0.0370 -0.2048
   88SLPC  C213 8526   6.639   4.172   4.297  0.3001 -0.2916 -0.3377
   88SLPC  H13R 8527   6.626   4.263   4.236  3.2275  0.6818  0.3171
   88SLPC  C214 8528   6.666   4.202   4.442 -0.1470  0.1577  0.1430
   88SLPC  H14R 8529   6.745   4.277   4.466 -0.2332 -0.2932  1.9924
   88SLPC  H14S 8530   6.701   4.105   4.485 -0.1524  0.1879  0.2148
   88SLPC  C215 8531   6.534   4.229   4.527 -0.0976 -0.5632  0.3252
   88SLPC  H15R 8532   6.460   4.154   4.492 -0.9714  1.3907 -2.3119
   88SLPC  H15S 8533   6.489   4.326   4.497 -0.9194 -1.0027  0.1192
   88SLPC  C216 8534   6.564   4.226   4.678  0.2205 -0.6465 -0.8311
   88SLPC  H16R 8535   6.464   4.233   4.725  0.2598 -1.8833 -0.5342
   88SLPC  H16S 8536   6.630   4.313   4.699  0.2483 -0.2992 -2.2237
   88SLPC  C217 8537   6.615   4.108   4.752 -0.3005  1.0642 -0.0418
   88SLPC  H17R 8538   6.626   4.115   4.862  1.2383 -2.2980  0.1286
   88SLPC  H17S 8539   6.710   4.065   4.714 -1.7315 -2.3708 -0.0832
   88SLPC  C218 8540   6.528   3.976   4.729  0.4447  0.1905  0.5429
   88SLPC  H18R 8541   6.532   3.951   4.621 -1.3416  1.3876  0.1519
   88SLPC  H18S 8542   6.423   4.006   4.744  0.9638  2.6546 -0.2391
   88SLPC  H18T 8543   6.569   3.889   4.785 -1.1128  0.1455  1.6574
   88SLPC   C33 8544   6.082   2.758   3.662 -0.2786  0.4463 -0.1140
   88SLPC   H3X 8545   6.186   2.722   3.650 -0.5506  0.1693 -1.8316
   88SLPC   H3Y 8546   6.018   2.667   3.666  0.0199  0.1613 -1.4443
   88SLPC   C34 8547   6.067   2.834   3.795 -0.3590 -0.1556  0.2653
   88SLPC   H4X 8548   5.970   2.888   3.797 -0.0363  0.4438  0.0656
   88SLPC   H4Y 8549   6.153   2.902   3.816  1.0596 -2.2836  1.7480
   88SLPC   C35 8550   6.067   2.734   3.916  0.2877 -0.1276  0.8177
   88SLPC   H5X 8551   6.153   2.667   3.896 -1.0631 -1.2785 -1.6711
   88SLPC   H5Y 8552   5.971   2.679   3.932 -0.7305  0.6959 -1.8163
   88SLPC   C36 8553   6.076   2.825   4.041 -0.1798  0.4188 -0.0466
   88SLPC   H6X 8554   5.989   2.894   4.033 -1.0166 -0.4643  1.2162
   88SLPC   H6Y 8555   6.168   2.888   4.042  0.3713 -0.3847  0.2871
   88SLPC   C37 8556   6.063   2.763   4.173 -0.1557 -1.1909 -0.3267
   88SLPC   H7X 8557   5.968   2.706   4.165 -0.1904 -1.0596 -0.9076
   88SLPC   H7Y 8558   6.044   2.843   4.248  3.4642 -1.7660  1.4153
   88SLPC   C38 8559   6.176   2.671   4.220 -0.0021  0.3031 -0.1202
   88SLPC   H8X 8560   6.263   2.732   4.251  1.3333 -1.5935  0.0071
   88SLPC   H8Y 8561   6.209   2.606   4.136  2.6191  2.2893 -0.7583
   88SLPC   C39 8562   6.130   2.579   4.340 -0.5426 -0.4624  0.2561
   88SLPC   H9X 8563   6.043   2.515   4.313 -0.1347 -1.3328  0.9470
   88SLPC   H9Y 8564   6.094   2.639   4.427 -1.5611  0.4410 -0.7595
   88SLPC  C310 8565   6.224   2.468   4.395 -0.2951 -0.0343  0.3382
   88SLPC  H10X 8566   6.312   2.521   4.438  0.4117  0.6054 -1.7894
   88SLPC  H10Y 8567   6.259   2.406   4.309  2.4601 -1.3563  2.2528
   88SLPC  C311 8568   6.158   2.367   4.501 -0.2643  0.4885  0.0212
   88SLPC  H11X 8569   6.219   2.278   4.527 -0.8513  0.0438 -0.0843
   88SLPC  H11Y 8570   6.057   2.338   4.464 -0.3483 -2.4990  2.1707
   88SLPC  C312 8571   6.121   2.440   4.637 -0.3623 -0.0248 -0.8154
   88SLPC  H12X 8572   6.020   2.486   4.629 -0.3156  0.4030  0.8685
   88SLPC  H12Y 8573   6.186   2.527   4.658 -2.6613  1.7239 -0.5998
   88SLPC  C313 8574   6.118   2.345   4.755  0.1995  0.3478 -0.0897
   88SLPC  H13X 8575   6.223   2.318   4.779  0.3357 -0.2885 -1.3071
   88SLPC  H13Y 8576   6.068   2.253   4.718 -0.9205  0.3008  1.4289
   88SLPC  C314 8577   6.040   2.394   4.874 -0.3196 -0.7782 -1.0471
   88SLPC  H14X 8578   5.932   2.401   4.853 -0.3588 -1.7036 -1.1946
   88SLPC  H14Y 8579   6.088   2.492   4.897  0.0926 -1.5461  1.7676
   88SLPC  C315 8580   6.064   2.323   5.006  0.2400 -0.1802 -0.3000
   88SLPC  H15X 8581   6.171   2.297   5.025 -0.2809 -2.2486  0.0309
   88SLPC  H15Y 8582   6.027   2.218   5.007  3.9783 -1.6786  0.8420
   88SLPC  C316 8583   6.002   2.390   5.132 -0.1332  0.0178 -0.2945
   88SLPC  H16X 8584   5.893   2.373   5.127 -0.2858  1.2436 -1.7864
   88SLPC  H16Y 8585   6.020   2.499   5.134  1.2898 -0.2066  0.3156
   88SLPC  C317 8586   6.052   2.317   5.260 -0.2970 -0.2836 -1.1350
   88SLPC  H17X 8587   6.037   2.207   5.251 -0.3053 -0.3696 -0.2222
   88SLPC  H17Y 8588   5.979   2.349   5.337 -0.4524 -0.8122 -1.0540
   88SLPC  C318 8589   6.202   2.345   5.305  0.2260 -0.1848 -0.0091
   88SLPC  H18X 8590   6.237   2.450   5.296 -0.7711  0.2142  0.6523
   88SLPC  H18Y 8591   6.277   2.281   5.252  0.4566  1.1637 -1.3646
   88SLPC  H18Z 8592   6.221   2.312   5.410 -0.2809 -1.3943 -0.2728
   89SAPE     N 8593   4.250   4.844   7.527  0.2177  0.0507  0.3038
   89SAPE   HN1 8594   4.243   4.762   7.463  2.4308 -0.1809  0.3069
   89SAPE   HN2 8595   4.188   4.819   7.608  0.6331  1.1633  0.9873
   89SAPE   HN3 8596   4.214   4.932   7.486  2.2410  0.0224 -1.7254
   89SAPE   C12 8597   4.386   4.871   7.588 -0.3610  1.0987 -0.0261
   89SAPE  H12A 8598   4.454   4.884   7.501 -0.2448  0.6112 -0.0087
   89SAPE  H12B 8599   4.418   4.784   7.650 -1.9263  1.0527  0.7508
   89SAPE   C11 8600   4.402   5.002   7.657  0.0258  0.2455  0.1731
   89SAPE  H11A 8601   4.508   5.033   7.672 -0.3388  0.9187  1.5078
   89SAPE  H11B 8602   4.347   4.993   7.754  0.1482  0.7925  0.2974
   89SAPE     P 8603   4.340   5.250   7.623  0.5536 -0.1362 -0.0088
   89SAPE   O13 8604   4.220   5.325   7.583 -0.6687 -0.0569  0.8293
   89SAPE   O14 8605   4.389   5.259   7.763  0.3175  0.1191  0.2456
   89SAPE   O12 8606   4.324   5.098   7.582  0.1612  1.0362  0.0725
   89SAPE   O11 8607   4.456   5.298   7.527 -0.2768 -0.6967 -0.1859
   89SAPE    C1 8608   4.547   5.213   7.457  0.5122 -0.2334 -0.4055
   89SAPE    HA 8609   4.626   5.182   7.529 -1.5027 -2.6935  0.8970
   89SAPE    HB 8610   4.492   5.121   7.427  0.3410  0.1365 -1.2597
   89SAPE    C2 8611   4.594   5.281   7.330 -0.0661 -0.4783  0.0440
   89SAPE    HS 8612   4.612   5.390   7.336 -1.9355 -0.2204  3.2733
   89SAPE   O21 8613   4.501   5.258   7.219 -0.5486 -0.1851 -0.3811
   89SAPE   C21 8614   4.399   5.341   7.211  0.1011 -0.1983  0.1736
   89SAPE   O22 8615   4.374   5.439   7.277  0.0633  0.7344 -0.4319
   89SAPE   C22 8616   4.305   5.282   7.101 -0.5477 -0.8295  0.2948
   89SAPE   H2R 8617   4.275   5.176   7.111 -0.4844 -0.9249 -0.5133
   89SAPE   H2S 8618   4.215   5.344   7.120 -1.3818 -2.0960  0.5490
   89SAPE    C3 8619   4.714   5.216   7.276  0.0049 -0.5480 -0.1870
   89SAPE    HX 8620   4.707   5.105   7.272 -1.5086 -0.4664 -0.3348
   89SAPE    HY 8621   4.780   5.231   7.364 -0.8902 -2.8181  0.9632
   89SAPE   O31 8622   4.757   5.278   7.154 -0.2640 -0.2149  0.4352
   89SAPE   C31 8623   4.732   5.217   7.038 -0.0946  0.2710  0.1129
   89SAPE   O32 8624   4.684   5.107   7.027 -0.2046 -0.2196  0.1683
   89SAPE   C32 8625   4.768   5.300   6.919  0.1883 -0.4148  0.4162
   89SAPE   H2X 8626   4.867   5.348   6.936 -0.1083  0.3927 -0.0981
   89SAPE   H2Y 8627   4.684   5.370   6.899 -0.0704 -0.7692  0.2533
   89SAPE   C23 8628   4.370   5.297   6.961 -0.5305 -0.2415  0.1388
   89SAPE   H3R 8629   4.473   5.257   6.954 -0.6449 -0.8362  1.5084
   89SAPE   H3S 8630   4.366   5.405   6.935  0.3402  0.3588  2.3191
   89SAPE   C24 8631   4.270   5.231   6.863  0.2529 -0.2754  0.7246
   89SAPE   H4R 8632   4.185   5.301   6.846 -0.0012 -0.5510  0.8414
   89SAPE   H4S 8633   4.223   5.148   6.921 -1.6075  1.0255  1.1760
   89SAPE   C25 8634   4.331   5.179   6.731  0.7425 -0.0711 -0.3240
   89SAPE   H5R 8635   4.382   5.081   6.731  0.1227 -0.3980  0.2965
   89SAPE   C26 8636   4.330   5.252   6.614 -0.1950 -0.1446 -0.0186
   89SAPE   H6R 8637   4.394   5.218   6.532 -0.6438 -2.2168  0.4250
   89SAPE   C27 8638   4.262   5.385   6.584 -0.3174 -0.0512  0.7005
   89SAPE   H7R 8639   4.185   5.407   6.661 -0.1508  0.8228  0.6185
   89SAPE   H7S 8640   4.213   5.378   6.485  1.0672  1.8499 -0.1761
   89SAPE   C28 8641   4.361   5.499   6.583 -0.7865 -0.4681  0.5856
   89SAPE   H8R 8642   4.414   5.516   6.678 -1.2455  1.1759  0.5740
   89SAPE   C29 8643   4.397   5.576   6.476 -0.4464 -0.6016 -0.7703
   89SAPE   H9R 8644   4.476   5.652   6.476 -1.0022  0.0254  1.2590
   89SAPE  C210 8645   4.319   5.578   6.345 -0.4441 -0.3642  0.4018
   89SAPE  H10R 8646   4.327   5.678   6.297 -3.7239 -0.5130 -0.7029
   89SAPE  H10S 8647   4.209   5.579   6.365 -0.9530  0.3784 -2.0000
   89SAPE  C211 8648   4.355   5.466   6.250 -0.2567 -0.1491  1.0100
   89SAPE  H11R 8649   4.458   5.430   6.267  0.5502  1.2609 -0.5996
   89SAPE  C212 8650   4.286   5.433   6.141  0.2790 -1.0280  0.8354
   89SAPE  H12R 8651   4.326   5.351   6.079 -1.1155  0.1878 -1.8814
   89SAPE  C213 8652   4.150   5.487   6.096 -0.0910 -0.5576 -0.2754
   89SAPE  H13R 8653   4.116   5.441   6.001  0.0849 -0.8125 -0.2170
   89SAPE  H13S 8654   4.150   5.598   6.090  1.5129 -0.2857  2.7455
   89SAPE  C214 8655   4.045   5.450   6.199  0.2568  0.1190 -0.1044
   89SAPE  H14R 8656   4.076   5.382   6.279 -0.6608 -0.1738  0.0179
   89SAPE  C215 8657   3.913   5.484   6.207  0.5038 -0.0295  0.4533
   89SAPE  H15R 8658   3.845   5.444   6.284 -3.8965 -0.4003 -3.2048
   89SAPE  C216 8659   3.849   5.584   6.107 -0.1442  0.1920  0.5356
   89SAPE  H16R 8660   3.929   5.641   6.055 -1.2139  1.8349  0.6339
   89SAPE  H16S 8661   3.786   5.662   6.153 -0.6911 -0.1704  0.4094
   89SAPE  C217 8662   3.757   5.519   6.000  0.3490  0.1086  0.4125
   89SAPE  H17R 8663   3.712   5.610   5.956  0.9252  1.4424  2.4282
   89SAPE  H17S 8664   3.677   5.457   6.047 -0.3159  0.8230  0.2413
   89SAPE  C218 8665   3.835   5.442   5.898  0.6617  0.3422  0.0439
   89SAPE  H18R 8666   3.879   5.355   5.951  0.4860 -0.3330 -0.8891
   89SAPE  H18S 8667   3.904   5.521   5.862 -1.4456  2.1014 -0.3537
   89SAPE  C219 8668   3.750   5.392   5.779  0.0635 -0.1051 -0.2871
   89SAPE  H19R 8669   3.697   5.483   5.744  0.5281  0.2351 -0.1140
   89SAPE  H19S 8670   3.682   5.312   5.815  1.5724 -1.6101 -0.6562
   89SAPE  C220 8671   3.831   5.344   5.658  0.3988  0.7169  0.5261
   89SAPE  H20R 8672   3.762   5.315   5.576 -1.5807  3.7137  0.9670
   89SAPE  H20S 8673   3.894   5.257   5.689  3.7350  1.5964 -3.0677
   89SAPE  H20T 8674   3.905   5.418   5.622  1.5584  0.0282  1.4194
   89SAPE   C33 8675   4.774   5.211   6.790 -0.2265 -0.4823  0.2315
   89SAPE   H3X 8676   4.674   5.163   6.781 -1.3703  1.5507  1.5345
   89SAPE   H3Y 8677   4.855   5.136   6.799 -0.1425 -0.3921  0.2266
   89SAPE   C34 8678   4.796   5.306   6.663 -0.5113  0.1200 -0.0069
   89SAPE   H4X 8679   4.897   5.351   6.657  0.1173 -1.4380 -2.3969
   89SAPE   H4Y 8680   4.723   5.389   6.668  2.0948  2.5196  0.2618
   89SAPE   C35 8681   4.779   5.228   6.533  0.8273 -0.1646  0.1052
   89SAPE   H5X 8682   4.683   5.171   6.527  1.6467 -1.4435 -1.6015
   89SAPE   H5Y 8683   4.860   5.153   6.523  2.6397  1.3472  2.2771
   89SAPE   C36 8684   4.792   5.320   6.414 -0.6378 -0.4134  0.6405
   89SAPE   H6X 8685   4.892   5.328   6.366 -1.5379 -0.2007 -1.2869
   89SAPE   H6Y 8686   4.765   5.423   6.445  0.8979  0.3476 -0.4408
   89SAPE   C37 8687   4.694   5.284   6.294 -0.4369  0.1679  1.7783
   89SAPE   H7X 8688   4.587   5.290   6.323 -0.5718 -0.6823  1.4647
   89SAPE   H7Y 8689   4.708   5.175   6.280 -1.2719 -0.0021  2.2155
   89SAPE   C38 8690   4.723   5.354   6.158 -0.9076  0.2526  0.1781
   89SAPE   H8X 8691   4.834   5.351   6.147 -1.0045 -3.4966 -1.5407
   89SAPE   H8Y 8692   4.691   5.460   6.161 -1.1738  0.2462 -1.6086
   89SAPE   C39 8693   4.650   5.290   6.042  0.2250 -0.3753 -0.3897
   89SAPE   H9X 8694   4.540   5.290   6.057  0.4375 -0.2392  1.3958
   89SAPE   H9Y 8695   4.670   5.181   6.035  2.5957 -0.0689  0.7951
   89SAPE  C310 8696   4.678   5.360   5.908  0.0094  0.1518 -0.8411
   89SAPE  H10X 8697   4.784   5.392   5.899  0.6438 -1.7790 -0.6875
   89SAPE  H10Y 8698   4.610   5.448   5.912 -0.8616 -0.5271 -0.3245
   89SAPE  C311 8699   4.654   5.277   5.778  0.0039  0.2897 -0.2209
   89SAPE  H11X 8700   4.714   5.185   5.762 -1.2686 -0.7112  0.5938
   89SAPE  H11Y 8701   4.674   5.344   5.691 -0.9487 -0.0620 -0.7317
   89SAPE  C312 8702   4.507   5.238   5.770  0.6359  0.0225 -0.1868
   89SAPE  H12X 8703   4.442   5.315   5.818  0.6067  0.2487 -0.5787
   89SAPE  H12Y 8704   4.480   5.157   5.841  1.7865  1.7736  2.3769
   89SAPE  C313 8705   4.460   5.218   5.627 -0.0461  0.6662 -0.1897
   89SAPE  H13X 8706   4.535   5.148   5.582  1.7391  1.5276  1.2934
   89SAPE  H13Y 8707   4.476   5.313   5.572  0.2586 -1.1562 -3.5299
   89SAPE  C314 8708   4.314   5.178   5.609 -0.7237  0.6561 -0.2077
   89SAPE  H14X 8709   4.251   5.259   5.651  0.7589  0.3001  3.0124
   89SAPE  H14Y 8710   4.300   5.090   5.674 -2.5948  0.8410 -0.3231
   89SAPE  C315 8711   4.266   5.132   5.470 -0.0898 -0.5680  0.5964
   89SAPE  H15X 8712   4.343   5.069   5.421 -0.7443 -1.4012  0.6160
   89SAPE  H15Y 8713   4.242   5.215   5.401 -1.1199 -1.3291  0.0162
   89SAPE  C316 8714   4.135   5.056   5.492  0.5966  0.5025 -0.4078
   89SAPE  H16X 8715   4.070   5.103   5.569  0.1744 -1.3137  0.3980
   89SAPE  H16Y 8716   4.166   4.960   5.537  0.0675  0.5803  0.1366
   89SAPE  C317 8717   4.056   5.030   5.358 -0.5841 -0.4453  0.0909
   89SAPE  H17X 8718   4.131   4.971   5.301  2.3059  2.5828  0.4177
   89SAPE  H17Y 8719   4.030   5.119   5.298 -1.3036 -0.8600 -0.2236
   89SAPE  C318 8720   3.932   4.936   5.380 -0.3907  0.4586  0.1297
   89SAPE  H18X 8721   3.842   4.996   5.408 -0.2775 -0.1665  1.9944
   89SAPE  H18Y 8722   3.948   4.857   5.457 -0.9216  0.6611  0.4567
   89SAPE  H18Z 8723   3.896   4.887   5.287 -0.0284  2.1700 -0.9396
   90SAPE     N 8724   6.382   5.604   8.199 -0.3487  0.2659  0.3261
   90SAPE   HN1 8725   6.433   5.528   8.148 -0.0122  0.5525  0.2341
   90SAPE   HN2 8726   6.329   5.556   8.274  0.7465 -1.0003  0.3231
   90SAPE   HN3 8727   6.327   5.659   8.130  1.3604  2.4395  0.5908
   90SAPE   C12 8728   6.488   5.691   8.247 -0.2640  0.0915 -0.3922
   90SAPE  H12A 8729   6.555   5.628   8.309  0.0148  0.6342 -0.1274
   90SAPE  H12B 8730   6.447   5.773   8.311  1.0388  3.3654 -3.3911
   90SAPE   C11 8731   6.570   5.760   8.126 -0.3026  0.0677 -0.3106
   90SAPE  H11A 8732   6.605   5.680   8.057 -0.1861  0.9475 -1.3054
   90SAPE  H11B 8733   6.650   5.822   8.172 -2.6253  2.0764  1.2690
   90SAPE     P 8734   6.538   5.936   7.941  0.3188  0.5873 -0.3871
   90SAPE   O13 8735   6.443   6.042   7.903  0.2875  0.2375 -0.4748
   90SAPE   O14 8736   6.676   5.985   7.984  0.6570 -0.4605  0.1302
   90SAPE   O12 8737   6.483   5.849   8.056  0.7382  0.0919 -0.4840
   90SAPE   O11 8738   6.544   5.828   7.826 -0.3393  0.2182 -0.2576
   90SAPE    C1 8739   6.444   5.732   7.787  0.6403  0.0162  0.1513
   90SAPE    HA 8740   6.485   5.635   7.823  1.5843  0.5596  0.5772
   90SAPE    HB 8741   6.345   5.741   7.838  0.4487  0.4212 -0.2846
   90SAPE    C2 8742   6.421   5.759   7.630  0.0006 -0.8346  0.0719
   90SAPE    HS 8743   6.376   5.668   7.585 -0.4128 -0.6858  0.1856
   90SAPE   O21 8744   6.538   5.797   7.555  0.0841 -0.0639 -0.4205
   90SAPE   C21 8745   6.632   5.704   7.559 -0.6310 -0.8708  0.4525
   90SAPE   O22 8746   6.617   5.587   7.590 -0.0899  0.3468  0.0383
   90SAPE   C22 8747   6.763   5.761   7.510 -0.0917  0.0205 -0.8110
   90SAPE   H2R 8748   6.789   5.853   7.566 -0.7484  0.6057 -1.4558
   90SAPE   H2S 8749   6.849   5.691   7.513 -0.5645 -0.5527 -0.3746
   90SAPE    C3 8750   6.310   5.868   7.609 -0.2196  0.5529 -0.0387
   90SAPE    HX 8751   6.364   5.962   7.633  0.2802  0.5330 -1.0336
   90SAPE    HY 8752   6.226   5.853   7.680  1.4590 -0.3715  1.9000
   90SAPE   O31 8753   6.245   5.869   7.480 -0.3203  0.4456  0.0410
   90SAPE   C31 8754   6.299   5.950   7.391  0.1431 -0.3099  0.5269
   90SAPE   O32 8755   6.393   6.028   7.409  0.2761 -0.0533 -0.0339
   90SAPE   C32 8756   6.206   5.944   7.269  0.0817 -0.1216  0.4834
   90SAPE   H2X 8757   6.183   6.040   7.219 -2.2719 -1.9896 -2.3637
   90SAPE   H2Y 8758   6.104   5.913   7.300 -0.5855 -0.1456 -1.5935
   90SAPE   C23 8759   6.757   5.806   7.362 -0.0865  0.1935  0.4761
   90SAPE   H3R 8760   6.794   5.910   7.348 -0.2586  0.1682 -0.1940
   90SAPE   H3S 8761   6.663   5.790   7.306  0.8399 -1.3077 -0.7439
   90SAPE   C24 8762   6.849   5.709   7.277  0.6766 -1.4187  0.2562
   90SAPE   H4R 8763   6.809   5.606   7.285 -1.8050 -0.7535 -2.0585
   90SAPE   H4S 8764   6.944   5.694   7.333 -1.7779 -5.8140  3.9370
   90SAPE   C25 8765   6.860   5.756   7.130  0.1931 -0.6819 -0.9887
   90SAPE   H5R 8766   6.920   5.847   7.122 -1.1346  1.0909  4.6507
   90SAPE   C26 8767   6.817   5.698   7.019  0.2870 -0.4590  0.0901
   90SAPE   H6R 8768   6.867   5.728   6.926  2.1884 -0.9362  0.9157
   90SAPE   C27 8769   6.733   5.573   7.012  0.1141 -0.4599  0.6710
   90SAPE   H7R 8770   6.693   5.578   6.909  1.6420  1.1183  0.0992
   90SAPE   H7S 8771   6.647   5.589   7.081  1.3713 -0.2429  2.2645
   90SAPE   C28 8772   6.777   5.429   7.029 -0.1847 -0.3324  0.1355
   90SAPE   H8R 8773   6.723   5.384   7.114 -4.7441  2.6035 -0.8221
   90SAPE   C29 8774   6.861   5.358   6.953  0.3319 -0.8263  0.2233
   90SAPE   H9R 8775   6.881   5.252   6.977  0.9882 -0.9004 -0.5959
   90SAPE  C210 8776   6.937   5.413   6.835  0.4215  0.6087  0.6998
   90SAPE  H10R 8777   7.040   5.439   6.866  1.6475 -2.7443 -0.1585
   90SAPE  H10S 8778   6.895   5.508   6.795 -1.0532  0.1744  1.1547
   90SAPE  C211 8779   6.958   5.315   6.723 -0.8361  0.6608 -0.1310
   90SAPE  H11R 8780   7.047   5.254   6.743 -1.5447  0.2764  2.2020
   90SAPE  C212 8781   6.879   5.303   6.612 -0.5255 -0.0429 -0.0833
   90SAPE  H12R 8782   6.923   5.235   6.538  0.1431  1.6282 -1.2750
   90SAPE  C213 8783   6.778   5.403   6.560  0.2097 -0.3233  0.0900
   90SAPE  H13R 8784   6.731   5.455   6.646  1.7852 -0.1221  0.8698
   90SAPE  H13S 8785   6.703   5.341   6.507 -2.5680  2.9142 -0.1723
   90SAPE  C214 8786   6.826   5.515   6.475 -0.5837  0.1290  1.0337
   90SAPE  H14R 8787   6.811   5.610   6.528 -1.4744  0.5024  0.1288
   90SAPE  C215 8788   6.888   5.506   6.354  0.1326  0.9145  0.7151
   90SAPE  H15R 8789   6.918   5.597   6.300  1.7165 -0.6232 -1.1731
   90SAPE  C216 8790   6.922   5.377   6.283  0.2901  0.5139 -0.7749
   90SAPE  H16R 8791   6.846   5.299   6.307 -0.1983  0.8984 -1.0516
   90SAPE  H16S 8792   7.019   5.335   6.316  1.0255  1.8921 -1.1199
   90SAPE  C217 8793   6.943   5.373   6.118  0.2944  0.1582 -0.2699
   90SAPE  H17R 8794   7.039   5.424   6.099  0.5170  1.1666  2.9448
   90SAPE  H17S 8795   6.864   5.440   6.077 -0.3753 -0.2207  0.3606
   90SAPE  C218 8796   6.950   5.231   6.061 -0.0947 -0.4404  0.1540
   90SAPE  H18R 8797   6.859   5.177   6.097 -3.0623  3.5381 -0.7022
   90SAPE  H18S 8798   7.040   5.179   6.101  0.9288 -0.2490 -1.8100
   90SAPE  C219 8799   6.966   5.223   5.907  0.7014  0.1635 -0.1797
   90SAPE  H19R 8800   7.074   5.196   5.903  0.2039 -2.2784  0.6130
   90SAPE  H19S 8801   6.939   5.322   5.865 -1.9339  0.5535  2.1045
   90SAPE  C220 8802   6.883   5.115   5.841  0.1241  0.1924 -0.7082
   90SAPE  H20R 8803   6.899   5.023   5.901  1.5483  0.8190 -0.0626
   90SAPE  H20S 8804   6.918   5.093   5.738 -1.0190  0.2782 -1.1308
   90SAPE  H20T 8805   6.774   5.137   5.836 -0.2576 -1.2281  0.4731
   90SAPE   C33 8806   6.254   5.837   7.162 -0.4987  0.4718 -0.9206
   90SAPE   H3X 8807   6.171   5.843   7.089  0.2871  1.8880 -1.7252
   90SAPE   H3Y 8808   6.252   5.737   7.211  0.2225  2.0965  2.7602
   90SAPE   C34 8809   6.387   5.867   7.101  0.0561 -0.1416 -0.1224
   90SAPE   H4X 8810   6.468   5.826   7.165 -0.6580  1.2234  1.7059
   90SAPE   H4Y 8811   6.400   5.977   7.105  0.3207 -0.1884  0.4227
   90SAPE   C35 8812   6.393   5.808   6.958 -0.0334 -0.4733  0.2438
   90SAPE   H5X 8813   6.298   5.838   6.908 -0.8919 -0.5462  1.7472
   90SAPE   H5Y 8814   6.381   5.698   6.966 -2.6856 -0.3215 -0.5957
   90SAPE   C36 8815   6.519   5.851   6.889 -0.1414 -0.0142 -0.1863
   90SAPE   H6X 8816   6.611   5.833   6.950  0.5477 -0.9053 -1.4409
   90SAPE   H6Y 8817   6.517   5.957   6.857 -0.6660  0.2731  0.7612
   90SAPE   C37 8818   6.543   5.771   6.764 -0.2882 -0.4213 -0.3785
   90SAPE   H7X 8819   6.529   5.665   6.793 -2.1376 -0.6301 -1.8621
   90SAPE   H7Y 8820   6.648   5.783   6.729  0.2132 -1.0463  0.8478
   90SAPE   C38 8821   6.450   5.809   6.654 -0.0967  0.5942  0.5980
   90SAPE   H8X 8822   6.494   5.909   6.631  1.0825 -0.5540 -2.7815
   90SAPE   H8Y 8823   6.344   5.808   6.689 -0.0618  0.2559  0.6961
   90SAPE   C39 8824   6.468   5.736   6.522 -0.5058  0.1013  0.4486
   90SAPE   H9X 8825   6.444   5.628   6.529 -1.4934  0.3291  0.6528
   90SAPE   H9Y 8826   6.577   5.739   6.499 -0.0571  0.0257  2.3746
   90SAPE  C310 8827   6.387   5.795   6.411 -0.0384  0.3808  0.1004
   90SAPE  H10X 8828   6.422   5.892   6.372  0.6616 -0.8386 -2.5259
   90SAPE  H10Y 8829   6.279   5.780   6.433 -0.9754 -0.0761 -4.0207
   90SAPE  C311 8830   6.401   5.707   6.284  0.3285 -0.1696  0.0890
   90SAPE  H11X 8831   6.340   5.614   6.278 -1.7184  1.1054  0.3277
   90SAPE  H11Y 8832   6.506   5.669   6.291  0.8352  1.3649  1.3825
   90SAPE  C312 8833   6.385   5.772   6.148  0.2177 -0.6014  0.0935
   90SAPE  H12X 8834   6.465   5.848   6.131 -0.3338 -0.2407 -0.9235
   90SAPE  H12Y 8835   6.291   5.830   6.139  1.0974  1.0254  0.8840
   90SAPE  C313 8836   6.390   5.670   6.029 -0.5486  0.3393 -0.2797
   90SAPE  H13X 8837   6.294   5.615   6.043 -1.3513  2.1663  2.1383
   90SAPE  H13Y 8838   6.480   5.606   6.041 -0.3104  0.2907 -2.0465
   90SAPE  C314 8839   6.391   5.732   5.887  0.1997 -0.8187  0.1016
   90SAPE  H14X 8840   6.303   5.800   5.889 -0.0453 -1.1343  0.2248
   90SAPE  H14Y 8841   6.365   5.647   5.820  0.6429 -0.0340 -1.0910
   90SAPE  C315 8842   6.517   5.814   5.852 -0.0061  0.4431  0.4696
   90SAPE  H15X 8843   6.557   5.838   5.953 -0.7330 -2.1794  1.4758
   90SAPE  H15Y 8844   6.482   5.909   5.805 -0.5696 -0.6609 -1.4210
   90SAPE  C316 8845   6.605   5.743   5.743 -0.4257 -0.0294  0.0327
   90SAPE  H16X 8846   6.609   5.807   5.652  0.9065 -0.3156 -0.1231
   90SAPE  H16Y 8847   6.562   5.645   5.713  0.0350 -0.6735  1.3848
   90SAPE  C317 8848   6.749   5.714   5.797  0.4176 -0.6350  0.5343
   90SAPE  H17X 8849   6.803   5.811   5.793 -0.4123 -0.0826  2.0869
   90SAPE  H17Y 8850   6.802   5.658   5.716 -0.2853 -0.7316  0.1343
   90SAPE  C318 8851   6.757   5.635   5.923  0.1944 -0.5903  0.2359
   90SAPE  H18X 8852   6.860   5.639   5.966  0.7577  3.5075 -1.0629
   90SAPE  H18Y 8853   6.716   5.533   5.906 -0.1691 -0.5476  0.8555
   90SAPE  H18Z 8854   6.682   5.663   5.999 -0.5704  0.1323 -0.7595
   91SAPE     N 8855   5.639   4.514   7.740  0.0856  0.0428 -0.0797
   91SAPE   HN1 8856   5.605   4.437   7.801  1.1704  1.2665  2.1745
   91SAPE   HN2 8857   5.571   4.591   7.751 -0.5467 -0.6815  1.3045
   91SAPE   HN3 8858   5.641   4.472   7.645 -0.0728 -3.5149  1.3355
   91SAPE   C12 8859   5.777   4.567   7.778  0.2871  0.7792  0.3524
   91SAPE  H12A 8860   5.769   4.597   7.885 -0.4208  0.3613  0.4208
   91SAPE  H12B 8861   5.815   4.654   7.720  1.6415  0.0927  0.1704
   91SAPE   C11 8862   5.891   4.454   7.758  1.0784 -0.6457  0.0858
   91SAPE  H11A 8863   5.899   4.431   7.650 -0.1822 -0.2191 -0.1208
   91SAPE  H11B 8864   5.858   4.362   7.811  1.6638 -0.6294  0.4911
   91SAPE     P 8865   6.124   4.576   7.750  0.6857  0.2877 -0.3020
   91SAPE   O13 8866   6.074   4.712   7.714 -0.1499 -0.2815 -0.0652
   91SAPE   O14 8867   6.250   4.561   7.818 -0.3074 -0.3951  0.1349
   91SAPE   O12 8868   6.005   4.507   7.834  0.4768  0.0030 -0.1056
   91SAPE   O11 8869   6.113   4.492   7.615 -0.4924 -0.0303 -0.4445
   91SAPE    C1 8870   6.221   4.415   7.561 -0.2248  0.3548  0.2256
   91SAPE    HA 8871   6.321   4.450   7.593  1.3549 -2.6417 -1.0761
   91SAPE    HB 8872   6.223   4.313   7.603  1.2224  0.0460 -0.5325
   91SAPE    C2 8873   6.205   4.409   7.410  0.2204 -0.3070 -0.7579
   91SAPE    HS 8874   6.295   4.363   7.364  0.4789  0.1864 -0.7472
   91SAPE   O21 8875   6.186   4.548   7.374  0.0951 -1.0645 -0.0999
   91SAPE   C21 8876   6.296   4.622   7.361 -0.1837  0.0077 -0.5464
   91SAPE   O22 8877   6.411   4.593   7.383  0.3890  0.1064  0.0640
   91SAPE   C22 8878   6.248   4.766   7.318 -0.9834  0.0387  0.9968
   91SAPE   H2R 8879   6.197   4.806   7.407 -2.1501 -0.1133  0.4123
   91SAPE   H2S 8880   6.336   4.832   7.300 -0.0843 -0.8207  2.1413
   91SAPE    C3 8881   6.069   4.331   7.367 -0.3589  0.0141  0.1474
   91SAPE    HX 8882   5.992   4.371   7.436 -1.1444  0.6094 -1.0429
   91SAPE    HY 8883   6.097   4.225   7.385 -1.9983 -1.0954 -3.1013
   91SAPE   O31 8884   6.043   4.341   7.229  0.3638  0.0141  0.6411
   91SAPE   C31 8885   5.933   4.402   7.192 -0.4767  0.7877  0.5886
   91SAPE   O32 8886   5.843   4.427   7.269 -0.1446 -0.5211 -0.1221
   91SAPE   C32 8887   5.951   4.435   7.047  0.0537  0.6525 -0.5378
   91SAPE   H2X 8888   5.943   4.340   6.990  1.7951  0.2482 -0.1870
   91SAPE   H2Y 8889   6.054   4.476   7.033 -0.1753  1.4189 -0.0519
   91SAPE   C23 8890   6.160   4.749   7.195 -0.7470 -0.0524 -0.0983
   91SAPE   H3R 8891   6.070   4.694   7.230  0.6584 -0.4860  3.2598
   91SAPE   H3S 8892   6.208   4.696   7.111 -1.5032 -0.5936 -0.1975
   91SAPE   C24 8893   6.125   4.892   7.152  0.0267 -0.0177 -1.0605
   91SAPE   H4R 8894   6.208   4.946   7.102  0.2215  1.1200  0.4360
   91SAPE   H4S 8895   6.100   4.953   7.241 -3.3918  0.7943 -2.4281
   91SAPE   C25 8896   5.990   4.898   7.081  0.0215  0.1322 -0.0936
   91SAPE   H5R 8897   5.909   4.864   7.147  0.4932 -0.8827 -0.0123
   91SAPE   C26 8898   5.970   4.938   6.953  0.2785 -0.1274 -0.1655
   91SAPE   H6R 8899   5.868   4.943   6.912  1.5348 -0.4081 -3.6664
   91SAPE   C27 8900   6.076   4.972   6.854 -0.6263  0.3205 -0.8150
   91SAPE   H7R 8901   6.139   5.055   6.893 -0.8678  0.0854  0.1084
   91SAPE   H7S 8902   6.033   5.017   6.762  1.6150 -1.3218 -2.7983
   91SAPE   C28 8903   6.155   4.843   6.814  0.0757 -0.4793 -0.8887
   91SAPE   H8R 8904   6.158   4.769   6.896  2.1054 -0.4269 -0.8682
   91SAPE   C29 8905   6.185   4.798   6.694  0.3911 -0.1338  0.1439
   91SAPE   H9R 8906   6.261   4.719   6.682 -1.0774 -1.6925  0.8424
   91SAPE  C210 8907   6.177   4.879   6.566 -0.2498 -0.2815  0.0142
   91SAPE  H10R 8908   6.267   4.857   6.504  1.1979 -1.9979  2.5648
   91SAPE  H10S 8909   6.173   4.985   6.598 -1.5516 -0.1545 -0.4952
   91SAPE  C211 8910   6.050   4.842   6.495  0.4785 -0.0083 -0.0108
   91SAPE  H11R 8911   5.970   4.788   6.548  0.6651 -0.9852 -0.6950
   91SAPE  C212 8912   6.013   4.900   6.378 -0.4128 -0.1452 -0.0498
   91SAPE  H12R 8913   5.918   4.871   6.331 -0.7339  0.4897  0.2009
   91SAPE  C213 8914   6.090   4.982   6.278  0.0317 -0.4358 -0.3971
   91SAPE  H13R 8915   6.089   4.920   6.186  0.0220 -1.3658  0.2120
   91SAPE  H13S 8916   6.196   4.981   6.311  0.2778 -2.3557 -1.1274
   91SAPE  C214 8917   6.035   5.122   6.260  0.5962  0.4954 -0.0707
   91SAPE  H14R 8918   6.071   5.196   6.333  0.5151 -0.9064  1.4525
   91SAPE  C215 8919   5.949   5.165   6.164 -0.3821 -0.0625  0.1189
   91SAPE  H15R 8920   5.910   5.268   6.165 -2.0243 -0.6041 -1.9202
   91SAPE  C216 8921   5.903   5.087   6.043 -0.7695  0.0020  0.0900
   91SAPE  H16R 8922   5.802   5.126   6.016 -0.5499  0.5132 -0.0204
   91SAPE  H16S 8923   5.897   4.980   6.072  0.4958  0.4644  2.2739
   91SAPE  C217 8924   5.983   5.117   5.915 -0.4273 -0.1125  0.2723
   91SAPE  H17R 8925   5.951   5.038   5.843 -5.1176 -0.2841  2.2391
   91SAPE  H17S 8926   6.091   5.090   5.927  0.1486  1.1145 -1.7021
   91SAPE  C218 8927   5.964   5.261   5.860 -0.3819  0.7911  0.1015
   91SAPE  H18R 8928   6.010   5.333   5.930  0.9002  1.2012 -1.1318
   91SAPE  H18S 8929   5.856   5.284   5.843  0.1024  1.5170 -2.2714
   91SAPE  C219 8930   6.024   5.280   5.713  0.6494 -0.6462  0.3127
   91SAPE  H19R 8931   6.129   5.244   5.711  0.0424 -2.4923 -0.1695
   91SAPE  H19S 8932   6.011   5.387   5.688 -0.3539 -0.4591  1.5355
   91SAPE  C220 8933   5.942   5.191   5.610 -0.2755  0.1409 -0.0784
   91SAPE  H20R 8934   5.833   5.205   5.621 -0.3693 -0.6890  0.0826
   91SAPE  H20S 8935   5.965   5.086   5.636  1.6837  0.3536 -0.7582
   91SAPE  H20T 8936   5.975   5.202   5.504 -1.2603  0.0791 -0.3975
   91SAPE   C33 8937   5.851   4.548   6.989 -0.8004  0.4677 -0.0795
   91SAPE   H3X 8938   5.866   4.628   7.064  2.7169 -1.2499  1.2874
   91SAPE   H3Y 8939   5.743   4.522   6.998 -1.1467  2.3637  2.7991
   91SAPE   C34 8940   5.888   4.583   6.845  0.4737 -0.1006 -0.6807
   91SAPE   H4X 8941   5.997   4.606   6.847  0.5688 -0.5083  1.7017
   91SAPE   H4Y 8942   5.837   4.678   6.820 -0.0392 -0.5536 -1.4099
   91SAPE   C35 8943   5.856   4.475   6.741  0.1450 -0.3460  0.1454
   91SAPE   H5X 8944   5.746   4.459   6.745  0.0350  0.5424  0.9628
   91SAPE   H5Y 8945   5.901   4.381   6.781  1.9801 -0.1175 -1.2730
   91SAPE   C36 8946   5.898   4.513   6.602  0.2587 -0.3680  0.0836
   91SAPE   H6X 8947   6.008   4.510   6.589  0.1787  1.6009 -1.5283
   91SAPE   H6Y 8948   5.864   4.614   6.571  0.0346 -0.8915 -1.5005
   91SAPE   C37 8949   5.847   4.429   6.484 -0.1475  0.8876 -0.2526
   91SAPE   H7X 8950   5.868   4.320   6.487 -0.1151  0.8369 -1.6035
   91SAPE   H7Y 8951   5.886   4.461   6.384 -1.7119  0.4144 -1.0536
   91SAPE   C38 8952   5.694   4.449   6.468  0.5326 -0.1179 -0.4372
   91SAPE   H8X 8953   5.666   4.556   6.471  1.4641  0.1276  1.7581
   91SAPE   H8Y 8954   5.647   4.400   6.556  0.2126  1.2502  0.1742
   91SAPE   C39 8955   5.644   4.377   6.338  0.0100  0.1332  0.2882
   91SAPE   H9X 8956   5.542   4.337   6.354  0.6331 -2.8398 -2.2011
   91SAPE   H9Y 8957   5.716   4.293   6.328  0.0894  0.2777 -0.3918
   91SAPE  C310 8958   5.642   4.474   6.215  0.2680 -0.0485  0.4291
   91SAPE  H10X 8959   5.746   4.494   6.179  0.5061 -1.0887  0.5043
   91SAPE  H10Y 8960   5.600   4.565   6.262  0.9291  0.1366  0.6684
   91SAPE  C311 8961   5.564   4.417   6.099 -0.2368 -0.0990 -0.9358
   91SAPE  H11X 8962   5.554   4.494   6.020 -1.2828  0.9799  0.2067
   91SAPE  H11Y 8963   5.464   4.394   6.143  0.0195  0.7576  0.1542
   91SAPE  C312 8964   5.643   4.296   6.055 -0.2819  0.2294 -0.3046
   91SAPE  H12X 8965   5.620   4.207   6.118  0.6087 -0.5084 -0.9917
   91SAPE  H12Y 8966   5.752   4.316   6.070  0.2141 -0.5408 -2.5503
   91SAPE  C313 8967   5.618   4.269   5.905  0.3745 -0.5285 -0.0120
   91SAPE  H13X 8968   5.508   4.273   5.890  0.4365 -1.5229 -0.8739
   91SAPE  H13Y 8969   5.626   4.162   5.875 -0.4816 -1.1291  1.7243
   91SAPE  C314 8970   5.698   4.355   5.810 -0.1966  0.3067 -0.0876
   91SAPE  H14X 8971   5.803   4.320   5.822 -0.0935  0.2010 -1.1862
   91SAPE  H14Y 8972   5.696   4.464   5.836 -0.4458 -0.4339  3.6185
   91SAPE  C315 8973   5.659   4.332   5.661 -0.1864  0.3330  0.3035
   91SAPE  H15X 8974   5.593   4.412   5.620  1.8285  1.2167 -1.4227
   91SAPE  H15Y 8975   5.606   4.235   5.657  1.1055 -0.4283  1.0127
   91SAPE  C316 8976   5.777   4.318   5.560 -0.5075 -0.2510 -0.3008
   91SAPE  H16X 8977   5.847   4.256   5.620 -0.0131 -1.2146 -1.8163
   91SAPE  H16Y 8978   5.836   4.408   5.535  0.3548 -0.9509 -0.8824
   91SAPE  C317 8979   5.743   4.249   5.438 -0.0119  0.5227  0.8451
   91SAPE  H17X 8980   5.665   4.170   5.444  0.7098 -0.1977  0.8170
   91SAPE  H17Y 8981   5.834   4.198   5.400 -0.3888  0.4077  0.0620
   91SAPE  C318 8982   5.702   4.344   5.320  0.1899 -1.0531 -0.3100
   91SAPE  H18X 8983   5.668   4.291   5.228 -0.1417  1.7598 -1.9217
   91SAPE  H18Y 8984   5.787   4.410   5.293 -2.2847  2.4129 -0.2548
   91SAPE  H18Z 8985   5.625   4.416   5.354  0.1754 -0.3036 -1.8099
   92SAPE     N 8986   0.873   2.818   7.653 -0.0162 -0.5231  0.1029
   92SAPE   HN1 8987   0.921   2.806   7.562 -0.0529  0.1247 -0.0105
   92SAPE   HN2 8988   0.817   2.736   7.684  0.6639 -1.0217  0.0397
   92SAPE   HN3 8989   0.810   2.900   7.647 -1.8508 -1.8385  0.5222
   92SAPE   C12 8990   0.977   2.841   7.758 -0.4291 -0.3564 -0.6927
   92SAPE  H12A 8991   0.925   2.882   7.847  0.3841  1.0614 -0.8454
   92SAPE  H12B 8992   1.050   2.919   7.727  0.1949 -0.5561  0.2438
   92SAPE   C11 8993   1.051   2.709   7.789 -0.3273  0.3024 -0.6714
   92SAPE  H11A 8994   0.982   2.638   7.838 -0.7738  1.5856  0.6247
   92SAPE  H11B 8995   1.126   2.741   7.864 -1.9021  3.8753 -0.4224
   92SAPE     P 8996   1.070   2.514   7.602  0.0831 -0.0368  0.1353
   92SAPE   O13 8997   1.131   2.402   7.677 -0.3166 -0.2158 -0.0284
   92SAPE   O14 8998   0.923   2.510   7.579 -0.1143 -0.1674 -0.5557
   92SAPE   O12 8999   1.117   2.649   7.684 -0.3033 -0.4500 -0.6271
   92SAPE   O11 9000   1.142   2.527   7.466  0.0008 -0.4376 -0.2085
   92SAPE    C1 9001   1.135   2.424   7.366 -0.6068  0.5528 -0.0778
   92SAPE    HA 9002   1.101   2.331   7.415  0.8637  1.4621  2.9359
   92SAPE    HB 9003   1.071   2.453   7.280 -0.8618  2.6410  0.7489
   92SAPE    C2 9004   1.275   2.396   7.308  1.1833  0.7999  0.3591
   92SAPE    HS 9005   1.346   2.377   7.391  0.9416 -0.1015  0.3614
   92SAPE   O21 9006   1.305   2.502   7.219 -0.6631  0.3248 -0.0871
   92SAPE   C21 9007   1.424   2.514   7.162 -0.0026  0.3652 -0.3450
   92SAPE   O22 9008   1.520   2.444   7.188  0.3213 -0.0281 -0.0248
   92SAPE   C22 9009   1.413   2.627   7.061 -0.2363 -0.8247  0.3971
   92SAPE   H2R 9010   1.311   2.633   7.017  0.1770 -0.3311 -0.5252
   92SAPE   H2S 9011   1.432   2.727   7.105 -1.2455 -1.1209  1.5657
   92SAPE    C3 9012   1.268   2.268   7.219  0.1401  0.4107  0.6535
   92SAPE    HX 9013   1.249   2.175   7.276 -3.0520  0.4097 -0.2384
   92SAPE    HY 9014   1.370   2.237   7.187 -1.1666 -3.7384 -0.0467
   92SAPE   O31 9015   1.188   2.293   7.095 -0.3770 -0.4737 -0.5895
   92SAPE   C31 9016   1.072   2.235   7.106 -0.1120  0.5242  0.4362
   92SAPE   O32 9017   1.026   2.181   7.207  0.0143  0.2693  0.3471
   92SAPE   C32 9018   1.004   2.272   6.973 -0.0152  0.1213  1.3468
   92SAPE   H2X 9019   1.010   2.381   6.954  1.5490 -0.0243  0.8290
   92SAPE   H2Y 9020   0.898   2.245   6.996 -2.2942  0.8481 -5.7765
   92SAPE   C23 9021   1.512   2.618   6.940  0.1234  0.0112 -0.1368
   92SAPE   H3R 9022   1.619   2.625   6.970  0.2401  3.4736 -0.9211
   92SAPE   H3S 9023   1.497   2.715   6.888 -1.2463  1.0557  2.0482
   92SAPE   C24 9024   1.496   2.488   6.851  0.3436 -0.3084  0.0161
   92SAPE   H4R 9025   1.542   2.410   6.915  0.3341  0.0460  0.4595
   92SAPE   H4S 9026   1.559   2.493   6.760  2.4232 -1.7036  1.2901
   92SAPE   C25 9027   1.350   2.466   6.824 -0.1331  0.0149 -0.3420
   92SAPE   H5R 9028   1.289   2.475   6.915 -0.7126  0.1790 -0.7420
   92SAPE   C26 9029   1.292   2.423   6.709  0.5562  0.4840  0.0907
   92SAPE   H6R 9030   1.183   2.410   6.700  0.6578  0.8756 -2.6569
   92SAPE   C27 9031   1.354   2.395   6.575 -1.0571 -0.0858 -0.7792
   92SAPE   H7R 9032   1.313   2.296   6.545  0.6575 -1.4774  1.1306
   92SAPE   H7S 9033   1.464   2.390   6.595 -1.3021  1.5064  1.3660
   92SAPE   C28 9034   1.324   2.507   6.476  0.5519  0.4401 -0.2523
   92SAPE   H8R 9035   1.376   2.601   6.495  1.7191 -0.3579  0.6693
   92SAPE   C29 9036   1.246   2.501   6.364  0.2947 -0.0207  0.5050
   92SAPE   H9R 9037   1.252   2.587   6.296  1.2200  1.5938  2.5395
   92SAPE  C210 9038   1.201   2.366   6.303  0.0703 -0.0396  1.2550
   92SAPE  H10R 9039   1.184   2.282   6.373 -1.2303 -1.0678 -0.2392
   92SAPE  H10S 9040   1.281   2.329   6.236 -1.2025 -0.7241  0.0825
   92SAPE  C211 9041   1.071   2.388   6.216 -0.5156 -0.3200 -0.5752
   92SAPE  H11R 9042   0.986   2.384   6.286  0.2748 -1.5774  0.3622
   92SAPE  C212 9043   1.064   2.394   6.080  0.7246  0.3678 -0.4970
   92SAPE  H12R 9044   0.963   2.378   6.040  0.7200  1.2308 -0.8513
   92SAPE  C213 9045   1.163   2.393   5.963  0.2568 -0.2105 -0.5993
   92SAPE  H13R 9046   1.112   2.351   5.874 -0.0825 -0.5095 -0.2616
   92SAPE  H13S 9047   1.249   2.326   5.985 -0.5046 -1.6728 -1.8055
   92SAPE  C214 9048   1.215   2.523   5.909 -0.0318 -0.1693 -0.2305
   92SAPE  H14R 9049   1.203   2.613   5.971  0.6640 -1.5474  2.0042
   92SAPE  C215 9050   1.270   2.539   5.792  0.7192 -0.2275 -0.3233
   92SAPE  H15R 9051   1.308   2.639   5.769 -1.3686  0.8470  0.6738
   92SAPE  C216 9052   1.313   2.425   5.702 -0.8477 -0.2920  0.6955
   92SAPE  H16R 9053   1.279   2.323   5.730  1.9614 -1.5492 -0.1277
   92SAPE  H16S 9054   1.424   2.433   5.700 -0.8712  0.3565  1.5109
   92SAPE  C217 9055   1.256   2.459   5.564 -0.0712 -0.5867  0.4469
   92SAPE  H17R 9056   1.302   2.398   5.483  0.5881 -0.6038  0.8248
   92SAPE  H17S 9057   1.265   2.565   5.534  1.9072 -0.5740  0.9132
   92SAPE  C218 9058   1.102   2.425   5.546  0.4317  0.1107 -0.2709
   92SAPE  H18R 9059   1.043   2.508   5.591  1.1256 -0.4025  1.6883
   92SAPE  H18S 9060   1.077   2.331   5.601 -3.1132  0.1139 -1.6075
   92SAPE  C219 9061   1.048   2.405   5.394  0.3453  0.2875 -0.5014
   92SAPE  H19R 9062   1.095   2.482   5.330 -1.0673  0.1260 -1.7848
   92SAPE  H19S 9063   0.938   2.419   5.397  0.4987  1.5002 -0.3411
   92SAPE  C220 9064   1.083   2.268   5.332 -0.6714  0.5219  0.1235
   92SAPE  H20R 9065   1.194   2.269   5.323 -0.8136  1.1247 -2.1837
   92SAPE  H20S 9066   1.052   2.261   5.226  0.0578 -3.1077  0.0176
   92SAPE  H20T 9067   1.051   2.183   5.397 -0.4578  0.9186  0.7569
   92SAPE   C33 9068   1.047   2.190   6.848  0.2505  0.3838 -0.0929
   92SAPE   H3X 9069   1.031   2.081   6.858 -0.1159  0.4698  0.2636
   92SAPE   H3Y 9070   1.158   2.192   6.839  0.2163  0.4969 -0.5187
   92SAPE   C34 9071   0.980   2.248   6.714 -0.0379  0.2851  0.0306
   92SAPE   H4X 9072   0.999   2.356   6.698  2.3803 -0.1112 -0.2565
   92SAPE   H4Y 9073   0.873   2.220   6.722  0.2783 -0.6097  1.7336
   92SAPE   C35 9074   1.046   2.187   6.591 -0.0081 -0.0644 -0.1717
   92SAPE   H5X 9075   1.155   2.177   6.609 -0.3669 -0.7250  1.9771
   92SAPE   H5Y 9076   1.020   2.250   6.504  1.5661 -1.1549 -1.4832
   92SAPE   C36 9077   0.998   2.040   6.562 -0.2357  0.0741 -0.8100
   92SAPE   H6X 9078   0.887   2.033   6.573 -0.1226  0.1971  0.5429
   92SAPE   H6Y 9079   1.025   1.972   6.646 -1.8486 -0.9641 -1.0704
   92SAPE   C37 9080   1.062   1.961   6.448 -0.1238 -0.4768  0.0581
   92SAPE   H7X 9081   1.017   1.860   6.453 -0.3409 -0.3585  0.5050
   92SAPE   H7Y 9082   1.172   1.951   6.461  0.2880  0.1076 -2.4406
   92SAPE   C38 9083   1.036   2.019   6.311 -0.0796  0.8350  0.3124
   92SAPE   H8X 9084   1.094   2.111   6.289  1.9867 -0.4969 -0.0967
   92SAPE   H8Y 9085   0.926   2.030   6.300 -0.5023 -2.7668 -0.3817
   92SAPE   C39 9086   1.069   1.924   6.195 -0.2504  0.9663 -0.4501
   92SAPE   H9X 9087   1.000   1.838   6.211  1.1900 -0.2402 -0.5491
   92SAPE   H9Y 9088   1.171   1.880   6.192 -0.7951 -0.3150 -1.1717
   92SAPE  C310 9089   1.043   2.001   6.070  0.2147  0.1472 -0.1013
   92SAPE  H10X 9090   1.111   2.089   6.065 -2.0919  2.1399  1.5398
   92SAPE  H10Y 9091   0.943   2.046   6.083 -0.5608 -1.8032  1.1669
   92SAPE  C311 9092   1.056   1.926   5.938 -0.2467 -0.2690 -0.6741
   92SAPE  H11X 9093   1.159   1.889   5.916 -0.8739 -1.6835 -1.3443
   92SAPE  H11Y 9094   1.038   2.005   5.862 -1.7995  3.0124  2.7448
   92SAPE  C312 9095   0.954   1.822   5.913  0.3202 -0.7905 -0.5798
   92SAPE  H12X 9096   0.852   1.866   5.916  0.5265 -0.2506  2.8750
   92SAPE  H12Y 9097   0.952   1.750   5.998 -2.0043  0.1699  0.2628
   92SAPE  C313 9098   0.971   1.743   5.781 -0.3504  0.5564 -0.6443
   92SAPE  H13X 9099   0.886   1.671   5.778 -1.0110  1.1260  1.9949
   92SAPE  H13Y 9100   1.068   1.690   5.780 -0.7779 -0.3439  1.5864
   92SAPE  C314 9101   0.960   1.835   5.659 -0.3903  0.0529 -0.0413
   92SAPE  H14X 9102   1.046   1.905   5.652  1.2513 -1.9031 -0.3146
   92SAPE  H14Y 9103   0.870   1.900   5.665  0.7736  2.0030 -2.2753
   92SAPE  C315 9104   0.944   1.771   5.516 -0.4575  0.5497 -0.4865
   92SAPE  H15X 9105   0.858   1.701   5.515  1.3251 -1.7550 -1.8059
   92SAPE  H15Y 9106   1.032   1.708   5.493 -0.6873  0.1954 -0.4057
   92SAPE  C316 9107   0.936   1.879   5.407  0.6219 -0.5286 -0.1974
   92SAPE  H16X 9108   0.951   1.819   5.315 -0.0243 -2.4680  0.8861
   92SAPE  H16Y 9109   1.024   1.947   5.410  0.8164 -0.7935  0.3035
   92SAPE  C317 9110   0.810   1.962   5.404  0.5752  0.1640  0.1927
   92SAPE  H17X 9111   0.802   2.030   5.490 -0.8104  0.0883  0.1489
   92SAPE  H17Y 9112   0.720   1.900   5.422 -0.3119  1.3532 -0.0801
   92SAPE  C318 9113   0.791   2.043   5.277 -0.1424 -0.6048  0.5037
   92SAPE  H18X 9114   0.814   1.998   5.178  2.0520  2.0196 -0.3242
   92SAPE  H18Y 9115   0.859   2.131   5.283  0.7048 -1.3206  2.1604
   92SAPE  H18Z 9116   0.691   2.091   5.274  0.8978  1.8104  1.4404
   93SAPE     N 9117   0.419   6.479   7.860  0.0060  0.1860 -0.2753
   93SAPE   HN1 9118   0.411   6.382   7.823  0.2029 -0.0891  0.3824
   93SAPE   HN2 9119   0.387   6.482   7.959  0.3859  1.5535 -0.1709
   93SAPE   HN3 9120   0.359   6.539   7.800 -1.2235 -0.9733 -0.2490
   93SAPE   C12 9121   0.557   6.545   7.855 -0.4130  0.0390 -0.1394
   93SAPE  H12A 9122   0.605   6.510   7.949  0.2157  1.1628 -0.0217
   93SAPE  H12B 9123   0.544   6.655   7.865 -1.1346 -0.2145  2.6654
   93SAPE   C11 9124   0.642   6.505   7.729  0.0884  0.2137 -0.6394
   93SAPE  H11A 9125   0.703   6.592   7.697 -0.6335  0.9955  0.0814
   93SAPE  H11B 9126   0.591   6.467   7.638 -0.5210 -0.4486 -0.0378
   93SAPE     P 9127   0.858   6.409   7.834 -0.0177  0.3249  0.2043
   93SAPE   O13 9128   0.867   6.503   7.948  0.1446 -0.1007 -0.0305
   93SAPE   O14 9129   0.901   6.269   7.867  0.3936  0.1509 -0.5195
   93SAPE   O12 9130   0.714   6.389   7.771 -0.3026 -0.1005  0.0732
   93SAPE   O11 9131   0.945   6.466   7.711 -0.6216 -0.2689  0.0533
   93SAPE    C1 9132   0.930   6.414   7.581 -0.0884  0.8565  0.1708
   93SAPE    HA 9133   0.907   6.306   7.577 -0.3315  0.8918  0.5574
   93SAPE    HB 9134   0.838   6.452   7.530 -0.3380  0.1088  0.0495
   93SAPE    C2 9135   1.071   6.441   7.504  0.6421 -0.2185 -0.2885
   93SAPE    HS 9136   1.095   6.548   7.519 -2.2072  0.4918 -0.1346
   93SAPE   O21 9137   1.047   6.412   7.368 -0.2826 -0.2002 -0.2567
   93SAPE   C21 9138   0.972   6.495   7.299 -0.1985 -0.1564 -0.8192
   93SAPE   O22 9139   0.924   6.598   7.348 -0.1272  0.2928  0.3476
   93SAPE   C22 9140   0.958   6.444   7.160  0.0625 -0.1276 -0.2906
   93SAPE   H2R 9141   0.968   6.333   7.164  1.8971 -0.0139 -0.7836
   93SAPE   H2S 9142   0.853   6.462   7.129  0.2933  1.6340 -0.1271
   93SAPE    C3 9143   1.198   6.356   7.540  0.0344  0.4195  0.4020
   93SAPE    HX 9144   1.201   6.354   7.651  0.1661  0.7621  0.4080
   93SAPE    HY 9145   1.284   6.413   7.499 -0.5050  0.4898 -0.6718
   93SAPE   O31 9146   1.197   6.220   7.497 -0.4498  0.5308  0.5838
   93SAPE   C31 9147   1.250   6.189   7.376  0.0631 -0.1022  0.1215
   93SAPE   O32 9148   1.288   6.275   7.293  0.0732  0.3142  0.7087
   93SAPE   C32 9149   1.256   6.042   7.364 -0.5915 -0.6389  0.8792
   93SAPE   H2X 9150   1.167   5.998   7.416 -1.7777  0.6657  0.0321
   93SAPE   H2Y 9151   1.345   6.004   7.419 -1.0576 -2.6565  0.3302
   93SAPE   C23 9152   1.054   6.514   7.055  0.0213  0.4060 -0.0363
   93SAPE   H3R 9153   1.154   6.539   7.098 -0.3832 -0.2881  1.3895
   93SAPE   H3S 9154   1.007   6.612   7.034 -0.6019 -0.1639 -1.3461
   93SAPE   C24 9155   1.068   6.440   6.923 -0.2408  0.5692 -0.5842
   93SAPE   H4R 9156   0.975   6.420   6.867  0.5303 -1.3938 -1.2439
   93SAPE   H4S 9157   1.100   6.336   6.947 -0.0430  0.9420  0.8539
   93SAPE   C25 9158   1.159   6.518   6.834 -0.0250 -0.5674  0.0714
   93SAPE   H5R 9159   1.112   6.602   6.781  0.8052 -0.3617 -0.3656
   93SAPE   C26 9160   1.284   6.486   6.808 -0.4145  0.3962  0.0580
   93SAPE   H6R 9161   1.340   6.551   6.739 -0.1958  0.3627  0.2032
   93SAPE   C27 9162   1.357   6.359   6.866  0.7209 -0.4287 -0.4678
   93SAPE   H7R 9163   1.321   6.273   6.807 -3.0150  1.0273 -0.6020
   93SAPE   H7S 9164   1.332   6.332   6.971  4.0252 -0.5546  0.4065
   93SAPE   C28 9165   1.512   6.369   6.863  0.1046 -0.5546  0.0092
   93SAPE   H8R 9166   1.545   6.390   6.966 -2.6310  2.7707  0.4011
   93SAPE   C29 9167   1.603   6.385   6.764  0.3042 -0.0636 -0.5322
   93SAPE   H9R 9168   1.709   6.389   6.790 -0.1337  0.5247  1.4044
   93SAPE  C210 9169   1.583   6.373   6.616 -0.3264  0.4877 -0.1177
   93SAPE  H10R 9170   1.474   6.350   6.608 -0.7464  0.0898  4.3057
   93SAPE  H10S 9171   1.630   6.282   6.573  1.0879  2.3545 -2.8407
   93SAPE  C211 9172   1.618   6.495   6.535  0.4149  0.2020  0.0980
   93SAPE  H11R 9173   1.668   6.578   6.588  0.1083 -0.6530  1.8022
   93SAPE  C212 9174   1.611   6.502   6.399 -0.3064 -0.1897  0.2620
   93SAPE  H12R 9175   1.647   6.592   6.347 -3.5594 -0.6746 -3.2184
   93SAPE  C213 9176   1.565   6.388   6.305  0.0994  0.7099 -0.1067
   93SAPE  H13R 9177   1.461   6.411   6.274 -0.5527  2.2050  2.7962
   93SAPE  H13S 9178   1.572   6.289   6.353  2.8666  0.8019 -0.1042
   93SAPE  C214 9179   1.653   6.373   6.185 -0.1684 -0.2224  0.1589
   93SAPE  H14R 9180   1.738   6.305   6.200  0.0048 -0.1725 -0.5664
   93SAPE  C215 9181   1.647   6.456   6.076 -0.6773  0.4080 -0.4641
   93SAPE  H15R 9182   1.711   6.427   5.991  1.6517 -3.1806  2.2413
   93SAPE  C216 9183   1.553   6.559   6.047  1.0636  0.0855 -0.1401
   93SAPE  H16R 9184   1.608   6.655   6.032  1.2697 -0.1403 -0.8526
   93SAPE  H16S 9185   1.484   6.573   6.133 -0.1329 -0.1216 -1.0328
   93SAPE  C217 9186   1.463   6.537   5.917  0.2607  0.1401 -0.8107
   93SAPE  H17R 9187   1.400   6.628   5.902  0.9435  0.5428 -1.2746
   93SAPE  H17S 9188   1.392   6.453   5.936  1.3109 -1.0073 -1.8057
   93SAPE  C218 9189   1.537   6.521   5.788 -0.0626 -0.0600  0.2655
   93SAPE  H18R 9190   1.585   6.420   5.794  0.2066 -0.0535 -1.2054
   93SAPE  H18S 9191   1.622   6.591   5.772 -0.6065  0.0730 -2.4997
   93SAPE  C219 9192   1.447   6.524   5.660 -0.0218  0.5149 -0.0001
   93SAPE  H19R 9193   1.386   6.617   5.658 -0.6734  0.1386  1.3194
   93SAPE  H19S 9194   1.374   6.441   5.653 -0.8398  1.1276  1.0456
   93SAPE  C220 9195   1.534   6.515   5.535  0.2207 -0.2617 -0.4473
   93SAPE  H20R 9196   1.611   6.595   5.541 -1.5145  1.4138  0.6069
   93SAPE  H20S 9197   1.476   6.522   5.440  2.4394  0.5076 -1.8313
   93SAPE  H20T 9198   1.594   6.421   5.531  0.3965 -0.1212 -1.4638
   93SAPE   C33 9199   1.261   5.997   7.210  0.3776 -0.2059  0.5997
   93SAPE   H3X 9200   1.310   5.897   7.203  0.3963 -0.2851  1.7346
   93SAPE   H3Y 9201   1.329   6.073   7.166 -1.1321  1.9426  1.8367
   93SAPE   C34 9202   1.127   5.993   7.150 -0.1714 -0.2551  0.1648
   93SAPE   H4X 9203   1.089   6.097   7.144  1.7473  0.3713 -3.3286
   93SAPE   H4Y 9204   1.061   5.940   7.223  0.4438 -0.7425  0.3756
   93SAPE   C35 9205   1.121   5.926   7.014 -0.7380  1.2982  0.6866
   93SAPE   H5X 9206   1.013   5.921   6.986 -0.2140  0.3998 -1.3281
   93SAPE   H5Y 9207   1.170   5.826   7.018 -1.2256  0.9462 -1.0589
   93SAPE   C36 9208   1.191   6.024   6.907  0.2786  0.7194  0.4530
   93SAPE   H6X 9209   1.295   6.040   6.943  1.4077 -1.0198 -1.7855
   93SAPE   H6Y 9210   1.142   6.123   6.896  0.8675  1.7127  4.7813
   93SAPE   C37 9211   1.200   5.958   6.770  0.7011 -0.1774 -0.4965
   93SAPE   H7X 9212   1.099   5.924   6.739  0.3002  0.8237 -0.3546
   93SAPE   H7Y 9213   1.269   5.871   6.771 -0.2149 -0.9388  1.4270
   93SAPE   C38 9214   1.251   6.066   6.674  0.3056  0.4664 -1.1094
   93SAPE   H8X 9215   1.352   6.110   6.688 -0.7579  2.1656  2.5565
   93SAPE   H8Y 9216   1.183   6.154   6.680 -0.9033 -0.3596 -2.2417
   93SAPE   C39 9217   1.254   6.007   6.535 -0.0174  1.0029 -0.7140
   93SAPE   H9X 9218   1.153   5.974   6.504  0.3649 -0.0511 -0.8755
   93SAPE   H9Y 9219   1.327   5.923   6.529 -1.2555 -0.2236  0.6783
   93SAPE  C310 9220   1.287   6.101   6.421  0.3732 -0.2987 -0.1455
   93SAPE  H10X 9221   1.393   6.136   6.430  1.5240 -3.0022 -1.9311
   93SAPE  H10Y 9222   1.224   6.193   6.427 -1.3796 -1.4295 -0.6886
   93SAPE  C311 9223   1.255   6.038   6.284  0.3611  0.0437 -0.1082
   93SAPE  H11X 9224   1.154   5.992   6.289 -0.2263  1.3148  0.1240
   93SAPE  H11Y 9225   1.325   5.956   6.259 -1.4870 -1.1698 -1.5892
   93SAPE  C312 9226   1.263   6.129   6.165  0.2128 -0.2106 -0.2971
   93SAPE  H12X 9227   1.361   6.180   6.161  1.5749 -2.6320  0.2956
   93SAPE  H12Y 9228   1.185   6.208   6.164  0.0508 -0.3692 -0.9975
   93SAPE  C313 9229   1.267   6.047   6.031 -0.1550  1.0662 -0.7379
   93SAPE  H13X 9230   1.179   5.980   6.035  0.1822  0.6353 -0.5384
   93SAPE  H13Y 9231   1.362   5.990   6.029 -0.6700 -0.0370  1.8013
   93SAPE  C314 9232   1.270   6.134   5.907  0.0789  0.4447  0.6066
   93SAPE  H14X 9233   1.371   6.178   5.888 -0.5385  1.2455 -1.0023
   93SAPE  H14Y 9234   1.201   6.219   5.926 -2.0489 -0.9138 -0.7271
   93SAPE  C315 9235   1.234   6.056   5.773  0.6947  0.0287 -0.6864
   93SAPE  H15X 9236   1.260   6.124   5.689  1.1100  0.8526  0.0933
   93SAPE  H15Y 9237   1.124   6.045   5.767  0.5891  1.4756 -1.8423
   93SAPE  C316 9238   1.304   5.920   5.756 -0.2452  0.0638  0.1418
   93SAPE  H16X 9239   1.251   5.851   5.825 -0.1568  2.6830  3.0658
   93SAPE  H16Y 9240   1.402   5.925   5.810 -0.8357 -1.1192  1.3900
   93SAPE  C317 9241   1.300   5.861   5.612  0.0102 -0.2210 -0.7617
   93SAPE  H17X 9242   1.385   5.790   5.599  1.2648  1.5126 -2.4614
   93SAPE  H17Y 9243   1.311   5.943   5.538 -0.4120  0.5108 -0.0353
   93SAPE  C318 9244   1.166   5.792   5.585 -0.7745 -0.1845  0.1499
   93SAPE  H18X 9245   1.089   5.841   5.648  0.7929  1.0988  1.1448
   93SAPE  H18Y 9246   1.196   5.691   5.620  0.4386  0.0566 -0.1440
   93SAPE  H18Z 9247   1.135   5.789   5.478 -2.5905 -0.9303  0.6488
   94SAPE     N 9248   1.410   0.683   7.542  0.0599 -0.2751 -1.0724
   94SAPE   HN1 9249   1.448   0.720   7.452  1.8839  0.8532  0.0942
   94SAPE   HN2 9250   1.309   0.702   7.553  0.6888  2.0818  1.6981
   94SAPE   HN3 9251   1.457   0.718   7.628 -0.3418  0.5838 -1.1871
   94SAPE   C12 9252   1.425   0.534   7.551 -0.3936 -0.5408  0.9240
   94SAPE  H12A 9253   1.388   0.481   7.460  1.8300  1.4066 -1.2505
   94SAPE  H12B 9254   1.358   0.500   7.633 -0.2541 -1.7650  0.5521
   94SAPE   C11 9255   1.573   0.499   7.560  0.3209  0.2425 -0.4365
   94SAPE  H11A 9256   1.631   0.517   7.467  0.3718  0.5136 -0.3531
   94SAPE  H11B 9257   1.579   0.388   7.565 -2.0824  0.0526 -0.7610
   94SAPE     P 9258   1.757   0.507   7.739  0.2629  0.3784  0.1521
   94SAPE   O13 9259   1.819   0.610   7.823  0.2305  0.0813  0.5552
   94SAPE   O14 9260   1.715   0.377   7.810 -0.8123 -0.0788 -1.1135
   94SAPE   O12 9261   1.627   0.569   7.675 -0.3385  0.4335  0.2960
   94SAPE   O11 9262   1.853   0.478   7.615  0.1715 -0.7224 -0.2118
   94SAPE    C1 9263   1.879   0.345   7.569  0.7325  0.1515  0.6921
   94SAPE    HA 9264   1.964   0.312   7.633 -0.5703  0.9590  2.9490
   94SAPE    HB 9265   1.787   0.281   7.567 -1.2631  2.8794 -0.5690
   94SAPE    C2 9266   1.925   0.347   7.419 -0.0431  0.1288  0.1241
   94SAPE    HS 9267   2.022   0.400   7.405  1.3500 -2.7234 -2.1246
   94SAPE   O21 9268   1.827   0.411   7.333 -0.2843 -0.2835 -0.3185
   94SAPE   C21 9269   1.858   0.490   7.230  0.2415  0.2821  0.0699
   94SAPE   O22 9270   1.977   0.531   7.211  0.5589 -0.1671  0.2164
   94SAPE   C22 9271   1.735   0.509   7.141 -0.8355  0.5145 -0.9981
   94SAPE   H2R 9272   1.651   0.467   7.201 -0.4999  2.2960  0.8010
   94SAPE   H2S 9273   1.711   0.617   7.128 -0.5470  0.5204 -1.5175
   94SAPE    C3 9274   1.954   0.206   7.359  0.1733  0.2490 -0.5726
   94SAPE    HX 9275   1.858   0.152   7.368  0.5869 -0.1742  1.9291
   94SAPE    HY 9276   2.018   0.137   7.417  0.5651 -0.0114 -1.3009
   94SAPE   O31 9277   1.974   0.203   7.219  0.3634  0.1840  0.5758
   94SAPE   C31 9278   2.096   0.199   7.167  0.3399  0.3143  0.4124
   94SAPE   O32 9279   2.199   0.162   7.226  0.4659 -0.5852 -0.3008
   94SAPE   C32 9280   2.098   0.265   7.027 -0.0448 -0.3598  0.3413
   94SAPE   H2X 9281   2.140   0.368   7.027 -2.2890  0.6433  2.0895
   94SAPE   H2Y 9282   1.997   0.271   6.981  0.5347 -0.2082 -0.9730
   94SAPE   C23 9283   1.741   0.464   6.995  0.6767 -0.1109  0.0333
   94SAPE   H3R 9284   1.717   0.357   6.982 -3.8797  0.5941  1.0099
   94SAPE   H3S 9285   1.845   0.485   6.961  0.8033  0.9894  1.0220
   94SAPE   C24 9286   1.646   0.542   6.899 -0.0594 -0.6402  0.0894
   94SAPE   H4R 9287   1.690   0.541   6.797 -0.1160 -1.6078  0.0701
   94SAPE   H4S 9288   1.648   0.651   6.921  0.5885 -0.7862  0.8121
   94SAPE   C25 9289   1.506   0.483   6.914 -0.0886 -0.0217 -0.5795
   94SAPE   H5R 9290   1.462   0.479   7.015 -0.0009  3.0238 -0.3065
   94SAPE   C26 9291   1.419   0.449   6.812 -0.2499 -0.1058 -0.1133
   94SAPE   H6R 9292   1.330   0.391   6.841  1.0464 -1.7935  0.6881
   94SAPE   C27 9293   1.445   0.452   6.657 -0.3781 -0.4190 -0.8855
   94SAPE   H7R 9294   1.366   0.401   6.598 -2.1213  0.8105  0.2759
   94SAPE   H7S 9295   1.540   0.394   6.654 -0.4961 -1.0964  3.0754
   94SAPE   C28 9296   1.461   0.595   6.610 -0.1277  0.7541 -0.0567
   94SAPE   H8R 9297   1.466   0.668   6.692 -0.4994  0.7660 -0.0403
   94SAPE   C29 9298   1.523   0.623   6.491  0.1183  0.3429  1.0901
   94SAPE   H9R 9299   1.534   0.731   6.468 -1.2569  0.6163  1.6199
   94SAPE  C210 9300   1.563   0.519   6.385  0.3942 -0.2227 -0.7761
   94SAPE  H10R 9301   1.469   0.486   6.335 -1.9244  1.5282  2.0566
   94SAPE  H10S 9302   1.593   0.427   6.440  0.6543  0.6343  0.5842
   94SAPE  C211 9303   1.670   0.562   6.288 -0.1148  0.9552  0.2663
   94SAPE  H11R 9304   1.772   0.566   6.331 -0.0770 -1.9888  0.5974
   94SAPE  C212 9305   1.644   0.585   6.161 -1.1359  0.2656 -0.4145
   94SAPE  H12R 9306   1.727   0.615   6.095  1.0829 -2.5598  0.8545
   94SAPE  C213 9307   1.520   0.588   6.077  0.0798 -0.6967 -0.2041
   94SAPE  H13R 9308   1.516   0.687   6.026 -0.6871  0.4518  1.9380
   94SAPE  H13S 9309   1.427   0.580   6.138 -0.0868 -1.5978 -0.5705
   94SAPE  C214 9310   1.526   0.474   5.978 -0.1510  0.1473 -0.3987
   94SAPE  H14R 9311   1.583   0.383   6.005 -1.7211 -1.1219 -1.1670
   94SAPE  C215 9312   1.458   0.472   5.861 -0.5249 -0.4637 -0.0828
   94SAPE  H15R 9313   1.465   0.383   5.797 -0.4761 -0.7576  0.3264
   94SAPE  C216 9314   1.381   0.585   5.805 -0.0520  0.1441 -0.2615
   94SAPE  H16R 9315   1.452   0.644   5.743 -0.2700  0.2182 -0.4445
   94SAPE  H16S 9316   1.338   0.656   5.879 -1.1827 -0.2643 -0.4971
   94SAPE  C217 9317   1.270   0.547   5.705 -0.1462 -0.1768  0.1390
   94SAPE  H17R 9318   1.187   0.480   5.736 -0.5216 -0.2013 -0.8737
   94SAPE  H17S 9319   1.330   0.492   5.629  1.1004 -1.0246  1.6757
   94SAPE  C218 9320   1.205   0.664   5.647  0.6148 -1.1042  0.1258
   94SAPE  H18R 9321   1.278   0.739   5.610 -1.1977 -0.3749 -2.2288
   94SAPE  H18S 9322   1.144   0.711   5.728 -1.9796 -0.9659 -1.7600
   94SAPE  C219 9323   1.106   0.642   5.529 -0.6969 -0.0271  0.1099
   94SAPE  H19R 9324   1.161   0.596   5.444 -0.3721  0.7338 -0.0997
   94SAPE  H19S 9325   1.080   0.745   5.497 -0.5944 -0.6947 -2.3055
   94SAPE  C220 9326   0.981   0.557   5.561 -0.4229 -0.2699  0.1166
   94SAPE  H20R 9327   0.915   0.551   5.472  1.1385 -1.2246 -1.0410
   94SAPE  H20S 9328   0.931   0.599   5.650 -0.2704 -1.2049  0.6509
   94SAPE  H20T 9329   1.020   0.455   5.583  1.7123  0.8148  1.7226
   94SAPE   C33 9330   2.208   0.197   6.936  0.1550  0.3331 -0.2066
   94SAPE   H3X 9331   2.173   0.092   6.924 -0.8734 -0.0128  4.0106
   94SAPE   H3Y 9332   2.306   0.197   6.987 -0.2879  2.0249  0.7178
   94SAPE   C34 9333   2.222   0.264   6.798  0.3196  0.0960  0.2391
   94SAPE   H4X 9334   2.264   0.367   6.800 -1.6794  0.9411  1.7128
   94SAPE   H4Y 9335   2.120   0.279   6.755  1.4164  0.6594 -2.4160
   94SAPE   C35 9336   2.309   0.172   6.705  0.2453 -0.1726 -0.0295
   94SAPE   H5X 9337   2.279   0.066   6.717 -0.8710 -0.0002 -1.1014
   94SAPE   H5Y 9338   2.413   0.192   6.741  1.0439  0.6143 -2.5844
   94SAPE   C36 9339   2.289   0.221   6.557 -0.4152 -0.1390  0.7064
   94SAPE   H6X 9340   2.308   0.331   6.560  1.8342 -0.4572  3.3654
   94SAPE   H6Y 9341   2.180   0.212   6.537 -0.1473 -2.0251 -0.0734
   94SAPE   C37 9342   2.366   0.149   6.455  0.2413  0.1488 -0.0638
   94SAPE   H7X 9343   2.344   0.040   6.459  1.5197 -0.0989  0.4568
   94SAPE   H7Y 9344   2.475   0.163   6.466 -0.1052  2.6485  0.8964
   94SAPE   C38 9345   2.325   0.195   6.311  0.1989  0.5594 -0.1186
   94SAPE   H8X 9346   2.324   0.306   6.300  0.4623  0.5271 -0.4772
   94SAPE   H8Y 9347   2.223   0.159   6.286  0.2118  0.9628 -0.7699
   94SAPE   C39 9348   2.418   0.134   6.212 -0.3352 -0.1838 -0.1820
   94SAPE   H9X 9349   2.434   0.032   6.252 -3.4440 -0.3321  0.9911
   94SAPE   H9Y 9350   2.519   0.178   6.208  0.0959 -0.7771  2.4935
   94SAPE  C310 9351   2.360   0.119   6.074  0.2952  0.1358 -0.2834
   94SAPE  H10X 9352   2.330   0.212   6.021  0.5561  1.2098  1.3739
   94SAPE  H10Y 9353   2.269   0.055   6.082  0.2976  0.1277 -0.3236
   94SAPE  C311 9354   2.455   0.055   5.972 -0.0555  0.3098 -0.5799
   94SAPE  H11X 9355   2.501  -0.034   6.021 -2.0255 -0.6889 -0.4109
   94SAPE  H11Y 9356   2.541   0.122   5.956 -0.9327  1.7468  0.5192
   94SAPE  C312 9357   2.379   0.013   5.846 -0.3018  0.1168 -0.4516
   94SAPE  H12X 9358   2.353   0.115   5.810 -0.9313  0.6358  1.3274
   94SAPE  H12Y 9359   2.289  -0.049   5.869  0.2347 -0.1508  1.0653
   94SAPE  C313 9360   2.466  -0.064   5.750 -0.1497  0.2609 -0.8910
   94SAPE  H13X 9361   2.465  -0.171   5.781 -2.8831  0.0952 -1.3335
   94SAPE  H13Y 9362   2.570  -0.027   5.761  0.3538 -1.0203 -1.0810
   94SAPE  C314 9363   2.421  -0.058   5.605  0.5520  0.0127  0.0681
   94SAPE  H14X 9364   2.498  -0.108   5.543  1.1514  1.3174 -0.2718
   94SAPE  H14Y 9365   2.435   0.048   5.577 -1.0020 -0.1430 -1.4920
   94SAPE  C315 9366   2.279  -0.112   5.568 -0.0511 -0.1602 -0.6713
   94SAPE  H15X 9367   2.203  -0.049   5.619 -0.9395  0.4392 -2.6633
   94SAPE  H15Y 9368   2.270  -0.221   5.587 -0.4091  0.2390  1.7970
   94SAPE  C316 9369   2.241  -0.096   5.423 -0.2309 -0.1849  0.3049
   94SAPE  H16X 9370   2.134  -0.123   5.411 -0.3141 -0.3265  1.2645
   94SAPE  H16Y 9371   2.290  -0.172   5.359 -0.0853 -1.6904  2.1127
   94SAPE  C317 9372   2.265   0.053   5.373  0.5554 -0.4865 -0.4447
   94SAPE  H17X 9373   2.372   0.069   5.347 -0.3252  1.4277 -3.3111
   94SAPE  H17Y 9374   2.247   0.129   5.452  0.3347  0.1130 -1.0671
   94SAPE  C318 9375   2.181   0.097   5.255 -0.0349  0.1831  0.0333
   94SAPE  H18X 9376   2.239   0.148   5.176 -0.7958 -1.0071 -1.3469
   94SAPE  H18Y 9377   2.095   0.158   5.291  0.9920  2.2835 -0.8921
   94SAPE  H18Z 9378   2.142   0.007   5.203  3.4638 -1.2381 -0.4342
   95SAPE     N 9379   2.984   0.768   7.562 -0.0398  0.5157 -0.4070
   95SAPE   HN1 9380   2.924   0.730   7.486 -0.2167 -0.9319  0.4215
   95SAPE   HN2 9381   3.068   0.820   7.530  1.1894 -0.1738  1.5147
   95SAPE   HN3 9382   3.028   0.685   7.606  0.3191  1.2195  0.5944
   95SAPE   C12 9383   2.902   0.855   7.655 -0.0573  0.2465  1.3010
   95SAPE  H12A 9384   2.982   0.893   7.723  1.0567  0.1375  0.0869
   95SAPE  H12B 9385   2.840   0.779   7.708 -0.3591 -0.2599  0.2432
   95SAPE   C11 9386   2.815   0.952   7.581  0.0575 -0.2759  0.0605
   95SAPE  H11A 9387   2.869   1.032   7.526 -2.1211 -0.9618 -3.3123
   95SAPE  H11B 9388   2.765   0.999   7.669  0.8513 -4.5104  3.1017
   95SAPE     P 9389   2.727   0.892   7.347  0.3444  0.1621  0.1455
   95SAPE   O13 9390   2.595   0.866   7.284  0.1147 -0.4682 -0.2120
   95SAPE   O14 9391   2.790   1.017   7.307 -0.2418  0.1201  0.6248
   95SAPE   O12 9392   2.716   0.887   7.507 -0.2448  0.8172 -0.2622
   95SAPE   O11 9393   2.827   0.772   7.324  0.1948  0.8158 -0.1357
   95SAPE    C1 9394   2.765   0.643   7.290 -0.3747 -0.1577  0.1187
   95SAPE    HA 9395   2.836   0.565   7.326 -1.0400 -1.4556 -1.2512
   95SAPE    HB 9396   2.679   0.619   7.357 -1.1040 -0.0615 -0.7548
   95SAPE    C2 9397   2.737   0.609   7.136 -1.0576 -0.6264 -0.4304
   95SAPE    HS 9398   2.780   0.507   7.124  0.0995 -0.2987  0.6869
   95SAPE   O21 9399   2.789   0.707   7.043 -0.1106  0.9432  0.0697
   95SAPE   C21 9400   2.915   0.724   7.038 -0.9465 -0.6808 -0.0343
   95SAPE   O22 9401   2.999   0.651   7.089 -0.9087 -0.0800  0.2435
   95SAPE   C22 9402   2.945   0.849   6.955 -0.1195 -0.4856 -0.5066
   95SAPE   H2R 9403   2.872   0.928   6.985 -0.2022 -0.3891 -0.9531
   95SAPE   H2S 9404   3.051   0.878   6.971  0.0011  1.8126 -4.2117
   95SAPE    C3 9405   2.591   0.588   7.104 -0.2051 -0.2661  0.4555
   95SAPE    HX 9406   2.528   0.680   7.103  1.1490  0.7050  1.2846
   95SAPE    HY 9407   2.542   0.527   7.183  1.6015 -2.0751  0.2603
   95SAPE   O31 9408   2.574   0.515   6.983  0.5907 -0.0450 -0.2336
   95SAPE   C31 9409   2.571   0.586   6.873  0.4049  0.3535  0.1664
   95SAPE   O32 9410   2.551   0.711   6.867 -0.6270  0.4665  0.1220
   95SAPE   C32 9411   2.577   0.497   6.745 -0.6533 -0.6559  0.1401
   95SAPE   H2X 9412   2.483   0.439   6.733  0.2371 -1.7671 -1.9740
   95SAPE   H2Y 9413   2.660   0.424   6.756  1.1059  1.2165 -0.0738
   95SAPE   C23 9414   2.918   0.831   6.805  0.6398 -0.4625 -0.4779
   95SAPE   H3R 9415   2.930   0.922   6.742  0.4886 -0.6415 -0.7716
   95SAPE   H3S 9416   2.810   0.804   6.796  0.8065 -0.7190 -1.9551
   95SAPE   C24 9417   2.995   0.713   6.747 -0.3678 -0.1897  0.1454
   95SAPE   H4R 9418   2.943   0.685   6.653 -3.0563  2.7680  0.5759
   95SAPE   H4S 9419   2.991   0.628   6.818  1.3094 -1.3221 -1.0199
   95SAPE   C25 9420   3.145   0.747   6.724  0.0814 -0.8795  0.0789
   95SAPE   H5R 9421   3.203   0.766   6.815  1.3308  4.3433 -1.4697
   95SAPE   C26 9422   3.216   0.750   6.610 -0.0064  0.3270  0.5975
   95SAPE   H6R 9423   3.322   0.780   6.610  0.0139  0.2632 -0.3278
   95SAPE   C27 9424   3.154   0.719   6.473 -0.7356 -0.0336  0.1782
   95SAPE   H7R 9425   3.049   0.682   6.480 -0.2451 -2.0220 -1.7734
   95SAPE   H7S 9426   3.218   0.648   6.416 -1.1596 -0.4933  0.2577
   95SAPE   C28 9427   3.141   0.846   6.393  0.1454  0.1002  0.1724
   95SAPE   H8R 9428   3.196   0.936   6.423  2.7130 -0.5752 -2.0916
   95SAPE   C29 9429   3.075   0.851   6.274 -0.4297  0.1292  0.2688
   95SAPE   H9R 9430   3.070   0.945   6.217  0.9300  0.1544  0.1738
   95SAPE  C210 9431   3.009   0.734   6.196 -0.1740  0.0223 -1.1381
   95SAPE  H10R 9432   2.908   0.718   6.239 -1.2082  3.1967 -2.1499
   95SAPE  H10S 9433   3.071   0.642   6.208  0.0152  0.5471  4.3697
   95SAPE  C211 9434   2.995   0.776   6.057 -0.2594  0.6120  0.0882
   95SAPE  H11R 9435   2.899   0.826   6.038 -0.7184  0.0596  0.8956
   95SAPE  C212 9436   3.077   0.757   5.953 -0.4384  0.5985 -0.5167
   95SAPE  H12R 9437   3.038   0.782   5.854 -1.0109 -0.6870 -0.6266
   95SAPE  C213 9438   3.210   0.689   5.971  0.0631  0.4989  0.2380
   95SAPE  H13R 9439   3.216   0.606   5.897  1.1563 -0.4429  1.3308
   95SAPE  H13S 9440   3.221   0.647   6.073 -0.4829 -0.0230  0.0899
   95SAPE  C214 9441   3.320   0.793   5.957  0.4427  0.0847 -0.7021
   95SAPE  H14R 9442   3.302   0.887   6.011  1.0066 -0.6747  0.8759
   95SAPE  C215 9443   3.417   0.791   5.866  0.5558  0.5034 -0.0543
   95SAPE  H15R 9444   3.496   0.868   5.866 -1.1694  2.3858  1.4476
   95SAPE  C216 9445   3.454   0.677   5.768 -0.2644 -0.0061 -0.9675
   95SAPE  H16R 9446   3.436   0.581   5.822 -2.3644 -0.3147 -2.1401
   95SAPE  H16S 9447   3.561   0.676   5.739 -0.8077 -1.1470 -3.1398
   95SAPE  C217 9448   3.367   0.666   5.639  0.3380  0.0299  0.3601
   95SAPE  H17R 9449   3.377   0.745   5.561 -0.0000 -0.5750 -0.3114
   95SAPE  H17S 9450   3.259   0.668   5.664 -0.4361 -2.9411 -2.1359
   95SAPE  C218 9451   3.395   0.534   5.560 -0.0498 -0.3951 -0.8742
   95SAPE  H18R 9452   3.300   0.520   5.506 -0.1320  0.8834 -1.0848
   95SAPE  H18S 9453   3.414   0.465   5.646 -1.6895  0.2196  0.0156
   95SAPE  C219 9454   3.504   0.524   5.454 -0.0574  0.4459 -0.0043
   95SAPE  H19R 9455   3.606   0.553   5.486  0.6371  1.1962 -2.7043
   95SAPE  H19S 9456   3.475   0.587   5.368  1.0330 -0.7387 -1.2784
   95SAPE  C220 9457   3.523   0.376   5.401  0.6713  0.2410  0.4896
   95SAPE  H20R 9458   3.568   0.381   5.300  0.4975 -3.2224  0.1318
   95SAPE  H20S 9459   3.422   0.336   5.376  0.1451  1.5547  0.4382
   95SAPE  H20T 9460   3.592   0.319   5.467  1.1239 -0.5915 -0.6639
   95SAPE   C33 9461   2.597   0.578   6.617  0.0096 -0.3520  0.5968
   95SAPE   H3X 9462   2.706   0.596   6.614 -0.1749  0.7476  0.0360
   95SAPE   H3Y 9463   2.540   0.674   6.620 -1.6209 -1.0276 -2.9855
   95SAPE   C34 9464   2.561   0.495   6.487  0.1048 -0.0813 -0.4453
   95SAPE   H4X 9465   2.455   0.477   6.462 -0.3027 -1.7362  2.1729
   95SAPE   H4Y 9466   2.597   0.391   6.498  0.4565 -0.1312 -1.8172
   95SAPE   C35 9467   2.646   0.549   6.370  0.5902  0.5905 -0.6217
   95SAPE   H5X 9468   2.752   0.527   6.396  0.9752  0.9729 -1.8314
   95SAPE   H5Y 9469   2.632   0.659   6.371 -0.8667  0.5057 -3.3649
   95SAPE   C36 9470   2.588   0.497   6.238 -0.4818  0.1617  0.2179
   95SAPE   H6X 9471   2.499   0.557   6.211  0.6125  1.4164 -0.7021
   95SAPE   H6Y 9472   2.557   0.392   6.260 -1.2572  0.0849 -1.1799
   95SAPE   C37 9473   2.701   0.511   6.127 -0.0505 -0.2072 -0.3017
   95SAPE   H7X 9474   2.798   0.484   6.172  0.3164 -0.8374 -1.4193
   95SAPE   H7Y 9475   2.702   0.619   6.102 -1.3210  0.2408  1.4054
   95SAPE   C38 9476   2.679   0.429   6.001 -0.6461 -0.8982 -0.0755
   95SAPE   H8X 9477   2.668   0.324   6.034 -0.1680 -0.4563  1.5608
   95SAPE   H8Y 9478   2.772   0.447   5.942 -0.6726 -0.8724 -0.1090
   95SAPE   C39 9479   2.555   0.485   5.937 -0.7261  0.3538  0.9009
   95SAPE   H9X 9480   2.568   0.595   5.929  1.7728  0.0159 -0.7546
   95SAPE   H9Y 9481   2.466   0.468   6.002 -1.0834  0.8636  0.5514
   95SAPE  C310 9482   2.516   0.430   5.796 -0.7968  0.0323 -0.8856
   95SAPE  H10X 9483   2.480   0.325   5.806  0.8457 -0.6293 -1.4757
   95SAPE  H10Y 9484   2.609   0.420   5.735  0.6234  0.7189  1.0623
   95SAPE  C311 9485   2.415   0.516   5.719 -0.3729  0.6152 -0.3990
   95SAPE  H11X 9486   2.462   0.615   5.703 -0.1156  0.5958  0.2136
   95SAPE  H11Y 9487   2.322   0.525   5.779  0.3704 -1.1885  1.1431
   95SAPE  C312 9488   2.377   0.463   5.582 -0.5004  0.0303 -0.5060
   95SAPE  H12X 9489   2.297   0.527   5.540 -0.0146  0.6186 -0.5642
   95SAPE  H12Y 9490   2.336   0.361   5.599 -1.7618  0.7417  0.9682
   95SAPE  C313 9491   2.500   0.466   5.490  0.2359 -0.2914  0.7081
   95SAPE  H13X 9492   2.551   0.368   5.503  1.8150  0.2431 -1.0378
   95SAPE  H13Y 9493   2.580   0.535   5.525  1.9912 -1.2455 -1.2137
   95SAPE  C314 9494   2.471   0.499   5.340 -0.4396  0.5982  0.0127
   95SAPE  H14X 9495   2.565   0.507   5.281  0.0901 -1.1064  0.5794
   95SAPE  H14Y 9496   2.416   0.596   5.338  0.1267  1.0066  2.1559
   95SAPE  C315 9497   2.394   0.389   5.272  0.0232 -0.4224  0.3270
   95SAPE  H15X 9498   2.319   0.356   5.346  1.4887  1.1927  2.6830
   95SAPE  H15Y 9499   2.453   0.298   5.248  1.6297  0.7965 -0.5446
   95SAPE  C316 9500   2.317   0.438   5.146 -0.5580 -0.0644 -0.0241
   95SAPE  H16X 9501   2.219   0.475   5.183  0.1560 -0.8211  2.8878
   95SAPE  H16Y 9502   2.296   0.357   5.074 -2.0720  1.3789 -1.2710
   95SAPE  C317 9503   2.381   0.556   5.078  0.1543  0.7000 -0.3222
   95SAPE  H17X 9504   2.488   0.527   5.069  0.0978  0.3254  0.1576
   95SAPE  H17Y 9505   2.373   0.644   5.145  2.2553  0.8376 -0.1938
   95SAPE  C318 9506   2.319   0.587   4.951 -0.0626 -0.2510  0.5469
   95SAPE  H18X 9507   2.315   0.499   4.884 -0.6785  0.0198  0.2134
   95SAPE  H18Y 9508   2.361   0.674   4.897  0.3410 -0.7447  0.0654
   95SAPE  H18Z 9509   2.210   0.606   4.962  0.0380  1.9907 -1.4944
   96SAPE     N 9510   5.116   1.682   7.525  0.8197 -0.1436 -0.5516
   96SAPE   HN1 9511   5.054   1.726   7.596  0.7906  0.6948 -1.0914
   96SAPE   HN2 9512   5.105   1.579   7.533 -0.3672 -0.1936 -2.2824
   96SAPE   HN3 9513   5.215   1.697   7.553  1.3656 -0.4032 -2.2447
   96SAPE   C12 9514   5.090   1.731   7.390 -0.5325  0.4055  0.6486
   96SAPE  H12A 9515   5.149   1.665   7.324  0.3304 -1.0388  2.7373
   96SAPE  H12B 9516   5.128   1.835   7.396  0.7329 -0.1210  2.9526
   96SAPE   C11 9517   4.940   1.728   7.343  0.1233 -0.5966 -0.2320
   96SAPE  H11A 9518   4.897   1.634   7.384 -0.3909 -0.8655 -1.3511
   96SAPE  H11B 9519   4.944   1.726   7.232  2.6970 -0.7527 -0.2056
   96SAPE     P 9520   4.779   1.841   7.501 -0.0019  0.6374 -0.0455
   96SAPE   O13 9521   4.854   1.786   7.613 -0.5764  0.6608 -1.2581
   96SAPE   O14 9522   4.722   1.976   7.525  0.2589 -0.4043  0.0049
   96SAPE   O12 9523   4.868   1.845   7.378  0.1892 -0.5078 -0.5658
   96SAPE   O11 9524   4.670   1.732   7.466  0.0040 -0.0437 -0.0288
   96SAPE    C1 9525   4.548   1.760   7.397 -0.5192  0.7401 -0.4852
   96SAPE    HA 9526   4.464   1.702   7.441  1.8302 -0.6571  2.5206
   96SAPE    HB 9527   4.520   1.866   7.412  0.5274  1.1325 -1.1720
   96SAPE    C2 9528   4.550   1.747   7.244  0.2696  0.4767 -0.0475
   96SAPE    HS 9529   4.457   1.698   7.209  0.1303  0.2482  0.6241
   96SAPE   O21 9530   4.668   1.676   7.199 -0.0342 -0.0844 -0.0648
   96SAPE   C21 9531   4.643   1.550   7.189  0.4417 -0.0528  0.0204
   96SAPE   O22 9532   4.539   1.495   7.216 -0.8306 -0.3213  0.0449
   96SAPE   C22 9533   4.758   1.486   7.113 -1.2034 -0.2661 -0.5061
   96SAPE   H2R 9534   4.794   1.567   7.046 -2.6035  2.9891  2.3872
   96SAPE   H2S 9535   4.836   1.468   7.190 -1.5945 -0.6087 -0.1863
   96SAPE    C3 9536   4.551   1.884   7.172 -0.0090 -0.4040  0.0773
   96SAPE    HX 9537   4.652   1.920   7.202 -0.2688 -1.3444  2.2946
   96SAPE    HY 9538   4.470   1.951   7.207 -0.1937 -0.3798 -0.4010
   96SAPE   O31 9539   4.534   1.865   7.032 -0.1359 -0.0413 -0.1961
   96SAPE   C31 9540   4.582   1.971   6.953 -0.0105  0.5848 -0.9664
   96SAPE   O32 9541   4.623   2.075   6.995  0.3177  0.2130  0.0953
   96SAPE   C32 9542   4.565   1.933   6.801  0.1216  0.2518 -0.6323
   96SAPE   H2X 9543   4.651   1.983   6.751 -0.0280  0.5134 -0.6337
   96SAPE   H2Y 9544   4.474   1.978   6.756  1.0739  1.9126 -0.9760
   96SAPE   C23 9545   4.715   1.362   7.030  0.0089 -0.2843  0.4859
   96SAPE   H3R 9546   4.617   1.378   6.981  0.1501 -4.0353 -1.4084
   96SAPE   H3S 9547   4.704   1.277   7.102 -2.9040 -0.8355 -0.4692
   96SAPE   C24 9548   4.813   1.327   6.919  0.2603 -0.7074 -0.1400
   96SAPE   H4R 9549   4.799   1.414   6.852 -0.5935 -1.1545 -0.5501
   96SAPE   H4S 9550   4.767   1.248   6.855 -0.6291  0.6632 -1.2381
   96SAPE   C25 9551   4.960   1.295   6.944  0.0911 -0.0137  0.6596
   96SAPE   H5R 9552   5.003   1.328   7.040 -0.4334  1.6731  0.3585
   96SAPE   C26 9553   5.033   1.229   6.850 -1.0708  0.2380 -0.1625
   96SAPE   H6R 9554   5.138   1.203   6.870 -1.0868  0.3106  0.0125
   96SAPE   C27 9555   4.976   1.196   6.718  0.6502 -0.4381  0.2165
   96SAPE   H7R 9556   4.873   1.154   6.723  0.7321 -0.7893 -0.7876
   96SAPE   H7S 9557   5.030   1.108   6.677  2.2289  0.0187  1.2570
   96SAPE   C28 9558   4.980   1.293   6.599 -1.0575  0.4979  0.0427
   96SAPE   H8R 9559   4.974   1.399   6.625 -1.1795  0.2565  1.0239
   96SAPE   C29 9560   5.010   1.258   6.472  0.1290 -0.1481 -0.5909
   96SAPE   H9R 9561   4.999   1.339   6.399 -3.5902 -0.2709 -0.3250
   96SAPE  C210 9562   5.062   1.130   6.415  0.3473 -0.5753  0.1023
   96SAPE  H10R 9563   5.118   1.078   6.495 -1.8421 -2.0531  0.7638
   96SAPE  H10S 9564   5.136   1.163   6.339  0.7449 -0.4159  0.5578
   96SAPE  C211 9565   4.950   1.052   6.351 -0.1516  0.3120  0.1672
   96SAPE  H11R 9566   4.868   1.017   6.416  0.8693 -1.7325  0.4459
   96SAPE  C212 9567   4.941   1.024   6.219 -0.1511 -0.7575 -0.2240
   96SAPE  H12R 9568   4.870   0.944   6.194 -0.8860  0.5781 -2.8270
   96SAPE  C213 9569   5.036   1.061   6.103  0.6567 -0.3443 -0.3363
   96SAPE  H13R 9570   5.039   1.172   6.108 -0.7367 -0.3006  0.0870
   96SAPE  H13S 9571   4.981   1.045   6.008  0.3833 -0.9458 -0.0885
   96SAPE  C214 9572   5.170   0.977   6.114  0.4530 -0.8431 -1.1920
   96SAPE  H14R 9573   5.202   0.945   6.214  0.8492 -0.5997 -1.2396
   96SAPE  C215 9574   5.245   0.934   6.007 -0.3129 -1.2847  0.2353
   96SAPE  H15R 9575   5.337   0.881   6.035 -0.7769 -2.4378 -0.3924
   96SAPE  C216 9576   5.215   0.937   5.862  0.5634  0.4351  0.4807
   96SAPE  H16R 9577   5.111   0.969   5.836  1.1771  0.3451 -2.4646
   96SAPE  H16S 9578   5.221   0.834   5.820 -1.4592 -0.0233  1.1688
   96SAPE  C217 9579   5.319   1.016   5.776  0.0750  0.4349  0.5823
   96SAPE  H17R 9580   5.418   0.974   5.805  0.3257  1.8191  1.8165
   96SAPE  H17S 9581   5.316   1.121   5.811  3.4351  0.9826 -0.4361
   96SAPE  C218 9582   5.306   1.006   5.625  0.5940  0.2908  0.8949
   96SAPE  H18R 9583   5.293   0.901   5.592 -1.0931  0.7552 -0.0333
   96SAPE  H18S 9584   5.402   1.047   5.587  0.3819  0.4406  0.5258
   96SAPE  C219 9585   5.196   1.093   5.576  0.2295  0.6107 -0.9798
   96SAPE  H19R 9586   5.216   1.189   5.628 -2.3246  0.1135  1.1235
   96SAPE  H19S 9587   5.099   1.059   5.617  0.1080  0.8638 -1.0550
   96SAPE  C220 9588   5.178   1.104   5.426  0.0236  0.2041  0.4918
   96SAPE  H20R 9589   5.129   1.019   5.375  0.0168  0.3760  0.2122
   96SAPE  H20S 9590   5.271   1.120   5.367 -1.0750  2.0139 -0.8462
   96SAPE  H20T 9591   5.117   1.197   5.419  2.2336  2.3061  4.7540
   96SAPE   C33 9592   4.582   1.779   6.758 -0.6057 -0.2413 -0.0420
   96SAPE   H3X 9593   4.505   1.718   6.812 -1.4413 -1.5436 -2.5240
   96SAPE   H3Y 9594   4.686   1.751   6.785 -0.8566 -2.0429 -0.7752
   96SAPE   C34 9595   4.592   1.768   6.605  0.4290  0.6656  0.2072
   96SAPE   H4X 9596   4.672   1.834   6.564 -1.7956  1.9511 -2.4005
   96SAPE   H4Y 9597   4.496   1.797   6.558 -0.7144  1.3190  2.8091
   96SAPE   C35 9598   4.615   1.618   6.558 -0.3943 -0.2631  0.3284
   96SAPE   H5X 9599   4.533   1.564   6.609 -1.5396  1.1956  0.0851
   96SAPE   H5Y 9600   4.714   1.586   6.597  1.2268 -0.9900 -3.8307
   96SAPE   C36 9601   4.609   1.595   6.410  0.2387  0.1092 -0.6048
   96SAPE   H6X 9602   4.675   1.672   6.365  1.1418 -1.1710 -1.5340
   96SAPE   H6Y 9603   4.506   1.616   6.375 -0.7312  1.7548  2.7643
   96SAPE   C37 9604   4.673   1.461   6.374  0.2516 -0.3826  0.3798
   96SAPE   H7X 9605   4.621   1.375   6.420  0.8719 -0.8599  0.1964
   96SAPE   H7Y 9606   4.777   1.465   6.413  1.3504 -1.3625 -2.2093
   96SAPE   C38 9607   4.662   1.441   6.220  0.5830 -0.3299  0.2169
   96SAPE   H8X 9608   4.713   1.524   6.167  0.0737 -1.3393 -1.9658
   96SAPE   H8Y 9609   4.557   1.455   6.186  1.7144  0.6946 -3.2825
   96SAPE   C39 9610   4.718   1.308   6.176 -0.8329 -0.0281 -0.1796
   96SAPE   H9X 9611   4.662   1.229   6.231 -0.7321 -0.7625 -1.1046
   96SAPE   H9Y 9612   4.823   1.318   6.211 -1.6115  0.7241  2.1743
   96SAPE  C310 9613   4.710   1.271   6.029 -0.3249 -0.4770 -1.0667
   96SAPE  H10X 9614   4.602   1.263   6.006 -1.5256  1.6120  2.8340
   96SAPE  H10Y 9615   4.757   1.170   6.035 -0.0048 -0.2620  0.7612
   96SAPE  C311 9616   4.794   1.344   5.936  0.4673 -0.5076  0.1760
   96SAPE  H11X 9617   4.892   1.370   5.980 -0.8197  2.9266  1.3157
   96SAPE  H11Y 9618   4.754   1.447   5.925 -1.0137 -1.1251 -0.5901
   96SAPE  C312 9619   4.823   1.276   5.801 -0.4863 -0.5985 -0.2938
   96SAPE  H12X 9620   4.721   1.249   5.764 -2.0483  3.1907  0.7477
   96SAPE  H12Y 9621   4.885   1.186   5.821  2.8169  1.8469  1.3209
   96SAPE  C313 9622   4.876   1.374   5.700 -0.4781  0.2655 -0.4099
   96SAPE  H13X 9623   4.979   1.406   5.725 -1.0952  1.9490  0.1213
   96SAPE  H13Y 9624   4.820   1.471   5.702  2.7630  2.2673  0.1212
   96SAPE  C314 9625   4.868   1.328   5.549  0.2625  0.5250 -0.3691
   96SAPE  H14X 9626   4.763   1.299   5.524  0.2904 -0.6989  0.7787
   96SAPE  H14Y 9627   4.925   1.233   5.548 -0.8493 -0.1634 -0.9604
   96SAPE  C315 9628   4.917   1.432   5.447  0.3505  0.3305  0.2536
   96SAPE  H15X 9629   5.023   1.463   5.459  0.6317 -0.1046 -0.9658
   96SAPE  H15Y 9630   4.866   1.529   5.464 -1.5800 -0.1546 -2.1842
   96SAPE  C316 9631   4.878   1.393   5.294  0.3658  0.1705 -0.6266
   96SAPE  H16X 9632   4.771   1.362   5.293  0.2802  0.4650 -0.6904
   96SAPE  H16Y 9633   4.951   1.311   5.282  2.1746  1.7078 -0.6149
   96SAPE  C317 9634   4.913   1.506   5.195 -0.0603 -0.2047  0.1671
   96SAPE  H17X 9635   4.876   1.602   5.237  1.0927 -0.4254  1.7777
   96SAPE  H17Y 9636   4.852   1.502   5.102 -0.7330  1.7963  0.4767
   96SAPE  C318 9637   5.060   1.538   5.155 -0.0168  0.5763  0.7282
   96SAPE  H18X 9638   5.065   1.586   5.055 -1.8541  2.4956  1.4947
   96SAPE  H18Y 9639   5.133   1.454   5.161 -2.1156 -1.4110 -0.0385
   96SAPE  H18Z 9640   5.097   1.614   5.227 -0.6003  3.2462 -1.6087
   97SAPE     N 9641   0.067   3.560   7.767  0.0136  0.0780 -0.0460
   97SAPE   HN1 9642   0.014   3.484   7.814 -1.8347  2.3324  1.7466
   97SAPE   HN2 9643   0.060   3.639   7.834  0.3379 -0.7623  1.0006
   97SAPE   HN3 9644   0.019   3.579   7.676  0.4382 -2.6243 -0.9351
   97SAPE   C12 9645   0.209   3.515   7.728  0.1191 -0.2209  0.1479
   97SAPE  H12A 9646   0.191   3.429   7.660  1.3348  0.3451 -0.9377
   97SAPE  H12B 9647   0.263   3.500   7.823 -1.5257  1.9916  1.5302
   97SAPE   C11 9648   0.262   3.638   7.659 -0.3981 -0.7046 -0.2704
   97SAPE  H11A 9649   0.192   3.677   7.582  0.7282  0.4130 -0.7659
   97SAPE  H11B 9650   0.358   3.603   7.617 -0.7017 -1.0762 -0.6684
   97SAPE     P 9651   0.353   3.885   7.706  0.4087 -0.3722  0.3095
   97SAPE   O13 9652   0.250   3.984   7.669  0.9875 -0.6781  0.0519
   97SAPE   O14 9653   0.450   3.938   7.807 -0.3286  0.0309  0.6599
   97SAPE   O12 9654   0.287   3.750   7.744  0.4104 -0.4861 -0.6446
   97SAPE   O11 9655   0.425   3.850   7.567 -0.1582  0.3811 -0.4022
   97SAPE    C1 9656   0.468   3.946   7.467  0.6465 -0.1062  0.3855
   97SAPE    HA 9657   0.432   4.050   7.487  2.9178  0.9151 -0.4357
   97SAPE    HB 9658   0.578   3.957   7.476  0.4443  1.4179  1.5159
   97SAPE    C2 9659   0.439   3.889   7.326 -0.4636  0.2706 -0.1293
   97SAPE    HS 9660   0.461   3.968   7.252 -3.7187  0.9778 -0.4689
   97SAPE   O21 9661   0.305   3.862   7.303 -0.0775 -0.0238  0.7101
   97SAPE   C21 9662   0.212   3.951   7.299  0.3019  0.0489  0.3137
   97SAPE   O22 9663   0.214   4.071   7.333  0.2319 -0.1438  0.1527
   97SAPE   C22 9664   0.085   3.888   7.252 -0.0048 -0.1877  0.2593
   97SAPE   H2R 9665   0.054   3.809   7.324 -1.3477  0.1475  0.0789
   97SAPE   H2S 9666   0.010   3.969   7.251  0.9728  0.7334  0.5699
   97SAPE    C3 9667   0.522   3.763   7.298  0.0501  0.1844  0.1119
   97SAPE    HX 9668   0.470   3.674   7.338 -1.2102 -0.8113 -3.3793
   97SAPE    HY 9669   0.619   3.778   7.350 -0.1813  1.2845  0.2413
   97SAPE   O31 9670   0.534   3.750   7.150  0.2518  0.5704 -0.4260
   97SAPE   C31 9671   0.559   3.625   7.109  0.2244 -0.0422 -0.6085
   97SAPE   O32 9672   0.585   3.531   7.182  0.4303 -0.1163  0.8190
   97SAPE   C32 9673   0.557   3.620   6.953  0.6282 -0.2893 -0.0072
   97SAPE   H2X 9674   0.497   3.530   6.930  1.9206 -1.0600 -0.5014
   97SAPE   H2Y 9675   0.663   3.606   6.921  0.6904 -0.3200  0.2093
   97SAPE   C23 9676   0.106   3.827   7.108 -0.3821 -1.2436 -0.1257
   97SAPE   H3R 9677   0.005   3.783   7.093 -1.1837  0.2465  0.6347
   97SAPE   H3S 9678   0.171   3.737   7.119  2.1435  0.7017  2.1021
   97SAPE   C24 9679   0.130   3.924   6.991 -0.1926 -0.0444  0.2183
   97SAPE   H4R 9680   0.236   3.952   6.977 -0.1493 -1.4190 -3.0769
   97SAPE   H4S 9681   0.073   4.019   7.007 -0.2892  0.1349 -1.0578
   97SAPE   C25 9682   0.086   3.862   6.858 -1.2771 -0.2365  0.8101
   97SAPE   H5R 9683   0.117   3.757   6.860 -2.2995 -0.5332  1.6856
   97SAPE   C26 9684   0.012   3.905   6.753  0.5823 -0.7015  0.0233
   97SAPE   H6R 9685  -0.006   3.840   6.666 -0.2283 -1.0136  0.4121
   97SAPE   C27 9686  -0.042   4.044   6.736  0.6704 -0.3357  0.4544
   97SAPE   H7R 9687  -0.001   4.096   6.646  1.5424  0.8125  1.4832
   97SAPE   H7S 9688  -0.011   4.119   6.812  0.8460  0.8212 -0.7220
   97SAPE   C28 9689  -0.193   4.043   6.724  0.3274 -0.4073 -0.2258
   97SAPE   H8R 9690  -0.244   3.998   6.810  1.9689  0.8681  1.5150
   97SAPE   C29 9691  -0.270   4.077   6.616 -0.0037 -0.0492 -0.1304
   97SAPE   H9R 9692  -0.378   4.076   6.632 -0.0123 -0.8953 -0.2248
   97SAPE  C210 9693  -0.224   4.132   6.487  0.7733 -0.5869  0.1275
   97SAPE  H10R 9694  -0.292   4.089   6.410  0.1167  1.0755 -0.2502
   97SAPE  H10S 9695  -0.123   4.094   6.459  0.7910  0.9617 -2.2006
   97SAPE  C211 9696  -0.209   4.282   6.477 -0.6409 -0.5146  0.5927
   97SAPE  H11R 9697  -0.173   4.327   6.571  0.2963  0.2171 -0.0926
   97SAPE  C212 9698  -0.240   4.366   6.384  0.6451  0.2918  0.7901
   97SAPE  H12R 9699  -0.218   4.472   6.399  1.9605  0.1848 -0.1441
   97SAPE  C213 9700  -0.290   4.341   6.243 -0.0483 -0.4202 -0.0050
   97SAPE  H13R 9701  -0.278   4.427   6.173 -3.5024  0.2448  0.0607
   97SAPE  H13S 9702  -0.401   4.337   6.238 -0.0799 -1.5082  1.1532
   97SAPE  C214 9703  -0.224   4.230   6.166  0.1518 -0.7238  0.0383
   97SAPE  H14R 9704  -0.115   4.232   6.178  0.0128 -0.6956  1.4397
   97SAPE  C215 9705  -0.265   4.150   6.068  0.3277  0.3946 -0.2107
   97SAPE  H15R 9706  -0.206   4.059   6.050  2.8851  1.6296  1.2719
   97SAPE  C216 9707  -0.411   4.146   6.024  0.3901 -0.1732  0.0954
   97SAPE  H16R 9708  -0.420   4.092   5.928  1.4680 -0.9527  0.4168
   97SAPE  H16S 9709  -0.447   4.251   6.016 -1.6264 -0.8020  0.3726
   97SAPE  C217 9710  -0.497   4.069   6.129  0.2528 -0.9577  0.2858
   97SAPE  H17R 9711  -0.499   4.130   6.222  0.6134  0.3545 -0.5349
   97SAPE  H17S 9712  -0.462   3.969   6.162  0.0070  0.0904  4.3353
   97SAPE  C218 9713  -0.640   4.038   6.081  0.3817  0.9357  0.1541
   97SAPE  H18R 9714  -0.638   3.951   6.011 -0.4386  1.9844 -1.2244
   97SAPE  H18S 9715  -0.689   4.120   6.024 -0.9292  0.5073  0.6149
   97SAPE  C219 9716  -0.721   3.999   6.203  0.5504  0.4801  0.4153
   97SAPE  H19R 9717  -0.819   3.961   6.168  1.6326 -1.1984 -0.9650
   97SAPE  H19S 9718  -0.740   4.086   6.269  0.5640  0.2048  0.7861
   97SAPE  C220 9719  -0.670   3.877   6.279 -0.2831  0.7590  0.5972
   97SAPE  H20R 9720  -0.665   3.784   6.219  0.2339  0.7259  0.6885
   97SAPE  H20S 9721  -0.741   3.861   6.364  0.4690 -2.1893  0.7844
   97SAPE  H20T 9722  -0.568   3.893   6.319  0.2198  2.0550 -1.0803
   97SAPE   C33 9723   0.486   3.737   6.889 -0.6447  0.0753 -0.3781
   97SAPE   H3X 9724   0.526   3.834   6.923 -1.4744  1.1724 -2.3355
   97SAPE   H3Y 9725   0.379   3.735   6.920 -0.3384 -1.2623  0.6514
   97SAPE   C34 9726   0.505   3.737   6.735  0.4696  0.5088 -0.1357
   97SAPE   H4X 9727   0.610   3.759   6.705  1.2108 -0.6358  1.4506
   97SAPE   H4Y 9728   0.444   3.823   6.701 -1.0284 -0.8275 -0.9617
   97SAPE   C35 9729   0.449   3.615   6.653 -0.1889 -0.3558  0.6310
   97SAPE   H5X 9730   0.343   3.599   6.681  0.1804 -2.4451  0.9598
   97SAPE   H5Y 9731   0.494   3.532   6.710 -0.8196  0.5352  2.5115
   97SAPE   C36 9732   0.474   3.619   6.501  0.7445 -0.2259 -0.3802
   97SAPE   H6X 9733   0.424   3.526   6.464  1.3265 -1.0246  0.7753
   97SAPE   H6Y 9734   0.584   3.618   6.487  0.8263 -0.0215  0.2481
   97SAPE   C37 9735   0.397   3.736   6.433 -0.5998 -0.4164  0.0342
   97SAPE   H7X 9736   0.407   3.706   6.327  0.4153 -0.9315  0.2626
   97SAPE   H7Y 9737   0.458   3.826   6.454  0.0776 -0.4468 -1.6898
   97SAPE   C38 9738   0.248   3.750   6.458 -0.6252 -0.3788  0.4096
   97SAPE   H8X 9739   0.231   3.793   6.559 -2.2397 -0.9703  0.4162
   97SAPE   H8Y 9740   0.198   3.651   6.448 -0.2133 -0.4487 -1.4819
   97SAPE   C39 9741   0.179   3.849   6.356  0.3840 -0.0162 -0.6373
   97SAPE   H9X 9742   0.233   3.946   6.353 -0.3583  0.4265  0.0512
   97SAPE   H9Y 9743   0.072   3.867   6.381  0.9516  0.2258  1.9076
   97SAPE  C310 9744   0.178   3.793   6.213  0.4632  0.1145 -0.3007
   97SAPE  H10X 9745   0.129   3.694   6.207  0.6412  0.0581 -0.8642
   97SAPE  H10Y 9746   0.284   3.801   6.181  1.7827  1.3349  3.7558
   97SAPE  C311 9747   0.098   3.882   6.110  0.5683  0.6179 -0.4124
   97SAPE  H11X 9748   0.135   3.985   6.128  1.0378  0.7907 -2.2354
   97SAPE  H11Y 9749  -0.006   3.873   6.148  0.0886  4.4013 -0.4772
   97SAPE  C312 9750   0.135   3.839   5.961 -0.4283 -0.4566  0.7454
   97SAPE  H12X 9751   0.158   3.730   5.960  1.4650 -0.1099 -0.3403
   97SAPE  H12Y 9752   0.228   3.885   5.920 -1.1282 -0.7291 -1.3021
   97SAPE  C313 9753   0.025   3.877   5.859 -1.1829 -0.4347 -0.5472
   97SAPE  H13X 9754  -0.015   3.974   5.894  0.4818 -0.0365  0.3413
   97SAPE  H13Y 9755  -0.058   3.805   5.877 -2.7882  0.7505 -2.7475
   97SAPE  C314 9756   0.050   3.894   5.706  0.6074 -0.5537  0.0174
   97SAPE  H14X 9757   0.115   3.808   5.677  1.7661 -0.2941  1.7415
   97SAPE  H14Y 9758   0.114   3.984   5.697  2.4478 -1.9838 -2.6991
   97SAPE  C315 9759  -0.072   3.909   5.610  0.2879  0.1389 -0.4745
   97SAPE  H15X 9760  -0.160   3.958   5.656  1.1489  2.7521 -1.3913
   97SAPE  H15Y 9761  -0.091   3.804   5.579 -2.6149  0.5739 -0.3656
   97SAPE  C316 9762  -0.038   3.985   5.476 -0.3072  0.0371  0.5257
   97SAPE  H16X 9763   0.038   3.923   5.424 -2.4667 -1.4256 -1.0287
   97SAPE  H16Y 9764   0.001   4.086   5.503 -0.1013  0.2776 -0.6449
   97SAPE  C317 9765  -0.158   3.992   5.389 -0.5111  0.2123  0.1189
   97SAPE  H17X 9766  -0.218   4.069   5.442 -0.6363  0.9179 -1.0125
   97SAPE  H17Y 9767  -0.221   3.901   5.376 -0.2496 -0.0305  0.5163
   97SAPE  C318 9768  -0.140   4.062   5.250 -0.0561  0.3098 -0.0911
   97SAPE  H18X 9769  -0.115   4.169   5.268 -1.4911  0.8834 -1.2828
   97SAPE  H18Y 9770  -0.229   4.058   5.184  1.8062  3.4313 -3.1134
   97SAPE  H18Z 9771  -0.054   4.016   5.198 -0.6723  0.1056 -0.9475
   98SAPE     N 9772   1.596   3.334   7.406 -0.3005 -0.1947  0.3927
   98SAPE   HN1 9773   1.623   3.398   7.483  1.2169  1.9585 -1.7601
   98SAPE   HN2 9774   1.515   3.375   7.356 -2.3989 -2.8855  1.3062
   98SAPE   HN3 9775   1.563   3.244   7.446 -1.3641 -0.4309 -0.9361
   98SAPE   C12 9776   1.712   3.322   7.311  0.2514  0.2339  0.1822
   98SAPE  H12A 9777   1.806   3.292   7.362  0.4081  2.7109  1.4846
   98SAPE  H12B 9778   1.731   3.420   7.261 -1.4673  0.0368 -0.9558
   98SAPE   C11 9779   1.685   3.215   7.207  0.9972  0.2131  0.2073
   98SAPE  H11A 9780   1.773   3.200   7.141  1.5321  0.8809  0.7489
   98SAPE  H11B 9781   1.598   3.260   7.153  1.3178 -0.3231 -0.7721
   98SAPE     P 9782   1.743   2.973   7.304  0.3102  0.1227  0.0663
   98SAPE   O13 9783   1.823   3.015   7.414 -0.0417  0.5049  0.0449
   98SAPE   O14 9784   1.679   2.839   7.320 -0.4698  0.6376  0.6915
   98SAPE   O12 9785   1.640   3.089   7.273  0.8220 -0.0970 -0.6135
   98SAPE   O11 9786   1.829   2.984   7.171 -0.1562 -0.1451  0.4257
   98SAPE    C1 9787   1.973   2.969   7.186  0.3689 -0.5062  0.6375
   98SAPE    HA 9788   2.008   2.919   7.279  0.0435  2.8692  2.7882
   98SAPE    HB 9789   2.015   2.928   7.093 -0.7182  3.4093 -1.8393
   98SAPE    C2 9790   2.049   3.109   7.185  0.6962  0.0323  0.6404
   98SAPE    HS 9791   2.005   3.169   7.268 -3.6247  1.6193 -2.4404
   98SAPE   O21 9792   2.023   3.178   7.056 -0.6655  0.1943 -0.1761
   98SAPE   C21 9793   2.017   3.309   7.060  0.1104 -0.2225 -0.0823
   98SAPE   O22 9794   2.034   3.381   7.159 -0.2765 -0.2107 -0.3161
   98SAPE   C22 9795   2.008   3.358   6.920 -0.8550 -0.3650  0.3681
   98SAPE   H2R 9796   2.113   3.386   6.896 -0.2813 -2.0866  0.6580
   98SAPE   H2S 9797   1.995   3.273   6.850  2.1858 -0.8171  0.1960
   98SAPE    C3 9798   2.200   3.092   7.204  0.9335 -1.3087 -0.0052
   98SAPE    HX 9799   2.224   3.045   7.302  2.9531 -1.0525 -0.3218
   98SAPE    HY 9800   2.250   3.192   7.209  2.3192 -1.9598 -0.3492
   98SAPE   O31 9801   2.251   3.008   7.103 -0.2680 -0.4098  0.2659
   98SAPE   C31 9802   2.292   3.067   6.986 -0.0504 -0.2444 -0.5139
   98SAPE   O32 9803   2.298   3.186   6.965 -0.1728 -0.4731 -0.3580
   98SAPE   C32 9804   2.333   2.961   6.882  0.3949 -0.0895  0.3858
   98SAPE   H2X 9805   2.246   2.894   6.861  1.0080 -1.0588  0.8480
   98SAPE   H2Y 9806   2.420   2.897   6.909  1.4610  0.7890 -0.8411
   98SAPE   C23 9807   1.911   3.470   6.893 -0.3802  0.4438  0.3266
   98SAPE   H3R 9808   1.926   3.551   6.968  1.6527 -0.1122  0.5926
   98SAPE   H3S 9809   1.806   3.436   6.904 -0.3421 -0.3770 -1.5275
   98SAPE   C24 9810   1.916   3.526   6.749  0.0140 -0.0958 -0.5424
   98SAPE   H4R 9811   2.020   3.563   6.736  0.0444  0.0671  0.1456
   98SAPE   H4S 9812   1.861   3.622   6.756 -1.0216 -0.8018  2.6998
   98SAPE   C25 9813   1.880   3.439   6.636  0.1955 -0.4446  0.2138
   98SAPE   H5R 9814   1.891   3.329   6.642  2.0252 -0.2936  0.1491
   98SAPE   C26 9815   1.820   3.478   6.519 -0.1010 -0.3111 -0.5975
   98SAPE   H6R 9816   1.799   3.394   6.450  0.7150 -1.6269  0.7057
   98SAPE   C27 9817   1.792   3.620   6.476  0.7268  0.2679  0.4304
   98SAPE   H7R 9818   1.827   3.694   6.552 -0.2184  0.2535  0.8893
   98SAPE   H7S 9819   1.682   3.636   6.480  0.9033  2.7517 -1.5908
   98SAPE   C28 9820   1.829   3.654   6.336 -0.0547 -0.8717 -0.1495
   98SAPE   H8R 9821   1.937   3.671   6.321  0.2086 -0.5595  1.8445
   98SAPE   C29 9822   1.749   3.646   6.226  0.3124 -0.2876  0.2450
   98SAPE   H9R 9823   1.795   3.672   6.129 -1.0805  0.4668 -0.2320
   98SAPE  C210 9824   1.602   3.620   6.223  0.7977 -0.4470  0.1053
   98SAPE  H10R 9825   1.550   3.715   6.199  1.4542  0.3522  1.6891
   98SAPE  H10S 9826   1.562   3.590   6.322 -2.8618  2.3038 -0.3468
   98SAPE  C211 9827   1.569   3.516   6.121 -0.1720  0.0880 -0.7482
   98SAPE  H11R 9828   1.600   3.417   6.159 -1.0636  0.7510  1.9584
   98SAPE  C212 9829   1.510   3.521   6.000 -0.4903  0.5613  0.4166
   98SAPE  H12R 9830   1.517   3.424   5.950  0.6921  0.3379  0.9878
   98SAPE  C213 9831   1.472   3.642   5.921  0.4232  0.0903  0.3292
   98SAPE  H13R 9832   1.512   3.737   5.961  0.6423 -0.0332  0.4047
   98SAPE  H13S 9833   1.363   3.661   5.935  0.0281 -1.7631  0.0660
   98SAPE  C214 9834   1.499   3.623   5.773  0.1786 -0.7137 -0.2230
   98SAPE  H14R 9835   1.564   3.703   5.731 -0.5823 -0.1124 -0.2781
   98SAPE  C215 9836   1.441   3.546   5.683 -0.0787  0.6453 -0.9570
   98SAPE  H15R 9837   1.476   3.554   5.579  2.1129 -1.4709 -0.4586
   98SAPE  C216 9838   1.333   3.444   5.707  0.4546 -0.6535 -0.1063
   98SAPE  H16R 9839   1.241   3.467   5.648  0.7384  0.9277  0.0236
   98SAPE  H16S 9840   1.302   3.460   5.813 -0.0688  3.8615 -0.7079
   98SAPE  C217 9841   1.388   3.304   5.670 -0.3321 -1.5995 -0.2623
   98SAPE  H17R 9842   1.483   3.283   5.723 -1.1122 -1.1341  1.3880
   98SAPE  H17S 9843   1.412   3.302   5.561 -0.5613  4.1977 -0.7202
   98SAPE  C218 9844   1.292   3.195   5.722 -0.3471 -0.6884 -0.2079
   98SAPE  H18R 9845   1.258   3.221   5.825  1.6304  0.3124  0.2621
   98SAPE  H18S 9846   1.340   3.095   5.725  0.3992 -0.4076 -1.7122
   98SAPE  C219 9847   1.167   3.177   5.637  0.2715  0.6453  0.2016
   98SAPE  H19R 9848   1.148   3.273   5.584 -0.0676 -0.0827 -1.0465
   98SAPE  H19S 9849   1.072   3.154   5.691  0.4782 -0.7125  0.0219
   98SAPE  C220 9850   1.188   3.065   5.537  0.3842 -0.5967  0.3713
   98SAPE  H20R 9851   1.219   2.973   5.592 -1.2120 -0.2722  1.9120
   98SAPE  H20S 9852   1.273   3.087   5.468 -0.1139  0.0459 -0.0457
   98SAPE  H20T 9853   1.095   3.039   5.483 -1.7069  0.3267  3.3012
   98SAPE   C33 9854   2.370   3.024   6.744 -0.0667  0.4433  0.4958
   98SAPE   H3X 9855   2.419   2.951   6.676  1.4282  1.2613  0.6452
   98SAPE   H3Y 9856   2.430   3.117   6.758  1.7410 -0.5835 -0.0919
   98SAPE   C34 9857   2.235   3.061   6.666  0.0996 -0.7296  1.1792
   98SAPE   H4X 9858   2.161   3.106   6.736 -1.5246 -0.8016 -0.4259
   98SAPE   H4Y 9859   2.173   2.980   6.622  0.1154  1.1342 -2.6976
   98SAPE   C35 9860   2.262   3.147   6.543 -0.0581  0.1569  0.7405
   98SAPE   H5X 9861   2.322   3.089   6.470 -0.3373 -0.4289  0.9697
   98SAPE   H5Y 9862   2.324   3.237   6.565  1.7708 -0.2376 -2.2127
   98SAPE   C36 9863   2.137   3.194   6.457  0.1040  0.1409  0.1096
   98SAPE   H6X 9864   2.056   3.220   6.529  1.6387 -1.9697  2.8365
   98SAPE   H6Y 9865   2.097   3.107   6.402  0.8432 -0.3648  0.3497
   98SAPE   C37 9866   2.175   3.316   6.369  0.4553  0.0467  0.1769
   98SAPE   H7X 9867   2.270   3.302   6.313  0.7779  0.9705  0.4752
   98SAPE   H7Y 9868   2.196   3.407   6.429 -0.3427  0.3314  0.0314
   98SAPE   C38 9869   2.063   3.352   6.274  0.1233 -0.5134  0.1568
   98SAPE   H8X 9870   2.109   3.427   6.205  1.4214 -1.8349 -0.4594
   98SAPE   H8Y 9871   1.980   3.407   6.322  0.0158 -0.5409  0.0036
   98SAPE   C39 9872   2.007   3.240   6.191 -0.1793  0.4197 -0.1671
   98SAPE   H9X 9873   1.937   3.186   6.258  0.2198 -1.4944 -1.2134
   98SAPE   H9Y 9874   2.089   3.172   6.161 -0.2226 -0.3376  1.3885
   98SAPE  C310 9875   1.933   3.285   6.063 -0.4699  0.4730  0.5405
   98SAPE  H10X 9876   1.843   3.341   6.098  0.1917  1.5133  0.6312
   98SAPE  H10Y 9877   1.894   3.194   6.014 -0.7495 -0.4199  2.3341
   98SAPE  C311 9878   2.017   3.362   5.956  0.8323 -1.1120 -0.0893
   98SAPE  H11X 9879   2.093   3.290   5.919  1.5673 -1.1316  1.3757
   98SAPE  H11Y 9880   2.068   3.450   6.000 -0.8959  0.4635 -1.0584
   98SAPE  C312 9881   1.925   3.407   5.835  0.4231  0.4737  0.3706
   98SAPE  H12X 9882   2.006   3.429   5.763 -0.3835 -1.6738 -1.2850
   98SAPE  H12Y 9883   1.858   3.495   5.847 -0.1558  0.2117 -0.7886
   98SAPE  C313 9884   1.849   3.295   5.769 -0.3222 -0.2895 -0.1622
   98SAPE  H13X 9885   1.749   3.279   5.815 -1.9922  3.6337 -2.0342
   98SAPE  H13Y 9886   1.883   3.189   5.770 -0.0815 -0.2113 -0.0641
   98SAPE  C314 9887   1.808   3.330   5.626 -0.9050  0.1674  0.0182
   98SAPE  H14X 9888   1.901   3.340   5.566  0.0861  0.4989  1.5527
   98SAPE  H14Y 9889   1.759   3.428   5.615 -0.7328  0.1588 -0.9342
   98SAPE  C315 9890   1.727   3.224   5.558 -0.5536 -0.0780  0.4698
   98SAPE  H15X 9891   1.656   3.174   5.627 -1.9577  2.6378  1.1390
   98SAPE  H15Y 9892   1.787   3.136   5.527  0.2900  0.0522  1.6647
   98SAPE  C316 9893   1.653   3.283   5.441 -0.6557 -0.4630  0.7995
   98SAPE  H16X 9894   1.724   3.332   5.371  0.2562 -1.0881  1.2782
   98SAPE  H16Y 9895   1.591   3.366   5.482  0.1477  1.0619 -0.9136
   98SAPE  C317 9896   1.565   3.181   5.363  0.1976 -0.2707  0.1168
   98SAPE  H17X 9897   1.490   3.141   5.435  0.1617  0.4109  0.4679
   98SAPE  H17Y 9898   1.634   3.099   5.333 -1.7896 -1.3077 -1.9791
   98SAPE  C318 9899   1.497   3.243   5.245 -0.0364 -0.3555  0.4300
   98SAPE  H18X 9900   1.455   3.172   5.171 -0.2794 -0.8850  1.0701
   98SAPE  H18Y 9901   1.573   3.311   5.201 -1.6383  2.4705  1.7628
   98SAPE  H18Z 9902   1.414   3.305   5.285  0.9841 -0.8479  3.6136
   99SAPE     N 9903   2.163   4.206   7.632 -0.4864  0.2465  0.1577
   99SAPE   HN1 9904   2.256   4.252   7.626  0.4344 -1.6264 -0.5887
   99SAPE   HN2 9905   2.093   4.280   7.608  0.5620  1.3954  0.5289
   99SAPE   HN3 9906   2.147   4.169   7.728  1.0742  1.4348  0.9218
   99SAPE   C12 9907   2.164   4.083   7.552  0.2330  0.9096  1.1652
   99SAPE  H12A 9908   2.233   4.003   7.583 -0.1634 -0.1205 -0.4603
   99SAPE  H12B 9909   2.202   4.111   7.451 -3.2647 -2.0826 -1.2884
   99SAPE   C11 9910   2.027   4.022   7.536 -0.3594 -0.1657  0.1030
   99SAPE  H11A 9911   2.019   3.928   7.476 -0.3353 -1.1748  1.6290
   99SAPE  H11B 9912   1.959   4.086   7.476 -1.4705 -1.1469  0.2716
   99SAPE     P 9913   1.944   3.854   7.722  0.1639  0.0093  0.0001
   99SAPE   O13 9914   2.074   3.776   7.727 -0.3916  0.0320  0.3994
   99SAPE   O14 9915   1.876   3.872   7.849  0.0358 -0.2875  0.0777
   99SAPE   O12 9916   1.976   4.005   7.668 -0.1060  0.3535 -0.2787
   99SAPE   O11 9917   1.848   3.794   7.613  0.7274  0.0119 -0.5420
   99SAPE    C1 9918   1.735   3.853   7.556  0.4312  0.1251 -0.2657
   99SAPE    HA 9919   1.642   3.838   7.615 -0.1522  2.1116 -0.6007
   99SAPE    HB 9920   1.750   3.962   7.543  0.9107  0.2390  1.0567
   99SAPE    C2 9921   1.699   3.788   7.417 -0.2706 -0.2323 -0.1103
   99SAPE    HS 9922   1.728   3.681   7.414 -0.1023 -0.2767  1.7639
   99SAPE   O21 9923   1.771   3.868   7.316  0.1969  0.0037  0.2076
   99SAPE   C21 9924   1.833   3.804   7.216  0.1864 -0.0363 -0.8807
   99SAPE   O22 9925   1.797   3.696   7.173 -0.3596  0.8443  0.7336
   99SAPE   C22 9926   1.947   3.888   7.173  0.1926  0.4778  0.8306
   99SAPE   H2R 9927   1.906   3.990   7.158  0.2557  0.3795 -0.0444
   99SAPE   H2S 9928   2.014   3.890   7.262  0.1243 -0.9370  0.9385
   99SAPE    C3 9929   1.549   3.787   7.379  0.1072 -0.0093 -0.2917
   99SAPE    HX 9930   1.503   3.880   7.420  0.4993 -0.0070  0.1518
   99SAPE    HY 9931   1.498   3.709   7.440 -0.0186 -0.4711 -0.9729
   99SAPE   O31 9932   1.504   3.775   7.238 -0.7343 -0.1732 -0.5998
   99SAPE   C31 9933   1.487   3.653   7.199 -0.7498  0.2873  0.4079
   99SAPE   O32 9934   1.491   3.547   7.265 -0.1933 -0.0516 -0.3662
   99SAPE   C32 9935   1.474   3.649   7.044 -0.5172 -0.0934  0.5701
   99SAPE   H2X 9936   1.576   3.664   7.003 -1.0557 -0.4574 -0.9811
   99SAPE   H2Y 9937   1.421   3.743   7.018 -1.2076  0.0035  2.2133
   99SAPE   C23 9938   2.013   3.833   7.046 -0.3020 -0.0296 -0.2622
   99SAPE   H3R 9939   1.943   3.827   6.960 -0.6909 -0.3516  0.0714
   99SAPE   H3S 9940   2.044   3.729   7.072 -0.8099 -0.0237  0.4119
   99SAPE   C24 9941   2.145   3.901   7.011 -0.2167 -0.6434 -0.2035
   99SAPE   H4R 9942   2.194   3.830   6.941  2.1369  0.1638  0.5300
   99SAPE   H4S 9943   2.208   3.899   7.103  0.6706 -1.3627 -0.7972
   99SAPE   C25 9944   2.130   4.037   6.951 -0.3658 -1.0439  0.3838
   99SAPE   H5R 9945   2.077   4.113   7.010  0.8986  1.5166 -1.5744
   99SAPE   C26 9946   2.155   4.081   6.828  0.2420 -0.2673  0.1109
   99SAPE   H6R 9947   2.149   4.188   6.802  0.7382 -0.2331  0.1215
   99SAPE   C27 9948   2.231   4.000   6.721 -0.0235  0.2799  0.2084
   99SAPE   H7R 9949   2.302   3.937   6.778 -0.7416  0.7849  1.7245
   99SAPE   H7S 9950   2.296   4.066   6.659 -0.7470 -0.3034 -1.2152
   99SAPE   C28 9951   2.125   3.927   6.640 -0.3490  0.2375 -0.0468
   99SAPE   H8R 9952   2.063   3.851   6.689  2.1552 -0.0968  2.8950
   99SAPE   C29 9953   2.084   3.959   6.512 -0.8009 -0.0069 -0.3545
   99SAPE   H9R 9954   2.010   3.891   6.468 -0.5177 -1.3647  1.1439
   99SAPE  C210 9955   2.147   4.052   6.415  0.0041  0.1703 -0.3792
   99SAPE  H10R 9956   2.144   4.003   6.315  0.7407  0.1606 -0.4073
   99SAPE  H10S 9957   2.253   4.064   6.447  0.1623 -1.9440 -0.0108
   99SAPE  C211 9958   2.083   4.189   6.417 -0.3123  0.0625  0.0196
   99SAPE  H11R 9959   2.134   4.254   6.489  2.3929 -0.1558 -1.5658
   99SAPE  C212 9960   1.984   4.232   6.338 -1.0758 -0.1035 -0.8893
   99SAPE  H12R 9961   1.957   4.339   6.342 -1.2013 -0.1714  0.3958
   99SAPE  C213 9962   1.897   4.159   6.237 -0.4294  0.1037  0.6468
   99SAPE  H13R 9963   1.789   4.183   6.247  0.0338  2.2774  1.1376
   99SAPE  H13S 9964   1.901   4.051   6.260  0.5718  0.2962  1.4866
   99SAPE  C214 9965   1.929   4.185   6.093  0.4814 -1.1086  0.2050
   99SAPE  H14R 9966   1.990   4.275   6.078  0.8771 -1.4263 -0.1102
   99SAPE  C215 9967   1.888   4.110   5.982  0.6735 -0.2218 -0.0809
   99SAPE  H15R 9968   1.908   4.147   5.880 -0.2715 -0.7672 -0.4670
   99SAPE  C216 9969   1.803   3.986   5.993  0.2207 -0.1569 -0.1730
   99SAPE  H16R 9970   1.799   3.946   6.097  0.2352  0.3137  0.0132
   99SAPE  H16S 9971   1.841   3.907   5.926 -0.0488 -0.3907 -0.0541
   99SAPE  C217 9972   1.655   4.020   5.966 -0.1354  0.6669 -0.5277
   99SAPE  H17R 9973   1.620   4.102   6.033  0.3943  0.1247  0.4275
   99SAPE  H17S 9974   1.602   3.930   6.003 -1.3620  2.3380  2.0362
   99SAPE  C218 9975   1.616   4.057   5.825 -0.4312 -0.0190  0.1272
   99SAPE  H18R 9976   1.644   3.975   5.755  1.1949 -0.0603  0.7816
   99SAPE  H18S 9977   1.662   4.151   5.789 -0.2650 -0.3030 -0.4206
   99SAPE  C219 9978   1.461   4.089   5.814 -0.0977 -0.2332 -0.7273
   99SAPE  H19R 9979   1.441   4.197   5.798 -0.5131 -0.3000 -0.6793
   99SAPE  H19S 9980   1.400   4.049   5.898  0.9083 -0.8507 -0.2665
   99SAPE  C220 9981   1.389   4.023   5.701 -0.4744  0.5326  0.3812
   99SAPE  H20R 9982   1.435   4.037   5.601 -0.9147  1.7540  0.3437
   99SAPE  H20S 9983   1.288   4.067   5.689 -1.6413 -1.3004  2.6192
   99SAPE  H20T 9984   1.363   3.916   5.716  1.1206  0.1086  0.3594
   99SAPE   C33 9985   1.404   3.522   7.000 -0.0285  0.1636 -0.3167
   99SAPE   H3X 9986   1.319   3.502   7.069  0.2339  0.7109  0.1719
   99SAPE   H3Y 9987   1.480   3.441   6.999  1.7262  1.5676  3.0194
   99SAPE   C34 9988   1.352   3.527   6.856 -0.5692  0.7700 -0.3223
   99SAPE   H4X 9989   1.299   3.623   6.838 -1.2888  0.2079 -1.3342
   99SAPE   H4Y 9990   1.285   3.438   6.852 -0.5244  0.6203  1.6016
   99SAPE   C35 9991   1.462   3.496   6.753 -0.0138 -0.5317  0.0413
   99SAPE   H5X 9992   1.507   3.398   6.778  0.8066 -0.0935  0.3068
   99SAPE   H5Y 9993   1.531   3.583   6.761  0.2114 -0.8881  3.4049
   99SAPE   C36 9994   1.412   3.481   6.608 -0.1390  0.7549 -0.0413
   99SAPE   H6X 9995   1.338   3.398   6.607  0.9782 -0.3053  1.2218
   99SAPE   H6Y 9996   1.506   3.462   6.551  1.0380  0.8189  1.7807
   99SAPE   C37 9997   1.332   3.601   6.560  0.6807  0.2919  0.2109
   99SAPE   H7X 9998   1.384   3.698   6.572  0.3053  0.3971  1.0437
   99SAPE   H7Y 9999   1.250   3.615   6.633  1.7027  2.9127  0.9817
   99SAPE   C3810000   1.265   3.580   6.428  0.3260  0.6620 -0.6787
   99SAPE   H8X10001   1.212   3.485   6.452  0.9042  0.9195  1.8608
   99SAPE   H8Y10002   1.345   3.563   6.353  1.0772  1.0682  0.0172
   99SAPE   C3910003   1.165   3.685   6.381  0.4901  0.1457  0.5260
   99SAPE   H9X10004   1.212   3.783   6.403 -0.3056  0.3938  1.1786
   99SAPE   H9Y10005   1.072   3.671   6.439  0.6162  0.6473  0.8564
   99SAPE  C31010006   1.133   3.693   6.233  0.0232 -0.8410  0.5326
   99SAPE  H10X10007   1.222   3.716   6.171 -0.8365 -1.1465 -0.8682
   99SAPE  H10Y10008   1.057   3.769   6.207  1.0471 -0.4442 -1.4938
   99SAPE  C31110009   1.058   3.567   6.178 -0.6896 -0.2063 -0.0710
   99SAPE  H11X10010   0.953   3.568   6.215 -0.7886  1.8601 -0.2971
   99SAPE  H11Y10011   1.116   3.478   6.212  1.0217  0.7828 -0.2995
   99SAPE  C31210012   1.052   3.574   6.021 -0.3654  0.2076  0.2064
   99SAPE  H12X10013   1.147   3.540   5.973 -0.8976 -0.9059 -0.0808
   99SAPE  H12Y10014   1.010   3.669   5.981  0.1352  0.3251 -0.0513
   99SAPE  C31310015   0.949   3.461   5.982  0.5318  0.4647 -0.0245
   99SAPE  H13X10016   0.850   3.510   5.986  0.8672  1.1654 -0.1230
   99SAPE  H13Y10017   0.953   3.376   6.053  0.4845  0.0672 -0.4935
   99SAPE  C31410018   0.968   3.415   5.837 -0.1452  0.0283  0.0003
   99SAPE  H14X10019   0.903   3.325   5.827  0.9845 -1.0242  1.6386
   99SAPE  H14Y10020   1.075   3.396   5.815 -0.3244 -0.1052 -0.7706
   99SAPE  C31510021   0.921   3.525   5.745 -0.1105  0.2788  0.6376
   99SAPE  H15X10022   1.010   3.589   5.731  0.5971 -0.9627 -0.8391
   99SAPE  H15Y10023   0.838   3.586   5.787  0.7701  2.1495 -0.2269
   99SAPE  C31610024   0.884   3.474   5.595 -0.7604  0.7793 -0.0290
   99SAPE  H16X10025   0.789   3.416   5.596 -0.7387  0.7443  0.0101
   99SAPE  H16Y10026   0.971   3.407   5.576 -1.4274 -0.5225  1.2724
   99SAPE  C31710027   0.882   3.589   5.493 -0.0922  0.2672  0.0280
   99SAPE  H17X10028   0.890   3.544   5.391  1.9786  0.0203  0.2559
   99SAPE  H17Y10029   0.966   3.659   5.508 -1.1093  1.7806 -1.0658
   99SAPE  C31810030   0.758   3.689   5.507  0.2824  0.4440  0.9399
   99SAPE  H18X10031   0.746   3.736   5.607 -0.0296 -2.1081  2.1850
   99SAPE  H18Y10032   0.667   3.625   5.494  1.2687 -0.7604 -0.3755
   99SAPE  H18Z10033   0.769   3.760   5.423  0.5952 -1.4121 -0.6617
  100SAPE     N10034   5.695   2.677   7.585  0.4991  0.6593  0.4516
  100SAPE   HN110035   5.671   2.775   7.560 -0.4339  0.9089  2.1814
  100SAPE   HN210036   5.694   2.684   7.689  0.9703  1.4696  0.4081
  100SAPE   HN310037   5.796   2.662   7.563  0.1483  0.9272 -1.4698
  100SAPE   C1210038   5.611   2.559   7.533  0.0469 -0.7530 -0.7252
  100SAPE  H12A10039   5.649   2.469   7.586  1.7054  0.5234  0.3598
  100SAPE  H12B10040   5.620   2.553   7.422 -3.3300  2.5908 -1.4068
  100SAPE   C1110041   5.462   2.572   7.573 -0.3730  0.1409 -0.0482
  100SAPE  H11A10042   5.458   2.559   7.683 -0.8376  0.2522 -0.0482
  100SAPE  H11B10043   5.412   2.492   7.514  2.6725  0.9182 -4.0896
  100SAPE     P10044   5.279   2.708   7.437 -1.1261 -0.3628 -0.0861
  100SAPE   O1310045   5.159   2.647   7.501  0.4680  0.6763 -0.0660
  100SAPE   O1410046   5.267   2.847   7.395 -0.7608 -0.6438 -0.2807
  100SAPE   O1210047   5.398   2.699   7.544  0.1361  0.2010 -0.1004
  100SAPE   O1110048   5.337   2.619   7.323  0.0722  0.0517  0.0733
  100SAPE    C110049   5.463   2.658   7.259 -0.4753 -0.2220  1.2511
  100SAPE    HA10050   5.534   2.706   7.329  1.4145  1.8389 -1.8212
  100SAPE    HB10051   5.511   2.564   7.223 -0.6145  0.6732 -1.4858
  100SAPE    C210052   5.434   2.746   7.129  0.5813  0.2583  0.0729
  100SAPE    HS10053   5.421   2.848   7.169 -0.4861  0.1893 -0.0493
  100SAPE   O2110054   5.315   2.689   7.052  0.2784 -0.0116 -0.3506
  100SAPE   C2110055   5.230   2.781   7.030 -0.1943 -0.6529 -0.2581
  100SAPE   O2210056   5.247   2.904   7.045 -0.5980 -0.1043  0.4767
  100SAPE   C2210057   5.108   2.716   6.961 -1.3067  0.4848  0.7975
  100SAPE   H2R10058   5.136   2.670   6.864  0.1409  0.7988  1.0495
  100SAPE   H2S10059   5.065   2.638   7.028 -3.0621 -0.7647 -1.6265
  100SAPE    C310060   5.559   2.732   7.030  0.4244 -0.0940  0.5987
  100SAPE    HX10061   5.647   2.770   7.087  1.9144 -1.0758 -0.9497
  100SAPE    HY10062   5.540   2.803   6.948 -0.7123 -1.5870 -0.4942
  100SAPE   O3110063   5.587   2.597   6.974 -0.9550  0.2595 -0.1417
  100SAPE   C3110064   5.512   2.562   6.877  0.8733  0.1010  0.1107
  100SAPE   O3210065   5.445   2.637   6.813  0.8689  0.0458 -0.4085
  100SAPE   C3210066   5.539   2.423   6.841 -0.3179 -0.5178 -0.0957
  100SAPE   H2X10067   5.471   2.361   6.903 -0.0653  0.0924  0.8032
  100SAPE   H2Y10068   5.640   2.385   6.870 -0.6596 -1.6869 -0.3682
  100SAPE   C2310069   4.995   2.820   6.931  0.3382 -0.8188  0.1194
  100SAPE   H3R10070   5.010   2.874   6.835 -0.7668  2.3196  1.5927
  100SAPE   H3S10071   4.983   2.906   7.001 -1.2675  1.8148 -3.1065
  100SAPE   C2410072   4.854   2.749   6.929  0.0258 -0.2014 -0.0769
  100SAPE   H4R10073   4.777   2.826   6.907  1.5960  1.5465  0.2745
  100SAPE   H4S10074   4.836   2.697   7.026  3.2325  1.3105  1.4882
  100SAPE   C2510075   4.859   2.636   6.828  0.1633  0.0014  0.2267
  100SAPE   H5R10076   4.914   2.549   6.866 -2.8327 -1.2850  1.9375
  100SAPE   C2610077   4.812   2.644   6.703  0.4453 -0.6502 -0.5442
  100SAPE   H6R10078   4.810   2.550   6.645 -2.9002 -1.6386  0.9612
  100SAPE   C2710079   4.726   2.760   6.652  0.7453 -0.3189 -1.1003
  100SAPE   H7R10080   4.802   2.824   6.604 -1.0849  4.2704  1.5265
  100SAPE   H7S10081   4.691   2.826   6.734 -0.1362 -1.4508 -0.5362
  100SAPE   C2810082   4.618   2.704   6.566 -0.4876  0.3033 -0.1109
  100SAPE   H8R10083   4.540   2.654   6.624  0.9831  0.0272  1.7198
  100SAPE   C2910084   4.612   2.688   6.433  0.6166  0.5118 -0.1611
  100SAPE   H9R10085   4.529   2.636   6.384 -0.7380 -0.7493  3.1933
  100SAPE  C21010086   4.709   2.730   6.329 -0.5169  0.1751  0.6808
  100SAPE  H10R10087   4.802   2.756   6.383  0.3853  1.2199 -1.2970
  100SAPE  H10S10088   4.677   2.821   6.274  3.2995  0.8589 -0.6623
  100SAPE  C21110089   4.740   2.608   6.243 -0.9919  0.4291 -0.0554
  100SAPE  H11R10090   4.781   2.523   6.299  1.2458  2.3117  1.3621
  100SAPE  C21210091   4.708   2.595   6.112  0.0448 -0.4428 -0.1796
  100SAPE  H12R10092   4.732   2.501   6.060  2.9783  0.3356 -0.4157
  100SAPE  C21310093   4.645   2.699   6.028  0.3341 -0.2384  0.4517
  100SAPE  H13R10094   4.715   2.775   5.987  0.2208 -0.2551  0.2221
  100SAPE  H13S10095   4.579   2.757   6.096  0.6984  3.8039 -2.2777
  100SAPE  C21410096   4.555   2.637   5.923 -0.7004 -0.7509  0.5375
  100SAPE  H14R10097   4.469   2.583   5.964 -1.8077  1.5674  1.4220
  100SAPE  C21510098   4.578   2.634   5.790  0.1271  0.2406 -0.2319
  100SAPE  H15R10099   4.505   2.589   5.721 -2.3367 -0.4150  2.5655
  100SAPE  C21610100   4.701   2.691   5.719  0.3648  0.0775  0.4305
  100SAPE  H16R10101   4.787   2.622   5.715  0.4084  0.1535  0.0523
  100SAPE  H16S10102   4.741   2.783   5.767  2.1711 -0.2384 -0.3991
  100SAPE  C21710103   4.673   2.719   5.564  0.3827 -0.1901  0.0083
  100SAPE  H17R10104   4.601   2.800   5.540  0.6056 -0.0493 -0.1849
  100SAPE  H17S10105   4.642   2.619   5.526 -2.9937  0.7320  0.0737
  100SAPE  C21810106   4.800   2.762   5.492 -0.1795  0.0981  0.2599
  100SAPE  H18R10107   4.870   2.678   5.515 -1.7383 -0.6673  2.4877
  100SAPE  H18S10108   4.840   2.860   5.525 -0.6050  1.0748 -1.9325
  100SAPE  C21910109   4.782   2.782   5.343 -0.7236 -0.0420  0.7321
  100SAPE  H19R10110   4.732   2.879   5.327 -0.6870 -0.2523 -0.9462
  100SAPE  H19S10111   4.712   2.705   5.302 -0.9499  0.4963  0.0949
  100SAPE  C22010112   4.913   2.781   5.270  0.1433 -1.0632  0.1373
  100SAPE  H20R10113   4.972   2.691   5.299 -0.7674 -1.7713 -0.1679
  100SAPE  H20S10114   4.977   2.871   5.288 -0.8227 -0.4200  0.4024
  100SAPE  H20T10115   4.908   2.779   5.159 -1.3726 -0.8010  0.1796
  100SAPE   C3310116   5.513   2.398   6.687 -0.4602  0.2758  0.1705
  100SAPE   H3X10117   5.577   2.458   6.619 -2.0691  0.8457 -0.9088
  100SAPE   H3Y10118   5.404   2.406   6.666 -0.8282 -0.9162  1.4394
  100SAPE   C3410119   5.557   2.252   6.669  0.3612  0.9155  0.0688
  100SAPE   H4X10120   5.507   2.193   6.749  1.0122  0.9811  0.5349
  100SAPE   H4Y10121   5.665   2.234   6.687  0.4195 -0.9488 -1.7938
  100SAPE   C3510122   5.527   2.203   6.531  0.5727  0.3776 -0.5019
  100SAPE   H5X10123   5.419   2.227   6.519  0.4763 -0.2049 -0.8274
  100SAPE   H5Y10124   5.536   2.092   6.528 -2.0345  0.1324 -2.0801
  100SAPE   C3610125   5.603   2.280   6.416 -0.0629 -0.7788 -0.3824
  100SAPE   H6X10126   5.705   2.241   6.432  0.6793  1.5998  1.3040
  100SAPE   H6Y10127   5.599   2.391   6.426 -0.1247 -0.8252  0.1720
  100SAPE   C3710128   5.545   2.234   6.278 -0.2592  0.1789 -0.5550
  100SAPE   H7X10129   5.482   2.313   6.231 -0.5126  0.1638 -0.2376
  100SAPE   H7Y10130   5.478   2.147   6.288 -1.7386  1.2096 -1.1418
  100SAPE   C3810131   5.662   2.200   6.182 -0.1072 -0.5661 -0.1342
  100SAPE   H8X10132   5.710   2.111   6.228  0.5712 -0.4692 -0.6452
  100SAPE   H8Y10133   5.737   2.281   6.181 -1.8280  1.1009  0.0086
  100SAPE   C3910134   5.617   2.175   6.039 -0.2231  0.4862 -0.2711
  100SAPE   H9X10135   5.592   2.265   5.978  2.4207  0.1563 -2.0113
  100SAPE   H9Y10136   5.533   2.102   6.037 -0.7425  1.0365  0.7032
  100SAPE  C31010137   5.740   2.110   5.975 -0.3891 -0.2700  0.1665
  100SAPE  H10X10138   5.718   2.002   5.957  0.5352 -0.4261 -0.0532
  100SAPE  H10Y10139   5.830   2.107   6.039 -0.1579 -2.7464 -0.1624
  100SAPE  C31110140   5.771   2.155   5.838  0.8163  0.5188  0.1936
  100SAPE  H11X10141   5.879   2.141   5.815  0.4700  2.3333 -3.1088
  100SAPE  H11Y10142   5.745   2.263   5.838  0.2976  0.3972  0.0029
  100SAPE  C31210143   5.707   2.072   5.714  0.2011  0.4321  0.2147
  100SAPE  H12X10144   5.750   1.970   5.706 -1.4468 -0.2778  0.0519
  100SAPE  H12Y10145   5.736   2.132   5.625  0.2760 -0.5455 -0.4325
  100SAPE  C31310146   5.553   2.042   5.701  0.0893  0.0556 -0.4918
  100SAPE  H13X10147   5.509   1.996   5.792  0.5215  1.1075  0.2666
  100SAPE  H13Y10148   5.541   1.963   5.623 -3.3050  1.5857 -1.6974
  100SAPE  C31410149   5.469   2.161   5.653  0.2275  1.2339 -0.1550
  100SAPE  H14X10150   5.510   2.187   5.553  1.9254 -0.9080 -0.0808
  100SAPE  H14Y10151   5.472   2.251   5.719  0.0899  1.2574 -0.1801
  100SAPE  C31510152   5.318   2.132   5.636 -0.5002  0.8283  0.0850
  100SAPE  H15X10153   5.288   2.088   5.734 -0.2859 -0.1889 -0.2901
  100SAPE  H15Y10154   5.305   2.055   5.557 -2.1957 -1.5368  2.4735
  100SAPE  C31610155   5.238   2.257   5.602  1.0005  0.6831  0.1788
  100SAPE  H16X10156   5.249   2.335   5.680  0.0197  0.5795  0.4391
  100SAPE  H16Y10157   5.129   2.235   5.598  1.4108 -1.7540  0.8642
  100SAPE  C31710158   5.275   2.320   5.468  0.3267  0.0240 -0.1746
  100SAPE  H17X10159   5.237   2.265   5.379  2.3118  2.6886 -2.8813
  100SAPE  H17Y10160   5.382   2.330   5.442  0.3066 -0.4817 -0.4577
  100SAPE  C31810161   5.232   2.471   5.453 -0.2564  0.2352  0.4205
  100SAPE  H18X10162   5.134   2.480   5.505 -0.6701 -2.7581  0.3344
  100SAPE  H18Y10163   5.228   2.501   5.346 -0.3375 -4.6229 -1.1774
  100SAPE  H18Z10164   5.297   2.542   5.509 -1.6242  0.4323  1.8442
  101SAPE     N10165   3.626   4.611   7.034 -0.0704 -0.1639  0.7117
  101SAPE   HN110166   3.592   4.545   7.106 -1.2351 -0.0561  0.2820
  101SAPE   HN210167   3.603   4.561   6.946 -1.4472  0.0460  0.9238
  101SAPE   HN310168   3.729   4.619   7.040  0.0683 -0.9059 -0.4067
  101SAPE   C1210169   3.564   4.745   7.054  0.0598  0.0766  0.0700
  101SAPE  H12A10170   3.563   4.763   7.164  3.0875 -0.0631  0.2097
  101SAPE  H12B10171   3.462   4.740   7.009 -0.0271  2.9728 -0.2312
  101SAPE   C1110172   3.651   4.855   6.983  0.2369  0.8484  0.0307
  101SAPE  H11A10173   3.590   4.948   6.981 -2.2589 -0.6998 -0.4407
  101SAPE  H11B10174   3.665   4.822   6.877  2.4577 -2.4082  1.1660
  101SAPE     P10175   3.826   4.984   7.125  0.2412  0.0532  0.1394
  101SAPE   O1310176   3.749   4.958   7.249 -0.5797  0.1564  0.4097
  101SAPE   O1410177   3.975   4.982   7.133 -0.3281  0.4405 -0.3671
  101SAPE   O1210178   3.784   4.873   7.029  0.0871  0.0581 -0.1519
  101SAPE   O1110179   3.764   5.105   7.056  0.1321  0.0689 -0.1225
  101SAPE    C110180   3.832   5.179   6.958 -0.1821  0.6605 -0.3505
  101SAPE    HA10181   3.940   5.157   6.947 -0.0408  1.0693  0.1865
  101SAPE    HB10182   3.780   5.151   6.864  0.2836  0.4036 -0.5391
  101SAPE    C210183   3.820   5.329   6.969  0.4480  0.2763 -0.1387
  101SAPE    HS10184   3.713   5.345   6.990  0.6717 -0.5395  1.8998
  101SAPE   O2110185   3.857   5.391   6.845  0.2344 -0.7096  0.0395
  101SAPE   C2110186   3.769   5.478   6.787  0.3276  0.2664  0.2899
  101SAPE   O2210187   3.654   5.490   6.807  0.1946  0.3066 -0.2289
  101SAPE   C2210188   3.860   5.569   6.700  0.1189  0.2789  0.3649
  101SAPE   H2R10189   3.954   5.602   6.749  1.5926  0.6895 -2.5328
  101SAPE   H2S10190   3.871   5.510   6.606 -1.2278 -1.0045  0.9677
  101SAPE    C310191   3.914   5.390   7.072  0.0011 -0.0746  0.7357
  101SAPE    HX10192   4.017   5.372   7.034  0.2678  1.5580  0.5814
  101SAPE    HY10193   3.896   5.331   7.164  1.5220  0.6048  1.5132
  101SAPE   O3110194   3.881   5.528   7.084  0.1810  0.0945  0.4078
  101SAPE   C3110195   3.912   5.581   7.206 -0.4099 -0.7191  0.6541
  101SAPE   O3210196   3.971   5.526   7.296 -0.4295  0.1059  0.2219
  101SAPE   C3210197   3.848   5.715   7.210  0.7902  0.2550 -0.5129
  101SAPE   H2X10198   3.914   5.764   7.285 -0.4112  1.0686  0.0433
  101SAPE   H2Y10199   3.740   5.699   7.230 -0.0408  3.2403 -1.9745
  101SAPE   C2310200   3.782   5.699   6.663  0.1114 -0.5585 -0.6444
  101SAPE   H3R10201   3.723   5.737   6.750 -0.9309 -1.0003 -1.1368
  101SAPE   H3S10202   3.711   5.672   6.582  1.5601 -1.1096 -1.7741
  101SAPE   C2410203   3.879   5.801   6.601 -0.1323  0.5623 -0.7706
  101SAPE   H4R10204   3.926   5.768   6.505 -1.1334  1.5708 -1.6273
  101SAPE   H4S10205   3.961   5.827   6.672 -1.1990 -0.2085  0.8066
  101SAPE   C2510206   3.798   5.927   6.566  0.5881  0.2927 -0.4008
  101SAPE   H5R10207   3.767   5.992   6.649 -1.7253  0.4295 -1.3109
  101SAPE   C2610208   3.756   5.964   6.447  0.2557  0.2726  0.3017
  101SAPE   H6R10209   3.702   6.061   6.450 -0.5468 -0.0656 -1.8349
  101SAPE   C2710210   3.767   5.901   6.308  0.7319 -0.9822  0.4044
  101SAPE   H7R10211   3.681   5.928   6.243  1.7405  1.3089 -0.0815
  101SAPE   H7S10212   3.738   5.794   6.320  0.2705 -0.6239  2.8118
  101SAPE   C2810213   3.898   5.918   6.239  0.3266  0.1085 -0.1691
  101SAPE   H8R10214   3.982   5.854   6.271  0.2486  1.5889  3.5823
  101SAPE   C2910215   3.922   6.002   6.138 -0.1139 -0.4606 -0.4933
  101SAPE   H9R10216   4.022   6.002   6.091 -0.1827 -0.5293 -0.6431
  101SAPE  C21010217   3.812   6.088   6.077 -0.1585 -0.2181 -0.1314
  101SAPE  H10R10218   3.769   6.151   6.157  1.7372  1.5030 -0.3888
  101SAPE  H10S10219   3.739   6.010   6.046  0.6581 -1.5711  1.1973
  101SAPE  C21110220   3.844   6.198   5.982 -0.0823  0.0281  0.7793
  101SAPE  H11R10221   3.879   6.294   6.022 -0.9027  0.3120  0.8354
  101SAPE  C21210222   3.850   6.189   5.846 -0.2442  0.1751 -0.0466
  101SAPE  H12R10223   3.878   6.281   5.793 -1.3138  0.3794 -0.2892
  101SAPE  C21310224   3.824   6.058   5.762  0.2699  0.0887  0.6515
  101SAPE  H13R10225   3.833   5.968   5.827  0.5816 -0.4794 -0.1646
  101SAPE  H13S10226   3.897   6.052   5.679  0.1375 -1.6804  0.6195
  101SAPE  C21410227   3.684   6.061   5.713 -0.1982  0.4099  0.2507
  101SAPE  H14R10228   3.616   6.110   5.783 -1.1114 -0.5784  0.0673
  101SAPE  C21510229   3.634   6.003   5.602  0.0307  0.9391  0.5389
  101SAPE  H15R10230   3.533   6.029   5.566  0.6538  0.7321 -1.4596
  101SAPE  C21610231   3.726   5.948   5.496 -0.1350  0.4467  0.3132
  101SAPE  H16R10232   3.815   5.897   5.538 -1.9004 -2.7643  0.4876
  101SAPE  H16S10233   3.774   6.025   5.432 -0.1267  0.4775  0.3556
  101SAPE  C21710234   3.636   5.858   5.407  0.2333  0.6670 -0.8489
  101SAPE  H17R10235   3.527   5.876   5.401 -0.2839 -2.1173 -0.9127
  101SAPE  H17S10236   3.635   5.759   5.457  0.2740  1.8657  1.7259
  101SAPE  C21810237   3.693   5.821   5.267  0.1494 -0.1420 -0.3561
  101SAPE  H18R10238   3.634   5.738   5.222 -3.9307  1.5033  1.4296
  101SAPE  H18S10239   3.799   5.791   5.279 -0.2464 -1.0234  1.1767
  101SAPE  C21910240   3.693   5.933   5.153  0.1307  0.5047 -0.6977
  101SAPE  H19R10241   3.769   6.010   5.181  0.6893  0.1779 -1.2948
  101SAPE  H19S10242   3.592   5.978   5.167  0.2972  0.2136  1.8865
  101SAPE  C22010243   3.722   5.887   5.013  0.6768  0.5281 -0.0338
  101SAPE  H20R10244   3.821   5.836   5.005 -0.2784 -1.4998  0.6662
  101SAPE  H20S10245   3.715   5.977   4.948 -0.9998  1.4563  1.3733
  101SAPE  H20T10246   3.649   5.814   4.972 -0.7486  0.7970  1.9199
  101SAPE   C3310247   3.851   5.804   7.083  0.2347 -0.4347  0.4632
  101SAPE   H3X10248   3.757   5.794   7.025  0.4980 -2.2218  0.2940
  101SAPE   H3Y10249   3.938   5.796   7.015 -1.0281 -0.7682 -1.1893
  101SAPE   C3410250   3.852   5.958   7.116 -0.2158  1.1424 -0.2670
  101SAPE   H4X10251   3.948   5.991   7.161  1.7548 -1.6686 -2.1011
  101SAPE   H4Y10252   3.768   6.006   7.171 -0.0769 -1.4641  2.5156
  101SAPE   C3510253   3.862   6.036   6.983  0.1807 -0.4293 -0.0755
  101SAPE   H5X10254   3.795   5.991   6.906 -1.5706  0.8590  0.6205
  101SAPE   H5Y10255   3.961   6.020   6.936 -0.4141  0.7645 -1.8683
  101SAPE   C3610256   3.810   6.183   6.985  0.1406 -1.0302  0.6550
  101SAPE   H6X10257   3.845   6.240   7.073 -1.1039  0.2711  0.3457
  101SAPE   H6Y10258   3.699   6.182   6.996  0.2627  0.7566  2.5752
  101SAPE   C3710259   3.843   6.271   6.860 -0.3666 -0.3071  0.7030
  101SAPE   H7X10260   3.857   6.205   6.772  0.6503  1.0953 -0.2181
  101SAPE   H7Y10261   3.947   6.301   6.886  0.0464 -1.5723  0.5834
  101SAPE   C3810262   3.747   6.394   6.845 -0.3320 -0.4866 -0.0632
  101SAPE   H8X10263   3.728   6.435   6.947 -1.2662  0.0741 -0.4532
  101SAPE   H8Y10264   3.651   6.371   6.795 -1.6633  3.7032  0.1717
  101SAPE   C3910265   3.810   6.517   6.777 -0.0568  0.1085 -0.3820
  101SAPE   H9X10266   3.886   6.496   6.699 -0.4077  0.0281 -0.7111
  101SAPE   H9Y10267   3.855   6.578   6.858 -0.0677 -1.5120  0.8848
  101SAPE  C31010268   3.703   6.590   6.702  0.8618 -0.3495  0.4979
  101SAPE  H10X10269   3.611   6.590   6.764  1.8285 -0.6343  1.9889
  101SAPE  H10Y10270   3.685   6.528   6.612  0.4430  1.0041 -0.3619
  101SAPE  C31110271   3.756   6.728   6.655 -0.3185  1.1032 -0.4332
  101SAPE  H11X10272   3.829   6.703   6.575  2.2199  0.5581  1.8789
  101SAPE  H11Y10273   3.811   6.777   6.739 -0.7367 -1.3481  1.3974
  101SAPE  C31210274   3.636   6.829   6.623  0.2644  0.2021 -0.1131
  101SAPE  H12X10275   3.667   6.928   6.583 -0.9302  1.1226  1.1648
  101SAPE  H12Y10276   3.589   6.850   6.721  1.3570  0.1090  0.4467
  101SAPE  C31310277   3.536   6.767   6.531  0.2121 -0.0446 -0.1028
  101SAPE  H13X10278   3.450   6.837   6.520 -0.3155 -0.7751 -0.7591
  101SAPE  H13Y10279   3.493   6.671   6.567 -1.9847  0.2666 -1.6890
  101SAPE  C31410280   3.589   6.741   6.382 -0.2763 -0.7718  0.5296
  101SAPE  H14X10281   3.504   6.686   6.337  2.3575 -4.8798  0.1217
  101SAPE  H14Y10282   3.670   6.666   6.387  0.3677 -0.0043  2.2326
  101SAPE  C31510283   3.612   6.870   6.301  0.1959  0.0160  0.5726
  101SAPE  H15X10284   3.696   6.932   6.339 -1.0956  0.8952  2.1129
  101SAPE  H15Y10285   3.526   6.940   6.311 -0.7074 -0.9596 -0.1561
  101SAPE  C31610286   3.636   6.853   6.150  0.5465  0.1023 -0.0130
  101SAPE  H16X10287   3.654   6.950   6.100 -1.8924 -0.6267 -2.6074
  101SAPE  H16Y10288   3.542   6.811   6.107  0.9144  1.6641 -2.5267
  101SAPE  C31710289   3.744   6.752   6.104 -0.0407  0.0407 -0.0216
  101SAPE  H17X10290   3.698   6.651   6.114 -1.0364  0.5259  0.4546
  101SAPE  H17Y10291   3.820   6.771   6.183 -0.6565  1.7678  0.2005
  101SAPE  C31810292   3.805   6.768   5.966  0.3130 -0.0280  0.3992
  101SAPE  H18X10293   3.747   6.714   5.887  0.6279  0.1218  0.0626
  101SAPE  H18Y10294   3.905   6.719   5.967  0.6744  0.6293 -0.8801
  101SAPE  H18Z10295   3.805   6.878   5.953 -1.5806 -0.0317 -0.0034
  102SAPE     N10296   3.873   4.034   7.388  0.3704 -0.2961 -0.4162
  102SAPE   HN110297   3.953   4.091   7.421  1.7423 -2.8605  0.9786
  102SAPE   HN210298   3.813   4.009   7.470 -1.0219 -0.1694 -1.3535
  102SAPE   HN310299   3.913   3.942   7.361  1.8380  0.2715 -0.2221
  102SAPE   C1210300   3.790   4.084   7.269 -0.0968  0.5230  0.2484
  102SAPE  H12A10301   3.710   4.008   7.258 -0.4242  0.6195  1.7154
  102SAPE  H12B10302   3.845   4.079   7.173  1.4016 -2.2744  1.1270
  102SAPE   C1110303   3.726   4.219   7.292  0.0192  0.1100 -0.0122
  102SAPE  H11A10304   3.676   4.200   7.389  0.0340 -2.9659 -0.4927
  102SAPE  H11B10305   3.648   4.243   7.217  0.9736 -0.3214 -1.1643
  102SAPE     P10306   3.789   4.480   7.307 -0.0689 -0.0188 -0.1016
  102SAPE   O1310307   3.645   4.504   7.293  0.0738 -0.3693 -0.9642
  102SAPE   O1410308   3.861   4.558   7.411  0.8240 -0.1117  0.0349
  102SAPE   O1210309   3.819   4.325   7.315  0.6161  0.6752 -0.9061
  102SAPE   O1110310   3.851   4.522   7.170 -0.3066  0.5348  0.2110
  102SAPE    C110311   3.995   4.484   7.160 -0.1501  0.5363  0.2449
  102SAPE    HA10312   4.071   4.554   7.203  2.8042 -2.7500  0.8617
  102SAPE    HB10313   4.024   4.394   7.217  0.4715 -0.2463 -1.2549
  102SAPE    C210314   4.030   4.459   7.008 -0.4604  0.0527  0.4287
  102SAPE    HS10315   4.134   4.448   6.972 -1.0292  1.4827 -1.8457
  102SAPE   O2110316   3.964   4.550   6.917 -0.1997  0.0688  0.0419
  102SAPE   C2110317   4.025   4.663   6.913  0.0750 -0.4676 -0.0268
  102SAPE   O2210318   4.111   4.705   6.991  0.3542 -0.3775  0.0201
  102SAPE   C2210319   3.990   4.740   6.780 -0.0859  0.4112  0.3990
  102SAPE   H2R10320   4.005   4.672   6.694  1.2916  0.5161  0.5397
  102SAPE   H2S10321   3.880   4.755   6.793 -0.4325 -0.6104 -1.0439
  102SAPE    C310322   3.974   4.318   6.968 -0.6591  0.1739 -0.1455
  102SAPE    HX10323   3.864   4.318   6.978 -0.6138  1.0810  0.4469
  102SAPE    HY10324   4.013   4.241   7.039 -0.4063 -0.3344 -0.8293
  102SAPE   O3110325   4.017   4.277   6.841  0.8234  0.0424  0.3815
  102SAPE   C3110326   3.932   4.290   6.744  0.5554  0.9153  0.1750
  102SAPE   O3210327   3.811   4.295   6.751 -0.2702  0.1043  0.1326
  102SAPE   C3210328   4.009   4.282   6.608  0.2332 -0.3416 -0.6864
  102SAPE   H2X10329   4.103   4.227   6.631  0.3117  0.2612  0.4840
  102SAPE   H2Y10330   4.024   4.387   6.575 -2.6204  0.1381 -0.6784
  102SAPE   C2310331   4.057   4.876   6.767  0.1768  0.0688  0.2671
  102SAPE   H3R10332   4.156   4.860   6.718 -0.0213  1.9093 -0.8326
  102SAPE   H3S10333   4.073   4.938   6.857  0.8842 -1.0817  0.9569
  102SAPE   C2410334   3.965   4.958   6.661  0.0051  0.0975 -0.1463
  102SAPE   H4R10335   4.000   5.064   6.651 -0.5439  0.2833 -0.1328
  102SAPE   H4S10336   3.865   4.948   6.709  1.2107  2.2779  3.2054
  102SAPE   C2510337   3.954   4.883   6.531 -0.4582  0.4374 -0.0351
  102SAPE   H5R10338   3.875   4.806   6.531  1.2028 -1.3273  0.0891
  102SAPE   C2610339   4.036   4.900   6.424  0.0842  0.8081  0.9673
  102SAPE   H6R10340   4.004   4.833   6.342 -0.6616  0.8868  1.1951
  102SAPE   C2710341   4.140   5.002   6.404  0.6028 -0.4930  0.5400
  102SAPE   H7R10342   4.233   4.967   6.354  0.3562  0.9312 -1.0158
  102SAPE   H7S10343   4.170   5.048   6.501 -0.8493 -0.3510  0.9362
  102SAPE   C2810344   4.069   5.101   6.319  0.2809  0.8437  0.2077
  102SAPE   H8R10345   4.017   5.187   6.364 -2.2702  0.9703 -2.6378
  102SAPE   C2910346   4.077   5.105   6.190 -0.6273  0.2341 -0.3958
  102SAPE   H9R10347   4.018   5.185   6.142 -2.1868 -1.0482 -0.6924
  102SAPE  C21010348   4.138   5.004   6.097  0.3377  0.0534 -0.1349
  102SAPE  H10R10349   4.101   4.904   6.126  0.9763  0.4557  2.2858
  102SAPE  H10S10350   4.246   5.013   6.123  0.5422  1.2120 -1.2674
  102SAPE  C21110351   4.115   5.049   5.953  0.6965 -0.0282 -0.0909
  102SAPE  H11R10352   4.152   5.150   5.928 -0.6635  1.0074  1.7514
  102SAPE  C21210353   4.073   4.966   5.854  0.3973  0.2542 -0.0797
  102SAPE  H12R10354   4.052   5.009   5.755 -1.1871  0.6294  0.3926
  102SAPE  C21310355   4.053   4.818   5.865 -0.1888  0.6089  0.8623
  102SAPE  H13R10356   3.948   4.784   5.871 -0.6687  1.7462 -0.6507
  102SAPE  H13S10357   4.100   4.788   5.961  0.1251 -0.2123  0.4654
  102SAPE  C21410358   4.135   4.754   5.753  0.3682 -0.9021  0.4515
  102SAPE  H14R10359   4.221   4.809   5.714  0.4873  0.5381  2.5648
  102SAPE  C21510360   4.111   4.637   5.697  0.0374 -0.7530 -0.0941
  102SAPE  H15R10361   4.173   4.607   5.610  3.0548  1.0755  1.2385
  102SAPE  C21610362   3.997   4.548   5.733 -0.0928 -0.1587 -0.6827
  102SAPE  H16R10363   3.980   4.542   5.843 -1.7978 -1.0779 -0.9524
  102SAPE  H16S10364   4.031   4.446   5.704  0.3496 -0.2841  0.2272
  102SAPE  C21710365   3.868   4.575   5.654 -0.2589 -0.1468 -0.6504
  102SAPE  H17R10366   3.844   4.684   5.656  0.1174  0.0687 -3.4783
  102SAPE  H17S10367   3.786   4.513   5.695 -1.6099  0.5419 -2.2068
  102SAPE  C21810368   3.884   4.539   5.505 -0.1224 -0.3272  0.2941
  102SAPE  H18R10369   3.890   4.428   5.502  0.9569 -0.2726  0.0404
  102SAPE  H18S10370   3.983   4.578   5.476  0.1818 -1.3038 -0.0357
  102SAPE  C21910371   3.776   4.599   5.410  0.6124  0.4137 -0.1907
  102SAPE  H19R10372   3.771   4.706   5.438  2.7292  0.4557  0.1614
  102SAPE  H19S10373   3.677   4.573   5.453 -0.0611  1.4458 -1.0446
  102SAPE  C22010374   3.787   4.570   5.264  0.4567  0.5110 -0.0791
  102SAPE  H20R10375   3.888   4.592   5.223 -0.3563  1.3273 -1.7378
  102SAPE  H20S10376   3.723   4.627   5.193 -1.7641 -1.4897  0.1985
  102SAPE  H20T10377   3.786   4.460   5.247 -1.2399  0.6334 -0.9828
  102SAPE   C3310378   3.920   4.218   6.503  0.1525 -0.5157  0.0248
  102SAPE   H3X10379   3.877   4.124   6.545 -0.3925 -1.7366 -3.0251
  102SAPE   H3Y10380   3.984   4.194   6.415  2.0556  0.0909  1.1793
  102SAPE   C3410381   3.812   4.316   6.442  0.3280 -0.1788  0.1609
  102SAPE   H4X10382   3.749   4.351   6.527  0.6152 -0.7771  0.6310
  102SAPE   H4Y10383   3.752   4.247   6.379 -0.6980  1.7598 -1.0868
  102SAPE   C3510384   3.860   4.428   6.366  0.4009  0.4774 -0.3902
  102SAPE   H5X10385   3.939   4.396   6.294  0.1860 -1.3279  0.1357
  102SAPE   H5Y10386   3.899   4.512   6.427  2.0700 -1.2124  1.0061
  102SAPE   C3610387   3.747   4.468   6.264 -0.5648 -0.5114  0.6171
  102SAPE   H6X10388   3.683   4.536   6.324  0.8609  0.0756  1.5389
  102SAPE   H6Y10389   3.708   4.371   6.228  1.6028 -0.7515 -1.3691
  102SAPE   C3710390   3.807   4.551   6.151 -0.3790 -0.0801  0.7031
  102SAPE   H7X10391   3.884   4.497   6.092  1.4436  2.3215  0.7377
  102SAPE   H7Y10392   3.863   4.637   6.192 -1.6839  1.3517 -0.3980
  102SAPE   C3810393   3.708   4.610   6.044 -0.0945  0.0671  0.3679
  102SAPE   H8X10394   3.764   4.655   5.959  2.5011  2.4118  3.1172
  102SAPE   H8Y10395   3.660   4.698   6.090  1.9198  1.1523  0.4882
  102SAPE   C3910396   3.596   4.515   5.996 -0.7300 -0.0672 -0.5001
  102SAPE   H9X10397   3.539   4.472   6.081 -0.4960  0.2998 -0.1517
  102SAPE   H9Y10398   3.629   4.425   5.940 -0.1069 -0.1922  0.0507
  102SAPE  C31010399   3.494   4.591   5.907 -0.6957  0.4102  0.1329
  102SAPE  H10X10400   3.554   4.635   5.823 -1.6307 -2.8800 -2.4478
  102SAPE  H10Y10401   3.436   4.677   5.948  0.7540  1.2560  0.4971
  102SAPE  C31110402   3.399   4.492   5.834 -0.3478 -0.7795 -0.3614
  102SAPE  H11X10403   3.334   4.440   5.907  2.6490 -1.5500  2.0047
  102SAPE  H11Y10404   3.453   4.414   5.776  0.0921 -0.3031 -0.6026
  102SAPE  C31210405   3.306   4.561   5.726 -0.1331  0.8756  0.0535
  102SAPE  H12X10406   3.360   4.587   5.633 -1.5710  0.8999 -0.7963
  102SAPE  H12Y10407   3.271   4.657   5.769 -0.5740  0.1693  1.3350
  102SAPE  C31310408   3.180   4.486   5.691  0.3258 -0.2398 -0.5101
  102SAPE  H13X10409   3.112   4.491   5.779  0.6610 -2.6339 -0.0343
  102SAPE  H13Y10410   3.199   4.378   5.673 -1.5840 -1.3049  2.8866
  102SAPE  C31410411   3.095   4.529   5.569  0.1242 -0.2664 -0.2162
  102SAPE  H14X10412   3.002   4.467   5.572  0.5223 -0.9201 -0.9862
  102SAPE  H14Y10413   3.150   4.500   5.477 -2.4455  1.4044 -2.4538
  102SAPE  C31510414   3.054   4.675   5.571 -0.3882  0.4511  0.0835
  102SAPE  H15X10415   3.137   4.743   5.543 -0.8528  1.6960  1.6127
  102SAPE  H15Y10416   3.031   4.698   5.677 -3.1720 -0.8889 -0.1361
  102SAPE  C31610417   2.926   4.709   5.489 -0.1791 -0.4905  0.0656
  102SAPE  H16X10418   2.904   4.814   5.515  1.4508  0.4770 -2.1409
  102SAPE  H16Y10419   2.839   4.646   5.518  0.5320 -1.7648 -0.4536
  102SAPE  C31710420   2.936   4.694   5.339 -0.1325  0.6484 -0.5968
  102SAPE  H17X10421   2.843   4.650   5.297  0.4846 -1.4221  0.0579
  102SAPE  H17Y10422   3.015   4.617   5.320 -0.3996  0.7060 -2.0353
  102SAPE  C31810423   2.970   4.829   5.281 -0.1147  0.6171 -0.2098
  102SAPE  H18X10424   2.896   4.907   5.307 -1.3820  0.2711 -2.5546
  102SAPE  H18Y10425   2.962   4.827   5.170 -1.2825  0.0580 -0.1275
  102SAPE  H18Z10426   3.070   4.873   5.304 -0.2478  0.1392  1.4154
  103SAPE     N10427   3.316   6.585   2.828 -0.2246 -0.5659  0.2267
  103SAPE   HN110428   3.354   6.678   2.856 -2.7243  0.6235 -0.0097
  103SAPE   HN210429   3.399   6.541   2.783 -0.3684 -0.2586 -0.3631
  103SAPE   HN310430   3.246   6.604   2.753  0.7331 -0.5380 -0.6946
  103SAPE   C1210431   3.280   6.494   2.946  0.9210 -0.6004 -0.3301
  103SAPE  H12A10432   3.234   6.401   2.905  0.2261  0.0884 -1.1619
  103SAPE  H12B10433   3.203   6.545   3.008  0.1708 -2.3785  0.2651
  103SAPE   C1110434   3.402   6.454   3.022 -0.5415  0.5598  0.1683
  103SAPE  H11A10435   3.378   6.396   3.114 -0.7103 -0.3144 -0.4168
  103SAPE  H11B10436   3.464   6.540   3.055 -0.3663  0.8836 -0.9778
  103SAPE     P10437   3.495   6.220   2.909 -0.3412 -0.2810  0.0824
  103SAPE   O1310438   3.366   6.170   2.855 -0.1908 -0.1140 -0.0624
  103SAPE   O1410439   3.614   6.196   2.818  0.0116 -0.5260 -0.1919
  103SAPE   O1210440   3.490   6.373   2.943 -0.4408  0.6053 -0.2467
  103SAPE   O1110441   3.523   6.152   3.046  0.2732  1.0535  0.0302
  103SAPE    C110442   3.610   6.201   3.142 -0.4691 -0.2988 -0.4255
  103SAPE    HA10443   3.712   6.158   3.128 -0.6033 -1.3305  1.4041
  103SAPE    HB10444   3.631   6.310   3.136  2.3430 -0.7262  0.4007
  103SAPE    C210445   3.573   6.170   3.288 -0.0719 -0.4316  0.4265
  103SAPE    HS10446   3.587   6.061   3.299  1.6467 -0.3323 -0.3081
  103SAPE   O2110447   3.442   6.203   3.326  0.5354 -0.1584 -0.2049
  103SAPE   C2110448   3.344   6.120   3.296  0.6565  0.0423 -0.3607
  103SAPE   O2210449   3.353   6.010   3.246  0.2354 -0.3849  0.3651
  103SAPE   C2210450   3.215   6.170   3.365 -0.0939 -0.3189  0.2186
  103SAPE   H2R10451   3.186   6.264   3.315  1.4196  0.4049  0.6438
  103SAPE   H2S10452   3.142   6.091   3.337  1.6391 -1.6210 -0.8597
  103SAPE    C310453   3.662   6.247   3.384  1.1394  0.7934 -0.2350
  103SAPE    HX10454   3.621   6.349   3.381  1.4214  0.9507  0.7487
  103SAPE    HY10455   3.767   6.253   3.349  0.5854  0.1858 -2.1077
  103SAPE   O3110456   3.658   6.189   3.518  0.0898 -0.0939 -0.0373
  103SAPE   C3110457   3.593   6.257   3.606 -0.5278 -0.6557 -0.3145
  103SAPE   O3210458   3.520   6.356   3.588  0.2457 -0.8572 -0.5772
  103SAPE   C3210459   3.613   6.181   3.737 -0.1994  0.1161  0.2821
  103SAPE   H2X10460   3.722   6.175   3.756  0.1985 -0.2270 -1.8353
  103SAPE   H2Y10461   3.592   6.074   3.717  1.9426 -0.1130 -1.0559
  103SAPE   C2310462   3.220   6.200   3.514 -0.7706 -0.4110 -0.2471
  103SAPE   H3R10463   3.119   6.233   3.546 -0.2614 -0.7326  1.8296
  103SAPE   H3S10464   3.297   6.280   3.526 -1.8293  0.7019 -0.7419
  103SAPE   C2410465   3.267   6.088   3.615 -0.3472 -0.0542  0.3787
  103SAPE   H4R10466   3.293   6.142   3.709  3.4132  0.8893 -1.0287
  103SAPE   H4S10467   3.366   6.044   3.592  0.9675  2.4386  0.8355
  103SAPE   C2510468   3.149   5.992   3.615 -0.5646 -0.0359  0.4423
  103SAPE   H5R10469   3.155   5.921   3.531  1.3961  0.3587  0.2008
  103SAPE   C2610470   3.066   5.980   3.715 -0.2540 -0.1791 -0.0389
  103SAPE   H6R10471   2.972   5.924   3.706  0.0030 -0.6517  0.1972
  103SAPE   C2710472   3.079   6.076   3.830 -0.8742  0.4371  0.1254
  103SAPE   H7R10473   3.066   6.180   3.792  0.2553  0.1720 -1.0592
  103SAPE   H7S10474   3.182   6.070   3.871 -0.4978  0.3531 -0.7977
  103SAPE   C2810475   2.973   6.051   3.939  0.1885  0.0111  0.0465
  103SAPE   H8R10476   2.871   6.083   3.914  0.6122  1.2468 -0.1660
  103SAPE   C2910477   2.997   6.020   4.065  0.4110 -0.1774 -0.4039
  103SAPE   H9R10478   2.917   6.013   4.141  1.2036  0.7644  0.5542
  103SAPE  C21010479   3.132   5.980   4.115 -0.2089 -0.3167  0.0195
  103SAPE  H10R10480   3.184   6.074   4.143 -1.7817 -0.1711  2.8207
  103SAPE  H10S10481   3.199   5.938   4.037 -1.5061  0.0285 -1.3124
  103SAPE  C21110482   3.133   5.883   4.231  0.1514 -0.5931  0.0660
  103SAPE  H11R10483   3.103   5.779   4.217  0.4917 -0.7582  0.5401
  103SAPE  C21210484   3.153   5.922   4.355 -0.6941  0.0493  0.2393
  103SAPE  H12R10485   3.142   5.849   4.437 -1.1230  0.7730  0.8351
  103SAPE  C21310486   3.178   6.057   4.409 -0.0880  0.8217 -0.1443
  103SAPE  H13R10487   3.128   6.072   4.507 -1.4993  0.5951 -0.8129
  103SAPE  H13S10488   3.113   6.127   4.353 -0.0990  0.8859 -0.0524
  103SAPE  C21410489   3.328   6.091   4.408  0.3772  0.7609  0.0179
  103SAPE  H14R10490   3.378   6.019   4.343 -2.4813 -0.4106 -1.0692
  103SAPE  C21510491   3.398   6.178   4.479  0.7566 -0.3924 -0.1313
  103SAPE  H15R10492   3.507   6.175   4.464  0.6876 -1.5248 -0.5784
  103SAPE  C21610493   3.326   6.267   4.586 -0.6386 -0.2034  0.0001
  103SAPE  H16R10494   3.228   6.224   4.615  0.4167 -2.7984  0.0851
  103SAPE  H16S10495   3.305   6.366   4.541 -0.9359 -0.5895 -0.7184
  103SAPE  C21710496   3.409   6.280   4.718 -0.0373 -0.1052  0.1487
  103SAPE  H17R10497   3.512   6.312   4.692 -0.2011  1.0568  0.8706
  103SAPE  H17S10498   3.420   6.177   4.759 -1.1445 -0.2191  0.2128
  103SAPE  C21810499   3.342   6.364   4.829 -0.0628  0.2287  0.0119
  103SAPE  H18R10500   3.255   6.301   4.859  0.4930 -1.4047 -1.6598
  103SAPE  H18S10501   3.302   6.460   4.792  0.5721  0.5469  0.1528
  103SAPE  C21910502   3.434   6.384   4.957  0.0316  0.0890 -0.2738
  103SAPE  H19R10503   3.499   6.470   4.930  1.7324 -0.7329  1.0441
  103SAPE  H19S10504   3.500   6.297   4.974 -0.6850  0.0181  2.5275
  103SAPE  C22010505   3.344   6.405   5.079  0.0816 -0.6992 -0.4848
  103SAPE  H20R10506   3.269   6.486   5.064  1.9628  1.0481 -0.9978
  103SAPE  H20S10507   3.398   6.421   5.175 -0.8216 -0.4447 -0.0097
  103SAPE  H20T10508   3.279   6.317   5.096 -1.0470  0.2356  0.2470
  103SAPE   C3310509   3.521   6.240   3.849  0.0041 -1.2060  0.0310
  103SAPE   H3X10510   3.429   6.273   3.795  0.2411 -1.0748 -0.3003
  103SAPE   H3Y10511   3.561   6.339   3.879 -0.5020 -0.9604 -0.0826
  103SAPE   C3410512   3.478   6.147   3.960  0.0887 -0.7187  0.3297
  103SAPE   H4X10513   3.445   6.052   3.914 -0.0351 -0.3368 -0.3779
  103SAPE   H4Y10514   3.395   6.198   4.013  0.8300  2.6451 -1.4010
  103SAPE   C3510515   3.587   6.114   4.060 -0.3269 -0.0539  0.0695
  103SAPE   H5X10516   3.670   6.058   4.011 -0.0163  1.2275 -0.9228
  103SAPE   H5Y10517   3.550   6.040   4.134  1.6622 -3.7070 -2.2261
  103SAPE   C3610518   3.645   6.231   4.138  0.0750 -0.0585 -0.7470
  103SAPE   H6X10519   3.556   6.284   4.180  2.5495  2.4703  1.7011
  103SAPE   H6Y10520   3.698   6.304   4.074 -1.3024  2.4696  0.8289
  103SAPE   C3710521   3.731   6.187   4.257  0.5186 -0.1794 -0.3061
  103SAPE   H7X10522   3.787   6.102   4.212 -0.4509 -2.4094  2.4735
  103SAPE   H7Y10523   3.666   6.125   4.322 -0.3117  1.6669  0.7177
  103SAPE   C3810524   3.802   6.292   4.339 -0.3882 -0.2603  0.0182
  103SAPE   H8X10525   3.755   6.392   4.334 -0.6464 -0.0813  3.5858
  103SAPE   H8Y10526   3.900   6.304   4.288 -1.2207 -3.0179 -2.5336
  103SAPE   C3910527   3.827   6.264   4.491  0.7979 -0.3192 -0.5574
  103SAPE   H9X10528   3.731   6.234   4.539  0.9978  0.1630  0.1607
  103SAPE   H9Y10529   3.868   6.354   4.542  0.0929 -0.4424  0.2679
  103SAPE  C31010530   3.922   6.147   4.519 -0.1591 -0.1624  0.0913
  103SAPE  H10X10531   4.004   6.149   4.445  0.1260  0.7229  0.4089
  103SAPE  H10Y10532   3.881   6.044   4.526  0.5338 -0.4428  0.0664
  103SAPE  C31110533   3.977   6.164   4.663 -0.4284 -0.2103  0.3021
  103SAPE  H11X10534   3.910   6.117   4.738 -1.5953 -2.8983 -2.2295
  103SAPE  H11Y10535   4.001   6.267   4.697  2.2130 -0.3953 -0.7091
  103SAPE  C31210536   4.110   6.083   4.665 -0.1572  0.1077 -0.3944
  103SAPE  H12X10537   4.173   6.110   4.577  0.9912 -1.4802 -0.0971
  103SAPE  H12Y10538   4.090   5.974   4.658  1.1695 -0.2586  1.0516
  103SAPE  C31310539   4.192   6.109   4.800 -0.6261  0.4771 -0.3126
  103SAPE  H13X10540   4.248   6.204   4.796  0.5397 -0.1742  0.2328
  103SAPE  H13Y10541   4.276   6.038   4.814 -2.7172 -1.9363  1.1150
  103SAPE  C31410542   4.104   6.091   4.925  0.1815 -0.4992 -0.2959
  103SAPE  H14X10543   4.053   5.992   4.924  1.6016 -1.2800  0.7547
  103SAPE  H14Y10544   4.027   6.168   4.947 -1.1986 -2.0209  0.4110
  103SAPE  C31510545   4.196   6.102   5.049 -0.8301 -0.1867  0.1952
  103SAPE  H15X10546   4.269   6.187   5.049  0.2181 -1.0671  0.3709
  103SAPE  H15Y10547   4.252   6.006   5.053 -1.6533 -0.6455  0.9751
  103SAPE  C31610548   4.113   6.109   5.180  1.5493 -0.2677  0.0459
  103SAPE  H16X10549   4.050   6.020   5.200 -0.4263  1.1704  0.5252
  103SAPE  H16Y10550   4.044   6.196   5.180  2.8773  0.8750 -1.9088
  103SAPE  C31710551   4.185   6.122   5.315  0.2200 -0.0568 -0.1379
  103SAPE  H17X10552   4.220   6.227   5.309 -0.6919  0.3227  0.9213
  103SAPE  H17Y10553   4.271   6.052   5.321  1.7052  1.6374 -0.7937
  103SAPE  C31810554   4.099   6.099   5.443  0.0043  0.4401 -0.6623
  103SAPE  H18X10555   4.154   6.115   5.538 -0.5502  2.0745 -0.5739
  103SAPE  H18Y10556   4.066   5.993   5.449 -1.7371  0.9530 -0.5612
  103SAPE  H18Z10557   4.010   6.166   5.440 -0.2893  0.0416 -0.9224
  104SAPE     N10558   1.520   3.577   3.342  0.1540  0.1387  0.1082
  104SAPE   HN110559   1.478   3.556   3.435  0.6980 -0.1348  0.2967
  104SAPE   HN210560   1.462   3.561   3.257  1.2068  2.0785 -1.0617
  104SAPE   HN310561   1.596   3.508   3.326  1.0506  1.7318 -3.6376
  104SAPE   C1210562   1.584   3.714   3.335 -1.1489 -0.2118 -0.4120
  104SAPE  H12A10563   1.653   3.711   3.247 -1.9092 -2.2922 -0.9930
  104SAPE  H12B10564   1.626   3.732   3.436  0.6535  0.1636 -1.1869
  104SAPE   C1110565   1.475   3.823   3.319  0.5366  0.1253 -1.0146
  104SAPE  H11A10566   1.422   3.836   3.416 -0.0608 -0.9315 -1.1873
  104SAPE  H11B10567   1.409   3.784   3.239  0.0279  2.3386 -1.7425
  104SAPE     P10568   1.547   4.077   3.335 -0.6501  0.1869 -0.1519
  104SAPE   O1310569   1.682   4.118   3.378  0.6511  0.0605 -0.4121
  104SAPE   O1410570   1.483   4.170   3.242  0.5068 -0.2153 -0.2565
  104SAPE   O1210571   1.551   3.936   3.278  0.6784 -0.3039 -0.0066
  104SAPE   O1110572   1.460   4.062   3.460 -0.2556  0.0628 -0.5894
  104SAPE    C110573   1.357   4.150   3.491  0.4388 -0.9330  0.0949
  104SAPE    HA10574   1.403   4.243   3.532 -0.9657 -0.6715  1.1587
  104SAPE    HB10575   1.291   4.172   3.404 -1.6939 -0.4702  1.7285
  104SAPE    C210576   1.261   4.101   3.605  0.0643  0.1437  0.1971
  104SAPE    HS10577   1.176   4.172   3.610 -0.0772  0.0395 -0.5716
  104SAPE   O2110578   1.312   4.102   3.739 -0.8320 -0.1586  0.6325
  104SAPE   C2110579   1.364   4.220   3.787 -0.1256  0.3512  0.2268
  104SAPE   O2210580   1.341   4.328   3.734 -0.1377 -0.2893 -0.2454
  104SAPE   C2210581   1.453   4.190   3.917  0.0215 -0.3944  0.3018
  104SAPE   H2R10582   1.439   4.082   3.939  1.9367 -1.3660 -2.5744
  104SAPE   H2S10583   1.556   4.210   3.882  0.4082 -0.0175  1.6161
  104SAPE    C310584   1.207   3.956   3.569 -0.5284 -0.2122  0.6311
  104SAPE    HX10585   1.291   3.885   3.557 -1.3241 -1.2623  1.1658
  104SAPE    HY10586   1.178   3.967   3.462  2.3388  1.0342 -0.1216
  104SAPE   O3110587   1.108   3.908   3.658 -0.0730  1.0106 -0.2741
  104SAPE   C3110588   1.144   3.819   3.754  0.0436  0.3672  0.6947
  104SAPE   O3210589   1.252   3.763   3.759 -0.0380 -0.0939 -0.9484
  104SAPE   C3210590   1.033   3.803   3.857 -0.4037  0.0539  0.3437
  104SAPE   H2X10591   0.996   3.699   3.847  1.7418 -0.6789 -0.3530
  104SAPE   H2Y10592   0.956   3.882   3.844 -1.3046 -0.9685 -0.7117
  104SAPE   C2310593   1.427   4.293   4.030  0.1598  0.0078  0.6494
  104SAPE   H3R10594   1.320   4.306   4.056  0.4539  0.1203  1.8653
  104SAPE   H3S10595   1.453   4.389   3.980  0.1298  0.1313  0.8716
  104SAPE   C2410596   1.516   4.283   4.146 -0.3358 -0.1004  0.0567
  104SAPE   H4R10597   1.504   4.377   4.205 -3.5926 -0.5548  0.2743
  104SAPE   H4S10598   1.621   4.269   4.112  0.1286 -0.2994  1.5030
  104SAPE   C2510599   1.489   4.164   4.232  0.0099  0.3779  0.6210
  104SAPE   H5R10600   1.512   4.068   4.185  0.2510  0.4092  0.6751
  104SAPE   C2610601   1.453   4.161   4.364  0.1463 -0.2866 -0.0020
  104SAPE   H6R10602   1.448   4.058   4.403  3.2390 -0.7295 -0.5911
  104SAPE   C2710603   1.426   4.274   4.458 -0.4503  0.1180 -0.0413
  104SAPE   H7R10604   1.445   4.377   4.420 -2.1740  0.3026 -0.4820
  104SAPE   H7S10605   1.497   4.272   4.544  0.6443 -0.5924 -0.9418
  104SAPE   C2810606   1.280   4.264   4.500 -0.4445  0.1507  0.2313
  104SAPE   H8R10607   1.210   4.287   4.419  0.2247  2.0696  0.1521
  104SAPE   C2910608   1.232   4.244   4.625  0.5476 -0.0367  0.2737
  104SAPE   H9R10609   1.123   4.233   4.634  0.6113  0.7956  3.0118
  104SAPE  C21010610   1.308   4.200   4.750  0.1923  0.1853  0.2251
  104SAPE  H10R10611   1.391   4.268   4.778 -0.7289  0.9426  1.2145
  104SAPE  H10S10612   1.344   4.098   4.724 -3.5571 -0.5474 -3.2066
  104SAPE  C21110613   1.219   4.198   4.874  0.2894 -0.0087  0.8813
  104SAPE  H11R10614   1.125   4.254   4.868  1.4000  1.9303  0.7121
  104SAPE  C21210615   1.247   4.135   4.991 -0.3915 -0.6191  0.5830
  104SAPE  H12R10616   1.184   4.150   5.080 -0.1178 -0.3588  0.7354
  104SAPE  C21310617   1.370   4.061   5.022 -0.2134  0.1789  0.2507
  104SAPE  H13R10618   1.433   4.057   4.931 -1.2211  3.1607 -0.6807
  104SAPE  H13S10619   1.341   3.957   5.046  0.1593  0.0346  0.0827
  104SAPE  C21410620   1.451   4.119   5.135 -0.2142  0.3479 -0.2537
  104SAPE  H14R10621   1.435   4.068   5.231 -3.5669  0.9145 -0.3875
  104SAPE  C21510622   1.522   4.235   5.146 -0.1035  0.4828 -0.7057
  104SAPE  H15R10623   1.563   4.257   5.245 -0.4674 -1.9811  0.0598
  104SAPE  C21610624   1.547   4.342   5.044  0.3707 -0.7522 -0.5116
  104SAPE  H16R10625   1.533   4.445   5.084  0.9963 -1.0842  0.6194
  104SAPE  H16S10626   1.466   4.331   4.969  0.2018  1.5225 -0.7369
  104SAPE  C21710627   1.684   4.329   4.980 -0.1363 -0.2869 -0.2138
  104SAPE  H17R10628   1.689   4.226   4.938 -1.0024 -0.6787  0.6160
  104SAPE  H17S10629   1.765   4.335   5.056  0.2607  2.3054 -0.7441
  104SAPE  C21810630   1.715   4.441   4.878 -0.1382 -0.2784  0.9185
  104SAPE  H18R10631   1.712   4.545   4.916 -0.6171  0.4576 -0.9988
  104SAPE  H18S10632   1.618   4.442   4.822 -0.6130 -1.2771  1.6962
  104SAPE  C21910633   1.844   4.421   4.794 -0.1534 -0.5325 -0.6221
  104SAPE  H19R10634   1.865   4.506   4.725  1.3155  1.5427  2.1698
  104SAPE  H19S10635   1.841   4.328   4.734 -4.3479 -0.4890 -0.7650
  104SAPE  C22010636   1.972   4.411   4.885 -0.0227 -0.9814 -0.0231
  104SAPE  H20R10637   2.064   4.388   4.827  1.4505  2.7114  0.5626
  104SAPE  H20S10638   1.958   4.327   4.956  3.5439  0.4386  2.6472
  104SAPE  H20T10639   1.981   4.506   4.942 -0.2075 -0.5043 -0.7646
  104SAPE   C3310640   1.085   3.821   4.004 -0.3841 -0.6954 -0.2370
  104SAPE   H3X10641   1.188   3.779   4.006 -0.6598 -1.3671  0.4909
  104SAPE   H3Y10642   1.010   3.777   4.074 -0.4662 -0.7902 -0.3851
  104SAPE   C3410643   1.103   3.966   4.050 -0.6092  0.5803  0.1210
  104SAPE   H4X10644   1.010   4.021   4.027 -1.0370  1.0912  2.8199
  104SAPE   H4Y10645   1.182   4.013   3.987  0.4279 -0.4603  0.5925
  104SAPE   C3510646   1.131   3.984   4.198 -0.4113 -0.6812 -0.3228
  104SAPE   H5X10647   1.170   4.086   4.222 -1.2690  0.1972 -2.4093
  104SAPE   H5Y10648   1.225   3.931   4.222 -0.9802 -0.8967  1.5785
  104SAPE   C3610649   1.017   3.945   4.287 -0.3005 -0.5971 -0.2055
  104SAPE   H6X10650   1.014   3.834   4.284 -0.9174 -0.5975  0.1710
  104SAPE   H6Y10651   0.925   3.998   4.254  1.1561  1.9328 -0.4308
  104SAPE   C3710652   1.039   3.990   4.436 -0.4331  0.3574 -0.5185
  104SAPE   H7X10653   1.038   4.100   4.450 -1.3046  0.3042 -0.0314
  104SAPE   H7Y10654   1.138   3.950   4.464 -0.7534 -0.4468 -0.4989
  104SAPE   C3810655   0.946   3.926   4.544 -0.0656 -0.6081  0.5472
  104SAPE   H8X10656   0.971   3.818   4.555  1.2505 -0.0492  4.0238
  104SAPE   H8Y10657   0.841   3.941   4.511  0.2831 -0.3279 -0.4969
  104SAPE   C3910658   0.953   4.001   4.681 -0.3450  0.2141 -0.1992
  104SAPE   H9X10659   0.934   4.109   4.660 -0.0997  0.8885  2.6270
  104SAPE   H9Y10660   1.043   3.989   4.745 -1.1789  0.9739  1.1637
  104SAPE  C31010661   0.834   3.959   4.765  0.5324 -0.1055 -0.1111
  104SAPE  H10X10662   0.835   3.849   4.780 -3.2291 -0.0667  1.4978
  104SAPE  H10Y10663   0.743   4.000   4.717  1.9136  2.0168 -1.0647
  104SAPE  C31110664   0.828   4.032   4.895  0.0341 -0.6995 -0.3785
  104SAPE  H11X10665   0.838   4.142   4.894  1.5261 -0.7870  0.8602
  104SAPE  H11Y10666   0.917   4.003   4.956  2.5534  0.3581 -3.3002
  104SAPE  C31210667   0.702   3.982   4.971  0.2013 -0.4032 -0.1483
  104SAPE  H12X10668   0.612   3.999   4.908 -0.6118 -1.4560  0.6793
  104SAPE  H12Y10669   0.696   4.048   5.060  0.4718 -1.7887  0.9374
  104SAPE  C31310670   0.711   3.839   5.009 -0.8712  0.9130 -0.0396
  104SAPE  H13X10671   0.815   3.804   4.987 -1.7394 -0.3987 -2.4950
  104SAPE  H13Y10672   0.658   3.782   4.930  0.6177 -0.1779 -0.3031
  104SAPE  C31410673   0.671   3.812   5.149  0.4853  0.0923 -0.1127
  104SAPE  H14X10674   0.723   3.888   5.210 -0.2307  1.1144 -0.7559
  104SAPE  H14Y10675   0.702   3.709   5.180 -0.0068 -0.0828 -0.1992
  104SAPE  C31510676   0.523   3.814   5.169  0.6920 -0.9443 -0.4450
  104SAPE  H15X10677   0.471   3.744   5.101  1.6103 -0.1489 -2.0332
  104SAPE  H15Y10678   0.487   3.914   5.136 -1.5075 -1.6005 -0.1447
  104SAPE  C31610679   0.481   3.768   5.307 -0.5171  0.0073  0.3873
  104SAPE  H16X10680   0.521   3.836   5.385 -1.0173 -0.0544  0.6973
  104SAPE  H16Y10681   0.521   3.669   5.339 -0.6044  0.0601  0.6605
  104SAPE  C31710682   0.331   3.764   5.331 -0.0991 -0.2375 -0.5497
  104SAPE  H17X10683   0.300   3.677   5.270 -0.6845  0.0806 -0.7159
  104SAPE  H17Y10684   0.275   3.846   5.280  0.0251  1.6909  2.1977
  104SAPE  C31810685   0.280   3.750   5.475 -0.4829  0.2030  0.3966
  104SAPE  H18X10686   0.313   3.840   5.532 -0.5050  0.4101  0.0846
  104SAPE  H18Y10687   0.338   3.669   5.524  1.5609  1.6678  0.5094
  104SAPE  H18Z10688   0.170   3.733   5.484 -0.2512 -0.1962  4.4344
  105SAPE     N10689   5.424   3.943   3.450  0.7041  0.5592  0.4220
  105SAPE   HN110690   5.329   3.907   3.472  0.2823  0.6117 -1.1409
  105SAPE   HN210691   5.407   4.045   3.437 -1.9088  0.4333  2.0839
  105SAPE   HN310692   5.455   3.898   3.362 -0.5476  0.1203  0.1888
  105SAPE   C1210693   5.518   3.936   3.558 -0.4978 -1.4802  0.2168
  105SAPE  H12A10694   5.523   3.838   3.610  0.8846 -0.5851  1.9041
  105SAPE  H12B10695   5.490   4.014   3.631 -0.1797 -1.4446  0.3054
  105SAPE   C1110696   5.663   3.974   3.516  0.2291  0.1209 -0.3264
  105SAPE  H11A10697   5.733   3.976   3.602  0.0792  0.3815 -0.2076
  105SAPE  H11B10698   5.672   4.080   3.484 -1.6135  0.6245  0.6768
  105SAPE     P10699   5.806   3.766   3.409  0.2458 -0.6418 -0.2106
  105SAPE   O1310700   5.770   3.674   3.300 -1.1835 -0.2608 -0.3904
  105SAPE   O1410701   5.945   3.826   3.405 -0.2677  0.1215 -0.3444
  105SAPE   O1210702   5.703   3.885   3.411  0.6002  0.1649 -0.1223
  105SAPE   O1110703   5.794   3.688   3.547 -0.0229 -0.2476  0.3175
  105SAPE    C110704   5.693   3.589   3.552 -0.1493 -0.3297 -0.0291
  105SAPE    HA10705   5.601   3.612   3.493 -1.0034 -3.1319  0.0489
  105SAPE    HB10706   5.740   3.503   3.500 -0.9298  0.0582 -1.4179
  105SAPE    C210707   5.651   3.547   3.697 -0.1898 -0.3475  0.8308
  105SAPE    HS10708   5.574   3.466   3.687  1.1845 -1.6306  0.1819
  105SAPE   O2110709   5.594   3.657   3.770 -0.4656  0.5017  0.1158
  105SAPE   C2110710   5.489   3.636   3.855  0.0093  0.5230  0.4562
  105SAPE   O2210711   5.431   3.528   3.866 -0.7485 -0.1920 -0.3755
  105SAPE   C2210712   5.463   3.753   3.947  0.8332  0.6801 -0.2643
  105SAPE   H2R10713   5.552   3.759   4.014 -0.1700 -0.4379  1.2252
  105SAPE   H2S10714   5.452   3.840   3.879 -0.3154  0.6039 -0.1866
  105SAPE    C310715   5.777   3.492   3.773 -0.3779  0.4733  0.1435
  105SAPE    HX10716   5.859   3.567   3.785 -0.1789  0.3606 -0.5113
  105SAPE    HY10717   5.822   3.406   3.720 -0.8516 -0.0632  0.5972
  105SAPE   O3110718   5.736   3.439   3.907  0.9489  0.1820  0.0481
  105SAPE   C3110719   5.678   3.321   3.896 -0.1023 -0.1586 -0.2535
  105SAPE   O3210720   5.671   3.256   3.791  0.6358 -0.8029 -0.4202
  105SAPE   C3210721   5.638   3.273   4.038 -0.1142  0.1378  0.0771
  105SAPE   H2X10722   5.527   3.269   4.041 -0.2401  2.2107 -0.1210
  105SAPE   H2Y10723   5.675   3.359   4.099 -2.2368  2.6979 -1.9902
  105SAPE   C2310724   5.339   3.746   4.039 -0.3061  0.1110 -0.1481
  105SAPE   H3R10725   5.294   3.644   4.037  0.9362 -0.4651 -2.4495
  105SAPE   H3S10726   5.266   3.814   3.990 -1.8958 -2.1276 -1.0618
  105SAPE   C2410727   5.370   3.795   4.187 -0.3951 -0.2099  0.6752
  105SAPE   H4R10728   5.279   3.808   4.249 -0.3232  0.4206  0.6621
  105SAPE   H4S10729   5.412   3.897   4.173  1.2345 -1.0893 -1.1970
  105SAPE   C2510730   5.456   3.696   4.268 -0.0819  0.5210  0.3162
  105SAPE   H5R10731   5.456   3.592   4.232  0.9920  1.0156 -1.1777
  105SAPE   C2610732   5.528   3.739   4.374  0.0106  0.0438  0.1267
  105SAPE   H6R10733   5.578   3.662   4.435  0.0165 -2.4349 -2.7226
  105SAPE   C2710734   5.534   3.887   4.416 -0.4960  0.4930  0.0518
  105SAPE   H7R10735   5.527   3.949   4.324  2.6499  0.6003 -0.2170
  105SAPE   H7S10736   5.639   3.909   4.447 -0.5179  1.2628 -0.3867
  105SAPE   C2810737   5.440   3.924   4.523  0.0547  0.8360 -0.3792
  105SAPE   H8R10738   5.339   3.935   4.480  0.5040  2.9877 -1.0248
  105SAPE   C2910739   5.455   3.931   4.653 -0.2287 -0.3482  0.2160
  105SAPE   H9R10740   5.371   3.945   4.723  2.1394  0.3937  3.0981
  105SAPE  C21010741   5.587   3.908   4.721  0.0195 -0.0408 -0.2987
  105SAPE  H10R10742   5.609   4.005   4.771 -0.4517  0.1841 -0.5208
  105SAPE  H10S10743   5.673   3.896   4.651  1.0036 -2.5213  1.2275
  105SAPE  C21110744   5.591   3.787   4.815 -0.1959 -0.4476  0.2070
  105SAPE  H11R10745   5.615   3.689   4.772  0.6931 -1.5415  2.9935
  105SAPE  C21210746   5.579   3.795   4.946 -0.0156 -0.0672 -0.4415
  105SAPE  H12R10747   5.585   3.706   5.011  1.4869  0.6030  0.3862
  105SAPE  C21310748   5.552   3.915   5.025  0.4520  0.3486  0.0295
  105SAPE  H13R10749   5.480   3.898   5.108 -0.3769  1.9832 -0.3110
  105SAPE  H13S10750   5.494   3.987   4.963 -0.5330 -0.0106  0.5098
  105SAPE  C21410751   5.676   3.994   5.055 -0.3674  0.1703  0.0251
  105SAPE  H14R10752   5.711   4.062   4.976  0.4176 -1.2705 -0.9275
  105SAPE  C21510753   5.744   3.984   5.171 -0.6335 -0.4326 -0.0971
  105SAPE  H15R10754   5.832   4.044   5.197 -1.9469  0.7329  1.8657
  105SAPE  C21610755   5.711   3.876   5.276 -0.3725  0.3303 -0.0361
  105SAPE  H16R10756   5.625   3.808   5.260 -1.1227  1.1447  0.5194
  105SAPE  H16S10757   5.699   3.925   5.375 -1.8857 -2.0990  1.0551
  105SAPE  C21710758   5.849   3.801   5.287 -0.0739 -0.3320  0.3970
  105SAPE  H17R10759   5.934   3.871   5.299  0.6343 -0.4186 -3.0291
  105SAPE  H17S10760   5.870   3.760   5.185 -0.2331  1.0323 -0.1990
  105SAPE  C21810761   5.847   3.689   5.393 -0.2480 -0.6229  0.4310
  105SAPE  H18R10762   5.770   3.610   5.378 -0.7217 -0.5832  2.4634
  105SAPE  H18S10763   5.815   3.744   5.484 -0.6553 -1.5434  0.8570
  105SAPE  C21910764   5.982   3.619   5.410  0.2923 -0.0537 -1.0200
  105SAPE  H19R10765   6.060   3.688   5.448 -1.2784  2.1866 -1.6089
  105SAPE  H19S10766   6.015   3.586   5.310  1.4242  1.9619 -1.3648
  105SAPE  C22010767   5.985   3.503   5.511  0.1739 -0.3429  0.2175
  105SAPE  H20R10768   5.911   3.425   5.484 -2.5466  2.0779  0.2694
  105SAPE  H20S10769   5.956   3.539   5.612  1.1060  1.6490 -0.1761
  105SAPE  H20T10770   6.086   3.455   5.512 -0.0993 -0.9213  0.4482
  105SAPE   C3310771   5.699   3.130   4.066  0.8874  0.8561 -0.1260
  105SAPE   H3X10772   5.807   3.120   4.041  0.9959  1.3561  0.1350
  105SAPE   H3Y10773   5.650   3.055   4.000  0.3045  0.0348  1.1922
  105SAPE   C3410774   5.695   3.087   4.216 -0.4613  0.5086  0.3758
  105SAPE   H4X10775   5.590   3.108   4.247  0.4746  2.0080  2.7269
  105SAPE   H4Y10776   5.765   3.144   4.280  1.5677 -1.8323  0.3730
  105SAPE   C3510777   5.739   2.939   4.237  0.3330 -0.0879  0.0292
  105SAPE   H5X10778   5.844   2.940   4.199  0.8020 -0.3344  1.2697
  105SAPE   H5Y10779   5.671   2.878   4.175 -1.0390  0.7914  0.6218
  105SAPE   C3610780   5.735   2.895   4.383  0.2197 -0.6829  0.8787
  105SAPE   H6X10781   5.630   2.902   4.417 -0.6749 -3.0252 -1.1072
  105SAPE   H6Y10782   5.776   2.983   4.439 -0.7946  1.1698 -1.1336
  105SAPE   C3710783   5.790   2.757   4.404 -0.6671  0.7099 -0.0220
  105SAPE   H7X10784   5.898   2.753   4.378 -1.2399 -1.2280 -2.4522
  105SAPE   H7Y10785   5.734   2.680   4.346 -0.7582  0.7197  0.0523
  105SAPE   C3810786   5.781   2.700   4.552  0.2148  0.2642  0.1282
  105SAPE   H8X10787   5.781   2.786   4.621 -0.6230  0.3182  0.0721
  105SAPE   H8Y10788   5.869   2.634   4.571  0.5627  0.3627 -1.0694
  105SAPE   C3910789   5.659   2.608   4.587  0.3676  0.0695 -0.8629
  105SAPE   H9X10790   5.665   2.505   4.544  1.3074 -0.7298  1.0359
  105SAPE   H9Y10791   5.573   2.662   4.543 -0.1395 -0.3498 -0.4141
  105SAPE  C31010792   5.651   2.589   4.740 -0.1933  0.4989  0.1806
  105SAPE  H10X10793   5.640   2.686   4.794  0.9489 -0.2253  1.7829
  105SAPE  H10Y10794   5.742   2.533   4.771 -0.8505 -0.3328  0.6470
  105SAPE  C31110795   5.536   2.503   4.809 -0.5333  0.5054  0.3187
  105SAPE  H11X10796   5.527   2.413   4.745  1.6571 -0.8367  1.7540
  105SAPE  H11Y10797   5.441   2.561   4.808 -0.1436  1.1769  1.3482
  105SAPE  C31210798   5.571   2.452   4.949 -0.5192  0.0736  0.3294
  105SAPE  H12X10799   5.541   2.535   5.018 -0.7472  0.4849 -0.2560
  105SAPE  H12Y10800   5.679   2.431   4.959 -0.9149 -1.6239  1.4061
  105SAPE  C31310801   5.498   2.323   5.001 -0.8001  0.0063  0.5938
  105SAPE  H13X10802   5.517   2.241   4.928 -1.6891 -0.9337  1.3800
  105SAPE  H13Y10803   5.388   2.325   4.986 -0.8963 -4.9472 -1.1588
  105SAPE  C31410804   5.544   2.290   5.145 -0.2371  0.3961  0.2268
  105SAPE  H14X10805   5.504   2.370   5.210 -2.3819  1.4364 -2.1637
  105SAPE  H14Y10806   5.653   2.278   5.159 -0.2143  0.0961 -0.1707
  105SAPE  C31510807   5.486   2.158   5.186  0.3286 -0.1587 -0.0190
  105SAPE  H15X10808   5.377   2.148   5.173  0.4012 -2.2778  0.5078
  105SAPE  H15Y10809   5.511   2.145   5.294  0.5496  1.7081  0.1737
  105SAPE  C31610810   5.543   2.034   5.117 -0.0786 -0.0846  0.3983
  105SAPE  H16X10811   5.652   2.037   5.136  0.1464  2.8968 -0.6989
  105SAPE  H16Y10812   5.519   2.037   5.008 -0.5101  0.4234  0.5005
  105SAPE  C31710813   5.472   1.909   5.171  0.3839 -0.4468  0.4321
  105SAPE  H17X10814   5.366   1.907   5.140  0.2684  0.0793  0.7794
  105SAPE  H17Y10815   5.459   1.908   5.282 -0.6607  0.0826  0.3282
  105SAPE  C31810816   5.540   1.779   5.123  0.0756 -0.2128 -0.9954
  105SAPE  H18X10817   5.565   1.781   5.015  2.2693 -0.2849 -0.5416
  105SAPE  H18Y10818   5.479   1.690   5.149  0.6585 -0.4638 -0.4529
  105SAPE  H18Z10819   5.642   1.774   5.166 -0.2730  1.5249  0.1307
  106SAPE     N10820   0.700   0.345   2.935 -0.3960  0.4937  0.1911
  106SAPE   HN110821   0.650   0.435   2.951  1.0761  1.2755  0.5503
  106SAPE   HN210822   0.764   0.359   2.854 -0.6447  2.5913  0.2867
  106SAPE   HN310823   0.628   0.277   2.903 -1.2043  1.2543  0.3476
  106SAPE   C1210824   0.769   0.307   3.057 -0.0624  0.1565 -0.4245
  106SAPE  H12A10825   0.697   0.305   3.141  1.0602 -0.5539  0.5524
  106SAPE  H12B10826   0.838   0.394   3.071 -0.2878  0.5402 -1.5744
  106SAPE   C1110827   0.849   0.179   3.043 -0.6759  0.3490 -0.3513
  106SAPE  H11A10828   0.913   0.177   3.134 -1.4205 -2.0861  0.1871
  106SAPE  H11B10829   0.908   0.199   2.951  0.4615 -1.7230 -0.1127
  106SAPE     P10830   0.743  -0.037   3.143 -0.3212 -0.0708  0.2143
  106SAPE   O1310831   0.654  -0.146   3.105 -0.1258  0.1930  0.8407
  106SAPE   O1410832   0.867  -0.076   3.203 -0.1734  0.2536 -0.4139
  106SAPE   O1210833   0.775   0.060   3.017  0.2758  0.4980 -0.3953
  106SAPE   O1110834   0.664   0.055   3.238 -0.7401  0.5634 -0.1220
  106SAPE    C110835   0.687   0.056   3.380 -0.1194 -0.6763  0.2709
  106SAPE    HA10836   0.791   0.083   3.407 -0.8980  1.9099  0.9658
  106SAPE    HB10837   0.621   0.136   3.420  1.8915  0.7890  0.8266
  106SAPE    C210838   0.645  -0.079   3.442  0.1831 -0.1362  0.1197
  106SAPE    HS10839   0.729  -0.148   3.421  2.3994  1.9606  1.5005
  106SAPE   O2110840   0.521  -0.119   3.370 -0.3406 -0.1789  0.0405
  106SAPE   C2110841   0.493  -0.243   3.374  0.0195 -0.5248  0.6466
  106SAPE   O2210842   0.564  -0.336   3.420  0.4250 -0.2176  0.2578
  106SAPE   C2210843   0.360  -0.279   3.312  0.5717 -0.1613  0.4163
  106SAPE   H2R10844   0.352  -0.226   3.215  0.6670  1.9654  1.5131
  106SAPE   H2S10845   0.364  -0.388   3.289  0.9264 -0.1808  0.5757
  106SAPE    C310846   0.630  -0.101   3.595  0.1302  0.5573 -0.0402
  106SAPE    HX10847   0.614  -0.210   3.612 -1.7343  0.6603 -0.8907
  106SAPE    HY10848   0.536  -0.044   3.610  0.4089  0.6375  1.4616
  106SAPE   O3110849   0.726  -0.040   3.685 -0.4568 -0.4545 -0.9234
  106SAPE   C3110850   0.840  -0.115   3.696  0.2765 -0.1529 -1.3272
  106SAPE   O3210851   0.866  -0.214   3.634 -0.4512 -0.0265  0.3245
  106SAPE   C3210852   0.927  -0.070   3.812  0.0303 -0.4938 -0.4285
  106SAPE   H2X10853   0.978   0.024   3.782 -0.5189 -0.1704 -0.3608
  106SAPE   H2Y10854   0.995  -0.157   3.824 -0.3315 -0.7790 -0.4341
  106SAPE   C2310855   0.242  -0.236   3.403 -0.1618  0.7405  0.3920
  106SAPE   H3R10856   0.149  -0.235   3.342  0.4896 -1.5301 -0.7190
  106SAPE   H3S10857   0.252  -0.128   3.430  2.6690  0.6118  0.1247
  106SAPE   C2410858   0.233  -0.325   3.531  0.5163  0.4222  0.3022
  106SAPE   H4R10859   0.332  -0.312   3.579 -0.1196 -0.5179  1.9545
  106SAPE   H4S10860   0.207  -0.423   3.484  1.9652  0.4430 -0.6014
  106SAPE   C2510861   0.109  -0.286   3.617 -0.0769 -0.0137  0.2079
  106SAPE   H5R10862   0.013  -0.284   3.564  0.8254 -1.9682 -1.6528
  106SAPE   C2610863   0.115  -0.244   3.745  0.4141 -0.4858  0.3938
  106SAPE   H6R10864   0.015  -0.224   3.787  0.9659  1.2948  0.9858
  106SAPE   C2710865   0.226  -0.234   3.838  0.3288 -0.1379  0.4042
  106SAPE   H7R10866   0.320  -0.239   3.780 -0.1033  2.4849 -0.6468
  106SAPE   H7S10867   0.220  -0.319   3.910 -0.9141 -0.9819 -0.6449
  106SAPE   C2810868   0.214  -0.105   3.913  0.0675 -0.7533  0.3309
  106SAPE   H8R10869   0.193  -0.016   3.852  0.7885 -0.6266  0.2656
  106SAPE   C2910870   0.224  -0.080   4.044 -0.0704 -0.4388 -0.5504
  106SAPE   H9R10871   0.192   0.017   4.086 -1.0805 -1.6395  1.6783
  106SAPE  C21010872   0.244  -0.183   4.152  0.0036 -0.0239  1.3386
  106SAPE  H10R10873   0.250  -0.288   4.117  0.6876  0.3935  0.1333
  106SAPE  H10S10874   0.155  -0.179   4.219 -0.1882  2.4305  1.0426
  106SAPE  C21110875   0.369  -0.145   4.231  0.1064  0.8222  0.2738
  106SAPE  H11R10876   0.469  -0.178   4.198  0.8215  3.0755  0.0464
  106SAPE  C21210877   0.369  -0.079   4.342  1.0618 -0.1692 -0.3260
  106SAPE  H12R10878   0.472  -0.052   4.368  1.4066  1.2245 -2.8430
  106SAPE  C21310879   0.248  -0.023   4.425 -0.3001 -0.0059  1.5860
  106SAPE  H13R10880   0.192  -0.098   4.485 -0.7403 -0.0647  1.1113
  106SAPE  H13S10881   0.170   0.022   4.359 -1.9301 -1.2193  2.5974
  106SAPE  C21410882   0.309   0.095   4.504  0.3886  0.3562 -0.3776
  106SAPE  H14R10883   0.350   0.184   4.454  3.9643 -0.7645  0.3170
  106SAPE  C21510884   0.311   0.094   4.642  0.2904 -0.0449 -0.4658
  106SAPE  H15R10885   0.334   0.191   4.689 -0.2035  0.2590 -0.8411
  106SAPE  C21610886   0.263  -0.015   4.742  0.1887 -0.1081 -0.0915
  106SAPE  H16R10887   0.227  -0.106   4.690 -1.4082 -0.7322  1.9703
  106SAPE  H16S10888   0.178   0.018   4.804 -0.0818 -0.5199 -0.2423
  106SAPE  C21710889   0.375  -0.042   4.846 -0.2592  0.5412  0.2680
  106SAPE  H17R10890   0.324  -0.087   4.934  0.8052  0.2989  0.7844
  106SAPE  H17S10891   0.407   0.061   4.876 -1.4747  0.8724  0.4991
  106SAPE  C21810892   0.488  -0.130   4.796 -0.0776  0.5823  0.8909
  106SAPE  H18R10893   0.521  -0.085   4.699  0.6339  0.9411  1.2905
  106SAPE  H18S10894   0.446  -0.231   4.776 -1.4276  1.3215 -0.2212
  106SAPE  C21910895   0.606  -0.143   4.896  0.3969  0.2169  0.2654
  106SAPE  H19R10896   0.680  -0.221   4.866 -0.1059 -0.6381  1.1917
  106SAPE  H19S10897   0.551  -0.168   4.989  0.4428  1.0146  0.5105
  106SAPE  C22010898   0.669  -0.012   4.921 -0.8482  0.6693 -0.4118
  106SAPE  H20R10899   0.743  -0.012   5.004 -0.4402  0.6616 -0.7752
  106SAPE  H20S10900   0.600   0.071   4.948 -0.7835  0.9825 -1.1810
  106SAPE  H20T10901   0.727   0.010   4.829  0.6929  3.0329  1.0062
  106SAPE   C3310902   0.842  -0.045   3.940 -0.2824 -0.0810  0.5597
  106SAPE   H3X10903   0.788  -0.139   3.966  0.0422 -0.5487 -0.4000
  106SAPE   H3Y10904   0.766   0.033   3.915  0.4347  0.0259 -1.5082
  106SAPE   C3410905   0.941  -0.002   4.048  0.3520  0.3500 -1.4348
  106SAPE   H4X10906   0.971   0.102   4.029 -1.5680  1.5051  1.1292
  106SAPE   H4Y10907   1.028  -0.071   4.048 -0.1304 -0.3524  0.7910
  106SAPE   C3510908   0.880  -0.009   4.193 -0.4278 -0.6275 -0.1934
  106SAPE   H5X10909   0.854  -0.114   4.219 -2.0020  0.0940  1.3535
  106SAPE   H5Y10910   0.792   0.058   4.180  1.5371  2.6086  1.8438
  106SAPE   C3610911   0.975   0.049   4.295  0.0797 -0.0259 -0.2031
  106SAPE   H6X10912   1.003   0.155   4.275  0.1225  0.1196  0.5877
  106SAPE   H6Y10913   1.068  -0.011   4.287  0.3279  0.3205  0.0495
  106SAPE   C3710914   0.928   0.031   4.439 -0.4951 -0.2354 -0.1417
  106SAPE   H7X10915   0.923  -0.078   4.461 -1.3668 -0.7013 -2.4434
  106SAPE   H7Y10916   0.831   0.083   4.457 -0.0114  0.9776 -0.9101
  106SAPE   C3810917   1.028   0.101   4.532 -0.7653  0.2673  0.5133
  106SAPE   H8X10918   1.085   0.180   4.478 -1.4835  0.3361 -0.1654
  106SAPE   H8Y10919   1.097   0.016   4.552 -1.1706 -0.4206 -0.8863
  106SAPE   C3910920   0.966   0.158   4.656  0.0346 -0.2175  0.4264
  106SAPE   H9X10921   0.907   0.077   4.703  2.0855 -0.2836  3.1585
  106SAPE   H9Y10922   0.896   0.242   4.641  0.5436 -0.0889 -1.4919
  106SAPE  C31010923   1.069   0.195   4.757 -0.0818  0.5600 -0.5357
  106SAPE  H10X10924   1.127   0.287   4.732 -0.7216  1.4541  1.1197
  106SAPE  H10Y10925   1.150   0.119   4.761 -1.7986 -1.2734  1.5212
  106SAPE  C31110926   1.002   0.184   4.899 -0.8009  0.7729  0.1397
  106SAPE  H11X10927   0.981   0.075   4.896 -2.2417  0.9790  1.2871
  106SAPE  H11Y10928   0.912   0.249   4.888 -0.9009  0.6527  0.2376
  106SAPE  C31210929   1.085   0.224   5.017  0.2153  0.1459  0.2109
  106SAPE  H12X10930   1.183   0.172   5.027 -0.5987 -1.4234  0.3663
  106SAPE  H12Y10931   1.026   0.192   5.106 -3.0072 -0.4479 -1.9569
  106SAPE  C31310932   1.110   0.378   5.024  0.6407  0.9195  0.2084
  106SAPE  H13X10933   1.016   0.435   5.006  0.5914  0.7744 -0.0077
  106SAPE  H13Y10934   1.171   0.403   4.935  1.1653  1.7374  0.7878
  106SAPE  C31410935   1.200   0.401   5.143  0.6297  0.3063 -0.2165
  106SAPE  H14X10936   1.158   0.361   5.237  0.6072  1.0178  0.0870
  106SAPE  H14Y10937   1.196   0.510   5.167  1.6532 -0.2781  2.9994
  106SAPE  C31510938   1.345   0.355   5.136  0.5951 -0.1551  0.3170
  106SAPE  H15X10939   1.397   0.406   5.052  1.0097 -2.9301 -1.2361
  106SAPE  H15Y10940   1.365   0.246   5.127  1.3061 -0.0010 -0.0702
  106SAPE  C31610941   1.412   0.389   5.266 -0.4979  0.2986 -0.1704
  106SAPE  H16X10942   1.343   0.341   5.339 -1.5602 -0.5022 -1.6389
  106SAPE  H16Y10943   1.412   0.499   5.285 -2.2276  0.2941 -0.0066
  106SAPE  C31710944   1.563   0.344   5.271 -0.5842  0.9988 -0.0482
  106SAPE  H17X10945   1.570   0.260   5.199 -0.4109 -1.5976  2.7840
  106SAPE  H17Y10946   1.592   0.301   5.369 -0.9631  2.3078  0.6595
  106SAPE  C31810947   1.657   0.460   5.239 -0.0918  1.0517  0.6096
  106SAPE  H18X10948   1.763   0.432   5.257 -0.2775 -1.1601 -1.2933
  106SAPE  H18Y10949   1.634   0.547   5.304  0.1503  0.7861  1.0505
  106SAPE  H18Z10950   1.649   0.495   5.134  0.8152  0.5531  0.3642
  107SAPE     N10951   3.337   5.055   3.142  0.6568  0.7313 -0.0563
  107SAPE   HN110952   3.319   5.143   3.090 -0.8455 -1.0175 -2.7463
  107SAPE   HN210953   3.435   5.034   3.114  0.7545  1.8936 -0.6392
  107SAPE   HN310954   3.283   4.971   3.112 -0.6545  1.6668 -0.4203
  107SAPE   C1210955   3.328   5.069   3.291 -0.4728  0.0132  0.2372
  107SAPE  H12A10956   3.221   5.071   3.322 -1.1880  2.9116 -1.9168
  107SAPE  H12B10957   3.375   5.166   3.315  0.3193 -0.3177  0.0377
  107SAPE   C1110958   3.412   4.966   3.361  0.1709  0.0762  0.2104
  107SAPE  H11A10959   3.365   4.866   3.353 -1.9007  0.8821  1.3633
  107SAPE  H11B10960   3.431   4.980   3.469  0.0730  0.1348  0.2205
  107SAPE     P10961   3.656   5.059   3.309  0.3188  0.2167 -0.0107
  107SAPE   O1310962   3.781   4.988   3.290 -0.3048  0.0789 -0.6781
  107SAPE   O1410963   3.625   5.167   3.216  0.5273  0.1429  0.2830
  107SAPE   O1210964   3.537   4.948   3.297 -0.7385 -0.0122 -0.1006
  107SAPE   O1110965   3.644   5.128   3.451 -0.1153 -0.3600  0.2310
  107SAPE    C110966   3.736   5.220   3.507 -0.3416  0.5156 -0.4394
  107SAPE    HA10967   3.793   5.272   3.427  0.1211 -1.2580 -1.2937
  107SAPE    HB10968   3.684   5.300   3.564  1.5801 -0.4779  2.9815
  107SAPE    C210969   3.842   5.142   3.588 -0.6945  0.5792 -0.6072
  107SAPE    HS10970   3.870   5.055   3.524 -0.5462  0.3361 -0.2169
  107SAPE   O2110971   3.780   5.099   3.714  0.2430  0.3172 -0.4924
  107SAPE   C2110972   3.816   4.976   3.751  0.9864 -0.3138 -0.3584
  107SAPE   O2210973   3.871   4.896   3.685 -0.5422 -0.2695 -0.2408
  107SAPE   C2210974   3.764   4.945   3.893  0.7687  0.3921 -0.7130
  107SAPE   H2R10975   3.760   5.036   3.957 -0.0875 -0.7089  0.8831
  107SAPE   H2S10976   3.657   4.922   3.874 -0.6571  2.7440  3.2339
  107SAPE    C310977   3.974   5.232   3.622 -0.3007 -0.2173 -0.5614
  107SAPE    HX10978   3.943   5.322   3.679  2.3771  1.2269 -1.2430
  107SAPE    HY10979   4.012   5.267   3.523  2.4427 -0.8622  0.1873
  107SAPE   O3110980   4.079   5.174   3.690  0.1882 -0.2813 -0.4012
  107SAPE   C3110981   4.157   5.088   3.619 -0.1700 -0.3971 -0.1098
  107SAPE   O3210982   4.132   5.047   3.506 -0.1730 -0.8331  0.3331
  107SAPE   C3210983   4.260   5.039   3.709 -0.6891  1.0236 -0.7315
  107SAPE   H2X10984   4.308   5.128   3.755  0.0075  1.0822 -1.5401
  107SAPE   H2Y10985   4.333   4.986   3.644 -0.2778 -1.8857  1.8508
  107SAPE   C2310986   3.831   4.830   3.962  0.3825  0.5051 -0.3735
  107SAPE   H3R10987   3.930   4.865   3.997  0.1947  0.9813 -0.3124
  107SAPE   H3S10988   3.835   4.746   3.888  2.1434  0.1203  0.1157
  107SAPE   C2410989   3.751   4.768   4.076 -0.2495 -0.0409  0.9214
  107SAPE   H4R10990   3.654   4.727   4.040  0.4017 -0.9529  0.1534
  107SAPE   H4S10991   3.729   4.840   4.158 -0.7728  1.2137 -0.2932
  107SAPE   C2510992   3.832   4.652   4.129 -1.0055  0.0154 -0.9011
  107SAPE   H5R10993   3.923   4.630   4.072 -1.3066 -0.7691 -1.0919
  107SAPE   C2610994   3.814   4.587   4.250  0.0369  0.2108  0.0497
  107SAPE   H6R10995   3.889   4.510   4.273 -0.3903 -0.3855 -0.5309
  107SAPE   C2710996   3.712   4.614   4.361  0.3338  0.2561  0.3429
  107SAPE   H7R10997   3.709   4.525   4.428  2.6430 -1.5579 -1.7500
  107SAPE   H7S10998   3.608   4.618   4.324  0.8974  1.0075 -1.2178
  107SAPE   C2810999   3.738   4.740   4.444  0.4602 -0.0450  0.6196
  107SAPE   H8R11000   3.670   4.823   4.419  0.8139  0.4049  1.1183
  107SAPE   C2911001   3.833   4.760   4.536 -0.8224  0.7073 -0.0288
  107SAPE   H9R11002   3.838   4.852   4.597 -1.2077  0.4643  0.3739
  107SAPE  C21011003   3.939   4.654   4.571  0.1122 -0.8838 -0.7315
  107SAPE  H10R11004   4.038   4.681   4.531  1.7658 -2.0730  2.2314
  107SAPE  H10S11005   3.915   4.552   4.533  1.3323 -1.5388  0.2038
  107SAPE  C21111006   3.958   4.629   4.723 -0.0641  0.3700  0.1287
  107SAPE  H11R11007   3.872   4.651   4.788 -0.8930  0.7550 -1.0671
  107SAPE  C21211008   4.073   4.603   4.788 -0.2380 -0.0473  0.2049
  107SAPE  H12R11009   4.071   4.574   4.894  1.0448 -0.7434  0.0597
  107SAPE  C21311010   4.201   4.578   4.713 -0.6850  0.0067 -0.5491
  107SAPE  H13R11011   4.257   4.671   4.739 -0.8604 -0.4163  1.5751
  107SAPE  H13S11012   4.199   4.558   4.604 -0.6079  0.3838 -0.6197
  107SAPE  C21411013   4.284   4.466   4.778  0.0520  0.3494 -0.3104
  107SAPE  H14R11014   4.364   4.496   4.848  0.1787  0.8643 -0.6590
  107SAPE  C21511015   4.280   4.334   4.743 -0.6121 -0.4295  0.0107
  107SAPE  H15R11016   4.349   4.266   4.795  0.5841  0.3164 -0.5455
  107SAPE  C21611017   4.186   4.271   4.649  0.0595  0.2627 -0.3209
  107SAPE  H16R11018   4.117   4.339   4.594 -1.5667 -1.1613 -0.1333
  107SAPE  H16S11019   4.115   4.214   4.714  2.2005 -1.6361  0.4825
  107SAPE  C21711020   4.262   4.169   4.555  0.5349  0.5167 -0.0044
  107SAPE  H17R11021   4.343   4.126   4.618  0.3205 -3.3870 -2.0835
  107SAPE  H17S11022   4.292   4.230   4.467 -3.1042  2.2169 -0.2294
  107SAPE  C21811023   4.165   4.063   4.506 -0.8958 -0.1123 -0.6658
  107SAPE  H18R11024   4.114   4.011   4.590  0.3290 -1.0381 -0.4761
  107SAPE  H18S11025   4.232   3.985   4.464  0.8197 -0.5169  2.5064
  107SAPE  C21911026   4.060   4.121   4.409  0.5291  0.1764 -0.2625
  107SAPE  H19R11027   4.108   4.171   4.322 -1.0007  2.0695 -0.0706
  107SAPE  H19S11028   4.013   4.201   4.470 -0.8066 -0.7660 -0.0272
  107SAPE  C22011029   3.951   4.031   4.364  0.3699  0.1185  0.0566
  107SAPE  H20R11030   3.910   3.967   4.445 -0.4533 -0.4110 -0.7473
  107SAPE  H20S11031   3.989   3.962   4.286 -2.0644 -2.0032  0.6105
  107SAPE  H20T11032   3.869   4.084   4.311  0.2154 -0.5193 -0.3639
  107SAPE   C3311033   4.205   4.950   3.829  0.1358  0.3159  0.6818
  107SAPE   H3X11034   4.148   4.859   3.800  1.1615 -0.5329  1.2475
  107SAPE   H3Y11035   4.139   5.017   3.887  1.6293  2.7246 -0.2477
  107SAPE   C3411036   4.312   4.891   3.924  0.3323 -0.9220  0.5860
  107SAPE   H4X11037   4.333   4.970   4.000  3.0111 -0.6964 -0.2950
  107SAPE   H4Y11038   4.402   4.857   3.869 -0.3813  0.0162 -1.2556
  107SAPE   C3511039   4.254   4.764   3.989  0.5080 -0.2183  0.0291
  107SAPE   H5X11040   4.223   4.686   3.916 -1.2953  0.0731  0.4375
  107SAPE   H5Y11041   4.165   4.799   4.046 -0.7161 -0.8664 -1.4020
  107SAPE   C3611042   4.344   4.701   4.091 -0.0519  0.1720 -0.0530
  107SAPE   H6X11043   4.376   4.788   4.152 -1.4950  2.5070 -2.4370
  107SAPE   H6Y11044   4.439   4.673   4.040  0.3768 -0.2659  0.9484
  107SAPE   C3711045   4.276   4.576   4.157  0.0397  0.5029  1.0194
  107SAPE   H7X11046   4.244   4.514   4.070  2.6163  0.0500  0.3079
  107SAPE   H7Y11047   4.191   4.599   4.224  0.1210 -2.8476  2.5022
  107SAPE   C3811048   4.370   4.477   4.227 -0.7762 -0.5625 -0.1824
  107SAPE   H8X11049   4.453   4.465   4.155 -0.1856  2.8746 -0.2098
  107SAPE   H8Y11050   4.328   4.376   4.247 -0.9886 -0.1825  1.4948
  107SAPE   C3911051   4.432   4.546   4.359  0.1309  0.6150 -0.3418
  107SAPE   H9X11052   4.345   4.561   4.426  0.0121 -1.3504  0.0073
  107SAPE   H9Y11053   4.476   4.644   4.332 -1.9367  1.2006 -1.8697
  107SAPE  C31011054   4.538   4.459   4.433 -0.0551 -0.3274  0.0605
  107SAPE  H10X11055   4.617   4.427   4.361  1.5663  1.3206  1.0026
  107SAPE  H10Y11056   4.494   4.366   4.473  3.6813 -2.8131 -1.0450
  107SAPE  C31111057   4.598   4.532   4.554  0.0396 -0.1460  0.2572
  107SAPE  H11X11058   4.514   4.559   4.623  0.4927 -0.7717  1.0731
  107SAPE  H11Y11059   4.656   4.623   4.529 -0.5993  0.1869 -0.0354
  107SAPE  C31211060   4.696   4.446   4.642 -0.0976 -0.0019  0.1188
  107SAPE  H12X11061   4.783   4.416   4.580 -2.2690 -1.3574 -2.5223
  107SAPE  H12Y11062   4.633   4.356   4.661 -1.7978  1.6060  2.7277
  107SAPE  C31311063   4.722   4.505   4.784  0.6483  0.1427 -0.8873
  107SAPE  H13X11064   4.628   4.545   4.828  1.3809 -1.6376  2.6588
  107SAPE  H13Y11065   4.793   4.589   4.771  0.8311 -0.2282 -2.5197
  107SAPE  C31411066   4.775   4.396   4.885 -0.5052  0.1636 -0.0667
  107SAPE  H14X11067   4.712   4.305   4.881  1.0275 -0.9740  0.6646
  107SAPE  H14Y11068   4.789   4.436   4.988 -2.5829 -1.8094  1.0833
  107SAPE  C31511069   4.909   4.347   4.843 -0.6871 -0.2028  0.2625
  107SAPE  H15X11070   4.988   4.424   4.833  1.7484 -2.5842  0.0166
  107SAPE  H15Y11071   4.900   4.296   4.745 -0.7517 -0.3889  0.3655
  107SAPE  C31611072   4.982   4.249   4.942  0.1762  0.0133  0.2747
  107SAPE  H16X11073   4.924   4.155   4.926 -1.9276  0.9329  1.9672
  107SAPE  H16Y11074   4.964   4.288   5.044 -1.3968 -0.9291  0.3938
  107SAPE  C31711075   5.131   4.237   4.912 -0.5664 -0.2599 -0.3178
  107SAPE  H17X11076   5.175   4.179   4.996 -0.3481  0.4956  0.0985
  107SAPE  H17Y11077   5.170   4.341   4.913 -0.7612 -0.1834 -0.6659
  107SAPE  C31811078   5.162   4.171   4.774  0.3939 -0.0715 -0.0540
  107SAPE  H18X11079   5.271   4.177   4.759  0.5229 -0.4274  0.7045
  107SAPE  H18Y11080   5.113   4.228   4.692  2.7468  1.1307 -0.7047
  107SAPE  H18Z11081   5.124   4.067   4.781  0.2389  0.0484  1.0530
  108SAPE     N11082   0.315   3.426   2.974  0.0700 -0.3878 -1.4511
  108SAPE   HN111083   0.331   3.368   3.059  1.6504  2.4228  0.3313
  108SAPE   HN211084   0.344   3.368   2.892 -1.1985 -1.8482 -0.9266
  108SAPE   HN311085   0.385   3.498   3.000 -1.8131  0.2357  2.7527
  108SAPE   C1211086   0.183   3.499   2.964  0.4941 -0.0313  0.1833
  108SAPE  H12A11087   0.102   3.423   2.968  0.4025 -0.0762 -1.7625
  108SAPE  H12B11088   0.175   3.548   2.865 -2.6034 -1.0183 -0.1522
  108SAPE   C1111089   0.178   3.597   3.088  0.3695 -0.1111 -0.2866
  108SAPE  H11A11090   0.270   3.660   3.084  1.3125 -1.2799  1.5332
  108SAPE  H11B11091   0.188   3.546   3.186  1.6499  0.2116 -0.2246
  108SAPE     P11092  -0.027   3.705   3.214  0.5636  0.0165 -0.1144
  108SAPE   O1311093   0.020   3.838   3.272 -0.2789 -0.1433  0.2282
  108SAPE   O1411094  -0.166   3.706   3.164  0.2956 -0.4602 -0.9202
  108SAPE   O1211095   0.057   3.668   3.089 -0.4936 -0.2506 -0.2175
  108SAPE   O1111096   0.002   3.580   3.307  0.2982  0.0577 -0.1823
  108SAPE    C111097   0.035   3.595   3.447  0.2769  0.3107  0.0042
  108SAPE    HA11098  -0.008   3.687   3.493  1.5769  1.0034 -0.1159
  108SAPE    HB11099  -0.006   3.508   3.502  1.4136 -0.1366  0.1730
  108SAPE    C211100   0.188   3.590   3.459 -0.2471 -0.2565  0.0947
  108SAPE    HS11101   0.242   3.659   3.390  0.7054  0.1413  1.2104
  108SAPE   O2111102   0.225   3.453   3.448 -0.1971  0.2407  0.1412
  108SAPE   C2111103   0.354   3.431   3.456  0.0488 -0.6171  0.1499
  108SAPE   O2211104   0.440   3.510   3.430  0.3335 -0.0330  0.1560
  108SAPE   C2211105   0.366   3.305   3.536  0.0284 -0.6020 -0.4542
  108SAPE   H2R11106   0.268   3.253   3.549  0.2710 -1.3165 -1.4134
  108SAPE   H2S11107   0.430   3.232   3.483 -0.7057 -1.7902  0.2421
  108SAPE    C311108   0.233   3.642   3.599  0.2556  0.1574 -0.1500
  108SAPE    HX11109   0.343   3.658   3.607 -0.1599  4.2390 -0.2599
  108SAPE    HY11110   0.201   3.572   3.679 -0.2912 -0.6223 -1.0326
  108SAPE   O3111111   0.170   3.765   3.633  0.0004  0.1165 -0.2169
  108SAPE   C3111112   0.216   3.874   3.567 -0.1483  0.2508  0.2620
  108SAPE   O3211113   0.310   3.864   3.489  0.0958  0.0953  0.0647
  108SAPE   C3211114   0.128   3.995   3.596 -0.3857  0.7207 -0.4317
  108SAPE   H2X11115   0.023   3.962   3.607 -0.8325  1.7553 -1.3838
  108SAPE   H2Y11116   0.144   4.065   3.511  1.3715  0.3741 -0.4271
  108SAPE   C2311117   0.434   3.326   3.678 -0.5385  0.1199 -0.1494
  108SAPE   H3R11118   0.367   3.379   3.749  1.3492  2.0897  0.2829
  108SAPE   H3S11119   0.525   3.386   3.656 -1.0395  0.4701 -1.3944
  108SAPE   C2411120   0.478   3.188   3.724  0.0888  0.0562 -0.0191
  108SAPE   H4R11121   0.565   3.205   3.791 -0.5960  1.8049  0.5055
  108SAPE   H4S11122   0.516   3.132   3.637  1.3890 -1.0089  1.1790
  108SAPE   C2511123   0.355   3.115   3.785 -0.0041 -0.7700  0.0717
  108SAPE   H5R11124   0.259   3.130   3.734  0.5292  0.5488 -0.5926
  108SAPE   C2611125   0.353   3.038   3.895 -0.1901 -1.1108  0.4418
  108SAPE   H6R11126   0.264   2.980   3.919 -0.2440 -0.1280  2.8818
  108SAPE   C2711127   0.469   3.021   3.990 -0.3652 -0.0585  0.1062
  108SAPE   H7R11128   0.561   3.016   3.927 -0.9319 -3.0497 -0.6724
  108SAPE   H7S11129   0.475   2.916   4.028  1.6090 -0.0371 -0.0378
  108SAPE   C2811130   0.490   3.127   4.095 -0.4423 -0.0573  0.4622
  108SAPE   H8R11131   0.429   3.219   4.090 -0.2786  0.0370  0.1793
  108SAPE   C2911132   0.584   3.123   4.196  0.6477 -0.8391  0.2732
  108SAPE   H9R11133   0.580   3.206   4.268 -1.7549 -0.7251  0.0652
  108SAPE  C21011134   0.686   3.014   4.217  0.5427  1.0177 -0.1778
  108SAPE  H10R11135   0.775   3.056   4.268  0.9579 -1.7798  1.6289
  108SAPE  H10S11136   0.696   2.960   4.121 -0.8282  2.3337 -1.1184
  108SAPE  C21111137   0.641   2.926   4.323 -1.0791  0.1158  0.0868
  108SAPE  H11R11138   0.572   2.971   4.397 -0.7110  0.1585  0.4094
  108SAPE  C21211139   0.665   2.797   4.339  0.0264  0.6139  0.0491
  108SAPE  H12R11140   0.618   2.750   4.427  0.9062 -0.4702 -0.0305
  108SAPE  C21311141   0.759   2.708   4.261  0.0631 -0.0367  0.7109
  108SAPE  H13R11142   0.821   2.766   4.189 -2.4197  1.7751 -0.1141
  108SAPE  H13S11143   0.694   2.633   4.211 -0.5585  0.3296  0.9563
  108SAPE  C21411144   0.858   2.637   4.349  0.3278 -0.7666 -0.6157
  108SAPE  H14R11145   0.957   2.682   4.336  0.3354 -0.6358 -0.1280
  108SAPE  C21511146   0.842   2.540   4.443 -0.0310 -0.0461  0.3064
  108SAPE  H15R11147   0.936   2.506   4.489  0.6577  2.4987  0.8989
  108SAPE  C21611148   0.719   2.475   4.482  0.4697  0.4744 -0.0349
  108SAPE  H16R11149   0.712   2.374   4.437  1.6400  0.0611  0.6356
  108SAPE  H16S11150   0.634   2.531   4.439  0.6780  0.2918 -0.6855
  108SAPE  C21711151   0.693   2.468   4.639  0.2689 -0.5607  0.2887
  108SAPE  H17R11152   0.781   2.418   4.684  0.7644 -1.3442 -1.4810
  108SAPE  H17S11153   0.600   2.408   4.651  0.4493 -1.1464 -1.1589
  108SAPE  C21811154   0.671   2.609   4.707  0.0916  0.2377 -0.8769
  108SAPE  H18R11155   0.573   2.646   4.668 -0.4018  0.3418  0.4376
  108SAPE  H18S11156   0.753   2.677   4.675 -1.2617  1.4635 -1.8463
  108SAPE  C21911157   0.659   2.604   4.861 -0.7166 -0.9708 -0.3514
  108SAPE  H19R11158   0.570   2.542   4.885 -1.7853  0.5435 -0.2399
  108SAPE  H19S11159   0.638   2.704   4.904 -0.8074 -1.7339  1.4366
  108SAPE  C22011160   0.783   2.554   4.942 -0.5768  0.1237 -0.0409
  108SAPE  H20R11161   0.784   2.580   5.050  0.4817 -0.0056 -0.0096
  108SAPE  H20S11162   0.873   2.585   4.887 -1.2488 -0.9363 -1.8157
  108SAPE  H20T11163   0.782   2.443   4.945  0.3627  0.0749 -1.0991
  108SAPE   C3311164   0.166   4.076   3.723 -0.9737 -0.0707  0.2175
  108SAPE   H3X11165   0.093   4.160   3.727 -0.8896 -0.0320  1.4030
  108SAPE   H3Y11166   0.270   4.110   3.704 -0.7331  0.2423  1.9218
  108SAPE   C3411167   0.154   3.996   3.855  0.3070  0.6381  0.6340
  108SAPE   H4X11168   0.228   3.913   3.848 -1.4884 -1.1058  1.4183
  108SAPE   H4Y11169   0.049   3.960   3.856 -0.3787  2.4620  2.0430
  108SAPE   C3511170   0.167   4.074   3.986  0.0908  0.3616 -0.3778
  108SAPE   H5X11171   0.095   4.158   3.990 -0.6233 -0.2304 -0.7263
  108SAPE   H5Y11172   0.150   4.003   4.070  1.5934 -1.2901 -1.3919
  108SAPE   C3611173   0.296   4.145   4.011  0.0500  0.3925  0.1993
  108SAPE   H6X11174   0.295   4.232   3.943 -2.6510 -0.3548 -0.8480
  108SAPE   H6Y11175   0.379   4.085   3.969 -1.7708 -2.8819  0.9010
  108SAPE   C3711176   0.331   4.183   4.154  0.2784 -0.2556  0.0088
  108SAPE   H7X11177   0.254   4.252   4.194 -0.1454 -1.9897  2.4457
  108SAPE   H7Y11178   0.433   4.229   4.155  0.7711 -1.2690  1.7619
  108SAPE   C3811179   0.329   4.057   4.248 -0.5998  0.1300 -0.5689
  108SAPE   H8X11180   0.406   3.988   4.208 -1.3677 -0.1313 -1.6570
  108SAPE   H8Y11181   0.226   4.016   4.251 -2.1149  3.5003 -1.5267
  108SAPE   C3911182   0.374   4.098   4.389  0.1898 -0.0200  0.1326
  108SAPE   H9X11183   0.369   4.005   4.449 -0.1911  0.5298  0.9707
  108SAPE   H9Y11184   0.297   4.168   4.428 -1.2824 -1.1397 -0.6457
  108SAPE  C31011185   0.516   4.155   4.386  0.1929 -0.0455  0.5562
  108SAPE  H10X11186   0.511   4.259   4.348  2.7342 -0.4991 -1.3107
  108SAPE  H10Y11187   0.575   4.087   4.319  0.9741 -0.7431  1.9095
  108SAPE  C31111188   0.584   4.157   4.519  0.1480 -0.2801 -0.8685
  108SAPE  H11X11189   0.692   4.180   4.524  0.3348 -1.1565 -0.7425
  108SAPE  H11Y11190   0.580   4.061   4.574  1.1656  0.5062  0.6570
  108SAPE  C31211191   0.526   4.261   4.615  0.2073  0.0499  0.0328
  108SAPE  H12X11192   0.415   4.252   4.619  0.2656 -0.8639 -0.1029
  108SAPE  H12Y11193   0.546   4.366   4.584 -2.1997  0.4670 -0.3424
  108SAPE  C31311194   0.576   4.252   4.758  0.8520  0.3149 -0.3316
  108SAPE  H13X11195   0.685   4.233   4.758  0.8290  0.1147 -1.6188
  108SAPE  H13Y11196   0.526   4.164   4.806  0.4867 -1.3720 -3.5461
  108SAPE  C31411197   0.537   4.368   4.849  0.0527 -0.6866  0.1741
  108SAPE  H14X11198   0.426   4.374   4.854 -0.0717  0.9393 -2.3828
  108SAPE  H14Y11199   0.569   4.459   4.793 -1.0002 -1.8091 -2.4276
  108SAPE  C31511200   0.609   4.360   4.983  0.7583 -0.0396 -0.1944
  108SAPE  H15X11201   0.716   4.360   4.953  0.2309 -0.6018 -2.2430
  108SAPE  H15Y11202   0.577   4.263   5.028  1.9342 -1.2247 -1.7862
  108SAPE  C31611203   0.588   4.477   5.084  1.2819  0.4209 -0.8525
  108SAPE  H16X11204   0.487   4.521   5.091  0.3038 -1.5656 -1.4923
  108SAPE  H16Y11205   0.651   4.563   5.053  0.8047  2.2001  2.6072
  108SAPE  C31711206   0.633   4.426   5.222  0.1041 -0.5712 -0.8483
  108SAPE  H17X11207   0.604   4.319   5.226  0.9915 -0.8788 -1.9346
  108SAPE  H17Y11208   0.576   4.458   5.312 -0.3982 -0.1778 -1.2980
  108SAPE  C31811209   0.786   4.429   5.239  0.1975  0.3617 -0.2463
  108SAPE  H18X11210   0.838   4.404   5.144 -0.4507  2.7405 -1.3186
  108SAPE  H18Y11211   0.822   4.362   5.320  1.2603  0.3973 -0.6720
  108SAPE  H18Z11212   0.821   4.530   5.269  0.0816  0.3348 -0.0161
  109SAPE     N11213   4.759   3.497   3.250  0.4881  0.2330  0.0276
  109SAPE   HN111214   4.812   3.582   3.278 -2.8827  1.7583  2.4788
  109SAPE   HN211215   4.780   3.455   3.158  0.5064  1.1486 -0.3973
  109SAPE   HN311216   4.667   3.542   3.235  0.5082  0.9035  1.6921
  109SAPE   C1211217   4.750   3.402   3.357  0.6688  0.4392 -0.2586
  109SAPE  H12A11218   4.719   3.301   3.321 -0.9941  1.2566 -1.2081
  109SAPE  H12B11219   4.683   3.446   3.434  2.6782  0.1843  1.7498
  109SAPE   C1111220   4.883   3.385   3.441 -0.3936 -0.0410 -0.0776
  109SAPE  H11A11221   4.869   3.308   3.520  1.9517 -0.0541  0.4021
  109SAPE  H11B11222   4.893   3.476   3.504 -0.5272  0.4208 -0.7130
  109SAPE     P11223   5.140   3.338   3.420 -0.2285 -0.0951 -0.2341
  109SAPE   O1311224   5.175   3.199   3.379 -0.4148 -0.4200 -0.2193
  109SAPE   O1411225   5.216   3.449   3.370 -0.6380 -0.1201  0.7529
  109SAPE   O1211226   4.999   3.357   3.357  0.3764 -0.0092  0.8376
  109SAPE   O1111227   5.132   3.352   3.582 -0.1260  0.1251  0.0028
  109SAPE    C111228   5.254   3.301   3.643  0.3250  0.2391 -0.3227
  109SAPE    HA11229   5.292   3.212   3.589  1.5068  1.5923 -1.8195
  109SAPE    HB11230   5.332   3.379   3.627  0.2740  0.0824 -1.3881
  109SAPE    C211231   5.229   3.278   3.797 -0.6216  0.7171  0.4111
  109SAPE    HS11232   5.328   3.265   3.846 -0.4462 -1.3523 -0.3811
  109SAPE   O2111233   5.150   3.161   3.810  0.2344  0.3099  0.7491
  109SAPE   C2111234   5.223   3.054   3.792  0.9425  1.1614  1.0932
  109SAPE   O2211235   5.341   3.044   3.770 -0.3649 -0.3102  0.1087
  109SAPE   C2211236   5.138   2.936   3.823  0.2029  0.1272 -0.7090
  109SAPE   H2R11237   5.081   2.954   3.916 -2.2983  0.0512 -2.1308
  109SAPE   H2S11238   5.060   2.929   3.744  0.0037 -2.7996 -0.3818
  109SAPE    C311239   5.152   3.395   3.859 -0.1403 -0.2940 -0.0498
  109SAPE    HX11240   5.047   3.401   3.822 -0.2545 -0.4508  0.2510
  109SAPE    HY11241   5.194   3.493   3.826 -1.1989  0.5723  1.0699
  109SAPE   O3111242   5.171   3.381   4.000  0.3131  0.0022 -0.4715
  109SAPE   C3111243   5.085   3.300   4.066  0.3168 -0.4033 -0.1616
  109SAPE   O3211244   4.971   3.276   4.032 -0.3607 -0.1527 -0.1458
  109SAPE   C3211245   5.154   3.249   4.190  0.2942  0.0942  0.1455
  109SAPE   H2X11246   5.193   3.154   4.147  1.0688  1.4676 -2.3651
  109SAPE   H2Y11247   5.076   3.225   4.266  0.8737  0.1760  0.7814
  109SAPE   C2311248   5.199   2.789   3.813 -0.2323  0.4115  0.1129
  109SAPE   H3R11249   5.292   2.787   3.753 -1.0750  3.3354 -1.5103
  109SAPE   H3S11250   5.128   2.718   3.765  0.9894 -0.8160  0.0800
  109SAPE   C2411251   5.242   2.745   3.958 -0.1607 -0.2170  0.3356
  109SAPE   H4R11252   5.296   2.648   3.955  0.1793 -0.0107 -1.2061
  109SAPE   H4S11253   5.147   2.722   4.009 -1.4978  0.8816 -1.5376
  109SAPE   C2511254   5.329   2.846   4.037  0.0471  0.3208 -0.1758
  109SAPE   H5R11255   5.396   2.900   3.970 -2.1937  1.2881 -1.7869
  109SAPE   C2611256   5.329   2.865   4.173  0.4533  0.1354 -0.3798
  109SAPE   H6R11257   5.415   2.921   4.214  0.5159 -1.0028  1.1270
  109SAPE   C2711258   5.243   2.805   4.282 -0.4986 -0.2322  0.8336
  109SAPE   H7R11259   5.136   2.807   4.252 -0.8680 -0.4707  2.0655
  109SAPE   H7S11260   5.251   2.877   4.366  0.0212 -0.4814  1.0012
  109SAPE   C2811261   5.295   2.674   4.317  0.5078  0.2779 -0.4752
  109SAPE   H8R11262   5.349   2.618   4.239  0.7246 -0.4887  0.2201
  109SAPE   C2911263   5.302   2.624   4.440  0.3249 -0.4656  0.7863
  109SAPE   H9R11264   5.345   2.524   4.453  1.8814  0.3294  2.2216
  109SAPE  C21011265   5.264   2.697   4.569  0.3604  0.0278  0.0456
  109SAPE  H10R11266   5.289   2.618   4.644 -1.6457  1.8129  2.7853
  109SAPE  H10S11267   5.155   2.718   4.569  0.7159  2.1588 -1.5602
  109SAPE  C21111268   5.327   2.818   4.635 -0.0947 -0.3326 -0.0484
  109SAPE  H11R11269   5.437   2.819   4.640 -0.0971  1.4629  0.4151
  109SAPE  C21211270   5.269   2.933   4.683 -0.6295 -0.4033  0.1126
  109SAPE  H12R11271   5.334   3.005   4.735  0.3476  1.3175 -3.1658
  109SAPE  C21311272   5.130   2.972   4.694  0.5315 -0.9822 -0.1001
  109SAPE  H13R11273   5.067   2.887   4.729  2.4165 -1.2566  2.9059
  109SAPE  H13S11274   5.089   3.001   4.594 -2.4582 -2.2751  0.6188
  109SAPE  C21411275   5.104   3.097   4.787 -0.0567  0.1344  0.7866
  109SAPE  H14R11276   5.173   3.180   4.767 -0.1221 -0.0196 -0.1019
  109SAPE  C21511277   5.015   3.107   4.887  0.4163  0.4518  0.0738
  109SAPE  H15R11278   5.023   3.197   4.949  1.6593  1.3049 -1.2694
  109SAPE  C21611279   4.916   2.996   4.919 -0.0537  0.0805  0.1039
  109SAPE  H16R11280   4.980   2.913   4.955  0.6784  0.7244  0.3099
  109SAPE  H16S11281   4.857   2.968   4.829 -0.3723  1.4554 -0.1454
  109SAPE  C21711282   4.809   3.019   5.027  0.8098 -0.0281 -0.1541
  109SAPE  H17R11283   4.841   3.066   5.122 -3.4515  0.3480  1.3179
  109SAPE  H17S11284   4.750   2.930   5.058  0.7637  1.0615  3.2758
  109SAPE  C21811285   4.694   3.118   4.988  0.2838  0.2618 -0.2508
  109SAPE  H18R11286   4.721   3.226   4.980 -0.6004  0.3916 -1.8558
  109SAPE  H18S11287   4.622   3.128   5.072 -1.2790  0.2299 -1.5379
  109SAPE  C21911288   4.610   3.066   4.866  0.3064 -0.9698  0.1177
  109SAPE  H19R11289   4.561   2.972   4.899  1.7446 -1.2649  1.5739
  109SAPE  H19S11290   4.673   3.052   4.776 -0.3709  0.0422 -0.5395
  109SAPE  C22011291   4.507   3.175   4.822  0.5688  0.0031  0.4115
  109SAPE  H20R11292   4.522   3.196   4.714  2.9622 -2.1415  0.2277
  109SAPE  H20S11293   4.513   3.275   4.870 -0.1662  0.9765 -1.4112
  109SAPE  H20T11294   4.409   3.129   4.848  0.8819  0.6780  3.0166
  109SAPE   C3311295   5.269   3.336   4.238 -0.5509  0.1009  0.2809
  109SAPE   H3X11296   5.232   3.437   4.265  0.2809  0.3354  0.5801
  109SAPE   H3Y11297   5.347   3.345   4.159 -2.0358  1.6776 -1.0844
  109SAPE   C3411298   5.338   3.273   4.355 -0.3769 -0.2415 -0.9472
  109SAPE   H4X11299   5.383   3.176   4.325  2.9118  0.6591  0.6916
  109SAPE   H4Y11300   5.258   3.255   4.430 -0.1938  2.4148 -0.0122
  109SAPE   C3511301   5.453   3.361   4.415 -0.1088  1.0921  0.0047
  109SAPE   H5X11302   5.399   3.447   4.460 -0.2402  0.9275  0.1581
  109SAPE   H5Y11303   5.512   3.396   4.327  0.5150  3.2658  1.2114
  109SAPE   C3611304   5.532   3.272   4.514 -0.1391 -0.0020 -0.5218
  109SAPE   H6X11305   5.572   3.181   4.464  0.5146  0.0321 -0.0759
  109SAPE   H6Y11306   5.461   3.239   4.594 -0.6588  1.4599 -0.3556
  109SAPE   C3711307   5.652   3.337   4.586 -0.0267  0.1708  0.1438
  109SAPE   H7X11308   5.628   3.407   4.669 -1.7423  3.0264 -2.5431
  109SAPE   H7Y11309   5.706   3.397   4.511 -1.1935 -0.9893 -1.7017
  109SAPE   C3811310   5.739   3.225   4.648  0.0515 -1.2078 -0.3608
  109SAPE   H8X11311   5.838   3.269   4.672 -0.7076 -0.2546  1.1987
  109SAPE   H8Y11312   5.770   3.156   4.567 -1.2149  0.3558 -2.2588
  109SAPE   C3911313   5.670   3.151   4.759 -0.0635  0.4905  0.8940
  109SAPE   H9X11314   5.577   3.095   4.736  0.9303 -1.6245  1.7386
  109SAPE   H9Y11315   5.645   3.230   4.834 -0.1878  2.4182 -1.0639
  109SAPE  C31011316   5.747   3.055   4.853  0.2189  0.5177  0.3285
  109SAPE  H10X11317   5.763   2.951   4.817  4.7503  1.0253  0.3179
  109SAPE  H10Y11318   5.681   3.041   4.941  0.8555  1.4026  0.9621
  109SAPE  C31111319   5.878   3.106   4.911  0.1399 -0.0686 -0.0881
  109SAPE  H11X11320   5.868   3.211   4.946  2.7488  0.0104  0.6424
  109SAPE  H11Y11321   5.944   3.108   4.822  0.4760  0.6713  0.1681
  109SAPE  C31211322   5.935   3.023   5.028  0.9740 -0.3885  0.5537
  109SAPE  H12X11323   5.866   2.995   5.111  0.7873 -0.7740  0.2721
  109SAPE  H12Y11324   6.007   3.092   5.077  0.4398  0.8071 -0.3070
  109SAPE  C31311325   6.014   2.906   4.976 -0.3940  0.4292 -0.5394
  109SAPE  H13X11326   6.058   2.919   4.875 -0.7439 -1.2051 -0.9209
  109SAPE  H13Y11327   5.945   2.821   4.961  1.1914 -0.6913 -1.8145
  109SAPE  C31411328   6.123   2.865   5.074 -0.3378  0.1901 -0.1680
  109SAPE  H14X11329   6.075   2.844   5.172 -0.9684  1.1120 -0.2601
  109SAPE  H14Y11330   6.196   2.947   5.087 -1.7134  1.3647  0.3455
  109SAPE  C31511331   6.207   2.751   5.016 -0.6462  0.4813 -0.2970
  109SAPE  H15X11332   6.235   2.777   4.911  0.5337  2.2862  0.4175
  109SAPE  H15Y11333   6.144   2.660   5.016 -1.0658  0.7369  1.6780
  109SAPE  C31611334   6.323   2.724   5.108  0.1182 -0.0109 -0.1992
  109SAPE  H16X11335   6.294   2.713   5.215 -0.4781 -0.9853 -0.4502
  109SAPE  H16Y11336   6.392   2.811   5.105  0.6888 -0.4713 -3.4131
  109SAPE  C31711337   6.392   2.588   5.094 -0.4358  0.5319 -0.2922
  109SAPE  H17X11338   6.436   2.584   4.992  0.0462 -2.4286 -0.0567
  109SAPE  H17Y11339   6.313   2.509   5.099 -1.5285  1.6513  1.0133
  109SAPE  C31811340   6.518   2.568   5.179 -0.1411 -0.2760 -0.0445
  109SAPE  H18X11341   6.574   2.493   5.119 -0.3688 -0.9477  0.5632
  109SAPE  H18Y11342   6.503   2.528   5.281  1.2780  0.7441  0.6055
  109SAPE  H18Z11343   6.588   2.653   5.193  0.1012 -0.7566  1.9147
  110SAPE     N11344   4.436   6.178   3.400  0.4232 -0.0044 -0.7970
  110SAPE   HN111345   4.367   6.099   3.400  1.5438 -1.0214 -1.5653
  110SAPE   HN211346   4.426   6.236   3.486  0.1834 -1.2462  0.0412
  110SAPE   HN311347   4.382   6.237   3.333 -2.9472 -1.3686  0.4718
  110SAPE   C1211348   4.574   6.130   3.354  0.3398  0.2579 -0.6947
  110SAPE  H12A11349   4.559   6.036   3.297 -0.5176 -0.0247 -0.0278
  110SAPE  H12B11350   4.633   6.110   3.446  2.4882 -2.1728 -2.4828
  110SAPE   C1111351   4.638   6.231   3.255 -0.3064 -0.7715 -0.0658
  110SAPE  H11A11352   4.740   6.192   3.237  0.7357  0.4466  2.6902
  110SAPE  H11B11353   4.643   6.327   3.310 -1.4816 -1.7907  1.9418
  110SAPE     P11354   4.569   6.365   3.032 -0.7108 -0.1442 -0.2203
  110SAPE   O1311355   4.553   6.311   2.895  1.1806 -0.3310  0.6113
  110SAPE   O1411356   4.477   6.466   3.084  0.0349 -0.2945 -0.7075
  110SAPE   O1211357   4.564   6.244   3.134 -0.5786 -0.0671  0.3648
  110SAPE   O1111358   4.726   6.406   3.054 -0.1663  0.3087 -0.4128
  110SAPE    C111359   4.779   6.533   3.064 -0.1770 -0.0775 -0.4517
  110SAPE    HA11360   4.877   6.519   3.013  0.9973  0.3637  1.6034
  110SAPE    HB11361   4.717   6.607   3.009 -1.0222  0.1656  0.8038
  110SAPE    C211362   4.802   6.587   3.207  0.9107  0.1111 -0.0131
  110SAPE    HS11363   4.879   6.667   3.216 -0.6028  1.4191  2.9320
  110SAPE   O2111364   4.826   6.472   3.295 -0.4630  0.0844  0.2411
  110SAPE   C2111365   4.954   6.440   3.296 -0.1069  0.1653  0.5486
  110SAPE   O2211366   5.043   6.494   3.231  0.1060 -0.4057 -0.1893
  110SAPE   C2211367   4.979   6.316   3.394 -0.0068 -0.2022  0.0334
  110SAPE   H2R11368   4.900   6.239   3.378 -0.6673  0.1528  1.4828
  110SAPE   H2S11369   5.076   6.270   3.362  0.2446 -0.7639  1.5297
  110SAPE    C311370   4.667   6.650   3.257  0.0289  0.2477  0.0184
  110SAPE    HX11371   4.616   6.717   3.184  0.4385  2.2551  1.4907
  110SAPE    HY11372   4.599   6.564   3.274  2.4081 -1.9598 -0.9675
  110SAPE   O3111373   4.680   6.737   3.372  0.1009  0.5280  0.0212
  110SAPE   C3111374   4.681   6.683   3.500  0.2304  0.3298 -0.1225
  110SAPE   O3211375   4.670   6.569   3.527 -0.6366  0.3709  0.7684
  110SAPE   C3211376   4.673   6.797   3.602  0.4616 -0.3098  0.0440
  110SAPE   H2X11377   4.567   6.807   3.632  0.5332 -0.4059  0.3312
  110SAPE   H2Y11378   4.688   6.893   3.550 -3.0611  0.4335  0.1304
  110SAPE   C2311379   4.976   6.366   3.544  0.1578  0.0976 -0.3381
  110SAPE   H3R11380   4.975   6.286   3.621  1.2611  0.8981  0.5304
  110SAPE   H3S11381   4.872   6.405   3.547 -0.4221 -1.3719 -0.1743
  110SAPE   C2411382   5.057   6.482   3.594  0.0984 -0.4984 -0.4948
  110SAPE   H4R11383   4.989   6.528   3.669 -0.0760  0.6947 -1.3693
  110SAPE   H4S11384   5.071   6.559   3.516  0.6115 -0.2409 -0.1544
  110SAPE   C2511385   5.191   6.433   3.629 -0.7536  0.1000 -0.1402
  110SAPE   H5R11386   5.245   6.377   3.551 -1.5263  1.2781 -1.5741
  110SAPE   C2611387   5.250   6.444   3.752  0.3118 -0.5603 -0.4701
  110SAPE   H6R11388   5.343   6.388   3.770 -0.2058 -1.8929 -1.7480
  110SAPE   C2711389   5.184   6.527   3.861 -0.0317 -0.2785 -0.4287
  110SAPE   H7R11390   5.139   6.449   3.927 -1.4951  0.0147 -1.0404
  110SAPE   H7S11391   5.118   6.607   3.821 -2.5145 -1.7334  0.5053
  110SAPE   C2811392   5.288   6.595   3.936  0.2460  0.0938 -1.3092
  110SAPE   H8R11393   5.391   6.584   3.897 -0.0191  1.0199 -2.3046
  110SAPE   C2911394   5.277   6.690   4.030  0.0199  1.3554  0.3716
  110SAPE   H9R11395   5.362   6.737   4.082 -1.5416  2.6102  1.9299
  110SAPE  C21011396   5.146   6.731   4.100 -0.2370  0.2699 -0.1860
  110SAPE  H10R11397   5.072   6.719   4.019  0.4230 -2.4967 -0.4737
  110SAPE  H10S11398   5.148   6.835   4.138 -2.2463 -0.8472  3.4338
  110SAPE  C21111399   5.099   6.633   4.209 -0.5788 -0.4335 -0.7726
  110SAPE  H11R11400   5.036   6.551   4.169 -0.4184 -0.5759 -0.7353
  110SAPE  C21211401   5.129   6.635   4.342 -0.4970  0.6607  0.5693
  110SAPE  H12R11402   5.090   6.565   4.417  2.1378  1.0667  2.4942
  110SAPE  C21311403   5.209   6.744   4.402 -0.1725  0.3714  0.5257
  110SAPE  H13R11404   5.143   6.809   4.464  0.4022 -0.1213  1.6766
  110SAPE  H13S11405   5.253   6.818   4.332  0.1326  1.7994  2.1401
  110SAPE  C21411406   5.322   6.700   4.496  0.7110 -0.5782  0.0691
  110SAPE  H14R11407   5.423   6.693   4.452  1.0241 -1.5991  0.8887
  110SAPE  C21511408   5.303   6.676   4.631  0.2848 -0.3094  0.6532
  110SAPE  H15R11409   5.393   6.662   4.691  0.1993 -1.6428  0.4927
  110SAPE  C21611410   5.169   6.692   4.707 -0.0629 -0.2692  0.0131
  110SAPE  H16R11411   5.160   6.602   4.772  0.8564  0.5651  1.3441
  110SAPE  H16S11412   5.090   6.686   4.629  0.0400  2.3575 -0.3652
  110SAPE  C21711413   5.155   6.816   4.786 -0.3305  0.5025  0.8109
  110SAPE  H17R11414   5.046   6.831   4.796 -0.4661  0.0950  0.0309
  110SAPE  H17S11415   5.192   6.902   4.726 -3.5006  2.3668  1.2934
  110SAPE  C21811416   5.225   6.794   4.917 -0.1021 -0.0759  0.7827
  110SAPE  H18R11417   5.330   6.759   4.906  0.0193  1.0954 -3.1002
  110SAPE  H18S11418   5.171   6.717   4.976  0.1900  0.1203  1.3185
  110SAPE  C21911419   5.217   6.923   5.007  0.3291 -0.1649 -0.7716
  110SAPE  H19R11420   5.116   6.968   4.993 -0.0746 -0.7661  0.1617
  110SAPE  H19S11421   5.303   6.985   4.973  2.0565 -1.5056  0.9644
  110SAPE  C22011422   5.246   6.879   5.152 -0.0909 -0.6449  0.4030
  110SAPE  H20R11423   5.341   6.824   5.141 -0.3788 -0.8144 -1.5791
  110SAPE  H20S11424   5.164   6.809   5.181 -0.5464 -0.9919 -1.6104
  110SAPE  H20T11425   5.244   6.967   5.221 -3.3288 -0.3704  0.1421
  110SAPE   C3311426   4.752   6.770   3.727  0.2895  0.7279  0.0924
  110SAPE   H3X11427   4.862   6.773   3.713  0.6023  0.9177  2.1762
  110SAPE   H3Y11428   4.730   6.674   3.778  2.1336 -0.1106 -0.6351
  110SAPE   C3411429   4.716   6.868   3.836  0.4657 -0.2672 -0.3101
  110SAPE   H4X11430   4.606   6.864   3.856  0.3474  0.4690 -0.7829
  110SAPE   H4Y11431   4.744   6.973   3.816 -1.9996  0.6142  0.4252
  110SAPE   C3511432   4.787   6.839   3.965 -0.5179 -0.9015 -0.4271
  110SAPE   H5X11433   4.891   6.878   3.958  0.0957 -2.5213 -0.8469
  110SAPE   H5Y11434   4.804   6.731   3.988  3.8288 -0.5973 -1.2637
  110SAPE   C3611435   4.717   6.896   4.082 -0.1464  0.2237  0.3980
  110SAPE   H6X11436   4.613   6.859   4.088 -0.3119  0.6124 -0.0187
  110SAPE   H6Y11437   4.725   7.007   4.072  0.8195  0.1393  0.1773
  110SAPE   C3711438   4.788   6.847   4.214 -0.2601  0.0438 -0.3789
  110SAPE   H7X11439   4.896   6.872   4.211 -0.9226  3.3400 -3.2601
  110SAPE   H7Y11440   4.793   6.737   4.225  2.6117  0.1688  0.2951
  110SAPE   C3811441   4.733   6.913   4.342 -0.2997 -0.7195 -0.6377
  110SAPE   H8X11442   4.624   6.933   4.341  0.1656  2.1740 -0.9601
  110SAPE   H8Y11443   4.771   7.017   4.350 -1.6436  0.2236 -4.4793
  110SAPE   C3911444   4.769   6.833   4.464 -0.4350  0.2468  0.1623
  110SAPE   H9X11445   4.878   6.832   4.489 -0.3120 -2.6710 -0.1093
  110SAPE   H9Y11446   4.729   6.729   4.457 -3.1353  1.2073  0.2798
  110SAPE  C31011447   4.697   6.885   4.597 -0.4301 -0.6382  0.1610
  110SAPE  H10X11448   4.598   6.836   4.607 -2.3365  2.5366 -1.5061
  110SAPE  H10Y11449   4.694   6.994   4.577  1.5757 -0.6607 -0.5350
  110SAPE  C31111450   4.787   6.860   4.717  0.4277  0.1489  0.4775
  110SAPE  H11X11451   4.879   6.920   4.704  0.3349 -0.2949 -3.3798
  110SAPE  H11Y11452   4.824   6.757   4.734 -1.3917 -0.1697  3.1617
  110SAPE  C31211453   4.722   6.924   4.834  0.2593 -0.1893 -0.1559
  110SAPE  H12X11454   4.618   6.889   4.851 -0.0810  0.2585 -1.2395
  110SAPE  H12Y11455   4.718   7.034   4.819  0.9322  0.1914  2.0757
  110SAPE  C31311456   4.808   6.912   4.958 -0.3313 -0.3527 -0.5367
  110SAPE  H13X11457   4.906   6.958   4.932 -0.0550 -1.5611 -1.7540
  110SAPE  H13Y11458   4.832   6.806   4.981  1.4560 -0.3739 -2.1931
  110SAPE  C31411459   4.776   6.980   5.094 -0.2525  0.6968 -0.4569
  110SAPE  H14X11460   4.860   6.953   5.162 -1.2047 -0.6729  0.2286
  110SAPE  H14Y11461   4.682   6.927   5.119 -0.2049  1.0876  0.5638
  110SAPE  C31511462   4.771   7.135   5.089  0.5000  0.3167  0.4043
  110SAPE  H15X11463   4.718   7.163   4.996 -1.4239 -2.4836  0.5083
  110SAPE  H15Y11464   4.873   7.177   5.076  0.6948 -0.1906  0.2650
  110SAPE  C31611465   4.713   7.199   5.222  0.3771 -0.5511 -0.7421
  110SAPE  H16X11466   4.611   7.157   5.226 -0.1354  0.5649 -1.5236
  110SAPE  H16Y11467   4.704   7.310   5.215 -2.1025 -0.6101  0.5090
  110SAPE  C31711468   4.796   7.142   5.345  0.3256  0.0126  0.2307
  110SAPE  H17X11469   4.904   7.135   5.319  0.9777  1.2337  2.4113
  110SAPE  H17Y11470   4.763   7.038   5.362  0.0801  0.0869  0.2066
  110SAPE  C31811471   4.777   7.233   5.464 -0.1028  0.3189  0.2584
  110SAPE  H18X11472   4.838   7.326   5.469  0.1777  0.2003 -0.7162
  110SAPE  H18Y11473   4.810   7.175   5.552  1.7837 -1.5192 -1.5281
  110SAPE  H18Z11474   4.671   7.258   5.484 -0.2786 -1.2573  1.4623
  111SAPE     N11475   3.515   3.822   3.026 -0.2269  0.5888 -0.3096
  111SAPE   HN111476   3.557   3.912   3.055 -1.2944  0.9814  0.0369
  111SAPE   HN211477   3.449   3.791   3.100 -1.7974  2.1885 -0.9837
  111SAPE   HN311478   3.596   3.757   3.029  0.1119  1.0412  0.8021
  111SAPE   C1211479   3.440   3.819   2.897  0.1045  0.0760 -0.1670
  111SAPE  H12A11480   3.519   3.831   2.819 -1.1894 -1.1487 -1.7449
  111SAPE  H12B11481   3.369   3.904   2.897  0.5939  0.6264  3.0263
  111SAPE   C1111482   3.365   3.685   2.876 -0.2604  0.4819 -0.7338
  111SAPE  H11A11483   3.439   3.603   2.891 -0.5380  0.1255 -1.2810
  111SAPE  H11B11484   3.328   3.681   2.771  0.3528 -0.2892 -0.9300
  111SAPE     P11485   3.265   3.582   3.104  0.1973  0.4214  0.2478
  111SAPE   O1311486   3.124   3.598   3.157  0.2577  0.3775  0.5512
  111SAPE   O1411487   3.315   3.446   3.065  0.0614 -0.2344  0.1004
  111SAPE   O1211488   3.255   3.671   2.970  0.0310 -0.2023 -0.4838
  111SAPE   O1111489   3.364   3.668   3.186 -0.1872  0.6729 -0.7505
  111SAPE    C111490   3.460   3.603   3.267 -0.1260 -0.9373  0.1719
  111SAPE    HA11491   3.516   3.524   3.213  0.0936 -0.1217 -0.8152
  111SAPE    HB11492   3.541   3.675   3.292 -1.4771  0.6238  0.2198
  111SAPE    C211493   3.395   3.537   3.394 -0.4928  0.7464  0.0833
  111SAPE    HS11494   3.320   3.461   3.364  0.0892  0.6988 -1.3227
  111SAPE   O2111495   3.338   3.656   3.460  0.0515 -0.8485  0.0713
  111SAPE   C2111496   3.225   3.630   3.519 -0.7111  0.5379 -0.0377
  111SAPE   O2211497   3.167   3.522   3.514 -0.0754  0.4051  0.0557
  111SAPE   C2211498   3.174   3.753   3.581  0.0796  0.0084 -0.7447
  111SAPE   H2R11499   3.181   3.837   3.507  0.4058  2.2972  1.7284
  111SAPE   H2S11500   3.074   3.738   3.627  0.9619 -2.8564  0.3806
  111SAPE    C311501   3.511   3.472   3.476 -0.0863 -0.3378 -0.0549
  111SAPE    HX11502   3.587   3.552   3.482  0.5656 -0.9095 -0.5763
  111SAPE    HY11503   3.556   3.393   3.412 -2.1693 -0.9066 -0.9225
  111SAPE   O3111504   3.475   3.424   3.612 -0.4001 -0.1381  0.4726
  111SAPE   C3111505   3.419   3.309   3.617  0.0448  0.0402 -0.6645
  111SAPE   O3211506   3.393   3.236   3.527 -0.3939  1.2192 -0.0339
  111SAPE   C3211507   3.400   3.273   3.767  0.0819  0.5787 -0.4194
  111SAPE   H2X11508   3.500   3.270   3.816  0.3720  0.2748 -1.0058
  111SAPE   H2Y11509   3.352   3.174   3.756 -1.4859  1.1415  1.0911
  111SAPE   C2311510   3.258   3.817   3.700 -0.3470  0.2119  0.4023
  111SAPE   H3R11511   3.322   3.900   3.663  0.9148 -0.3574  1.2489
  111SAPE   H3S11512   3.322   3.734   3.736 -1.4462 -1.5923 -1.5331
  111SAPE   C2411513   3.168   3.858   3.822  0.2627  0.3370 -0.1146
  111SAPE   H4R11514   3.087   3.782   3.831 -0.7581  0.7648 -3.7676
  111SAPE   H4S11515   3.115   3.949   3.785  0.2539  0.2203 -0.3897
  111SAPE   C2511516   3.234   3.881   3.955 -0.0444  0.6441  0.7080
  111SAPE   H5R11517   3.311   3.806   3.979  0.7355  1.4235  0.6651
  111SAPE   C2611518   3.204   3.971   4.042  0.0840  0.2102 -0.8020
  111SAPE   H6R11519   3.255   3.969   4.140 -0.9777 -0.2302 -0.2316
  111SAPE   C2711520   3.107   4.087   4.027 -0.4128 -0.0889  0.5668
  111SAPE   H7R11521   3.082   4.098   3.920  0.0419 -0.2672  0.4414
  111SAPE   H7S11522   3.162   4.178   4.058 -0.8300  0.2758  0.2538
  111SAPE   C2811523   2.987   4.074   4.121  0.4986 -0.2443 -0.0256
  111SAPE   H8R11524   2.918   3.990   4.101 -0.9172  1.1928 -1.5698
  111SAPE   C2911525   2.951   4.151   4.227  0.0026  0.1890  0.2295
  111SAPE   H9R11526   2.865   4.121   4.288  0.0083 -1.2329 -0.4303
  111SAPE  C21011527   3.030   4.268   4.273 -0.0443 -0.2780  0.0992
  111SAPE  H10R11528   3.099   4.307   4.196  0.2901 -1.5263 -0.2529
  111SAPE  H10S11529   3.092   4.244   4.362 -2.1209 -2.9795  0.9818
  111SAPE  C21111530   2.939   4.382   4.308  0.8203 -0.2814 -0.4946
  111SAPE  H11R11531   2.929   4.460   4.232 -1.2665  0.8973  0.9054
  111SAPE  C21211532   2.867   4.393   4.420  0.0034 -0.0446 -0.1953
  111SAPE  H12R11533   2.800   4.478   4.435  1.2886  0.8647  0.5984
  111SAPE  C21311534   2.872   4.299   4.538  0.3988 -0.0410 -0.1272
  111SAPE  H13R11535   2.901   4.196   4.507 -1.7441 -0.7669  0.1009
  111SAPE  H13S11536   2.771   4.279   4.580 -0.6929 -1.3557 -3.1076
  111SAPE  C21411537   2.973   4.351   4.637 -0.1725  0.6074  0.0688
  111SAPE  H14R11538   3.060   4.400   4.590  0.9919 -0.0392  1.4783
  111SAPE  C21511539   2.973   4.317   4.769 -0.1803 -0.1858 -0.0068
  111SAPE  H15R11540   3.049   4.366   4.831 -0.4899  1.4719 -0.8499
  111SAPE  C21611541   2.880   4.235   4.852 -0.0912 -0.4500 -0.0162
  111SAPE  H16R11542   2.904   4.132   4.818  1.2434  0.1407 -0.9811
  111SAPE  H16S11543   2.773   4.263   4.838 -0.7083 -1.2536  2.5855
  111SAPE  C21711544   2.905   4.251   4.998  0.5346  0.1413  0.7488
  111SAPE  H17R11545   2.914   4.357   5.031 -0.5573  0.7631 -0.8102
  111SAPE  H17S11546   2.998   4.195   5.020 -0.8382 -2.5623  0.0974
  111SAPE  C21811547   2.795   4.181   5.084  0.1670  0.5142 -0.7063
  111SAPE  H18R11548   2.776   4.082   5.039 -0.5566  1.3926 -2.4513
  111SAPE  H18S11549   2.704   4.243   5.067  0.1676  0.6911 -0.0692
  111SAPE  C21911550   2.837   4.170   5.225  0.4471  0.4279 -0.1788
  111SAPE  H19R11551   2.933   4.116   5.213  0.2196  0.2850 -1.4913
  111SAPE  H19S11552   2.775   4.106   5.291 -2.2705  0.4113 -2.5407
  111SAPE  C22011553   2.865   4.298   5.309 -0.1392 -0.5385 -0.3041
  111SAPE  H20R11554   2.933   4.369   5.256 -0.7269  0.1134 -0.2036
  111SAPE  H20S11555   2.934   4.280   5.394 -1.4574  0.0647  0.9329
  111SAPE  H20T11556   2.772   4.357   5.327 -0.0912 -1.0281  1.7740
  111SAPE   C3311557   3.300   3.360   3.847  1.0253 -0.0225 -0.3354
  111SAPE   H3X11558   3.201   3.349   3.799  0.7124  0.3851  0.2002
  111SAPE   H3Y11559   3.323   3.469   3.849  0.7934  0.0519  2.1857
  111SAPE   C3411560   3.285   3.309   3.990 -0.0107  0.1590 -0.5583
  111SAPE   H4X11561   3.379   3.314   4.050  0.1458  0.9917 -0.8636
  111SAPE   H4Y11562   3.255   3.202   3.983 -0.4837  0.2964 -0.6492
  111SAPE   C3511563   3.180   3.382   4.078 -0.2147  0.2649 -0.1423
  111SAPE   H5X11564   3.084   3.383   4.022  0.0270 -0.2085 -0.5799
  111SAPE   H5Y11565   3.206   3.489   4.089 -2.3655  0.7112  1.0702
  111SAPE   C3611566   3.160   3.325   4.220  0.6968  0.8031  0.4142
  111SAPE   H6X11567   3.262   3.321   4.263  2.1523  0.0139 -2.7770
  111SAPE   H6Y11568   3.119   3.223   4.209  2.6227  0.1436 -1.1600
  111SAPE   C3711569   3.057   3.410   4.292  0.2222 -0.2526  1.0666
  111SAPE   H7X11570   2.957   3.383   4.252  0.7782  0.3771 -0.8717
  111SAPE   H7Y11571   3.069   3.520   4.281 -3.2573  0.0383 -1.4910
  111SAPE   C3811572   3.051   3.368   4.440 -0.4179  0.1715 -0.4563
  111SAPE   H8X11573   2.998   3.441   4.506  2.6089 -0.3334  2.8549
  111SAPE   H8Y11574   3.160   3.369   4.459 -0.2036 -1.9091 -1.3439
  111SAPE   C3911575   3.000   3.228   4.475 -0.3419  0.2098  0.2590
  111SAPE   H9X11576   3.042   3.156   4.401  2.3647 -1.0044  2.8019
  111SAPE   H9Y11577   2.890   3.219   4.462 -0.1786 -1.7646 -0.0073
  111SAPE  C31011578   3.029   3.183   4.618 -0.0925  0.2376  0.5560
  111SAPE  H10X11579   3.003   3.272   4.679 -1.5671 -0.1654  0.5456
  111SAPE  H10Y11580   3.135   3.149   4.621  0.0208  0.6221  1.1571
  111SAPE  C31111581   2.936   3.068   4.670  0.0540  0.4688  0.4467
  111SAPE  H11X11582   2.965   2.982   4.606  2.6905 -0.8150  3.1329
  111SAPE  H11Y11583   2.830   3.093   4.649  0.4541  0.5420 -1.7039
  111SAPE  C31211584   2.963   3.025   4.815 -0.6113  0.0617 -0.1218
  111SAPE  H12X11585   2.957   3.115   4.879  0.9952 -0.2153  0.4568
  111SAPE  H12Y11586   3.064   2.980   4.822 -1.1793 -1.2484 -0.0670
  111SAPE  C31311587   2.857   2.923   4.855 -0.3889 -0.7407  0.0735
  111SAPE  H13X11588   2.858   2.836   4.786  1.3560 -1.2070  0.6172
  111SAPE  H13Y11589   2.753   2.962   4.857 -0.2500 -0.1655 -2.1656
  111SAPE  C31411590   2.883   2.866   4.993  0.4597  0.3563  0.2840
  111SAPE  H14X11591   2.877   2.935   5.080  0.6808  0.2204  0.4098
  111SAPE  H14Y11592   2.985   2.821   4.993 -0.6782 -2.3596 -0.6765
  111SAPE  C31511593   2.786   2.751   5.011 -0.3138 -0.6924  0.0688
  111SAPE  H15X11594   2.808   2.678   4.931 -1.6516 -1.1195  0.0675
  111SAPE  H15Y11595   2.679   2.783   5.006 -0.5099 -1.2434  0.6108
  111SAPE  C31611596   2.794   2.662   5.138 -0.7307  0.5208 -0.3546
  111SAPE  H16X11597   2.711   2.588   5.132 -1.0108  0.5673  1.9048
  111SAPE  H16Y11598   2.775   2.712   5.236  1.4777  1.1411 -0.1884
  111SAPE  C31711599   2.931   2.591   5.149  0.3481 -0.0324 -0.2119
  111SAPE  H17X11600   3.007   2.670   5.164 -0.5455  0.7524  0.3252
  111SAPE  H17Y11601   2.957   2.532   5.058 -1.1184 -0.1840 -0.5623
  111SAPE  C31811602   2.939   2.479   5.248  0.2446 -0.0613 -0.9536
  111SAPE  H18X11603   2.911   2.512   5.350 -0.6270  0.2455 -1.2797
  111SAPE  H18Y11604   3.043   2.442   5.253  0.1362 -0.3103 -0.5044
  111SAPE  H18Z11605   2.872   2.398   5.212 -2.2412  1.2328  0.4783
  112SAPE     N11606   1.869   0.353   2.987  0.1339  0.0768 -0.8049
  112SAPE   HN111607   1.829   0.399   2.902 -0.4055  1.3314  0.0948
  112SAPE   HN211608   1.967   0.385   3.001 -0.3401  1.3652 -0.2684
  112SAPE   HN311609   1.875   0.250   2.975 -1.0089 -0.2798  1.3247
  112SAPE   C1211610   1.775   0.363   3.104  0.2468  0.1650 -0.3841
  112SAPE  H12A11611   1.833   0.314   3.186  1.6813  1.7437 -0.3916
  112SAPE  H12B11612   1.701   0.289   3.065  0.0610  1.3566 -2.4221
  112SAPE   C1111613   1.727   0.505   3.127  0.1331  0.2209 -0.1036
  112SAPE  H11A11614   1.812   0.567   3.163  0.7856 -0.0256 -1.1635
  112SAPE  H11B11615   1.649   0.499   3.206 -0.0429 -1.5624 -0.3900
  112SAPE     P11616   1.589   0.710   3.022 -0.0864  0.0844 -0.0035
  112SAPE   O1311617   1.673   0.824   2.973 -0.2524  0.6014 -0.1158
  112SAPE   O1411618   1.469   0.688   2.940  0.5948 -0.1202  0.2294
  112SAPE   O1211619   1.672   0.571   3.014  0.6529 -0.1672 -0.1475
  112SAPE   O1111620   1.550   0.724   3.167 -0.0052 -0.6586 -0.2412
  112SAPE    C111621   1.417   0.712   3.209  0.5232  0.2454 -0.5035
  112SAPE    HA11622   1.355   0.789   3.159 -0.2732 -1.0829 -1.6201
  112SAPE    HB11623   1.378   0.613   3.177  1.6459 -0.7743  1.1683
  112SAPE    C211624   1.401   0.730   3.362 -0.3338  0.5931  0.6029
  112SAPE    HS11625   1.298   0.696   3.387 -0.3398 -1.9694 -2.2949
  112SAPE   O2111626   1.435   0.869   3.398  0.7248 -0.1035  0.9162
  112SAPE   C2111627   1.336   0.944   3.436  0.1377  0.0700  0.1913
  112SAPE   O2211628   1.216   0.919   3.441 -0.1553 -0.5679  0.6825
  112SAPE   C2211629   1.389   1.087   3.476 -0.1661  0.1062 -0.1548
  112SAPE   H2R11630   1.484   1.069   3.531  0.7653 -0.2370 -1.8231
  112SAPE   H2S11631   1.421   1.142   3.385 -0.8913 -0.6813 -0.8992
  112SAPE    C311632   1.504   0.623   3.423 -0.1452 -0.5219  0.2631
  112SAPE    HX11633   1.605   0.651   3.385 -0.4599 -0.6553 -0.6955
  112SAPE    HY11634   1.471   0.529   3.375 -0.1222  0.0845 -0.9770
  112SAPE   O3111635   1.498   0.616   3.564  0.2415 -0.4767  0.8071
  112SAPE   C3111636   1.560   0.516   3.619 -0.3545  0.4684 -0.1081
  112SAPE   O3211637   1.633   0.435   3.559  0.2440 -0.3045  0.2656
  112SAPE   C3211638   1.546   0.513   3.771  0.4928 -0.4757  0.4777
  112SAPE   H2X11639   1.445   0.542   3.806  1.5439  1.4174  2.2009
  112SAPE   H2Y11640   1.608   0.588   3.826 -0.9907  0.3778  1.0449
  112SAPE   C2311641   1.275   1.165   3.562  0.1199  0.2347 -0.4869
  112SAPE   H3R11642   1.180   1.171   3.504  0.6560 -0.0447 -1.4248
  112SAPE   H3S11643   1.314   1.267   3.583 -0.7659  0.6523 -0.8453
  112SAPE   C2411644   1.244   1.092   3.699  0.2260 -0.4974 -0.3868
  112SAPE   H4R11645   1.180   1.004   3.673  2.0810 -2.0143 -0.0254
  112SAPE   H4S11646   1.177   1.167   3.746  2.3565  0.8660  0.5959
  112SAPE   C2511647   1.360   1.063   3.790  0.5638 -0.7963  0.1396
  112SAPE   H5R11648   1.442   1.000   3.751  3.2646  1.6866  1.3683
  112SAPE   C2611649   1.379   1.108   3.917  0.2550  0.3876  0.1315
  112SAPE   H6R11650   1.469   1.084   3.976 -1.7005 -0.6118  2.9413
  112SAPE   C2711651   1.286   1.215   3.981  0.2981  0.0679 -0.4343
  112SAPE   H7R11652   1.210   1.152   4.032  1.0873 -1.3387 -0.9524
  112SAPE   H7S11653   1.237   1.270   3.898 -0.9532 -1.3137 -0.6483
  112SAPE   C2811654   1.363   1.304   4.075  0.6505 -0.5369  0.0223
  112SAPE   H8R11655   1.452   1.347   4.026  1.4308  1.4277  2.9165
  112SAPE   C2911656   1.328   1.339   4.202 -0.0588  0.1059 -0.6913
  112SAPE   H9R11657   1.383   1.413   4.262  3.0482 -0.7757 -2.1989
  112SAPE  C21011658   1.199   1.295   4.279 -0.7714 -1.0464  0.0800
  112SAPE  H10R11659   1.119   1.281   4.204 -0.7169 -0.1293 -0.1591
  112SAPE  H10S11660   1.161   1.371   4.350  0.1476 -1.6303  1.2411
  112SAPE  C21111661   1.217   1.161   4.338 -1.0364  0.2502 -0.5166
  112SAPE  H11R11662   1.246   1.083   4.267  1.0636  0.6063 -0.1315
  112SAPE  C21211663   1.196   1.119   4.464  0.1054 -0.0614  0.0904
  112SAPE  H12R11664   1.195   1.011   4.488 -0.2886 -0.5163 -1.7853
  112SAPE  C21311665   1.163   1.204   4.580 -0.0903 -0.0403 -0.1030
  112SAPE  H13R11666   1.059   1.181   4.610  0.3459 -0.9562  0.7396
  112SAPE  H13S11667   1.153   1.313   4.557  1.7543  0.4443  1.1566
  112SAPE  C21411668   1.267   1.198   4.690  0.2411  0.0138 -0.1207
  112SAPE  H14R11669   1.373   1.196   4.658  0.8491 -1.5952  1.7422
  112SAPE  C21511670   1.244   1.214   4.820  0.2921 -0.0466  0.1699
  112SAPE  H15R11671   1.325   1.202   4.894  1.4809 -2.6622 -1.4351
  112SAPE  C21611672   1.113   1.227   4.898  0.1571  0.4042  0.2538
  112SAPE  H16R11673   1.079   1.134   4.947 -0.7285 -0.8278 -2.4951
  112SAPE  H16S11674   1.040   1.233   4.815  0.1340 -0.5610  0.1957
  112SAPE  C21711675   1.119   1.343   5.002  0.5096  0.0994 -0.2855
  112SAPE  H17R11676   1.110   1.441   4.950  1.2924  0.7954  0.8361
  112SAPE  H17S11677   1.217   1.352   5.054  1.3573 -0.6112 -1.7219
  112SAPE  C21811678   0.999   1.315   5.098  0.0617  0.0084  0.1894
  112SAPE  H18R11679   1.003   1.210   5.134  1.1646 -0.6621 -1.7382
  112SAPE  H18S11680   0.905   1.318   5.039 -0.5727  2.7161  1.1619
  112SAPE  C21911681   0.986   1.419   5.214 -0.2798 -0.1434 -0.0207
  112SAPE  H19R11682   1.018   1.515   5.169 -1.1687  1.1029  1.9305
  112SAPE  H19S11683   1.058   1.402   5.297  0.4991  0.8652 -0.4763
  112SAPE  C22011684   0.843   1.435   5.269  0.0993 -0.3822  0.5404
  112SAPE  H20R11685   0.780   1.483   5.191 -0.3019 -0.2393  0.9418
  112SAPE  H20S11686   0.840   1.507   5.354 -1.1692 -0.6360  0.7315
  112SAPE  H20T11687   0.798   1.340   5.306 -1.8988  0.4269  0.3388
  112SAPE   C3311688   1.595   0.378   3.820 -0.2139  0.6656  1.2795
  112SAPE   H3X11689   1.703   0.364   3.799 -0.7798 -0.1444 -1.4131
  112SAPE   H3Y11690   1.550   0.295   3.762  1.0169  0.5550  0.4446
  112SAPE   C3411691   1.573   0.372   3.969 -0.2055  0.3469  1.0297
  112SAPE   H4X11692   1.463   0.390   3.980  0.0087  1.8412  0.9286
  112SAPE   H4Y11693   1.623   0.458   4.019 -1.9638  0.6768  2.3388
  112SAPE   C3511694   1.615   0.235   4.030  0.5279  1.0674 -0.4255
  112SAPE   H5X11695   1.726   0.233   4.028  0.5897  0.0462 -4.4815
  112SAPE   H5Y11696   1.566   0.156   3.968 -2.6295  0.8592  2.0598
  112SAPE   C3611697   1.553   0.212   4.175 -0.2260 -0.2659  0.3462
  112SAPE   H6X11698   1.541   0.103   4.195 -2.5580  0.0042  0.6327
  112SAPE   H6Y11699   1.450   0.252   4.169  0.6538  1.9456 -0.7792
  112SAPE   C3711700   1.625   0.274   4.294  0.2977  0.3523  0.3252
  112SAPE   H7X11701   1.646   0.381   4.271 -0.7633  0.5070  0.0139
  112SAPE   H7Y11702   1.721   0.219   4.300  0.3312  0.0259 -2.1170
  112SAPE   C3811703   1.543   0.243   4.414 -0.3370  0.3054 -0.4781
  112SAPE   H8X11704   1.556   0.134   4.427 -0.5879  0.1584 -1.3760
  112SAPE   H8Y11705   1.439   0.275   4.390 -0.0517  1.3119 -0.4044
  112SAPE   C3911706   1.581   0.308   4.550 -0.0706 -0.6413  0.1773
  112SAPE   H9X11707   1.546   0.412   4.538 -0.2253 -0.6614  0.4340
  112SAPE   H9Y11708   1.691   0.306   4.564  0.1295  0.5705 -1.0491
  112SAPE  C31011709   1.513   0.235   4.663  0.1542  0.0490  0.4172
  112SAPE  H10X11710   1.546   0.130   4.645  0.9228  0.6242 -1.8792
  112SAPE  H10Y11711   1.405   0.235   4.637  0.0837 -0.7569  0.6662
  112SAPE  C31111712   1.534   0.289   4.801  0.0877 -0.3217  0.1712
  112SAPE  H11X11713   1.466   0.237   4.871 -0.4950  1.1239  0.7021
  112SAPE  H11Y11714   1.500   0.394   4.807  0.3801 -0.0224 -2.2687
  112SAPE  C31211715   1.669   0.278   4.866  0.5806 -0.0992 -0.5544
  112SAPE  H12X11716   1.667   0.311   4.971  1.9907 -1.2560 -0.1266
  112SAPE  H12Y11717   1.730   0.346   4.803  1.2625 -0.3328 -0.1568
  112SAPE  C31311718   1.743   0.138   4.848  0.1736 -0.3655 -0.1956
  112SAPE  H13X11719   1.852   0.156   4.858  0.0950  1.4074 -2.0100
  112SAPE  H13Y11720   1.730   0.108   4.742  2.3543 -2.6284  0.0711
  112SAPE  C31411721   1.697   0.025   4.945 -0.2895  0.2755 -0.1079
  112SAPE  H14X11722   1.713  -0.074   4.896  1.3727  1.1998 -1.5513
  112SAPE  H14Y11723   1.588   0.045   4.957  0.1067  1.2491  2.2934
  112SAPE  C31511724   1.775   0.029   5.079  0.1811  0.2197  0.4161
  112SAPE  H15X11725   1.751   0.128   5.122 -0.5519  1.6164 -2.9098
  112SAPE  H15Y11726   1.884   0.012   5.063 -0.1298  0.3205 -2.4035
  112SAPE  C31611727   1.738  -0.074   5.189 -0.5041  0.2878 -0.0370
  112SAPE  H16X11728   1.636  -0.055   5.228 -0.2473  1.6771 -0.0140
  112SAPE  H16Y11729   1.809  -0.054   5.271  1.8394 -1.3797 -1.5435
  112SAPE  C31711730   1.763  -0.211   5.130 -0.2068  1.1071 -0.4187
  112SAPE  H17X11731   1.840  -0.221   5.051 -0.4352  1.7839 -0.7322
  112SAPE  H17Y11732   1.667  -0.240   5.082  0.0884 -0.6271 -0.0298
  112SAPE  C31811733   1.772  -0.325   5.237  0.1332 -0.8740 -0.0776
  112SAPE  H18X11734   1.859  -0.310   5.305 -0.4721  1.2650  0.2815
  112SAPE  H18Y11735   1.772  -0.420   5.180 -3.4978 -0.9348 -0.2006
  112SAPE  H18Z11736   1.690  -0.327   5.312 -0.7932  1.2983 -0.9420
  113SAPE     N11737   0.227   4.710   3.193  0.5284 -0.9606  0.3356
  113SAPE   HN111738   0.240   4.615   3.234 -0.1107 -1.3039 -0.2360
  113SAPE   HN211739   0.254   4.793   3.249  0.6597 -1.5326  1.1472
  113SAPE   HN311740   0.129   4.707   3.159  0.4658  0.8628  0.2865
  113SAPE   C1211741   0.324   4.722   3.082 -0.1403  0.1423 -0.1947
  113SAPE  H12A11742   0.290   4.810   3.023 -2.7663  0.3287  1.4445
  113SAPE  H12B11743   0.316   4.634   3.016 -1.1279  0.1678 -0.1172
  113SAPE   C1111744   0.455   4.742   3.149 -0.0753  1.0793  0.8287
  113SAPE  H11A11745   0.539   4.724   3.078  0.5300  0.0247  1.7625
  113SAPE  H11B11746   0.461   4.660   3.224 -0.5323 -0.9291 -1.2266
  113SAPE     P11747   0.608   4.928   3.264  0.0865  0.0698  0.0951
  113SAPE   O1311748   0.703   4.817   3.281 -0.5188 -0.1514 -0.3333
  113SAPE   O1411749   0.648   5.042   3.184 -0.8898 -0.5905  0.3232
  113SAPE   O1211750   0.476   4.872   3.206  0.2943  0.0517 -0.0149
  113SAPE   O1111751   0.570   4.987   3.408  0.2620  0.0368  0.6699
  113SAPE    C111752   0.523   5.122   3.417 -0.1931 -0.8648 -0.1995
  113SAPE    HA11753   0.589   5.193   3.363 -2.2944  1.5097  0.1629
  113SAPE    HB11754   0.424   5.132   3.369 -0.6745 -0.1231  0.9157
  113SAPE    C211755   0.489   5.164   3.562  0.0257 -0.4263  0.1128
  113SAPE    HS11756   0.478   5.274   3.559  0.0544 -0.3821  1.1392
  113SAPE   O2111757   0.594   5.127   3.665  0.6616 -0.2541 -0.9140
  113SAPE   C2111758   0.703   5.199   3.664  0.4372 -0.4588 -1.2134
  113SAPE   O2211759   0.720   5.297   3.597 -0.2588 -0.2192  0.0019
  113SAPE   C2211760   0.807   5.147   3.767  0.7038 -0.3407  0.5230
  113SAPE   H2R11761   0.762   5.055   3.810 -2.1074 -0.4401 -2.2983
  113SAPE   H2S11762   0.892   5.115   3.702 -0.1191  1.3208 -1.4675
  113SAPE    C311763   0.352   5.112   3.603  0.1901  0.2123 -0.7682
  113SAPE    HX11764   0.355   5.003   3.580  1.6048  0.2605 -0.8402
  113SAPE    HY11765   0.268   5.147   3.539 -0.8716  1.0675  1.0107
  113SAPE   O3111766   0.321   5.136   3.750  0.2467  0.3993  0.9727
  113SAPE   C3111767   0.339   5.029   3.830 -0.0370 -0.0822 -0.5786
  113SAPE   O3211768   0.405   4.934   3.802  0.4524  0.2566 -0.4783
  113SAPE   C3211769   0.254   5.044   3.960  0.3851  0.2584  0.3087
  113SAPE   H2X11770   0.148   5.036   3.930  0.4973 -1.4198  0.2707
  113SAPE   H2Y11771   0.282   5.144   4.001 -0.3288  0.8462 -0.5807
  113SAPE   C2311772   0.844   5.239   3.888  0.6496  0.2440  0.0114
  113SAPE   H3R11773   0.756   5.246   3.956  1.9599 -1.6533  2.0437
  113SAPE   H3S11774   0.863   5.339   3.844  0.6228  0.3476  0.2325
  113SAPE   C2411775   0.966   5.191   3.962 -0.3849  0.3663  0.2186
  113SAPE   H4R11776   0.980   5.271   4.037  1.9290  1.5593 -1.3644
  113SAPE   H4S11777   1.053   5.193   3.893  0.1134 -1.4613  0.7282
  113SAPE   C2511778   0.950   5.058   4.027  0.7613 -0.2004 -0.0969
  113SAPE   H5R11779   0.953   4.970   3.961 -0.9455  0.0125 -0.4940
  113SAPE   C2611780   0.933   5.037   4.154 -0.6470  0.3714  0.3134
  113SAPE   H6R11781   0.935   4.930   4.177  0.0059 -0.0099 -1.3358
  113SAPE   C2711782   0.909   5.132   4.260 -0.0381 -0.1437 -0.5744
  113SAPE   H7R11783   0.867   5.226   4.217 -0.5507 -0.1251 -0.0439
  113SAPE   H7S11784   1.006   5.171   4.299 -0.9779  3.3573 -1.3491
  113SAPE   C2811785   0.828   5.087   4.381 -0.0224  0.4255 -0.7322
  113SAPE   H8R11786   0.736   5.029   4.363  1.0093 -2.1800  1.6963
  113SAPE   C2911787   0.858   5.114   4.511 -0.1159 -0.1094 -0.5734
  113SAPE   H9R11788   0.782   5.081   4.583  1.5961 -3.9269 -0.2784
  113SAPE  C21011789   0.991   5.173   4.571  0.8081  0.5572  0.6283
  113SAPE  H10R11790   0.977   5.279   4.601  1.3247  0.2332  2.0590
  113SAPE  H10S11791   1.063   5.174   4.486 -0.3465 -0.1918 -0.4063
  113SAPE  C21111792   1.041   5.097   4.691  0.2791  0.6255  0.1012
  113SAPE  H11R11793   1.066   4.992   4.668 -0.3654  0.3221  0.7329
  113SAPE  C21211794   1.059   5.142   4.815 -0.2673  0.5910 -0.1728
  113SAPE  H12R11795   1.083   5.068   4.894  1.5786  1.7702  0.4224
  113SAPE  C21311796   1.032   5.272   4.877 -0.7344 -1.1387  0.2424
  113SAPE  H13R11797   1.039   5.353   4.802  2.2292 -0.9379  0.6264
  113SAPE  H13S11798   1.123   5.300   4.933  0.2723  0.6023 -2.0989
  113SAPE  C21411799   0.905   5.291   4.949 -0.0097 -0.1528  0.4346
  113SAPE  H14R11800   0.811   5.275   4.896  0.1829 -0.5395  0.2003
  113SAPE  C21511801   0.894   5.315   5.084 -0.3385 -0.2119 -0.3171
  113SAPE  H15R11802   0.793   5.308   5.128 -2.0738 -0.3141 -3.9996
  113SAPE  C21611803   1.017   5.324   5.174 -0.3392 -0.2253  0.6047
  113SAPE  H16R11804   1.095   5.244   5.166  2.4438  1.9426  3.4675
  113SAPE  H16S11805   0.983   5.321   5.279 -1.4083 -2.0607  0.2567
  113SAPE  C21711806   1.081   5.463   5.148 -0.8124 -0.0905  0.4777
  113SAPE  H17R11807   1.015   5.548   5.177 -0.8208 -0.9484  3.2214
  113SAPE  H17S11808   1.102   5.470   5.039  0.8599 -1.2413  0.6951
  113SAPE  C21811809   1.210   5.500   5.218 -0.5133 -0.2136 -0.3163
  113SAPE  H18R11810   1.297   5.437   5.188  0.3508  0.3661  0.8934
  113SAPE  H18S11811   1.194   5.481   5.326  1.4192  2.3315  0.5016
  113SAPE  C21911812   1.262   5.647   5.208 -0.3171  0.5954 -0.2200
  113SAPE  H19R11813   1.185   5.719   5.241 -0.4368 -0.0743  0.9984
  113SAPE  H19S11814   1.309   5.659   5.108  1.2016  0.4979  0.4514
  113SAPE  C22011815   1.377   5.669   5.306 -0.0972  0.5209 -0.8087
  113SAPE  H20R11816   1.458   5.601   5.272  1.3277  1.4657  0.5516
  113SAPE  H20S11817   1.339   5.653   5.409  1.0545 -0.4855 -0.5128
  113SAPE  H20T11818   1.415   5.773   5.292  3.2756 -0.4694  0.0122
  113SAPE   C3311819   0.280   4.941   4.068  0.6906  0.0685 -0.4893
  113SAPE   H3X11820   0.386   4.908   4.079  0.3787 -0.3937  1.5461
  113SAPE   H3Y11821   0.230   4.847   4.032 -0.6014  0.8152 -0.7157
  113SAPE   C3411822   0.231   4.991   4.206 -0.4000  0.0436  0.5407
  113SAPE   H4X11823   0.254   4.922   4.290  2.2123  0.8445  0.5475
  113SAPE   H4Y11824   0.121   5.006   4.211 -0.8115 -1.8996 -1.1482
  113SAPE   C3511825   0.298   5.122   4.253  0.1415 -0.4742 -0.2027
  113SAPE   H5X11826   0.279   5.210   4.187  2.9126  0.4734  0.1239
  113SAPE   H5Y11827   0.406   5.106   4.230 -0.0884 -2.0828 -0.2437
  113SAPE   C3611828   0.282   5.149   4.398 -0.4747 -0.0752 -0.3881
  113SAPE   H6X11829   0.305   5.061   4.461 -0.0222  0.0638 -0.3534
  113SAPE   H6Y11830   0.175   5.175   4.409 -0.0394  1.6032  0.2698
  113SAPE   C3711831   0.376   5.265   4.448 -0.3754  0.1925  0.3760
  113SAPE   H7X11832   0.347   5.339   4.371  1.5057  1.3630  0.7307
  113SAPE   H7Y11833   0.482   5.246   4.422 -0.7496 -0.9105 -0.4383
  113SAPE   C3811834   0.353   5.286   4.595 -0.0932 -0.4900  0.4256
  113SAPE   H8X11835   0.372   5.394   4.615  1.0866 -0.3012 -1.4777
  113SAPE   H8Y11836   0.245   5.264   4.609  0.5484 -2.3596  2.9055
  113SAPE   C3911837   0.458   5.211   4.683  0.2032 -0.1642  0.5169
  113SAPE   H9X11838   0.558   5.255   4.667  0.5204 -1.5681 -1.9246
  113SAPE   H9Y11839   0.466   5.108   4.641 -0.3921  0.5127 -1.3532
  113SAPE  C31011840   0.433   5.202   4.833 -0.2934  0.1578 -0.0017
  113SAPE  H10X11841   0.407   5.303   4.870  1.8584  0.6977  0.2109
  113SAPE  H10Y11842   0.526   5.173   4.887  1.2269 -0.2133 -2.6188
  113SAPE  C31111843   0.324   5.103   4.868 -0.2349 -0.6030  1.4713
  113SAPE  H11X11844   0.366   5.000   4.864 -1.5621 -1.1394 -1.3665
  113SAPE  H11Y11845   0.256   5.115   4.780 -0.0687  0.3274  1.4609
  113SAPE  C31211846   0.264   5.144   4.995 -0.0271 -0.6605 -0.3252
  113SAPE  H12X11847   0.228   5.248   4.987  0.9586 -0.4766 -3.3430
  113SAPE  H12Y11848   0.337   5.144   5.080 -1.0179 -1.8116  0.5702
  113SAPE  C31311849   0.145   5.060   5.041  0.3263 -0.3570 -0.6273
  113SAPE  H13X11850   0.170   4.954   5.017  1.0168 -0.9577  2.4161
  113SAPE  H13Y11851   0.060   5.093   4.977 -1.7121 -0.8440  1.6606
  113SAPE  C31411852   0.089   5.079   5.187 -0.3401 -0.7063  0.0656
  113SAPE  H14X11853  -0.019   5.055   5.189 -0.6267  0.5044 -0.1669
  113SAPE  H14Y11854   0.092   5.189   5.205 -2.7597 -0.3310 -1.4087
  113SAPE  C31511855   0.161   4.996   5.292  0.5370 -0.3092 -0.3043
  113SAPE  H15X11856   0.093   4.996   5.380  1.0626 -1.2552  0.1190
  113SAPE  H15Y11857   0.251   5.050   5.329  1.0031 -0.8859 -0.5872
  113SAPE  C31611858   0.198   4.849   5.253  0.1293  0.0754  0.0051
  113SAPE  H16X11859   0.282   4.840   5.181  1.5389  1.7671  1.3671
  113SAPE  H16Y11860   0.107   4.807   5.203  0.5577 -0.1453 -0.6070
  113SAPE  C31711861   0.220   4.755   5.371 -0.4349  0.2942 -0.4963
  113SAPE  H17X11862   0.126   4.730   5.424  1.2420  1.6459  3.4749
  113SAPE  H17Y11863   0.271   4.809   5.453  3.4442 -1.8582 -1.2288
  113SAPE  C31811864   0.307   4.636   5.336 -0.7614 -0.7265  0.1605
  113SAPE  H18X11865   0.404   4.683   5.310  0.1201 -3.0300 -0.9758
  113SAPE  H18Y11866   0.278   4.578   5.246  0.1144 -1.2206  0.1945
  113SAPE  H18Z11867   0.327   4.563   5.417 -1.4807 -3.2669 -1.8132
  114SAPE     N11868   3.543   0.986   2.709 -0.3092 -0.6809  0.0128
  114SAPE   HN111869   3.610   0.923   2.757 -0.8693 -1.0565  0.3157
  114SAPE   HN211870   3.608   1.040   2.648  0.2156 -2.7792 -1.4039
  114SAPE   HN311871   3.497   1.047   2.779 -1.5127  0.3033 -1.5550
  114SAPE   C1211872   3.435   0.909   2.641  0.0042  0.3055  0.5057
  114SAPE  H12A11873   3.480   0.818   2.594 -0.2142  0.1907  0.5193
  114SAPE  H12B11874   3.385   0.971   2.564  0.5193 -0.5442 -0.5486
  114SAPE   C1111875   3.333   0.864   2.750 -0.0341 -0.3592  0.2278
  114SAPE  H11A11876   3.247   0.807   2.708  0.2737 -1.0480  0.5241
  114SAPE  H11B11877   3.284   0.952   2.798  0.1415 -0.7119  1.0568
  114SAPE     P11878   3.397   0.653   2.885  0.2025 -0.2715 -0.0276
  114SAPE   O1311879   3.257   0.614   2.893  0.3968  0.3586 -0.3820
  114SAPE   O1411880   3.483   0.590   2.787 -0.3996  0.0535 -0.5744
  114SAPE   O1211881   3.399   0.807   2.860 -0.8224 -0.5830 -0.0362
  114SAPE   O1111882   3.473   0.636   3.024  0.2689 -0.5214 -0.1791
  114SAPE    C111883   3.549   0.743   3.085  0.1422 -0.0436  0.2723
  114SAPE    HA11884   3.600   0.808   3.012  0.6965 -1.1798 -0.3864
  114SAPE    HB11885   3.477   0.802   3.146  0.9572 -0.7365  1.9852
  114SAPE    C211886   3.658   0.696   3.193 -0.1359 -0.2543  0.4532
  114SAPE    HS11887   3.737   0.641   3.138  1.5727  1.9458  0.5665
  114SAPE   O2111888   3.596   0.622   3.291 -0.1965 -0.1351 -0.1368
  114SAPE   C2111889   3.673   0.526   3.337 -0.5421 -0.4094 -0.6572
  114SAPE   O2211890   3.788   0.492   3.303  0.6196 -0.1056 -0.0157
  114SAPE   C2211891   3.595   0.437   3.435  0.1641 -0.6777 -0.1901
  114SAPE   H2R11892   3.510   0.496   3.477 -0.5449 -1.5713 -0.3516
  114SAPE   H2S11893   3.551   0.353   3.377 -0.9139 -1.5827  1.8321
  114SAPE    C311894   3.726   0.823   3.249 -0.2232 -0.3427 -0.1912
  114SAPE    HX11895   3.652   0.894   3.291 -0.2297 -0.0989 -0.6140
  114SAPE    HY11896   3.763   0.879   3.160  0.6558 -1.0193 -0.2674
  114SAPE   O3111897   3.826   0.801   3.350  0.4815  0.3728 -0.1848
  114SAPE   C3111898   3.952   0.800   3.310  0.5639  0.0048 -0.2067
  114SAPE   O3211899   3.984   0.819   3.191 -0.4096  0.0042  0.1721
  114SAPE   C3211900   4.045   0.761   3.424 -0.4363 -0.1251  0.7399
  114SAPE   H2X11901   4.029   0.825   3.513  1.8123  1.8547 -0.1694
  114SAPE   H2Y11902   4.150   0.785   3.396 -0.2834  0.0706  1.4586
  114SAPE   C2311903   3.686   0.386   3.543  0.4432  0.4076  0.1645
  114SAPE   H3R11904   3.729   0.467   3.607  0.0682 -1.4178  2.9074
  114SAPE   H3S11905   3.766   0.340   3.481 -0.9370 -0.9118 -0.7006
  114SAPE   C2411906   3.622   0.274   3.630 -0.6945  0.0732  0.8498
  114SAPE   H4R11907   3.701   0.196   3.640 -0.7399  0.1783  2.2812
  114SAPE   H4S11908   3.550   0.231   3.558 -0.3332  1.7853 -0.5903
  114SAPE   C2511909   3.551   0.311   3.761 -0.0730  0.4610  0.1050
  114SAPE   H5R11910   3.446   0.340   3.749 -0.1210  0.1739 -0.1725
  114SAPE   C2611911   3.618   0.323   3.875 -0.1241 -0.7647 -0.1804
  114SAPE   H6R11912   3.565   0.364   3.962  1.3631 -1.0210  0.8874
  114SAPE   C2711913   3.767   0.289   3.887  0.5721  0.6723 -0.4590
  114SAPE   H7R11914   3.825   0.320   3.798 -0.6987  2.8097 -0.6228
  114SAPE   H7S11915   3.756   0.180   3.908  0.6874  0.8801  0.7441
  114SAPE   C2811916   3.830   0.368   3.998  0.4973 -0.1178  0.0861
  114SAPE   H8R11917   3.843   0.472   3.967 -2.7577  0.8363  1.5520
  114SAPE   C2911918   3.882   0.319   4.115 -0.2636  0.9614  0.9097
  114SAPE   H9R11919   3.926   0.386   4.191  0.5249 -0.7491  2.0186
  114SAPE  C21011920   3.863   0.171   4.151  0.1282 -0.5104 -0.3315
  114SAPE  H10R11921   3.875   0.108   4.060 -0.1432 -0.6941 -0.2428
  114SAPE  H10S11922   3.758   0.150   4.184  0.4697  0.4151  1.4752
  114SAPE  C21111923   3.955   0.127   4.266 -0.3006  0.0037 -0.9534
  114SAPE  H11R11924   4.047   0.077   4.231 -0.4546 -0.6802 -0.4140
  114SAPE  C21211925   3.948   0.149   4.396 -0.0376 -0.2645  0.5571
  114SAPE  H12R11926   4.035   0.116   4.455  0.8332  2.4784  0.9964
  114SAPE  C21311927   3.833   0.224   4.466 -0.4441  0.2657  0.8388
  114SAPE  H13R11928   3.757   0.250   4.388  1.4208 -1.9328 -1.9414
  114SAPE  H13S11929   3.880   0.320   4.494  1.6976  0.3275 -2.4104
  114SAPE  C21411930   3.772   0.168   4.593 -0.0036  0.2760  0.6525
  114SAPE  H14R11931   3.683   0.104   4.582  0.4937 -0.1997 -0.7923
  114SAPE  C21511932   3.823   0.182   4.723 -0.4287 -0.7717  0.5636
  114SAPE  H15R11933   3.784   0.128   4.810 -1.4403 -1.0277 -0.0349
  114SAPE  C21611934   3.952   0.253   4.755  0.4947 -0.4803 -0.6659
  114SAPE  H16R11935   3.922   0.358   4.779 -4.1642 -1.8258  0.3823
  114SAPE  H16S11936   4.023   0.248   4.670  0.7461 -2.6890 -0.3697
  114SAPE  C21711937   4.024   0.185   4.867  0.0837  0.5295  0.7073
  114SAPE  H17R11938   4.116   0.242   4.890 -1.4368  2.9650  1.1294
  114SAPE  H17S11939   4.062   0.087   4.829 -0.8687 -0.0646  1.2577
  114SAPE  C21811940   3.949   0.157   5.002 -0.0193  0.8857  0.0461
  114SAPE  H18R11941   3.854   0.104   4.979  1.4942 -1.8038 -0.4242
  114SAPE  H18S11942   3.929   0.253   5.055  0.4598 -0.4757  2.9081
  114SAPE  C21911943   4.042   0.077   5.097  0.5017  0.2545  0.1930
  114SAPE  H19R11944   4.129   0.143   5.117  0.5984  1.3038 -3.0457
  114SAPE  H19S11945   4.077  -0.014   5.043  0.0143  0.7354 -0.9680
  114SAPE  C22011946   3.969   0.048   5.226  0.1015  0.7290 -0.5279
  114SAPE  H20R11947   4.032   0.007   5.308 -0.5765  0.4174 -0.1507
  114SAPE  H20S11948   3.890  -0.027   5.205  0.5072  0.3211 -0.6001
  114SAPE  H20T11949   3.929   0.146   5.261  1.0634  0.7154  0.6905
  114SAPE   C3311950   4.039   0.607   3.458 -0.7455 -0.0350  0.7213
  114SAPE   H3X11951   4.062   0.543   3.371  0.3277  0.7427  0.4154
  114SAPE   H3Y11952   3.933   0.586   3.484 -1.4640  0.1768 -1.7961
  114SAPE   C3411953   4.129   0.568   3.576  0.0348  0.3136  0.6499
  114SAPE   H4X11954   4.227   0.616   3.554 -0.2735  0.1769 -1.2237
  114SAPE   H4Y11955   4.150   0.459   3.587 -0.0315  0.3435  1.1066
  114SAPE   C3511956   4.087   0.631   3.708 -0.1632  0.1764 -0.4510
  114SAPE   H5X11957   3.986   0.592   3.731 -0.5889 -0.5135 -3.1828
  114SAPE   H5Y11958   4.090   0.740   3.687 -0.2488  0.0306 -1.2506
  114SAPE   C3611959   4.191   0.587   3.810 -0.5636 -0.0607 -0.2600
  114SAPE   H6X11960   4.294   0.616   3.777  0.8798 -1.9057  2.2305
  114SAPE   H6Y11961   4.184   0.476   3.818 -1.3388 -0.1893 -2.2380
  114SAPE   C3711962   4.161   0.642   3.954 -0.2726  0.5563  0.0663
  114SAPE   H7X11963   4.058   0.615   3.986  0.2796 -1.3975  0.3386
  114SAPE   H7Y11964   4.177   0.752   3.955 -1.1973  0.7052 -0.4834
  114SAPE   C3811965   4.257   0.580   4.064  0.2610  0.6732  0.1428
  114SAPE   H8X11966   4.362   0.592   4.029  0.3805  0.4918  0.4340
  114SAPE   H8Y11967   4.248   0.470   4.080  1.3156  0.6997  1.0903
  114SAPE   C3911968   4.229   0.649   4.191 -0.7018 -0.4092 -1.0412
  114SAPE   H9X11969   4.119   0.662   4.206 -0.3163  3.5195 -0.5943
  114SAPE   H9Y11970   4.260   0.755   4.198 -0.1359 -0.7003  2.0602
  114SAPE  C31011971   4.302   0.587   4.313 -0.0344 -0.5816 -0.1967
  114SAPE  H10X11972   4.412   0.586   4.302  0.0022 -0.2888  0.1230
  114SAPE  H10Y11973   4.279   0.479   4.312  0.9806 -0.7994 -0.1978
  114SAPE  C31111974   4.273   0.638   4.455 -0.6478  0.0186  0.4310
  114SAPE  H11X11975   4.331   0.733   4.457 -0.1119 -0.2197 -1.7174
  114SAPE  H11Y11976   4.325   0.573   4.529  0.6686  0.4279 -0.0985
  114SAPE  C31211977   4.125   0.657   4.494  0.0703 -0.2510 -0.3570
  114SAPE  H12X11978   4.057   0.572   4.472  0.0048 -0.7388  1.5667
  114SAPE  H12Y11979   4.096   0.741   4.427  2.9637 -0.5167 -2.1397
  114SAPE  C31311980   4.121   0.694   4.645 -0.2437 -0.1987  0.4181
  114SAPE  H13X11981   4.180   0.782   4.679  1.2628 -1.4624  1.2238
  114SAPE  H13Y11982   4.168   0.607   4.696  0.3331 -1.0738 -1.4996
  114SAPE  C31411983   3.977   0.713   4.690  0.2921  0.3795  0.0281
  114SAPE  H14X11984   3.989   0.738   4.798  1.0732 -2.7251  0.7821
  114SAPE  H14Y11985   3.925   0.614   4.683 -0.8719  0.6807  2.8277
  114SAPE  C31511986   3.893   0.809   4.611  0.2759  1.0411  0.3995
  114SAPE  H15X11987   3.859   0.757   4.519 -0.1284  2.4536 -0.2626
  114SAPE  H15Y11988   3.948   0.898   4.573  0.6057 -0.0263 -1.7827
  114SAPE  C31611989   3.773   0.838   4.697  0.7879 -0.6061  0.0301
  114SAPE  H16X11990   3.727   0.748   4.745 -1.2144  0.7538  0.7833
  114SAPE  H16Y11991   3.698   0.882   4.627  1.8108 -0.3192 -0.9137
  114SAPE  C31711992   3.790   0.943   4.808  0.1965 -0.6297  0.5459
  114SAPE  H17X11993   3.796   1.045   4.766  0.6524 -0.2509  1.5090
  114SAPE  H17Y11994   3.886   0.935   4.864  0.6481  1.9518  0.2401
  114SAPE  C31811995   3.681   0.940   4.920 -0.1881 -0.2733 -0.3084
  114SAPE  H18X11996   3.669   1.029   4.985 -1.9650  0.6016 -1.7410
  114SAPE  H18Y11997   3.704   0.851   4.983  2.6434  1.1231  0.7922
  114SAPE  H18Z11998   3.589   0.912   4.865  1.5548 -5.5510 -1.1588
  115SAPE     N11999   0.489   2.319   2.890 -0.1499 -0.1316  1.2278
  115SAPE   HN112000   0.462   2.414   2.923 -3.9490 -0.5767 -0.0732
  115SAPE   HN212001   0.592   2.319   2.878 -0.3530  0.8514 -1.0843
  115SAPE   HN312002   0.439   2.312   2.798 -0.8284 -2.3028  1.7229
  115SAPE   C1212003   0.423   2.228   2.989  0.3311  0.2564 -0.3884
  115SAPE  H12A12004   0.448   2.276   3.086  2.6207 -0.0586 -0.7478
  115SAPE  H12B12005   0.477   2.131   2.990 -0.4998 -0.3201  3.3305
  115SAPE   C1112006   0.270   2.215   2.967  0.1712 -0.3466 -0.4937
  115SAPE  H11A12007   0.239   2.179   3.067  0.7853  0.6510  0.0781
  115SAPE  H11B12008   0.256   2.138   2.888  2.6426 -0.9734 -0.4116
  115SAPE     P12009   0.055   2.353   2.921 -0.0720  0.1720 -0.2526
  115SAPE   O1312010   0.031   2.469   2.828  0.0202 -0.2904  0.3629
  115SAPE   O1412011  -0.006   2.220   2.890 -0.0644  0.5707 -0.2055
  115SAPE   O1212012   0.215   2.343   2.922 -0.6965 -0.1477  0.3385
  115SAPE   O1112013   0.023   2.395   3.073 -0.2751  0.4807 -0.3290
  115SAPE    C112014   0.113   2.474   3.153  0.7071  0.1422  0.1100
  115SAPE    HA12015   0.207   2.512   3.107  1.0778 -2.1884 -1.2159
  115SAPE    HB12016   0.063   2.567   3.188  3.2022  1.6890 -0.2319
  115SAPE    C212017   0.166   2.395   3.272 -0.5397  0.3814 -0.0116
  115SAPE    HS12018   0.196   2.294   3.238 -2.0959 -0.2815  0.4868
  115SAPE   O2112019   0.066   2.385   3.375  0.1023 -0.3841 -0.2831
  115SAPE   C2112020   0.051   2.271   3.440 -0.0779  0.1384  0.5417
  115SAPE   O2212021   0.118   2.171   3.428  0.4599  0.4620 -0.3941
  115SAPE   C2212022  -0.077   2.280   3.521 -0.1951 -0.0963  0.5085
  115SAPE   H2R12023  -0.121   2.382   3.525 -0.3097 -0.1582  0.9432
  115SAPE   H2S12024  -0.152   2.215   3.472  0.0113  1.1456 -1.5560
  115SAPE    C312025   0.295   2.470   3.330 -0.9808  0.3276 -0.2068
  115SAPE    HX12026   0.260   2.574   3.345 -2.1084  0.0670 -0.9077
  115SAPE    HY12027   0.374   2.470   3.252 -0.6759  2.4953  0.0483
  115SAPE   O3112028   0.342   2.416   3.451  0.4125  0.0477 -0.5326
  115SAPE   C3112029   0.396   2.299   3.464  0.8465 -0.5272 -0.1667
  115SAPE   O3212030   0.403   2.210   3.383  0.2254 -0.4184 -0.6214
  115SAPE   C3212031   0.455   2.299   3.605 -0.1167  0.1578  0.2616
  115SAPE   H2X12032   0.361   2.311   3.663 -0.2372 -2.4021  0.7135
  115SAPE   H2Y12033   0.517   2.390   3.614  2.8148 -1.7742  0.8171
  115SAPE   C2312034  -0.042   2.237   3.670 -0.6116  0.3881  0.1383
  115SAPE   H3R12035  -0.009   2.132   3.682 -2.1694  0.1159  2.9696
  115SAPE   H3S12036  -0.145   2.242   3.713 -1.5213 -2.1518 -1.5257
  115SAPE   C2412037   0.053   2.322   3.744 -0.0374  0.8159 -0.2079
  115SAPE   H4R12038   0.041   2.426   3.708 -0.3472  0.8243 -0.0783
  115SAPE   H4S12039   0.155   2.298   3.708 -0.5275 -1.3614 -0.2709
  115SAPE   C2512040   0.049   2.321   3.898  0.1999  0.5941 -0.2157
  115SAPE   H5R12041  -0.035   2.373   3.947  0.4010 -0.3341  1.1615
  115SAPE   C2612042   0.128   2.264   3.979 -0.1538  0.6687 -0.2172
  115SAPE   H6R12043   0.108   2.273   4.087 -0.1357  0.3810 -0.1889
  115SAPE   C2712044   0.246   2.167   3.952  0.2761  0.7800 -0.0014
  115SAPE   H7R12045   0.329   2.183   4.023  1.4396 -1.5487 -0.7219
  115SAPE   H7S12046   0.284   2.194   3.851  0.8851  0.6037  0.1747
  115SAPE   C2812047   0.210   2.018   3.945  0.2423  0.4598 -1.0483
  115SAPE   H8R12048   0.129   2.002   3.872 -2.2193 -1.0283  1.7858
  115SAPE   C2912049   0.274   1.915   3.998  0.1277 -0.2742  0.5215
  115SAPE   H9R12050   0.244   1.813   3.970  1.3229 -0.9012  1.4457
  115SAPE  C21012051   0.398   1.931   4.082 -0.1744  0.3588 -0.2340
  115SAPE  H10R12052   0.362   1.913   4.185  1.0597 -2.5413 -0.2182
  115SAPE  H10S12053   0.444   2.032   4.071 -2.7734  1.4645 -2.0721
  115SAPE  C21112054   0.507   1.833   4.046  0.4607  0.5109  0.3531
  115SAPE  H11R12055   0.503   1.793   3.944  0.3874 -1.1135  0.9596
  115SAPE  C21212056   0.616   1.806   4.118 -0.0719 -0.0289  0.3151
  115SAPE  H12R12057   0.700   1.747   4.079  0.6761  0.5188  1.0595
  115SAPE  C21312058   0.643   1.862   4.255  0.3789 -0.6363  1.0294
  115SAPE  H13R12059   0.613   1.969   4.254  1.5077 -0.3160  0.3658
  115SAPE  H13S12060   0.753   1.858   4.262  0.6104  2.2518  0.0874
  115SAPE  C21412061   0.582   1.817   4.375  0.4295 -0.1700  0.1610
  115SAPE  H14R12062   0.508   1.737   4.360  0.8519 -0.4846 -0.2436
  115SAPE  C21512063   0.622   1.849   4.502 -0.4325 -0.2638 -0.2309
  115SAPE  H15R12064   0.564   1.796   4.579 -0.0414 -0.2088  0.1013
  115SAPE  C21612065   0.731   1.938   4.546 -0.2868  0.2824 -0.3176
  115SAPE  H16R12066   0.805   1.952   4.465 -0.1522 -1.1266 -0.4720
  115SAPE  H16S12067   0.781   1.898   4.638 -1.0490  1.1760  0.5072
  115SAPE  C21712068   0.677   2.083   4.586  0.0226 -0.0944  0.0946
  115SAPE  H17R12069   0.647   2.126   4.488  0.3792 -0.3030 -0.1084
  115SAPE  H17S12070   0.761   2.146   4.620  1.6086 -1.1146 -1.7239
  115SAPE  C21812071   0.563   2.084   4.689  0.0704  0.2728 -0.2385
  115SAPE  H18R12072   0.533   1.977   4.698 -0.7240  0.6393  2.1835
  115SAPE  H18S12073   0.481   2.155   4.666  0.3618  1.0438  0.9861
  115SAPE  C21912074   0.621   2.135   4.821 -0.7356  0.3070  0.1331
  115SAPE  H19R12075   0.666   2.237   4.814  0.6721 -0.3391 -0.5007
  115SAPE  H19S12076   0.709   2.071   4.844  1.3115  1.8072 -2.8884
  115SAPE  C22012077   0.516   2.124   4.933  0.1983 -0.6781 -0.7360
  115SAPE  H20R12078   0.432   2.196   4.919  0.9220  0.0831 -1.2860
  115SAPE  H20S12079   0.553   2.143   5.037  0.0130  2.8255 -1.1694
  115SAPE  H20T12080   0.464   2.026   4.931 -2.2114  0.4559  0.6449
  115SAPE   C3312081   0.525   2.171   3.645  0.5352  0.1211  0.0328
  115SAPE   H3X12082   0.629   2.156   3.609  1.0000  0.4837  1.1518
  115SAPE   H3Y12083   0.458   2.089   3.613 -0.0872  0.7984 -0.4403
  115SAPE   C3412084   0.537   2.175   3.799 -0.5948  0.4701  1.1892
  115SAPE   H4X12085   0.515   2.072   3.835 -1.4948  0.8456  1.7588
  115SAPE   H4Y12086   0.462   2.250   3.833 -0.2451  1.7102 -0.6397
  115SAPE   C3512087   0.676   2.228   3.847  0.6058  0.3581  0.8801
  115SAPE   H5X12088   0.690   2.335   3.820  0.3710  0.3931  0.9002
  115SAPE   H5Y12089   0.747   2.163   3.790 -1.8163 -3.3897  1.7934
  115SAPE   C3612090   0.688   2.201   3.993 -0.4497  0.4141 -0.9872
  115SAPE   H6X12091   0.668   2.093   4.009 -2.7044  1.0088  0.6979
  115SAPE   H6Y12092   0.608   2.256   4.046  0.5385  1.5071 -0.5789
  115SAPE   C3712093   0.827   2.228   4.060  0.2051 -1.2247  0.6191
  115SAPE   H7X12094   0.855   2.335   4.075  0.4757 -1.3160  0.7729
  115SAPE   H7Y12095   0.901   2.187   3.988  0.9551  0.7101  0.2246
  115SAPE   C3812096   0.844   2.163   4.192  0.1408 -0.3848 -0.2351
  115SAPE   H8X12097   0.841   2.052   4.184 -1.8125 -0.3804 -0.1338
  115SAPE   H8Y12098   0.761   2.192   4.260  0.3065 -0.0579 -0.1718
  115SAPE   C3912099   0.977   2.202   4.259 -0.7571  0.6499  0.0030
  115SAPE   H9X12100   0.978   2.314   4.256  0.1334  0.6560  0.0270
  115SAPE   H9Y12101   1.062   2.175   4.193 -0.0788 -0.1466  1.1628
  115SAPE  C31012102   0.987   2.149   4.401 -0.4658  0.3781  0.1977
  115SAPE  H10X12103   0.983   2.039   4.383 -0.2883  0.4451 -0.2870
  115SAPE  H10Y12104   0.895   2.182   4.454 -0.2246 -1.1240  1.6280
  115SAPE  C31112105   1.103   2.192   4.489 -0.1066  0.2559  0.2413
  115SAPE  H11X12106   1.088   2.296   4.527 -0.3543  1.8720 -3.7567
  115SAPE  H11Y12107   1.192   2.191   4.422 -0.2311  0.7259  0.0608
  115SAPE  C31212108   1.120   2.094   4.607  0.4703 -0.3992  0.4821
  115SAPE  H12X12109   1.140   1.994   4.562  0.9433 -0.7279  1.4014
  115SAPE  H12Y12110   1.030   2.088   4.671 -0.4196  1.2568 -0.5574
  115SAPE  C31312111   1.232   2.134   4.701  0.9890 -0.2679  0.0235
  115SAPE  H13X12112   1.331   2.135   4.651  0.6190  0.2474 -0.7094
  115SAPE  H13Y12113   1.238   2.064   4.788  1.5164  0.9170  0.9645
  115SAPE  C31412114   1.203   2.270   4.773  0.6178 -0.4275  0.7274
  115SAPE  H14X12115   1.220   2.260   4.882  0.0305 -0.7314  0.7958
  115SAPE  H14Y12116   1.097   2.299   4.762  1.1804  0.8079 -2.3278
  115SAPE  C31512117   1.291   2.388   4.736  0.1252 -0.1372 -0.4855
  115SAPE  H15X12118   1.248   2.443   4.650  0.3523 -1.0992 -1.2344
  115SAPE  H15Y12119   1.393   2.347   4.718  0.7584  0.8537  0.6924
  115SAPE  C31612120   1.281   2.482   4.860  0.5078 -0.1648  0.7015
  115SAPE  H16X12121   1.357   2.559   4.836  0.5218 -0.6132 -0.7662
  115SAPE  H16Y12122   1.309   2.428   4.952 -1.0881  0.8023  1.8130
  115SAPE  C31712123   1.146   2.557   4.870  0.3095  0.1488 -0.0434
  115SAPE  H17X12124   1.068   2.482   4.897 -0.0475  0.2886 -0.6535
  115SAPE  H17Y12125   1.130   2.596   4.767 -3.3854 -0.1577  0.2788
  115SAPE  C31812126   1.149   2.671   4.973 -0.1307  0.1499  0.8977
  115SAPE  H18X12127   1.228   2.748   4.965 -1.0248  0.9821 -0.3161
  115SAPE  H18Y12128   1.171   2.624   5.071  1.6333  0.3985  0.6430
  115SAPE  H18Z12129   1.050   2.722   4.974 -0.2315 -0.0439  1.0232
  116SAPE     N12130   1.851   3.407   2.792 -0.3613  0.2703 -0.8417
  116SAPE   HN112131   1.902   3.463   2.863  2.0893 -2.2230 -0.4931
  116SAPE   HN212132   1.913   3.331   2.758 -1.9451 -1.2855 -0.4018
  116SAPE   HN312133   1.841   3.487   2.725 -3.9072  1.9968  1.4279
  116SAPE   C1212134   1.719   3.340   2.815 -0.0937 -0.3970  0.3036
  116SAPE  H12A12135   1.705   3.302   2.712 -1.0818 -0.9300  0.6224
  116SAPE  H12B12136   1.644   3.420   2.835  0.1432 -0.3155  0.9070
  116SAPE   C1112137   1.730   3.236   2.916  0.0056  0.0170 -0.0527
  116SAPE  H11A12138   1.801   3.151   2.905  0.0837  0.2674 -1.6729
  116SAPE  H11B12139   1.630   3.186   2.914 -0.6901  1.2436  1.4794
  116SAPE     P12140   1.674   3.296   3.166 -0.4049  0.1265  0.1731
  116SAPE   O1312141   1.535   3.308   3.129  0.2043 -0.0911 -0.0516
  116SAPE   O1412142   1.711   3.175   3.242  0.2055  0.1528  0.3092
  116SAPE   O1212143   1.756   3.302   3.039 -0.0247  0.3106  0.4685
  116SAPE   O1112144   1.715   3.425   3.250 -1.0590  0.7239 -0.0780
  116SAPE    C112145   1.846   3.472   3.243 -0.0341 -0.2681 -0.2230
  116SAPE    HA12146   1.885   3.481   3.139 -1.6903  0.6484 -0.8061
  116SAPE    HB12147   1.843   3.577   3.279  0.5608 -0.5052  0.5431
  116SAPE    C212148   1.946   3.400   3.338  0.0513  0.4134 -0.7252
  116SAPE    HS12149   1.929   3.291   3.323  1.4240  0.0965 -0.1560
  116SAPE   O2112150   1.921   3.432   3.481  0.2157 -0.1583  0.7599
  116SAPE   C2112151   1.955   3.341   3.569 -0.5196  0.2979  0.2612
  116SAPE   O2212152   1.984   3.226   3.533 -0.0898 -0.6609  0.0190
  116SAPE   C2212153   1.949   3.389   3.716  0.0318  0.2426 -0.0929
  116SAPE   H2R12154   2.048   3.364   3.760 -0.7902 -2.8082  0.2361
  116SAPE   H2S12155   1.943   3.499   3.705  0.8278  0.1840 -1.2924
  116SAPE    C312156   2.092   3.444   3.290 -0.3925  0.4070 -0.4525
  116SAPE    HX12157   2.093   3.553   3.307 -1.2956  0.3154  0.2896
  116SAPE    HY12158   2.105   3.421   3.182  2.4113  1.4834 -0.4366
  116SAPE   O3112159   2.187   3.378   3.377  0.1035 -0.4912  0.6301
  116SAPE   C3112160   2.310   3.428   3.378 -0.9230  0.1498  0.3127
  116SAPE   O3212161   2.344   3.531   3.325 -0.0249 -0.5354  0.5359
  116SAPE   C3212162   2.405   3.336   3.460 -0.1119 -0.3406  0.1807
  116SAPE   H2X12163   2.495   3.392   3.494 -0.0411 -0.1138 -0.3668
  116SAPE   H2Y12164   2.434   3.264   3.380 -1.8063  0.6952 -1.4565
  116SAPE   C2312165   1.817   3.338   3.797 -0.3553  0.3167 -0.0374
  116SAPE   H3R12166   1.744   3.284   3.732  0.2664 -2.3494  1.3249
  116SAPE   H3S12167   1.767   3.425   3.845 -1.3297  0.5664 -1.4485
  116SAPE   C2412168   1.861   3.252   3.914 -0.2841  0.7399 -0.0832
  116SAPE   H4R12169   1.788   3.273   3.995 -0.7428 -0.4217 -0.1629
  116SAPE   H4S12170   1.956   3.303   3.942 -0.3496  0.0592  1.5158
  116SAPE   C2512171   1.902   3.107   3.892 -0.3579 -0.0616 -0.0252
  116SAPE   H5R12172   1.994   3.089   3.834 -1.1088  2.2313 -2.0765
  116SAPE   C2612173   1.846   2.999   3.956  0.2988  0.3957  0.0629
  116SAPE   H6R12174   1.888   2.900   3.935  0.0003 -0.0177  1.3331
  116SAPE   C2712175   1.728   3.007   4.051 -0.0800 -0.4318  0.1804
  116SAPE   H7R12176   1.652   2.927   4.036  0.4118 -0.6574 -1.3273
  116SAPE   H7S12177   1.672   3.100   4.027 -0.4126 -1.1590 -2.1148
  116SAPE   C2812178   1.768   3.018   4.194 -0.1606 -0.0515  0.1942
  116SAPE   H8R12179   1.874   2.999   4.217 -0.2662 -0.5097  0.3244
  116SAPE   C2912180   1.681   3.044   4.297 -0.4390 -0.9040  0.4823
  116SAPE   H9R12181   1.717   3.056   4.401  0.4528 -0.8937  0.1848
  116SAPE  C21012182   1.535   3.053   4.292  0.7169  0.2018 -0.7347
  116SAPE  H10R12183   1.505   3.106   4.200 -0.8812  1.6441  0.5467
  116SAPE  H10S12184   1.503   3.118   4.376  1.7166  0.8786 -0.8587
  116SAPE  C21112185   1.466   2.919   4.299 -0.0454 -0.3141  0.1849
  116SAPE  H11R12186   1.523   2.839   4.249  0.5610  1.6575 -2.5019
  116SAPE  C21212187   1.348   2.894   4.363  0.1257 -0.1202 -0.6167
  116SAPE  H12R12188   1.316   2.789   4.357  1.3242 -0.5389  0.0590
  116SAPE  C21312189   1.257   3.004   4.411 -0.3053 -0.0775 -0.0908
  116SAPE  H13R12190   1.271   3.099   4.355 -0.7052  1.3089  2.0474
  116SAPE  H13S12191   1.273   3.034   4.517  1.1694  0.9247 -0.5720
  116SAPE  C21412192   1.113   2.958   4.386  0.6291 -0.0551 -0.5524
  116SAPE  H14R12193   1.082   2.935   4.283 -0.7249 -2.8431  0.3776
  116SAPE  C21512194   1.018   2.947   4.480 -0.2512 -0.2728  0.0927
  116SAPE  H15R12195   0.916   2.921   4.447 -0.7808 -2.4536  3.0359
  116SAPE  C21612196   1.037   2.969   4.627  0.6397  0.4190 -0.5835
  116SAPE  H16R12197   1.077   3.072   4.640  2.1874 -0.1412 -0.6724
  116SAPE  H16S12198   1.123   2.905   4.659  0.8955  2.0747  2.3379
  116SAPE  C21712199   0.915   2.948   4.717 -0.0950  0.3625  0.1764
  116SAPE  H17R12200   0.952   2.975   4.818  2.1844 -0.0352 -0.5111
  116SAPE  H17S12201   0.890   2.840   4.730 -0.2633  0.2457 -0.9784
  116SAPE  C21812202   0.793   3.029   4.693 -0.2247  0.0848 -0.2466
  116SAPE  H18R12203   0.759   3.018   4.588 -1.1220 -0.4383  0.0822
  116SAPE  H18S12204   0.813   3.138   4.689 -2.3341  0.5324 -0.1354
  116SAPE  C21912205   0.682   3.009   4.795 -0.2809 -0.2913  1.3138
  116SAPE  H19R12206   0.638   2.907   4.784  1.7260 -0.9460 -1.6693
  116SAPE  H19S12207   0.598   3.070   4.756 -0.9882 -2.7208 -1.2959
  116SAPE  C22012208   0.728   3.034   4.944  0.0414  0.1084 -0.1034
  116SAPE  H20R12209   0.636   3.048   5.004 -1.5256 -3.4228 -1.4443
  116SAPE  H20S12210   0.781   3.132   4.938 -1.4016  0.9910  0.8568
  116SAPE  H20T12211   0.783   2.944   4.978 -2.7279 -0.5034  3.3105
  116SAPE   C3312212   2.365   3.277   3.598  0.6239 -0.2837  0.1568
  116SAPE   H3X12213   2.439   3.203   3.635  1.8448  0.5662 -0.5010
  116SAPE   H3Y12214   2.271   3.219   3.586 -0.8174  1.6890  1.3225
  116SAPE   C3412215   2.323   3.368   3.717 -0.0702  0.2317 -0.2743
  116SAPE   H4X12216   2.233   3.431   3.698  0.1182 -0.0641 -2.4202
  116SAPE   H4Y12217   2.403   3.444   3.734  0.2526  0.2987 -1.8761
  116SAPE   C3512218   2.308   3.284   3.843 -0.1751  0.2502 -0.7061
  116SAPE   H5X12219   2.410   3.260   3.881 -0.7167  0.9782  1.3774
  116SAPE   H5Y12220   2.255   3.187   3.833  0.1419 -0.1631  1.2092
  116SAPE   C3612221   2.248   3.368   3.956 -0.1775  0.6744 -0.1471
  116SAPE   H6X12222   2.155   3.422   3.926  0.7169  1.4748 -1.5674
  116SAPE   H6Y12223   2.321   3.448   3.978 -1.3056  1.0835  2.6814
  116SAPE   C3712224   2.232   3.290   4.085 -0.4323 -0.8371 -0.2614
  116SAPE   H7X12225   2.169   3.200   4.067 -1.7503 -0.1207  0.5748
  116SAPE   H7Y12226   2.162   3.358   4.138  0.3290  0.9407 -1.4367
  116SAPE   C3812227   2.355   3.248   4.166 -0.0826 -0.7471  0.3885
  116SAPE   H8X12228   2.434   3.326   4.157 -1.2381  0.3962 -0.2616
  116SAPE   H8Y12229   2.398   3.152   4.131 -2.9592 -1.4551 -1.5866
  116SAPE   C3912230   2.323   3.245   4.315 -0.1163  0.0603 -0.7010
  116SAPE   H9X12231   2.332   3.348   4.355  2.3985  0.1846 -1.4204
  116SAPE   H9Y12232   2.405   3.179   4.349 -0.9961 -0.7635 -0.1243
  116SAPE  C31012233   2.187   3.185   4.347  0.0745 -0.8076  0.1371
  116SAPE  H10X12234   2.163   3.088   4.299 -0.5033 -0.7793  0.3607
  116SAPE  H10Y12235   2.108   3.252   4.306  0.6486  0.2968  0.7912
  116SAPE  C31112236   2.150   3.178   4.499 -0.9034  0.3291 -0.5590
  116SAPE  H11X12237   2.142   3.283   4.534  1.2047 -0.1475  1.6131
  116SAPE  H11Y12238   2.230   3.137   4.563 -1.9649 -0.7243  0.1349
  116SAPE  C31212239   2.024   3.098   4.524  0.2619 -0.0810 -0.1334
  116SAPE  H12X12240   2.033   2.991   4.494 -2.1244 -0.5735  0.6821
  116SAPE  H12Y12241   1.940   3.146   4.470  0.1615 -0.0726  0.0317
  116SAPE  C31312242   2.000   3.087   4.676  0.7401 -0.3572  0.0109
  116SAPE  H13X12243   2.050   3.162   4.741 -0.5157 -0.1512  0.7755
  116SAPE  H13Y12244   2.035   2.991   4.720  0.6594 -0.2526  0.3076
  116SAPE  C31412245   1.850   3.098   4.712  0.7934  0.2837 -0.1978
  116SAPE  H14X12246   1.798   3.027   4.644 -1.5348  0.3763  1.3424
  116SAPE  H14Y12247   1.789   3.184   4.679  0.7529 -0.3675 -1.9386
  116SAPE  C31512248   1.798   3.057   4.850 -0.5260  0.2821  0.0144
  116SAPE  H15X12249   1.863   3.117   4.917  1.7676  1.4054 -2.9834
  116SAPE  H15Y12250   1.810   2.947   4.861 -0.7153  0.2048 -0.5021
  116SAPE  C31612251   1.650   3.089   4.870  0.3590 -0.0502 -0.0260
  116SAPE  H16X12252   1.639   3.198   4.849  0.3845 -0.2557 -1.1547
  116SAPE  H16Y12253   1.624   3.082   4.978  1.3399  2.1928  0.4260
  116SAPE  C31712254   1.540   3.015   4.785 -0.1292  0.1292 -0.1487
  116SAPE  H17X12255   1.578   2.911   4.779  0.8430  0.4666 -0.0204
  116SAPE  H17Y12256   1.540   3.066   4.686 -1.4042 -0.5210 -0.5016
  116SAPE  C31812257   1.400   3.030   4.841  0.3912 -0.7937 -0.1344
  116SAPE  H18X12258   1.391   2.974   4.936 -0.5394 -0.0503  0.2324
  116SAPE  H18Y12259   1.326   2.994   4.766 -1.1690  2.8268 -0.5471
  116SAPE  H18Z12260   1.377   3.138   4.851  0.7629 -0.5986 -1.2306
  117SOPE     N12261   0.568   5.424   7.790  0.3892 -0.1827  0.4896
  117SOPE   HN112262   0.542   5.407   7.691 -3.6726 -0.4469  1.3986
  117SOPE   HN212263   0.568   5.332   7.837  3.1859 -0.2100  0.5990
  117SOPE   HN312264   0.484   5.478   7.820 -0.2326 -1.2147  0.6322
  117SOPE   C1212265   0.698   5.494   7.787  0.1495  0.3066  0.1790
  117SOPE  H12A12266   0.762   5.443   7.711 -2.1413  1.0942 -2.4433
  117SOPE  H12B12267   0.751   5.490   7.884  2.5999  1.3113 -1.0471
  117SOPE   C1112268   0.705   5.645   7.734 -0.1087  0.2247 -0.6606
  117SOPE  H11A12269   0.687   5.636   7.625 -0.1667  0.5574 -0.6781
  117SOPE  H11B12270   0.803   5.689   7.761  0.9626 -2.2934 -0.1778
  117SOPE     P12271   0.603   5.833   7.902 -0.0266  0.3790  0.5870
  117SOPE   O1312272   0.745   5.870   7.939  0.8727 -0.3757  0.4788
  117SOPE   O1412273   0.522   5.798   8.022 -0.0075 -0.1846  0.1640
  117SOPE   O1212274   0.602   5.711   7.799  0.2607  0.5272  0.0758
  117SOPE   O1112275   0.532   5.950   7.821 -0.0220  0.4698  0.2632
  117SOPE    C112276   0.408   5.917   7.758 -0.3619 -0.1772  0.3648
  117SOPE    HA12277   0.327   5.992   7.773  1.6284  1.8937  1.2976
  117SOPE    HB12278   0.370   5.823   7.803 -0.2906  0.5595  2.0381
  117SOPE    C212279   0.433   5.910   7.604 -0.5945  0.1851  0.4794
  117SOPE    HS12280   0.522   5.843   7.597 -0.3585  0.5087  0.3461
  117SOPE   O2112281   0.466   6.037   7.553  0.3469 -0.2820 -0.1054
  117SOPE   C2112282   0.591   6.061   7.502  0.6609  0.0062  0.0051
  117SOPE   O2212283   0.677   5.976   7.507  0.0503 -0.3596 -0.2030
  117SOPE   C2212284   0.616   6.198   7.450 -0.4535 -1.0225 -0.2923
  117SOPE   H2R12285   0.617   6.265   7.539 -1.9048  0.2575 -1.1912
  117SOPE   H2S12286   0.520   6.228   7.402 -0.7094  0.5982  1.1433
  117SOPE    C312287   0.312   5.843   7.536 -0.1858 -0.3982 -0.6582
  117SOPE    HX12288   0.219   5.891   7.574 -0.2882 -2.2144  1.6288
  117SOPE    HY12289   0.301   5.740   7.577 -0.2960  0.7451  2.4272
  117SOPE   O3112290   0.319   5.854   7.395  0.4477  0.0878 -0.0462
  117SOPE   C3112291   0.392   5.769   7.325 -0.1252 -0.1556  0.7224
  117SOPE   O3212292   0.441   5.670   7.368 -0.0179 -0.5615 -0.3794
  117SOPE   C3212293   0.425   5.821   7.185  0.1457 -0.3620  0.4977
  117SOPE   H2X12294   0.531   5.853   7.194 -0.2740  0.8866  1.2574
  117SOPE   H2Y12295   0.357   5.902   7.152 -1.4316 -1.7303  0.2336
  117SOPE   C2312296   0.742   6.205   7.364  0.2772 -0.5215  0.1901
  117SOPE   H3R12297   0.828   6.175   7.427 -0.7476 -0.3430  1.7167
  117SOPE   H3S12298   0.770   6.310   7.343  0.8513 -0.8019 -0.4921
  117SOPE   C2412299   0.761   6.125   7.229  0.0856  0.6994 -0.2663
  117SOPE   H4R12300   0.854   6.168   7.186  1.5211 -1.3033  0.6394
  117SOPE   H4S12301   0.788   6.019   7.252 -1.3476 -0.2242 -2.5200
  117SOPE   C2512302   0.654   6.154   7.132  0.2845 -0.2402  0.5202
  117SOPE   H5R12303   0.562   6.099   7.162 -1.0329  1.2446 -0.6556
  117SOPE   H5S12304   0.620   6.259   7.128  0.7468 -0.0808  0.7465
  117SOPE   C2612305   0.694   6.096   6.986  0.2798  0.3675 -0.8901
  117SOPE   H6R12306   0.759   6.007   6.988 -1.0534 -0.6320  0.0419
  117SOPE   H6S12307   0.600   6.063   6.937 -0.4434  0.9466  0.0566
  117SOPE   C2712308   0.770   6.196   6.897 -0.3848  0.0398  0.4076
  117SOPE   H7R12309   0.703   6.283   6.877 -1.6699 -1.0030 -0.0059
  117SOPE   H7S12310   0.854   6.229   6.961 -2.4788 -0.5979  3.7621
  117SOPE   C2812311   0.807   6.134   6.761  0.3964 -0.1426 -0.1538
  117SOPE   H8R12312   0.856   6.208   6.693  1.6209 -2.1179 -1.5476
  117SOPE   H8S12313   0.883   6.052   6.759 -1.3180 -1.7830 -1.2394
  117SOPE   C2912314   0.690   6.064   6.695  0.2165  0.0274  0.3911
  117SOPE   H9112315   0.674   5.961   6.731  0.5793 -0.3178 -0.4220
  117SOPE  C21012316   0.609   6.120   6.603  0.0440  0.2978  0.4471
  117SOPE  H10112317   0.525   6.058   6.567  0.0805 -1.1803  2.6918
  117SOPE  C21112318   0.624   6.253   6.546  0.0127 -0.2624  0.8351
  117SOPE  H11R12319   0.716   6.259   6.485 -1.4296  0.2210 -1.4079
  117SOPE  H11S12320   0.623   6.331   6.625  0.8808  0.0319  0.5676
  117SOPE  C21212321   0.516   6.281   6.440 -0.4941  0.9376  0.2073
  117SOPE  H12R12322   0.511   6.388   6.409 -0.7715  0.6407 -0.8047
  117SOPE  H12S12323   0.413   6.270   6.482 -0.1633 -0.6106  0.6628
  117SOPE  C21312324   0.543   6.207   6.310  0.0781 -0.1788  0.3048
  117SOPE  H13R12325   0.520   6.099   6.322 -0.2685 -0.3812 -1.8212
  117SOPE  H13S12326   0.645   6.226   6.270  0.5476 -1.8609  0.6454
  117SOPE  C21412327   0.446   6.262   6.202 -0.0391 -0.9156 -0.3516
  117SOPE  H14R12328   0.463   6.371   6.191  2.5880 -1.1678  0.4929
  117SOPE  H14S12329   0.339   6.256   6.231  0.2997 -0.2873  1.1032
  117SOPE  C21512330   0.467   6.204   6.054 -0.8884 -0.3869 -0.7055
  117SOPE  H15R12331   0.464   6.093   6.063 -2.1202 -0.3606 -0.5607
  117SOPE  H15S12332   0.568   6.238   6.024 -0.4830  0.8709  1.8158
  117SOPE  C21612333   0.360   6.266   5.958  0.5129  1.1330  0.3197
  117SOPE  H16R12334   0.390   6.368   5.926 -0.4405  1.2834 -0.1254
  117SOPE  H16S12335   0.261   6.277   6.008  0.5281 -2.5693  1.5142
  117SOPE  C21712336   0.338   6.177   5.831 -0.5271 -0.2258  0.5143
  117SOPE  H17R12337   0.314   6.073   5.863  0.5725 -0.0685  1.9138
  117SOPE  H17S12338   0.430   6.187   5.768 -0.9306 -0.8340 -0.1914
  117SOPE  C21812339   0.227   6.231   5.736 -0.2060 -0.4145 -0.2134
  117SOPE  H18R12340   0.230   6.172   5.641 -2.3396 -1.3984  0.2698
  117SOPE  H18S12341   0.256   6.336   5.713 -2.6166  0.6622  1.3053
  117SOPE  H18T12342   0.123   6.223   5.774 -0.0649 -2.5554 -0.1490
  117SOPE   C3312343   0.420   5.714   7.072  0.6535 -0.2319  0.4496
  117SOPE   H3X12344   0.317   5.677   7.050  0.8818 -1.4279  1.2877
  117SOPE   H3Y12345   0.483   5.625   7.095  0.5882 -1.6790 -3.9830
  117SOPE   C3412346   0.476   5.777   6.941 -0.1922  0.1242  0.1281
  117SOPE   H4X12347   0.579   5.812   6.960 -0.8918  1.4127  1.8997
  117SOPE   H4Y12348   0.418   5.871   6.929 -0.7005 -0.4195 -2.0357
  117SOPE   C3512349   0.452   5.688   6.819 -0.0557 -0.6152  0.1625
  117SOPE   H5X12350   0.349   5.649   6.832  0.2828 -1.2721  1.0163
  117SOPE   H5Y12351   0.509   5.593   6.828  0.5149 -0.2832  0.0927
  117SOPE   C3612352   0.478   5.756   6.691 -0.2091 -0.0654  0.4406
  117SOPE   H6X12353   0.585   5.741   6.666 -0.0746 -0.7287  1.3364
  117SOPE   H6Y12354   0.454   5.864   6.704 -1.0201 -0.2545  0.6111
  117SOPE   C3712355   0.397   5.696   6.575 -0.4362  0.4276 -0.3056
  117SOPE   H7X12356   0.292   5.726   6.593  0.4230  2.2483  2.3057
  117SOPE   H7Y12357   0.405   5.586   6.587  1.6819  0.7492  2.5270
  117SOPE   C3812358   0.457   5.756   6.443  0.3541 -0.1919 -0.2714
  117SOPE   H8X12359   0.559   5.718   6.422 -0.0602 -2.3721  1.3659
  117SOPE   H8Y12360   0.474   5.866   6.445 -0.9086  0.0125  1.6033
  117SOPE   C3912361   0.367   5.736   6.319 -0.2877  0.4135 -0.2851
  117SOPE   H9X12362   0.284   5.808   6.335  0.8464  1.5582  0.6401
  117SOPE   H9Y12363   0.334   5.630   6.316 -1.8926  0.8334  1.2833
  117SOPE  C31012364   0.429   5.778   6.189  0.1675 -0.0654  0.4149
  117SOPE  H10X12365   0.531   5.735   6.197  0.6774  1.3045  1.7356
  117SOPE  H10Y12366   0.443   5.888   6.191  0.2773 -0.0754  0.1813
  117SOPE  C31112367   0.360   5.723   6.071  1.0479 -0.1599  0.8204
  117SOPE  H11X12368   0.262   5.773   6.054  2.6326  2.5710 -1.3872
  117SOPE  H11Y12369   0.347   5.613   6.080 -0.0349  0.0017  1.2944
  117SOPE  C31212370   0.437   5.741   5.943  0.4142 -0.4627  0.6777
  117SOPE  H12X12371   0.514   5.661   5.939  3.0412  1.9600  0.1045
  117SOPE  H12Y12372   0.477   5.844   5.932 -2.1964  0.5503 -0.0649
  117SOPE  C31312373   0.347   5.722   5.815  0.2086  0.0953 -0.3374
  117SOPE  H13X12374   0.262   5.791   5.834  0.7793  0.9892 -0.9839
  117SOPE  H13Y12375   0.296   5.624   5.822  1.1876 -0.5192 -1.3822
  117SOPE  C31412376   0.416   5.755   5.687 -0.5317  0.2889  0.5868
  117SOPE  H14X12377   0.470   5.851   5.705 -0.5493  0.4284 -0.0802
  117SOPE  H14Y12378   0.344   5.783   5.607  0.0492  2.4332  0.7606
  117SOPE  C31512379   0.528   5.655   5.646 -0.6219  0.2540  0.1784
  117SOPE  H15X12380   0.471   5.564   5.615 -1.5869  1.1563 -0.7858
  117SOPE  H15Y12381   0.576   5.635   5.744 -1.7998 -2.6995  0.2722
  117SOPE  C31612382   0.628   5.712   5.542  1.1755 -0.1357  0.0837
  117SOPE  H16X12383   0.659   5.813   5.577 -0.8599  0.8637 -0.8462
  117SOPE  H16Y12384   0.573   5.743   5.451  0.2318 -2.4430 -0.2176
  117SOPE  C31712385   0.740   5.617   5.509  0.0937 -0.8288 -0.2714
  117SOPE  H17X12386   0.698   5.529   5.455  0.8491 -2.3514  1.5024
  117SOPE  H17Y12387   0.783   5.589   5.608 -0.9387 -0.1761  0.3890
  117SOPE  C31812388   0.843   5.669   5.416  0.0205  0.8191  0.1051
  117SOPE  H18X12389   0.781   5.711   5.334 -0.9495 -1.6332 -0.5103
  117SOPE  H18Y12390   0.916   5.593   5.379 -1.7033 -0.6876 -0.3325
  117SOPE  H18Z12391   0.904   5.746   5.468  2.4114  0.3956 -1.8433
  118SOPE     N12392   6.558   0.566   7.474  0.6235  0.0905 -0.1746
  118SOPE   HN112393   6.628   0.490   7.460  2.2147  0.8527  2.6919
  118SOPE   HN212394   6.461   0.538   7.450 -0.1324  0.6787  1.9320
  118SOPE   HN312395   6.585   0.657   7.432 -1.5011  0.5429 -0.6543
  118SOPE   C1212396   6.548   0.584   7.618  0.0892  0.2735 -0.0468
  118SOPE  H12A12397   6.556   0.484   7.666 -0.5178  0.4844  0.5146
  118SOPE  H12B12398   6.450   0.629   7.646  0.2608 -0.0677  1.1905
  118SOPE   C1112399   6.659   0.676   7.666 -0.5023 -0.5365 -0.2983
  118SOPE  H11A12400   6.761   0.631   7.669  0.4436  1.3690 -1.3335
  118SOPE  H11B12401   6.623   0.701   7.768 -1.7313 -2.5773 -0.1855
  118SOPE     P12402   6.718   0.931   7.625  0.4027 -0.1532 -0.2008
  118SOPE   O1312403   6.784   0.925   7.760  0.4421 -0.4243 -0.4686
  118SOPE   O1412404   6.605   1.024   7.602 -0.1726 -0.3457 -0.2325
  118SOPE   O1212405   6.670   0.791   7.574  0.1442  0.3454 -0.1215
  118SOPE   O1112406   6.838   0.969   7.533  0.5875 -0.3061 -0.6746
  118SOPE    C112407   6.903   0.867   7.453 -0.4638  0.4364  0.0305
  118SOPE    HA12408   6.913   0.776   7.515  0.7755 -0.4353 -1.4007
  118SOPE    HB12409   7.010   0.895   7.451 -0.6498  1.1815 -2.1563
  118SOPE    C212410   6.834   0.849   7.316 -0.3690  0.6960 -0.2775
  118SOPE    HS12411   6.730   0.817   7.337 -0.1029 -2.2949 -2.7934
  118SOPE   O2112412   6.900   0.739   7.250 -0.1142  0.1551 -0.4869
  118SOPE   C2112413   6.814   0.661   7.183  0.2716  0.6121 -0.3341
  118SOPE   O2212414   6.694   0.680   7.174 -0.2481 -0.0788  0.0563
  118SOPE   C2212415   6.903   0.546   7.119 -0.5315 -0.6159  0.3505
  118SOPE   H2R12416   6.866   0.448   7.156 -0.3543 -0.1669  1.7745
  118SOPE   H2S12417   7.005   0.570   7.156 -0.6444  1.2091 -0.4148
  118SOPE    C312418   6.827   0.977   7.235  0.0908 -0.8610 -0.2481
  118SOPE    HX12419   6.932   1.010   7.223  0.2256 -0.3817  1.8214
  118SOPE    HY12420   6.758   1.045   7.289 -1.0265 -0.1324 -2.4715
  118SOPE   O3112421   6.780   0.956   7.102 -0.1457 -0.0912  0.0154
  118SOPE   C3112422   6.650   0.964   7.085 -0.2392 -0.6439 -0.5400
  118SOPE   O3212423   6.563   0.971   7.173  0.1918  0.5549  0.1033
  118SOPE   C3212424   6.618   0.963   6.939 -0.6568 -0.6526  0.1240
  118SOPE   H2X12425   6.637   1.062   6.893 -1.0526 -0.6813 -0.1051
  118SOPE   H2Y12426   6.510   0.937   6.943 -1.2265  1.6421  1.2198
  118SOPE   C2312427   6.895   0.545   6.965 -0.0065  0.1463 -0.5563
  118SOPE   H3R12428   6.969   0.606   6.909  3.6662 -3.0721  0.3334
  118SOPE   H3S12429   6.791   0.575   6.942 -0.2149  0.3240  0.5620
  118SOPE   C2412430   6.924   0.400   6.913 -1.0631  0.1139  0.1203
  118SOPE   H4R12431   7.027   0.366   6.940 -0.9632 -0.0813 -0.5027
  118SOPE   H4S12432   6.841   0.332   6.941 -0.3797 -0.4620  0.7777
  118SOPE   C2512433   6.909   0.410   6.761 -0.7141 -0.7772 -0.2194
  118SOPE   H5R12434   6.805   0.441   6.736  0.0582 -0.2719 -3.3092
  118SOPE   H5S12435   6.975   0.491   6.724 -1.3951  1.3492  2.8207
  118SOPE   C2612436   6.942   0.283   6.681 -0.4162 -0.1500  0.8061
  118SOPE   H6R12437   7.040   0.240   6.713 -0.0145 -0.6999 -1.0191
  118SOPE   H6S12438   6.855   0.214   6.687 -1.2556  0.9153  1.2076
  118SOPE   C2712439   6.947   0.317   6.524 -0.3191  0.6985 -0.1295
  118SOPE   H7R12440   6.848   0.356   6.490  0.1545  1.0087 -1.1871
  118SOPE   H7S12441   7.025   0.395   6.515 -0.7666  1.2001  0.2556
  118SOPE   C2812442   6.979   0.190   6.447  0.0547  0.0105 -0.1298
  118SOPE   H8R12443   6.906   0.114   6.482 -0.2990  0.2151 -0.4220
  118SOPE   H8S12444   6.949   0.221   6.345  0.9148 -0.2800 -0.4863
  118SOPE   C2912445   7.123   0.138   6.442 -0.9063 -0.1784 -1.0200
  118SOPE   H9112446   7.178   0.136   6.537  2.1066  0.6645 -2.6291
  118SOPE  C21012447   7.203   0.105   6.341  0.2813  0.7508  0.7646
  118SOPE  H10112448   7.308   0.078   6.357  0.1820 -0.3921 -0.3635
  118SOPE  C21112449   7.177   0.115   6.194 -0.6491  0.1043 -0.4665
  118SOPE  H11R12450   7.075   0.094   6.156  0.7659 -0.8148 -4.1723
  118SOPE  H11S12451   7.250   0.054   6.137 -2.1685 -0.8518 -1.4829
  118SOPE  C21212452   7.201   0.260   6.151  0.0598 -0.6833  0.2864
  118SOPE  H12R12453   7.304   0.285   6.182 -0.1848 -0.7215  1.1651
  118SOPE  H12S12454   7.136   0.326   6.212 -1.2905 -1.1100 -0.6392
  118SOPE  C21312455   7.187   0.299   6.003  0.2242  0.1523  0.3617
  118SOPE  H13R12456   7.257   0.243   5.938 -0.9647 -0.7775 -0.1674
  118SOPE  H13S12457   7.220   0.404   5.987  0.7903  0.1647  1.5463
  118SOPE  C21412458   7.040   0.276   5.959 -0.1895  0.2984 -0.3684
  118SOPE  H14R12459   6.985   0.334   6.036  2.7883  2.3047  0.4266
  118SOPE  H14S12460   7.017   0.167   5.957  0.3698  0.1753 -0.3881
  118SOPE  C21512461   6.999   0.326   5.820  0.3451 -0.3162 -0.5461
  118SOPE  H15R12462   6.992   0.437   5.823  1.3145 -0.2142 -1.6023
  118SOPE  H15S12463   6.895   0.287   5.808  0.5822 -1.8299  1.6642
  118SOPE  C21612464   7.081   0.297   5.701  0.1823  0.2073  0.2029
  118SOPE  H16R12465   7.089   0.187   5.689  0.0354 -0.1619  2.8127
  118SOPE  H16S12466   7.180   0.345   5.709 -0.2128  0.6801  4.9801
  118SOPE  C21712467   7.012   0.349   5.577  0.2604  0.1651  0.0626
  118SOPE  H17R12468   7.012   0.460   5.579 -2.5270  0.2510 -0.8147
  118SOPE  H17S12469   6.908   0.311   5.566  0.7476 -1.4363  0.7401
  118SOPE  C21812470   7.104   0.316   5.453  0.2988  0.2327  0.2192
  118SOPE  H18R12471   7.213   0.330   5.468  0.1944  0.7474  0.5530
  118SOPE  H18S12472   7.062   0.370   5.365 -0.9512  2.7676  2.2071
  118SOPE  H18T12473   7.106   0.206   5.436  0.7698  0.2374  0.2489
  118SOPE   C3312474   6.705   0.855   6.861 -0.1240 -0.1280 -0.3266
  118SOPE   H3X12475   6.683   0.765   6.922  1.0981 -0.4018 -0.2631
  118SOPE   H3Y12476   6.813   0.878   6.874 -0.3888  1.3489 -0.4770
  118SOPE   C3412477   6.670   0.826   6.717  0.3112  1.0628  0.1927
  118SOPE   H4X12478   6.566   0.787   6.712  0.6079  0.2478  0.1989
  118SOPE   H4Y12479   6.737   0.754   6.665  0.8332  2.4830 -1.2148
  118SOPE   C3512480   6.681   0.950   6.625 -0.2697  0.3038  0.4978
  118SOPE   H5X12481   6.786   0.985   6.622 -1.0120  2.6215 -0.0818
  118SOPE   H5Y12482   6.628   1.036   6.672 -0.7642 -0.8634  2.1747
  118SOPE   C3612483   6.648   0.927   6.478 -0.0251 -0.0728 -0.4869
  118SOPE   H6X12484   6.548   0.970   6.451  0.1674 -0.1579 -1.3672
  118SOPE   H6Y12485   6.642   0.817   6.468 -1.5473 -0.3054  1.9986
  118SOPE   C3712486   6.749   0.979   6.379 -0.0149 -0.3243  0.3946
  118SOPE   H7X12487   6.853   0.954   6.409  0.0502  0.0997  0.5327
  118SOPE   H7Y12488   6.734   1.087   6.396  1.1852 -0.1004  0.1363
  118SOPE   C3812489   6.718   0.944   6.229  0.4193  0.1598  0.3088
  118SOPE   H8X12490   6.813   0.961   6.175 -0.1124  2.0646 -0.1005
  118SOPE   H8Y12491   6.643   1.011   6.183  1.9869  0.8808 -1.3188
  118SOPE   C3912492   6.675   0.803   6.207 -0.1283 -1.0320  0.1286
  118SOPE   H9X12493   6.577   0.787   6.257 -0.7680  1.1769 -0.3395
  118SOPE   H9Y12494   6.737   0.724   6.254 -0.6787 -1.4032  0.2515
  118SOPE  C31012495   6.638   0.768   6.059 -0.2134  0.2145 -0.0290
  118SOPE  H10X12496   6.562   0.837   6.016  0.9697  0.8028 -1.2472
  118SOPE  H10Y12497   6.584   0.671   6.054 -1.3458  0.7417  1.3665
  118SOPE  C31112498   6.759   0.766   5.963 -0.0595  0.5988 -0.2299
  118SOPE  H11X12499   6.851   0.738   6.020  0.9342  1.9310 -1.1184
  118SOPE  H11Y12500   6.785   0.868   5.926  1.0798 -0.0484 -1.3053
  118SOPE  C31212501   6.749   0.673   5.840  0.4196  0.6467 -0.3461
  118SOPE  H12X12502   6.744   0.566   5.869  1.6083  0.2049 -1.6225
  118SOPE  H12Y12503   6.842   0.688   5.781  0.1686  1.6862 -0.4903
  118SOPE  C31312504   6.621   0.697   5.760  0.7462  0.1291  0.2918
  118SOPE  H13X12505   6.618   0.806   5.743  0.2936 -0.1013 -1.3098
  118SOPE  H13Y12506   6.535   0.657   5.818 -0.2351 -0.1331 -1.2864
  118SOPE  C31412507   6.615   0.633   5.622 -0.5557  0.2212  0.3202
  118SOPE  H14X12508   6.624   0.525   5.647  0.2389  0.2398  0.1218
  118SOPE  H14Y12509   6.696   0.671   5.557 -1.6332  3.0079  0.4813
  118SOPE  C31512510   6.481   0.669   5.551  0.1099 -0.4611 -0.5384
  118SOPE  H15X12511   6.472   0.780   5.544 -0.6309 -0.2363  2.4047
  118SOPE  H15Y12512   6.398   0.641   5.620 -0.8581  0.5027 -1.2656
  118SOPE  C31612513   6.469   0.599   5.416 -0.3382 -0.5868 -0.2069
  118SOPE  H16X12514   6.443   0.491   5.424 -0.0741 -0.5318  2.2320
  118SOPE  H16Y12515   6.566   0.619   5.366 -0.9763 -1.1321 -1.7200
  118SOPE  C31712516   6.364   0.662   5.325  0.2389 -0.6977  0.3698
  118SOPE  H17X12517   6.383   0.771   5.312  0.5964 -0.6925  0.9512
  118SOPE  H17Y12518   6.262   0.666   5.368 -0.1818  2.9259 -0.6404
  118SOPE  C31812519   6.365   0.590   5.192 -0.8575 -0.1932 -0.2240
  118SOPE  H18X12520   6.466   0.601   5.147 -1.1520  1.0808 -0.6382
  118SOPE  H18Y12521   6.294   0.640   5.121  1.7863  1.7136 -1.7004
  118SOPE  H18Z12522   6.340   0.482   5.192 -1.0545 -0.1497 -0.3039
  119SOPE     N12523   1.176   0.041   7.527  0.5942 -0.6642  0.1744
  119SOPE   HN112524   1.230   0.021   7.613 -1.6946  0.7716  2.0751
  119SOPE   HN212525   1.083   0.001   7.551  0.3484 -0.7626 -0.8725
  119SOPE   HN312526   1.210  -0.014   7.446  0.4037 -0.3579 -0.1198
  119SOPE   C1212527   1.162   0.190   7.501 -1.0467 -0.6448 -0.3673
  119SOPE  H12A12528   1.119   0.209   7.401  1.7527 -0.6807 -1.6845
  119SOPE  H12B12529   1.269   0.218   7.492 -0.3686 -2.1977  1.8263
  119SOPE   C1112530   1.090   0.263   7.617  0.0326  0.2439 -0.3753
  119SOPE  H11A12531   1.118   0.369   7.631 -1.6294  0.5717  0.8748
  119SOPE  H11B12532   1.132   0.225   7.713  2.3007 -1.0082 -1.7876
  119SOPE     P12533   0.857   0.343   7.528  0.3362  0.0424  0.0161
  119SOPE   O1312534   0.846   0.479   7.585  0.1176 -0.5221 -0.2043
  119SOPE   O1412535   0.727   0.275   7.511 -0.2425 -0.0116  0.2070
  119SOPE   O1212536   0.943   0.251   7.620 -0.3662 -0.0746  0.1010
  119SOPE   O1112537   0.936   0.345   7.384  0.0071 -0.2303  0.4480
  119SOPE    C112538   0.864   0.333   7.265 -0.2649 -0.1708 -0.3331
  119SOPE    HA12539   0.901   0.419   7.205  0.0575  1.7456  2.4355
  119SOPE    HB12540   0.758   0.360   7.281  0.4178  2.1090  0.7174
  119SOPE    C212541   0.894   0.190   7.200 -0.3111 -0.4552 -0.0540
  119SOPE    HS12542   0.934   0.134   7.288 -2.5726  0.1209  1.4426
  119SOPE   O2112543   0.994   0.208   7.101  0.0645  0.1779  0.4479
  119SOPE   C2112544   1.078   0.111   7.076 -0.4031 -0.1606  0.0503
  119SOPE   O2212545   1.095   0.011   7.145  0.6302 -0.1072  0.8902
  119SOPE   C2212546   1.156   0.140   6.942 -0.0059  0.3575  0.4714
  119SOPE   H2R12547   1.264   0.152   6.967 -0.5563  2.7858  2.1639
  119SOPE   H2S12548   1.123   0.241   6.910 -2.1258 -0.5485 -0.3459
  119SOPE    C312549   0.765   0.117   7.145  0.2128 -0.0742  0.1005
  119SOPE    HX12550   0.677   0.112   7.212 -0.4234  0.0042 -0.7124
  119SOPE    HY12551   0.792   0.012   7.122 -0.2286 -0.9150  3.0691
  119SOPE   O3112552   0.726   0.158   7.010  0.9324  0.3042  0.1080
  119SOPE   C3112553   0.650   0.267   6.998  0.7595  0.1231  0.1161
  119SOPE   O3212554   0.605   0.331   7.090  0.0537 -0.1649  0.4646
  119SOPE   C3212555   0.622   0.291   6.856 -0.4943  0.8881  0.4498
  119SOPE   H2X12556   0.562   0.211   6.808 -0.4820  1.4961 -0.6167
  119SOPE   H2Y12557   0.720   0.304   6.805 -0.3714 -1.3900 -0.0030
  119SOPE   C2312558   1.133   0.027   6.834 -0.4486  0.6229  0.7389
  119SOPE   H3R12559   1.026   0.000   6.819 -0.2523 -0.9346  1.7925
  119SOPE   H3S12560   1.195  -0.061   6.861 -0.1309  0.1781 -1.2849
  119SOPE   C2412561   1.188   0.083   6.703  0.1029 -0.4027  0.2175
  119SOPE   H4R12562   1.138   0.182   6.692 -0.6686 -0.7753  0.2562
  119SOPE   H4S12563   1.296   0.103   6.719 -0.3431  0.3478  2.7283
  119SOPE   C2512564   1.166  -0.005   6.587 -1.3734  0.2570  0.0064
  119SOPE   H5R12565   1.222  -0.097   6.613 -2.1637  0.3407  2.2592
  119SOPE   H5S12566   1.065  -0.044   6.563 -1.9729  1.7442 -0.0189
  119SOPE   C2612567   1.222   0.058   6.455  0.8323  0.0657 -0.4766
  119SOPE   H6R12568   1.212  -0.011   6.369  1.2283 -1.8760  0.9693
  119SOPE   H6S12569   1.159   0.145   6.427  0.4664 -0.2237 -0.5558
  119SOPE   C2712570   1.364   0.106   6.462 -0.2061 -0.5386  0.6149
  119SOPE   H7R12571   1.373   0.196   6.526 -1.6818  0.6418 -0.7356
  119SOPE   H7S12572   1.442   0.033   6.491  1.8033  1.6983  1.1728
  119SOPE   C2812573   1.427   0.127   6.323 -0.1931 -0.2736 -0.2636
  119SOPE   H8R12574   1.528   0.171   6.328 -0.9481  1.5269 -0.2050
  119SOPE   H8S12575   1.452   0.034   6.267  3.7370  0.0202  0.7255
  119SOPE   C2912576   1.347   0.214   6.230  0.0292 -0.1986 -0.2144
  119SOPE   H9112577   1.290   0.290   6.285 -1.3633 -0.7615 -0.8214
  119SOPE  C21012578   1.329   0.206   6.099  0.8302  0.1578  0.1733
  119SOPE  H10112579   1.256   0.276   6.056  0.1205 -2.0440 -2.4625
  119SOPE  C21112580   1.369   0.096   6.001 -0.5238 -0.3093  0.0571
  119SOPE  H11R12581   1.418   0.007   6.045 -0.0876 -0.7907 -1.3828
  119SOPE  H11S12582   1.447   0.140   5.936 -0.2702  0.9174  1.1355
  119SOPE  C21212583   1.262   0.043   5.911 -0.0504  0.1210  0.5865
  119SOPE  H12R12584   1.298  -0.011   5.820 -0.3995  0.5735  0.1702
  119SOPE  H12S12585   1.212   0.132   5.867  0.3316  0.2188  0.3448
  119SOPE  C21312586   1.159  -0.049   5.974  0.6335 -0.6026 -0.9076
  119SOPE  H13R12587   1.097  -0.008   6.056  1.1276 -0.2846 -0.6886
  119SOPE  H13S12588   1.217  -0.131   6.022 -2.4612 -0.8454  2.8463
  119SOPE  C21412589   1.064  -0.112   5.872  0.5043 -0.3985 -0.3637
  119SOPE  H14R12590   1.116  -0.171   5.793  3.2547  2.3169 -0.7392
  119SOPE  H14S12591   1.010  -0.030   5.821  0.1521 -1.2182 -1.3504
  119SOPE  C21512592   0.956  -0.202   5.930 -0.2878 -0.4587 -0.3027
  119SOPE  H15R12593   0.897  -0.144   6.003  0.3960 -0.5476  0.3372
  119SOPE  H15S12594   0.996  -0.295   5.977 -1.1229  0.3841  2.1918
  119SOPE  C21612595   0.859  -0.251   5.818 -0.5592 -0.3119 -0.8357
  119SOPE  H16R12596   0.911  -0.296   5.731  0.4073  0.4231 -0.6537
  119SOPE  H16S12597   0.810  -0.158   5.782 -0.6946 -0.3267 -0.6915
  119SOPE  C21712598   0.751  -0.346   5.866 -0.3644  0.0735 -0.1927
  119SOPE  H17R12599   0.804  -0.414   5.937 -1.6056 -1.8551 -1.0325
  119SOPE  H17S12600   0.714  -0.416   5.788 -0.1747 -0.2173 -0.0241
  119SOPE  C21812601   0.640  -0.273   5.937 -0.2057 -0.0268 -0.2894
  119SOPE  H18R12602   0.685  -0.196   6.003  2.9756 -2.2312  0.3676
  119SOPE  H18S12603   0.589  -0.352   5.996 -1.1927 -0.6531 -1.9172
  119SOPE  H18T12604   0.565  -0.234   5.865  0.7380  1.0313 -0.7368
  119SOPE   C3312605   0.545   0.425   6.840  0.2583 -0.0214 -0.6761
  119SOPE   H3X12606   0.616   0.506   6.866  1.2868 -1.6243  1.8906
  119SOPE   H3Y12607   0.465   0.437   6.916  0.3643  2.3955 -0.8782
  119SOPE   C3412608   0.500   0.454   6.698 -0.1740  0.2077  0.6808
  119SOPE   H4X12609   0.399   0.408   6.686 -0.8924  1.4734  1.6393
  119SOPE   H4Y12610   0.567   0.412   6.619 -1.7307 -1.5331  0.1929
  119SOPE   C3512611   0.457   0.604   6.672  0.4430 -0.2206 -0.3422
  119SOPE   H5X12612   0.533   0.677   6.708 -1.4205  0.7155  1.9698
  119SOPE   H5Y12613   0.365   0.631   6.729  1.6471  0.5994  1.2853
  119SOPE   C3612614   0.415   0.630   6.530  0.3665  0.3886 -0.1522
  119SOPE   H6X12615   0.348   0.554   6.485 -1.5366  0.3743  2.4933
  119SOPE   H6Y12616   0.506   0.611   6.469  1.8858 -1.1343  2.4203
  119SOPE   C3712617   0.365   0.773   6.502  0.0383  0.5332 -0.7635
  119SOPE   H7X12618   0.426   0.844   6.562  0.8995 -1.3395  0.6865
  119SOPE   H7Y12619   0.265   0.790   6.547  0.9581  0.1204  1.5234
  119SOPE   C3812620   0.382   0.813   6.354  0.3250 -0.3726 -0.1387
  119SOPE   H8X12621   0.492   0.817   6.337  0.2770  1.7105 -0.2199
  119SOPE   H8Y12622   0.349   0.919   6.364  1.9889  0.1394  0.2034
  119SOPE   C3912623   0.315   0.727   6.253 -0.2250  0.1980 -0.3880
  119SOPE   H9X12624   0.215   0.699   6.291 -1.2964  0.3552 -2.8470
  119SOPE   H9Y12625   0.381   0.639   6.238 -0.1054  0.4956 -1.8002
  119SOPE  C31012626   0.291   0.808   6.128 -0.5248  0.0082  0.1850
  119SOPE  H10X12627   0.253   0.910   6.151 -0.9570  0.2388 -1.4074
  119SOPE  H10Y12628   0.215   0.759   6.063 -0.9896  1.0138 -0.0412
  119SOPE  C31112629   0.414   0.827   6.037  0.4665 -0.0686 -0.1266
  119SOPE  H11X12630   0.487   0.886   6.098  1.2919 -0.6285 -0.5604
  119SOPE  H11Y12631   0.384   0.897   5.956 -1.1676 -1.0702 -0.4197
  119SOPE  C31212632   0.472   0.704   5.973  0.4205 -0.6009 -0.2395
  119SOPE  H12X12633   0.396   0.677   5.897 -0.4441  0.7777  0.1084
  119SOPE  H12Y12634   0.458   0.629   6.054  0.0026 -1.3995 -1.0333
  119SOPE  C31312635   0.617   0.724   5.933 -0.2388 -0.0035 -0.0849
  119SOPE  H13X12636   0.681   0.730   6.023 -1.6418 -1.3681  1.0801
  119SOPE  H13Y12637   0.619   0.823   5.883  0.7462 -0.5318 -1.1295
  119SOPE  C31412638   0.670   0.619   5.832 -0.5781  0.2385  0.1006
  119SOPE  H14X12639   0.692   0.526   5.887 -1.4262  0.1753  0.3421
  119SOPE  H14Y12640   0.766   0.660   5.792 -2.0342  2.0399 -1.7909
  119SOPE  C31512641   0.591   0.598   5.709  0.6818  0.2005  0.5247
  119SOPE  H15X12642   0.489   0.564   5.733  1.4955 -1.8190  1.3076
  119SOPE  H15Y12643   0.637   0.523   5.641  0.1739  0.9550 -0.6857
  119SOPE  C31612644   0.578   0.718   5.617 -0.6308 -0.6478 -0.4236
  119SOPE  H16X12645   0.683   0.746   5.593 -1.6737  3.6428 -0.8276
  119SOPE  H16Y12646   0.529   0.809   5.660 -2.4744 -1.4898 -0.6380
  119SOPE  C31712647   0.496   0.677   5.492 -0.0789  0.4672  0.0803
  119SOPE  H17X12648   0.398   0.637   5.525  0.3346 -1.0098 -0.4263
  119SOPE  H17Y12649   0.548   0.592   5.444 -0.3387 -0.3117  1.1449
  119SOPE  C31812650   0.485   0.786   5.385 -0.3599 -0.6827  0.0790
  119SOPE  H18X12651   0.584   0.817   5.346 -0.7535 -1.1710 -1.3747
  119SOPE  H18Y12652   0.418   0.869   5.416 -1.6100 -1.4175 -0.5773
  119SOPE  H18Z12653   0.435   0.737   5.299  2.0881 -0.5776 -1.4910
  120SOPE     N12654   0.799   4.712   7.894  0.3574  0.2428  0.4647
  120SOPE   HN112655   0.754   4.782   7.956 -0.2347 -0.9080  1.3689
  120SOPE   HN212656   0.902   4.706   7.904  0.2045 -0.6347  1.7149
  120SOPE   HN312657   0.790   4.752   7.798 -0.4338 -0.0273  0.4186
  120SOPE   C1212658   0.750   4.567   7.908 -0.3037  0.6170 -0.2415
  120SOPE  H12A12659   0.640   4.558   7.906 -0.2699  0.2936 -0.9715
  120SOPE  H12B12660   0.793   4.535   8.005 -0.6577  2.6826  0.6553
  120SOPE   C1112661   0.812   4.469   7.800 -0.0603 -0.7262  0.4677
  120SOPE  H11A12662   0.781   4.505   7.700  1.3610 -0.6029  0.0527
  120SOPE  H11B12663   0.769   4.368   7.814 -0.2299 -1.0707 -2.1360
  120SOPE     P12664   1.040   4.372   7.709 -0.3098  0.2662 -0.0866
  120SOPE   O1312665   0.988   4.231   7.736 -0.0387 -1.1000  0.3970
  120SOPE   O1412666   1.180   4.404   7.724  0.2017 -0.7320  0.4301
  120SOPE   O1212667   0.955   4.472   7.806 -0.3812  0.3376  0.7225
  120SOPE   O1112668   0.997   4.402   7.567  0.4193  0.1018 -0.2404
  120SOPE    C112669   0.974   4.537   7.515 -0.1583  0.0415  0.6545
  120SOPE    HA12670   1.000   4.623   7.581 -1.3966  2.2944 -1.6314
  120SOPE    HB12671   0.868   4.551   7.486  0.6427  1.2411 -2.0683
  120SOPE    C212672   1.042   4.550   7.374  0.4961  0.0841 -0.0514
  120SOPE    HS12673   1.151   4.534   7.382  0.8998  2.7144  0.3563
  120SOPE   O2112674   1.002   4.677   7.317  0.7828 -0.0766  0.5603
  120SOPE   C2112675   1.083   4.723   7.223 -0.0097  1.0113  0.1568
  120SOPE   O2212676   1.171   4.664   7.163 -0.0790  0.1191 -0.4320
  120SOPE   C2212677   1.046   4.868   7.186  0.3135  0.0469  0.1674
  120SOPE   H2R12678   1.016   4.922   7.278  2.1271 -0.7382  1.2651
  120SOPE   H2S12679   0.954   4.870   7.124  0.3487 -0.3516  0.0992
  120SOPE    C312680   0.969   4.437   7.289  0.1792 -0.3920  0.1598
  120SOPE    HX12681   0.865   4.416   7.320  0.1479 -0.1401  0.2310
  120SOPE    HY12682   1.029   4.347   7.315 -0.3092 -0.1715  2.2189
  120SOPE   O3112683   0.981   4.456   7.145 -0.5237 -0.2018 -0.3011
  120SOPE   C3112684   0.911   4.371   7.073 -0.2447  0.7160 -0.0746
  120SOPE   O3212685   0.857   4.271   7.121  0.5709  0.1150 -0.4579
  120SOPE   C3212686   0.908   4.410   6.925  0.2512  0.9817  0.2178
  120SOPE   H2X12687   1.011   4.431   6.888  1.1821 -1.2372  1.3774
  120SOPE   H2Y12688   0.832   4.491   6.916 -1.7036 -0.9954 -3.1061
  120SOPE   C2312689   1.169   4.943   7.133 -0.2022 -0.1295  0.2253
  120SOPE   H3R12690   1.228   4.875   7.067 -0.0957  2.5728 -2.7169
  120SOPE   H3S12691   1.234   4.982   7.215 -1.3743  1.3064  0.5198
  120SOPE   C2412692   1.145   5.068   7.049 -0.1953  0.0337  0.8739
  120SOPE   H4R12693   1.048   5.117   7.069 -0.4265  1.0452 -2.1945
  120SOPE   H4S12694   1.224   5.142   7.071 -0.3362 -0.4806  3.5090
  120SOPE   C2512695   1.133   5.046   6.898  0.4518  0.6328 -0.3419
  120SOPE   H5R12696   1.227   5.004   6.855  0.5622  2.5856 -2.1750
  120SOPE   H5S12697   1.055   4.969   6.877  0.4591  0.3476  0.6474
  120SOPE   C2612698   1.103   5.181   6.831  0.2577 -0.3186 -0.2781
  120SOPE   H6R12699   1.000   5.209   6.865  0.4544  2.3224 -1.5868
  120SOPE   H6S12700   1.172   5.267   6.845  0.7467 -0.6518 -0.6172
  120SOPE   C2712701   1.095   5.159   6.681 -0.1252  0.3013  0.3767
  120SOPE   H7R12702   1.183   5.112   6.633  0.2147  0.9905  0.3161
  120SOPE   H7S12703   1.017   5.085   6.654 -1.9243  1.4961  2.0262
  120SOPE   C2812704   1.057   5.296   6.598  0.0876  0.0069  0.3892
  120SOPE   H8R12705   0.995   5.358   6.667  1.0095 -0.3280  1.5543
  120SOPE   H8S12706   1.153   5.350   6.591  1.5450 -1.7737  3.7868
  120SOPE   C2912707   0.987   5.281   6.467  0.6402 -0.8130  0.6908
  120SOPE   H9112708   0.880   5.305   6.475  0.2785 -2.5881  1.8062
  120SOPE  C21012709   1.042   5.258   6.348 -0.4919  0.2889  0.3868
  120SOPE  H10112710   0.971   5.250   6.265  0.0227 -2.0348  0.0758
  120SOPE  C21112711   1.185   5.212   6.328 -0.5418 -0.4178  0.3823
  120SOPE  H11R12712   1.205   5.115   6.378  1.4782  0.5687  1.6402
  120SOPE  H11S12713   1.268   5.274   6.369 -2.0691  2.4100 -0.5555
  120SOPE  C21212714   1.211   5.202   6.181 -0.4792  0.7904 -0.6718
  120SOPE  H12R12715   1.200   5.292   6.118  0.9442  0.9331 -0.7637
  120SOPE  H12S12716   1.136   5.132   6.140 -0.7043  0.8072 -0.2906
  120SOPE  C21312717   1.344   5.124   6.157  0.1752  0.2590  0.2462
  120SOPE  H13R12718   1.369   5.043   6.228  0.4475 -0.2571 -0.4261
  120SOPE  H13S12719   1.427   5.198   6.161  0.1460  0.3216 -0.2461
  120SOPE  C21412720   1.338   5.043   6.024 -0.3450 -0.1199 -1.0686
  120SOPE  H14R12721   1.235   5.002   6.011 -0.2399 -0.6662 -0.2473
  120SOPE  H14S12722   1.423   4.972   6.033  0.1340  0.5737  0.0522
  120SOPE  C21512723   1.369   5.129   5.899  0.2033 -0.3916 -0.5296
  120SOPE  H15R12724   1.476   5.151   5.885 -0.0664  0.8126 -0.7549
  120SOPE  H15S12725   1.308   5.221   5.907 -0.0326 -0.6260  0.6060
  120SOPE  C21612726   1.311   5.049   5.783  0.0215 -0.0660 -0.9821
  120SOPE  H16R12727   1.200   5.057   5.793  0.2584  1.8322  0.5674
  120SOPE  H16S12728   1.334   4.942   5.802 -2.1297 -0.2548  1.1439
  120SOPE  C21712729   1.367   5.094   5.646  0.4091  0.7974 -1.1453
  120SOPE  H17R12730   1.343   5.202   5.637 -0.0782  0.9760  1.6543
  120SOPE  H17S12731   1.304   5.045   5.568 -1.7700  0.1320  0.9207
  120SOPE  C21812732   1.512   5.062   5.619 -0.2861  0.9675 -0.6271
  120SOPE  H18R12733   1.524   4.952   5.606 -0.0907  0.8634  0.3742
  120SOPE  H18S12734   1.580   5.079   5.705 -1.7881 -0.0498  0.8175
  120SOPE  H18T12735   1.548   5.103   5.521  0.0213 -1.1267 -1.4445
  120SOPE   C3312736   0.851   4.289   6.849 -0.2720  0.3228 -0.0257
  120SOPE   H3X12737   0.766   4.238   6.899 -1.2995 -0.0806 -2.0724
  120SOPE   H3Y12738   0.927   4.210   6.828 -1.1900 -0.9032  1.0589
  120SOPE   C3412739   0.784   4.328   6.715 -0.1399 -0.3332 -0.4577
  120SOPE   H4X12740   0.693   4.388   6.737  0.1890 -0.3269  0.9648
  120SOPE   H4Y12741   0.756   4.238   6.655 -1.7749 -0.8912  1.0542
  120SOPE   C3512742   0.881   4.395   6.616 -0.3586  0.5429 -0.4800
  120SOPE   H5X12743   0.976   4.337   6.606 -0.0401  1.1234 -0.8734
  120SOPE   H5Y12744   0.900   4.497   6.654  0.4139  1.1266 -2.3241
  120SOPE   C3612745   0.814   4.393   6.480 -1.0024  0.6740 -0.2753
  120SOPE   H6X12746   0.703   4.401   6.492 -0.9934 -0.8625  1.1104
  120SOPE   H6Y12747   0.838   4.307   6.414 -1.5760  1.5398 -1.6765
  120SOPE   C3712748   0.859   4.505   6.390  0.7111 -0.1660 -0.1196
  120SOPE   H7X12749   0.967   4.494   6.365  0.6277 -1.5557  0.0946
  120SOPE   H7Y12750   0.843   4.599   6.447 -1.0420 -0.6456  0.2365
  120SOPE   C3812751   0.782   4.512   6.258  0.0129 -0.7941 -0.5150
  120SOPE   H8X12752   0.844   4.586   6.203  3.0462 -2.9030 -0.2130
  120SOPE   H8Y12753   0.684   4.561   6.271  0.3710  0.5142 -2.3474
  120SOPE   C3912754   0.771   4.377   6.183 -0.2117 -0.6583  0.5301
  120SOPE   H9X12755   0.700   4.313   6.239  0.8979 -3.1320 -0.7319
  120SOPE   H9Y12756   0.873   4.332   6.186  1.1961  2.3313  0.9119
  120SOPE  C31012757   0.734   4.386   6.036 -0.5486  0.6557  0.3456
  120SOPE  H10X12758   0.812   4.451   5.992 -0.8377 -0.4108 -1.8450
  120SOPE  H10Y12759   0.640   4.441   6.016  0.1142  1.1392 -1.6880
  120SOPE  C31112760   0.730   4.249   5.961 -0.8226  0.1124  0.1072
  120SOPE  H11X12761   0.650   4.190   6.010 -0.0368 -1.7022 -0.6987
  120SOPE  H11Y12762   0.828   4.197   5.971 -1.1559 -0.3743  0.9000
  120SOPE  C31212763   0.704   4.261   5.809  0.0568  0.1559 -0.0179
  120SOPE  H12X12764   0.774   4.337   5.767  0.5536  0.0038  0.5274
  120SOPE  H12Y12765   0.602   4.302   5.794 -1.2884 -2.0234  2.3717
  120SOPE  C31312766   0.691   4.124   5.740  0.4451 -1.0458  0.7387
  120SOPE  H13X12767   0.632   4.050   5.798  0.0884 -0.5382  1.0216
  120SOPE  H13Y12768   0.795   4.087   5.726  0.7143  0.4355 -1.5850
  120SOPE  C31412769   0.621   4.127   5.600 -0.8601 -0.0667  0.2181
  120SOPE  H14X12770   0.616   4.022   5.563  2.4631  0.2877 -1.6360
  120SOPE  H14Y12771   0.691   4.173   5.527  0.5845  0.1680  1.6889
  120SOPE  C31512772   0.481   4.179   5.593 -0.1224 -0.2625 -0.5173
  120SOPE  H15X12773   0.474   4.288   5.615  0.9858  0.0331 -1.4998
  120SOPE  H15Y12774   0.429   4.123   5.674 -2.0472  0.7660 -0.9971
  120SOPE  C31612775   0.423   4.149   5.452 -0.2192 -0.5909  0.2793
  120SOPE  H16X12776   0.433   4.039   5.444  1.0378 -0.4369 -0.5914
  120SOPE  H16Y12777   0.490   4.202   5.381  0.7563  1.5720  2.6304
  120SOPE  C31712778   0.282   4.198   5.431  0.4386 -0.0069  0.0083
  120SOPE  H17X12779   0.285   4.309   5.442 -0.5300  0.4084 -3.0702
  120SOPE  H17Y12780   0.212   4.152   5.503 -0.7667  0.3985 -0.8740
  120SOPE  C31812781   0.225   4.180   5.289  0.1180  0.9162  0.7161
  120SOPE  H18X12782   0.292   4.222   5.210 -0.2049  2.1149  1.0727
  120SOPE  H18Y12783   0.128   4.231   5.274 -1.2804 -1.4005  1.3714
  120SOPE  H18Z12784   0.207   4.074   5.261 -0.0072  1.1205 -0.0052
  121SOPE     N12785   3.171   2.851   6.907  0.1036  1.2802  0.1804
  121SOPE   HN112786   3.086   2.854   6.846 -0.1140 -3.3343 -0.0816
  121SOPE   HN212787   3.185   2.753   6.936  0.3963  0.7561 -1.6013
  121SOPE   HN312788   3.151   2.917   6.985 -0.1826  0.4031  0.8561
  121SOPE   C1212789   3.284   2.892   6.823  0.1494  0.0314  0.1172
  121SOPE  H12A12790   3.322   2.991   6.858  0.2909 -0.0815  0.2881
  121SOPE  H12B12791   3.240   2.896   6.722 -1.1225 -2.9878  0.4550
  121SOPE   C1112792   3.400   2.783   6.824 -0.5249  0.0647 -0.0553
  121SOPE  H11A12793   3.479   2.826   6.760  0.5009  0.8106  1.6371
  121SOPE  H11B12794   3.370   2.683   6.785 -2.3006  0.3770  0.4430
  121SOPE     P12795   3.515   2.641   7.004 -0.0762  0.0620 -0.3972
  121SOPE   O1312796   3.436   2.557   7.096  0.1262 -0.3640  0.6887
  121SOPE   O1412797   3.652   2.674   7.053  0.2735  0.2344 -0.3799
  121SOPE   O1212798   3.439   2.766   6.958 -0.1149  0.3176 -0.4118
  121SOPE   O1112799   3.537   2.553   6.870 -0.8704 -0.0444 -0.4709
  121SOPE    C112800   3.567   2.412   6.881  0.1133  1.3755 -0.4710
  121SOPE    HA12801   3.514   2.365   6.795  1.1582  1.2145 -1.0459
  121SOPE    HB12802   3.526   2.373   6.976  2.5327 -0.0317  0.0948
  121SOPE    C212803   3.712   2.387   6.864 -0.3605  0.2956  0.1899
  121SOPE    HS12804   3.769   2.431   6.949 -0.1626 -2.1577  1.4255
  121SOPE   O2112805   3.748   2.443   6.739 -0.3463  0.3095  0.2681
  121SOPE   C2112806   3.833   2.542   6.755 -0.9395  0.1205 -0.1715
  121SOPE   O2212807   3.910   2.561   6.850  0.2761  0.2119  0.2886
  121SOPE   C2212808   3.822   2.635   6.641  0.2188  0.5898 -0.7246
  121SOPE   H2R12809   3.870   2.731   6.669 -0.0688  0.8671 -1.1631
  121SOPE   H2S12810   3.714   2.662   6.635  0.3070  1.1594  0.1375
  121SOPE    C312811   3.742   2.229   6.868 -0.1288 -0.3479  0.5101
  121SOPE    HX12812   3.722   2.179   6.965  0.6521 -1.0012  0.3471
  121SOPE    HY12813   3.853   2.233   6.857 -0.0920  0.3693  1.0956
  121SOPE   O3112814   3.691   2.153   6.756 -0.8115 -0.3455  0.2322
  121SOPE   C3112815   3.588   2.079   6.768 -0.0559  0.0563 -0.0014
  121SOPE   O3212816   3.548   2.039   6.875  0.4766 -0.2474  0.0831
  121SOPE   C3212817   3.519   2.049   6.640  0.2866  0.0199  0.2904
  121SOPE   H2X12818   3.480   2.141   6.592  1.3502  0.1219 -0.4091
  121SOPE   H2Y12819   3.434   1.980   6.658  1.3304 -1.8514 -1.4942
  121SOPE   C2312820   3.852   2.568   6.506 -0.0285  0.5926 -0.2734
  121SOPE   H3R12821   3.787   2.480   6.488 -1.1228  1.7138 -2.1203
  121SOPE   H3S12822   3.959   2.540   6.512 -0.3857 -0.5034  1.3501
  121SOPE   C2412823   3.835   2.667   6.389 -0.8120 -0.2569 -0.3508
  121SOPE   H4R12824   3.730   2.705   6.390 -0.6342  0.3372 -1.8372
  121SOPE   H4S12825   3.901   2.755   6.396 -1.7027  0.7105 -2.7803
  121SOPE   C2512826   3.858   2.610   6.249 -0.2141  0.0060 -0.0850
  121SOPE   H5R12827   3.965   2.580   6.236 -0.3447  0.1943 -1.9273
  121SOPE   H5S12828   3.798   2.517   6.247  0.4917 -0.4508 -0.9175
  121SOPE   C2612829   3.819   2.702   6.136  0.3576 -0.1312 -0.8160
  121SOPE   H6R12830   3.726   2.762   6.148  0.9441  0.6377 -0.0008
  121SOPE   H6S12831   3.900   2.778   6.138  1.6437 -1.4421  1.4108
  121SOPE   C2712832   3.817   2.631   5.999 -0.2561  0.3717  0.1659
  121SOPE   H7R12833   3.861   2.703   5.927  0.6970  0.7453  1.1153
  121SOPE   H7S12834   3.880   2.540   6.011 -3.0355 -1.3145  3.9725
  121SOPE   C2812835   3.680   2.576   5.971 -0.1166  0.2836  0.1580
  121SOPE   H8R12836   3.660   2.505   6.054  3.6878  0.4987  1.4702
  121SOPE   H8S12837   3.614   2.664   5.983 -2.1412 -1.0707 -0.4896
  121SOPE   C2912838   3.658   2.499   5.842 -0.7545  0.0482 -0.1029
  121SOPE   H9112839   3.706   2.400   5.830  0.4628  0.8424 -2.3969
  121SOPE  C21012840   3.583   2.543   5.747 -0.0913  0.3823  0.2819
  121SOPE  H10112841   3.576   2.477   5.660 -0.4292  1.0183 -0.1781
  121SOPE  C21112842   3.523   2.682   5.753 -0.0366 -0.2010 -0.8630
  121SOPE  H11R12843   3.478   2.711   5.850  0.5085  1.2222 -1.0041
  121SOPE  H11S12844   3.441   2.683   5.678  0.2363  1.1055 -1.1680
  121SOPE  C21212845   3.622   2.792   5.711 -0.3046 -0.4169  0.4116
  121SOPE  H12R12846   3.681   2.761   5.622  0.2257 -2.8887  1.5424
  121SOPE  H12S12847   3.695   2.783   5.794  1.0722 -0.2562 -0.7470
  121SOPE  C21312848   3.560   2.931   5.701  0.5850  0.2678 -0.2424
  121SOPE  H13R12849   3.507   2.963   5.794 -0.7481 -0.2337 -0.8063
  121SOPE  H13S12850   3.483   2.923   5.622 -1.6770  1.1634  1.7421
  121SOPE  C21412851   3.653   3.036   5.661  0.5174 -0.0012  0.1041
  121SOPE  H14R12852   3.593   3.123   5.626 -2.8942 -1.6100  1.4931
  121SOPE  H14S12853   3.714   3.005   5.573  0.5849  0.2371  0.0662
  121SOPE  C21512854   3.750   3.074   5.771 -0.3972 -0.1394 -0.0892
  121SOPE  H15R12855   3.823   3.150   5.738 -2.0681  1.0286 -1.2376
  121SOPE  H15S12856   3.799   2.984   5.814 -1.8482 -1.6337 -1.4380
  121SOPE  C21612857   3.682   3.142   5.888  0.1848  0.1499 -0.1295
  121SOPE  H16R12858   3.607   3.072   5.930 -0.6332  1.5367  0.7776
  121SOPE  H16S12859   3.630   3.232   5.848  1.3031 -0.1711 -2.5009
  121SOPE  C21712860   3.774   3.184   6.003  0.0541 -0.3599 -0.5151
  121SOPE  H17R12861   3.723   3.216   6.096  0.0367 -2.4925  0.2523
  121SOPE  H17S12862   3.835   3.271   5.969 -0.2081 -0.2662 -0.7520
  121SOPE  C21812863   3.872   3.068   6.043  0.2313 -0.7606 -0.1528
  121SOPE  H18R12864   3.892   3.068   6.152 -0.1170  2.2353 -0.0108
  121SOPE  H18S12865   3.971   3.076   5.994  0.5953 -0.6018  0.5907
  121SOPE  H18T12866   3.827   2.969   6.018 -0.3794  0.0796 -2.6938
  121SOPE   C3312867   3.615   1.965   6.551  0.4654  0.1200  0.4050
  121SOPE   H3X12868   3.560   1.909   6.473 -1.0028  2.0672 -0.0292
  121SOPE   H3Y12869   3.668   1.877   6.593  0.3790 -1.0607 -1.8314
  121SOPE   C3412870   3.719   2.037   6.474 -0.3447 -0.1974  0.2538
  121SOPE   H4X12871   3.775   1.965   6.411 -1.3185  0.6915 -1.6853
  121SOPE   H4Y12872   3.786   2.101   6.535  2.5617 -1.0644 -1.8055
  121SOPE   C3512873   3.660   2.141   6.381  0.4557 -0.9565  0.8028
  121SOPE   H5X12874   3.582   2.204   6.427 -1.4531  0.2248 -3.5218
  121SOPE   H5Y12875   3.608   2.086   6.299  0.4951 -0.7254  0.6207
  121SOPE   C3612876   3.761   2.231   6.305  0.1136  0.3346 -0.3154
  121SOPE   H6X12877   3.804   2.303   6.378  0.0651  1.6895 -1.5845
  121SOPE   H6Y12878   3.718   2.300   6.230  0.7851  2.8005  1.4490
  121SOPE   C3712879   3.884   2.164   6.245  0.2385 -0.4695 -0.2368
  121SOPE   H7X12880   3.951   2.116   6.319  0.2400 -1.6027 -0.9599
  121SOPE   H7Y12881   3.951   2.248   6.213 -1.8959  1.0861 -0.8404
  121SOPE   C3812882   3.866   2.073   6.125 -0.1623  0.3482 -0.2486
  121SOPE   H8X12883   3.780   2.008   6.151 -1.1495  1.7348  0.0739
  121SOPE   H8Y12884   3.955   2.008   6.108 -1.0386 -0.7283 -0.8540
  121SOPE   C3912885   3.828   2.144   6.000  0.5526  0.6342  0.7385
  121SOPE   H9X12886   3.913   2.214   5.982  3.0355 -1.7258  2.3550
  121SOPE   H9Y12887   3.741   2.209   6.020  0.1706  0.0657  0.9616
  121SOPE  C31012888   3.793   2.052   5.879  0.2343 -0.2806 -0.6745
  121SOPE  H10X12889   3.725   2.094   5.801 -1.5521  0.2308  1.0824
  121SOPE  H10Y12890   3.733   1.962   5.905 -2.0768  1.3114 -0.1474
  121SOPE  C31112891   3.922   2.015   5.810 -0.1632  0.0636  0.4756
  121SOPE  H11X12892   4.005   1.990   5.880  0.6075 -2.9878 -1.3427
  121SOPE  H11Y12893   3.945   2.109   5.755 -2.6977  1.6263  1.8779
  121SOPE  C31212894   3.918   1.906   5.701 -0.1437  1.1093  0.0408
  121SOPE  H12X12895   3.823   1.922   5.645  0.1413  1.3317 -0.3735
  121SOPE  H12Y12896   3.918   1.803   5.744  2.2236  0.8039 -0.5915
  121SOPE  C31312897   4.035   1.901   5.600  0.2621  0.1511 -0.3296
  121SOPE  H13X12898   4.126   1.862   5.650  0.0819  0.8582  0.5806
  121SOPE  H13Y12899   4.061   2.001   5.560  2.0399 -0.6478 -1.2935
  121SOPE  C31412900   4.007   1.799   5.485  0.0944 -0.5998 -0.3703
  121SOPE  H14X12901   3.953   1.847   5.400  3.2688  0.5764 -1.8755
  121SOPE  H14Y12902   3.952   1.709   5.521 -0.2578  0.5073  2.0571
  121SOPE  C31512903   4.146   1.758   5.419  0.0028  0.0170  0.3209
  121SOPE  H15X12904   4.202   1.684   5.479  0.5183 -0.0268 -0.1996
  121SOPE  H15Y12905   4.211   1.848   5.409 -2.1782  1.4577 -2.3669
  121SOPE  C31612906   4.130   1.689   5.285  0.1785 -0.2075  0.0645
  121SOPE  H16X12907   4.071   1.758   5.220  1.2988  0.0658 -0.6956
  121SOPE  H16Y12908   4.076   1.593   5.296 -0.8989  0.5065  1.2811
  121SOPE  C31712909   4.261   1.673   5.208  0.0020  0.1166 -0.6182
  121SOPE  H17X12910   4.254   1.604   5.121  3.2751  1.0564 -1.7938
  121SOPE  H17Y12911   4.335   1.621   5.273  0.8807 -0.2578 -1.8718
  121SOPE  C31812912   4.317   1.800   5.159  0.0658 -0.3787  0.6235
  121SOPE  H18X12913   4.394   1.788   5.079 -0.4374  2.2669 -0.3335
  121SOPE  H18Y12914   4.347   1.862   5.246 -1.4973  0.8197  0.3411
  121SOPE  H18Z12915   4.235   1.863   5.119  1.9086  2.2716  0.7738
  122SOPE     N12916   3.297   2.344   7.168  0.5136 -0.2608  0.9835
  122SOPE   HN112917   3.358   2.313   7.247  1.1118 -0.7849  0.3291
  122SOPE   HN212918   3.345   2.432   7.142  1.2891 -0.9347  0.0800
  122SOPE   HN312919   3.208   2.361   7.220  1.1213 -0.4448  2.1344
  122SOPE   C1212920   3.268   2.237   7.068 -0.1763  0.7187  0.0924
  122SOPE  H12A12921   3.183   2.177   7.107  0.7108 -0.4913  0.2100
  122SOPE  H12B12922   3.352   2.165   7.062  0.4487  1.4918 -0.6185
  122SOPE   C1112923   3.237   2.295   6.928 -0.0477  0.2129 -0.8731
  122SOPE  H11A12924   3.252   2.209   6.859 -0.5570 -1.5124  1.0544
  122SOPE  H11B12925   3.304   2.380   6.905 -0.6842  1.0820  0.4057
  122SOPE     P12926   3.039   2.475   6.897  0.0797  0.0784 -0.1496
  122SOPE   O1312927   3.117   2.583   6.963  0.8472  0.7535 -0.4603
  122SOPE   O1412928   2.896   2.463   6.923 -0.6576 -0.5805 -0.0052
  122SOPE   O1212929   3.095   2.330   6.928 -0.5387 -0.1192  0.0756
  122SOPE   O1112930   3.053   2.497   6.739 -0.2204  0.3841 -0.4909
  122SOPE    C112931   3.057   2.374   6.667  0.3616  1.1479 -0.1401
  122SOPE    HA12932   2.968   2.315   6.700 -0.0181  1.8403  0.0966
  122SOPE    HB12933   3.155   2.321   6.666 -0.2979 -0.1471  0.5966
  122SOPE    C212934   3.031   2.388   6.509  0.1787 -0.2558  0.6113
  122SOPE    HS12935   3.027   2.289   6.460  1.4480  0.0810 -0.2278
  122SOPE   O2112936   3.124   2.474   6.446 -0.2171 -0.2934  0.3938
  122SOPE   C2112937   3.247   2.431   6.452  0.4454 -1.1275  0.7871
  122SOPE   O2212938   3.281   2.316   6.468 -0.3784  0.1514 -0.1043
  122SOPE   C2212939   3.351   2.538   6.421 -0.6831  0.2118  0.0772
  122SOPE   H2R12940   3.413   2.549   6.512 -0.3120 -1.3582  0.0487
  122SOPE   H2S12941   3.304   2.636   6.400 -2.5710 -0.8369 -0.9016
  122SOPE    C312942   2.891   2.456   6.491  0.3300  0.3676 -0.1528
  122SOPE    HX12943   2.881   2.550   6.550  0.3537  0.5271 -0.4024
  122SOPE    HY12944   2.816   2.382   6.524 -0.2955  0.5887 -1.0548
  122SOPE   O3112945   2.866   2.481   6.351 -0.0392 -0.0939  0.5545
  122SOPE   C3112946   2.908   2.598   6.306  0.6744 -0.5990 -0.7583
  122SOPE   O3212947   2.966   2.685   6.367  1.0235  0.4480  0.0890
  122SOPE   C3212948   2.866   2.612   6.156  0.2915  0.1809 -0.1834
  122SOPE   H2X12949   2.780   2.546   6.129  0.1058  0.0783  0.6180
  122SOPE   H2Y12950   2.945   2.557   6.102  1.4824  1.1723  0.5026
  122SOPE   C2312951   3.446   2.498   6.304  0.4616 -0.2065  0.1045
  122SOPE   H3R12952   3.471   2.391   6.289  2.2488 -0.0654  1.6867
  122SOPE   H3S12953   3.542   2.552   6.319  0.7727 -0.3127 -1.3818
  122SOPE   C2412954   3.379   2.526   6.169 -0.6234  0.1708  0.2983
  122SOPE   H4R12955   3.323   2.622   6.179 -0.4736  0.0901  2.2813
  122SOPE   H4S12956   3.449   2.538   6.083  1.5796 -3.3787  1.3915
  122SOPE   C2512957   3.280   2.418   6.123 -0.0405  0.0417 -0.2016
  122SOPE   H5R12958   3.330   2.323   6.149 -1.9178 -0.6253  1.1381
  122SOPE   H5S12959   3.183   2.421   6.176  0.7353  0.9417  1.2250
  122SOPE   C2612960   3.259   2.414   5.971 -0.3197 -0.3785  0.5695
  122SOPE   H6R12961   3.351   2.385   5.916 -0.8247 -1.6409  0.3540
  122SOPE   H6S12962   3.195   2.324   5.953 -1.3117  0.4780 -0.3532
  122SOPE   C2712963   3.204   2.545   5.904 -0.7177  0.1052 -0.4126
  122SOPE   H7R12964   3.103   2.561   5.946  0.4287  1.4038  2.0713
  122SOPE   H7S12965   3.263   2.633   5.937  0.1758 -0.4526 -0.4862
  122SOPE   C2812966   3.209   2.531   5.749  0.4899  0.6818 -0.3168
  122SOPE   H8R12967   3.211   2.640   5.723 -1.9152  1.4689  2.3234
  122SOPE   H8S12968   3.301   2.473   5.730  1.4148  1.3816  1.7736
  122SOPE   C2912969   3.089   2.466   5.692 -0.2225  0.0721  0.0609
  122SOPE   H9112970   3.006   2.537   5.673  1.2211  1.4625 -1.3863
  122SOPE  C21012971   3.083   2.342   5.642 -0.4593  0.1465  0.5144
  122SOPE  H10112972   2.998   2.317   5.578  0.6027  0.7306 -1.2016
  122SOPE  C21112973   3.195   2.245   5.645 -0.1842 -1.0534 -0.0075
  122SOPE  H11R12974   3.167   2.144   5.681 -2.7627 -1.1242 -1.9425
  122SOPE  H11S12975   3.282   2.275   5.708 -0.4186  1.6983 -0.8629
  122SOPE  C21212976   3.245   2.221   5.501 -0.5721 -0.2315  0.0747
  122SOPE  H12R12977   3.175   2.164   5.436  0.1289 -1.1212  0.0764
  122SOPE  H12S12978   3.338   2.160   5.503  0.7361  1.5646 -1.5164
  122SOPE  C21312979   3.280   2.347   5.426  0.3100 -0.2949 -0.1248
  122SOPE  H13R12980   3.335   2.413   5.496 -0.9732 -1.1636  1.7860
  122SOPE  H13S12981   3.187   2.401   5.398 -0.8753 -1.4292  1.4650
  122SOPE  C21412982   3.385   2.330   5.309 -0.1638  0.4171 -0.3025
  122SOPE  H14R12983   3.331   2.262   5.240 -3.7802  2.0180  0.6975
  122SOPE  H14S12984   3.472   2.274   5.348  0.6428  1.6381 -0.2900
  122SOPE  C21512985   3.425   2.463   5.249  0.1396  0.3091  0.6165
  122SOPE  H15R12986   3.476   2.519   5.330  2.1379 -1.0928  0.4077
  122SOPE  H15S12987   3.342   2.513   5.196 -0.1793 -0.9724 -0.1280
  122SOPE  C21612988   3.545   2.438   5.147  0.2463  0.1540 -0.1256
  122SOPE  H16R12989   3.515   2.390   5.051  0.1545  2.2695 -1.2400
  122SOPE  H16S12990   3.620   2.372   5.195  0.3628 -0.4283 -1.0803
  122SOPE  C21712991   3.613   2.572   5.104 -0.5915  0.2334  0.0544
  122SOPE  H17R12992   3.622   2.632   5.198  0.1341  0.0976  0.0748
  122SOPE  H17S12993   3.541   2.624   5.037 -0.5336  0.5411  0.2286
  122SOPE  C21812994   3.748   2.549   5.031 -0.2135 -0.2831  0.4566
  122SOPE  H18R12995   3.814   2.475   5.082 -1.7124 -2.2045 -0.2848
  122SOPE  H18S12996   3.801   2.647   5.038 -0.9319  0.3389 -1.9124
  122SOPE  H18T12997   3.740   2.521   4.924  4.3964 -0.3641 -0.0716
  122SOPE   C3312998   2.843   2.755   6.101 -0.5529 -0.1840 -0.3288
  122SOPE   H3X12999   2.926   2.827   6.120  0.5281 -0.8327 -2.2142
  122SOPE   H3Y13000   2.751   2.800   6.144 -0.3964  0.3445 -0.5263
  122SOPE   C3413001   2.845   2.742   5.942  0.1233 -0.0102 -0.1757
  122SOPE   H4X13002   2.769   2.674   5.899 -0.2979  1.3657 -1.7257
  122SOPE   H4Y13003   2.936   2.694   5.901 -0.9065 -0.9791 -1.4261
  122SOPE   C3513004   2.817   2.871   5.864 -0.3510  0.1041 -0.4444
  122SOPE   H5X13005   2.870   2.956   5.913 -2.5531  2.4041 -1.7464
  122SOPE   H5Y13006   2.712   2.898   5.888 -0.0002  1.9402 -0.7736
  122SOPE   C3613007   2.845   2.890   5.708  0.4063  0.1150 -0.6402
  122SOPE   H6X13008   2.952   2.900   5.681  0.3901 -3.3489 -2.4734
  122SOPE   H6Y13009   2.796   2.978   5.661  3.2245  1.7545 -0.7392
  122SOPE   C3713010   2.793   2.770   5.636  0.1852  0.9055  0.8453
  122SOPE   H7X13011   2.832   2.678   5.684  0.3384  0.9302  0.7688
  122SOPE   H7Y13012   2.840   2.767   5.535 -0.9804  0.3501  0.2997
  122SOPE   C3813013   2.639   2.753   5.617  0.2029 -0.6679  0.9762
  122SOPE   H8X13014   2.589   2.744   5.716 -0.7424  2.6416  0.9345
  122SOPE   H8Y13015   2.613   2.661   5.560 -1.0167  0.1447  0.1687
  122SOPE   C3913016   2.565   2.872   5.548 -0.2752  0.2271 -0.2611
  122SOPE   H9X13017   2.563   2.953   5.623 -0.8382 -0.1476  0.1449
  122SOPE   H9Y13018   2.461   2.843   5.522 -0.7631  2.8173 -1.5077
  122SOPE  C31013019   2.634   2.938   5.430  0.2413 -0.6493  0.1095
  122SOPE  H10X13020   2.651   2.866   5.346  2.1080  0.6433 -0.7037
  122SOPE  H10Y13021   2.733   2.969   5.469 -0.8778  1.3247  1.4763
  122SOPE  C31113022   2.564   3.052   5.363  0.4171 -0.1985  0.1909
  122SOPE  H11X13023   2.570   3.124   5.447  1.2265  0.1651 -0.1595
  122SOPE  H11Y13024   2.461   3.021   5.337 -0.4261  2.0914  0.5650
  122SOPE  C31213025   2.645   3.107   5.243 -0.0922 -0.1763 -0.5902
  122SOPE  H12X13026   2.579   3.167   5.176 -0.7110  0.5396  0.6417
  122SOPE  H12Y13027   2.677   3.016   5.188  0.2491  0.0904 -0.8346
  122SOPE  C31313028   2.766   3.188   5.284 -1.0460  0.3493 -0.4249
  122SOPE  H13X13029   2.826   3.140   5.364 -1.4059  0.2869 -0.1897
  122SOPE  H13Y13030   2.731   3.280   5.335 -0.9844 -1.3610  2.9498
  122SOPE  C31413031   2.850   3.233   5.163 -0.2193  0.4845  0.0132
  122SOPE  H14X13032   2.783   3.281   5.088 -2.7214  1.0735  2.4429
  122SOPE  H14Y13033   2.903   3.151   5.109  0.7506  2.1657 -1.7108
  122SOPE  C31513034   2.955   3.340   5.199 -0.2013 -0.2241 -0.0610
  122SOPE  H15X13035   3.007   3.302   5.290 -1.5723  0.2730  0.9630
  122SOPE  H15Y13036   2.907   3.437   5.222  0.8839  0.3339 -0.0566
  122SOPE  C31613037   3.056   3.369   5.089  0.4792 -0.0504  0.0586
  122SOPE  H16X13038   3.117   3.278   5.067 -1.2415 -0.9980 -0.9879
  122SOPE  H16Y13039   3.116   3.451   5.133  0.1698  0.2662 -0.1134
  122SOPE  C31713040   2.988   3.416   4.960 -0.4645 -0.1279  0.2643
  122SOPE  H17X13041   2.912   3.494   4.986 -1.8785 -1.0686 -0.8679
  122SOPE  H17Y13042   2.928   3.330   4.924 -2.3087  0.0034  2.7165
  122SOPE  C31813043   3.096   3.467   4.864 -0.6023  0.3343  0.4055
  122SOPE  H18X13044   3.060   3.505   4.766 -0.8048  0.3932  0.5037
  122SOPE  H18Y13045   3.168   3.384   4.850 -0.5066  0.2069  1.5626
  122SOPE  H18Z13046   3.151   3.551   4.913  0.0716  0.8539 -1.1568
  123SOPE     N13047   5.725   4.552   3.289  0.0641 -0.3552  0.4413
  123SOPE   HN113048   5.827   4.539   3.272  0.2739  1.5653  0.0960
  123SOPE   HN213049   5.674   4.470   3.251 -1.8654  0.1103  1.8888
  123SOPE   HN313050   5.702   4.635   3.230  0.6231  0.1836  0.9755
  123SOPE   C1213051   5.702   4.569   3.434  0.0131 -0.4238  0.4487
  123SOPE  H12A13052   5.608   4.627   3.442  0.0314 -0.1043 -1.3801
  123SOPE  H12B13053   5.778   4.635   3.481 -0.5756  0.2074  0.5327
  123SOPE   C1113054   5.692   4.430   3.488 -0.3924  0.6311 -0.0699
  123SOPE  H11A13055   5.664   4.431   3.595  0.6434 -3.3305  0.3923
  123SOPE  H11B13056   5.788   4.375   3.494 -0.9814 -0.2280  2.7382
  123SOPE     P13057   5.454   4.354   3.430 -0.0609 -0.0254 -0.5569
  123SOPE   O1313058   5.394   4.215   3.422 -0.0735 -0.3358  0.7463
  123SOPE   O1413059   5.411   4.446   3.322  0.1822 -0.5148 -0.1081
  123SOPE   O1213060   5.607   4.337   3.422 -0.1310  0.2769  0.2212
  123SOPE   O1113061   5.426   4.415   3.572  0.2884  0.2923 -0.1431
  123SOPE    C113062   5.309   4.487   3.605 -0.1401 -0.3258 -0.2598
  123SOPE    HA13063   5.215   4.448   3.562 -2.1915  3.8946 -0.0908
  123SOPE    HB13064   5.302   4.595   3.581 -1.7645  0.2333  2.3553
  123SOPE    C213065   5.278   4.472   3.753 -0.8817  0.2660 -0.2898
  123SOPE    HS13066   5.171   4.496   3.774 -1.1812 -2.1228  1.2816
  123SOPE   O2113067   5.360   4.554   3.837 -0.4034 -0.4055 -0.6161
  123SOPE   C2113068   5.357   4.689   3.827  0.7903 -0.2204  0.1051
  123SOPE   O2213069   5.278   4.747   3.760 -0.2149 -0.6023 -0.4759
  123SOPE   C2213070   5.469   4.751   3.911  0.1210  0.7409  0.1929
  123SOPE   H2R13071   5.509   4.840   3.858  0.9345  0.8895  1.0356
  123SOPE   H2S13072   5.547   4.674   3.931 -0.7157  0.3864  2.3443
  123SOPE    C313073   5.299   4.321   3.789 -0.0727  0.6184  0.1521
  123SOPE    HX13074   5.408   4.302   3.802 -0.2168  0.6487  1.4998
  123SOPE    HY13075   5.251   4.278   3.699 -2.1053  1.1642  0.9203
  123SOPE   O3113076   5.214   4.296   3.904  0.0685 -0.3431  0.1620
  123SOPE   C3113077   5.147   4.186   3.905  0.4207 -0.0991  0.9442
  123SOPE   O3213078   5.159   4.105   3.816 -0.1480 -0.1572 -0.0660
  123SOPE   C3213079   5.078   4.175   4.041 -0.2502 -0.3064 -0.3818
  123SOPE   H2X13080   5.008   4.090   4.054  0.0489 -0.5124 -0.1008
  123SOPE   H2Y13081   5.012   4.264   4.051 -1.3307 -1.0371 -0.8239
  123SOPE   C2313082   5.413   4.808   4.047  0.1666  0.0686  0.3896
  123SOPE   H3R13083   5.357   4.731   4.105 -0.1314 -0.6391 -0.7967
  123SOPE   H3S13084   5.335   4.885   4.030 -0.1882 -0.3447  0.0831
  123SOPE   C2413085   5.537   4.853   4.130  0.9925  0.5351  0.0745
  123SOPE   H4R13086   5.595   4.920   4.063  1.6453  2.4102  2.3725
  123SOPE   H4S13087   5.519   4.909   4.225 -1.5549  2.0843 -1.1901
  123SOPE   C2513088   5.647   4.745   4.156  0.1378  0.0970  0.7148
  123SOPE   H5R13089   5.604   4.645   4.130 -0.0046 -0.2365  2.1864
  123SOPE   H5S13090   5.731   4.760   4.085  0.9739  1.7058  2.0035
  123SOPE   C2613091   5.694   4.748   4.294  0.0307  0.1913 -0.4806
  123SOPE   H6R13092   5.726   4.850   4.325 -0.4364  0.3156 -0.4040
  123SOPE   H6S13093   5.608   4.715   4.356 -0.2150 -1.5067 -1.6759
  123SOPE   C2713094   5.801   4.645   4.326 -0.1280  0.8683  0.2664
  123SOPE   H7R13095   5.785   4.546   4.277 -0.6588  0.2077  1.7343
  123SOPE   H7S13096   5.897   4.680   4.281 -0.3701  0.4794 -0.5842
  123SOPE   C2813097   5.829   4.616   4.474 -0.1799 -0.3205  0.6307
  123SOPE   H8R13098   5.734   4.572   4.510 -0.1069 -0.3447  0.7897
  123SOPE   H8S13099   5.901   4.532   4.480 -0.1972 -0.3822  0.0846
  123SOPE   C2913100   5.875   4.735   4.546 -0.5375 -0.7443 -0.7057
  123SOPE   H9113101   5.816   4.826   4.528 -0.9531 -0.4681  1.6445
  123SOPE  C21013102   5.986   4.745   4.624 -0.5074 -0.0032  0.7792
  123SOPE  H10113103   6.017   4.843   4.664  2.2265 -0.2431 -0.5437
  123SOPE  C21113104   6.071   4.626   4.672 -0.9119  0.0205  0.1929
  123SOPE  H11R13105   6.180   4.629   4.651 -0.9827 -0.9117 -0.3692
  123SOPE  H11S13106   6.037   4.530   4.628  0.8438 -2.2197  3.3877
  123SOPE  C21213107   6.051   4.610   4.822  0.0303  0.4402 -0.2631
  123SOPE  H12R13108   5.944   4.584   4.838  1.0531 -3.7751  0.9706
  123SOPE  H12S13109   6.081   4.709   4.863 -0.9031  1.0949 -1.1360
  123SOPE  C21313110   6.131   4.494   4.877  0.2249 -0.8382 -0.0314
  123SOPE  H13R13111   6.232   4.526   4.844 -0.2884  2.2151  1.0215
  123SOPE  H13S13112   6.086   4.402   4.833 -0.0607  0.2416 -2.1238
  123SOPE  C21413113   6.130   4.489   5.033  0.2858 -0.0418 -0.1267
  123SOPE  H14R13114   6.025   4.486   5.069  0.7339  1.3016  1.3809
  123SOPE  H14S13115   6.164   4.586   5.076 -0.2606  0.0867  0.0204
  123SOPE  C21513116   6.196   4.373   5.106  0.4328  0.6361 -0.6274
  123SOPE  H15R13117   6.177   4.283   5.045  0.7123 -0.2453  0.5549
  123SOPE  H15S13118   6.150   4.354   5.206  1.0373  0.9279 -0.2868
  123SOPE  C21613119   6.345   4.380   5.129 -0.2809  0.4345  0.3693
  123SOPE  H16R13120   6.371   4.286   5.182  1.1937  0.6497  0.0558
  123SOPE  H16S13121   6.370   4.462   5.199  0.7634 -0.7218  1.3985
  123SOPE  C21713122   6.424   4.397   5.003  0.4252 -0.6789 -0.0585
  123SOPE  H17R13123   6.408   4.498   4.959 -3.1117 -1.3426 -0.6213
  123SOPE  H17S13124   6.383   4.334   4.921 -0.2001  2.2463 -2.1451
  123SOPE  C21813125   6.572   4.363   5.029 -0.3021 -0.0854 -0.0762
  123SOPE  H18R13126   6.628   4.398   4.939 -1.4716 -0.6551 -1.0617
  123SOPE  H18S13127   6.576   4.253   5.039 -1.9372 -0.0210  1.9996
  123SOPE  H18T13128   6.612   4.414   5.119  1.3244 -0.1721 -0.7305
  123SOPE   C3313129   5.172   4.179   4.162  0.7405  0.1603 -0.0623
  123SOPE   H3X13130   5.208   4.279   4.193  1.0955  0.0129  0.0010
  123SOPE   H3Y13131   5.271   4.130   4.150  1.5819  1.8754 -0.4467
  123SOPE   C3413132   5.099   4.127   4.285 -0.8309  0.0928  0.2885
  123SOPE   H4X13133   5.168   4.147   4.370 -0.6316  0.0928  0.1269
  123SOPE   H4Y13134   5.074   4.020   4.274 -0.0861  0.1526 -2.8521
  123SOPE   C3513135   4.953   4.189   4.311 -0.2019 -0.1053 -0.5247
  123SOPE   H5X13136   4.890   4.152   4.227 -1.3368  0.5189  0.0282
  123SOPE   H5Y13137   4.958   4.299   4.301 -2.8100  0.0507 -0.8211
  123SOPE   C3613138   4.893   4.136   4.440  0.2410  0.0601 -1.2371
  123SOPE   H6X13139   4.891   4.217   4.516  0.2317 -2.9343  2.2066
  123SOPE   H6Y13140   4.964   4.056   4.469  2.5337  2.5053  0.3634
  123SOPE   C3713141   4.753   4.079   4.425 -0.3591 -0.0325 -0.7143
  123SOPE   H7X13142   4.742   4.026   4.328 -2.1343 -2.1513  0.5604
  123SOPE   H7Y13143   4.680   4.162   4.438 -1.7142 -1.6331  3.5304
  123SOPE   C3813144   4.708   3.974   4.538 -0.1558  0.1186  0.8139
  123SOPE   H8X13145   4.763   3.880   4.517  0.9006  1.0870 -1.0362
  123SOPE   H8Y13146   4.602   3.948   4.517 -0.4745  1.6473  0.3851
  123SOPE   C3913147   4.722   4.011   4.683  0.0965 -0.0508 -0.2678
  123SOPE   H9X13148   4.675   4.111   4.694 -1.3567 -0.6001 -1.1431
  123SOPE   H9Y13149   4.829   4.031   4.706  0.0284  0.3774 -0.3115
  123SOPE  C31013150   4.642   3.918   4.777 -0.3251  0.4521  0.8009
  123SOPE  H10X13151   4.688   3.817   4.777  0.7367  0.9140 -0.2212
  123SOPE  H10Y13152   4.538   3.892   4.747 -0.2374 -3.4418  3.2000
  123SOPE  C31113153   4.629   3.948   4.926 -0.2794  0.2441  0.7653
  123SOPE  H11X13154   4.592   4.053   4.931  3.7050  1.8567  0.0745
  123SOPE  H11Y13155   4.731   3.960   4.970 -0.8419  1.3758  1.8449
  123SOPE  C31213156   4.539   3.846   4.993 -0.0227 -0.3601 -0.7161
  123SOPE  H12X13157   4.594   3.750   4.996 -1.4479 -1.1928 -0.2064
  123SOPE  H12Y13158   4.439   3.847   4.945 -0.9237  2.1197  1.0096
  123SOPE  C31313159   4.507   3.885   5.135  0.0252 -0.2681 -0.6448
  123SOPE  H13X13160   4.465   3.988   5.135 -0.7245 -0.5611 -1.0313
  123SOPE  H13Y13161   4.602   3.889   5.192 -1.4950  2.6442  2.0227
  123SOPE  C31413162   4.397   3.802   5.201 -0.0183  0.1428  0.3906
  123SOPE  H14X13163   4.315   3.804   5.127  1.4708 -1.6182 -1.4029
  123SOPE  H14Y13164   4.358   3.844   5.297  2.3818 -0.5369  1.7635
  123SOPE  C31513165   4.437   3.651   5.219  0.2156 -0.2624  0.4558
  123SOPE  H15X13166   4.469   3.614   5.119  0.5473 -1.2895  0.9206
  123SOPE  H15Y13167   4.345   3.593   5.243 -1.1702  0.9467 -1.6707
  123SOPE  C31613168   4.551   3.620   5.312  0.0060 -0.5271 -0.7218
  123SOPE  H16X13169   4.646   3.675   5.297 -0.8392  0.8998 -1.0788
  123SOPE  H16Y13170   4.574   3.512   5.305  4.5232  0.2772 -1.1521
  123SOPE  C31713171   4.508   3.648   5.459 -0.1463  0.2799  0.0369
  123SOPE  H17X13172   4.437   3.577   5.506 -0.5700  1.2414  0.8870
  123SOPE  H17Y13173   4.464   3.750   5.457  0.0554  0.4738  2.5851
  123SOPE  C31813174   4.628   3.664   5.545 -0.5367 -0.4809  0.4346
  123SOPE  H18X13175   4.704   3.721   5.486 -1.2017 -1.2854 -1.2795
  123SOPE  H18Y13176   4.665   3.562   5.570 -0.0259 -0.8482 -1.6188
  123SOPE  H18Z13177   4.611   3.718   5.640  1.1799 -0.3637  0.7201
  124SOPE     N13178   1.003   5.865   3.046 -0.2360  0.0343  0.2326
  124SOPE   HN113179   0.932   5.929   3.005 -2.5099 -1.5719  1.4209
  124SOPE   HN213180   1.024   5.907   3.139 -0.5582 -1.1432  0.8622
  124SOPE   HN313181   1.092   5.883   2.996  0.3498 -0.6564  0.9860
  124SOPE   C1213182   0.957   5.723   3.052  0.2455  0.2479 -0.6818
  124SOPE  H12A13183   1.014   5.673   3.133 -1.4253 -2.4339 -1.0074
  124SOPE  H12B13184   0.975   5.671   2.956 -1.1463  1.8622 -1.8815
  124SOPE   C1113185   0.813   5.706   3.101 -0.3032  0.6213  0.2518
  124SOPE  H11A13186   0.817   5.724   3.211  2.0360 -1.9629  0.6908
  124SOPE  H11B13187   0.786   5.599   3.097 -1.7377  0.9695  0.1656
  124SOPE     P13188   0.571   5.766   3.051  0.0462  0.1746  0.4372
  124SOPE   O1313189   0.542   5.621   3.035 -0.1301 -0.5094  0.0030
  124SOPE   O1413190   0.508   5.860   2.955  0.4186 -0.4960 -0.8607
  124SOPE   O1213191   0.728   5.794   3.031 -0.5779  0.3348  0.4327
  124SOPE   O1113192   0.533   5.803   3.199  0.2297 -0.4264  0.4374
  124SOPE    C113193   0.609   5.888   3.292 -0.2435  0.2276  0.0449
  124SOPE    HA13194   0.654   5.977   3.243  0.5946  1.2676  2.5712
  124SOPE    HB13195   0.689   5.829   3.341 -2.0666 -2.1403  0.3204
  124SOPE    C213196   0.517   5.937   3.411 -0.3883  0.2970  0.1243
  124SOPE    HS13197   0.423   5.988   3.382 -1.6613 -0.1633  3.0971
  124SOPE   O2113198   0.594   6.013   3.503  0.1505  0.2514 -0.0012
  124SOPE   C2113199   0.586   6.140   3.490  0.0068  0.0143  0.3846
  124SOPE   O2213200   0.531   6.199   3.396  0.4756  0.3927 -0.5792
  124SOPE   C2213201   0.660   6.208   3.606 -0.2045  1.0054  0.0195
  124SOPE   H2R13202   0.714   6.294   3.562  0.5987  0.5391  0.0785
  124SOPE   H2S13203   0.735   6.139   3.651  1.4554  2.5618 -0.2716
  124SOPE    C313204   0.459   5.818   3.498 -0.3799 -0.3843  0.5317
  124SOPE    HX13205   0.529   5.732   3.504  0.6086  0.3877  0.3105
  124SOPE    HY13206   0.373   5.773   3.444  0.6526  1.3206 -2.8034
  124SOPE   O3113207   0.426   5.845   3.639  0.0772 -0.0135 -0.1603
  124SOPE   C3113208   0.320   5.924   3.649 -0.6357 -0.3035  0.1846
  124SOPE   O3213209   0.256   5.974   3.558  0.6127 -0.5471 -0.2414
  124SOPE   C3213210   0.281   5.950   3.788  0.2956 -0.1688  0.4510
  124SOPE   H2X13211   0.372   5.952   3.851 -0.2768 -0.9266  1.3403
  124SOPE   H2Y13212   0.209   5.873   3.824 -0.9436  0.4643 -0.6181
  124SOPE   C2313213   0.567   6.249   3.713  0.7783  0.1070  0.0664
  124SOPE   H3R13214   0.517   6.165   3.767 -0.0338  1.9718  2.4106
  124SOPE   H3S13215   0.493   6.318   3.668 -0.4501 -2.4036 -2.0562
  124SOPE   C2413216   0.623   6.336   3.825 -0.8190 -0.3417  0.2528
  124SOPE   H4R13217   0.679   6.417   3.774 -0.2170 -0.3693  0.8583
  124SOPE   H4S13218   0.529   6.379   3.866  0.0054  2.4044 -0.5549
  124SOPE   C2513219   0.729   6.273   3.917 -0.1587  0.6737 -0.0722
  124SOPE   H5R13220   0.699   6.171   3.949  0.4155  0.1266 -1.2039
  124SOPE   H5S13221   0.819   6.282   3.853 -0.8374  1.0654 -0.9823
  124SOPE   C2613222   0.760   6.352   4.046 -0.7592 -0.5360  0.7194
  124SOPE   H6R13223   0.780   6.455   4.008 -0.0429 -0.1381  2.1108
  124SOPE   H6S13224   0.677   6.350   4.119 -0.4468 -2.2945  1.0733
  124SOPE   C2713225   0.885   6.307   4.123 -0.5686 -0.4866 -0.3783
  124SOPE   H7R13226   0.870   6.200   4.152 -1.1787  0.1721  2.0388
  124SOPE   H7S13227   0.971   6.314   4.053 -0.0718  1.7681  0.3843
  124SOPE   C2813228   0.924   6.377   4.260 -0.3382 -0.4777 -0.2484
  124SOPE   H8R13229   1.013   6.322   4.299  0.4337  0.8196 -0.0758
  124SOPE   H8S13230   0.966   6.480   4.255 -0.2858 -0.4635  0.3733
  124SOPE   C2913231   0.812   6.386   4.364  0.7161 -0.8321 -0.1953
  124SOPE   H9113232   0.745   6.473   4.355  2.7089  0.9096  0.8566
  124SOPE  C21013233   0.812   6.324   4.485 -0.0041 -0.1871 -0.6939
  124SOPE  H10113234   0.730   6.329   4.557 -0.3831 -0.4927 -1.1015
  124SOPE  C21113235   0.916   6.219   4.538 -1.1464 -0.7568 -0.1530
  124SOPE  H11R13236   1.019   6.261   4.541 -1.2120 -0.4832 -1.2842
  124SOPE  H11S13237   0.920   6.127   4.475  1.7286 -0.6777 -0.1801
  124SOPE  C21213238   0.873   6.169   4.681 -0.2975  0.0182  0.6185
  124SOPE  H12R13239   0.939   6.085   4.712 -3.0669 -2.5415  0.0318
  124SOPE  H12S13240   0.768   6.134   4.685 -0.0056 -1.0189 -0.2697
  124SOPE  C21313241   0.895   6.280   4.780  0.2011 -0.7427 -0.3833
  124SOPE  H13R13242   0.827   6.365   4.756  1.0556  0.9865  2.7429
  124SOPE  H13S13243   0.996   6.321   4.758 -0.0709 -0.0890 -0.4527
  124SOPE  C21413244   0.874   6.234   4.925 -0.4750  0.6371  0.4185
  124SOPE  H14R13245   0.914   6.131   4.933  0.7536  1.1385  1.0890
  124SOPE  H14S13246   0.767   6.242   4.953 -0.4679  0.1533  0.5846
  124SOPE  C21513247   0.942   6.319   5.025 -0.5460  0.6824 -0.0441
  124SOPE  H15R13248   1.053   6.324   5.016 -0.6242  3.5278 -0.4392
  124SOPE  H15S13249   0.925   6.258   5.116  0.6344 -0.0006 -0.2530
  124SOPE  C21613250   0.873   6.461   5.041 -0.0103  0.0364 -0.1290
  124SOPE  H16R13251   0.764   6.442   5.049  0.5949 -3.5316  2.0579
  124SOPE  H16S13252   0.888   6.522   4.949  0.1476  1.1742  0.6363
  124SOPE  C21713253   0.918   6.541   5.161 -0.8848  0.2031  0.1746
  124SOPE  H17R13254   0.949   6.642   5.127  0.2125  0.0796  0.7769
  124SOPE  H17S13255   1.005   6.497   5.214 -0.8295  1.3533  1.0610
  124SOPE  C21813256   0.819   6.553   5.278  0.3823 -0.4410 -0.1125
  124SOPE  H18R13257   0.720   6.590   5.244 -0.0896  1.0157  2.5791
  124SOPE  H18S13258   0.846   6.629   5.355 -0.7610 -0.2483  0.1270
  124SOPE  H18T13259   0.794   6.454   5.322 -1.4554 -0.4944 -1.1550
  124SOPE   C3313260   0.221   6.088   3.812  0.7455 -0.8374 -0.1303
  124SOPE   H3X13261   0.124   6.088   3.760  0.1208 -1.7303  0.9880
  124SOPE   H3Y13262   0.282   6.168   3.766 -2.2538  0.7841 -1.5591
  124SOPE   C3413263   0.197   6.133   3.962 -0.4257  0.1372 -0.2173
  124SOPE   H4X13264   0.120   6.072   4.012  0.0801  0.8529  1.5212
  124SOPE   H4Y13265   0.164   6.237   3.941 -0.0629  0.1406 -0.7871
  124SOPE   C3513266   0.321   6.132   4.053 -0.0914 -0.4635 -0.3733
  124SOPE   H5X13267   0.395   6.198   4.004 -1.2876  1.5052  0.3607
  124SOPE   H5Y13268   0.353   6.027   4.068 -1.4306 -0.7100  1.0406
  124SOPE   C3613269   0.287   6.189   4.189 -0.5013  0.4207 -0.6742
  124SOPE   H6X13270   0.188   6.155   4.225  0.3933 -2.2574 -0.4789
  124SOPE   H6Y13271   0.275   6.299   4.183  0.3787  0.5714  0.1845
  124SOPE   C3713272   0.382   6.141   4.300  0.5165 -0.2316 -0.2512
  124SOPE   H7X13273   0.485   6.157   4.260 -0.7695  2.1461 -3.0243
  124SOPE   H7Y13274   0.380   6.030   4.304 -0.2248 -0.1854  2.6855
  124SOPE   C3813275   0.370   6.187   4.443  0.9299  0.7512 -0.2988
  124SOPE   H8X13276   0.265   6.162   4.468  1.3284  0.8406  1.6224
  124SOPE   H8Y13277   0.378   6.296   4.458  0.7083  0.8798 -1.0753
  124SOPE   C3913278   0.463   6.105   4.531 -0.0726  0.0023  0.5490
  124SOPE   H9X13279   0.561   6.099   4.479  0.2599  0.8522  1.0425
  124SOPE   H9Y13280   0.419   6.004   4.540 -2.6211  0.4968 -3.5104
  124SOPE  C31013281   0.498   6.159   4.674 -0.2524 -0.2791 -0.0625
  124SOPE  H10X13282   0.550   6.254   4.649  1.0898 -0.9609  0.0024
  124SOPE  H10Y13283   0.565   6.089   4.729 -2.0918 -0.8828  1.5267
  124SOPE  C31113284   0.374   6.178   4.767  0.0270  0.4702  0.0962
  124SOPE  H11X13285   0.354   6.079   4.814  0.7565 -0.8075 -2.1283
  124SOPE  H11Y13286   0.280   6.195   4.711  0.1863 -0.3432 -0.4420
  124SOPE  C31213287   0.389   6.283   4.879 -0.5037 -0.2612 -0.4937
  124SOPE  H12X13288   0.415   6.379   4.829 -0.2700  1.3758  2.5422
  124SOPE  H12Y13289   0.479   6.260   4.940 -0.6041 -0.0291 -0.2526
  124SOPE  C31313290   0.259   6.314   4.956 -0.6555  0.1397 -0.3179
  124SOPE  H13X13291   0.242   6.215   5.002  2.3867 -1.4507 -2.2606
  124SOPE  H13Y13292   0.179   6.341   4.883  1.1717  1.4453 -1.9563
  124SOPE  C31413293   0.278   6.430   5.058 -0.5283  0.2220 -0.2397
  124SOPE  H14X13294   0.207   6.427   5.143  0.4430  0.2981  0.5977
  124SOPE  H14Y13295   0.261   6.526   5.005  0.8985  0.7392  0.1932
  124SOPE  C31513296   0.428   6.452   5.113  0.0443  0.4296 -0.4894
  124SOPE  H15X13297   0.424   6.552   5.162 -2.1291  0.4561 -0.6366
  124SOPE  H15Y13298   0.495   6.459   5.025 -0.8290  0.1792 -1.1888
  124SOPE  C31613299   0.478   6.338   5.211  0.0209 -0.9668 -0.3280
  124SOPE  H16X13300   0.586   6.314   5.207  0.1059 -0.6145 -0.1620
  124SOPE  H16Y13301   0.416   6.248   5.187 -2.0653  1.0424 -3.0779
  124SOPE  C31713302   0.461   6.383   5.359 -0.1741 -0.1979 -0.5372
  124SOPE  H17X13303   0.353   6.394   5.385  0.8121  1.3536  3.7741
  124SOPE  H17Y13304   0.508   6.482   5.375 -2.2331  0.7030  0.3120
  124SOPE  C31813305   0.523   6.284   5.462  0.3670  0.4120 -0.3471
  124SOPE  H18X13306   0.588   6.216   5.402  2.2830  1.8522 -0.0004
  124SOPE  H18Y13307   0.443   6.223   5.510  1.3339 -2.0608 -1.6616
  124SOPE  H18Z13308   0.585   6.336   5.537  0.1946 -0.0188  0.1010
  125SOPE     N13309   1.888   5.220   2.834  0.3478  0.2637  0.0962
  125SOPE   HN113310   1.977   5.191   2.788 -0.7635 -2.0395 -0.7492
  125SOPE   HN213311   1.835   5.138   2.872 -0.2442  0.4202 -0.3869
  125SOPE   HN313312   1.818   5.250   2.764 -0.4848  2.5067  1.7727
  125SOPE   C1213313   1.898   5.332   2.935  0.0216  0.1291  0.0884
  125SOPE  H12A13314   1.990   5.319   2.994  1.0444 -1.3234 -1.7253
  125SOPE  H12B13315   1.810   5.345   3.001  0.5013  0.9915  0.5718
  125SOPE   C1113316   1.916   5.468   2.860  0.0726  0.8026  0.6218
  125SOPE  H11A13317   1.922   5.547   2.939 -0.5683 -1.3931  2.9930
  125SOPE  H11B13318   1.826   5.493   2.801 -0.7693 -0.6383  1.2330
  125SOPE     P13319   2.178   5.483   2.801 -0.5948  0.1597 -0.0826
  125SOPE   O1313320   2.225   5.613   2.753 -0.9420  0.2849 -0.1202
  125SOPE   O1413321   2.257   5.364   2.756  0.3604 -0.3499  0.5497
  125SOPE   O1213322   2.023   5.463   2.769 -0.5645  0.3059 -0.1094
  125SOPE   O1113323   2.176   5.477   2.963  0.1154 -0.2644 -0.3210
  125SOPE    C113324   2.287   5.541   3.029  0.0672 -0.3927 -0.3081
  125SOPE    HA13325   2.313   5.642   2.992  0.0080  0.8357  2.7798
  125SOPE    HB13326   2.384   5.491   3.012  0.8660  1.2482 -0.7823
  125SOPE    C213327   2.262   5.555   3.186  0.1661 -0.3541  0.3191
  125SOPE    HS13328   2.366   5.559   3.224  0.5795 -3.1176 -0.2878
  125SOPE   O2113329   2.198   5.432   3.231 -0.2370 -0.3620  0.0043
  125SOPE   C2113330   2.272   5.327   3.212 -0.5989 -0.0843  0.3113
  125SOPE   O2213331   2.383   5.319   3.166  0.0523 -0.0798  0.2705
  125SOPE   C2213332   2.196   5.208   3.267 -0.2295 -0.4743  0.0637
  125SOPE   H2R13333   2.215   5.129   3.191 -1.4103 -1.4593  0.7609
  125SOPE   H2S13334   2.086   5.222   3.282 -0.0900 -0.0073  0.6788
  125SOPE    C313335   2.185   5.681   3.225 -0.2069  0.0677  0.6225
  125SOPE    HX13336   2.077   5.663   3.209 -0.2671 -0.3986  1.4859
  125SOPE    HY13337   2.229   5.762   3.163 -1.6067  0.8647  0.6226
  125SOPE   O3113338   2.207   5.717   3.365  0.0426  0.3213  0.5188
  125SOPE   C3113339   2.124   5.812   3.397 -0.1853  0.0832 -0.5963
  125SOPE   O3213340   2.040   5.860   3.323 -0.3929  0.1850 -0.1937
  125SOPE   C3213341   2.164   5.865   3.537 -0.4882 -0.4605  0.2418
  125SOPE   H2X13342   2.240   5.943   3.515 -0.4002 -1.3835 -3.4581
  125SOPE   H2Y13343   2.202   5.783   3.602  1.4816  0.0108 -0.2491
  125SOPE   C2313344   2.252   5.168   3.402  0.5844  0.1554 -0.3096
  125SOPE   H3R13345   2.360   5.148   3.389  0.8724  0.6463  1.1222
  125SOPE   H3S13346   2.207   5.069   3.426  1.7599 -0.5716 -1.0180
  125SOPE   C2413347   2.238   5.273   3.516  0.6972  0.3425 -0.3935
  125SOPE   H4R13348   2.269   5.375   3.486 -0.6927  0.5148 -1.3617
  125SOPE   H4S13349   2.134   5.287   3.553  1.0120  3.2077 -0.3570
  125SOPE   C2513350   2.322   5.244   3.646 -0.0180  0.5979 -0.2209
  125SOPE   H5R13351   2.303   5.138   3.672 -1.6311  1.3287  1.8176
  125SOPE   H5S13352   2.426   5.246   3.605  0.1571  0.8802  0.2309
  125SOPE   C2613353   2.306   5.330   3.768  0.5251  0.3325 -0.6224
  125SOPE   H6R13354   2.399   5.325   3.830 -0.9498  0.1069  1.7043
  125SOPE   H6S13355   2.299   5.438   3.746  1.0239  0.3377 -0.7879
  125SOPE   C2713356   2.184   5.292   3.852  0.3136 -0.6571 -0.2804
  125SOPE   H7R13357   2.098   5.290   3.782  0.2983 -2.1915 -0.2398
  125SOPE   H7S13358   2.197   5.186   3.884  0.1501 -0.0090  2.1656
  125SOPE   C2813359   2.171   5.384   3.975 -0.0972 -0.2875  0.8168
  125SOPE   H8R13360   2.244   5.346   4.050  0.6009  0.8528  0.7415
  125SOPE   H8S13361   2.196   5.489   3.951 -1.7898 -0.2949 -1.2717
  125SOPE   C2913362   2.026   5.378   4.018 -0.0909  0.3410 -0.4876
  125SOPE   H9113363   1.959   5.391   3.932 -0.9806  2.1631  0.4130
  125SOPE  C21013364   1.975   5.370   4.145 -0.9167  0.4227  0.3106
  125SOPE  H10113365   1.868   5.385   4.161 -2.0901 -0.2474 -4.9645
  125SOPE  C21113366   2.067   5.350   4.265 -0.1611 -0.1878  0.3902
  125SOPE  H11R13367   2.133   5.438   4.277 -0.1297  0.1862 -2.0251
  125SOPE  H11S13368   2.137   5.266   4.242 -1.4868 -1.4226  0.6747
  125SOPE  C21213369   1.986   5.323   4.392  0.0483  0.1883 -0.2485
  125SOPE  H12R13370   1.915   5.241   4.368  0.1504  0.5641 -1.9440
  125SOPE  H12S13371   1.935   5.422   4.397 -0.1687  0.1887 -2.0135
  125SOPE  C21313372   2.066   5.291   4.516 -0.3091  0.4254  0.2168
  125SOPE  H13R13373   2.151   5.362   4.502 -0.3620  0.0806 -2.2532
  125SOPE  H13S13374   2.118   5.193   4.517  0.3414  0.6975  2.9971
  125SOPE  C21413375   1.973   5.315   4.637 -0.3469 -0.2389 -0.0476
  125SOPE  H14R13376   1.911   5.225   4.655 -0.4971  0.1761  1.7060
  125SOPE  H14S13377   1.899   5.397   4.634 -0.5761 -0.4609 -0.4538
  125SOPE  C21513378   2.059   5.330   4.766 -0.3460 -0.2327 -0.1551
  125SOPE  H15R13379   2.132   5.413   4.753 -0.6325 -0.1765 -1.5802
  125SOPE  H15S13380   2.113   5.238   4.796 -0.3451 -0.0588  0.3907
  125SOPE  C21613381   1.971   5.377   4.890  0.1677 -0.0151  0.1060
  125SOPE  H16R13382   1.897   5.456   4.864 -0.9928 -0.7166  1.1164
  125SOPE  H16S13383   2.047   5.423   4.956  1.3460  0.4554 -1.5344
  125SOPE  C21713384   1.904   5.256   4.970 -0.1286  0.0073  0.3043
  125SOPE  H17R13385   1.976   5.191   5.023 -0.3361  0.0820  0.6827
  125SOPE  H17S13386   1.850   5.190   4.899  3.2938 -0.6041 -1.9218
  125SOPE  C21813387   1.805   5.297   5.079 -0.2192  0.3146 -0.3167
  125SOPE  H18R13388   1.832   5.385   5.141 -1.3695 -0.3454  1.2027
  125SOPE  H18S13389   1.787   5.219   5.156  0.7118  0.4860  0.0906
  125SOPE  H18T13390   1.710   5.334   5.034 -1.5117 -0.2778  1.7799
  125SOPE   C3313391   2.036   5.933   3.595 -1.4212 -0.7652 -0.5098
  125SOPE   H3X13392   1.946   5.869   3.602  0.6586 -3.8768 -0.0490
  125SOPE   H3Y13393   2.010   6.019   3.530  0.8897  0.1563 -0.3266
  125SOPE   C3413394   2.060   5.997   3.735  0.7674  0.2383 -0.4064
  125SOPE   H4X13395   1.999   6.087   3.757  1.0848  0.3316  0.1189
  125SOPE   H4Y13396   2.169   6.013   3.751  0.7045  1.1369 -0.7778
  125SOPE   C3513397   2.030   5.894   3.846  0.2145  0.0716  0.0959
  125SOPE   H5X13398   2.065   5.792   3.817  0.9457  0.3333  0.0303
  125SOPE   H5Y13399   1.922   5.879   3.867  0.1445 -0.5415 -0.6785
  125SOPE   C3613400   2.100   5.947   3.972 -0.4507  0.2865  0.5854
  125SOPE   H6X13401   2.059   6.047   3.998  1.4085  1.2613 -0.0700
  125SOPE   H6Y13402   2.211   5.948   3.964 -0.5365 -0.0726 -0.7611
  125SOPE   C3713403   2.093   5.865   4.101  0.3357  0.4184 -0.3340
  125SOPE   H7X13404   2.141   5.766   4.085 -1.7126 -0.6008 -0.5578
  125SOPE   H7Y13405   1.988   5.837   4.123  0.5022  0.0424 -0.0031
  125SOPE   C3813406   2.156   5.934   4.222  0.4270  0.0798 -0.1720
  125SOPE   H8X13407   2.101   6.026   4.254 -0.2914 -0.6122  0.6347
  125SOPE   H8Y13408   2.257   5.972   4.194  0.2194  0.7707 -0.0138
  125SOPE   C3913409   2.163   5.839   4.343  0.9410 -0.4450  0.3284
  125SOPE   H9X13410   2.263   5.790   4.349  0.2106 -2.0758 -0.3875
  125SOPE   H9Y13411   2.082   5.767   4.319  0.0362  0.6295  0.0417
  125SOPE  C31013412   2.120   5.917   4.470 -0.5896 -0.0786 -0.2616
  125SOPE  H10X13413   2.013   5.946   4.458 -1.1277 -0.5923  2.6705
  125SOPE  H10Y13414   2.183   6.008   4.471 -1.7297  0.7382 -0.5817
  125SOPE  C31113415   2.132   5.825   4.587 -0.4130 -0.0094 -0.6762
  125SOPE  H11X13416   2.230   5.773   4.577  0.3940  1.5654 -1.3621
  125SOPE  H11Y13417   2.056   5.745   4.600 -0.5685  0.5156  2.1229
  125SOPE  C31213418   2.143   5.902   4.717  0.1918  0.4255 -0.5876
  125SOPE  H12X13419   2.045   5.949   4.742 -0.1384  1.9961 -4.2865
  125SOPE  H12Y13420   2.218   5.983   4.710  0.0244  0.4560 -2.2047
  125SOPE  C31313421   2.194   5.801   4.829  0.4564 -0.5697 -0.3242
  125SOPE  H13X13422   2.282   5.751   4.783 -0.1273  0.9323 -3.2907
  125SOPE  H13Y13423   2.113   5.730   4.857  0.6739  0.0537  2.0623
  125SOPE  C31413424   2.235   5.885   4.947 -0.4230  0.0805  0.0125
  125SOPE  H14X13425   2.160   5.963   4.972  0.3332  0.2221  2.0625
  125SOPE  H14Y13426   2.332   5.937   4.930  0.3431 -1.7657 -1.7461
  125SOPE  C31513427   2.268   5.799   5.077  0.1442 -0.2995 -0.1488
  125SOPE  H15X13428   2.175   5.749   5.112  1.8954 -1.9172  2.5773
  125SOPE  H15Y13429   2.300   5.875   5.152 -1.2396  1.5837 -1.3641
  125SOPE  C31613430   2.372   5.687   5.071 -0.0307 -0.2638 -0.2375
  125SOPE  H16X13431   2.365   5.627   4.977  0.1634  2.5411 -2.1727
  125SOPE  H16Y13432   2.362   5.628   5.165  1.0993  0.5450  0.4043
  125SOPE  C31713433   2.521   5.728   5.072  0.2493  0.0868  0.3870
  125SOPE  H17X13434   2.541   5.761   4.968  1.8266  0.0794  0.6640
  125SOPE  H17Y13435   2.588   5.640   5.083  1.7874  1.1980  0.2059
  125SOPE  C31813436   2.558   5.834   5.170 -0.0194 -0.3137  0.3056
  125SOPE  H18X13437   2.668   5.837   5.179  0.0068  0.3090 -0.1393
  125SOPE  H18Y13438   2.530   5.805   5.273  2.4715 -0.1968  1.0845
  125SOPE  H18Z13439   2.526   5.936   5.142 -2.0744 -0.6757  1.1279
  126SOPE     N13440   1.953   0.850   3.156  0.7426  0.0479  0.4216
  126SOPE   HN113441   1.855   0.834   3.187  0.5822  1.5632  0.8066
  126SOPE   HN213442   1.954   0.851   3.052  0.2714  1.0760  0.4100
  126SOPE   HN313443   2.006   0.766   3.186 -0.5852 -1.9064 -2.3216
  126SOPE   C1213444   2.020   0.986   3.198 -0.1056  0.3650  0.2037
  126SOPE  H12A13445   2.044   0.983   3.306 -0.7062 -1.1634  0.3237
  126SOPE  H12B13446   1.959   1.078   3.190 -1.1991 -0.4440 -1.1137
  126SOPE   C1113447   2.143   1.017   3.106 -0.1655 -0.0447  0.0516
  126SOPE  H11A13448   2.214   0.932   3.105  1.3001  1.1514 -0.4305
  126SOPE  H11B13449   2.195   1.108   3.143  0.4943 -0.1245 -0.6723
  126SOPE     P13450   2.122   1.179   2.893 -0.5241 -0.0553 -0.1882
  126SOPE   O1313451   2.050   1.292   2.955 -1.0059  0.7985 -1.0222
  126SOPE   O1413452   2.095   1.155   2.755  0.0980  0.1471  0.2630
  126SOPE   O1213453   2.098   1.045   2.975  0.2720 -0.3426  0.8139
  126SOPE   O1113454   2.281   1.206   2.927  0.5246  0.2517  0.0811
  126SOPE    C113455   2.355   1.327   2.903 -1.0870 -0.0220  0.1673
  126SOPE    HA13456   2.303   1.412   2.853  0.8624  0.6462 -0.8480
  126SOPE    HB13457   2.436   1.296   2.833 -0.7853  0.8880  0.0848
  126SOPE    C213458   2.411   1.382   3.034  0.8647  0.6506 -0.6294
  126SOPE    HS13459   2.460   1.297   3.087  1.7522  0.9186 -0.9962
  126SOPE   O2113460   2.304   1.433   3.109 -0.1332  0.3696  0.3658
  126SOPE   C2113461   2.275   1.384   3.228  0.3432 -0.4386  0.8929
  126SOPE   O2213462   2.316   1.281   3.275  1.5189 -0.6912  0.3227
  126SOPE   C2213463   2.161   1.469   3.296 -0.0818 -0.1405  0.4221
  126SOPE   H2R13464   2.074   1.472   3.228  0.1206 -3.8693 -0.1925
  126SOPE   H2S13465   2.197   1.574   3.309 -3.7551  1.4879 -1.2382
  126SOPE    C313466   2.524   1.484   3.020 -0.1379 -0.3865  0.1886
  126SOPE    HX13467   2.496   1.568   2.953  1.1752  0.7122  0.9661
  126SOPE    HY13468   2.603   1.427   2.966 -0.6958  0.0348 -1.1140
  126SOPE   O3113469   2.564   1.530   3.147 -0.0139  0.3249  0.2576
  126SOPE   C3113470   2.503   1.641   3.195 -0.3450 -0.1820 -0.1686
  126SOPE   O3213471   2.418   1.707   3.143  0.5882 -0.4000  0.2974
  126SOPE   C3213472   2.566   1.668   3.330 -0.3658  0.0774  0.0351
  126SOPE   H2X13473   2.522   1.759   3.377  0.1788  0.1598  0.3934
  126SOPE   H2Y13474   2.673   1.688   3.309 -0.4577  1.2655  0.6346
  126SOPE   C2313475   2.129   1.418   3.439 -0.2252  0.4746  0.1882
  126SOPE   H3R13476   2.214   1.376   3.497 -2.3016 -2.9772  0.9870
  126SOPE   H3S13477   2.066   1.330   3.414 -0.6914 -0.2508  3.5250
  126SOPE   C2413478   2.045   1.520   3.524 -1.1593  0.5281 -0.4373
  126SOPE   H4R13479   1.952   1.543   3.467 -0.5004  0.6718 -1.4777
  126SOPE   H4S13480   2.007   1.452   3.604  1.0065 -1.2127 -0.7841
  126SOPE   C2513481   2.116   1.643   3.580  0.1788  0.4688 -0.1180
  126SOPE   H5R13482   2.162   1.688   3.489 -0.7389 -1.6331 -1.6940
  126SOPE   H5S13483   2.046   1.721   3.618 -1.2847 -0.6734 -0.3847
  126SOPE   C2613484   2.224   1.613   3.680  0.7564  0.9703 -0.0748
  126SOPE   H6R13485   2.284   1.522   3.658  0.7343  0.9028  0.1437
  126SOPE   H6S13486   2.284   1.702   3.707  2.2942 -0.2274  0.6386
  126SOPE   C2713487   2.162   1.562   3.810  0.0941  0.4071  0.4975
  126SOPE   H7R13488   2.098   1.643   3.853 -0.4802  0.5154 -0.5188
  126SOPE   H7S13489   2.095   1.477   3.783 -0.0804  0.8992 -0.6923
  126SOPE   C2813490   2.262   1.502   3.906  0.2525  0.0100  0.0989
  126SOPE   H8R13491   2.295   1.407   3.859  0.5785 -0.1718  0.6713
  126SOPE   H8S13492   2.348   1.573   3.919 -0.1393  0.4862  0.1342
  126SOPE   C2913493   2.212   1.459   4.046 -0.3424 -1.0690  0.2430
  126SOPE   H9113494   2.122   1.395   4.044  0.7572 -2.6450 -0.1869
  126SOPE  C21013495   2.265   1.492   4.167 -0.6335 -0.3552  0.1878
  126SOPE  H10113496   2.219   1.450   4.258  0.4582  1.9646  1.8964
  126SOPE  C21113497   2.391   1.571   4.192 -0.1662  0.1353  0.3188
  126SOPE  H11R13498   2.362   1.674   4.163 -1.7691 -0.7151 -1.2712
  126SOPE  H11S13499   2.473   1.552   4.120 -1.0610 -0.5552 -0.5497
  126SOPE  C21213500   2.426   1.586   4.343  0.1314 -0.3106  0.1336
  126SOPE  H12R13501   2.454   1.486   4.382 -0.8526 -1.3875 -1.7722
  126SOPE  H12S13502   2.339   1.635   4.392  0.3732  1.8696 -1.4687
  126SOPE  C21313503   2.550   1.674   4.353  0.5631  0.5231 -0.5993
  126SOPE  H13R13504   2.524   1.769   4.301  1.7523 -0.1344 -2.4842
  126SOPE  H13S13505   2.634   1.629   4.296  0.4330  1.0386 -1.2081
  126SOPE  C21413506   2.585   1.724   4.495 -0.1862  0.1133  0.2602
  126SOPE  H14R13507   2.497   1.711   4.561  0.0890 -1.4418  0.3591
  126SOPE  H14S13508   2.608   1.833   4.490  0.8624 -0.1275 -0.7866
  126SOPE  C21513509   2.697   1.647   4.568  0.0621 -0.0812 -0.3427
  126SOPE  H15R13510   2.793   1.665   4.513  1.2450  1.5253  2.0826
  126SOPE  H15S13511   2.674   1.539   4.571  1.7322 -0.5290 -1.7969
  126SOPE  C21613512   2.706   1.692   4.715 -0.6449  0.1313 -0.8148
  126SOPE  H16R13513   2.605   1.671   4.757  0.3335 -0.9655  1.1319
  126SOPE  H16S13514   2.737   1.799   4.722  0.2330 -0.1261 -0.5737
  126SOPE  C21713515   2.799   1.609   4.813  0.6880  0.1201 -0.0259
  126SOPE  H17R13516   2.905   1.643   4.803  0.2344  1.6461  0.1372
  126SOPE  H17S13517   2.793   1.502   4.784  1.0141 -0.1267  0.7700
  126SOPE  C21813518   2.749   1.624   4.962 -0.1487 -0.2150  0.5965
  126SOPE  H18R13519   2.640   1.605   4.966 -0.9972  3.3817 -1.4737
  126SOPE  H18S13520   2.759   1.728   4.999  2.3996 -0.9153  2.0954
  126SOPE  H18T13521   2.817   1.571   5.032  1.1159  2.5534  1.5872
  126SOPE   C3313522   2.539   1.550   3.431  0.4402 -0.2001 -0.3928
  126SOPE   H3X13523   2.567   1.454   3.382 -0.1428  0.2548 -1.6552
  126SOPE   H3Y13524   2.432   1.559   3.456  0.7242  2.9287  0.1162
  126SOPE   C3413525   2.625   1.572   3.554 -0.5631  0.2881 -0.1578
  126SOPE   H4X13526   2.615   1.671   3.604 -2.6638 -0.7352  1.6175
  126SOPE   H4Y13527   2.727   1.535   3.531 -0.9667 -1.7682  1.0774
  126SOPE   C3513528   2.594   1.464   3.661 -0.1908 -0.7579  0.2431
  126SOPE   H5X13529   2.587   1.364   3.614 -0.3566  0.2784 -2.0493
  126SOPE   H5Y13530   2.493   1.489   3.703 -0.9519 -2.1362 -0.7199
  126SOPE   C3613531   2.698   1.448   3.770 -0.3429 -0.5050  0.7079
  126SOPE   H6X13532   2.729   1.550   3.803 -0.5128  0.3266 -1.5330
  126SOPE   H6Y13533   2.792   1.397   3.740 -0.2208 -0.8141  1.5903
  126SOPE   C3713534   2.642   1.390   3.892  0.0611 -0.1397 -0.2770
  126SOPE   H7X13535   2.623   1.287   3.853 -0.4930  0.1251 -0.7308
  126SOPE   H7Y13536   2.548   1.444   3.918  2.1161  3.1802  0.7662
  126SOPE   C3813537   2.749   1.385   4.003  0.1456 -0.2149 -0.7974
  126SOPE   H8X13538   2.768   1.493   4.022 -0.1141  0.2389 -2.8263
  126SOPE   H8Y13539   2.844   1.330   3.986 -0.3980 -2.3134  2.2233
  126SOPE   C3913540   2.691   1.312   4.126  0.0394 -0.0447 -0.0846
  126SOPE   H9X13541   2.644   1.214   4.102  0.0738 -0.1851  0.3978
  126SOPE   H9Y13542   2.602   1.372   4.154  0.0473  0.6110 -1.4286
  126SOPE  C31013543   2.793   1.323   4.246 -0.4916 -0.5865 -0.0417
  126SOPE  H10X13544   2.838   1.424   4.245  2.2480 -1.7057  0.4685
  126SOPE  H10Y13545   2.868   1.244   4.223 -1.1096 -1.0622 -0.4604
  126SOPE  C31113546   2.731   1.285   4.379 -0.1902 -0.4931 -0.8405
  126SOPE  H11X13547   2.708   1.177   4.367  1.0708 -0.6396 -2.3814
  126SOPE  H11Y13548   2.638   1.342   4.397 -0.2899 -0.5533 -1.1549
  126SOPE  C31213549   2.831   1.307   4.500 -0.0677  0.3229  0.6251
  126SOPE  H12X13550   2.859   1.412   4.520 -2.8681  1.1191  0.7292
  126SOPE  H12Y13551   2.925   1.251   4.479  1.2294  1.3782  3.1282
  126SOPE  C31313552   2.773   1.253   4.619  0.3044  0.3113 -0.8217
  126SOPE  H13X13553   2.713   1.162   4.598 -0.1826  0.7375 -1.3133
  126SOPE  H13Y13554   2.703   1.329   4.659  0.2652  0.3931 -1.0399
  126SOPE  C31413555   2.873   1.232   4.729 -0.4419  0.1494  0.2625
  126SOPE  H14X13556   2.931   1.321   4.762  1.0848 -1.1893  1.3255
  126SOPE  H14Y13557   2.958   1.171   4.691 -0.6197  1.0584 -1.7326
  126SOPE  C31513558   2.802   1.159   4.848 -0.6816 -0.1358  0.3433
  126SOPE  H15X13559   2.776   1.062   4.799 -0.8450  0.8563 -1.6412
  126SOPE  H15Y13560   2.716   1.226   4.868 -0.9608 -0.0156 -1.1352
  126SOPE  C31613561   2.901   1.151   4.967 -0.1255 -0.4607  0.4163
  126SOPE  H16X13562   2.903   1.254   5.008 -0.7521  0.0001 -0.6401
  126SOPE  H16Y13563   2.997   1.107   4.933 -0.6731 -0.8176 -0.7586
  126SOPE  C31713564   2.852   1.063   5.085 -0.3368  0.2714  0.5853
  126SOPE  H17X13565   2.759   1.102   5.132  0.5182  2.3965  0.6364
  126SOPE  H17Y13566   2.939   1.067   5.155 -0.6220 -0.6112  1.0032
  126SOPE  C31813567   2.844   0.916   5.040 -0.1215 -0.2407 -0.2337
  126SOPE  H18X13568   2.747   0.908   4.985  1.6013  2.4016 -4.0825
  126SOPE  H18Y13569   2.838   0.851   5.129 -0.6519  1.7509  1.2584
  126SOPE  H18Z13570   2.926   0.891   4.969  1.4839 -1.4889  1.9678
  127SOPE     N13571   5.643   2.265   3.012  0.6680 -0.4980 -0.4468
  127SOPE   HN113572   5.704   2.197   3.062  0.5106  0.6819  1.4268
  127SOPE   HN213573   5.573   2.228   2.944  0.5582  0.9932 -1.1888
  127SOPE   HN313574   5.703   2.314   2.943 -0.4625  0.6485 -0.6640
  127SOPE   C1213575   5.573   2.366   3.099  0.3862 -0.5679  0.7628
  127SOPE  H12A13576   5.532   2.434   3.022  0.1928 -0.5987  0.8397
  127SOPE  H12B13577   5.654   2.413   3.160  1.7361 -0.7176 -0.8464
  127SOPE   C1113578   5.465   2.298   3.196  0.2571 -0.7800 -0.1662
  127SOPE  H11A13579   5.413   2.374   3.259 -0.8728 -0.0783 -1.8727
  127SOPE  H11B13580   5.511   2.236   3.276  0.0931  1.2848  1.6485
  127SOPE     P13581   5.234   2.296   3.074  0.2038  0.0913 -0.2968
  127SOPE   O1313582   5.198   2.215   2.953  0.0924  0.1000 -0.2710
  127SOPE   O1413583   5.253   2.440   3.047 -0.3670  0.2147  0.6349
  127SOPE   O1213584   5.366   2.226   3.130 -0.0397  0.4699  0.2517
  127SOPE   O1113585   5.136   2.274   3.196 -0.5717 -0.0147  0.3311
  127SOPE    C113586   5.136   2.168   3.292 -0.7733  0.3982 -0.3799
  127SOPE    HA13587   5.239   2.134   3.318 -0.8430  1.0175  0.7545
  127SOPE    HB13588   5.085   2.077   3.252 -2.2193  0.8030  0.4899
  127SOPE    C213589   5.036   2.196   3.407  0.1834  0.1471  0.0971
  127SOPE    HS13590   4.944   2.226   3.352  1.2016 -2.7441 -3.5675
  127SOPE   O2113591   5.099   2.292   3.489  0.1448 -0.9566  0.9804
  127SOPE   C2113592   5.018   2.398   3.520  0.5027 -0.0939  1.3268
  127SOPE   O2213593   4.899   2.410   3.496  0.0891 -0.4382 -0.1909
  127SOPE   C2213594   5.100   2.511   3.591 -0.4804  0.3800 -0.2636
  127SOPE   H2R13595   5.038   2.596   3.627 -0.5491  0.1731  0.1030
  127SOPE   H2S13596   5.179   2.546   3.521 -0.6014 -0.7430 -0.9868
  127SOPE    C313597   4.995   2.065   3.483  0.1900 -0.3429 -0.2157
  127SOPE    HX13598   5.077   2.055   3.557 -1.6437  0.0425  1.9747
  127SOPE    HY13599   4.986   1.982   3.410  1.6463 -0.8001  0.0979
  127SOPE   O3113600   4.877   2.091   3.558  0.5041  0.5426  1.2203
  127SOPE   C3113601   4.759   2.089   3.492  0.4022  0.5023  0.1036
  127SOPE   O3213602   4.750   2.060   3.374  0.2353 -0.3354  0.1001
  127SOPE   C3213603   4.644   2.144   3.566 -0.2139 -0.5284  0.3952
  127SOPE   H2X13604   4.669   2.251   3.584 -0.1173 -0.7106  1.3986
  127SOPE   H2Y13605   4.622   2.102   3.666 -0.2891 -2.2427 -0.3007
  127SOPE   C2313606   5.184   2.450   3.705  0.1674  0.2568 -0.6272
  127SOPE   H3R13607   5.260   2.519   3.746  0.3372 -0.0125 -0.4822
  127SOPE   H3S13608   5.239   2.358   3.674  0.5144  0.3935 -0.4210
  127SOPE   C2413609   5.103   2.403   3.828  0.2318 -0.2696  0.1470
  127SOPE   H4R13610   5.040   2.490   3.855 -1.5740 -1.7889  1.0819
  127SOPE   H4S13611   5.037   2.323   3.788  1.6278  0.0951 -3.1960
  127SOPE   C2513612   5.203   2.351   3.939 -0.2370 -0.1499 -0.1340
  127SOPE   H5R13613   5.237   2.249   3.911  1.4903 -0.3435  2.2769
  127SOPE   H5S13614   5.295   2.413   3.934  1.2299 -2.3105 -2.3707
  127SOPE   C2613615   5.143   2.343   4.078  0.1450 -0.1416 -0.4724
  127SOPE   H6R13616   5.127   2.451   4.101  1.6287 -0.1931  0.9452
  127SOPE   H6S13617   5.044   2.294   4.089 -0.0639  0.3988  0.1598
  127SOPE   C2713618   5.243   2.281   4.174  0.2131  0.1765  0.1092
  127SOPE   H7R13619   5.297   2.204   4.116  1.5451  0.9718  0.2428
  127SOPE   H7S13620   5.317   2.358   4.206  1.9431 -1.3423 -0.1306
  127SOPE   C2813621   5.182   2.221   4.296  0.1424  0.0792  0.2795
  127SOPE   H8R13622   5.117   2.136   4.267  1.1292 -0.4315 -0.4911
  127SOPE   H8S13623   5.261   2.160   4.345  0.5096  1.4039  1.4255
  127SOPE   C2913624   5.121   2.311   4.397  0.0858 -0.4895  0.4739
  127SOPE   H9113625   5.064   2.392   4.349  0.8241  0.0791  0.5250
  127SOPE  C21013626   5.110   2.301   4.533  0.5531 -0.3151  0.4170
  127SOPE  H10113627   5.040   2.365   4.589  0.3216  0.3457 -0.5960
  127SOPE  C21113628   5.165   2.196   4.619  0.2084  0.4954  0.0235
  127SOPE  H11R13629   5.252   2.150   4.568  0.2477 -1.7179  1.9218
  127SOPE  H11S13630   5.085   2.119   4.627 -0.4152  1.2301  1.2499
  127SOPE  C21213631   5.196   2.256   4.758 -1.0985 -0.1336 -0.2378
  127SOPE  H12R13632   5.277   2.332   4.757  0.8184 -2.0696  0.1105
  127SOPE  H12S13633   5.242   2.167   4.806 -0.6116  1.0719  1.6481
  127SOPE  C21313634   5.072   2.280   4.845  0.0853 -0.7379 -0.0071
  127SOPE  H13R13635   5.015   2.184   4.846 -0.1101 -0.6154  0.5799
  127SOPE  H13S13636   5.009   2.359   4.800  0.0700 -0.6818  0.1136
  127SOPE  C21413637   5.097   2.304   4.998  0.5050  0.3767  0.2067
  127SOPE  H14R13638   5.124   2.412   4.996 -1.4097  0.9019  0.9267
  127SOPE  H14S13639   5.181   2.244   5.038  1.5036  0.0425 -2.1811
  127SOPE  C21513640   4.968   2.291   5.078  0.3997 -0.5420  0.9282
  127SOPE  H15R13641   4.916   2.198   5.048  0.5113 -1.0919  2.3818
  127SOPE  H15S13642   4.908   2.378   5.042  0.2437 -1.5111 -1.3266
  127SOPE  C21613643   4.980   2.300   5.229 -0.1064  0.3071 -0.0940
  127SOPE  H16R13644   5.045   2.385   5.257  1.8917 -0.6661 -1.5077
  127SOPE  H16S13645   5.035   2.208   5.260 -0.2308 -0.2839 -1.5511
  127SOPE  C21713646   4.844   2.332   5.289  0.1028  0.1927  0.1757
  127SOPE  H17R13647   4.788   2.236   5.277  3.5672 -1.9466 -0.0685
  127SOPE  H17S13648   4.787   2.411   5.236  0.1915  0.0947 -0.0661
  127SOPE  C21813649   4.858   2.365   5.435 -0.1699  0.4210 -0.5013
  127SOPE  H18R13650   4.905   2.279   5.486 -2.1856  0.5001  1.6307
  127SOPE  H18S13651   4.763   2.399   5.482  0.2091 -0.6772  1.1103
  127SOPE  H18T13652   4.931   2.449   5.440 -1.5774  1.6571  0.0171
  127SOPE   C3313653   4.510   2.155   3.487  0.0815 -0.2740  0.3173
  127SOPE   H3X13654   4.477   2.051   3.468 -1.5509  0.2941 -0.1317
  127SOPE   H3Y13655   4.522   2.206   3.389 -0.8780  0.5163  0.5938
  127SOPE   C3413656   4.406   2.238   3.565 -0.3491 -0.1410  0.0344
  127SOPE   H4X13657   4.405   2.196   3.668 -0.7522 -1.5940 -0.5291
  127SOPE   H4Y13658   4.309   2.228   3.512  0.2255  0.1729 -1.1000
  127SOPE   C3513659   4.438   2.384   3.560 -0.0557 -0.2147 -0.6737
  127SOPE   H5X13660   4.444   2.422   3.455  3.0490  4.1458  0.7657
  127SOPE   H5Y13661   4.536   2.410   3.606  0.0860 -1.6528 -0.1151
  127SOPE   C3613662   4.326   2.468   3.631 -0.1441  0.6512  0.2828
  127SOPE   H6X13663   4.231   2.461   3.573  1.2581 -1.0249 -1.9785
  127SOPE   H6Y13664   4.361   2.573   3.623 -1.4521  1.0405 -0.6869
  127SOPE   C3713665   4.296   2.439   3.777 -0.2098  0.7267 -0.1741
  127SOPE   H7X13666   4.391   2.467   3.827 -1.5846  1.9628  1.9186
  127SOPE   H7Y13667   4.270   2.336   3.809  0.3886  0.2149 -1.2967
  127SOPE   C3813668   4.196   2.540   3.842  0.3493  0.5658  0.3046
  127SOPE   H8X13669   4.232   2.643   3.821 -0.3154  0.6158 -0.6614
  127SOPE   H8Y13670   4.222   2.538   3.950  3.9946  3.4423 -0.3347
  127SOPE   C3913671   4.048   2.526   3.803  0.3804  0.3500  0.3914
  127SOPE   H9X13672   4.037   2.417   3.815  2.9172 -0.2488 -1.6969
  127SOPE   H9Y13673   4.035   2.540   3.693  0.2536 -3.6043 -0.2165
  127SOPE  C31013674   3.954   2.625   3.877  0.0090 -0.2691 -1.0314
  127SOPE  H10X13675   3.849   2.614   3.841 -0.5983  1.7645 -0.0161
  127SOPE  H10Y13676   3.996   2.725   3.854 -1.1456  0.4990  0.0982
  127SOPE  C31113677   3.950   2.596   4.032  0.0952  0.1477  0.4573
  127SOPE  H11X13678   4.046   2.569   4.082  1.4953 -0.7527 -2.4485
  127SOPE  H11Y13679   3.884   2.507   4.021 -1.0961  1.3012 -2.8178
  127SOPE  C31213680   3.872   2.699   4.105  0.2438  0.3720  0.1705
  127SOPE  H12X13681   3.769   2.707   4.066  0.4502  0.2592 -0.4049
  127SOPE  H12Y13682   3.916   2.800   4.089  0.1128  0.2940 -0.7042
  127SOPE  C31313683   3.868   2.660   4.260  0.4503  1.1450 -0.2123
  127SOPE  H13X13684   3.973   2.647   4.297  1.1221  0.2973 -2.2760
  127SOPE  H13Y13685   3.836   2.554   4.274  1.7848  0.6132 -0.9708
  127SOPE  C31413686   3.789   2.758   4.340 -0.3829  0.2704 -1.4492
  127SOPE  H14X13687   3.689   2.772   4.293 -0.8646 -0.8751 -0.8077
  127SOPE  H14Y13688   3.837   2.857   4.350 -1.5263  0.8599 -1.5621
  127SOPE  C31513689   3.768   2.700   4.485 -0.0382  0.0190 -0.6029
  127SOPE  H15X13690   3.868   2.680   4.529 -0.2844  0.8621  0.3655
  127SOPE  H15Y13691   3.709   2.607   4.468 -0.7155  0.7471 -2.5028
  127SOPE  C31613692   3.683   2.793   4.573  0.4152 -0.1615  0.0717
  127SOPE  H16X13693   3.618   2.725   4.631 -0.1084  0.4723  0.2443
  127SOPE  H16Y13694   3.619   2.855   4.506  0.7304 -0.3567 -0.4139
  127SOPE  C31713695   3.768   2.863   4.672 -0.2902 -0.5039  0.1079
  127SOPE  H17X13696   3.836   2.936   4.622 -0.9813 -0.1975 -0.4048
  127SOPE  H17Y13697   3.823   2.789   4.733 -1.2348 -0.4364  1.0494
  127SOPE  C31813698   3.675   2.947   4.758  0.1629 -0.1111 -0.3721
  127SOPE  H18X13699   3.586   2.885   4.781 -0.5267  1.3331  1.0061
  127SOPE  H18Y13700   3.642   3.037   4.702  0.8964 -0.0050 -0.6452
  127SOPE  H18Z13701   3.716   2.977   4.857 -1.6981  0.6437  0.1989
  128SOPE     N13702   1.348   4.599   3.339  0.3627  1.0246 -0.4149
  128SOPE   HN113703   1.351   4.592   3.443 -2.5124  1.8639 -0.1971
  128SOPE   HN213704   1.364   4.700   3.318  1.5628  1.6423  2.8220
  128SOPE   HN313705   1.250   4.577   3.313  0.6738  1.8941 -2.5221
  128SOPE   C1213706   1.469   4.522   3.283  0.4383  0.4878  0.0586
  128SOPE  H12A13707   1.433   4.482   3.186  0.5319 -1.8868  0.9343
  128SOPE  H12B13708   1.477   4.432   3.348  3.1646 -0.4412 -1.4200
  128SOPE   C1113709   1.592   4.613   3.265  0.0624  0.0909  0.2920
  128SOPE  H11A13710   1.664   4.532   3.237 -2.4553 -2.8903  1.7884
  128SOPE  H11B13711   1.628   4.656   3.360  2.3457 -2.3581  0.6574
  128SOPE     P13712   1.540   4.856   3.193 -0.2060 -0.1803 -0.1738
  128SOPE   O1313713   1.410   4.849   3.258  0.1821 -0.4582 -0.2916
  128SOPE   O1413714   1.553   4.942   3.077 -0.9661 -0.0139  0.5109
  128SOPE   O1213715   1.580   4.711   3.159 -0.3768  0.0179  0.1043
  128SOPE   O1113716   1.653   4.893   3.296  0.2436 -0.1083 -0.7390
  128SOPE    C113717   1.792   4.900   3.269 -0.1673 -0.1278  0.0848
  128SOPE    HA13718   1.814   4.884   3.161 -0.0344 -0.5396  0.1698
  128SOPE    HB13719   1.849   4.816   3.313 -0.7477 -0.6198 -0.0996
  128SOPE    C213720   1.844   5.043   3.304  0.5645 -0.2224  0.2655
  128SOPE    HS13721   1.950   5.043   3.272  0.6010  2.8251  0.0590
  128SOPE   O2113722   1.837   5.082   3.443 -0.4258  0.1955 -0.4115
  128SOPE   C2113723   1.886   4.996   3.530 -0.7394  0.0114 -0.6851
  128SOPE   O2213724   1.966   4.908   3.503 -0.5174  0.4529 -0.2292
  128SOPE   C2213725   1.847   5.051   3.668  0.0334  0.3101  0.2545
  128SOPE   H2R13726   1.747   5.100   3.661 -0.5342 -0.8993 -0.4838
  128SOPE   H2S13727   1.929   5.120   3.695 -0.9387  1.0416  1.4644
  128SOPE    C313728   1.773   5.161   3.222 -0.6668  0.1168  0.2227
  128SOPE    HX13729   1.666   5.167   3.253 -1.0222 -0.7659 -0.7943
  128SOPE    HY13730   1.782   5.137   3.114  0.8241 -0.9937  0.5583
  128SOPE   O3113731   1.834   5.290   3.239 -0.1453 -0.1704 -0.0248
  128SOPE   C3113732   1.781   5.370   3.321 -0.1471 -0.6138 -0.5176
  128SOPE   O3213733   1.684   5.342   3.394  0.3402  0.1581  0.0128
  128SOPE   C3213734   1.857   5.495   3.329  0.4116  0.4352 -0.1894
  128SOPE   H2X13735   1.809   5.555   3.249  1.0966  2.2897  0.7493
  128SOPE   H2Y13736   1.963   5.480   3.299  0.5599 -2.0869  1.2623
  128SOPE   C2313737   1.855   4.938   3.776 -0.0047 -0.0940 -0.0544
  128SOPE   H3R13738   1.792   4.856   3.737  0.5374  0.3650 -2.0009
  128SOPE   H3S13739   1.793   4.983   3.857 -1.8662  1.0016 -1.9972
  128SOPE   C2413740   1.985   4.921   3.851 -0.2773  0.2587 -0.3719
  128SOPE   H4R13741   2.061   4.881   3.780 -2.3232 -2.6605 -1.1112
  128SOPE   H4S13742   2.012   5.025   3.879 -0.2809  0.9349 -2.6251
  128SOPE   C2513743   1.986   4.831   3.982  0.3861  0.3060  0.3733
  128SOPE   H5R13744   1.902   4.855   4.050  0.8761 -0.5544  1.3014
  128SOPE   H5S13745   1.967   4.727   3.947 -2.7533  0.3892  1.5119
  128SOPE   C2613746   2.118   4.836   4.058  0.1234  0.1308 -0.3006
  128SOPE   H6R13747   2.132   4.733   4.098  0.2975 -0.3672 -1.5910
  128SOPE   H6S13748   2.190   4.873   3.982 -0.0012  2.2051  0.5177
  128SOPE   C2713749   2.124   4.940   4.177 -0.4322  0.1576  0.7236
  128SOPE   H7R13750   2.232   4.961   4.191 -0.3809  2.0745 -1.8247
  128SOPE   H7S13751   2.092   5.042   4.145  3.1584  1.5071  0.9324
  128SOPE   C2813752   2.033   4.904   4.302  0.7941  0.2459  0.3553
  128SOPE   H8R13753   2.048   4.995   4.364  0.2402  0.5924 -0.0128
  128SOPE   H8S13754   1.929   4.908   4.262  1.2378  2.2656 -0.6715
  128SOPE   C2913755   2.070   4.775   4.371  0.2257  0.1552  0.2188
  128SOPE   H9113756   2.043   4.683   4.318 -1.6417  0.4579  0.5665
  128SOPE  C21013757   2.109   4.759   4.498  0.5998  0.1498 -0.2365
  128SOPE  H10113758   2.116   4.656   4.536 -2.0794 -0.0451 -0.0557
  128SOPE  C21113759   2.118   4.874   4.595  0.2257  0.4733  0.2148
  128SOPE  H11R13760   2.061   4.852   4.689 -2.1886  0.5273 -1.1506
  128SOPE  H11S13761   2.066   4.963   4.555  0.2569  0.0015 -0.9156
  128SOPE  C21213762   2.271   4.902   4.632  0.1338 -0.4900  0.4010
  128SOPE  H12R13763   2.338   4.920   4.545  2.4635  0.5026  2.2802
  128SOPE  H12S13764   2.305   4.811   4.686  0.1793 -1.6837 -1.5758
  128SOPE  C21313765   2.307   5.019   4.727 -0.0513  0.5454  0.0025
  128SOPE  H13R13766   2.262   5.113   4.688 -1.9375  0.4920  1.8175
  128SOPE  H13S13767   2.417   5.026   4.719 -0.0994 -0.2080 -1.5904
  128SOPE  C21413768   2.262   4.991   4.871  0.2450  0.2093  0.6970
  128SOPE  H14R13769   2.306   4.898   4.913  0.0182 -0.9123 -1.3819
  128SOPE  H14S13770   2.151   4.990   4.872  0.2378  0.3856  1.9594
  128SOPE  C21513771   2.315   5.101   4.958  0.7179 -0.2328 -0.0680
  128SOPE  H15R13772   2.250   5.101   5.048  0.2493 -0.1163 -0.4030
  128SOPE  H15S13773   2.307   5.198   4.905  2.9770 -0.4577 -0.9038
  128SOPE  C21613774   2.455   5.075   5.024  0.3907 -0.0094 -0.2038
  128SOPE  H16R13775   2.531   5.066   4.943 -0.8447 -2.4202 -1.2141
  128SOPE  H16S13776   2.464   4.983   5.085  2.4299  1.0026  1.1375
  128SOPE  C21713777   2.496   5.191   5.118 -0.0483 -0.2799 -0.6561
  128SOPE  H17R13778   2.434   5.196   5.210 -0.8682 -1.6928 -1.1085
  128SOPE  H17S13779   2.476   5.288   5.067 -1.0160  0.8408  1.7029
  128SOPE  C21813780   2.639   5.196   5.165 -0.0335 -0.3866  0.0980
  128SOPE  H18R13781   2.652   5.285   5.230  0.5368  1.9918 -3.0432
  128SOPE  H18S13782   2.708   5.184   5.078  1.0126  2.4630  0.4177
  128SOPE  H18T13783   2.665   5.108   5.228 -0.3145 -0.2774  0.3642
  128SOPE   C3313784   1.834   5.581   3.458 -0.4548  0.3469 -0.3302
  128SOPE   H3X13785   1.726   5.588   3.486 -0.3855  1.0565 -0.2239
  128SOPE   H3Y13786   1.863   5.687   3.438 -3.4337  2.0467  3.0607
  128SOPE   C3413787   1.912   5.518   3.576  0.3730 -0.4708  0.2205
  128SOPE   H4X13788   2.019   5.549   3.578  0.9136 -2.2384  2.3344
  128SOPE   H4Y13789   1.915   5.408   3.559  0.8651 -0.0307 -3.4923
  128SOPE   C3513790   1.849   5.569   3.707  0.3209  0.5154  0.4291
  128SOPE   H5X13791   1.837   5.679   3.698  3.4891  0.8525 -0.7401
  128SOPE   H5Y13792   1.921   5.550   3.789 -1.2642 -2.8374  1.2649
  128SOPE   C3613793   1.726   5.489   3.743 -0.2079 -0.1700 -0.6609
  128SOPE   H6X13794   1.750   5.381   3.753  0.1958 -0.1331 -1.1888
  128SOPE   H6Y13795   1.648   5.501   3.665 -0.4586 -2.0695 -0.7519
  128SOPE   C3713796   1.675   5.530   3.881  0.2995 -0.2427  0.4680
  128SOPE   H7X13797   1.750   5.487   3.952  2.9771 -1.0178 -2.6154
  128SOPE   H7Y13798   1.580   5.480   3.913  1.0638 -1.2399  1.2566
  128SOPE   C3813799   1.657   5.683   3.891 -0.3980 -0.1842 -0.7400
  128SOPE   H8X13800   1.596   5.724   3.808 -0.8359 -0.0560 -0.3601
  128SOPE   H8Y13801   1.751   5.741   3.883  0.1559 -0.6437  1.6272
  128SOPE   C3913802   1.594   5.725   4.022 -0.5918 -0.1093 -0.3446
  128SOPE   H9X13803   1.492   5.679   4.021 -0.8638  0.4883 -0.2129
  128SOPE   H9Y13804   1.574   5.834   4.014 -0.0512 -0.1272 -2.6398
  128SOPE  C31013805   1.678   5.689   4.149 -0.5623  0.4808  0.1684
  128SOPE  H10X13806   1.771   5.749   4.132  0.1120 -0.1536  1.4793
  128SOPE  H10Y13807   1.698   5.581   4.140  2.6010  0.9741  0.1072
  128SOPE  C31113808   1.613   5.729   4.277  0.2805  0.3530 -0.2756
  128SOPE  H11X13809   1.512   5.685   4.289 -0.0733  1.0914 -0.4681
  128SOPE  H11Y13810   1.597   5.839   4.274 -1.9963  0.0719 -3.0435
  128SOPE  C31213811   1.702   5.702   4.395 -0.5669  0.1267 -1.3601
  128SOPE  H12X13812   1.802   5.752   4.398 -0.4828 -0.0820  0.6183
  128SOPE  H12Y13813   1.728   5.595   4.408 -2.5122 -0.2798 -0.5324
  128SOPE  C31313814   1.632   5.745   4.527  0.7013  0.1173 -0.3143
  128SOPE  H13X13815   1.540   5.684   4.535  0.7452  0.0115 -0.6009
  128SOPE  H13Y13816   1.606   5.853   4.531 -0.7220 -0.2318  1.0168
  128SOPE  C31413817   1.716   5.726   4.653  0.1907  0.0025 -0.0397
  128SOPE  H14X13818   1.810   5.786   4.657  0.3873 -0.2665 -0.6059
  128SOPE  H14Y13819   1.734   5.618   4.669  0.0623  0.1846  1.5124
  128SOPE  C31513820   1.636   5.773   4.777 -0.5514 -0.1325  0.4486
  128SOPE  H15X13821   1.537   5.725   4.760 -0.4755 -0.2566  0.3487
  128SOPE  H15Y13822   1.616   5.882   4.775  1.3445  0.2348  0.3076
  128SOPE  C31613823   1.684   5.717   4.902 -0.1236 -0.6461 -0.7364
  128SOPE  H16X13824   1.683   5.606   4.899  1.5687 -0.6726 -2.2144
  128SOPE  H16Y13825   1.612   5.734   4.985  1.4724 -4.3948  1.6947
  128SOPE  C31713826   1.831   5.756   4.924  0.5037 -0.1274  0.6086
  128SOPE  H17X13827   1.835   5.866   4.910  2.1748 -0.3983 -1.5806
  128SOPE  H17Y13828   1.908   5.721   4.853  1.2348  0.5130  1.0654
  128SOPE  C31813829   1.877   5.725   5.064  0.1716  0.0025 -0.4947
  128SOPE  H18X13830   1.902   5.618   5.080 -3.3766 -0.5509  2.8962
  128SOPE  H18Y13831   1.797   5.761   5.133  0.4730  2.4075 -1.2945
  128SOPE  H18Z13832   1.968   5.781   5.096 -1.0525  2.1223 -0.5117
  129OSM      N13833   6.702   6.391   8.011  0.6603  0.1036  0.2953
  129OSM    C1513834   6.607   6.436   7.911 -0.0169  0.6334  0.0509
  129OSM   H15A13835   6.652   6.469   7.819 -0.3940 -2.4146 -1.3788
  129OSM   H15B13836   6.546   6.519   7.942 -2.3616  0.5813 -3.7709
  129OSM   H15C13837   6.542   6.351   7.893 -0.1393  0.5047  1.0420
  129OSM    C1413838   6.629   6.346   8.136 -0.1646  0.4798  0.3140
  129OSM   H14A13839   6.703   6.318   8.210 -1.2909 -0.0013  1.2973
  129OSM   H14B13840   6.568   6.258   8.124 -0.2351  0.5528  0.1392
  129OSM   H14C13841   6.568   6.425   8.177  0.2216  0.2099  1.4410
  129OSM    C1313842   6.785   6.275   7.952 -0.8979 -0.2101 -0.7157
  129OSM   H13A13843   6.844   6.311   7.869  1.2783  0.5800  1.0657
  129OSM   H13B13844   6.731   6.185   7.926  0.9393 -1.0069 -2.0382
  129OSM   H13C13845   6.858   6.240   8.024 -1.2327 -0.6728 -0.5954
  129OSM    C1213846   6.805   6.502   8.049 -0.8331  0.2492  0.6309
  129OSM   H12A13847   6.888   6.466   8.109 -0.2232  1.0321  0.2816
  129OSM   H12B13848   6.776   6.578   8.119 -0.3871  0.0412  1.0441
  129OSM    C1113849   6.868   6.583   7.933  0.8759 -0.4961  0.3318
  129OSM   H11A13850   6.919   6.518   7.859  1.8307 -0.3456  0.8417
  129OSM   H11B13851   6.943   6.641   7.990  0.7015  0.7263 -0.6283
  129OSM      P13852   6.805   6.809   7.805 -0.0826  0.0124 -0.1908
  129OSM    O1313853   6.675   6.868   7.763  0.1253 -0.0229  0.0596
  129OSM    O1413854   6.903   6.884   7.884 -0.3605 -0.0073 -0.0776
  129OSM    O1113855   6.877   6.764   7.666 -0.3736  0.0941 -0.3592
  129OSM    O1213856   6.776   6.665   7.867 -0.7513 -0.6507 -0.8066
  129OSM    C1S13857   6.817   6.663   7.585  0.7452  0.3697 -0.1789
  129OSM    H1S13858   6.731   6.711   7.534  0.8270  1.0372  0.2918
  129OSM    H1T13859   6.783   6.578   7.648  1.4322  0.9478  1.0254
  129OSM     NF13860   6.851   6.564   7.356  0.1022  0.3335  0.1269
  129OSM    HNF13861   6.885   6.473   7.332 -0.5702 -0.4708  2.0724
  129OSM    C2S13862   6.922   6.617   7.471 -1.0042  0.5749 -0.2583
  129OSM    H2S13863   6.962   6.715   7.438 -0.3956  0.7891  1.0346
  129OSM    C3S13864   7.040   6.533   7.530 -0.0488 -0.4683  0.6047
  129OSM    H3S13865   7.008   6.430   7.556 -1.5115  0.0429  0.9345
  129OSM     O313866   7.086   6.599   7.655  0.0780 -0.5891  0.1843
  129OSM    HO313867   7.025   6.673   7.662  1.0328  0.1934  0.4892
  129OSM    C4S13868   7.156   6.512   7.433 -0.7773 -0.3178 -0.4136
  129OSM    H4S13869   7.148   6.419   7.374  0.9006 -1.0061  0.3844
  129OSM    C5S13870   7.267   6.596   7.406 -0.1338  0.1125  0.3846
  129OSM    H5S13871   7.282   6.695   7.453  2.8205  0.5176 -1.1339
  129OSM    C6S13872   7.368   6.566   7.295  0.0824 -0.4893  0.0319
  129OSM    H6S13873   7.373   6.456   7.280  0.4881 -0.1776 -2.5790
  129OSM    H6T13874   7.470   6.599   7.324  0.4692 -1.7752  0.1821
  129OSM    C7S13875   7.341   6.631   7.160 -0.2930 -0.1500  0.5494
  129OSM    H7S13876   7.372   6.738   7.167 -0.0883 -0.0643 -1.1937
  129OSM    H7T13877   7.232   6.636   7.140 -0.1466  1.1769 -0.0553
  129OSM    C8S13878   7.408   6.568   7.032  0.0308 -0.2466  0.6623
  129OSM    H8S13879   7.377   6.463   7.012  1.6340 -0.4215 -1.2528
  129OSM    H8T13880   7.511   6.548   7.067  1.3139 -1.1422 -3.1242
  129OSM    C9S13881   7.408   6.663   6.912  0.0618  0.5246  0.1239
  129OSM    H9S13882   7.497   6.724   6.939 -1.1165  1.3101  2.5811
  129OSM    H9T13883   7.323   6.734   6.919 -1.1492 -0.9187  0.6739
  129OSM   C10S13884   7.423   6.600   6.779 -0.6549 -0.3804 -0.5354
  129OSM   H10S13885   7.333   6.548   6.739 -0.6890 -1.0801  0.4122
  129OSM   H10T13886   7.505   6.526   6.789 -2.2255 -2.1701 -0.2513
  129OSM   C11S13887   7.459   6.709   6.681 -0.0425  0.0514 -0.2144
  129OSM   H11S13888   7.556   6.753   6.711 -1.9213  2.5286  2.8106
  129OSM   H11T13889   7.380   6.787   6.683 -1.4135 -1.2857  2.3660
  129OSM   C12S13890   7.472   6.655   6.544  0.6579 -0.3127  0.3565
  129OSM   H12S13891   7.374   6.669   6.494  1.2994  0.2132 -0.7976
  129OSM   H12T13892   7.498   6.547   6.550  0.5721 -0.4967 -1.8192
  129OSM   C13S13893   7.569   6.726   6.450 -0.1220  0.3846  0.2528
  129OSM   H13S13894   7.665   6.720   6.506  0.9780 -2.5435 -1.6913
  129OSM   H13T13895   7.527   6.826   6.426 -2.0693 -0.7125 -1.2004
  129OSM   C14S13896   7.584   6.644   6.321 -0.8623 -0.1826  0.1914
  129OSM   H14S13897   7.661   6.697   6.261 -1.8740  1.6958  0.4910
  129OSM   H14T13898   7.483   6.645   6.275 -0.2297  1.4917 -1.2925
  129OSM   C15S13899   7.638   6.499   6.319  0.0177 -0.5860 -0.0248
  129OSM   H15S13900   7.637   6.456   6.216  2.5672  1.2989 -0.9481
  129OSM   H15T13901   7.563   6.449   6.383  1.7975 -2.1699  0.9194
  129OSM   C16S13902   7.781   6.487   6.387  0.0525 -1.0399  0.8598
  129OSM   H16S13903   7.806   6.380   6.373 -0.3350 -1.4556  3.0059
  129OSM   H16T13904   7.789   6.498   6.497  1.9896  1.1855  0.5653
  129OSM   C17S13905   7.886   6.555   6.298  0.6283 -0.0735 -0.3109
  129OSM   H17S13906   7.876   6.665   6.286  2.0169  0.0216 -0.7659
  129OSM   H17T13907   7.856   6.528   6.194 -1.8898  2.9532 -0.5231
  129OSM   C18S13908   8.031   6.520   6.316  0.8061 -0.1065  0.0082
  129OSM   H18S13909   8.050   6.413   6.340  1.4171 -0.3866 -1.5654
  129OSM   H18T13910   8.068   6.582   6.401  0.2289  0.3695 -0.0819
  129OSM   H18U13911   8.088   6.549   6.225  0.1249 -1.4858 -0.8812
  129OSM    C1F13912   6.758   6.614   7.276 -0.2808 -0.5122 -0.1749
  129OSM     OF13913   6.717   6.730   7.293  0.2654  0.8821  0.6208
  129OSM    C2F13914   6.707   6.526   7.168  0.1790 -0.1962  0.5477
  129OSM    H2F13915   6.650   6.437   7.202  1.3523 -0.7217  1.2229
  129OSM    H2G13916   6.789   6.479   7.109  0.1456 -0.1283  0.4480
  129OSM    C3F13917   6.615   6.617   7.084  0.0547  0.3343 -0.0636
  129OSM    H3F13918   6.679   6.701   7.048 -0.6141  0.6837 -0.4537
  129OSM    H3G13919   6.537   6.671   7.143  1.1243  1.5861  0.2501
  129OSM    C4F13920   6.564   6.553   6.954 -0.6080  0.4162  0.3334
  129OSM    H4F13921   6.494   6.475   6.992 -1.2887 -0.0931 -1.8450
  129OSM    H4G13922   6.647   6.505   6.897  0.4007 -1.3452  3.0647
  129OSM    C5F13923   6.496   6.644   6.844 -0.0910  0.0992 -0.7550
  129OSM    H5F13924   6.571   6.722   6.822  1.2347 -0.9422 -0.0924
  129OSM    H5G13925   6.401   6.687   6.881  0.3829  1.7297 -1.3375
  129OSM    C6F13926   6.471   6.576   6.708  0.1263 -0.1713 -0.4405
  129OSM    H6F13927   6.414   6.483   6.729  0.3890 -0.1066  0.6252
  129OSM    H6G13928   6.565   6.555   6.653  0.0952  2.0107 -1.4261
  129OSM    C7F13929   6.375   6.663   6.619 -0.6562 -1.7355  0.8189
  129OSM    H7F13930   6.429   6.754   6.585 -1.1999 -0.6572  2.7140
  129OSM    H7G13931   6.295   6.704   6.684 -0.1683 -0.5756  0.7113
  129OSM    C8F13932   6.307   6.592   6.499  0.0733  0.1722 -0.5061
  129OSM    H8F13933   6.245   6.652   6.430  1.4226  1.8464 -0.3082
  129OSM    H8G13934   6.252   6.506   6.545  2.9215 -1.7869 -0.5028
  129OSM    C9F13935   6.406   6.522   6.414 -0.5438  0.6755 -0.0271
  129OSM    H9F13936   6.461   6.442   6.467 -0.4534  1.1237  0.5735
  129OSM   C10F13937   6.420   6.538   6.279 -0.0297 -0.0738 -0.6073
  129OSM   H10F13938   6.508   6.488   6.236  1.2196  0.1553  1.5513
  129OSM   C11F13939   6.356   6.637   6.187 -0.0998 -0.2876 -0.8101
  129OSM   H11F13940   6.395   6.740   6.199  2.1223 -1.3101  1.9826
  129OSM   H11G13941   6.249   6.647   6.213 -0.5381  0.5739 -2.7780
  129OSM   C12F13942   6.376   6.615   6.039 -0.1806 -0.6191 -0.7923
  129OSM   H12F13943   6.333   6.515   6.015 -1.6104 -1.1793  3.2553
  129OSM   H12G13944   6.480   6.632   6.005 -0.1268  2.1712  0.4439
  129OSM   C13F13945   6.288   6.705   5.953  0.5487  0.0060  0.1235
  129OSM   H13F13946   6.327   6.806   5.977  1.2377 -0.7626  2.5674
  129OSM   H13G13947   6.181   6.708   5.985  0.6026  0.0341  0.3028
  129OSM   C14F13948   6.295   6.675   5.806 -0.6386  0.5940  0.2123
  129OSM   H14F13949   6.246   6.577   5.785  2.2264 -1.1997  1.2322
  129OSM   H14G13950   6.402   6.661   5.779 -0.6801 -1.2589  0.8187
  129OSM   C15F13951   6.212   6.781   5.727  0.1006  0.3776  0.0144
  129OSM   H15F13952   6.259   6.880   5.745 -1.6718  1.1023  0.9243
  129OSM   H15G13953   6.108   6.786   5.766 -0.6148 -2.0353 -1.3858
  129OSM   C16F13954   6.218   6.747   5.577  0.3289 -0.2948 -0.0688
  129OSM   H16F13955   6.321   6.728   5.540  0.1596  2.0003 -1.9793
  129OSM   H16G13956   6.184   6.837   5.522  0.2748  0.5588  1.3081
  129OSM   C17F13957   6.109   6.640   5.536  0.4466  0.1599 -0.0938
  129OSM   H17F13958   6.016   6.655   5.595  0.0063 -1.7036 -0.2428
  129OSM   H17G13959   6.154   6.543   5.567  1.1312  0.3199 -0.5577
  129OSM   C18F13960   6.077   6.630   5.392  0.0705 -0.3861 -1.0545
  129OSM   H18F13961   6.027   6.539   5.353  1.3393 -1.7109  0.2854
  129OSM   H18G13962   6.160   6.660   5.324 -1.0819 -0.7339 -2.6464
  129OSM   H18H13963   6.008   6.715   5.375  1.7249  1.1334 -0.5815
  130OSM      N13964   2.272   1.598   7.879 -0.6367 -0.2878  0.4960
  130OSM    C1513965   2.394   1.687   7.864 -0.3721 -0.7675 -0.5072
  130OSM   H15A13966   2.428   1.711   7.964 -1.9393 -2.1799  0.4317
  130OSM   H15B13967   2.365   1.782   7.821 -1.7500 -1.0347 -0.2373
  130OSM   H15C13968   2.472   1.645   7.802  0.8977  1.2558 -0.3844
  130OSM    C1413969   2.299   1.464   7.940 -0.3890  0.2312  0.7038
  130OSM   H14A13970   2.341   1.471   8.039 -0.1861  1.1362  0.5654
  130OSM   H14B13971   2.379   1.421   7.882  1.4708  2.4261  1.4874
  130OSM   H14C13972   2.216   1.395   7.942 -0.6712  0.5815  2.1819
  130OSM    C1313973   2.165   1.675   7.950 -0.4687  0.0088 -0.7916
  130OSM   H13A13974   2.140   1.770   7.906  0.8801  0.0569 -1.5173
  130OSM   H13B13975   2.205   1.687   8.050 -2.7936 -1.5607  0.4046
  130OSM   H13C13976   2.077   1.614   7.963 -1.0962  0.5080 -2.3996
  130OSM    C1213977   2.217   1.566   7.747  0.4319 -0.4244  0.8832
  130OSM   H12A13978   2.134   1.499   7.763 -1.0440  1.7762  3.1273
  130OSM   H12B13979   2.287   1.503   7.694  1.2156  0.8670  0.3308
  130OSM    C1113980   2.175   1.676   7.641 -1.2593  0.6957 -0.3184
  130OSM   H11A13981   2.167   1.633   7.539 -1.2976 -1.1959  0.4368
  130OSM   H11B13982   2.256   1.752   7.643 -0.8612  0.2946  1.8997
  130OSM      P13983   1.914   1.657   7.676 -0.2959 -0.0859 -0.0226
  130OSM    O1313984   1.935   1.542   7.763  0.0681 -0.4710 -0.1951
  130OSM    O1413985   1.798   1.743   7.700 -0.0895  0.1211  0.7157
  130OSM    O1113986   1.906   1.609   7.523 -0.0234  0.1174 -0.2185
  130OSM    O1213987   2.053   1.744   7.675  0.4757  0.1860  0.0882
  130OSM    C1S13988   1.873   1.702   7.413  0.2068  0.0089 -0.2778
  130OSM    H1S13989   1.959   1.772   7.405  0.6533 -0.2256  1.8719
  130OSM    H1T13990   1.792   1.774   7.435 -1.4587 -1.9398  0.3108
  130OSM     NF13991   1.892   1.725   7.173 -0.1146  0.1606 -0.4026
  130OSM    HNF13992   1.818   1.773   7.126 -0.5962 -2.5109 -2.6520
  130OSM    C2S13993   1.867   1.625   7.279  0.3312 -0.2676 -0.0413
  130OSM    H2S13994   1.956   1.559   7.271  1.0113  0.6340 -0.0583
  130OSM    C3S13995   1.724   1.553   7.266 -0.8886 -0.5121  0.6720
  130OSM    H3S13996   1.644   1.628   7.282 -0.2920  0.0286  1.2065
  130OSM     O313997   1.705   1.451   7.358  0.3367 -0.3787 -0.1821
  130OSM    HO313998   1.780   1.460   7.417 -0.6619  0.2146  1.0601
  130OSM    C4S13999   1.699   1.497   7.125 -0.3315  0.3077 -0.1500
  130OSM    H4S14000   1.776   1.423   7.099 -0.9579 -0.9887  1.4403
  130OSM    C5S14001   1.587   1.526   7.056 -0.2420 -0.1281  0.4921
  130OSM    H5S14002   1.515   1.600   7.094  1.4403  1.1051  1.3867
  130OSM    C6S14003   1.551   1.472   6.922 -0.4004 -0.5486  0.6217
  130OSM    H6S14004   1.445   1.500   6.902 -1.1679 -4.4330 -1.8501
  130OSM    H6T14005   1.557   1.362   6.912 -1.4062 -0.5802  0.2496
  130OSM    C7S14006   1.639   1.533   6.809 -0.4742  0.2344  0.6574
  130OSM    H7S14007   1.748   1.525   6.829 -0.4872 -1.9048  0.1611
  130OSM    H7T14008   1.621   1.641   6.792  2.6486  0.9042  0.9565
  130OSM    C8S14009   1.620   1.459   6.677  1.0225 -0.3857 -0.3532
  130OSM    H8S14010   1.510   1.439   6.685  0.9502 -0.2214 -0.9188
  130OSM    H8T14011   1.678   1.366   6.661  0.5298 -0.3973 -2.2143
  130OSM    C9S14012   1.632   1.553   6.561 -0.1360  0.2858  0.7515
  130OSM    H9S14013   1.739   1.577   6.546  0.5157 -2.6556 -0.0003
  130OSM    H9T14014   1.573   1.646   6.577 -1.1360  0.0944 -1.4504
  130OSM   C10S14015   1.597   1.484   6.429  0.5689  0.0617  0.1112
  130OSM   H10S14016   1.492   1.455   6.448  0.3310  0.2303 -0.8875
  130OSM   H10T14017   1.656   1.390   6.419  1.1000  0.5242 -1.3917
  130OSM   C11S14018   1.609   1.562   6.302  0.4953  0.0054  0.4132
  130OSM   H11S14019   1.714   1.596   6.284 -0.0812  2.5336  1.3252
  130OSM   H11T14020   1.558   1.661   6.310  0.7920  0.1477  0.5907
  130OSM   C12S14021   1.567   1.492   6.171  0.4071 -0.8349  0.2388
  130OSM   H12S14022   1.471   1.447   6.201 -0.0358  1.6925  3.1729
  130OSM   H12T14023   1.638   1.411   6.143  0.3035 -1.0044  0.4727
  130OSM   C13S14024   1.579   1.590   6.050  0.2794 -0.0224 -0.8813
  130OSM   H13S14025   1.684   1.622   6.031  0.0282  1.0351 -0.5809
  130OSM   H13T14026   1.537   1.690   6.074  0.3813 -0.0266 -0.6790
  130OSM   C14S14027   1.512   1.542   5.915  0.1909 -0.5348  0.4910
  130OSM   H14S14028   1.578   1.458   5.884 -1.7703 -1.8249 -0.4465
  130OSM   H14T14029   1.501   1.621   5.839 -1.0617 -2.1106 -1.0498
  130OSM   C15S14030   1.374   1.491   5.946 -0.7275  0.1088 -0.0892
  130OSM   H15S14031   1.308   1.569   5.990 -0.3992  1.3217 -1.6967
  130OSM   H15T14032   1.369   1.408   6.020 -3.1357 -0.0327 -0.3312
  130OSM   C16S14033   1.296   1.449   5.818  0.3161  0.6709  0.2157
  130OSM   H16S14034   1.356   1.367   5.774  0.5333  0.3613  1.0745
  130OSM   H16T14035   1.286   1.534   5.748  2.4376  2.6644  2.1624
  130OSM   C17S14036   1.153   1.390   5.847 -0.6750 -0.1989 -1.1221
  130OSM   H17S14037   1.112   1.473   5.909 -0.2568 -0.7065 -0.1479
  130OSM   H17T14038   1.174   1.298   5.906  1.1077  1.1457  0.4792
  130OSM   C18S14039   1.074   1.359   5.718 -0.1855  0.1870  0.0155
  130OSM   H18S14040   1.076   1.445   5.648  0.0923  1.2355  1.2677
  130OSM   H18T14041   0.973   1.333   5.755 -0.4477  0.3627 -0.5638
  130OSM   H18U14042   1.119   1.271   5.668  0.4430  0.3986  0.2009
  130OSM    C1F14043   2.021   1.764   7.140 -0.2870  0.3388 -0.8177
  130OSM     OF14044   2.119   1.725   7.209 -0.2515 -0.3939  0.5514
  130OSM    C2F14045   2.035   1.858   7.024  0.8719 -0.6542 -0.3740
  130OSM    H2F14046   2.137   1.902   7.026  0.8821 -0.6363 -1.1076
  130OSM    H2G14047   1.979   1.951   7.048  2.3479  0.4032 -0.8393
  130OSM    C3F14048   1.998   1.806   6.886  0.8234 -0.7734 -0.0270
  130OSM    H3F14049   1.898   1.757   6.892  0.6855 -1.0863 -3.0829
  130OSM    H3G14050   2.058   1.716   6.861  3.4702  0.7208  0.6391
  130OSM    C4F14051   2.007   1.912   6.776  0.5905 -0.0163  0.3512
  130OSM    H4F14052   2.109   1.955   6.769  0.9421 -0.6560  1.4096
  130OSM    H4G14053   1.937   1.994   6.805 -2.2028 -2.5861  1.4439
  130OSM    C5F14054   1.962   1.843   6.646  0.1610 -0.1648  0.3962
  130OSM    H5F14055   1.855   1.815   6.658 -0.6024  2.0009 -0.7518
  130OSM    H5G14056   2.024   1.751   6.637 -0.2645 -0.4523  0.3614
  130OSM    C6F14057   1.966   1.917   6.511 -0.8560  0.1934 -0.1532
  130OSM    H6F14058   2.075   1.937   6.500 -1.0195  1.6423  0.5809
  130OSM    H6G14059   1.918   2.018   6.515 -2.8735 -0.7261  0.3534
  130OSM    C7F14060   1.897   1.835   6.405  0.7080  0.6218  0.0221
  130OSM    H7F14061   1.793   1.811   6.434  0.7989 -0.2625 -0.3532
  130OSM    H7G14062   1.937   1.731   6.402  0.6774  0.5695  1.1960
  130OSM    C8F14063   1.900   1.904   6.264 -0.1367  0.1516 -0.3983
  130OSM    H8F14064   1.848   2.001   6.279 -0.5941  0.0119 -1.0301
  130OSM    H8G14065   1.839   1.844   6.193  0.9973  0.2601 -1.4917
  130OSM    C9F14066   2.034   1.916   6.216 -0.1624  0.8851  0.5539
  130OSM    H9F14067   2.119   1.921   6.286 -0.1843  0.9428  0.5762
  130OSM   C10F14068   2.068   1.902   6.092  0.3846 -0.7864  1.0804
  130OSM   H10F14069   2.176   1.913   6.074 -0.0981  2.3599 -0.7772
  130OSM   C11F14070   1.979   1.869   5.983  0.1281  0.4802  0.7407
  130OSM   H11F14071   1.871   1.890   6.000  0.0208  0.0142  0.6437
  130OSM   H11G14072   1.987   1.760   5.960 -0.4189  0.6758 -0.4076
  130OSM   C12F14073   2.022   1.923   5.840  0.0395 -0.2571  0.6857
  130OSM   H12F14074   2.124   1.891   5.809 -0.3123  1.5046 -2.7976
  130OSM   H12G14075   2.014   2.034   5.836  1.3163 -0.1710 -0.4775
  130OSM   C13F14076   1.933   1.868   5.727  0.2237  0.2473 -0.1241
  130OSM   H13F14077   1.830   1.911   5.726 -0.0739 -0.4230 -1.8061
  130OSM   H13G14078   1.935   1.757   5.728  0.0598  0.1989  2.3473
  130OSM   C14F14079   1.993   1.914   5.591 -0.9263 -0.5025 -0.4815
  130OSM   H14F14080   2.092   1.867   5.572 -0.4295 -0.7380  2.2838
  130OSM   H14G14081   2.015   2.022   5.602  2.2181 -1.1551  0.9640
  130OSM   C15F14082   1.898   1.903   5.471  0.5797  0.6383 -0.1157
  130OSM   H15F14083   1.929   1.970   5.389 -1.8792 -0.8131 -2.3654
  130OSM   H15G14084   1.795   1.941   5.491  0.7382  2.6104 -2.5319
  130OSM   C16F14085   1.878   1.759   5.415  0.6590 -0.5583 -0.0831
  130OSM   H16F14086   1.835   1.686   5.486 -0.5408  2.2153  2.2426
  130OSM   H16G14087   1.977   1.729   5.374  1.5026  2.6589 -0.6859
  130OSM   C17F14088   1.791   1.754   5.289 -0.3431  0.1354 -0.6262
  130OSM   H17F14089   1.828   1.825   5.212  1.5627 -1.3777 -1.1792
  130OSM   H17G14090   1.690   1.791   5.316  0.0142  0.3396  0.4589
  130OSM   C18F14091   1.792   1.610   5.227 -0.1154 -0.2532 -0.0923
  130OSM   H18F14092   1.722   1.606   5.141 -0.5828  0.1153  0.2694
  130OSM   H18G14093   1.751   1.546   5.307 -1.3045  0.0948 -0.4097
  130OSM   H18H14094   1.888   1.570   5.187 -2.9078 -3.3718 -4.6486
  131OSM      N14095   6.128   3.469   7.803 -0.4441  0.3944 -0.6831
  131OSM    C1514096   6.205   3.481   7.674 -0.7005  0.4073  0.8511
  131OSM   H15A14097   6.296   3.537   7.692  0.6643 -1.3186 -0.4609
  131OSM   H15B14098   6.140   3.539   7.610  0.8218  1.5022  0.2268
  131OSM   H15C14099   6.231   3.387   7.629 -2.8406 -0.6092  1.5998
  131OSM    C1414100   6.115   3.606   7.863 -0.7042 -0.0752  0.3709
  131OSM   H14A14101   6.081   3.678   7.790  1.2520 -0.3544 -0.8951
  131OSM   H14B14102   6.210   3.642   7.899  0.0410 -1.1925 -0.4316
  131OSM   H14C14103   6.054   3.605   7.952  1.0340 -1.9482  1.6456
  131OSM    C1314104   5.996   3.420   7.769 -0.0616 -0.1458  0.0224
  131OSM   H13A14105   6.003   3.320   7.727 -2.1562  0.4810 -2.0358
  131OSM   H13B14106   5.950   3.477   7.689  0.2954 -0.1186 -0.1671
  131OSM   H13C14107   5.926   3.422   7.850 -1.7441  1.1017 -1.3884
  131OSM    C1214108   6.211   3.374   7.897  1.1694  0.2894 -0.5120
  131OSM   H12A14109   6.164   3.372   7.994  1.2722 -0.4637 -0.4723
  131OSM   H12B14110   6.310   3.415   7.911  1.1584  0.0894  0.1573
  131OSM    C1114111   6.224   3.229   7.845  0.3585  0.0668  0.0478
  131OSM   H11A14112   6.121   3.189   7.832 -0.5388  1.6437  1.8093
  131OSM   H11B14113   6.262   3.179   7.937  0.9567  1.1353  0.3993
  131OSM      P14114   6.456   3.182   7.761  0.0170 -0.4411 -0.0684
  131OSM    O1314115   6.489   3.254   7.885  0.1124 -0.3357  0.2580
  131OSM    O1414116   6.490   3.039   7.762 -0.0416  0.1236 -0.2881
  131OSM    O1114117   6.538   3.248   7.640  0.0258 -0.3861 -0.0819
  131OSM    O1214118   6.307   3.211   7.727 -0.2862 -0.0346  0.0162
  131OSM    C1S14119   6.510   3.204   7.508 -1.0127  0.5798  0.1978
  131OSM    H1S14120   6.403   3.224   7.485 -0.9120 -0.3015 -1.1807
  131OSM    H1T14121   6.523   3.094   7.495 -1.0172  0.6562 -0.4806
  131OSM     NF14122   6.606   3.202   7.272  0.1082 -0.3179  0.8980
  131OSM    HNF14123   6.690   3.185   7.220 -1.2156 -2.9158 -0.5667
  131OSM    C2S14124   6.610   3.264   7.398  0.3002 -0.6123 -0.7527
  131OSM    H2S14125   6.584   3.371   7.385  0.2826 -0.4037  0.7775
  131OSM    C3S14126   6.758   3.275   7.457 -0.4118  0.0662  0.3890
  131OSM    H3S14127   6.804   3.174   7.449 -1.7520 -0.5087 -0.5258
  131OSM     O314128   6.778   3.335   7.591 -0.2039 -0.2127  0.2064
  131OSM    HO314129   6.698   3.325   7.644  1.4089 -1.2994  2.5831
  131OSM    C4S14130   6.846   3.358   7.370 -0.4423  0.1833 -0.0307
  131OSM    H4S14131   6.818   3.464   7.370 -2.1332 -0.2150 -1.1707
  131OSM    C5S14132   6.945   3.317   7.291 -0.2050 -0.3215  0.8743
  131OSM    H5S14133   6.977   3.213   7.300  0.4352 -0.1029  1.2354
  131OSM    C6S14134   7.028   3.404   7.210  0.1327  0.9072  0.3277
  131OSM    H6S14135   7.132   3.385   7.246  0.3928 -2.5470 -1.7274
  131OSM    H6T14136   7.000   3.507   7.237 -2.7100 -0.5687  3.7098
  131OSM    C7S14137   7.023   3.379   7.054  0.0270 -0.5191 -0.8164
  131OSM    H7S14138   7.014   3.270   7.034 -0.3716 -1.0780  1.9837
  131OSM    H7T14139   7.117   3.421   7.012  0.6962 -1.4938 -0.3451
  131OSM    C8S14140   6.905   3.458   6.989  0.1865 -1.2324 -0.3513
  131OSM    H8S14141   6.919   3.566   7.010 -0.7456 -0.8358 -1.6543
  131OSM    H8T14142   6.808   3.430   7.036 -0.0318  0.2283  0.0983
  131OSM    C9S14143   6.908   3.455   6.833  0.4156  0.6683  0.2666
  131OSM    H9S14144   7.006   3.433   6.787  0.3162  0.6153  0.0756
  131OSM    H9T14145   6.877   3.555   6.795  0.9726  0.7854  0.1229
  131OSM   C10S14146   6.818   3.338   6.770 -1.0231 -0.4218  0.3559
  131OSM   H10S14147   6.722   3.339   6.826 -1.2427  0.4488 -0.0191
  131OSM   H10T14148   6.870   3.246   6.805  1.0882  1.5240  2.6922
  131OSM   C11S14149   6.801   3.336   6.617  0.6198 -0.7873  0.6612
  131OSM   H11S14150   6.750   3.429   6.584  0.3968 -1.0498  0.2573
  131OSM   H11T14151   6.726   3.255   6.608  2.1718 -2.0701 -1.7414
  131OSM   C12S14152   6.930   3.316   6.527  0.7808  0.1632 -0.2454
  131OSM   H12S14153   6.980   3.223   6.561 -1.1343 -1.3760 -1.4388
  131OSM   H12T14154   7.001   3.398   6.551  0.7925  0.6513 -1.8705
  131OSM   C13S14155   6.898   3.317   6.375 -0.0087 -0.1319  0.4858
  131OSM   H13S14156   6.846   3.414   6.359  0.3822 -0.2469 -1.8342
  131OSM   H13T14157   6.822   3.244   6.340  1.3876 -1.1685 -0.5092
  131OSM   C14S14158   7.024   3.316   6.285  0.1853 -0.3383 -0.1705
  131OSM   H14S14159   7.077   3.220   6.301  0.0303 -0.1646  1.6622
  131OSM   H14T14160   7.090   3.400   6.316 -0.6617  0.1713  0.2877
  131OSM   C15S14161   7.002   3.345   6.138 -0.2417 -0.0192 -0.7990
  131OSM   H15S14162   7.092   3.361   6.075 -0.4753  1.6238 -0.7528
  131OSM   H15T14163   6.957   3.446   6.121  0.3659  0.3565 -0.2064
  131OSM   C16S14164   6.915   3.236   6.075 -0.4758  0.0919 -0.1529
  131OSM   H16S14165   6.814   3.249   6.120 -0.1470  0.8593  0.3749
  131OSM   H16T14166   6.937   3.132   6.108 -0.1052 -0.0832 -0.9396
  131OSM   C17S14167   6.882   3.249   5.925  0.1793 -0.0159 -0.0384
  131OSM   H17S14168   6.974   3.241   5.863  0.0850 -1.2889 -0.0465
  131OSM   H17T14169   6.839   3.351   5.921  0.9058  0.3038  0.0688
  131OSM   C18S14170   6.769   3.165   5.866 -0.0465 -0.6726 -0.5434
  131OSM   H18S14171   6.761   3.169   5.756  2.6138 -3.8510 -0.9860
  131OSM   H18T14172   6.675   3.210   5.905 -0.3612 -1.2742 -0.6094
  131OSM   H18U14173   6.768   3.057   5.890 -0.1398 -0.4067  0.7234
  131OSM    C1F14174   6.488   3.218   7.206 -0.4940  0.9912  0.3699
  131OSM     OF14175   6.394   3.276   7.248  0.0003 -0.6279 -0.3569
  131OSM    C2F14176   6.493   3.179   7.060  0.4067  0.1032 -0.2836
  131OSM    H2F14177   6.487   3.068   7.061  0.0362  0.1161  1.0171
  131OSM    H2G14178   6.591   3.206   7.017  0.6983 -0.1417  0.2124
  131OSM    C3F14179   6.378   3.240   6.978 -0.3631  0.2564 -0.3109
  131OSM    H3F14180   6.376   3.352   6.974 -0.7209  0.3185  1.2725
  131OSM    H3G14181   6.282   3.223   7.030  1.0449 -1.5359  1.8631
  131OSM    C4F14182   6.361   3.200   6.834  0.1286  0.1727  0.5307
  131OSM    H4F14183   6.264   3.247   6.806 -0.4848 -0.6887  1.1794
  131OSM    H4G14184   6.355   3.091   6.818 -0.6309  0.0415  1.6047
  131OSM    C5F14185   6.477   3.262   6.746 -0.0997  0.4251  0.2466
  131OSM    H5F14186   6.566   3.198   6.764 -0.7726 -0.5501  0.2409
  131OSM    H5G14187   6.501   3.364   6.782  1.2254  0.0582  0.4290
  131OSM    C6F14188   6.432   3.252   6.593 -0.4276 -0.4111 -0.9194
  131OSM    H6F14189   6.516   3.308   6.545  1.4737 -2.2105  0.1391
  131OSM    H6G14190   6.340   3.311   6.570  0.3839  0.7658 -1.2729
  131OSM    C7F14191   6.421   3.107   6.545  0.3596  0.1171  0.8011
  131OSM    H7F14192   6.364   3.044   6.618 -1.5002  0.8345  0.0468
  131OSM    H7G14193   6.522   3.070   6.518 -0.9978 -0.7513 -4.1312
  131OSM    C8F14194   6.343   3.105   6.409 -0.2770 -0.7524  0.8626
  131OSM    H8F14195   6.236   3.119   6.437 -0.4577 -1.2935  0.4496
  131OSM    H8G14196   6.352   3.003   6.368 -1.6885 -0.1821 -1.0144
  131OSM    C9F14197   6.369   3.210   6.298 -0.1523  0.2764 -0.4899
  131OSM    H9F14198   6.382   3.311   6.339 -1.4255  0.0639  0.4884
  131OSM   C10F14199   6.384   3.195   6.165  0.1648 -0.5247  0.0335
  131OSM   H10F14200   6.384   3.287   6.104  1.6397 -0.1015  0.6203
  131OSM   C11F14201   6.385   3.065   6.091  0.1856 -0.4958  0.9267
  131OSM   H11F14202   6.368   2.978   6.159 -3.2829 -0.5369  0.2151
  131OSM   H11G14203   6.486   3.054   6.048 -0.4237  0.2358 -0.7954
  131OSM   C12F14204   6.289   3.048   5.979 -0.4740 -0.7056 -0.0356
  131OSM   H12F14205   6.180   3.062   5.997 -0.5946  1.3893 -1.9014
  131OSM   H12G14206   6.300   2.951   5.926  1.0011 -1.2391  1.1650
  131OSM   C13F14207   6.323   3.158   5.871 -0.5491 -0.2655  0.0840
  131OSM   H13F14208   6.431   3.182   5.875 -0.3523 -1.0056 -0.4547
  131OSM   H13G14209   6.268   3.251   5.896  0.7555  1.3181 -2.6015
  131OSM   C14F14210   6.289   3.123   5.724 -0.1902 -0.6291  0.2291
  131OSM   H14F14211   6.353   3.042   5.685  1.5632  1.5874 -1.7993
  131OSM   H14G14212   6.317   3.222   5.682  0.4051 -0.8348  0.1372
  131OSM   C15F14213   6.140   3.095   5.699 -1.0491 -0.0825  0.1638
  131OSM   H15F14214   6.079   3.154   5.770  0.1717  2.0878 -0.4789
  131OSM   H15G14215   6.128   2.986   5.716  1.2864 -0.5432 -0.6242
  131OSM   C16F14216   6.094   3.128   5.554  0.2545  0.2062  0.0311
  131OSM   H16F14217   6.175   3.112   5.479 -0.9069  0.3020 -1.2856
  131OSM   H16G14218   6.075   3.237   5.549  3.6863  0.9940  1.0582
  131OSM   C17F14219   5.981   3.029   5.520  0.0444 -0.5297 -0.0851
  131OSM   H17F14220   5.894   3.049   5.585  0.7515  1.4416  0.3081
  131OSM   H17G14221   6.009   2.924   5.543 -1.5096 -1.0240 -0.3418
  131OSM   C18F14222   5.953   3.034   5.372  0.6591 -0.0126 -0.1893
  131OSM   H18F14223   6.044   3.031   5.309  0.3429 -0.9696 -0.6253
  131OSM   H18G14224   5.893   3.124   5.345 -1.0170 -1.1676 -0.4547
  131OSM   H18H14225   5.890   2.946   5.346 -2.5194  1.6361  1.4184
  132OSM      N14226   0.667   0.311   7.925 -0.1300 -0.1603 -0.2047
  132OSM    C1514227   0.539   0.235   7.904  0.3030  0.4641 -0.3488
  132OSM   H15A14228   0.536   0.179   7.811  2.2679 -0.0119 -0.1676
  132OSM   H15B14229   0.451   0.297   7.909  0.7568  1.0111  1.3975
  132OSM   H15C14230   0.520   0.165   7.983 -0.6661  1.2469  0.1360
  132OSM    C1414231   0.673   0.338   8.070 -0.4414  0.0270  0.0035
  132OSM   H14A14232   0.765   0.386   8.099 -0.1244 -0.6082  0.0516
  132OSM   H14B14233   0.658   0.256   8.138  0.3702  1.1555  1.6061
  132OSM   H14C14234   0.591   0.401   8.100 -0.1609  1.0384 -1.2617
  132OSM    C1314235   0.784   0.224   7.893  0.4581  0.0603  0.3561
  132OSM   H13A14236   0.882   0.270   7.893  0.2205  0.6757  2.6043
  132OSM   H13B14237   0.775   0.175   7.797 -1.7104 -3.1500  1.9997
  132OSM   H13C14238   0.784   0.131   7.948 -1.1972  1.0951  2.2471
  132OSM    C1214239   0.674   0.437   7.852 -0.7664 -0.0400  0.3586
  132OSM   H12A14240   0.650   0.440   7.747  1.5820  0.3772 -0.2352
  132OSM   H12B14241   0.778   0.469   7.854 -0.8666  0.4767 -1.4472
  132OSM    C1114242   0.594   0.564   7.904 -0.4909 -0.4916  0.4417
  132OSM   H11A14243   0.616   0.651   7.838 -1.7866 -0.5396 -0.0731
  132OSM   H11B14244   0.645   0.593   7.999  0.4261 -1.0754  0.1390
  132OSM      P14245   0.363   0.571   7.803  0.1396 -0.3608  0.0744
  132OSM    O1314246   0.267   0.463   7.796 -0.0231 -0.2375 -0.1284
  132OSM    O1414247   0.313   0.714   7.817 -0.5798  0.6832  0.2797
  132OSM    O1114248   0.461   0.562   7.677  0.4254 -0.3485  0.5500
  132OSM    O1214249   0.458   0.549   7.922 -0.2047  0.2513  0.3871
  132OSM    C1S14250   0.443   0.470   7.569  0.1250  0.7370  1.0341
  132OSM    H1S14251   0.366   0.390   7.581 -0.5653  1.1749 -0.2364
  132OSM    H1T14252   0.535   0.409   7.563 -1.1981 -1.2588 -0.7787
  132OSM     NF14253   0.407   0.432   7.320 -0.5143  0.2106 -1.0513
  132OSM    HNF14254   0.477   0.419   7.251 -0.4258  0.5622 -1.0322
  132OSM    C2S14255   0.429   0.538   7.424  0.1660 -0.1522 -0.3382
  132OSM    H2S14256   0.332   0.592   7.432  0.9007  1.1061  0.4263
  132OSM    C3S14257   0.542   0.634   7.392 -0.3882  0.3174 -0.0448
  132OSM    H3S14258   0.637   0.581   7.371 -0.1453  1.1747 -1.2593
  132OSM     O314259   0.573   0.734   7.495  0.8707  0.5915  0.0262
  132OSM    HO314260   0.538   0.704   7.579 -0.5773  1.7162 -0.1544
  132OSM    C4S14261   0.504   0.704   7.265  0.4132  0.5161 -0.6403
  132OSM    H4S14262   0.417   0.771   7.274 -1.1030 -1.6099  2.1196
  132OSM    C5S14263   0.569   0.688   7.149  0.0546  0.5776  0.0445
  132OSM    H5S14264   0.651   0.614   7.148 -2.4094 -2.3416  1.4663
  132OSM    C6S14265   0.533   0.770   7.027 -0.6452  1.3082 -0.0674
  132OSM    H6S14266   0.520   0.704   6.938 -0.5220 -1.1136  1.6258
  132OSM    H6T14267   0.597   0.859   7.007  0.4972  0.5616  0.1941
  132OSM    C7S14268   0.389   0.837   7.037 -0.3968 -0.5005 -0.1940
  132OSM    H7S14269   0.386   0.912   7.119 -0.1732  0.2818 -0.8953
  132OSM    H7T14270   0.319   0.753   7.055 -2.4073  0.9162 -1.0517
  132OSM    C8S14271   0.341   0.912   6.913  0.0694  0.8108 -0.4238
  132OSM    H8S14272   0.287   0.839   6.849  1.4231  0.1171 -0.8116
  132OSM    H8T14273   0.434   0.929   6.855  0.7055 -0.4833  0.1718
  132OSM    C9S14274   0.247   1.028   6.943 -0.4318  0.0287 -0.3946
  132OSM    H9S14275   0.304   1.101   7.005 -0.0156 -0.6198  0.0072
  132OSM    H9T14276   0.163   0.987   7.003 -1.1466  0.7966 -0.8543
  132OSM   C10S14277   0.191   1.099   6.823 -0.3898 -0.0188  0.4813
  132OSM   H10S14278   0.123   1.174   6.867 -0.5626 -1.4653  2.9009
  132OSM   H10T14279   0.131   1.029   6.762 -2.3844  0.9063  1.3061
  132OSM   C11S14280   0.303   1.163   6.739 -0.1147  0.5706  0.3316
  132OSM   H11S14281   0.377   1.088   6.702 -0.8407  1.4301 -3.1825
  132OSM   H11T14282   0.363   1.230   6.804 -0.3563  0.3182  0.8247
  132OSM   C12S14283   0.247   1.245   6.628  0.2090 -0.7771  0.3037
  132OSM   H12S14284   0.192   1.331   6.671  0.2470 -0.5806 -0.0327
  132OSM   H12T14285   0.178   1.182   6.568 -2.0922  0.8047  1.1750
  132OSM   C13S14286   0.358   1.304   6.536 -0.0158  0.7636  0.0543
  132OSM   H13S14287   0.436   1.362   6.591  1.3811 -0.9639  0.0042
  132OSM   H13T14288   0.312   1.381   6.472  0.2819  0.5818 -0.3844
  132OSM   C14S14289   0.406   1.197   6.439 -0.7482 -1.0914  0.3715
  132OSM   H14S14290   0.321   1.160   6.379 -1.9055  2.3716 -0.3227
  132OSM   H14T14291   0.460   1.126   6.505  0.9448 -1.8338 -1.7072
  132OSM   C15S14292   0.520   1.243   6.344 -0.8286 -0.4129  0.2754
  132OSM   H15S14293   0.602   1.289   6.404  0.8492 -1.4648 -1.0934
  132OSM   H15T14294   0.488   1.322   6.272  0.1096 -1.0933 -0.9206
  132OSM   C16S14295   0.584   1.130   6.260 -0.5523 -0.8563 -0.3484
  132OSM   H16S14296   0.651   1.173   6.183  2.3604 -1.9037  1.4463
  132OSM   H16T14297   0.513   1.066   6.203 -1.7609  0.2859 -0.1548
  132OSM   C17S14298   0.670   1.032   6.341 -0.8448  0.6837 -0.5100
  132OSM   H17S14299   0.598   0.972   6.401  2.3216 -1.6433  1.3308
  132OSM   H17T14300   0.735   1.089   6.411  0.2624 -0.7214 -0.3343
  132OSM   C18S14301   0.763   0.946   6.255  0.4998 -0.2713 -0.6876
  132OSM   H18S14302   0.840   0.893   6.314 -1.4058  0.8142  3.0786
  132OSM   H18T14303   0.812   0.993   6.167  0.0164  2.6058  0.4800
  132OSM   H18U14304   0.699   0.862   6.219  1.2141 -0.4925 -1.4844
  132OSM    C1F14305   0.301   0.347   7.324 -0.7584  0.3279 -0.0697
  132OSM     OF14306   0.205   0.374   7.392  0.5364 -0.0634 -0.1429
  132OSM    C2F14307   0.309   0.228   7.229 -0.3639 -0.4420 -0.4763
  132OSM    H2F14308   0.390   0.163   7.269  0.1120  0.1295 -0.4873
  132OSM    H2G14309   0.340   0.244   7.124  1.2090 -1.7007 -0.2540
  132OSM    C3F14310   0.170   0.150   7.228 -0.4863 -0.4921 -1.0349
  132OSM    H3F14311   0.099   0.225   7.186 -1.2095 -0.6950 -0.2019
  132OSM    H3G14312   0.142   0.124   7.332  1.2737  0.9733 -0.1451
  132OSM    C4F14313   0.188   0.016   7.146  0.0375 -0.2100 -0.2893
  132OSM    H4F14314   0.095  -0.044   7.156  0.7585 -1.4644 -0.9117
  132OSM    H4G14315   0.265  -0.051   7.188  1.3841  0.7145 -1.2016
  132OSM    C5F14316   0.211   0.041   6.998 -0.1420 -0.3490  0.0091
  132OSM    H5F14317   0.319   0.060   6.984 -0.2878 -0.6014 -1.6624
  132OSM    H5G14318   0.151   0.126   6.961 -0.7291 -1.2573 -1.2044
  132OSM    C6F14319   0.168  -0.081   6.922  0.8015  0.3310 -0.0440
  132OSM    H6F14320   0.057  -0.090   6.924  0.5712  2.6880 -0.1494
  132OSM    H6G14321   0.202  -0.172   6.976 -1.5977  0.2574  1.5087
  132OSM    C7F14322   0.221  -0.092   6.774  0.2633  0.0938  0.1864
  132OSM    H7F14323   0.328  -0.063   6.762  0.2109 -0.5201 -2.2632
  132OSM    H7G14324   0.151  -0.029   6.716 -0.8650  0.0526  1.4542
  132OSM    C8F14325   0.208  -0.235   6.724 -0.5174  0.5192 -0.1182
  132OSM    H8F14326   0.248  -0.296   6.808 -1.1540  2.4886  1.6897
  132OSM    H8G14327   0.292  -0.247   6.653 -0.5952 -1.3686  0.0437
  132OSM    C9F14328   0.062  -0.265   6.691  0.1230  0.1764  0.1984
  132OSM    H9F14329  -0.007  -0.279   6.776 -0.0282 -2.2468 -0.2488
  132OSM   C10F14330   0.024  -0.281   6.563  0.8664 -0.3615 -0.5133
  132OSM   H10F14331  -0.080  -0.312   6.541  0.0530  1.9775 -0.2676
  132OSM   C11F14332   0.111  -0.263   6.446 -0.3586 -0.0198 -0.1110
  132OSM   H11F14333   0.171  -0.354   6.425 -1.4341 -0.7707 -0.0151
  132OSM   H11G14334   0.170  -0.169   6.453  0.9966 -0.8855  0.3985
  132OSM   C12F14335   0.022  -0.260   6.310 -0.8975 -0.5959 -0.3972
  132OSM   H12F14336  -0.035  -0.165   6.315  0.1212 -0.0129  0.6432
  132OSM   H12G14337  -0.052  -0.344   6.311 -1.0540 -0.4687  1.1818
  132OSM   C13F14338   0.108  -0.256   6.178  0.1112  0.0200 -0.5814
  132OSM   H13F14339   0.137  -0.362   6.162  0.7762  0.2683 -1.0665
  132OSM   H13G14340   0.198  -0.195   6.201 -0.4335  1.0766 -1.1834
  132OSM   C14F14341   0.024  -0.199   6.061  0.1463 -0.6340 -0.3214
  132OSM   H14F14342   0.001  -0.094   6.089  2.6155 -0.2762  0.6269
  132OSM   H14G14343  -0.067  -0.262   6.059  0.8500 -1.7168  0.6236
  132OSM   C15F14344   0.103  -0.215   5.928  0.4174 -0.3195 -0.4628
  132OSM   H15F14345   0.096  -0.325   5.915 -2.0239 -0.7245  2.8368
  132OSM   H15G14346   0.205  -0.174   5.947  0.4088 -0.8450  0.8347
  132OSM   C16F14347   0.044  -0.133   5.810 -0.0904  0.6601  0.5049
  132OSM   H16F14348  -0.002  -0.036   5.839 -0.9173  0.3050  0.3977
  132OSM   H16G14349  -0.035  -0.194   5.760 -2.2870  3.1015  0.7854
  132OSM   C17F14350   0.156  -0.108   5.708 -0.0094 -0.2550  0.3880
  132OSM   H17F14351   0.226  -0.029   5.744  1.3128 -0.3033 -1.9311
  132OSM   H17G14352   0.106  -0.060   5.622  0.0761  0.6472  0.8257
  132OSM   C18F14353   0.231  -0.228   5.656 -0.2082  0.5067 -0.1005
  132OSM   H18F14354   0.291  -0.200   5.566 -2.4115  2.4269 -1.0807
  132OSM   H18G14355   0.159  -0.308   5.628  0.7056 -0.6696  0.8032
  132OSM   H18H14356   0.304  -0.268   5.729 -1.1498  0.6098  0.9296
  133OSM      N14357   0.436   1.406   7.810  0.4919  0.5498  0.2292
  133OSM    C1514358   0.456   1.262   7.853 -0.5931  0.2072 -0.3226
  133OSM   H15A14359   0.365   1.219   7.892 -1.3201 -0.5538 -2.6833
  133OSM   H15B14360   0.530   1.262   7.931  0.5526 -0.6777 -1.3575
  133OSM   H15C14361   0.489   1.197   7.773  0.6168 -1.7348  1.6350
  133OSM    C1414362   0.409   1.497   7.928 -0.0447  0.4190  0.1099
  133OSM   H14A14363   0.320   1.458   7.974  0.6106 -1.3698 -0.0460
  133OSM   H14B14364   0.390   1.599   7.898  2.2723  0.4280 -1.6193
  133OSM   H14C14365   0.493   1.487   7.996  1.7279  0.3103 -1.9576
  133OSM    C1314366   0.560   1.454   7.756 -0.1007  0.4446  0.0657
  133OSM   H13A14367   0.550   1.553   7.715  0.6003  2.2482  3.8269
  133OSM   H13B14368   0.593   1.380   7.684  1.5335  0.1782  1.0487
  133OSM   H13C14369   0.641   1.455   7.827  1.0560 -2.1495 -1.0771
  133OSM    C1214370   0.318   1.426   7.716 -0.2416 -0.0075  0.0477
  133OSM   H12A14371   0.314   1.341   7.650 -0.7259 -0.1336  0.2364
  133OSM   H12B14372   0.325   1.522   7.666 -0.0916 -0.0387  0.0089
  133OSM    C1114373   0.177   1.438   7.766  0.7312 -0.5722 -0.2188
  133OSM   H11A14374   0.145   1.353   7.830 -0.4180 -0.6650 -0.8836
  133OSM   H11B14375   0.114   1.420   7.676 -0.7897 -2.1106  1.0825
  133OSM      P14376   0.136   1.696   7.742 -0.0023  0.0215 -0.1367
  133OSM    O1314377   0.009   1.776   7.768 -0.0751 -0.1133  0.0632
  133OSM    O1414378   0.263   1.756   7.764 -0.5648 -0.4976 -0.2441
  133OSM    O1114379   0.134   1.648   7.590  0.8161  0.0973  0.3188
  133OSM    O1214380   0.148   1.564   7.827 -0.0703 -0.1125  0.0336
  133OSM    C1S14381   0.102   1.743   7.487 -0.4144 -0.2594 -0.0232
  133OSM    H1S14382   0.193   1.804   7.467 -1.0873  0.3707 -1.2696
  133OSM    H1T14383   0.032   1.823   7.520  0.2480 -0.2110  1.3662
  133OSM     NF14384   0.039   1.764   7.240  0.0375 -0.2834 -0.1028
  133OSM    HNF14385  -0.048   1.775   7.193  0.1129 -0.9092 -0.4111
  133OSM    C2S14386   0.064   1.677   7.350  0.5372 -0.4706 -1.2066
  133OSM    H2S14387   0.151   1.615   7.320 -0.2236 -2.2297  0.0568
  133OSM    C3S14388  -0.043   1.572   7.375  0.6846 -0.1463 -0.3671
  133OSM    H3S14389  -0.139   1.611   7.416  0.1929 -0.5033 -1.1365
  133OSM     O314390  -0.021   1.469   7.473 -0.2795  0.3511 -0.5146
  133OSM    HO314391   0.056   1.501   7.519 -0.1749  0.3940 -0.7187
  133OSM    C4S14392  -0.073   1.494   7.251  0.6438  0.0928 -0.3176
  133OSM    H4S14393   0.022   1.445   7.227  0.3958 -0.1405 -0.8394
  133OSM    C5S14394  -0.188   1.474   7.185  0.1511 -0.8096  0.0131
  133OSM    H5S14395  -0.282   1.513   7.228  0.5025 -1.5689  1.5492
  133OSM    C6S14396  -0.192   1.380   7.070 -0.4356  0.0348 -0.4917
  133OSM    H6S14397  -0.263   1.301   7.102 -1.5973  0.9259 -0.7734
  133OSM    H6T14398  -0.091   1.338   7.053 -1.0771 -3.5456  3.1005
  133OSM    C7S14399  -0.261   1.439   6.945  0.2312  0.0230  0.0862
  133OSM    H7S14400  -0.205   1.531   6.916 -0.3090  0.2514 -0.2427
  133OSM    H7T14401  -0.366   1.471   6.966 -0.3556  0.4841 -3.0701
  133OSM    C8S14402  -0.249   1.341   6.825 -0.5762  0.3878 -0.4113
  133OSM    H8S14403  -0.296   1.242   6.841  0.5799  0.1390  1.7684
  133OSM    H8T14404  -0.144   1.312   6.803 -0.8118 -1.7605  1.0179
  133OSM    C9S14405  -0.316   1.404   6.704 -0.5850 -0.1317  0.3499
  133OSM    H9S14406  -0.274   1.507   6.701 -1.1326  0.1012  0.4976
  133OSM    H9T14407  -0.426   1.392   6.688 -0.6153  1.3123 -0.6637
  133OSM   C10S14408  -0.269   1.350   6.563 -0.7238 -0.4736 -0.4736
  133OSM   H10S14409  -0.328   1.405   6.486  0.9745  0.8825 -0.8477
  133OSM   H10T14410  -0.303   1.244   6.551 -0.0562 -0.7213 -0.2172
  133OSM   C11S14411  -0.124   1.361   6.515  0.2442 -0.7296  0.2383
  133OSM   H11S14412  -0.073   1.272   6.559 -2.2746 -1.9365  0.9660
  133OSM   H11T14413  -0.081   1.451   6.563 -1.6307  0.6267 -0.5062
  133OSM   C12S14414  -0.116   1.367   6.363 -0.0984  0.6216 -0.7888
  133OSM   H12S14415  -0.147   1.468   6.327 -0.0278  0.4660 -1.2914
  133OSM   H12T14416  -0.192   1.306   6.310  1.2754  0.0688 -2.1936
  133OSM   C13S14417   0.028   1.348   6.319  0.0209  0.5581  0.1212
  133OSM   H13S14418   0.055   1.251   6.365  0.6630  1.2635  1.2893
  133OSM   H13T14419   0.093   1.421   6.371  0.7459 -0.4673  0.6832
  133OSM   C14S14420   0.048   1.361   6.165 -0.6249 -0.0040 -0.4576
  133OSM   H14S14421   0.136   1.297   6.143 -1.0248 -0.4721 -0.7071
  133OSM   H14T14422   0.079   1.461   6.128 -0.1495 -0.2856 -0.8306
  133OSM   C15S14423  -0.071   1.325   6.076  0.0148  1.1505  0.1589
  133OSM   H15S14424  -0.161   1.386   6.097  0.6039  1.6597  1.3440
  133OSM   H15T14425  -0.107   1.226   6.110  2.1958 -0.5578 -2.1444
  133OSM   C16S14426  -0.048   1.332   5.927  0.4101 -0.2395  0.2006
  133OSM   H16S14427   0.001   1.430   5.908 -2.1079  1.0796  0.0297
  133OSM   H16T14428  -0.140   1.335   5.865  0.3321  0.9434  0.3351
  133OSM   C17S14429   0.043   1.223   5.868  0.7093 -0.8802  0.7418
  133OSM   H17S14430   0.004   1.121   5.886  1.5779 -1.3184  0.2083
  133OSM   H17T14431   0.148   1.228   5.903  1.0945  0.9244 -0.5069
  133OSM   C18S14432   0.036   1.239   5.717 -0.9157  0.1959  0.1211
  133OSM   H18S14433  -0.063   1.232   5.668  0.0929 -1.4526 -1.8317
  133OSM   H18T14434   0.095   1.164   5.660  0.2260  2.1763 -1.4213
  133OSM   H18U14435   0.086   1.329   5.676 -1.3223 -0.1871 -1.2622
  133OSM    C1F14436   0.135   1.845   7.198  0.5255  0.4181 -0.1810
  133OSM     OF14437   0.258   1.824   7.218  0.4439  0.0284 -0.4286
  133OSM    C2F14438   0.086   1.960   7.108  0.0776  0.9033 -0.6615
  133OSM    H2F14439  -0.024   1.970   7.123  0.0931 -0.4064  0.6443
  133OSM    H2G14440   0.087   1.926   7.003 -1.3862 -0.5705 -0.2488
  133OSM    C3F14441   0.156   2.089   7.128 -0.0413 -0.0684 -0.7166
  133OSM    H3F14442   0.265   2.071   7.121  0.4641  2.6433 -0.6641
  133OSM    H3G14443   0.132   2.142   7.223  0.3704  0.3940 -0.8684
  133OSM    C4F14444   0.118   2.194   7.017 -0.4066 -0.3971 -0.6607
  133OSM    H4F14445   0.162   2.295   7.034 -0.6993 -0.0140 -2.0505
  133OSM    H4G14446   0.010   2.200   6.991 -0.5587  0.9039  0.1631
  133OSM    C5F14447   0.186   2.160   6.879  0.2965 -0.8524  0.2418
  133OSM    H5F14448   0.169   2.252   6.819  2.3658  0.0148  0.8744
  133OSM    H5G14449   0.136   2.068   6.841  1.7990 -0.6459 -2.5184
  133OSM    C6F14450   0.343   2.130   6.864  0.1806  0.0432  0.2138
  133OSM    H6F14451   0.365   2.121   6.756 -0.8998 -0.2216  0.0057
  133OSM    H6G14452   0.356   2.035   6.921 -2.1900  0.5130  1.6944
  133OSM    C7F14453   0.437   2.238   6.924 -0.1104  0.1984  0.7359
  133OSM    H7F14454   0.410   2.266   7.028  0.6477  1.0518  0.7166
  133OSM    H7G14455   0.425   2.325   6.856 -0.0006  0.6753  1.3210
  133OSM    C8F14456   0.581   2.203   6.922  0.0345 -0.2298  0.1506
  133OSM    H8F14457   0.632   2.297   6.951  0.8416 -0.0732 -1.6064
  133OSM    H8G14458   0.599   2.190   6.813 -3.9774  1.1679 -0.8530
  133OSM    C9F14459   0.621   2.091   7.012 -0.1394  0.3149 -0.1386
  133OSM    H9F14460   0.586   2.100   7.116  2.2493  2.9834  0.5536
  133OSM   C10F14461   0.698   1.988   6.973 -0.3407  0.3367  0.3399
  133OSM   H10F14462   0.735   1.919   7.050  0.2977 -0.9840 -1.0874
  133OSM   C11F14463   0.764   1.968   6.840 -0.1720  0.7749 -0.1950
  133OSM   H11F14464   0.875   1.961   6.842 -0.1659 -1.1719 -2.3643
  133OSM   H11G14465   0.744   2.053   6.772 -1.6551  0.2869 -0.4064
  133OSM   C12F14466   0.710   1.843   6.768 -0.5006  0.5132  0.6682
  133OSM   H12F14467   0.773   1.819   6.679 -0.4848 -0.6282  0.9685
  133OSM   H12G14468   0.611   1.860   6.722  0.4265 -0.3213 -1.8043
  133OSM   C13F14469   0.722   1.707   6.848  0.1324  0.1867  0.2969
  133OSM   H13F14470   0.652   1.697   6.934 -0.3374 -2.1843 -0.2972
  133OSM   H13G14471   0.824   1.693   6.888 -0.3187 -2.9168  0.6208
  133OSM   C14F14472   0.710   1.579   6.755 -0.4034 -0.2953 -0.6412
  133OSM   H14F14473   0.774   1.602   6.667  0.3841  1.6350  0.3787
  133OSM   H14G14474   0.608   1.560   6.715 -0.8745  2.6765 -1.0357
  133OSM   C15F14475   0.758   1.451   6.826 -0.7209 -0.0077 -0.9943
  133OSM   H15F14476   0.715   1.453   6.929  0.4066 -0.0474 -0.5155
  133OSM   H15G14477   0.868   1.455   6.839 -0.8755 -0.7972  1.0110
  133OSM   C16F14478   0.708   1.329   6.757  0.1686 -0.2793 -0.7208
  133OSM   H16F14479   0.759   1.326   6.659  1.8328 -1.4016  0.1189
  133OSM   H16G14480   0.597   1.333   6.744 -0.1351 -0.9833  1.2182
  133OSM   C17F14481   0.731   1.206   6.839 -0.2304 -0.7585  0.8518
  133OSM   H17F14482   0.673   1.219   6.933 -1.0594 -0.8852  0.3711
  133OSM   H17G14483   0.839   1.202   6.862  0.3014 -0.0201 -1.2214
  133OSM   C18F14484   0.696   1.079   6.761  0.1595 -0.1587 -0.2645
  133OSM   H18F14485   0.742   1.083   6.660 -1.0245 -0.9056 -0.8583
  133OSM   H18G14486   0.586   1.075   6.744  0.4170 -0.6256 -2.0723
  133OSM   H18H14487   0.745   0.996   6.815  1.2662  0.6693  0.0419
  134OSM      N14488   5.891   5.847   8.238  0.1103  0.4308  0.5609
  134OSM    C1514489   5.764   5.768   8.253  0.2442  0.5447 -0.3517
  134OSM   H15A14490   5.761   5.723   8.351  2.0919  0.6852 -0.1908
  134OSM   H15B14491   5.753   5.688   8.181  1.0741  2.1105 -2.2993
  134OSM   H15C14492   5.681   5.837   8.249 -0.0232  0.2034 -0.7211
  134OSM    C1414493   5.895   5.976   8.321  0.2447  0.6177  0.2152
  134OSM   H14A14494   5.994   6.018   8.309  1.1818 -1.4014  0.4943
  134OSM   H14B14495   5.876   5.943   8.422  1.3497 -0.4446  0.0937
  134OSM   H14C14496   5.807   6.034   8.299 -1.8699 -1.5883  2.2191
  134OSM    C1314497   6.021   5.776   8.275  0.1914 -0.1501 -0.3520
  134OSM   H13A14498   6.094   5.851   8.247 -0.1386  0.0667 -0.6444
  134OSM   H13B14499   6.034   5.689   8.212  0.1850 -0.9582  0.7522
  134OSM   H13C14500   6.012   5.752   8.379 -0.8615  2.1552  0.1634
  134OSM    C1214501   5.900   5.882   8.090  0.7138  0.3251 -0.2586
  134OSM   H12A14502   6.000   5.921   8.073  1.1119 -0.6832 -0.2794
  134OSM   H12B14503   5.833   5.958   8.053  1.2619  1.0860  0.2780
  134OSM    C1114504   5.892   5.766   7.986  0.4222 -0.1911  0.3945
  134OSM   H11A14505   5.956   5.680   8.016  1.0866  0.2329  0.2040
  134OSM   H11B14506   5.931   5.805   7.890  2.7701  0.3996  1.4995
  134OSM      P14507   5.680   5.651   7.852  0.2482 -0.4101 -0.4217
  134OSM    O1314508   5.534   5.661   7.880  0.6180  0.3904  0.1734
  134OSM    O1414509   5.730   5.693   7.723  0.1509  0.0491 -0.2512
  134OSM    O1114510   5.723   5.496   7.867  0.2849 -0.1876 -0.1158
  134OSM    O1214511   5.753   5.724   7.975 -0.0730  0.1007 -0.4198
  134OSM    C1S14512   5.660   5.417   7.762  0.6471 -0.1784  0.0758
  134OSM    H1S14513   5.562   5.454   7.725  0.6998 -1.4486 -1.4047
  134OSM    H1T14514   5.634   5.321   7.814  0.7398  0.9802  2.3954
  134OSM     NF14515   5.683   5.313   7.539  0.0459 -0.7883  0.0041
  134OSM    HNF14516   5.706   5.217   7.525 -1.5202 -0.8771 -2.7158
  134OSM    C2S14517   5.760   5.383   7.646  0.7287  0.7388  0.0748
  134OSM    H2S14518   5.791   5.479   7.598 -0.8603  1.6153  0.7174
  134OSM    C3S14519   5.880   5.305   7.695 -0.0910 -0.0354  0.1427
  134OSM    H3S14520   5.835   5.210   7.731  0.4318  0.6728  2.8254
  134OSM     O314521   5.943   5.361   7.810  0.4896  0.0223 -0.5845
  134OSM    HO314522   5.876   5.418   7.848  1.0498 -1.1589  2.4628
  134OSM    C4S14523   5.982   5.268   7.583 -0.0605 -0.3337 -0.2551
  134OSM    H4S14524   5.962   5.171   7.535 -0.7872 -0.5754  0.5038
  134OSM    C5S14525   6.092   5.341   7.549  0.1285 -0.1681  0.2489
  134OSM    H5S14526   6.126   5.432   7.600 -0.3594  0.0223  0.2346
  134OSM    C6S14527   6.185   5.297   7.442  0.2874 -0.0493 -0.4375
  134OSM    H6S14528   6.219   5.199   7.481  2.6851  1.1322  0.6170
  134OSM    H6T14529   6.278   5.357   7.441  0.0661  0.3416  0.5695
  134OSM    C7S14530   6.137   5.290   7.297 -0.2994  0.2750 -0.7244
  134OSM    H7S14531   6.055   5.217   7.282  0.9062 -1.6945  1.4818
  134OSM    H7T14532   6.224   5.250   7.242  0.0463  0.8923 -0.6379
  134OSM    C8S14533   6.079   5.424   7.256  0.2770  0.1849  0.0310
  134OSM    H8S14534   6.132   5.511   7.301 -2.7364  1.3155  1.6464
  134OSM    H8T14535   5.975   5.426   7.295  0.4228  1.4461  0.3738
  134OSM    C9S14536   6.061   5.423   7.102 -0.2604  0.2547 -0.4730
  134OSM    H9S14537   5.996   5.512   7.086 -0.2836  0.7741  2.0823
  134OSM    H9T14538   5.999   5.336   7.070 -0.3387 -0.0853  0.5564
  134OSM   C10S14539   6.188   5.424   7.017 -0.4736 -0.7800 -0.7234
  134OSM   H10S14540   6.256   5.336   7.028  1.5420  0.8647  1.1907
  134OSM   H10T14541   6.250   5.510   7.054 -0.9944 -0.4668 -0.5697
  134OSM   C11S14542   6.157   5.442   6.871  0.8225 -0.3163  0.7648
  134OSM   H11S14543   6.080   5.376   6.826 -0.6510  1.2852  0.8614
  134OSM   H11T14544   6.251   5.423   6.815  0.4713  0.3035 -0.0551
  134OSM   C12S14545   6.115   5.584   6.824  0.7938 -0.1473  0.2098
  134OSM   H12S14546   6.166   5.665   6.880 -0.1386  0.0156  0.8607
  134OSM   H12T14547   6.006   5.600   6.841  0.1788 -2.4596 -1.0991
  134OSM   C13S14548   6.145   5.601   6.681  0.1559 -0.0572  0.0020
  134OSM   H13S14549   6.250   5.578   6.651  1.3232 -0.8097  4.1205
  134OSM   H13T14550   6.129   5.706   6.647  4.1701  0.2860 -1.3311
  134OSM   C14S14551   6.056   5.500   6.605 -0.9118  0.2186  0.7867
  134OSM   H14S14552   5.950   5.494   6.639 -0.9789  0.6548  0.6682
  134OSM   H14T14553   6.099   5.399   6.622 -1.1461 -0.4625 -2.0626
  134OSM   C15S14554   6.062   5.518   6.452  0.1675 -0.3591  0.0048
  134OSM   H15S14555   6.004   5.429   6.418  0.0169  0.2711 -1.4419
  134OSM   H15T14556   6.160   5.513   6.401 -0.7422 -0.0574 -1.8832
  134OSM   C16S14557   5.994   5.642   6.390  0.7536  0.1577 -0.7206
  134OSM   H16S14558   6.043   5.726   6.443 -1.3627  0.0690  1.5962
  134OSM   H16T14559   5.888   5.651   6.424  0.7921 -1.0110 -0.2383
  134OSM   C17S14560   6.023   5.651   6.239  0.2901  0.2598  0.2072
  134OSM   H17S14561   6.130   5.673   6.221 -0.3206  1.0791 -3.0197
  134OSM   H17T14562   5.976   5.732   6.180  1.1795 -1.6369 -3.3999
  134OSM   C18S14563   5.995   5.526   6.150  1.0637  0.3748 -0.1553
  134OSM   H18S14564   5.887   5.500   6.152  0.8517  1.1336  2.8302
  134OSM   H18T14565   6.057   5.440   6.186  0.2248  0.3915  1.4209
  134OSM   H18U14566   6.020   5.553   6.045  1.2991  1.8980  0.2738
  134OSM    C1F14567   5.592   5.373   7.456 -0.0450 -0.2631 -0.2000
  134OSM     OF14568   5.578   5.492   7.451 -0.5896  0.1935 -0.4866
  134OSM    C2F14569   5.502   5.279   7.384 -0.4009  0.1164  0.4388
  134OSM    H2F14570   5.402   5.322   7.405 -0.4237  0.2848 -0.0162
  134OSM    H2G14571   5.502   5.186   7.445  1.3086  0.6520  1.3455
  134OSM    C3F14572   5.534   5.269   7.232 -0.4265  0.3474  0.1566
  134OSM    H3F14573   5.502   5.370   7.198  0.9615  0.2995 -1.4158
  134OSM    H3G14574   5.473   5.192   7.179  0.7516  0.2149 -1.0498
  134OSM    C4F14575   5.683   5.251   7.194 -0.6104  0.1507 -0.5641
  134OSM    H4F14576   5.725   5.170   7.258 -0.6709  0.0864 -0.6053
  134OSM    H4G14577   5.721   5.351   7.221  2.3358 -0.2729 -2.6016
  134OSM    C5F14578   5.717   5.225   7.046 -0.0844  0.5614 -0.0038
  134OSM    H5F14579   5.679   5.125   7.017 -0.4843  1.0693 -1.3177
  134OSM    H5G14580   5.827   5.232   7.033  0.1109 -0.5957  0.8524
  134OSM    C6F14581   5.654   5.320   6.950  0.0286 -0.3324  0.0408
  134OSM    H6F14582   5.660   5.422   6.993  0.7063  0.7360 -2.4546
  134OSM    H6G14583   5.549   5.295   6.924 -0.5906  1.8045  0.2679
  134OSM    C7F14584   5.734   5.323   6.819  0.5737  0.6195 -0.6344
  134OSM    H7F14585   5.841   5.349   6.836  1.3117 -2.4469  0.0449
  134OSM    H7G14586   5.685   5.393   6.748 -1.9231 -1.1053 -0.7650
  134OSM    C8F14587   5.719   5.183   6.756 -0.0324 -0.0229 -0.2140
  134OSM    H8F14588   5.614   5.149   6.743  0.8017 -2.0785 -2.3157
  134OSM    H8G14589   5.758   5.111   6.831 -1.2079  1.0564  1.4959
  134OSM    C9F14590   5.795   5.157   6.625 -0.3984  0.1514 -0.0710
  134OSM    H9F14591   5.895   5.204   6.635  0.5111 -1.7700  0.2757
  134OSM   C10F14592   5.756   5.091   6.520 -0.2781 -0.2093  0.0708
  134OSM   H10F14593   5.817   5.080   6.429  0.4752  0.5088  0.4802
  134OSM   C11F14594   5.624   5.019   6.505 -0.3892 -0.6552 -0.1038
  134OSM   H11F14595   5.549   5.084   6.454  0.3727  0.6006  0.3324
  134OSM   H11G14596   5.581   5.006   6.607 -0.8911 -0.1914 -0.2499
  134OSM   C12F14597   5.627   4.876   6.447 -0.1356 -0.5686  0.2645
  134OSM   H12F14598   5.537   4.823   6.484 -2.2421  3.1663  0.8693
  134OSM   H12G14599   5.708   4.814   6.493  0.5061  0.7299  0.9366
  134OSM   C13F14600   5.620   4.860   6.300 -1.0292 -0.1374 -0.0058
  134OSM   H13F14601   5.605   4.752   6.279  0.2339 -0.5630  1.1569
  134OSM   H13G14602   5.713   4.888   6.246 -1.4133 -0.7687 -1.0197
  134OSM   C14F14603   5.502   4.933   6.236 -0.7043  0.3649  0.1462
  134OSM   H14F14604   5.525   5.039   6.258 -0.3728  0.6660 -1.4918
  134OSM   H14G14605   5.413   4.907   6.297  0.9132  0.2315  2.6079
  134OSM   C15F14606   5.508   4.908   6.083 -0.3801 -0.0899  0.0496
  134OSM   H15F14607   5.612   4.901   6.043  0.2453 -0.0525  1.6026
  134OSM   H15G14608   5.477   5.002   6.032 -0.2356 -0.0188  0.0920
  134OSM   C16F14609   5.429   4.789   6.023  0.1526 -0.3861 -0.1400
  134OSM   H16F14610   5.326   4.786   6.065  1.0362  2.0284  2.5745
  134OSM   H16G14611   5.473   4.692   6.054  0.9968 -0.7801 -2.3976
  134OSM   C17F14612   5.431   4.798   5.873 -0.5725  0.0618  0.0714
  134OSM   H17F14613   5.469   4.898   5.844  0.7244 -0.7869 -1.2817
  134OSM   H17G14614   5.322   4.795   5.852 -0.5673  0.4882 -0.0278
  134OSM   C18F14615   5.513   4.688   5.813  0.0805  0.3597  0.0984
  134OSM   H18F14616   5.528   4.711   5.706  1.1328  0.6193  0.2944
  134OSM   H18G14617   5.461   4.590   5.824  1.0469 -0.3948 -1.6803
  134OSM   H18H14618   5.612   4.696   5.863  0.1924 -0.2550 -0.0214
  135OSM      N14619   3.161   5.625   7.613 -0.2387  0.5534 -0.1169
  135OSM    C1514620   3.052   5.716   7.672 -0.8588  0.0483 -0.2409
  135OSM   H15A14621   2.995   5.652   7.737 -0.8925  1.4249  1.1453
  135OSM   H15B14622   2.977   5.745   7.600 -0.7039 -0.7653 -0.7413
  135OSM   H15C14623   3.094   5.807   7.713 -1.2428 -0.1743  0.6773
  135OSM    C1414624   3.222   5.680   7.484  0.3611 -0.1861 -0.0239
  135OSM   H14A14625   3.156   5.693   7.400 -2.8532  0.1302  2.3513
  135OSM   H14B14626   3.295   5.606   7.456  0.1841 -0.7959  1.0693
  135OSM   H14C14627   3.280   5.769   7.504  0.3699  0.0288 -0.9740
  135OSM    C1314628   3.270   5.607   7.709  0.0313 -0.8030 -0.0720
  135OSM   H13A14629   3.319   5.702   7.718  0.2539 -0.8728 -0.5342
  135OSM   H13B14630   3.340   5.543   7.658 -0.3218 -0.6759 -0.7314
  135OSM   H13C14631   3.248   5.569   7.808 -0.3175  0.2359  0.2571
  135OSM    C1214632   3.103   5.489   7.575 -0.1946  0.1133 -0.8405
  135OSM   H12A14633   3.185   5.420   7.557  1.6438  1.9177  0.1589
  135OSM   H12B14634   3.050   5.494   7.481  0.3838  1.6012 -1.1055
  135OSM    C1114635   3.012   5.427   7.683  0.8035 -0.1927 -0.5684
  135OSM   H11A14636   3.070   5.433   7.778 -0.3295 -2.2014  0.3083
  135OSM   H11B14637   3.005   5.319   7.659  2.9147 -0.4548 -0.2335
  135OSM      P14638   2.779   5.515   7.582 -0.4910  0.4158  0.1812
  135OSM    O1314639   2.674   5.415   7.604 -0.6181  0.1597 -0.4009
  135OSM    O1414640   2.732   5.654   7.591  0.2243  0.0576 -0.4225
  135OSM    O1114641   2.851   5.501   7.444 -0.7047 -0.4568 -0.3525
  135OSM    O1214642   2.889   5.501   7.698 -0.0304  0.4455 -0.3085
  135OSM    C1S14643   2.882   5.379   7.380  0.2637 -0.7092  1.1317
  135OSM    H1S14644   2.805   5.302   7.400 -0.4041 -0.0774  1.0017
  135OSM    H1T14645   2.968   5.314   7.409 -1.0197 -1.7380  2.7893
  135OSM     NF14646   2.840   5.268   7.156  0.1015 -0.1789  0.3281
  135OSM    HNF14647   2.917   5.217   7.121  1.7931  2.2622  0.2926
  135OSM    C2S14648   2.874   5.398   7.226  0.0804  0.6374  0.2489
  135OSM    H2S14649   2.789   5.468   7.209  0.6576  1.6274  1.3216
  135OSM    C3S14650   2.999   5.470   7.170 -0.0253 -0.3236 -0.3927
  135OSM    H3S14651   3.086   5.402   7.184  1.4488  1.7113  0.9014
  135OSM     O314652   3.032   5.591   7.246 -0.5307  0.0266  0.3676
  135OSM    HO314653   2.956   5.597   7.304 -0.2477 -0.4635  0.7955
  135OSM    C4S14654   2.987   5.495   7.021  0.1148 -0.1517 -0.1261
  135OSM    H4S14655   3.023   5.416   6.954 -1.6121 -2.0514  1.0658
  135OSM    C5S14656   2.949   5.608   6.959  0.1276  0.1885  0.4928
  135OSM    H5S14657   2.903   5.689   7.017 -1.2278 -0.6065  0.5568
  135OSM    C6S14658   2.956   5.639   6.811  0.1282 -0.0723  0.4378
  135OSM    H6S14659   2.927   5.745   6.789 -0.6564 -0.4421 -0.3859
  135OSM    H6T14660   2.870   5.588   6.763 -0.6695 -0.3521  2.1273
  135OSM    C7S14661   3.087   5.587   6.736  1.2266  0.0604  0.4339
  135OSM    H7S14662   3.066   5.486   6.696  1.7335 -0.1275  0.6493
  135OSM    H7T14663   3.177   5.580   6.800  0.0797 -1.7743  1.9393
  135OSM    C8S14664   3.125   5.678   6.618  0.0805 -0.1614  0.4985
  135OSM    H8S14665   3.178   5.765   6.662 -0.7381 -0.1586  1.5227
  135OSM    H8T14666   3.038   5.699   6.552 -1.5355 -3.2136  1.4613
  135OSM    C9S14667   3.237   5.618   6.518  0.2469 -0.6126  0.1661
  135OSM    H9S14668   3.254   5.682   6.429 -0.1470  0.9485  1.1775
  135OSM    H9T14669   3.194   5.520   6.487 -1.1733 -0.6546  2.0566
  135OSM   C10S14670   3.371   5.580   6.587  0.1348  0.3491 -0.0016
  135OSM   H10S14671   3.358   5.511   6.672 -1.5213  0.7126  0.0661
  135OSM   H10T14672   3.416   5.671   6.633 -0.2941 -0.1036  1.3392
  135OSM   C11S14673   3.464   5.515   6.484 -0.0515  0.7675 -0.2643
  135OSM   H11S14674   3.560   5.497   6.536 -0.6060 -1.1555  0.1543
  135OSM   H11T14675   3.484   5.593   6.407  0.1483 -1.0883 -2.1659
  135OSM   C12S14676   3.412   5.382   6.427 -1.0289  0.4600 -0.1648
  135OSM   H12S14677   3.311   5.406   6.387 -0.6493  1.7951 -0.3716
  135OSM   H12T14678   3.411   5.306   6.508  0.7128  0.8216  0.2273
  135OSM   C13S14679   3.502   5.337   6.316  0.0425 -0.1504  0.1768
  135OSM   H13S14680   3.604   5.310   6.350 -0.7713 -1.8651  1.4422
  135OSM   H13T14681   3.506   5.426   6.250 -1.0690  0.3717  0.7986
  135OSM   C14S14682   3.441   5.218   6.238  0.0844  0.3329 -0.3071
  135OSM   H14S14683   3.353   5.262   6.187  0.6927 -0.8885 -2.5440
  135OSM   H14T14684   3.404   5.139   6.307  2.9680 -1.0682 -0.2039
  135OSM   C15S14685   3.520   5.141   6.133 -0.6211 -0.2425 -0.1081
  135OSM   H15S14686   3.517   5.211   6.046  0.2365  2.4146  1.8699
  135OSM   H15T14687   3.464   5.048   6.108 -2.7838 -0.0664  3.4631
  135OSM   C16S14688   3.665   5.100   6.171  1.2149  0.5365 -0.1579
  135OSM   H16S14689   3.663   5.064   6.276  0.8453 -0.1816 -0.4007
  135OSM   H16T14690   3.729   5.190   6.164 -0.0074  1.4755  0.3509
  135OSM   C17S14691   3.709   4.990   6.078 -0.5351 -0.4345  0.3288
  135OSM   H17S14692   3.642   4.903   6.097 -2.4440 -0.7703 -5.7643
  135OSM   H17T14693   3.814   4.955   6.090  0.0145 -0.7315 -3.9745
  135OSM   C18S14694   3.692   5.021   5.931 -0.3824  0.1657  1.0192
  135OSM   H18S14695   3.756   5.108   5.904 -0.4819  0.4516  1.6803
  135OSM   H18T14696   3.588   5.051   5.905  0.3353  1.6751 -0.3251
  135OSM   H18U14697   3.722   4.932   5.872  1.7709  1.4618  0.0142
  135OSM    C1F14698   2.705   5.225   7.151 -0.3618 -0.5348 -0.4542
  135OSM     OF14699   2.624   5.292   7.208  0.0094 -0.1285  0.3454
  135OSM    C2F14700   2.666   5.095   7.084  0.4552  0.1217 -0.0284
  135OSM    H2F14701   2.563   5.115   7.048  0.4456  0.7796  0.3421
  135OSM    H2G14702   2.655   5.023   7.168 -0.0414 -0.1212 -0.2980
  135OSM    C3F14703   2.762   5.041   6.984  0.5383  1.0786 -0.4019
  135OSM    H3F14704   2.719   4.943   6.953 -0.9249  2.0259 -1.4331
  135OSM    H3G14705   2.864   5.021   7.023  0.0496 -2.7096 -0.6818
  135OSM    C4F14706   2.780   5.126   6.862  0.1940  0.6239  0.7787
  135OSM    H4F14707   2.685   5.133   6.803 -0.5962  0.1900  1.9632
  135OSM    H4G14708   2.814   5.227   6.896  1.9339  0.9617 -1.6982
  135OSM    C5F14709   2.890   5.073   6.768 -0.9906 -0.3020 -0.7784
  135OSM    H5F14710   2.867   4.969   6.735 -0.7054 -0.1381 -1.5168
  135OSM    H5G14711   2.986   5.065   6.824 -0.8302 -3.7215 -1.3015
  135OSM    C6F14712   2.924   5.178   6.653  0.6232 -0.2245 -0.6697
  135OSM    H6F14713   2.948   5.272   6.707  2.0878 -0.5966 -0.6254
  135OSM    H6G14714   2.833   5.190   6.590  0.5975 -1.4314 -0.8931
  135OSM    C7F14715   3.030   5.124   6.558 -0.4339  0.2994 -0.3018
  135OSM    H7F14716   3.094   5.058   6.622 -1.2105 -0.6214 -0.4478
  135OSM    H7G14717   3.101   5.204   6.530  0.7177 -0.5717  0.0002
  135OSM    C8F14718   2.978   5.051   6.432  0.6546  0.6262  0.0770
  135OSM    H8F14719   2.925   4.958   6.465 -2.7647  2.0083 -1.1001
  135OSM    H8G14720   3.067   5.011   6.380  0.1815  1.8475 -1.7547
  135OSM    C9F14721   2.896   5.126   6.330  0.2355 -0.1188  0.1839
  135OSM    H9F14722   2.794   5.085   6.325  0.4586 -0.6249 -0.2567
  135OSM   C10F14723   2.935   5.228   6.248 -0.2914 -0.0018  0.0394
  135OSM   H10F14724   2.861   5.276   6.183  1.8020  1.1471 -1.6318
  135OSM   C11F14725   3.070   5.291   6.224 -0.6083 -0.5852 -0.0902
  135OSM   H11F14726   3.118   5.252   6.132  0.3852 -0.1771  0.2427
  135OSM   H11G14727   3.123   5.259   6.317 -1.2307  2.1133  1.3120
  135OSM   C12F14728   3.069   5.442   6.233  0.2756 -0.5484 -0.8038
  135OSM   H12F14729   3.169   5.473   6.270 -0.5741 -1.0916  2.2139
  135OSM   H12G14730   3.005   5.487   6.312  0.2949 -0.7816 -0.6519
  135OSM   C13F14731   3.047   5.527   6.113  0.1330  0.1057 -0.2251
  135OSM   H13F14732   3.023   5.633   6.135  0.8187 -0.5966  5.2399
  135OSM   H13G14733   2.955   5.495   6.060 -0.4165  1.6679 -0.2489
  135OSM   C14F14734   3.163   5.525   6.013 -0.1090  0.1991 -0.5921
  135OSM   H14F14735   3.136   5.587   5.925 -2.3507  1.2682  0.7403
  135OSM   H14G14736   3.165   5.422   5.971 -2.0711  0.4440 -1.3855
  135OSM   C15F14737   3.299   5.566   6.059  0.3813  0.0730 -0.2381
  135OSM   H15F14738   3.376   5.563   5.979 -1.5212  0.9453 -2.1855
  135OSM   H15G14739   3.336   5.492   6.133  0.4912 -0.0356 -0.4024
  135OSM   C16F14740   3.302   5.700   6.129  0.4127 -0.3829  0.0011
  135OSM   H16F14741   3.244   5.687   6.223 -2.3891  1.0387 -1.4222
  135OSM   H16G14742   3.249   5.780   6.073 -1.2153 -1.2313  0.2644
  135OSM   C17F14743   3.448   5.737   6.159 -0.1109 -0.1351 -0.1152
  135OSM   H17F14744   3.495   5.641   6.190 -1.7177 -1.8658 -2.6000
  135OSM   H17G14745   3.449   5.810   6.242  1.5862 -1.7879  1.4082
  135OSM   C18F14746   3.532   5.794   6.047 -0.1992 -0.0919  0.3088
  135OSM   H18F14747   3.498   5.899   6.030  2.0303  0.9804  2.0682
  135OSM   H18G14748   3.508   5.734   5.956 -2.2054  1.7014 -0.4475
  135OSM   H18H14749   3.641   5.794   6.066 -0.4639  0.3232  2.0120
  136OSM      N14750   2.239   6.684   7.610 -0.3116  1.2218 -0.0813
  136OSM    C1514751   2.269   6.740   7.470 -0.4395  0.4986  0.1904
  136OSM   H15A14752   2.246   6.843   7.450 -0.8518 -0.0715 -2.5847
  136OSM   H15B14753   2.221   6.684   7.391 -1.7599  1.4570  0.2803
  136OSM   H15C14754   2.372   6.718   7.444 -0.6350 -0.0254 -0.1505
  136OSM    C1414755   2.277   6.783   7.710 -0.6375 -0.4136 -0.4318
  136OSM   H14A14756   2.267   6.884   7.672 -0.6001 -0.1090  0.3452
  136OSM   H14B14757   2.382   6.782   7.732 -0.6619 -0.3053 -0.3103
  136OSM   H14C14758   2.221   6.775   7.802  1.7919 -0.8953  1.0812
  136OSM    C1314759   2.095   6.656   7.631 -0.3521  0.4440 -0.0513
  136OSM   H13A14760   2.060   6.585   7.557  2.3299 -0.7239 -0.3152
  136OSM   H13B14761   2.031   6.741   7.643 -0.7221 -0.0559  2.0908
  136OSM   H13C14762   2.091   6.599   7.723  1.9027 -0.2164 -0.3037
  136OSM    C1214763   2.318   6.554   7.616 -0.6376 -0.0988  0.0412
  136OSM   H12A14764   2.424   6.553   7.599 -0.4607  0.9685  0.9864
  136OSM   H12B14765   2.271   6.494   7.539 -2.0067 -0.4191  1.0817
  136OSM    C1114766   2.309   6.482   7.756 -0.2968  0.2913 -0.1606
  136OSM   H11A14767   2.319   6.556   7.837  0.8754 -0.3422  0.2938
  136OSM   H11B14768   2.386   6.405   7.779 -1.3860 -1.1585 -1.1219
  136OSM      P14769   2.151   6.275   7.710  0.3870  0.2615  0.1922
  136OSM    O1314770   2.251   6.171   7.743 -0.0138  0.0468  0.4894
  136OSM    O1414771   2.013   6.236   7.749 -0.4783 -0.6521  0.6024
  136OSM    O1114772   2.143   6.295   7.555 -0.5065  0.4748  0.3989
  136OSM    O1214773   2.187   6.411   7.783  0.3439 -0.0228 -0.0039
  136OSM    C1S14774   2.197   6.188   7.467 -0.2734  0.4087 -0.0677
  136OSM    H1S14775   2.149   6.093   7.498  1.3617  0.2945  2.4184
  136OSM    H1T14776   2.306   6.169   7.474 -0.4036 -0.1845  0.4306
  136OSM     NF14777   2.173   6.091   7.237  0.4112  0.0535  0.1794
  136OSM    HNF14778   2.260   6.075   7.192  1.0030  3.8411 -0.3809
  136OSM    C2S14779   2.147   6.211   7.317 -1.1637 -0.3670 -0.0388
  136OSM    H2S14780   2.038   6.230   7.311 -0.9345  0.7976 -0.6397
  136OSM    C3S14781   2.211   6.344   7.251 -0.0935  0.2664  0.6820
  136OSM    H3S14782   2.320   6.322   7.248 -0.5778 -2.3306 -0.5487
  136OSM     O314783   2.213   6.458   7.332 -0.1619  0.0930 -0.0810
  136OSM    HO314784   2.176   6.434   7.417 -1.4668  1.5992 -0.1700
  136OSM    C4S14785   2.166   6.374   7.108  0.1748  0.6806  0.6632
  136OSM    H4S14786   2.203   6.297   7.039 -2.1271  0.0950 -0.0062
  136OSM    C5S14787   2.069   6.465   7.069  0.1091  0.5207  0.0026
  136OSM    H5S14788   2.011   6.517   7.146  0.1100 -1.8063  1.6641
  136OSM    C6S14789   2.022   6.492   6.928  0.1915 -0.3949  0.4781
  136OSM    H6S14790   1.936   6.562   6.931  0.1723 -0.4241  0.5837
  136OSM    H6T14791   1.993   6.395   6.882  1.4001 -1.3538  1.6632
  136OSM    C7S14792   2.141   6.551   6.839  0.3028 -0.3317 -0.2383
  136OSM    H7S14793   2.217   6.476   6.808  2.0324  2.1743 -2.5387
  136OSM    H7T14794   2.190   6.636   6.892  3.4699 -0.9934 -1.8478
  136OSM    C8S14795   2.098   6.585   6.698  0.0539 -0.1582  0.2781
  136OSM    H8S14796   2.172   6.653   6.652 -2.4317  1.4076 -1.6611
  136OSM    H8T14797   2.008   6.649   6.705 -0.2616 -0.7184  1.8598
  136OSM    C9S14798   2.074   6.472   6.597 -0.6492  0.4838 -0.6525
  136OSM    H9S14799   1.978   6.425   6.630 -0.3796  0.3055 -0.1130
  136OSM    H9T14800   2.152   6.395   6.615 -1.5546  0.0401  1.8907
  136OSM   C10S14801   2.062   6.509   6.457  0.1989 -0.2323  0.0876
  136OSM   H10S14802   1.967   6.564   6.442  0.7432  1.0430  1.1345
  136OSM   H10T14803   2.056   6.420   6.391  1.3902  0.2298 -0.6760
  136OSM   C11S14804   2.175   6.596   6.389 -0.4435  0.0256  0.5332
  136OSM   H11S14805   2.271   6.555   6.425  0.6653  0.2134 -1.9660
  136OSM   H11T14806   2.168   6.701   6.424  2.2856  0.0376  1.2442
  136OSM   C12S14807   2.179   6.585   6.232  0.2467  0.0213 -0.1890
  136OSM   H12S14808   2.169   6.478   6.206 -1.6165 -0.7224  3.0177
  136OSM   H12T14809   2.267   6.631   6.182 -0.5097  0.1462 -1.4372
  136OSM   C13S14810   2.050   6.645   6.170  0.5816  0.3236 -0.5978
  136OSM   H13S14811   2.038   6.753   6.190  1.1261  0.6790 -2.0488
  136OSM   H13T14812   1.969   6.588   6.220  1.3599 -0.4112 -0.1577
  136OSM   C14S14813   2.032   6.611   6.024  0.4037  0.5247 -0.1331
  136OSM   H14S14814   2.000   6.507   6.006  2.6844 -0.3892  0.7753
  136OSM   H14T14815   2.134   6.610   5.979 -0.8698  2.3184 -3.4083
  136OSM   C15S14816   1.942   6.706   5.943  0.1640  0.2965  0.5646
  136OSM   H15S14817   1.994   6.805   5.945  0.1494  0.3157  0.0182
  136OSM   H15T14818   1.839   6.709   5.984  0.4027 -1.2048  1.3206
  136OSM   C16S14819   1.935   6.662   5.793  0.9463 -0.0014 -0.6874
  136OSM   H16S14820   1.868   6.574   5.789 -0.9787  1.2256  2.2125
  136OSM   H16T14821   2.032   6.634   5.745  1.6148 -1.9178  1.6163
  136OSM   C17S14822   1.857   6.761   5.714 -0.0981 -0.4621  0.6097
  136OSM   H17S14823   1.910   6.858   5.715 -0.2500 -0.3718  0.1659
  136OSM   H17T14824   1.766   6.781   5.775 -0.0284 -1.4700  1.0633
  136OSM   C18S14825   1.827   6.734   5.565 -0.2714 -0.2300  0.1056
  136OSM   H18S14826   1.812   6.624   5.560 -2.7366  0.0649 -0.5891
  136OSM   H18T14827   1.914   6.759   5.502 -0.2118  2.3599  1.1089
  136OSM   H18U14828   1.735   6.789   5.537 -0.0232  0.5185  0.7465
  136OSM    C1F14829   2.092   5.983   7.251 -0.2700 -0.8571  0.4747
  136OSM     OF14830   1.986   5.985   7.314 -0.7580 -0.4341 -0.2000
  136OSM    C2F14831   2.122   5.855   7.188 -0.2059 -0.5941  0.2030
  136OSM    H2F14832   2.086   5.767   7.246 -0.1591 -0.6750  0.1105
  136OSM    H2G14833   2.231   5.852   7.170 -0.4496  0.3194 -1.5710
  136OSM    C3F14834   2.042   5.852   7.055  0.8070  0.5933 -0.3370
  136OSM    H3F14835   1.936   5.875   7.080  1.1882  0.6879  1.2676
  136OSM    H3G14836   2.040   5.746   7.022  0.6129  1.2350 -2.5724
  136OSM    C4F14837   2.093   5.934   6.938 -0.2614  0.8082 -0.0306
  136OSM    H4F14838   2.172   6.002   6.976  0.1309  0.5739 -0.4125
  136OSM    H4G14839   2.011   6.003   6.911 -1.8647 -0.9044  0.2751
  136OSM    C5F14840   2.137   5.855   6.815  0.1196  0.2789  0.1727
  136OSM    H5F14841   2.070   5.767   6.801  0.9989 -0.6511  1.6340
  136OSM    H5G14842   2.237   5.816   6.840 -0.1179  1.4975  3.4483
  136OSM    C6F14843   2.153   5.934   6.683 -0.1801 -0.7855  0.0382
  136OSM    H6F14844   2.224   6.019   6.695 -0.6669 -0.2449 -0.7530
  136OSM    H6G14845   2.054   5.961   6.639  0.2889 -1.3145 -1.3917
  136OSM    C7F14846   2.214   5.846   6.570  0.1604 -0.6685  1.1170
  136OSM    H7F14847   2.142   5.770   6.533  1.3995 -1.7299  0.8064
  136OSM    H7G14848   2.310   5.794   6.592  1.6175  1.8990  1.1502
  136OSM    C8F14849   2.247   5.936   6.444 -0.1763  0.2613  0.0707
  136OSM    H8F14850   2.287   5.856   6.377 -0.5316 -1.7915  2.1891
  136OSM    H8G14851   2.329   6.010   6.459  0.1810  0.1853 -1.3603
  136OSM    C9F14852   2.130   6.008   6.374 -0.1412 -0.3652  0.0081
  136OSM    H9F14853   2.082   6.074   6.447  0.4447 -0.8014  0.8036
  136OSM   C10F14854   2.081   5.987   6.249  0.2207 -0.7781 -1.2048
  136OSM   H10F14855   2.001   6.057   6.219  0.3897 -0.1770 -0.3006
  136OSM   C11F14856   2.125   5.889   6.146 -1.1715  0.1585 -0.1545
  136OSM   H11F14857   2.037   5.854   6.087 -0.0010 -3.6053  0.0857
  136OSM   H11G14858   2.181   5.804   6.188 -2.4256  0.1215  1.5373
  136OSM   C12F14859   2.225   5.949   6.050  0.5680 -0.1011 -0.3981
  136OSM   H12F14860   2.317   5.986   6.100  1.3015  0.2150 -1.9321
  136OSM   H12G14861   2.174   6.039   6.010  2.6695  1.3631  0.0464
  136OSM   C13F14862   2.280   5.868   5.934 -0.4083  0.2503 -0.4130
  136OSM   H13F14863   2.311   5.770   5.976  0.2080 -0.1037 -1.6322
  136OSM   H13G14864   2.368   5.915   5.886 -0.0874 -0.9790 -1.0650
  136OSM   C14F14865   2.179   5.855   5.821 -0.0651  0.0206 -0.0057
  136OSM   H14F14866   2.145   5.958   5.800 -0.4732  0.4047  2.2720
  136OSM   H14G14867   2.102   5.785   5.859  0.0306 -0.6170 -0.9212
  136OSM   C15F14868   2.247   5.793   5.698 -0.4505  0.0971 -0.3448
  136OSM   H15F14869   2.274   5.688   5.724  1.2570  1.0290  2.0173
  136OSM   H15G14870   2.341   5.846   5.669 -0.7450 -0.7567 -3.2560
  136OSM   C16F14871   2.171   5.782   5.566 -0.0003 -0.2577 -0.1934
  136OSM   H16F14872   2.106   5.692   5.568 -0.4696 -0.0038 -1.8573
  136OSM   H16G14873   2.241   5.768   5.481  1.9114  0.3334  1.2153
  136OSM   C17F14874   2.076   5.902   5.538  0.4628 -0.1359 -0.0055
  136OSM   H17F14875   2.123   5.997   5.569 -0.4521 -0.7645  3.8739
  136OSM   H17G14876   1.984   5.902   5.601 -0.8202  1.0616 -1.7845
  136OSM   C18F14877   2.020   5.911   5.390 -0.5393 -0.2842  0.3716
  136OSM   H18F14878   1.971   5.813   5.373  0.2328 -1.1965  2.9789
  136OSM   H18G14879   2.100   5.929   5.315 -0.5463  0.3124  0.5054
  136OSM   H18H14880   1.948   5.994   5.374 -0.0936 -0.3195 -2.3323
  137OSM      N14881   3.513   0.363   7.423  0.1664 -0.5649 -0.2509
  137OSM    C1514882   3.539   0.331   7.567  0.4092 -0.7093 -0.2605
  137OSM   H15A14883   3.638   0.356   7.602  0.0163 -1.5932  1.5815
  137OSM   H15B14884   3.529   0.226   7.587 -0.9893 -0.9272 -1.9401
  137OSM   H15C14885   3.467   0.387   7.624  1.5818 -1.2213  1.8207
  137OSM    C1414886   3.548   0.507   7.387 -0.0186  1.4257  0.2256
  137OSM   H14A14887   3.568   0.499   7.281  0.1212 -0.2419  0.3569
  137OSM   H14B14888   3.634   0.542   7.443 -0.2290  2.0107  0.1941
  137OSM   H14C14889   3.465   0.574   7.403  0.7026  1.8910  2.4565
  137OSM    C1314890   3.605   0.287   7.330 -0.0627  1.0362  0.0745
  137OSM   H13A14891   3.709   0.292   7.359 -0.2976  1.4865  0.8930
  137OSM   H13B14892   3.592   0.326   7.231 -0.5815 -0.0928 -0.3236
  137OSM   H13C14893   3.576   0.183   7.330  1.3676  0.5586  2.4583
  137OSM    C1214894   3.369   0.339   7.372  0.0526 -0.3838 -0.7856
  137OSM   H12A14895   3.344   0.234   7.370  0.8957 -0.7269  2.3428
  137OSM   H12B14896   3.362   0.369   7.268  0.4406  0.8516 -0.4738
  137OSM    C1114897   3.251   0.418   7.454 -0.2165  0.6848  0.3528
  137OSM   H11A14898   3.156   0.406   7.397  0.7457  1.0136 -1.3621
  137OSM   H11B14899   3.280   0.525   7.454 -1.1102  0.9599  1.8813
  137OSM      P14900   3.200   0.232   7.635 -0.1405 -0.4384 -0.3750
  137OSM    O1314901   3.302   0.199   7.728 -0.7427 -0.0811 -0.6025
  137OSM    O1414902   3.064   0.246   7.689 -0.2500  0.0198  0.2103
  137OSM    O1114903   3.199   0.133   7.507  0.4009  0.0376  0.1989
  137OSM    O1214904   3.235   0.377   7.589 -0.3644 -0.4625  0.4186
  137OSM    C1S14905   3.074   0.114   7.443 -0.2339  0.1867  0.1229
  137OSM    H1S14906   3.021   0.210   7.425 -0.8454 -0.0358  0.6661
  137OSM    H1T14907   3.013   0.060   7.520 -1.7492  2.8361  0.9344
  137OSM     NF14908   2.971   0.051   7.234 -0.0508 -0.2112  0.2965
  137OSM    HNF14909   2.882   0.009   7.246  0.0184 -0.0347  1.6148
  137OSM    C2S14910   3.085   0.027   7.320  0.1230  0.4043  0.1667
  137OSM    H2S14911   3.174   0.056   7.261  0.8729  1.3950  1.7220
  137OSM    C3S14912   3.097  -0.122   7.357  0.0466 -0.2409  0.0209
  137OSM    H3S14913   2.995  -0.142   7.395  0.1313  0.3976  0.6239
  137OSM     O314914   3.185  -0.153   7.465  0.1199 -0.1685  0.7088
  137OSM    HO314915   3.229  -0.068   7.472 -0.9099  0.2549  2.8461
  137OSM    C4S14916   3.126  -0.214   7.245  0.2738  0.1404  0.4603
  137OSM    H4S14917   3.201  -0.177   7.173 -1.5841  2.2006 -0.5426
  137OSM    C5S14918   3.042  -0.318   7.204 -0.6877  0.0700 -0.7069
  137OSM    H5S14919   2.956  -0.351   7.264 -0.4393 -0.3314 -0.5736
  137OSM    C6S14920   3.060  -0.381   7.070 -0.8015 -0.6749 -0.3345
  137OSM    H6S14921   2.962  -0.413   7.028 -0.0762 -0.5574 -2.1653
  137OSM    H6T14922   3.121  -0.473   7.083  1.1798  0.5988 -0.2363
  137OSM    C7S14923   3.122  -0.287   6.958 -0.4431  0.7191  0.1973
  137OSM    H7S14924   3.229  -0.268   6.981  0.0481 -1.6964  0.1230
  137OSM    H7T14925   3.070  -0.189   6.962  0.5188  1.2648 -0.2634
  137OSM    C8S14926   3.129  -0.351   6.821  0.4101  0.2897  0.0992
  137OSM    H8S14927   3.020  -0.364   6.806  0.1516  2.3318  0.0227
  137OSM    H8T14928   3.182  -0.449   6.832 -0.3793 -0.1715 -0.0933
  137OSM    C9S14929   3.183  -0.267   6.706  0.9123 -0.5252 -0.3063
  137OSM    H9S14930   3.293  -0.260   6.713  0.8969 -0.8141  0.3403
  137OSM    H9T14931   3.147  -0.162   6.714 -3.3581 -1.6220 -1.9752
  137OSM   C10S14932   3.139  -0.303   6.565  0.0008  0.1706 -0.0356
  137OSM   H10S14933   3.028  -0.311   6.568 -0.0524 -0.6322 -2.0578
  137OSM   H10T14934   3.175  -0.408   6.557  2.5797  0.9774  0.2891
  137OSM   C11S14935   3.188  -0.206   6.445  0.7577 -0.1635 -0.0349
  137OSM   H11S14936   3.297  -0.220   6.427  0.7879 -1.2228  0.8496
  137OSM   H11T14937   3.166  -0.104   6.482  0.1316 -1.3470  3.1995
  137OSM   C12S14938   3.108  -0.218   6.313  0.0344 -0.3718 -0.5904
  137OSM   H12S14939   3.000  -0.223   6.339  0.6516 -2.3831  2.0623
  137OSM   H12T14940   3.126  -0.318   6.269  1.9291 -0.8168  1.0474
  137OSM   C13S14941   3.137  -0.107   6.216 -0.3284  0.3134 -0.2206
  137OSM   H13S14942   3.242  -0.110   6.178 -0.4331 -0.0333 -0.4915
  137OSM   H13T14943   3.128  -0.007   6.262  1.9619  1.0439 -1.1797
  137OSM   C14S14944   3.050  -0.107   6.095  0.3087  0.0970  0.0229
  137OSM   H14S14945   3.099  -0.036   6.025 -1.3902  2.8800  1.4934
  137OSM   H14T14946   2.954  -0.061   6.127  0.1398 -0.2081 -0.0407
  137OSM   C15S14947   3.038  -0.240   6.011 -0.4648  0.4072 -0.0818
  137OSM   H15S14948   2.996  -0.322   6.073  1.0453  0.6709  1.3772
  137OSM   H15T14949   3.138  -0.270   5.974  0.2945 -0.6514  2.5864
  137OSM   C16S14950   2.946  -0.218   5.893  0.3261 -0.6212  0.5342
  137OSM   H16S14951   2.977  -0.134   5.828 -1.7268  0.1567  0.4879
  137OSM   H16T14952   2.848  -0.183   5.932 -0.2309  2.0976 -2.8263
  137OSM   C17S14953   2.934  -0.344   5.804  0.5140 -0.2126 -0.0173
  137OSM   H17S14954   2.901  -0.423   5.875 -1.6874 -1.0415 -1.8450
  137OSM   H17T14955   3.039  -0.367   5.775  0.8296 -0.2715  1.1241
  137OSM   C18S14956   2.844  -0.326   5.683  0.0934 -0.5234  0.4322
  137OSM   H18S14957   2.883  -0.399   5.609  1.1240 -1.7185  2.0842
  137OSM   H18T14958   2.858  -0.226   5.635  1.4304 -1.4967 -1.3200
  137OSM   H18U14959   2.741  -0.349   5.717 -1.7219  2.1400 -2.6646
  137OSM    C1F14960   2.972   0.163   7.159  0.7988  0.6383  0.5220
  137OSM     OF14961   3.068   0.237   7.153  0.3889  0.2233  0.1749
  137OSM    C2F14962   2.837   0.214   7.109  0.1339  0.0583 -0.0772
  137OSM    H2F14963   2.806   0.289   7.184 -1.8512 -3.9306  3.4760
  137OSM    H2G14964   2.752   0.145   7.128  0.1346  0.1490  0.2633
  137OSM    C3F14965   2.844   0.267   6.965  0.2150 -0.7063 -0.0485
  137OSM    H3F14966   2.911   0.356   6.963  0.3465 -0.7477  1.3181
  137OSM    H3G14967   2.745   0.306   6.931 -0.6420 -0.6466  2.2768
  137OSM    C4F14968   2.877   0.151   6.867 -0.4732 -0.2950 -0.3477
  137OSM    H4F14969   2.805   0.072   6.899 -0.5314  0.0070  0.2906
  137OSM    H4G14970   2.984   0.121   6.872 -0.3244 -0.3151 -2.6834
  137OSM    C5F14971   2.855   0.182   6.722 -0.3564  0.1750  0.2944
  137OSM    H5F14972   2.906   0.281   6.714  1.4438 -0.3175  3.6811
  137OSM    H5G14973   2.747   0.207   6.721 -0.5181 -0.5318 -0.3891
  137OSM    C6F14974   2.894   0.078   6.618  0.2061  0.0070 -0.7499
  137OSM    H6F14975   2.836  -0.013   6.646  0.4120  0.2306  0.4745
  137OSM    H6G14976   2.999   0.044   6.631 -0.8934 -3.6266 -0.0227
  137OSM    C7F14977   2.855   0.116   6.473 -0.1429 -0.3704  0.0372
  137OSM    H7F14978   2.744   0.107   6.479 -0.2559  1.0506  0.5821
  137OSM    H7G14979   2.891   0.043   6.398  0.6660 -0.4800  0.5211
  137OSM    C8F14980   2.914   0.250   6.426 -0.0088  0.0052  0.6054
  137OSM    H8F14981   2.874   0.337   6.481 -0.5974  1.6018 -2.1622
  137OSM    H8G14982   2.874   0.263   6.323  0.3829 -2.6981  0.0202
  137OSM    C9F14983   3.064   0.265   6.426  0.2043  1.0842  0.3810
  137OSM    H9F14984   3.108   0.246   6.525  0.5024  1.4346  0.3187
  137OSM   C10F14985   3.138   0.319   6.330  0.2838 -0.5738 -0.4960
  137OSM   H10F14986   3.247   0.315   6.343  0.1948  0.4812  0.8193
  137OSM   C11F14987   3.087   0.362   6.193 -0.7417 -0.2571 -0.3609
  137OSM   H11F14988   3.154   0.441   6.153 -2.3870  0.5033 -1.7558
  137OSM   H11G14989   2.987   0.410   6.192  0.3198  2.1124  0.6817
  137OSM   C12F14990   3.088   0.253   6.089  0.2687 -0.4663 -0.0108
  137OSM   H12F14991   3.016   0.276   6.007 -0.5705  0.3556  0.9249
  137OSM   H12G14992   3.053   0.160   6.139  0.8727  1.0861  3.6164
  137OSM   C13F14993   3.227   0.233   6.029 -0.2475  0.3621  0.3128
  137OSM   H13F14994   3.299   0.177   6.093  3.4797  1.0915 -2.8814
  137OSM   H13G14995   3.272   0.332   6.006  1.5226 -0.5195 -0.1745
  137OSM   C14F14996   3.225   0.167   5.881 -0.8208 -0.7757 -0.2780
  137OSM   H14F14997   3.204   0.249   5.809  1.0111  0.5936  0.6556
  137OSM   H14G14998   3.143   0.093   5.892  0.8023 -2.6366 -0.0562
  137OSM   C15F14999   3.356   0.100   5.850 -0.1169  0.3120  0.0253
  137OSM   H15F15000   3.359   0.018   5.925 -0.3190 -0.0959 -0.4025
  137OSM   H15G15001   3.441   0.170   5.865 -2.8036  4.2858 -1.5466
  137OSM   C16F15002   3.367   0.036   5.706  0.6276  0.4446 -0.4497
  137OSM   H16F15003   3.359   0.122   5.637  3.0424  0.6537 -0.5660
  137OSM   H16G15004   3.285  -0.038   5.693 -1.8316  2.7207  1.2071
  137OSM   C17F15005   3.506  -0.029   5.682 -0.2096 -1.1384  0.0271
  137OSM   H17F15006   3.550  -0.090   5.763  0.0878 -0.0392  0.7181
  137OSM   H17G15007   3.584   0.050   5.676 -0.2152 -0.8830  2.4915
  137OSM   C18F15008   3.496  -0.107   5.556 -0.2892  0.0303 -0.3298
  137OSM   H18F15009   3.600  -0.129   5.524 -0.2179  1.9638 -1.5762
  137OSM   H18G15010   3.438  -0.046   5.483 -1.6402  0.0624  0.7217
  137OSM   H18H15011   3.434  -0.197   5.576 -0.7636  0.8149  2.0131
  138OSM      N15012   1.494   2.636   7.617 -0.9913  0.2328  0.2324
  138OSM    C1515013   1.643   2.677   7.629 -0.1320 -0.7335  0.2196
  138OSM   H15A15014   1.698   2.643   7.715  0.3133 -0.2020  0.1464
  138OSM   H15B15015   1.636   2.784   7.638  0.4140 -0.7404  0.7622
  138OSM   H15C15016   1.704   2.672   7.540  0.2943  0.4828  0.4330
  138OSM    C1415017   1.456   2.687   7.484 -0.5024 -0.0309  0.3143
  138OSM   H14A15018   1.364   2.645   7.444 -0.5867 -1.6219  2.0484
  138OSM   H14B15019   1.533   2.663   7.412 -0.8667  0.4870 -0.2613
  138OSM   H14C15020   1.452   2.795   7.485 -0.2162 -0.0234  1.2439
  138OSM    C1315021   1.484   2.491   7.605 -0.2270  0.1363  0.0715
  138OSM   H13A15022   1.565   2.447   7.549 -1.5159 -1.2632 -0.7612
  138OSM   H13B15023   1.400   2.450   7.552 -0.1312 -2.9983  2.0250
  138OSM   H13C15024   1.489   2.453   7.706 -0.5456 -1.6975 -0.5700
  138OSM    C1215025   1.411   2.702   7.723 -0.3166 -0.1646  0.1307
  138OSM   H12A15026   1.441   2.658   7.817  3.0217  1.7567  0.1288
  138OSM   H12B15027   1.310   2.676   7.698  0.0961 -1.2788 -0.4227
  138OSM    C1115028   1.428   2.853   7.737  0.5266 -0.0222 -0.5994
  138OSM   H11A15029   1.535   2.880   7.751  0.1244  0.7830  1.3163
  138OSM   H11B15030   1.380   2.885   7.832  0.0850 -1.1240 -0.4452
  138OSM      P15031   1.371   3.081   7.624  0.0253 -0.2738  0.3708
  138OSM    O1315032   1.308   3.131   7.749 -0.1476 -0.2699  0.2191
  138OSM    O1415033   1.495   3.147   7.578 -0.2412  0.8795 -0.3134
  138OSM    O1115034   1.276   3.103   7.504  0.6780 -0.1470 -0.1896
  138OSM    O1215035   1.382   2.925   7.619  0.1413 -0.1889 -0.2858
  138OSM    C1S15036   1.258   2.997   7.414  0.1557  0.1192 -0.5783
  138OSM    H1S15037   1.216   2.906   7.462  3.4371 -1.0158  0.4068
  138OSM    H1T15038   1.352   2.963   7.367  0.3593  0.6157 -0.5357
  138OSM     NF15039   1.117   2.933   7.224  0.2683  0.7465  0.2348
  138OSM    HNF15040   1.164   2.918   7.138  1.1567 -2.0044  1.1213
  138OSM    C2S15041   1.171   3.048   7.295  0.3631  0.7624  0.1989
  138OSM    H2S15042   1.090   3.097   7.354  1.3677  0.1869  2.1463
  138OSM    C3S15043   1.233   3.153   7.210 -0.2158  0.2217  0.2746
  138OSM    H3S15044   1.307   3.092   7.155  0.5484  0.8692  0.5607
  138OSM     O315045   1.307   3.258   7.273 -0.8301 -0.5201 -0.2755
  138OSM    HO315046   1.346   3.220   7.353 -0.8248  0.9257  0.4402
  138OSM    C4S15047   1.131   3.215   7.111 -0.1364  0.7852  0.2947
  138OSM    H4S15048   1.151   3.193   7.006  2.9433 -2.8387  1.4164
  138OSM    C5S15049   1.033   3.307   7.142 -0.6072  0.3814 -0.3145
  138OSM    H5S15050   1.023   3.342   7.246 -1.4899 -1.3963  0.2241
  138OSM    C6S15051   0.930   3.364   7.041 -0.4213  0.4213 -0.5002
  138OSM    H6S15052   0.891   3.456   7.089 -0.3641  0.2541 -0.1271
  138OSM    H6T15053   0.851   3.286   7.038 -0.7931  0.7042  1.0521
  138OSM    C7S15054   0.989   3.391   6.897  0.1416  0.5955 -0.4308
  138OSM    H7S15055   1.035   3.295   6.865 -1.7056 -0.4861  0.0112
  138OSM    H7T15056   1.064   3.472   6.908 -0.3504  1.0751 -0.5595
  138OSM    C8S15057   0.886   3.430   6.789  0.0003  0.1986 -0.0216
  138OSM    H8S15058   0.863   3.539   6.794 -3.0922 -0.3797  2.5224
  138OSM    H8T15059   0.795   3.375   6.823  0.7874 -0.7141  0.6483
  138OSM    C9S15060   0.924   3.380   6.651  0.2141 -1.1051 -0.5756
  138OSM    H9S15061   0.927   3.269   6.655 -0.0088 -1.0743  2.5297
  138OSM    H9T15062   1.018   3.421   6.609 -0.0231 -1.0790 -1.0868
  138OSM   C10S15063   0.818   3.429   6.554 -0.1788 -0.6664 -0.1656
  138OSM   H10S15064   0.829   3.539   6.548 -1.2476 -0.5593 -0.3086
  138OSM   H10T15065   0.724   3.407   6.608  0.3953 -0.1757  1.0723
  138OSM   C11S15066   0.821   3.345   6.425 -0.1205 -0.0794 -0.1110
  138OSM   H11S15067   0.830   3.236   6.449  3.6048 -0.1172 -1.0250
  138OSM   H11T15068   0.916   3.364   6.371 -0.7276 -0.3957 -1.3155
  138OSM   C12S15069   0.706   3.365   6.325 -0.6003  0.1060 -0.6257
  138OSM   H12S15070   0.720   3.463   6.276  2.5784  0.3715  0.6108
  138OSM   H12T15071   0.608   3.373   6.377 -0.6768  1.1934 -0.9198
  138OSM   C13S15072   0.708   3.251   6.227  0.6053  0.0579 -0.0482
  138OSM   H13S15073   0.689   3.154   6.278  1.0595  0.5161  1.0344
  138OSM   H13T15074   0.802   3.248   6.169  0.9983 -0.0030  0.5877
  138OSM   C14S15075   0.591   3.276   6.117 -0.1244 -0.3242  0.2606
  138OSM   H14S15076   0.601   3.379   6.077  1.8129  0.3812  2.2907
  138OSM   H14T15077   0.489   3.267   6.160 -0.2589 -1.7257 -0.3182
  138OSM   C15S15078   0.623   3.180   6.008 -0.0504  0.8147 -0.7484
  138OSM   H15S15079   0.603   3.076   6.042 -0.3843  0.2795 -2.5012
  138OSM   H15T15080   0.731   3.181   5.983  0.9354 -0.0017  2.8588
  138OSM   C16S15081   0.547   3.189   5.873 -1.0112 -0.6179 -0.2112
  138OSM   H16S15082   0.559   3.296   5.844 -1.6199 -0.4797  0.0330
  138OSM   H16T15083   0.438   3.179   5.889 -1.1486 -1.7263 -1.6426
  138OSM   C17S15084   0.585   3.091   5.757 -0.2325  0.6175 -0.3776
  138OSM   H17S15085   0.507   3.105   5.679 -3.3818  0.1124  2.4416
  138OSM   H17T15086   0.590   2.984   5.787 -1.4878  0.3406 -1.0876
  138OSM   C18S15087   0.719   3.135   5.693 -0.0983  0.6042  0.0221
  138OSM   H18S15088   0.717   3.238   5.653 -1.8480  0.7890  0.5117
  138OSM   H18T15089   0.743   3.067   5.608  0.9331 -0.5164  1.1668
  138OSM   H18U15090   0.809   3.128   5.758  0.1162 -0.7353 -0.3719
  138OSM    C1F15091   1.026   2.847   7.279 -1.3055 -0.7453  0.2557
  138OSM     OF15092   0.991   2.867   7.391 -0.1902  0.4743  0.4551
  138OSM    C2F15093   0.996   2.718   7.214 -0.7957 -0.1219 -0.1927
  138OSM    H2F15094   0.979   2.648   7.298 -2.4874  0.3495 -0.1086
  138OSM    H2G15095   1.082   2.694   7.148 -1.1786 -0.8405 -0.4316
  138OSM    C3F15096   0.857   2.746   7.140 -0.1102 -0.3723 -0.3456
  138OSM    H3F15097   0.846   2.848   7.098 -0.4670  0.8282  2.5014
  138OSM    H3G15098   0.772   2.741   7.211  0.5368  0.8943  0.5542
  138OSM    C4F15099   0.829   2.656   7.014  0.0636  0.2325  0.4002
  138OSM    H4F15100   0.792   2.560   7.058  2.8048 -2.1629 -2.0385
  138OSM    H4G15101   0.921   2.617   6.965 -1.2230  0.4245 -2.3088
  138OSM    C5F15102   0.730   2.711   6.909 -0.6360 -0.2097 -0.5415
  138OSM    H5F15103   0.761   2.793   6.840 -0.0350 -1.0512 -1.2969
  138OSM    H5G15104   0.640   2.746   6.963  0.5874  0.8467  0.8852
  138OSM    C6F15105   0.689   2.598   6.806  0.8329 -0.4211  0.1454
  138OSM    H6F15106   0.636   2.516   6.858 -1.8512  0.8926 -0.3636
  138OSM    H6G15107   0.780   2.559   6.756  0.6982 -0.2378 -0.2520
  138OSM    C7F15108   0.605   2.655   6.690  0.0236 -0.3525 -0.6355
  138OSM    H7F15109   0.669   2.737   6.649  1.2298 -1.6420 -1.4049
  138OSM    H7G15110   0.511   2.700   6.729 -0.8290 -1.2874 -1.5662
  138OSM    C8F15111   0.559   2.557   6.577  0.1657  0.4569  0.0584
  138OSM    H8F15112   0.466   2.585   6.523 -0.7536 -1.4270  0.5879
  138OSM    H8G15113   0.519   2.470   6.633 -2.8861  1.4207 -0.4829
  138OSM    C9F15114   0.667   2.543   6.469  0.5847 -0.0234 -0.3724
  138OSM    H9F15115   0.697   2.643   6.436 -0.5701 -0.3218 -2.5488
  138OSM   C10F15116   0.710   2.429   6.415 -0.6289 -0.1971 -0.5926
  138OSM   H10F15117   0.776   2.429   6.327 -1.0362 -1.5257 -0.9190
  138OSM   C11F15118   0.668   2.292   6.457 -0.3204  0.8283 -0.2273
  138OSM   H11F15119   0.619   2.284   6.556 -1.6349  0.5575 -0.8798
  138OSM   H11G15120   0.760   2.229   6.462 -1.3421 -0.6532  0.6590
  138OSM   C12F15121   0.574   2.197   6.371 -0.1154  0.2903  0.7250
  138OSM   H12F15122   0.469   2.219   6.397 -0.7786  0.2669 -1.6844
  138OSM   H12G15123   0.594   2.091   6.398  2.6590  0.4465 -0.3839
  138OSM   C13F15124   0.606   2.199   6.223 -0.3779 -0.1557  0.4350
  138OSM   H13F15125   0.713   2.230   6.232 -0.2038 -1.1315  2.1843
  138OSM   H13G15126   0.552   2.280   6.170  0.7783  0.1784 -0.2688
  138OSM   C14F15127   0.590   2.072   6.142  0.4794  0.4378  0.5996
  138OSM   H14F15128   0.482   2.051   6.132  0.8362 -1.5271  0.3179
  138OSM   H14G15129   0.620   1.974   6.186 -0.0318  0.2818  0.6018
  138OSM   C15F15130   0.660   2.061   6.008  0.0179 -0.1915  0.3338
  138OSM   H15F15131   0.593   2.008   5.938  0.4590 -3.2073  2.0354
  138OSM   H15G15132   0.752   2.002   6.025 -1.0215 -1.7940  0.6538
  138OSM   C16F15133   0.697   2.198   5.949 -0.6007  0.3777 -0.3681
  138OSM   H16F15134   0.753   2.268   6.015 -2.5037  2.4366 -0.8115
  138OSM   H16G15135   0.607   2.262   5.938  0.2265  1.5588 -0.5104
  138OSM   C17F15136   0.753   2.183   5.805  0.5677 -0.3198 -0.3870
  138OSM   H17F15137   0.663   2.163   5.744 -1.3442 -0.1287  2.2158
  138OSM   H17G15138   0.819   2.095   5.786  1.6736  0.1537  1.0833
  138OSM   C18F15139   0.816   2.313   5.755  0.5836 -0.3301  0.3455
  138OSM   H18F15140   0.755   2.405   5.770  0.9014  0.0933 -0.8441
  138OSM   H18G15141   0.819   2.301   5.645 -2.4269  1.3238 -0.0148
  138OSM   H18H15142   0.920   2.333   5.790  0.5301 -0.4578  0.5829
  139OSM      N15143   3.913   0.722   8.065  0.1085  0.6028 -0.1207
  139OSM    C1515144   3.946   0.866   8.039  0.4863  0.7850 -0.1541
  139OSM   H15A15145   4.044   0.890   8.077  0.0333  2.1153  0.2162
  139OSM   H15B15146   3.882   0.937   8.089 -0.4679  1.3852 -2.1269
  139OSM   H15C15147   3.943   0.891   7.934 -0.7385 -1.0084 -0.5792
  139OSM    C1415148   3.945   0.689   8.210  0.2804 -0.5855 -0.3833
  139OSM   H14A15149   3.904   0.592   8.234  3.0537 -1.6818  0.3593
  139OSM   H14B15150   3.898   0.762   8.274 -3.2357 -0.6676 -2.6211
  139OSM   H14C15151   4.051   0.681   8.226 -0.0117 -2.3791  1.0511
  139OSM    C1315152   3.777   0.684   8.032  0.0840 -0.3090  0.2449
  139OSM   H13A15153   3.763   0.699   7.926  1.0414  2.1409  0.4204
  139OSM   H13B15154   3.702   0.745   8.080 -0.2177 -0.4714 -0.0170
  139OSM   H13C15155   3.762   0.578   8.050  3.6351 -0.8242  0.7614
  139OSM    C1215156   4.008   0.640   7.978 -0.1046  0.0850  0.4625
  139OSM   H12A15157   3.972   0.539   7.984  3.1319 -1.1807  0.8103
  139OSM   H12B15158   4.112   0.643   8.010 -1.2214 -0.9740  4.8648
  139OSM    C1115159   4.007   0.666   7.825 -0.5250  0.4865  0.0228
  139OSM   H11A15160   4.060   0.578   7.784 -2.9249 -2.0475  2.0060
  139OSM   H11B15161   4.067   0.756   7.799  0.0484  0.2531  0.5207
  139OSM      P15162   3.846   0.610   7.620  0.4559 -0.0080 -0.1208
  139OSM    O1315163   3.830   0.458   7.634 -0.4173 -0.2681 -0.3634
  139OSM    O1415164   3.736   0.683   7.560 -1.0832  0.1703  0.1571
  139OSM    O1115165   3.972   0.645   7.530  0.1603 -0.1767 -0.4141
  139OSM    O1215166   3.881   0.671   7.758 -1.0020  0.0718  0.6826
  139OSM    C1S15167   3.988   0.576   7.404  0.0744 -0.4991 -0.3009
  139OSM    H1S15168   3.888   0.572   7.357 -0.8632  0.3860  1.5119
  139OSM    H1T15169   4.011   0.467   7.416  0.9382 -0.5282 -1.9046
  139OSM     NF15170   4.106   0.558   7.195 -0.0777 -0.7452  0.4241
  139OSM    HNF15171   4.190   0.509   7.176  0.6889  0.4490  0.6326
  139OSM    C2S15172   4.107   0.631   7.320  0.4173 -0.1168 -0.2112
  139OSM    H2S15173   4.088   0.738   7.296  0.2097 -0.2981 -0.8689
  139OSM    C3S15174   4.231   0.613   7.405  0.1102  0.7731  0.6422
  139OSM    H3S15175   4.240   0.505   7.430 -0.7538  0.6844  0.6108
  139OSM     O315176   4.233   0.685   7.533 -0.0060  0.5823 -0.3033
  139OSM    HO315177   4.141   0.707   7.548  0.2688  1.7232 -0.2167
  139OSM    C4S15178   4.349   0.663   7.330 -0.6924 -0.1412  0.1697
  139OSM    H4S15179   4.349   0.772   7.314 -0.6559  0.0135  1.1642
  139OSM    C5S15180   4.455   0.595   7.279  0.0834  0.3305 -0.0310
  139OSM    H5S15181   4.466   0.489   7.305  2.5697  0.6198  0.2540
  139OSM    C6S15182   4.574   0.641   7.203 -0.4576 -0.9761  0.6375
  139OSM    H6S15183   4.634   0.552   7.175 -1.0847 -1.3259  0.4002
  139OSM    H6T15184   4.643   0.708   7.259  0.9832 -0.7658 -1.2666
  139OSM    C7S15185   4.526   0.713   7.076  0.2798  0.5436 -0.8520
  139OSM    H7S15186   4.446   0.785   7.104  0.3482  0.0107  0.7903
  139OSM    H7T15187   4.480   0.642   7.005  0.9382  0.5390 -1.2871
  139OSM    C8S15188   4.646   0.774   6.999 -0.4903  0.3160 -0.5582
  139OSM    H8S15189   4.703   0.691   6.951 -1.2667 -1.6207  1.7257
  139OSM    H8T15190   4.724   0.816   7.066  0.6317  0.4278 -1.8890
  139OSM    C9S15191   4.596   0.869   6.890 -0.3982  0.2067 -0.3692
  139OSM    H9S15192   4.542   0.954   6.937 -2.8879 -1.2682 -0.3756
  139OSM    H9T15193   4.520   0.827   6.821 -2.0731  0.2168  1.3948
  139OSM   C10S15194   4.709   0.930   6.799  0.5359  0.2907  0.1031
  139OSM   H10S15195   4.788   0.859   6.764  0.2477 -0.2624  0.5517
  139OSM   H10T15196   4.760   0.995   6.873 -0.0468  0.0165  0.7557
  139OSM   C11S15197   4.639   0.995   6.687  0.2937  0.5648  0.1243
  139OSM   H11S15198   4.700   1.079   6.647  0.6154  0.7154  0.9199
  139OSM   H11T15199   4.550   1.041   6.734 -0.1661 -0.7917  0.6520
  139OSM   C12S15200   4.610   0.898   6.565  0.1377  0.7456 -0.4170
  139OSM   H12S15201   4.564   0.805   6.603  1.7784 -0.4368 -1.2084
  139OSM   H12T15202   4.709   0.861   6.529  0.0341  1.6510 -1.7073
  139OSM   C13S15203   4.521   0.957   6.456 -0.2776  0.3213  0.1722
  139OSM   H13S15204   4.545   1.065   6.450  1.5514 -0.0762 -0.1573
  139OSM   H13T15205   4.418   0.937   6.492 -0.6903  1.5158 -0.2938
  139OSM   C14S15206   4.553   0.891   6.318  0.2958 -0.1444  0.3193
  139OSM   H14S15207   4.545   0.781   6.334 -0.7814  0.2486  2.8746
  139OSM   H14T15208   4.654   0.917   6.279  0.1740  1.0153  0.7271
  139OSM   C15S15209   4.449   0.932   6.212 -0.1582  0.3129 -0.0894
  139OSM   H15S15210   4.442   1.043   6.212  0.3316  0.3721  1.7275
  139OSM   H15T15211   4.352   0.883   6.235  1.5664 -2.7245  1.2639
  139OSM   C16S15212   4.501   0.885   6.069 -0.2183  0.7676  0.5353
  139OSM   H16S15213   4.522   0.779   6.094  1.3659  1.3355  1.7497
  139OSM   H16T15214   4.586   0.950   6.038 -0.1547  0.5984  0.3527
  139OSM   C17S15215   4.394   0.894   5.954 -0.3739  0.4906 -0.1930
  139OSM   H17S15216   4.303   0.835   5.980 -0.3829  0.4806 -0.2488
  139OSM   H17T15217   4.447   0.852   5.866  1.8610  3.4482 -0.4041
  139OSM   C18S15218   4.349   1.032   5.918 -0.5522 -0.0380 -0.1309
  139OSM   H18S15219   4.436   1.100   5.904 -0.1996 -0.4307  0.1026
  139OSM   H18T15220   4.293   1.076   6.004 -1.2575 -0.9417 -0.1085
  139OSM   H18U15221   4.285   1.036   5.828 -1.3181 -2.3275  0.2525
  139OSM    C1F15222   4.004   0.554   7.111  0.2209 -0.2087 -0.4660
  139OSM     OF15223   3.908   0.628   7.122  0.3916  0.5677  0.4484
  139OSM    C2F15224   4.011   0.455   7.001 -0.4674 -0.0301 -0.0313
  139OSM    H2F15225   4.064   0.365   7.040 -1.4185 -1.0074 -0.9185
  139OSM    H2G15226   4.069   0.503   6.919 -0.8062  0.9768  0.3003
  139OSM    C3F15227   3.879   0.415   6.936 -0.4558  0.9604 -0.7238
  139OSM    H3F15228   3.841   0.499   6.874 -1.6864 -0.2364 -1.6321
  139OSM    H3G15229   3.812   0.390   7.021  0.0334  2.8852  0.3017
  139OSM    C4F15230   3.896   0.287   6.846 -0.9042 -0.1806  0.7996
  139OSM    H4F15231   3.791   0.258   6.824 -1.1136  1.3828 -0.4095
  139OSM    H4G15232   3.941   0.208   6.911  0.6176 -1.4628 -1.6702
  139OSM    C5F15233   3.976   0.316   6.711  0.6715  0.3247 -0.2620
  139OSM    H5F15234   4.085   0.329   6.732  0.4222  0.5820  0.9930
  139OSM    H5G15235   3.956   0.423   6.690  3.9010  1.4355  1.6302
  139OSM    C6F15236   3.967   0.212   6.599 -0.2436 -0.3736 -0.6677
  139OSM    H6F15237   3.860   0.184   6.584  0.0740 -1.5777 -0.8143
  139OSM    H6G15238   4.020   0.121   6.634 -0.7783  0.5924  3.0333
  139OSM    C7F15239   4.034   0.269   6.473 -0.3259  0.5338  0.3758
  139OSM    H7F15240   4.141   0.296   6.484  0.3181 -0.9730 -1.6509
  139OSM    H7G15241   3.984   0.368   6.460 -2.4360 -0.3289  1.5127
  139OSM    C8F15242   4.033   0.176   6.351 -0.0666  0.1922  0.0871
  139OSM    H8F15243   4.077   0.231   6.264  1.8412 -0.8984  0.3154
  139OSM    H8G15244   3.927   0.158   6.320 -0.1699  1.0842 -0.1132
  139OSM    C9F15245   4.098   0.039   6.385 -0.2163  0.1224 -0.4425
  139OSM    H9F15246   4.048  -0.013   6.467 -0.0070 -0.1636 -0.4953
  139OSM   C10F15247   4.204  -0.009   6.327  0.0099 -0.2296  0.2008
  139OSM   H10F15248   4.245  -0.099   6.375  0.7595  1.6737  3.5186
  139OSM   C11F15249   4.289   0.056   6.219 -0.1516  0.4399 -0.0145
  139OSM   H11F15250   4.379  -0.007   6.204  1.0011  2.1429 -0.5920
  139OSM   H11G15251   4.312   0.157   6.258 -0.3601 -0.2295  1.9482
  139OSM   C12F15252   4.211   0.075   6.085  0.3844  0.4117  0.4032
  139OSM   H12F15253   4.153   0.169   6.092  0.2791  0.2706  2.0405
  139OSM   H12G15254   4.150  -0.013   6.055  1.1869  0.4420 -1.4031
  139OSM   C13F15255   4.312   0.089   5.971  0.3555 -1.3371 -0.1158
  139OSM   H13F15256   4.381   0.003   5.978  0.0837 -1.4624  1.4237
  139OSM   H13G15257   4.365   0.185   5.990 -0.0492 -1.3622  1.2446
  139OSM   C14F15258   4.244   0.089   5.828 -0.1448 -0.1925 -0.1153
  139OSM   H14F15259   4.166   0.167   5.824 -1.3538 -1.2221  1.8306
  139OSM   H14G15260   4.186  -0.005   5.818  0.7349 -0.6531 -1.0924
  139OSM   C15F15261   4.340   0.101   5.703 -0.1171  0.7173 -0.1658
  139OSM   H15F15262   4.404   0.011   5.704 -0.8963  0.1028 -1.8888
  139OSM   H15G15263   4.396   0.196   5.715 -0.1480  1.1184 -2.6712
  139OSM   C16F15264   4.261   0.113   5.572  0.2223  0.2390 -0.0483
  139OSM   H16F15265   4.175   0.181   5.593 -1.4428 -1.2149 -1.9110
  139OSM   H16G15266   4.218   0.013   5.552  1.4571 -0.3492  0.1098
  139OSM   C17F15267   4.342   0.174   5.458 -0.4341  0.2452 -0.1249
  139OSM   H17F15268   4.297   0.146   5.360 -1.3732 -0.0597  0.3849
  139OSM   H17G15269   4.445   0.132   5.459 -1.3958 -2.2590  0.1614
  139OSM   C18F15270   4.338   0.328   5.461  0.4491  0.5490 -0.4517
  139OSM   H18F15271   4.414   0.370   5.530  0.8487 -0.9006  0.0186
  139OSM   H18G15272   4.234   0.359   5.485  0.6303  1.7690 -1.1826
  139OSM   H18H15273   4.370   0.356   5.359 -2.6162  3.3867 -0.8313
  140OSM      N15274   3.839   5.172   7.599 -0.6745  0.7556  0.5261
  140OSM    C1515275   3.948   5.171   7.696  0.0964  0.2018 -0.1312
  140OSM   H15A15276   3.967   5.075   7.742 -0.6665 -1.0172 -2.2048
  140OSM   H15B15277   3.940   5.246   7.773 -1.4579  2.0763 -2.0000
  140OSM   H15C15278   4.044   5.179   7.647  1.7529 -1.9948  2.4214
  140OSM    C1415279   3.884   5.067   7.491 -0.1660  0.0158 -0.5330
  140OSM   H14A15280   3.966   5.104   7.432 -0.1934 -0.2889 -0.7603
  140OSM   H14B15281   3.804   5.044   7.422 -1.0571 -1.0729  0.8144
  140OSM   H14C15282   3.916   4.978   7.544  0.1299 -0.1490 -0.9922
  140OSM    C1315283   3.717   5.128   7.668  0.3270  0.0629  0.1287
  140OSM   H13A15284   3.701   5.179   7.761 -0.4350 -0.4479  0.2855
  140OSM   H13B15285   3.716   5.020   7.679  2.6961  0.0553  0.9603
  140OSM   H13C15286   3.637   5.162   7.604  2.4861  0.0246 -2.7910
  140OSM    C1215287   3.815   5.305   7.534  0.1766  0.3495 -0.0461
  140OSM   H12A15288   3.909   5.346   7.498 -0.1789  1.9464  0.7466
  140OSM   H12B15289   3.793   5.381   7.608 -2.1834 -0.4520  0.1453
  140OSM    C1115290   3.726   5.318   7.411 -0.2782  0.9647 -0.0176
  140OSM   H11A15291   3.762   5.254   7.327  1.0716 -3.2817  3.4499
  140OSM   H11B15292   3.735   5.422   7.375  1.8416  0.3276 -1.5077
  140OSM      P15293   3.486   5.402   7.461 -0.0420  0.1656  0.1690
  140OSM    O1315294   3.360   5.340   7.513  0.3984 -0.3199 -0.1053
  140OSM    O1415295   3.549   5.505   7.544  0.5099  0.5667  0.6914
  140OSM    O1115296   3.452   5.468   7.325 -0.3980 -0.1296 -0.2811
  140OSM    O1215297   3.587   5.293   7.434  0.0803 -0.1876  0.0382
  140OSM    C1S15298   3.464   5.414   7.199 -0.2765 -0.0763  0.0572
  140OSM    H1S15299   3.423   5.311   7.206 -0.0340 -0.1164  1.1502
  140OSM    H1T15300   3.569   5.411   7.163 -0.8499 -0.7510 -1.6763
  140OSM     NF15301   3.410   5.451   6.951  0.3245  0.1761  0.2214
  140OSM    HNF15302   3.487   5.477   6.894 -0.6379  1.8207 -0.3907
  140OSM    C2S15303   3.403   5.510   7.085 -0.5107  0.2994 -0.4413
  140OSM    H2S15304   3.297   5.524   7.115 -0.4101 -0.9182  0.5526
  140OSM    C3S15305   3.466   5.652   7.095 -0.4503  0.9188  0.1185
  140OSM    H3S15306   3.575   5.643   7.073 -0.2072  1.9373  0.8117
  140OSM     O315307   3.473   5.708   7.224  0.6945 -0.0457 -0.4365
  140OSM    HO315308   3.440   5.647   7.290 -0.1822 -0.9890 -1.6929
  140OSM    C4S15309   3.405   5.745   7.001 -0.2965  0.2113 -0.3835
  140OSM    H4S15310   3.306   5.785   7.028  0.0649  1.1485 -0.4147
  140OSM    C5S15311   3.472   5.802   6.901 -0.2562 -0.4320 -0.7057
  140OSM    H5S15312   3.577   5.776   6.880 -0.1590  0.1979 -0.9967
  140OSM    C6S15313   3.410   5.904   6.806  0.4206  0.1641 -0.1625
  140OSM    H6S15314   3.299   5.906   6.817  0.0821 -2.8653 -2.0243
  140OSM    H6T15315   3.433   5.896   6.698  0.3424  1.8157 -0.3390
  140OSM    C7S15316   3.469   6.052   6.842 -1.2474 -0.3544 -0.9690
  140OSM    H7S15317   3.580   6.052   6.847 -1.2625 -0.7889 -0.5092
  140OSM    H7T15318   3.430   6.074   6.943  1.9286 -0.7924  0.4841
  140OSM    C8S15319   3.421   6.159   6.747  0.3181 -0.3653 -0.8348
  140OSM    H8S15320   3.437   6.252   6.805 -1.0627 -0.8018  0.3130
  140OSM    H8T15321   3.315   6.137   6.721 -0.2389 -2.7470  2.7503
  140OSM    C9S15322   3.508   6.178   6.624  0.5320 -0.5434  0.3139
  140OSM    H9S15323   3.516   6.085   6.563  1.7348  0.0976 -0.5441
  140OSM    H9T15324   3.616   6.197   6.642  0.8364 -0.2294 -1.6647
  140OSM   C10S15325   3.457   6.298   6.534  0.6078 -0.0858 -0.6304
  140OSM   H10S15326   3.475   6.393   6.589  2.4496  0.0145 -1.3133
  140OSM   H10T15327   3.349   6.273   6.523  0.7992 -0.2203 -2.6935
  140OSM   C11S15328   3.526   6.304   6.398 -0.7288 -0.6017  0.1429
  140OSM   H11S15329   3.558   6.203   6.363 -1.0824 -0.3103 -1.0282
  140OSM   H11T15330   3.619   6.363   6.411 -1.2091 -0.0616  1.2954
  140OSM   C12S15331   3.453   6.378   6.283  0.3341  0.3729 -0.3229
  140OSM   H12S15332   3.434   6.483   6.315  0.6619  0.8471 -1.6452
  140OSM   H12T15333   3.351   6.334   6.270 -0.6186  1.8910  1.4854
  140OSM   C13S15334   3.530   6.376   6.153  0.2116 -0.0810 -1.0005
  140OSM   H13S15335   3.567   6.272   6.146  0.1368 -0.1438 -0.4913
  140OSM   H13T15336   3.616   6.446   6.155 -0.9423  1.3939  1.6883
  140OSM   C14S15337   3.445   6.412   6.030  0.3018 -0.2189 -0.0820
  140OSM   H14S15338   3.402   6.512   6.050 -0.8734 -0.4142 -1.4648
  140OSM   H14T15339   3.360   6.341   6.023  0.4523 -0.3900 -0.2099
  140OSM   C15S15340   3.523   6.418   5.901 -0.3021  0.4530  0.1307
  140OSM   H15S15341   3.570   6.317   5.905 -1.9589 -0.3162  1.3374
  140OSM   H15T15342   3.602   6.496   5.900  0.2996 -0.0739 -2.3165
  140OSM   C16S15343   3.442   6.435   5.770  0.5799  0.0265 -0.6818
  140OSM   H16S15344   3.508   6.427   5.681 -0.5290  0.6097 -1.5813
  140OSM   H16T15345   3.408   6.540   5.764 -1.5047 -0.5623  0.1708
  140OSM   C17S15346   3.333   6.332   5.743 -0.1307 -0.7261  0.1736
  140OSM   H17S15347   3.248   6.350   5.812 -0.9864 -3.5359 -0.0219
  140OSM   H17T15348   3.379   6.239   5.781 -1.7412 -1.2167  1.0193
  140OSM   C18S15349   3.293   6.323   5.590  0.0054  0.1564 -1.0095
  140OSM   H18S15350   3.232   6.414   5.568  0.2494  1.0367  1.6269
  140OSM   H18T15351   3.218   6.240   5.595 -1.0197  0.7506 -4.1035
  140OSM   H18U15352   3.382   6.296   5.530  0.3066 -2.1476  0.3401
  140OSM    C1F15353   3.357   5.337   6.916  0.6154  0.6019 -0.1987
  140OSM     OF15354   3.262   5.289   6.973 -0.4677  0.1851 -0.3386
  140OSM    C2F15355   3.407   5.274   6.788 -0.3098  0.5988 -0.8281
  140OSM    H2F15356   3.480   5.338   6.734  0.6394  1.1620  1.0476
  140OSM    H2G15357   3.321   5.250   6.722 -1.1349 -0.8100  0.7051
  140OSM    C3F15358   3.478   5.141   6.817 -0.1902 -0.2123 -0.7226
  140OSM    H3F15359   3.403   5.071   6.860  1.3524 -2.0090 -0.8504
  140OSM    H3G15360   3.558   5.155   6.892  1.4493  0.4735 -2.4985
  140OSM    C4F15361   3.531   5.079   6.691 -0.5912  0.1498 -0.4507
  140OSM    H4F15362   3.618   5.013   6.712  0.0326  0.9686 -0.3757
  140OSM    H4G15363   3.571   5.163   6.629 -1.3109  0.2802 -0.7442
  140OSM    C5F15364   3.424   4.995   6.618  0.3627  0.1819  1.0774
  140OSM    H5F15365   3.350   5.068   6.578 -1.0689 -1.3774  0.7490
  140OSM    H5G15366   3.389   4.934   6.704 -0.9775  0.7652  0.9689
  140OSM    C6F15367   3.467   4.901   6.508 -0.4360 -0.1734 -0.1325
  140OSM    H6F15368   3.529   4.834   6.571 -1.2851  0.0987  1.0141
  140OSM    H6G15369   3.527   4.952   6.429 -1.2763 -1.0418 -1.3696
  140OSM    C7F15370   3.349   4.841   6.428 -0.0408 -0.9129  0.0557
  140OSM    H7F15371   3.292   4.921   6.376 -0.1946 -1.1048 -0.0740
  140OSM    H7G15372   3.285   4.793   6.506  2.1215 -0.9812  1.8808
  140OSM    C8F15373   3.399   4.740   6.322 -0.7510 -0.7460 -0.2815
  140OSM    H8F15374   3.493   4.704   6.369 -0.6775 -1.4522 -0.9394
  140OSM    H8G15375   3.431   4.792   6.229  0.5829 -1.4899 -0.2751
  140OSM    C9F15376   3.306   4.626   6.292  0.5487 -0.5368 -1.1364
  140OSM    H9F15377   3.318   4.536   6.355 -1.4035  0.9053  1.4806
  140OSM   C10F15378   3.205   4.636   6.200  0.6883 -0.2921 -0.9311
  140OSM   H10F15379   3.159   4.542   6.168  2.5073 -1.5664  0.0168
  140OSM   C11F15380   3.192   4.752   6.104 -0.0408 -0.6945  0.3634
  140OSM   H11F15381   3.207   4.726   5.996 -2.8846 -0.8033 -0.0902
  140OSM   H11G15382   3.262   4.834   6.129  1.5066 -2.2410  1.2959
  140OSM   C12F15383   3.051   4.817   6.105 -0.4108  0.3167  0.5587
  140OSM   H12F15384   3.028   4.824   6.213 -0.9102  1.6473  0.3897
  140OSM   H12G15385   2.970   4.758   6.057 -0.6237  0.3275  0.9071
  140OSM   C13F15386   3.045   4.965   6.050 -0.1647  0.5076  0.1598
  140OSM   H13F15387   3.137   5.022   6.076 -0.2385  0.2225  1.1006
  140OSM   H13G15388   2.959   5.015   6.099 -1.8190 -1.5258 -0.5384
  140OSM   C14F15389   3.011   4.978   5.899  0.2705  0.0049  0.4923
  140OSM   H14F15390   2.940   4.893   5.885  1.3607 -0.5322 -2.4518
  140OSM   H14G15391   3.103   4.963   5.840  1.1571  1.9467  1.2952
  140OSM   C15F15392   2.949   5.119   5.861 -0.3551  0.9560 -0.3059
  140OSM   H15F15393   3.032   5.192   5.870  0.5813  0.3136 -2.8266
  140OSM   H15G15394   2.881   5.136   5.947  0.2738 -0.0756  0.4224
  140OSM   C16F15395   2.864   5.123   5.728  0.2113  0.2909 -0.1687
  140OSM   H16F15396   2.809   5.220   5.725  2.4684  1.6750  0.7621
  140OSM   H16G15397   2.784   5.047   5.720  0.0185  0.2713  1.5383
  140OSM   C17F15398   2.950   5.130   5.602 -0.2656  0.4507 -0.3010
  140OSM   H17F15399   3.021   5.045   5.599  1.4948  1.8173  0.3925
  140OSM   H17G15400   3.018   5.219   5.609  0.8210 -0.4248  0.8579
  140OSM   C18F15401   2.869   5.145   5.477  0.2326  0.0121 -0.0742
  140OSM   H18F15402   2.825   5.046   5.455 -2.2813  0.9301  0.5784
  140OSM   H18G15403   2.936   5.172   5.392 -0.5270 -1.1199 -1.0549
  140OSM   H18H15404   2.785   5.217   5.483 -2.4136 -3.0152  1.5853
  141OSM      N15405   6.667   4.481   8.155 -0.0781 -0.3614 -0.3196
  141OSM    C1515406   6.589   4.412   8.049  0.6199  0.0882  0.9670
  141OSM   H15A15407   6.488   4.447   8.035  0.2828 -0.9988  0.5739
  141OSM   H15B15408   6.563   4.311   8.075  0.8681  0.4424  2.6923
  141OSM   H15C15409   6.638   4.403   7.953  2.1149  0.7561  1.6409
  141OSM    C1415410   6.596   4.464   8.282 -0.1073 -0.2845  0.0037
  141OSM   H14A15411   6.598   4.357   8.300 -0.0910 -0.3633 -0.4541
  141OSM   H14B15412   6.497   4.506   8.278 -0.8675 -2.0617 -2.1467
  141OSM   H14C15413   6.651   4.505   8.365 -0.9447 -1.2897  1.0944
  141OSM    C1315414   6.797   4.415   8.164  0.4459 -0.3126 -0.2539
  141OSM   H13A15415   6.864   4.457   8.238  3.0311 -2.1489 -1.4107
  141OSM   H13B15416   6.826   4.421   8.060 -3.3259  0.2140 -1.4582
  141OSM   H13C15417   6.794   4.309   8.183  0.4193 -0.5673 -1.6022
  141OSM    C1215418   6.675   4.629   8.128 -0.4709  0.3595 -0.0254
  141OSM   H12A15419   6.736   4.683   8.199 -0.0847  0.3709 -0.3628
  141OSM   H12B15420   6.575   4.670   8.128 -1.1966 -1.3565 -0.1473
  141OSM    C1115421   6.731   4.667   7.984 -0.3646  0.1932  0.5451
  141OSM   H11A15422   6.719   4.773   7.957  0.3403 -0.2447 -1.6760
  141OSM   H11B15423   6.662   4.621   7.911  1.1794 -0.1538 -0.7602
  141OSM      P15424   6.985   4.675   8.008 -0.5488  0.3046  0.4823
  141OSM    O1315425   6.954   4.783   8.099 -0.6767 -0.1788  0.0339
  141OSM    O1415426   7.064   4.570   8.077 -0.0898  0.2182 -0.3616
  141OSM    O1115427   7.060   4.727   7.878 -0.0884  0.2078  0.6939
  141OSM    O1215428   6.855   4.603   7.945  0.0266 -0.1836 -0.3765
  141OSM    C1S15429   7.000   4.698   7.751 -0.1902 -0.0263  0.2519
  141OSM    H1S15430   6.911   4.763   7.739 -2.1036 -1.6672  4.0505
  141OSM    H1T15431   6.961   4.595   7.741 -0.9045  0.1145  1.4260
  141OSM     NF15432   7.028   4.633   7.516 -0.1088  0.5315  0.0208
  141OSM    HNF15433   7.051   4.538   7.499 -0.7338  0.1393  1.3010
  141OSM    C2S15434   7.097   4.701   7.628  0.0642 -0.0930 -0.0045
  141OSM    H2S15435   7.121   4.806   7.604 -2.7543  0.6092 -0.1025
  141OSM    C3S15436   7.232   4.637   7.670 -0.0927  0.6836  0.2106
  141OSM    H3S15437   7.218   4.530   7.696  3.4483 -0.1028 -0.5873
  141OSM     O315438   7.286   4.704   7.783 -0.6161 -0.3605  0.2484
  141OSM    HO315439   7.205   4.726   7.828 -0.2285 -1.6973  1.6986
  141OSM    C4S15440   7.330   4.633   7.556  1.2511  0.3573 -0.5621
  141OSM    H4S15441   7.340   4.531   7.515 -2.7207  0.0850 -1.1974
  141OSM    C5S15442   7.399   4.739   7.500  0.4000 -0.2677 -0.0472
  141OSM    H5S15443   7.392   4.843   7.536 -1.7056 -0.0999 -0.7708
  141OSM    C6S15444   7.487   4.720   7.377  0.8154 -0.2830 -0.1837
  141OSM    H6S15445   7.546   4.626   7.380  2.7423  0.8615  2.6312
  141OSM    H6T15446   7.565   4.799   7.386  0.4503 -0.0681  1.4744
  141OSM    C7S15447   7.406   4.734   7.246 -0.1391 -0.0162  0.1745
  141OSM    H7S15448   7.347   4.829   7.244  0.3505  0.2832 -0.0965
  141OSM    H7T15449   7.336   4.651   7.225  0.4275 -0.0143 -1.8830
  141OSM    C8S15450   7.498   4.753   7.124 -0.7546 -0.3464  0.4815
  141OSM    H8S15451   7.543   4.655   7.098 -0.2866 -0.0822  0.2857
  141OSM    H8T15452   7.578   4.829   7.134 -0.0391 -0.8031 -1.2844
  141OSM    C9S15453   7.419   4.789   7.002  0.4186  0.2777  0.2150
  141OSM    H9S15454   7.392   4.896   7.010 -0.2855  0.2253 -1.1378
  141OSM    H9T15455   7.329   4.725   7.002 -0.0919  0.9872 -0.2372
  141OSM   C10S15456   7.511   4.768   6.878  0.3522  0.7694  0.8373
  141OSM   H10S15457   7.526   4.658   6.876 -0.1082  0.7008  1.0092
  141OSM   H10T15458   7.610   4.809   6.906 -0.0944  0.7879  2.5175
  141OSM   C11S15459   7.469   4.821   6.752  0.2278  0.1032  0.3073
  141OSM   H11S15460   7.450   4.930   6.744  2.0412  0.3420 -1.9103
  141OSM   H11T15461   7.372   4.775   6.724  0.0166  1.2540 -0.9353
  141OSM   C12S15462   7.573   4.811   6.644 -0.1621 -0.3819  0.4590
  141OSM   H12S15463   7.610   4.707   6.649 -0.1834 -0.3740  0.8793
  141OSM   H12T15464   7.653   4.887   6.662 -0.9238  0.4870  0.2844
  141OSM   C13S15465   7.517   4.839   6.507  0.0290 -0.0120 -0.0049
  141OSM   H13S15466   7.446   4.923   6.522  0.9254  0.5536  1.3176
  141OSM   H13T15467   7.459   4.756   6.462 -0.7260  0.5357 -0.0624
  141OSM   C14S15468   7.630   4.886   6.415 -0.1920  0.4277  0.9223
  141OSM   H14S15469   7.699   4.799   6.405 -1.9605 -0.9009 -0.6075
  141OSM   H14T15470   7.683   4.970   6.464 -3.4064  1.5678  2.7364
  141OSM   C15S15471   7.583   4.928   6.270 -0.1712 -0.0381  1.0037
  141OSM   H15S15472   7.514   5.014   6.279 -0.6966 -0.2673 -0.5411
  141OSM   H15T15473   7.522   4.841   6.238 -2.2198  1.8963 -0.6710
  141OSM   C16S15474   7.700   4.946   6.177  0.8792  0.4520 -0.1374
  141OSM   H16S15475   7.763   4.855   6.165  0.9228  0.4788 -0.1149
  141OSM   H16T15476   7.756   5.031   6.223 -0.9467  1.8639 -0.3847
  141OSM   C17S15477   7.661   4.994   6.039  0.2843  0.4041  0.4888
  141OSM   H17S15478   7.598   5.085   6.037  2.1389  1.7267 -0.2458
  141OSM   H17T15479   7.607   4.916   5.981  2.9246 -1.2073  0.0537
  141OSM   C18S15480   7.778   5.042   5.952 -0.3144  0.3469  0.3609
  141OSM   H18S15481   7.846   4.958   5.927 -0.6908  0.6664 -1.9426
  141OSM   H18T15482   7.825   5.125   6.008 -2.4904  1.4805  0.6301
  141OSM   H18U15483   7.730   5.083   5.860 -2.7807 -3.2212 -0.1614
  141OSM    C1F15484   6.935   4.700   7.446 -0.0229  0.4601  0.8630
  141OSM     OF15485   6.907   4.808   7.488 -0.3379 -0.3090  0.2438
  141OSM    C2F15486   6.881   4.637   7.323  0.3659 -0.3161 -1.0065
  141OSM    H2F15487   6.772   4.650   7.308 -0.9493 -5.1040  1.9741
  141OSM    H2G15488   6.905   4.528   7.325  1.1941 -0.1320  0.5933
  141OSM    C3F15489   6.952   4.703   7.199 -0.0708  0.0724 -0.7105
  141OSM    H3F15490   6.914   4.645   7.113 -0.2080  0.8559 -1.1880
  141OSM    H3G15491   7.061   4.683   7.206  0.1585  1.6971  1.5020
  141OSM    C4F15492   6.914   4.848   7.171  0.3657  0.6306  0.3585
  141OSM    H4F15493   6.924   4.915   7.258  0.7610  0.6138  0.3260
  141OSM    H4G15494   6.812   4.852   7.127  0.9938  0.7287 -1.1647
  141OSM    C5F15495   7.000   4.903   7.058  0.3009  0.0254 -0.4743
  141OSM    H5F15496   7.103   4.887   7.096 -0.7930 -0.2438  2.6152
  141OSM    H5G15497   6.978   5.010   7.038  1.0798 -0.1339 -2.5203
  141OSM    C6F15498   6.989   4.843   6.914 -0.6879 -0.5709  0.6523
  141OSM    H6F15499   6.883   4.844   6.880 -0.5853 -2.2975  0.1846
  141OSM    H6G15500   7.011   4.736   6.931 -0.3563 -0.2018  2.9116
  141OSM    C7F15501   7.085   4.924   6.822 -0.8188  1.0543  0.3285
  141OSM    H7F15502   7.189   4.890   6.842 -1.5516 -1.9543 -0.5071
  141OSM    H7G15503   7.073   5.033   6.843 -1.8801  0.5435  2.7064
  141OSM    C8F15504   7.065   4.897   6.667  0.9798  0.0036 -0.0364
  141OSM    H8F15505   6.959   4.904   6.633  2.1489  1.7701 -3.9926
  141OSM    H8G15506   7.095   4.791   6.656 -1.3392 -0.6792 -0.3486
  141OSM    C9F15507   7.150   4.977   6.576 -0.6655 -1.2565  0.9090
  141OSM    H9F15508   7.238   5.027   6.618  1.3918 -2.9450 -1.1496
  141OSM   C10F15509   7.124   4.980   6.444  0.5411 -0.0325 -0.5885
  141OSM   H10F15510   7.184   5.037   6.371  2.3100 -2.4442 -1.1249
  141OSM   C11F15511   7.020   4.888   6.380 -0.8282 -0.3511 -0.3327
  141OSM   H11F15512   6.935   4.944   6.334 -0.0822 -0.8495 -2.4444
  141OSM   H11G15513   6.967   4.820   6.449 -0.1604  0.8536  1.4472
  141OSM   C12F15514   7.102   4.820   6.267 -0.6131 -0.0319  0.8245
  141OSM   H12F15515   7.069   4.716   6.247  0.9981 -0.3100 -0.5637
  141OSM   H12G15516   7.212   4.821   6.279 -0.3004  1.2606 -1.6202
  141OSM   C13F15517   7.080   4.898   6.131 -0.4513 -0.7786  0.8596
  141OSM   H13F15518   7.131   4.996   6.139 -1.2430 -0.1979 -0.7594
  141OSM   H13G15519   6.974   4.921   6.107 -0.2538  1.6062  1.9900
  141OSM   C14F15520   7.150   4.848   6.004 -0.1314  0.4187  0.1271
  141OSM   H14F15521   7.154   4.925   5.924 -0.3133 -1.4167 -1.7322
  141OSM   H14G15522   7.095   4.760   5.963  2.8093 -0.7038 -1.7071
  141OSM   C15F15523   7.297   4.800   6.015  0.0739  0.6791  0.0849
  141OSM   H15F15524   7.295   4.709   6.080  1.1799  0.9723  0.5567
  141OSM   H15G15525   7.353   4.879   6.069 -0.1573  2.1162 -1.6982
  141OSM   C16F15526   7.371   4.780   5.886  0.4582 -0.3506 -0.2414
  141OSM   H16F15527   7.475   4.743   5.898  0.4226 -0.3065  0.2298
  141OSM   H16G15528   7.367   4.876   5.832 -2.0803 -0.4626 -0.3748
  141OSM   C17F15529   7.303   4.675   5.798 -0.0999  0.1607 -0.1654
  141OSM   H17F15530   7.197   4.704   5.781  0.4282  1.1912 -1.9675
  141OSM   H17G15531   7.294   4.591   5.869 -2.7047  1.5943  1.3748
  141OSM   C18F15532   7.372   4.651   5.665 -0.9869  0.0159  0.0298
  141OSM   H18F15533   7.480   4.627   5.680 -0.2411  1.5932 -2.2583
  141OSM   H18G15534   7.369   4.736   5.594  2.2069  1.4452  1.3685
  141OSM   H18H15535   7.332   4.563   5.612  0.1864 -1.4800  1.5067
  142OSM      N15536   1.983   4.986   8.307  0.3000  0.0068  0.1214
  142OSM    C1515537   2.125   5.041   8.287 -0.0183 -0.3436 -0.3362
  142OSM   H15A15538   2.192   5.037   8.371  0.3547 -0.2501 -0.6260
  142OSM   H15B15539   2.123   5.141   8.244 -0.7219 -0.4183 -0.4962
  142OSM   H15C15540   2.162   4.981   8.206  1.3412  1.7564 -1.3726
  142OSM    C1415541   1.976   4.838   8.323  0.1309 -1.1664  0.0803
  142OSM   H14A15542   2.017   4.815   8.420 -1.2806  0.6508  1.1766
  142OSM   H14B15543   2.038   4.786   8.252  1.5660  0.1050  0.3520
  142OSM   H14C15544   1.874   4.802   8.320 -0.8937  1.5489 -1.1324
  142OSM    C1315545   1.925   5.046   8.436 -0.9321  0.5900 -0.1780
  142OSM   H13A15546   1.974   5.007   8.525 -1.3493  2.0702  0.7463
  142OSM   H13B15547   1.821   5.021   8.444 -0.5363 -0.6996  1.7531
  142OSM   H13C15548   1.932   5.153   8.450  0.1132  0.3267  1.6868
  142OSM    C1215549   1.896   5.024   8.184  0.6267 -0.1208  0.9877
  142OSM   H12A15550   1.865   5.126   8.198 -0.1647 -0.3160  0.6976
  142OSM   H12B15551   1.813   4.955   8.190  1.9706 -1.7687  1.5885
  142OSM    C1115552   1.961   5.029   8.046  0.1032  0.4494  0.2477
  142OSM   H11A15553   1.884   5.040   7.966  0.0008 -1.4417  0.0437
  142OSM   H11B15554   2.015   4.934   8.030 -0.0931  0.2572  0.7197
  142OSM      P15555   2.006   5.287   8.018  0.3075  0.4428  0.0641
  142OSM    O1315556   1.885   5.300   8.100  0.1204 -0.4969 -0.3668
  142OSM    O1415557   2.120   5.369   8.052 -0.3298  0.7981 -0.9551
  142OSM    O1115558   1.978   5.297   7.864  0.7095  0.0617  0.6461
  142OSM    O1215559   2.053   5.139   8.036  0.3956 -0.4167 -0.1797
  142OSM    C1S15560   2.073   5.244   7.770  0.6405  0.1742  0.2493
  142OSM    H1S15561   2.093   5.136   7.783 -0.2160  0.2619  2.9215
  142OSM    H1T15562   2.165   5.305   7.765  1.1523 -0.4481  1.5080
  142OSM     NF15563   2.103   5.198   7.521 -0.4721 -0.5180 -0.2182
  142OSM    HNF15564   2.150   5.257   7.456 -0.0075 -1.4024 -0.6909
  142OSM    C2S15565   2.018   5.268   7.621  0.3601  0.0827  0.6685
  142OSM    H2S15566   1.921   5.215   7.609 -0.9865  2.1909  1.7477
  142OSM    C3S15567   1.989   5.416   7.596 -0.1793 -0.5592 -0.5617
  142OSM    H3S15568   2.089   5.465   7.600 -1.0336  1.2585 -0.5049
  142OSM     O315569   1.918   5.484   7.697  0.2370  0.5172  0.1829
  142OSM    HO315570   1.935   5.435   7.777 -1.0735  1.7338  1.2835
  142OSM    C4S15571   1.924   5.442   7.461  0.3396  0.1032  0.2427
  142OSM    H4S15572   2.007   5.438   7.389 -0.0039 -0.0610 -0.1475
  142OSM    C5S15573   1.795   5.473   7.434 -0.4244 -0.5889  0.9465
  142OSM    H5S15574   1.723   5.493   7.515 -0.7174 -1.5383  0.9323
  142OSM    C6S15575   1.738   5.502   7.297 -0.1959 -0.2753 -0.2168
  142OSM    H6S15576   1.697   5.605   7.309 -2.2017 -0.9311 -1.0190
  142OSM    H6T15577   1.666   5.423   7.265 -1.3005  1.4875 -2.3698
  142OSM    C7S15578   1.848   5.526   7.183  0.0241  0.0944 -0.0469
  142OSM    H7S15579   1.900   5.428   7.175  1.4961  0.9478 -1.5513
  142OSM    H7T15580   1.922   5.607   7.199  0.6412 -0.4413 -0.1227
  142OSM    C8S15581   1.773   5.538   7.046 -0.1463  0.5947 -0.3602
  142OSM    H8S15582   1.711   5.630   7.040  0.3965  0.8879 -4.6848
  142OSM    H8T15583   1.710   5.447   7.035  1.5195 -0.7549  0.8014
  142OSM    C9S15584   1.862   5.540   6.919  0.4955 -0.3032  0.0576
  142OSM    H9S15585   1.934   5.455   6.919  1.0900  0.1842  1.1086
  142OSM    H9T15586   1.911   5.639   6.916  1.0434 -0.5430  0.7878
  142OSM   C10S15587   1.772   5.528   6.795 -0.8094 -0.4607  0.3004
  142OSM   H10S15588   1.701   5.610   6.771  0.7543  0.3951 -1.6967
  142OSM   H10T15589   1.719   5.431   6.802 -0.0623 -0.7455  3.7128
  142OSM   C11S15590   1.870   5.532   6.670 -0.5253  0.5064  0.1414
  142OSM   H11S15591   1.932   5.442   6.689 -2.0103 -1.0242 -1.8196
  142OSM   H11T15592   1.937   5.620   6.676 -0.2575  0.3730 -0.7121
  142OSM   C12S15593   1.802   5.534   6.533  0.0871 -0.1531  0.3608
  142OSM   H12S15594   1.762   5.637   6.520  1.1269  0.6155  2.7307
  142OSM   H12T15595   1.721   5.458   6.535  0.6217 -0.7443 -0.1993
  142OSM   C13S15596   1.900   5.513   6.415  0.5307 -0.4126 -0.2404
  142OSM   H13S15597   1.956   5.421   6.442 -0.1387 -1.2097 -1.4273
  142OSM   H13T15598   1.962   5.605   6.416 -1.2000  0.8123  0.4782
  142OSM   C14S15599   1.833   5.497   6.275  0.2426 -0.1724 -0.2947
  142OSM   H14S15600   1.751   5.571   6.265 -1.3751 -2.0063 -1.2589
  142OSM   H14T15601   1.779   5.400   6.279 -1.0041  0.3868 -2.2431
  142OSM   C15S15602   1.932   5.492   6.157  0.5611  0.5315 -1.1566
  142OSM   H15S15603   1.989   5.397   6.167 -2.0903 -1.0982 -0.5203
  142OSM   H15T15604   1.997   5.578   6.186 -0.9689  1.3547  0.0142
  142OSM   C16S15605   1.873   5.497   6.015 -0.1145  0.1153 -0.3260
  142OSM   H16S15606   1.797   5.577   6.027 -1.4619 -1.0388 -0.9274
  142OSM   H16T15607   1.814   5.405   5.996 -1.4676  1.3105 -2.2891
  142OSM   C17S15608   1.975   5.508   5.907 -0.3546  0.3208 -0.1123
  142OSM   H17S15609   2.047   5.591   5.928 -0.2875  0.2007  0.1456
  142OSM   H17T15610   1.929   5.542   5.813 -1.9515 -1.4276 -0.0251
  142OSM   C18S15611   2.047   5.376   5.867  0.2846 -0.5815 -0.8018
  142OSM   H18S15612   2.097   5.336   5.957 -0.8504  1.8116  1.0262
  142OSM   H18T15613   2.109   5.398   5.778  1.3571  1.3713  0.3533
  142OSM   H18U15614   1.974   5.299   5.835 -0.8436  0.1865 -0.1605
  142OSM    C1F15615   2.122   5.066   7.512 -0.2420 -0.0103  0.1918
  142OSM     OF15616   2.067   4.980   7.584 -0.3151 -0.7278 -0.1996
  142OSM    C2F15617   2.200   5.024   7.393  0.4199  0.2234 -0.5786
  142OSM    H2F15618   2.237   5.116   7.344  0.7561  0.0706 -0.6166
  142OSM    H2G15619   2.132   4.973   7.321 -1.5326 -0.7448  1.8063
  142OSM    C3F15620   2.323   4.935   7.434 -0.5537 -0.4532 -0.8836
  142OSM    H3F15621   2.272   4.842   7.467  1.2424 -1.2654 -0.2726
  142OSM    H3G15622   2.376   4.985   7.518 -0.0701 -0.9478 -0.8930
  142OSM    C4F15623   2.406   4.900   7.315  0.3904 -0.2588 -0.2213
  142OSM    H4F15624   2.505   4.862   7.348  0.9311 -0.9786 -2.4952
  142OSM    H4G15625   2.425   4.995   7.261 -0.0442  0.5321  0.9707
  142OSM    C5F15626   2.350   4.793   7.219  0.6008  0.9779  0.4067
  142OSM    H5F15627   2.251   4.813   7.174  1.1261  0.6145 -0.9491
  142OSM    H5G15628   2.352   4.694   7.269  0.2102 -1.7098 -4.3237
  142OSM    C6F15629   2.435   4.780   7.094 -0.3393 -0.0882  0.5030
  142OSM    H6F15630   2.535   4.745   7.130  1.3279  2.0736 -1.6645
  142OSM    H6G15631   2.444   4.878   7.042  1.7117 -0.0750  0.7995
  142OSM    C7F15632   2.380   4.678   6.989  0.2224 -0.1975  0.0609
  142OSM    H7F15633   2.288   4.718   6.942  0.0563  1.2853  1.5501
  142OSM    H7G15634   2.349   4.595   7.056 -0.9458  1.9436  2.3299
  142OSM    C8F15635   2.485   4.640   6.890 -0.5102  0.9514 -0.6453
  142OSM    H8F15636   2.467   4.539   6.847 -0.7049  0.0164  1.5319
  142OSM    H8G15637   2.584   4.638   6.940 -0.9957  1.5887  0.3709
  142OSM    C9F15638   2.496   4.730   6.773 -0.0968  0.5197  0.6649
  142OSM    H9F15639   2.562   4.817   6.787 -1.6424  1.7955  0.3543
  142OSM   C10F15640   2.446   4.699   6.650 -0.8301 -0.0974 -0.3637
  142OSM   H10F15641   2.471   4.772   6.572  0.9147 -0.7295 -0.4401
  142OSM   C11F15642   2.366   4.582   6.602  0.5620 -1.1150  0.6198
  142OSM   H11F15643   2.324   4.522   6.686 -1.5605  1.8641  1.8775
  142OSM   H11G15644   2.437   4.506   6.562 -0.1602 -0.8247 -1.3052
  142OSM   C12F15645   2.240   4.634   6.524 -0.0191 -0.0005 -0.7362
  142OSM   H12F15646   2.185   4.703   6.592 -0.0631 -0.4707 -0.2905
  142OSM   H12G15647   2.172   4.550   6.499 -0.3665  0.1719 -0.3992
  142OSM   C13F15648   2.275   4.696   6.382  0.3222  0.2016 -0.0330
  142OSM   H13F15649   2.314   4.618   6.313 -1.6151 -2.9002  2.0856
  142OSM   H13G15650   2.345   4.781   6.394 -0.3244  0.5604  1.3391
  142OSM   C14F15651   2.155   4.753   6.304  0.3333 -0.0444  0.2739
  142OSM   H14F15652   2.175   4.812   6.212 -1.0558 -0.9634 -0.6580
  142OSM   H14G15653   2.095   4.811   6.378 -3.9147  0.8500 -3.4435
  142OSM   C15F15654   2.047   4.647   6.268 -0.0220 -0.5909  0.5648
  142OSM   H15F15655   1.966   4.707   6.221  1.1365 -0.2877 -1.1015
  142OSM   H15G15656   2.019   4.602   6.366 -2.0352  1.2409  0.9270
  142OSM   C16F15657   2.082   4.548   6.162  0.6456  0.2556  0.0770
  142OSM   H16F15658   2.001   4.474   6.142 -0.8754  1.4016  1.7685
  142OSM   H16G15659   2.167   4.483   6.193 -1.7662 -3.7232 -0.9019
  142OSM   C17F15660   2.137   4.609   6.034 -0.1053 -0.1443  0.2338
  142OSM   H17F15661   2.221   4.680   6.052 -0.9442  1.8388 -2.8842
  142OSM   H17G15662   2.060   4.666   5.978  0.3969  1.0636  0.7231
  142OSM   C18F15663   2.187   4.504   5.938 -0.2495  0.2946  0.2481
  142OSM   H18F15664   2.191   4.407   5.991  2.1399 -0.3826 -1.0120
  142OSM   H18G15665   2.289   4.528   5.901 -0.3232  1.0676  0.5217
  142OSM   H18H15666   2.107   4.498   5.861 -0.3362  0.1881  0.3465
  143OSM      N15667   5.417   6.529   7.535  0.3201  0.1766 -0.2807
  143OSM    C1515668   5.554   6.502   7.492  0.4249  1.0513 -1.0673
  143OSM   H15A15669   5.612   6.463   7.574 -1.8613 -0.4145 -0.0712
  143OSM   H15B15670   5.598   6.596   7.460 -0.1826  1.8322  0.3073
  143OSM   H15C15671   5.564   6.427   7.415  1.0161  0.5393 -0.5028
  143OSM    C1415672   5.343   6.392   7.544  0.6009  0.6269 -0.0476
  143OSM   H14A15673   5.315   6.355   7.447 -2.6971 -0.1168  1.0347
  143OSM   H14B15674   5.250   6.417   7.594  1.2350  0.6506  1.1742
  143OSM   H14C15675   5.390   6.309   7.596  1.9116 -0.0208 -2.1678
  143OSM    C1315676   5.406   6.601   7.664 -0.9644  0.2769  0.2148
  143OSM   H13A15677   5.319   6.665   7.666 -0.4776  0.9420  0.6371
  143OSM   H13B15678   5.489   6.669   7.681 -0.0821 -0.5067 -0.8476
  143OSM   H13C15679   5.401   6.535   7.749  0.2454 -0.1530 -0.0206
  143OSM    C1215680   5.329   6.605   7.429 -0.4364 -0.7698  0.5202
  143OSM   H12A15681   5.225   6.600   7.457 -0.5543 -2.2407 -0.0601
  143OSM   H12B15682   5.325   6.560   7.331  0.2298  1.7304 -0.7455
  143OSM    C1115683   5.365   6.757   7.397 -0.3073  0.1670 -0.7112
  143OSM   H11A15684   5.302   6.788   7.311  0.4544  1.7491 -0.7253
  143OSM   H11B15685   5.466   6.768   7.355  0.5815  1.7483  1.6364
  143OSM      P15686   5.449   6.950   7.562 -0.0077  0.3602 -0.0499
  143OSM    O1315687   5.435   6.976   7.708 -0.1292 -0.0958  0.6209
  143OSM    O1415688   5.584   6.900   7.523  0.0211 -0.3256 -0.5144
  143OSM    O1115689   5.410   7.084   7.479 -0.8130  0.2125 -0.5875
  143OSM    O1215690   5.342   6.848   7.510  0.4141  0.4957  0.4447
  143OSM    C1S15691   5.292   7.102   7.400  0.4350 -0.6415  0.0824
  143OSM    H1S15692   5.229   7.170   7.462  1.6119  0.7216 -0.1617
  143OSM    H1T15693   5.233   7.012   7.373  1.6149 -0.4225 -3.8889
  143OSM     NF15694   5.193   7.227   7.207 -0.0169 -0.1109 -0.8983
  143OSM    HNF15695   5.127   7.166   7.164  0.7174 -0.2083 -1.9296
  143OSM    C2S15696   5.310   7.163   7.254 -0.8473 -0.2072 -0.1516
  143OSM    H2S15697   5.392   7.237   7.262  0.4972 -1.7639  1.0840
  143OSM    C3S15698   5.353   7.044   7.156 -0.1934 -0.1933 -0.1687
  143OSM    H3S15699   5.277   6.964   7.148 -0.8015  0.5426 -2.4955
  143OSM     O315700   5.470   6.981   7.207 -0.2605 -0.3129 -0.3002
  143OSM    HO315701   5.469   6.996   7.302  0.3531 -2.6735  0.1428
  143OSM    C4S15702   5.387   7.104   7.024 -0.3871 -0.6686 -0.4422
  143OSM    H4S15703   5.471   7.175   7.032 -0.4641 -0.2257 -2.8673
  143OSM    C5S15704   5.320   7.095   6.909 -0.0643  0.1275  0.0478
  143OSM    H5S15705   5.231   7.033   6.895  0.0705 -0.4326  1.4688
  143OSM    C6S15706   5.362   7.170   6.782 -0.8810  0.7296  0.4823
  143OSM    H6S15707   5.267   7.206   6.738 -0.1681 -1.0514 -2.8721
  143OSM    H6T15708   5.399   7.101   6.702 -3.3849  1.3818 -1.3827
  143OSM    C7S15709   5.445   7.299   6.783  0.7101  0.9551 -0.6393
  143OSM    H7S15710   5.551   7.266   6.793 -0.0143 -1.0447  1.4261
  143OSM    H7T15711   5.414   7.350   6.877 -0.0474  2.6652 -1.7728
  143OSM    C8S15712   5.436   7.390   6.660  0.3084  0.1179 -0.2480
  143OSM    H8S15713   5.484   7.489   6.673 -1.4555  1.1086 -1.0658
  143OSM    H8T15714   5.331   7.421   6.642  0.5830  0.2644 -1.7141
  143OSM    C9S15715   5.498   7.328   6.539  1.4325 -0.0711  0.4203
  143OSM    H9S15716   5.425   7.250   6.511  0.0157  1.3465  0.0486
  143OSM    H9T15717   5.590   7.272   6.567 -0.9171 -2.8942  3.2194
  143OSM   C10S15718   5.499   7.420   6.416  0.1050 -0.4638  0.3034
  143OSM   H10S15719   5.560   7.512   6.429 -1.1756  1.0419 -3.1367
  143OSM   H10T15720   5.399   7.462   6.391  0.1689 -0.5443 -0.0963
  143OSM   C11S15721   5.541   7.360   6.284  0.5774  0.3879 -0.7497
  143OSM   H11S15722   5.472   7.276   6.262 -0.5335  1.0422  0.1373
  143OSM   H11T15723   5.644   7.319   6.290 -1.0273 -4.0056  3.3590
  143OSM   C12S15724   5.520   7.453   6.169  0.6375  0.0389  0.0331
  143OSM   H12S15725   5.598   7.532   6.169  1.4499 -0.7160  1.4146
  143OSM   H12T15726   5.420   7.500   6.165  1.0350  0.8318 -2.9716
  143OSM   C13S15727   5.525   7.387   6.031  0.1648 -0.3820 -0.5785
  143OSM   H13S15728   5.443   7.314   6.017  0.1810 -0.3575 -0.8152
  143OSM   H13T15729   5.616   7.331   6.001  1.2201  1.5137 -1.1471
  143OSM   C14S15730   5.506   7.485   5.919  0.0645  0.0932  0.1440
  143OSM   H14S15731   5.586   7.562   5.922  0.3496  0.0168 -2.6935
  143OSM   H14T15732   5.417   7.550   5.932 -0.0280  0.3275 -1.4049
  143OSM   C15S15733   5.497   7.419   5.784  0.3629  0.0609  0.3789
  143OSM   H15S15734   5.409   7.352   5.788 -0.9974  1.7328 -0.2136
  143OSM   H15T15735   5.594   7.365   5.778  0.4041  0.1656  0.0796
  143OSM   C16S15736   5.488   7.518   5.668 -0.4174 -0.5955  0.3493
  143OSM   H16S15737   5.542   7.612   5.694  0.5022 -1.0083 -0.0309
  143OSM   H16T15738   5.385   7.546   5.636  0.0158  0.9364  0.2230
  143OSM   C17S15739   5.562   7.473   5.535  0.2716 -0.4547  0.6025
  143OSM   H17S15740   5.523   7.375   5.501  2.9469 -1.4575  0.1897
  143OSM   H17T15741   5.670   7.465   5.560 -0.3021 -0.6320  3.2615
  143OSM   C18S15742   5.540   7.580   5.426  0.4869  0.3643 -0.5010
  143OSM   H18S15743   5.432   7.593   5.405  0.1756  0.3617  0.9650
  143OSM   H18T15744   5.599   7.552   5.336  1.5147  1.9499 -0.3578
  143OSM   H18U15745   5.568   7.681   5.462 -1.1128 -0.1673  2.6523
  143OSM    C1F15746   5.144   7.340   7.249 -1.2449  0.1298 -0.0293
  143OSM     OF15747   5.212   7.412   7.326 -0.1439  0.8762 -0.2985
  143OSM    C2F15748   5.010   7.379   7.206  0.9282  0.6425  0.0983
  143OSM    H2F15749   4.983   7.476   7.253  1.2386  1.5778 -1.5631
  143OSM    H2G15750   4.948   7.299   7.250 -1.3437  1.4316 -1.5118
  143OSM    C3F15751   4.980   7.377   7.053  0.2800  0.1498  0.0645
  143OSM    H3F15752   4.876   7.413   7.040  1.1666  2.5319 -1.1818
  143OSM    H3G15753   4.998   7.275   7.013  0.8406 -0.4243  1.6750
  143OSM    C4F15754   5.074   7.478   6.991  0.0597  0.1345 -0.1946
  143OSM    H4F15755   5.177   7.443   6.971 -0.3120 -0.4590 -1.1268
  143OSM    H4G15756   5.087   7.568   7.054  2.0173 -1.0544  1.2199
  143OSM    C5F15757   5.033   7.547   6.861  0.1075  0.2254  0.4067
  143OSM    H5F15758   5.123   7.612   6.850 -0.1616  0.8478  1.6739
  143OSM    H5G15759   4.944   7.612   6.870 -0.1283  0.0258 -0.4350
  143OSM    C6F15760   5.000   7.446   6.753  0.4662 -0.4142 -0.2066
  143OSM    H6F15761   4.893   7.417   6.758 -0.0294  0.9958 -1.5121
  143OSM    H6G15762   5.063   7.356   6.768 -0.0172 -0.9803 -1.4428
  143OSM    C7F15763   5.030   7.506   6.611 -0.5614  0.5436  0.2075
  143OSM    H7F15764   5.138   7.529   6.613 -0.4417 -0.0270  0.5194
  143OSM    H7G15765   4.967   7.596   6.592 -2.7366 -0.5512  1.7390
  143OSM    C8F15766   4.998   7.399   6.510 -0.6272  0.6256 -0.1354
  143OSM    H8F15767   5.035   7.306   6.558 -0.1361  1.6193  1.4670
  143OSM    H8G15768   5.046   7.416   6.411  1.6263 -2.8832  0.2177
  143OSM    C9F15769   4.851   7.382   6.485 -0.1250  0.3769 -0.2370
  143OSM    H9F15770   4.795   7.350   6.573  0.6479 -0.5204 -0.0628
  143OSM   C10F15771   4.793   7.390   6.366 -0.0896 -0.1523  0.3531
  143OSM   H10F15772   4.685   7.385   6.347 -0.0450  4.0584 -2.2256
  143OSM   C11F15773   4.867   7.428   6.236  0.2534  0.5406  0.1638
  143OSM   H11F15774   4.949   7.354   6.221 -0.7931 -1.1512  2.2232
  143OSM   H11G15775   4.911   7.528   6.255  0.0952  0.7427 -0.5094
  143OSM   C12F15776   4.761   7.439   6.123 -0.5494  0.1944  0.0044
  143OSM   H12F15777   4.697   7.529   6.139 -1.1990 -0.1618 -0.4916
  143OSM   H12G15778   4.691   7.354   6.111 -0.5858 -0.1397  2.2653
  143OSM   C13F15779   4.825   7.457   5.988  0.1890 -0.2766 -0.7429
  143OSM   H13F15780   4.873   7.361   5.959 -1.7193 -1.4043 -0.3180
  143OSM   H13G15781   4.904   7.536   5.988 -0.6277  0.6012  1.2781
  143OSM   C14F15782   4.723   7.491   5.876  1.2180  0.0588 -0.1493
  143OSM   H14F15783   4.671   7.587   5.898  1.1809 -0.0665  0.3182
  143OSM   H14G15784   4.640   7.417   5.881  0.7187  0.6535  1.0037
  143OSM   C15F15785   4.793   7.512   5.740  0.6262 -0.0799 -0.0038
  143OSM   H15F15786   4.802   7.413   5.691 -0.5829  0.1479 -0.7340
  143OSM   H15G15787   4.900   7.543   5.741  0.6753  0.0464 -2.5128
  143OSM   C16F15788   4.720   7.619   5.651 -0.0446 -0.3078  0.5232
  143OSM   H16F15789   4.704   7.716   5.705 -3.4268 -0.1122 -0.5803
  143OSM   H16G15790   4.616   7.585   5.633  0.3290 -1.6973  0.8988
  143OSM   C17F15791   4.804   7.645   5.522  0.7028 -0.0648  0.2330
  143OSM   H17F15792   4.820   7.552   5.464 -0.0725 -0.2305  0.2748
  143OSM   H17G15793   4.897   7.699   5.552  1.0730  0.1868 -1.2578
  143OSM   C18F15794   4.735   7.749   5.430 -0.0929  0.6647 -0.3689
  143OSM   H18F15795   4.751   7.855   5.460 -0.5250  0.9080 -0.9908
  143OSM   H18G15796   4.626   7.728   5.432  0.3870 -2.2571  0.2004
  143OSM   H18H15797   4.765   7.737   5.324 -1.3589 -0.0312 -0.6597
  144OSM      N15798   4.676   6.742   7.826 -0.0203 -0.0434  0.7088
  144OSM    C1515799   4.763   6.620   7.845  0.3159  0.8006  0.0877
  144OSM   H15A15800   4.736   6.560   7.931  0.1353 -0.1126 -0.5998
  144OSM   H15B15801   4.864   6.655   7.859  0.6445  0.0991 -0.5011
  144OSM   H15C15802   4.765   6.557   7.758  2.5150 -0.1066  0.7355
  144OSM    C1415803   4.538   6.695   7.801  0.4995 -0.0811  0.8483
  144OSM   H14A15804   4.485   6.637   7.875 -0.5544 -0.8827 -0.5044
  144OSM   H14B15805   4.533   6.641   7.708 -3.5772  2.2570 -0.5320
  144OSM   H14C15806   4.470   6.774   7.773 -0.6302 -1.8817 -1.8626
  144OSM    C1315807   4.694   6.828   7.953  0.0396  0.2804 -0.1168
  144OSM   H13A15808   4.788   6.794   7.992  0.4160 -2.4667 -3.0101
  144OSM   H13B15809   4.616   6.821   8.027  1.1535  1.0279  1.1842
  144OSM   H13C15810   4.689   6.934   7.931 -0.6628  0.5489  1.2374
  144OSM    C1215811   4.720   6.825   7.707  0.0553 -0.3841 -0.0315
  144OSM   H12A15812   4.819   6.860   7.730  0.6596 -1.8210 -0.3320
  144OSM   H12B15813   4.656   6.913   7.702  1.9267  0.9815 -1.0454
  144OSM    C1115814   4.714   6.763   7.566  0.3858  0.6703  0.4165
  144OSM   H11A15815   4.731   6.842   7.490  0.4378  0.9078  0.6758
  144OSM   H11B15816   4.620   6.707   7.547  0.8916 -0.1957  0.4054
  144OSM      P15817   4.970   6.700   7.524 -0.1304  0.1766 -0.3688
  144OSM    O1315818   5.018   6.800   7.621  0.4910 -0.3659 -0.0565
  144OSM    O1415819   5.043   6.574   7.515 -0.2210 -0.6535 -0.3139
  144OSM    O1115820   4.971   6.767   7.381 -0.1113  0.5133  0.0186
  144OSM    O1215821   4.814   6.664   7.555  0.1049  0.5144 -0.4692
  144OSM    C1S15822   4.943   6.690   7.262 -0.1421 -0.7872  0.3606
  144OSM    H1S15823   4.890   6.594   7.281 -0.8042 -0.5459 -0.1966
  144OSM    H1T15824   5.039   6.668   7.211  0.6207 -0.2987  1.5581
  144OSM     NF15825   4.835   6.687   7.043 -0.0878 -0.0192 -0.2264
  144OSM    HNF15826   4.876   6.717   6.957  2.0271  0.2791  0.8136
  144OSM    C2S15827   4.858   6.774   7.159 -0.2182 -0.5137 -0.0166
  144OSM    H2S15828   4.768   6.814   7.211 -1.0591 -0.7695 -1.2178
  144OSM    C3S15829   4.929   6.905   7.117 -0.2654 -0.5140 -0.1653
  144OSM    H3S15830   5.022   6.874   7.064  0.1894  2.0828 -1.0358
  144OSM     O315831   4.980   6.977   7.227 -0.3882 -0.2256  0.1008
  144OSM    HO315832   4.975   6.906   7.292  1.4745  0.9284  1.6463
  144OSM    C4S15833   4.856   7.001   7.023  0.1077  0.0290  0.8614
  144OSM    H4S15834   4.910   7.003   6.928  0.5245  2.9781  1.0532
  144OSM    C5S15835   4.760   7.090   7.040 -0.2844 -0.0920  0.5484
  144OSM    H5S15836   4.712   7.093   7.139  1.9091  1.2613  1.6371
  144OSM    C6S15837   4.717   7.201   6.942  0.3623  0.4710 -0.4601
  144OSM    H6S15838   4.770   7.194   6.844  0.9745 -1.9297 -0.0085
  144OSM    H6T15839   4.737   7.304   6.978 -0.2709  0.5246 -0.2568
  144OSM    C7S15840   4.570   7.180   6.910  0.0435 -0.2027  0.0245
  144OSM    H7S15841   4.517   7.199   7.006 -1.2140 -1.5050 -0.3770
  144OSM    H7T15842   4.561   7.071   6.887 -0.1192 -0.2472  0.2982
  144OSM    C8S15843   4.513   7.260   6.793 -0.2057 -0.3798  0.6208
  144OSM    H8S15844   4.567   7.231   6.700  0.6731  0.9571  0.6876
  144OSM    H8T15845   4.550   7.360   6.824  0.9010 -0.8079  0.7227
  144OSM    C9S15846   4.360   7.264   6.781  0.0877  0.0823  0.3786
  144OSM    H9S15847   4.322   7.286   6.883  2.8888 -3.5336  2.4707
  144OSM    H9T15848   4.315   7.167   6.752  0.1004 -0.3716  1.8158
  144OSM   C10S15849   4.306   7.360   6.674 -0.1893 -1.1175  0.3489
  144OSM   H10S15850   4.351   7.457   6.704 -0.5931 -1.5293  2.4653
  144OSM   H10T15851   4.195   7.363   6.674 -0.1993 -0.2833 -1.5414
  144OSM   C11S15852   4.355   7.329   6.530  1.0855  0.8327 -0.1106
  144OSM   H11S15853   4.324   7.223   6.516 -1.2367  1.3258  0.8534
  144OSM   H11T15854   4.464   7.347   6.530  1.3322 -0.4578  0.9706
  144OSM   C12S15855   4.287   7.416   6.414 -0.6975  0.2562 -0.2656
  144OSM   H12S15856   4.316   7.523   6.406 -2.7023  0.8577 -0.1299
  144OSM   H12T15857   4.176   7.406   6.419 -0.8598  1.1334 -1.5731
  144OSM   C13S15858   4.325   7.340   6.278 -0.3144 -0.1715 -0.4439
  144OSM   H13S15859   4.280   7.243   6.306  0.8520  0.2614  3.7298
  144OSM   H13T15860   4.435   7.324   6.275  0.4945  4.2142 -2.0832
  144OSM   C14S15861   4.243   7.387   6.165  0.0281  0.7043  0.2752
  144OSM   H14S15862   4.254   7.497   6.159  1.3635  0.5477 -0.5514
  144OSM   H14T15863   4.141   7.366   6.203  0.0390 -1.7378 -0.8442
  144OSM   C15S15864   4.276   7.317   6.029  0.0484  0.5846 -0.7111
  144OSM   H15S15865   4.272   7.206   6.041  1.5092  0.6933  1.2302
  144OSM   H15T15866   4.382   7.346   6.012 -0.3039  2.3184 -0.1720
  144OSM   C16S15867   4.207   7.378   5.910  0.1719 -0.2640  0.5428
  144OSM   H16S15868   4.211   7.488   5.926 -0.3408 -0.5123  2.7179
  144OSM   H16T15869   4.106   7.332   5.923  0.1876 -0.2519  0.7067
  144OSM   C17S15870   4.253   7.334   5.768 -0.2283  0.4623 -1.1068
  144OSM   H17S15871   4.163   7.320   5.704 -2.0229  0.8821  1.2197
  144OSM   H17T15872   4.286   7.228   5.772 -0.4231  0.3850 -1.4640
  144OSM   C18S15873   4.358   7.421   5.707 -0.5430 -0.3672  0.5964
  144OSM   H18S15874   4.364   7.421   5.596 -1.6568  1.7501  0.4765
  144OSM   H18T15875   4.457   7.388   5.745 -0.1301 -0.2659 -0.3672
  144OSM   H18U15876   4.356   7.528   5.739  1.0475  0.7639 -2.6479
  144OSM    C1F15877   4.741   6.589   7.046  0.0653 -0.1813  0.0389
  144OSM     OF15878   4.696   6.543   7.145  0.1036  0.0045 -0.3198
  144OSM    C2F15879   4.697   6.544   6.914 -0.0924  0.5807  0.2506
  144OSM    H2F15880   4.688   6.623   6.835 -0.0544 -0.0162 -0.3613
  144OSM    H2G15881   4.605   6.483   6.926 -0.0469  0.5764  0.5729
  144OSM    C3F15882   4.794   6.443   6.843  0.0572 -0.3657 -0.0070
  144OSM    H3F15883   4.817   6.370   6.924 -0.1334  0.6583  1.0038
  144OSM    H3G15884   4.883   6.497   6.807 -0.3611  0.8292  0.6921
  144OSM    C4F15885   4.729   6.349   6.735 -0.4879 -0.4577 -0.1274
  144OSM    H4F15886   4.642   6.309   6.790 -1.8839  3.5138  0.8832
  144OSM    H4G15887   4.793   6.265   6.700 -0.2998 -0.6207  0.6086
  144OSM    C5F15888   4.682   6.420   6.609 -0.2484  0.4051 -0.3988
  144OSM    H5F15889   4.772   6.476   6.576 -0.0144 -0.3798 -1.1186
  144OSM    H5G15890   4.603   6.491   6.642  2.1818  2.4153  1.5642
  144OSM    C6F15891   4.622   6.335   6.503  0.4806  0.3078  0.3658
  144OSM    H6F15892   4.543   6.273   6.550 -0.8811  0.8319 -1.1647
  144OSM    H6G15893   4.708   6.274   6.468  0.9000  1.0350  0.0870
  144OSM    C7F15894   4.565   6.406   6.372 -0.0727  0.4978  0.3236
  144OSM    H7F15895   4.470   6.458   6.395  0.6041  2.0304 -0.2410
  144OSM    H7G15896   4.546   6.336   6.287  1.9124  2.3710 -1.7903
  144OSM    C8F15897   4.666   6.512   6.318 -0.1466 -0.1375  0.1966
  144OSM    H8F15898   4.756   6.457   6.284  0.2890  0.2833  0.6430
  144OSM    H8G15899   4.690   6.579   6.403  1.0842 -0.3476  0.0324
  144OSM    C9F15900   4.599   6.593   6.211 -0.2619  0.2343 -0.0063
  144OSM    H9F15901   4.505   6.638   6.243  0.5108  0.4049  2.1725
  144OSM   C10F15902   4.642   6.608   6.088 -0.1028  0.0538  0.1843
  144OSM   H10F15903   4.576   6.658   6.015 -0.9102 -0.7718  0.3376
  144OSM   C11F15904   4.772   6.562   6.030  0.2060  0.6302  0.2167
  144OSM   H11F15905   4.837   6.563   6.121  0.9371 -1.0671 -0.2532
  144OSM   H11G15906   4.800   6.628   5.945 -3.2643  1.8085 -0.1877
  144OSM   C12F15907   4.775   6.415   5.983 -0.0651 -0.4154 -0.6489
  144OSM   H12F15908   4.779   6.363   6.082  1.5116  0.3243 -0.2899
  144OSM   H12G15909   4.874   6.389   5.941  0.4712 -3.0605  1.9109
  144OSM   C13F15910   4.666   6.359   5.889  0.1831  0.6881 -0.0688
  144OSM   H13F15911   4.652   6.429   5.804 -1.1575  1.9667  1.1575
  144OSM   H13G15912   4.564   6.349   5.933 -0.8443  1.1802 -2.2328
  144OSM   C14F15913   4.710   6.215   5.834 -0.3694 -0.3223  0.6258
  144OSM   H14F15914   4.735   6.149   5.920  0.5271 -2.2317 -1.0188
  144OSM   H14G15915   4.805   6.223   5.777 -0.5287 -0.8639  0.2723
  144OSM   C15F15916   4.616   6.152   5.735 -0.3408 -0.3006 -0.4592
  144OSM   H15F15917   4.515   6.137   5.778  0.9952 -1.1861  2.6419
  144OSM   H15G15918   4.652   6.051   5.706  1.6781  0.7150 -1.7054
  144OSM   C16F15919   4.610   6.230   5.603  0.3177  0.1471  0.6233
  144OSM   H16F15920   4.714   6.232   5.564  0.3050  0.0434  0.5834
  144OSM   H16G15921   4.585   6.336   5.625  2.0291 -0.0356  4.0831
  144OSM   C17F15922   4.523   6.160   5.495 -0.3573  0.8085 -0.2074
  144OSM   H17F15923   4.559   6.190   5.395  1.2563  1.0583  0.4133
  144OSM   H17G15924   4.416   6.186   5.509 -0.4080  0.5644 -0.1329
  144OSM   C18F15925   4.536   6.008   5.495  0.2817 -0.0429  0.7191
  144OSM   H18F15926   4.489   5.952   5.411 -0.7390  1.9145 -0.0600
  144OSM   H18G15927   4.501   5.965   5.592 -1.6920  0.5522  0.3076
  144OSM   H18H15928   4.643   5.977   5.489  0.9335  2.0399  0.6523
  145OSM      N15929   5.173   2.284   7.819  0.1096  0.3664 -0.5645
  145OSM    C1515930   5.127   2.411   7.884  0.4635  0.3016 -0.0086
  145OSM   H15A15931   5.072   2.382   7.973 -0.2770 -2.2841 -1.2256
  145OSM   H15B15932   5.056   2.462   7.821  0.0584 -1.9517 -1.4828
  145OSM   H15C15933   5.208   2.481   7.901  0.2297  0.7714 -0.7978
  145OSM    C1415934   5.259   2.309   7.702 -0.4362 -0.1057 -0.3453
  145OSM   H14A15935   5.212   2.380   7.635  0.9794 -0.3930 -1.7115
  145OSM   H14B15936   5.291   2.222   7.645 -1.7561 -0.7805 -0.0856
  145OSM   H14C15937   5.350   2.349   7.744 -0.1275  0.7261 -1.7183
  145OSM    C1315938   5.250   2.207   7.919 -0.3767 -0.1053  0.0433
  145OSM   H13A15939   5.179   2.147   7.975 -1.9071  1.1239 -0.5125
  145OSM   H13B15940   5.305   2.251   8.001 -1.2570  1.5849 -0.2382
  145OSM   H13C15941   5.304   2.127   7.870  0.4970 -0.3646  1.3731
  145OSM    C1215942   5.055   2.196   7.761 -0.3499  0.0562 -0.1270
  145OSM   H12A15943   4.979   2.261   7.720  0.7822  2.1522  0.9769
  145OSM   H12B15944   4.996   2.156   7.843  1.1769 -1.2571  0.3769
  145OSM    C1115945   5.086   2.077   7.663  0.3789 -0.3325 -0.3154
  145OSM   H11A15946   5.087   2.105   7.555  2.2996  0.0964 -0.2365
  145OSM   H11B15947   4.992   2.019   7.673  0.7382 -0.8107  0.3409
  145OSM      P15948   5.325   1.962   7.653 -0.0307  0.6744 -0.0626
  145OSM    O1315949   5.436   2.017   7.729 -0.6382  0.2228  0.4075
  145OSM    O1415950   5.319   1.820   7.623 -0.3345 -0.1242 -0.6525
  145OSM    O1115951   5.315   2.039   7.517  0.0680 -0.1466 -0.3416
  145OSM    O1215952   5.192   1.997   7.721  0.4527 -0.3937 -0.8522
  145OSM    C1S15953   5.427   2.021   7.420  0.7655  0.0049 -0.4156
  145OSM    H1S15954   5.471   1.919   7.413  0.7249 -0.0389 -0.0558
  145OSM    H1T15955   5.516   2.087   7.431  0.1419  1.6412 -3.9463
  145OSM     NF15956   5.485   2.037   7.191 -0.0593  0.0689  0.3862
  145OSM    HNF15957   5.556   2.106   7.177  1.0314 -0.4324  2.8616
  145OSM    C2S15958   5.376   2.062   7.282  0.2451  0.1472  0.2836
  145OSM    H2S15959   5.284   2.004   7.260 -0.4483  1.1239  0.5498
  145OSM    C3S15960   5.334   2.212   7.280 -0.1540  0.7951 -0.4061
  145OSM    H3S15961   5.426   2.275   7.274  1.0416 -0.8969 -0.6865
  145OSM     O315962   5.279   2.266   7.400  0.1064  0.1836 -0.1113
  145OSM    HO315963   5.286   2.199   7.468 -2.2331  1.3956  1.4634
  145OSM    C4S15964   5.246   2.237   7.169  0.7709  1.0150  0.4578
  145OSM    H4S15965   5.169   2.163   7.143 -0.3857  2.5390 -0.6555
  145OSM    C5S15966   5.236   2.345   7.092  0.3716 -0.3835 -0.5048
  145OSM    H5S15967   5.299   2.432   7.115 -0.9562  0.2651  0.8596
  145OSM    C6S15968   5.151   2.372   6.967  0.4598 -1.0734 -0.0814
  145OSM    H6S15969   5.207   2.448   6.909 -1.3032  0.8950  0.6423
  145OSM    H6T15970   5.056   2.421   6.996  0.4533 -0.0908 -1.6544
  145OSM    C7S15971   5.129   2.241   6.885  0.8376  0.1902 -0.5979
  145OSM    H7S15972   5.071   2.177   6.956  0.0109  0.3390 -1.1310
  145OSM    H7T15973   5.221   2.185   6.858  1.1770  0.2954  0.3004
  145OSM    C8S15974   5.045   2.260   6.763  0.5697  0.2156  0.4885
  145OSM    H8S15975   4.971   2.343   6.773 -0.1955 -0.2902 -0.7911
  145OSM    H8T15976   4.990   2.164   6.752 -1.7806  1.1816  2.6803
  145OSM    C9S15977   5.141   2.292   6.646  0.1586 -0.9518 -0.7087
  145OSM    H9S15978   5.229   2.225   6.638  2.0887  1.2835  0.3108
  145OSM    H9T15979   5.189   2.387   6.679  2.2324 -2.2461  0.1538
  145OSM   C10S15980   5.080   2.319   6.506  0.8583 -0.0204 -0.1161
  145OSM   H10S15981   5.036   2.420   6.491  0.2061 -0.5922 -2.4053
  145OSM   H10T15982   5.006   2.238   6.490  1.7460 -1.4155  2.2279
  145OSM   C11S15983   5.185   2.304   6.396 -0.2064  0.3490 -0.2949
  145OSM   H11S15984   5.220   2.199   6.386 -0.2185  0.4024 -1.0012
  145OSM   H11T15985   5.272   2.367   6.424  0.0396 -0.3683  0.6031
  145OSM   C12S15986   5.132   2.340   6.261  0.2075  0.3637  0.3897
  145OSM   H12S15987   5.104   2.448   6.265  2.0325  0.9591 -1.2812
  145OSM   H12T15988   5.040   2.278   6.260  2.1519 -2.7440  1.0651
  145OSM   C13S15989   5.212   2.323   6.128  0.2503 -0.2810  0.7780
  145OSM   H13S15990   5.256   2.221   6.128  2.1994  0.4749 -1.1099
  145OSM   H13T15991   5.305   2.384   6.135 -0.7535  1.2241  1.6221
  145OSM   C14S15992   5.124   2.360   6.007  0.3737  0.4722  0.0071
  145OSM   H14S15993   5.179   2.341   5.912 -0.6799 -0.1920 -0.4971
  145OSM   H14T15994   5.086   2.464   5.998 -2.2507 -0.4737 -1.0036
  145OSM   C15S15995   4.997   2.269   5.992 -0.0864 -0.2462 -0.5586
  145OSM   H15S15996   4.923   2.292   6.072 -1.2387 -1.1154 -1.3435
  145OSM   H15T15997   5.042   2.169   6.004 -1.0519 -0.4464  1.9036
  145OSM   C16S15998   4.943   2.283   5.849  0.4235  0.7988 -0.0633
  145OSM   H16S15999   5.023   2.248   5.780 -0.0426 -0.8530  0.1907
  145OSM   H16T16000   4.908   2.384   5.820 -1.9145  0.2904  0.7488
  145OSM   C17S16001   4.825   2.196   5.813 -0.5908  0.6235 -0.8614
  145OSM   H17S16002   4.857   2.096   5.849  1.5073  1.7042  0.4754
  145OSM   H17T16003   4.813   2.186   5.703 -1.1305  1.7719 -0.9279
  145OSM   C18S16004   4.681   2.252   5.864  0.2140 -0.7244  0.1731
  145OSM   H18S16005   4.640   2.325   5.792 -1.6103 -2.5900 -0.7750
  145OSM   H18T16006   4.697   2.300   5.963 -3.0699 -1.3553  1.1072
  145OSM   H18U16007   4.604   2.173   5.876  0.1753 -0.4937  1.6391
  145OSM    C1F16008   5.512   1.925   7.122  0.3597 -0.5165 -0.5747
  145OSM     OF16009   5.452   1.824   7.150 -0.5466  0.4478  0.4804
  145OSM    C2F16010   5.617   1.936   7.013  0.3442 -0.0024  0.0755
  145OSM    H2F16011   5.678   2.020   7.052  0.1745  0.7071 -1.1579
  145OSM    H2G16012   5.582   1.965   6.912  4.1894  0.1287 -1.3790
  145OSM    C3F16013   5.704   1.809   6.996 -0.3520 -0.1065 -0.2836
  145OSM    H3F16014   5.639   1.732   6.949  1.6979 -2.7262  0.9183
  145OSM    H3G16015   5.739   1.767   7.093  0.3386  1.4499  0.1710
  145OSM    C4F16016   5.837   1.824   6.922  0.3631 -0.2294 -0.0263
  145OSM    H4F16017   5.895   1.729   6.919 -1.0490 -1.2962  2.7470
  145OSM    H4G16018   5.895   1.889   6.990  0.2659 -1.6038  1.4253
  145OSM    C5F16019   5.837   1.902   6.787  0.0351 -0.1269 -0.4001
  145OSM    H5F16020   5.943   1.908   6.756  0.7385 -1.6835  1.4626
  145OSM    H5G16021   5.798   2.004   6.806  2.8364  0.4546  3.3958
  145OSM    C6F16022   5.746   1.836   6.676  0.5908 -0.0113 -0.1981
  145OSM    H6F16023   5.639   1.845   6.705  0.1829  0.0813 -1.6095
  145OSM    H6G16024   5.770   1.728   6.676 -2.4110 -0.8700  2.9718
  145OSM    C7F16025   5.778   1.899   6.540  0.1902  0.4627  0.2332
  145OSM    H7F16026   5.888   1.899   6.523  0.2199 -2.0212 -0.0098
  145OSM    H7G16027   5.762   2.008   6.549  2.1107  0.8771 -0.8204
  145OSM    C8F16028   5.705   1.847   6.425 -0.6315 -0.0202  0.3633
  145OSM    H8F16029   5.735   1.924   6.350 -1.4884 -0.5632 -0.5532
  145OSM    H8G16030   5.595   1.856   6.438 -0.7208  2.0759 -1.3037
  145OSM    C9F16031   5.756   1.719   6.372  0.5411  0.0727  0.5517
  145OSM    H9F16032   5.780   1.648   6.453 -0.2769 -1.0996 -0.2012
  145OSM   C10F16033   5.781   1.673   6.241  0.4973 -0.0728  0.0665
  145OSM   H10F16034   5.826   1.574   6.228  1.2595  0.2294  0.3269
  145OSM   C11F16035   5.758   1.748   6.113 -0.4045  0.5265 -0.1588
  145OSM   H11F16036   5.853   1.768   6.060 -1.4386  1.3414 -1.7836
  145OSM   H11G16037   5.719   1.851   6.131 -0.4789  0.1223  2.4030
  145OSM   C12F16038   5.662   1.660   6.020  0.2157 -0.2790 -0.7909
  145OSM   H12F16039   5.560   1.685   6.058  0.5622  1.4308 -0.9044
  145OSM   H12G16040   5.677   1.551   6.034  1.6372  0.0499  0.5983
  145OSM   C13F16041   5.685   1.702   5.876 -0.1511 -0.0567 -0.2479
  145OSM   H13F16042   5.793   1.702   5.850  0.0582  0.2423  0.6007
  145OSM   H13G16043   5.647   1.804   5.851 -0.6098 -0.0334  0.5229
  145OSM   C14F16044   5.630   1.608   5.769  0.3751  0.2960 -0.0000
  145OSM   H14F16045   5.683   1.510   5.767  0.5875  0.4013 -2.3207
  145OSM   H14G16046   5.674   1.651   5.677  2.3584  0.0956  0.7998
  145OSM   C15F16047   5.475   1.603   5.776 -0.0414  0.3799 -0.1703
  145OSM   H15F16048   5.442   1.709   5.765  0.6781  0.5895 -0.3099
  145OSM   H15G16049   5.446   1.561   5.875 -1.4081 -0.7720 -1.0151
  145OSM   C16F16050   5.410   1.520   5.669  0.0427  0.0964 -0.2855
  145OSM   H16F16051   5.300   1.527   5.685  0.4944  0.9094  3.2384
  145OSM   H16G16052   5.441   1.414   5.677 -1.0862 -0.2985 -0.8815
  145OSM   C17F16053   5.458   1.560   5.528 -0.2733 -0.2131 -0.2270
  145OSM   H17F16054   5.568   1.554   5.513 -0.2725  1.0649 -0.8581
  145OSM   H17G16055   5.432   1.663   5.499  0.2673 -0.1531 -0.5056
  145OSM   C18F16056   5.390   1.464   5.430  0.1012  0.1730 -0.1671
  145OSM   H18F16057   5.282   1.487   5.419 -0.8973 -3.7167 -0.0898
  145OSM   H18G16058   5.393   1.356   5.457 -3.2167  0.1117  0.3378
  145OSM   H18H16059   5.441   1.476   5.331 -0.5907  0.8326 -0.4470
  146OSM      N16060   0.844   3.777   8.174  0.6077  0.1176 -0.3115
  146OSM    C1516061   0.736   3.831   8.250  0.0017 -0.0882 -0.0016
  146OSM   H15A16062   0.642   3.794   8.212  0.8662  0.6983 -3.2153
  146OSM   H15B16063   0.735   3.939   8.258 -0.9308 -0.1611  1.1091
  146OSM   H15C16064   0.740   3.794   8.351 -1.3398 -1.4162 -0.3969
  146OSM    C1416065   0.964   3.794   8.258  0.0925 -0.5916  0.4575
  146OSM   H14A16066   1.044   3.765   8.192 -0.4125  2.6448 -1.7985
  146OSM   H14B16067   0.970   3.736   8.349  2.1032  1.9252  2.1094
  146OSM   H14C16068   0.978   3.893   8.300  1.7758 -0.7278  0.2682
  146OSM    C1316069   0.813   3.631   8.142  0.4329 -0.1492 -0.2674
  146OSM   H13A16070   0.813   3.579   8.237  1.6496  3.1377  1.7402
  146OSM   H13B16071   0.898   3.601   8.082  1.2905  5.1032 -2.2258
  146OSM   H13C16072   0.717   3.617   8.096 -0.4513  1.2078  1.0393
  146OSM    C1216073   0.855   3.860   8.048  0.3356 -0.2247 -0.0470
  146OSM   H12A16074   0.847   3.965   8.070  1.2630 -0.4313  1.3446
  146OSM   H12B16075   0.772   3.823   7.990 -0.8911  2.0096  0.1811
  146OSM    C1116076   0.977   3.832   7.960  0.0690 -0.3490  0.3498
  146OSM   H11A16077   1.059   3.867   8.026  0.1435  2.4400 -1.0866
  146OSM   H11B16078   0.977   3.898   7.871  3.6104 -2.9416 -1.8938
  146OSM      P16079   0.899   3.637   7.793 -0.3363  0.0395  0.1845
  146OSM    O1316080   0.886   3.492   7.814  0.3385 -0.0713 -0.4231
  146OSM    O1416081   0.775   3.713   7.782  0.3764 -0.2587 -0.1669
  146OSM    O1116082   0.995   3.661   7.662  0.1538  0.3185 -0.2235
  146OSM    O1216083   0.992   3.697   7.908 -0.1652  0.5042 -0.0410
  146OSM    C1S16084   1.028   3.792   7.613  0.2827  0.2666 -0.4585
  146OSM    H1S16085   1.100   3.849   7.675 -1.4117  1.1785  0.7430
  146OSM    H1T16086   0.938   3.857   7.610 -0.1283  0.0061  2.9669
  146OSM     NF16087   1.084   3.930   7.417 -0.0467 -0.4994 -0.4787
  146OSM    HNF16088   1.012   3.968   7.359 -0.1098  1.9086  1.0190
  146OSM    C2S16089   1.073   3.787   7.461 -0.5813 -0.4975  0.0553
  146OSM    H2S16090   1.171   3.734   7.462  1.2036  2.4323  3.0554
  146OSM    C3S16091   0.971   3.699   7.384  0.0326 -0.3324  0.1101
  146OSM    H3S16092   0.867   3.731   7.406  0.1410 -0.6116  1.0633
  146OSM     O316093   0.971   3.561   7.420 -0.0494  0.5486 -0.3762
  146OSM    HO316094   0.995   3.571   7.512  0.1483  0.1314 -0.3800
  146OSM    C4S16095   1.005   3.705   7.240  0.5259 -0.1470  0.0613
  146OSM    H4S16096   1.087   3.638   7.211 -0.0547 -0.6749 -0.3883
  146OSM    C5S16097   0.940   3.775   7.146  0.0236  0.1423  0.3992
  146OSM    H5S16098   0.854   3.837   7.172 -1.5270 -1.7737  0.0436
  146OSM    C6S16099   0.983   3.776   7.000 -0.1052  0.1457 -0.1063
  146OSM    H6S16100   0.902   3.762   6.926  0.0245  0.2572 -0.2698
  146OSM    H6T16101   1.067   3.710   6.971 -0.2077  0.9479 -2.3706
  146OSM    C7S16102   1.040   3.921   6.968  0.6539 -0.0800  0.2961
  146OSM    H7S16103   1.138   3.930   7.020  0.6425  0.8176  0.1876
  146OSM    H7T16104   0.971   3.994   7.015 -1.2293 -2.0303  0.7110
  146OSM    C8S16105   1.064   3.955   6.816  0.3900  0.1608 -0.0579
  146OSM    H8S16106   1.151   3.894   6.787 -1.0103 -2.7425  1.4903
  146OSM    H8T16107   1.096   4.061   6.807 -0.8581  0.4676 -1.2828
  146OSM    C9S16108   0.934   3.951   6.728  0.6511  0.0929  0.0616
  146OSM    H9S16109   0.865   4.016   6.786  1.6328  0.5767  0.7088
  146OSM    H9T16110   0.888   3.850   6.719 -0.4293  0.4132  1.5353
  146OSM   C10S16111   0.959   3.993   6.582 -0.7221 -0.1871 -0.1955
  146OSM   H10S16112   1.023   3.911   6.542 -0.3652 -2.1666  3.8846
  146OSM   H10T16113   1.011   4.091   6.578  1.1010 -0.7938  3.6379
  146OSM   C11S16114   0.832   3.980   6.502 -0.9521  0.0655  0.5740
  146OSM   H11S16115   0.756   4.052   6.540 -0.6341  1.0148 -0.5336
  146OSM   H11T16116   0.788   3.881   6.526 -0.2177 -0.3866  0.0996
  146OSM   C12S16117   0.861   3.995   6.348 -1.4054 -0.3476  0.4757
  146OSM   H12S16118   0.929   3.916   6.311 -1.2989  0.4394 -1.0871
  146OSM   H12T16119   0.899   4.098   6.335 -0.8939 -0.4040  1.4598
  146OSM   C13S16120   0.727   3.992   6.269 -0.3354 -0.4490  0.3808
  146OSM   H13S16121   0.702   4.096   6.240  0.2337 -0.0940  1.1222
  146OSM   H13T16122   0.652   3.938   6.330 -1.9765  1.6123  0.2704
  146OSM   C14S16123   0.744   3.907   6.134  1.2623 -0.1440  0.0471
  146OSM   H14S16124   0.813   3.823   6.157 -0.7237 -2.7900 -2.8175
  146OSM   H14T16125   0.792   3.971   6.057  0.2898  0.1562 -0.3276
  146OSM   C15S16126   0.616   3.838   6.086 -0.5435 -0.6020 -0.1918
  146OSM   H15S16127   0.531   3.906   6.064 -1.4589 -1.3279  0.9881
  146OSM   H15T16128   0.595   3.763   6.165  0.5723  0.5436  1.2807
  146OSM   C16S16129   0.645   3.766   5.955  0.3572  0.3210  0.8234
  146OSM   H16S16130   0.732   3.698   5.967 -0.2564 -0.4158  1.1709
  146OSM   H16T16131   0.663   3.836   5.871 -2.5420 -0.1476 -0.2984
  146OSM   C17S16132   0.523   3.672   5.916 -0.0495 -0.0435 -0.4676
  146OSM   H17S16133   0.430   3.732   5.927  1.4155  2.5266 -1.1260
  146OSM   H17T16134   0.516   3.585   5.985  0.0401 -1.1270 -1.7902
  146OSM   C18S16135   0.531   3.616   5.779 -0.5083 -0.5238  0.7484
  146OSM   H18S16136   0.469   3.666   5.702 -0.3661 -1.4516  0.0281
  146OSM   H18T16137   0.492   3.512   5.775 -1.7750 -0.0207 -0.9339
  146OSM   H18U16138   0.629   3.609   5.728 -2.0415 -0.0359 -2.4996
  146OSM    C1F16139   1.185   4.001   7.464  1.1331 -0.3265  0.0340
  146OSM     OF16140   1.264   3.954   7.539  0.0944  0.9708 -0.0729
  146OSM    C2F16141   1.210   4.143   7.418 -0.5720  0.4364 -0.2055
  146OSM    H2F16142   1.310   4.176   7.453 -0.9391  0.7637  0.5643
  146OSM    H2G16143   1.134   4.216   7.455  1.5236  1.3033  2.8301
  146OSM    C3F16144   1.224   4.158   7.262  0.4783 -0.0766  0.7597
  146OSM    H3F16145   1.228   4.264   7.231 -2.0160 -0.0482  0.3791
  146OSM    H3G16146   1.138   4.118   7.205 -1.0354  2.2936  1.2653
  146OSM    C4F16147   1.357   4.091   7.212  0.1958  0.1624  0.2808
  146OSM    H4F16148   1.336   3.982   7.210 -0.3266  0.2681 -1.7902
  146OSM    H4G16149   1.441   4.114   7.281  1.7185 -1.7258 -0.8347
  146OSM    C5F16150   1.388   4.125   7.064 -0.2919  0.0856  0.5072
  146OSM    H5F16151   1.408   4.233   7.051 -1.6024  0.2468 -0.4690
  146OSM    H5G16152   1.303   4.099   6.996 -0.0982 -1.1292  0.6929
  146OSM    C6F16153   1.513   4.056   7.019 -0.8159  0.2956  0.0821
  146OSM    H6F16154   1.471   3.954   7.009 -1.5239  0.6682 -1.0287
  146OSM    H6G16155   1.585   4.058   7.103 -2.0050  2.3295  1.1276
  146OSM    C7F16156   1.570   4.084   6.876  0.1318  0.4712  0.0402
  146OSM    H7F16157   1.615   4.184   6.888 -2.3270  1.9511 -2.1104
  146OSM    H7G16158   1.475   4.098   6.820 -0.6662  0.0849  1.2418
  146OSM    C8F16159   1.654   3.973   6.813 -0.2426 -0.3352 -0.2827
  146OSM    H8F16160   1.589   3.883   6.800  0.1457 -0.8733  1.2771
  146OSM    H8G16161   1.731   3.949   6.890  0.0552  1.8744  0.1694
  146OSM    C9F16162   1.738   4.020   6.700 -0.3288  0.6760  0.0004
  146OSM    H9F16163   1.846   4.033   6.722  0.2301 -2.2172 -0.6824
  146OSM   C10F16164   1.706   4.027   6.572  0.8015  0.2593  0.1633
  146OSM   H10F16165   1.784   4.062   6.504  0.9634 -0.9125 -0.2841
  146OSM   C11F16166   1.574   4.011   6.505 -0.2617  0.7636  0.1141
  146OSM   H11F16167   1.522   3.921   6.544  1.6187 -0.0699  0.8535
  146OSM   H11G16168   1.603   3.986   6.401  0.3251 -0.8115  0.6285
  146OSM   C12F16169   1.478   4.128   6.486  0.0693  0.2928  0.2278
  146OSM   H12F16170   1.508   4.230   6.518  0.0315  0.4832 -0.3324
  146OSM   H12G16171   1.397   4.115   6.561 -1.2112 -0.4846 -1.2490
  146OSM   C13F16172   1.421   4.127   6.337 -0.6260  0.2040 -0.4790
  146OSM   H13F16173   1.432   4.023   6.301  2.1108 -0.1895  1.1953
  146OSM   H13G16174   1.493   4.190   6.280  1.3591 -2.8596 -1.5991
  146OSM   C14F16175   1.289   4.190   6.326  0.1646  0.2384 -0.5384
  146OSM   H14F16176   1.217   4.118   6.370 -0.1496 -0.0750 -1.5331
  146OSM   H14G16177   1.289   4.288   6.378 -0.3198  0.8764 -1.7107
  146OSM   C15F16178   1.241   4.209   6.182 -0.6022 -0.0620  0.0118
  146OSM   H15F16179   1.315   4.274   6.129  1.5553 -1.6482  0.9316
  146OSM   H15G16180   1.148   4.269   6.191 -0.2291  0.5095  0.1193
  146OSM   C16F16181   1.210   4.071   6.118  0.3656  0.2084 -0.1899
  146OSM   H16F16182   1.151   4.011   6.191  0.8754  0.2689  0.2754
  146OSM   H16G16183   1.305   4.014   6.112  0.6312  0.4156  1.6327
  146OSM   C17F16184   1.132   4.074   5.990  0.1580  0.2494  0.3133
  146OSM   H17F16185   1.189   4.142   5.923 -2.0616  0.5613 -1.3757
  146OSM   H17G16186   1.034   4.117   6.022  0.3674 -0.2520  1.6683
  146OSM   C18F16187   1.109   3.932   5.924 -0.3779 -0.5348 -0.1880
  146OSM   H18F16188   1.076   3.952   5.819 -1.3194 -0.8059  0.0400
  146OSM   H18G16189   1.031   3.874   5.978  0.2237  1.3805  2.9604
  146OSM   H18H16190   1.202   3.873   5.913  0.5693  0.4021  2.1716
  147OSM      N16191   4.024   5.270   3.047  0.0551 -0.3790  0.1530
  147OSM    C1516192   3.997   5.172   2.934 -0.2878  0.2605  0.6070
  147OSM   H15A16193   3.926   5.095   2.958 -1.3231  0.8116 -0.5873
  147OSM   H15B16194   4.094   5.126   2.922 -0.6428 -0.3311 -0.0628
  147OSM   H15C16195   3.965   5.215   2.841 -0.1243 -1.7471 -0.4240
  147OSM    C1416196   3.898   5.348   3.063 -0.1863 -0.0604  0.4335
  147OSM   H14A16197   3.887   5.400   2.969  0.9786 -0.0800  0.2707
  147OSM   H14B16198   3.902   5.422   3.142 -0.7050 -1.2134  1.5746
  147OSM   H14C16199   3.808   5.288   3.070  0.5038 -1.1264  0.3529
  147OSM    C1316200   4.040   5.186   3.174 -0.3511 -0.2208 -0.0808
  147OSM   H13A16201   4.078   5.088   3.153 -1.1670 -0.1582 -2.0242
  147OSM   H13B16202   3.939   5.171   3.211 -0.5221 -0.9076 -0.8206
  147OSM   H13C16203   4.101   5.244   3.242  0.7889  0.5003 -1.6734
  147OSM    C1216204   4.153   5.350   3.030  0.7551  0.5690  0.5152
  147OSM   H12A16205   4.147   5.387   2.929  1.2301  2.0551  1.0060
  147OSM   H12B16206   4.236   5.283   3.016  0.3299  0.0310  0.5284
  147OSM    C1116207   4.175   5.471   3.117 -0.2013 -0.1097 -0.2597
  147OSM   H11A16208   4.085   5.536   3.111  0.2749  0.4784 -1.4031
  147OSM   H11B16209   4.258   5.537   3.084 -1.1122 -0.0294 -2.5963
  147OSM      P16210   4.324   5.392   3.324 -0.0536 -0.0125  0.4871
  147OSM    O1316211   4.344   5.250   3.291  0.1386  0.1768  0.6196
  147OSM    O1416212   4.428   5.490   3.289  0.7510 -0.3495 -0.3034
  147OSM    O1116213   4.290   5.400   3.481  0.1463  0.0466  0.0709
  147OSM    O1216214   4.184   5.438   3.255 -0.0185  0.6173 -0.2806
  147OSM    C1S16215   4.264   5.527   3.543  0.2836 -0.6839  0.0347
  147OSM    H1S16216   4.176   5.572   3.493  1.0080  1.5747  0.6537
  147OSM    H1T16217   4.342   5.605   3.528  0.1241 -0.2388  1.3915
  147OSM     NF16218   4.178   5.629   3.746  0.5036 -0.2661  0.2278
  147OSM    HNF16219   4.245   5.688   3.790  0.5729 -1.1116  1.2948
  147OSM    C2S16220   4.231   5.508   3.691  0.4988 -0.8506  0.1967
  147OSM    H2S16221   4.153   5.429   3.692 -0.9866  0.5166  2.0727
  147OSM    C3S16222   4.345   5.447   3.769  0.4222 -0.0416  0.5437
  147OSM    H3S16223   4.436   5.511   3.772  1.1390 -1.0766  1.5295
  147OSM     O316224   4.406   5.328   3.710 -0.3637  0.5143  0.1705
  147OSM    HO316225   4.384   5.324   3.617  0.0098 -0.2370  0.1085
  147OSM    C4S16226   4.304   5.430   3.911 -0.0379  0.1491 -1.1552
  147OSM    H4S16227   4.327   5.517   3.974 -0.7648 -0.0761 -0.5738
  147OSM    C5S16228   4.246   5.335   3.982  0.4095  0.4776  0.0685
  147OSM    H5S16229   4.217   5.238   3.939 -1.1527  0.2694  1.5010
  147OSM    C6S16230   4.227   5.336   4.135  0.9115  0.3834 -0.1421
  147OSM    H6S16231   4.251   5.238   4.181  2.4569  1.0930  0.6296
  147OSM    H6T16232   4.118   5.354   4.144  0.9270 -0.3859  2.1109
  147OSM    C7S16233   4.300   5.436   4.219 -0.4123 -0.6641  0.1865
  147OSM    H7S16234   4.251   5.536   4.212  0.4693 -0.1727  0.7724
  147OSM    H7T16235   4.408   5.449   4.195  0.0075 -2.2892  1.0448
  147OSM    C8S16236   4.313   5.388   4.367  0.2228  0.5891  1.1692
  147OSM    H8S16237   4.371   5.293   4.368 -0.3906  0.1815 -0.0544
  147OSM    H8T16238   4.214   5.370   4.414 -1.3705 -1.5163 -2.5975
  147OSM    C9S16239   4.403   5.488   4.453 -0.4573 -0.0174 -0.5838
  147OSM    H9S16240   4.383   5.598   4.448  0.9400  0.2616 -0.3250
  147OSM    H9T16241   4.503   5.482   4.405  0.2960  0.8060  0.7919
  147OSM   C10S16242   4.409   5.445   4.599 -0.2414 -0.3178  0.2923
  147OSM   H10S16243   4.449   5.342   4.601 -0.7943 -0.5316  0.5375
  147OSM   H10T16244   4.307   5.441   4.643 -0.7592 -0.0509 -0.8309
  147OSM   C11S16245   4.504   5.536   4.674  0.0747 -0.2795  0.5938
  147OSM   H11S16246   4.463   5.638   4.687  0.0670 -0.6154  4.3425
  147OSM   H11T16247   4.596   5.549   4.613  1.8003 -1.6260  2.7490
  147OSM   C12S16248   4.527   5.491   4.814  0.6599  0.0096 -0.3178
  147OSM   H12S16249   4.581   5.394   4.818 -1.2158 -1.0606  1.5340
  147OSM   H12T16250   4.433   5.460   4.865  2.1613 -1.2466  1.8532
  147OSM   C13S16251   4.613   5.592   4.898  0.1308  0.6051  0.6462
  147OSM   H13S16252   4.555   5.686   4.890 -2.4730 -1.0385 -1.5134
  147OSM   H13T16253   4.702   5.610   4.834 -0.5787  0.7509 -0.3215
  147OSM   C14S16254   4.633   5.553   5.047  0.2793  0.0624  0.5274
  147OSM   H14S16255   4.532   5.546   5.092 -0.9309 -0.4959 -2.0867
  147OSM   H14T16256   4.694   5.631   5.098  1.1977 -0.7715  0.7301
  147OSM   C15S16257   4.708   5.428   5.057 -0.2698  0.1025  0.3389
  147OSM   H15S16258   4.808   5.437   5.010 -0.6257 -0.0729 -0.4691
  147OSM   H15T16259   4.666   5.337   5.009  1.3345 -0.3154 -0.3225
  147OSM   C16S16260   4.717   5.388   5.210 -0.7889  0.0742  0.5960
  147OSM   H16S16261   4.611   5.379   5.241 -1.0756 -2.3693 -0.8882
  147OSM   H16T16262   4.773   5.464   5.269  0.2851 -0.2587  0.0222
  147OSM   C17S16263   4.781   5.253   5.225  0.1910 -0.3300 -0.6514
  147OSM   H17S16264   4.871   5.261   5.162  2.2147  1.3443  2.1934
  147OSM   H17T16265   4.709   5.173   5.196 -2.4704  0.7813  2.2740
  147OSM   C18S16266   4.825   5.229   5.369 -0.1024  0.0194  0.4682
  147OSM   H18S16267   4.892   5.141   5.369  0.9583  0.7703 -1.3717
  147OSM   H18T16268   4.742   5.221   5.442  1.5685 -0.5067  2.3758
  147OSM   H18U16269   4.888   5.313   5.404  2.3114 -1.6706  0.3864
  147OSM    C1F16270   4.059   5.676   3.718 -0.2921 -0.3401  0.0037
  147OSM     OF16271   3.970   5.607   3.663  0.6661 -0.0834  0.2302
  147OSM    C2F16272   4.040   5.816   3.755 -0.1169 -0.3358 -0.0007
  147OSM    H2F16273   4.045   5.865   3.655  1.0028 -0.3941  0.0121
  147OSM    H2G16274   4.126   5.862   3.807 -0.3160  1.1301 -0.9052
  147OSM    C3F16275   3.906   5.827   3.830  0.4058 -0.1900  0.9021
  147OSM    H3F16276   3.827   5.785   3.764  1.9003  0.7851 -1.6051
  147OSM    H3G16277   3.885   5.935   3.846  2.6325  0.6070 -1.0596
  147OSM    C4F16278   3.890   5.753   3.968  0.1933 -0.0197  0.4119
  147OSM    H4F16279   3.918   5.651   3.932 -0.0158  0.1677 -0.2946
  147OSM    H4G16280   3.785   5.766   4.004  0.6084 -0.0335  1.6752
  147OSM    C5F16281   3.986   5.800   4.075 -0.0407 -0.4116  0.3258
  147OSM    H5F16282   3.975   5.910   4.091 -2.2953 -0.2134 -1.9160
  147OSM    H5G16283   4.089   5.780   4.039  0.3350  0.6413  0.7910
  147OSM    C6F16284   3.973   5.744   4.220  0.3865 -0.1425  0.5793
  147OSM    H6F16285   3.979   5.633   4.212 -0.9765 -0.3167  1.6550
  147OSM    H6G16286   3.878   5.783   4.260  0.4031 -1.0292  1.5258
  147OSM    C7F16287   4.094   5.797   4.309 -0.2841  0.3605 -0.1342
  147OSM    H7F16288   4.081   5.907   4.310  1.9098  0.7523  3.3125
  147OSM    H7G16289   4.186   5.764   4.258 -0.3123 -2.1624  1.2798
  147OSM    C8F16290   4.096   5.734   4.449  0.1415  0.4924 -1.0367
  147OSM    H8F16291   4.198   5.762   4.484 -0.7174  1.7084  0.6093
  147OSM    H8G16292   4.094   5.623   4.447  0.3697  0.3707  1.6253
  147OSM    C9F16293   3.983   5.769   4.546 -0.6336 -0.4874 -0.1938
  147OSM    H9F16294   3.955   5.875   4.556  2.3653  0.2240  2.1665
  147OSM   C10F16295   3.902   5.693   4.622 -0.2632 -0.0895 -0.3092
  147OSM   H10F16296   3.829   5.742   4.689  2.0976  1.4851  1.2512
  147OSM   C11F16297   3.907   5.543   4.627 -0.8187  0.9806 -0.1249
  147OSM   H11F16298   3.966   5.509   4.540  1.5653  2.5450  0.7629
  147OSM   H11G16299   3.811   5.490   4.643 -0.1146 -0.3154 -0.0303
  147OSM   C12F16300   4.000   5.504   4.745  0.3267  0.0445  0.2268
  147OSM   H12F16301   3.961   5.557   4.835  1.5827 -1.2273  1.5707
  147OSM   H12G16302   4.107   5.522   4.724  0.6188 -1.3524  0.4163
  147OSM   C13F16303   3.995   5.347   4.773  0.0436  0.1546 -0.1096
  147OSM   H13F16304   4.030   5.282   4.690  1.4617  0.9848 -0.1927
  147OSM   H13G16305   3.887   5.328   4.791 -0.3583  0.9674 -1.5387
  147OSM   C14F16306   4.056   5.308   4.907 -0.3560 -0.2009  0.1239
  147OSM   H14F16307   4.005   5.374   4.980  1.1619 -0.0186  1.0669
  147OSM   H14G16308   4.156   5.356   4.906 -0.3248 -0.2321 -1.6085
  147OSM   C15F16309   4.056   5.153   4.928  0.4565 -0.2533 -0.1912
  147OSM   H15F16310   4.118   5.122   5.015 -0.1729 -1.1632 -0.0537
  147OSM   H15G16311   4.105   5.097   4.845  0.9430 -0.5509  0.2908
  147OSM   C16F16312   3.912   5.097   4.952  0.7156  0.0162 -0.0140
  147OSM   H16F16313   3.839   5.129   4.874 -0.6224 -0.3682  1.0311
  147OSM   H16G16314   3.859   5.137   5.042 -1.2765 -1.3889 -0.4986
  147OSM   C17F16315   3.894   4.946   4.960  0.2372  0.2447  0.4734
  147OSM   H17F16316   3.960   4.908   5.041  1.3578 -1.7592 -1.2737
  147OSM   H17G16317   3.927   4.888   4.871 -1.4927 -0.0932  0.0227
  147OSM   C18F16318   3.749   4.897   4.977 -0.2196  0.8068 -0.6071
  147OSM   H18F16319   3.687   4.906   4.885  0.3895  0.5966 -1.0440
  147OSM   H18G16320   3.694   4.959   5.051 -0.2136 -1.4125  1.4072
  147OSM   H18H16321   3.741   4.794   5.020  0.5230  0.9358 -0.1468
  148OSM      N16322   4.795   5.837   2.993 -0.1043 -0.3673  0.1716
  148OSM    C1516323   4.764   5.721   2.895  0.1467  0.0205 -0.3075
  148OSM   H15A16324   4.845   5.650   2.899  1.9567  2.0482  1.2229
  148OSM   H15B16325   4.767   5.759   2.794 -3.1883 -0.2963 -0.6617
  148OSM   H15C16326   4.666   5.678   2.909  0.8604 -1.8871 -0.8798
  148OSM    C1416327   4.896   5.919   2.918  0.0000 -0.6533  0.4878
  148OSM   H14A16328   4.854   5.946   2.822 -2.0387 -0.4560  1.3832
  148OSM   H14B16329   4.997   5.881   2.912  0.1618 -0.2425  0.5753
  148OSM   H14C16330   4.919   6.010   2.972  1.7891 -1.1490  0.6153
  148OSM    C1316331   4.668   5.915   3.008  0.0148  0.0840 -0.0036
  148OSM   H13A16332   4.612   5.907   2.916 -1.1160 -0.2819  0.6928
  148OSM   H13B16333   4.694   6.018   3.022  1.0361 -0.2123  0.3724
  148OSM   H13C16334   4.612   5.866   3.087 -0.8652  0.6463 -0.2644
  148OSM    C1216335   4.851   5.787   3.116 -0.1249  0.4372  0.1763
  148OSM   H12A16336   4.860   5.864   3.191  0.7438  1.0690 -0.5492
  148OSM   H12B16337   4.956   5.770   3.098  0.5983  2.7116  1.7874
  148OSM    C1116338   4.790   5.658   3.176 -0.1023  0.0312  0.6547
  148OSM   H11A16339   4.680   5.658   3.160  0.0467  2.7456 -1.1293
  148OSM   H11B16340   4.805   5.662   3.286  1.1244  2.0870  0.4699
  148OSM      P16341   4.962   5.449   3.202  0.0083 -0.0341 -0.0910
  148OSM    O1316342   4.970   5.314   3.141  0.3725 -0.6099  0.1181
  148OSM    O1416343   5.082   5.529   3.204 -0.1657  0.1743  0.5873
  148OSM    O1116344   4.908   5.450   3.350  0.0867  0.2415 -0.6160
  148OSM    O1216345   4.853   5.535   3.126  0.8857  0.4088 -0.0120
  148OSM    C1S16346   4.789   5.382   3.389 -0.3920  0.0911  0.3422
  148OSM    H1S16347   4.800   5.281   3.344 -0.8689  0.4257 -0.5580
  148OSM    H1T16348   4.698   5.426   3.343  0.9898  1.0632 -1.5743
  148OSM     NF16349   4.686   5.255   3.569 -0.1621  0.3875  0.7661
  148OSM    HNF16350   4.597   5.268   3.613 -2.4722 -2.3886 -2.5466
  148OSM    C2S16351   4.782   5.354   3.547 -0.4219 -0.2861 -0.2102
  148OSM    H2S16352   4.882   5.315   3.577 -0.9379 -2.0555 -0.6822
  148OSM    C3S16353   4.762   5.490   3.617 -0.1390  0.7755  0.4092
  148OSM    H3S16354   4.658   5.528   3.609 -0.1559  0.3119 -3.6902
  148OSM     O316355   4.854   5.592   3.571  0.4011  0.1043  0.2659
  148OSM    HO316356   4.903   5.560   3.495  0.4309 -0.7885  0.6551
  148OSM    C4S16357   4.788   5.462   3.762 -0.1168 -1.1263 -0.8731
  148OSM    H4S16358   4.712   5.511   3.825  1.3400 -1.2587  1.0762
  148OSM    C5S16359   4.899   5.417   3.822  0.0218 -0.1698 -0.1372
  148OSM    H5S16360   4.979   5.369   3.763 -2.4882 -1.2506 -2.8864
  148OSM    C6S16361   4.917   5.408   3.969 -0.7344 -0.2933  0.1393
  148OSM    H6S16362   4.941   5.305   4.003 -1.2097  0.4036  2.7952
  148OSM    H6T16363   4.820   5.433   4.017 -0.8256 -1.4338  0.5668
  148OSM    C7S16364   5.026   5.507   4.022 -0.1897 -0.2558 -0.4866
  148OSM    H7S16365   4.985   5.610   4.011  2.3602  1.1567  1.6914
  148OSM    H7T16366   5.113   5.492   3.955 -0.4366  2.0189 -1.4169
  148OSM    C8S16367   5.071   5.467   4.165  0.3839 -0.2424 -0.6065
  148OSM    H8S16368   5.136   5.377   4.177  0.8452  0.3744  2.1501
  148OSM    H8T16369   4.984   5.434   4.225  0.5923  0.4656  0.0974
  148OSM    C9S16370   5.134   5.583   4.239 -0.6087  0.5632 -0.3233
  148OSM    H9S16371   5.054   5.652   4.274 -0.0668  1.5951 -1.0608
  148OSM    H9T16372   5.206   5.635   4.172  2.0347 -3.1741 -0.6837
  148OSM   C10S16373   5.203   5.534   4.377  0.0855  0.2254  0.2531
  148OSM   H10S16374   5.282   5.457   4.364 -1.3280 -0.9939 -1.7849
  148OSM   H10T16375   5.118   5.483   4.427 -0.2938  0.8608  0.2677
  148OSM   C11S16376   5.243   5.658   4.458 -0.7288 -0.1546  0.7121
  148OSM   H11S16377   5.150   5.718   4.461 -1.1516 -0.7886  0.4127
  148OSM   H11T16378   5.318   5.712   4.396  1.4260 -2.0846  1.4600
  148OSM   C12S16379   5.322   5.609   4.574 -0.1223  0.1464 -0.5465
  148OSM   H12S16380   5.408   5.556   4.530 -1.0080 -1.1630 -0.7568
  148OSM   H12T16381   5.257   5.531   4.620 -0.5752  1.6755  1.6176
  148OSM   C13S16382   5.362   5.717   4.679  0.2687 -0.7423 -0.2553
  148OSM   H13S16383   5.267   5.768   4.706  0.4789 -1.7469  2.7146
  148OSM   H13T16384   5.429   5.786   4.623  0.7051 -0.0609  1.0634
  148OSM   C14S16385   5.432   5.683   4.810 -0.4980 -0.2765 -0.4478
  148OSM   H14S16386   5.529   5.637   4.781 -0.5365 -0.5599 -0.1249
  148OSM   H14T16387   5.392   5.605   4.877 -0.2391 -0.1891 -0.1901
  148OSM   C15S16388   5.451   5.810   4.892 -0.1188  0.2990 -0.0222
  148OSM   H15S16389   5.355   5.852   4.930 -0.6569  1.0485 -2.0617
  148OSM   H15T16390   5.497   5.880   4.818  1.8135  0.2225  1.0527
  148OSM   C16S16391   5.549   5.793   5.005 -0.0673  0.7974  0.4363
  148OSM   H16S16392   5.651   5.791   4.960 -0.2855  2.2482 -0.1658
  148OSM   H16T16393   5.519   5.696   5.051 -2.8425  2.1569  1.7540
  148OSM   C17S16394   5.540   5.902   5.108 -0.1465 -0.2726 -0.0661
  148OSM   H17S16395   5.527   6.005   5.067 -0.2302 -0.3153 -0.1452
  148OSM   H17T16396   5.642   5.905   5.152  0.7158  1.0725 -1.9992
  148OSM   C18S16397   5.435   5.877   5.217  0.6682 -0.4056 -0.1247
  148OSM   H18S16398   5.462   5.785   5.274 -1.9671 -0.4090  1.2714
  148OSM   H18T16399   5.338   5.855   5.168  0.3763  0.3453  0.1125
  148OSM   H18U16400   5.419   5.965   5.282  1.1717  1.4380 -2.3709
  148OSM    C1F16401   4.703   5.127   3.553 -0.2708  0.0466 -0.9095
  148OSM     OF16402   4.801   5.084   3.495 -0.2167  0.5464  0.4754
  148OSM    C2F16403   4.613   5.024   3.619  0.2363 -0.6905 -0.6933
  148OSM    H2F16404   4.585   4.941   3.550 -2.0506 -0.8500  0.3435
  148OSM    H2G16405   4.521   5.075   3.654  1.3743  0.4407  0.7635
  148OSM    C3F16406   4.686   4.962   3.740 -0.2977 -0.3207  0.3711
  148OSM    H3F16407   4.783   4.918   3.709 -0.4769  0.6503 -1.7681
  148OSM    H3G16408   4.618   4.888   3.787  1.9031 -2.7738 -0.0622
  148OSM    C4F16409   4.716   5.070   3.851  0.3329  0.5152  0.1306
  148OSM    H4F16410   4.773   5.157   3.810  1.6605 -1.3548 -2.2319
  148OSM    H4G16411   4.800   5.024   3.906  1.1909  1.5928 -0.2337
  148OSM    C5F16412   4.597   5.102   3.942  0.0977  0.5540  0.3393
  148OSM    H5F16413   4.564   4.998   3.965  1.1333  0.5112  1.7865
  148OSM    H5G16414   4.523   5.159   3.882  1.3797 -1.6230 -3.6822
  148OSM    C6F16415   4.625   5.176   4.068  0.0775 -0.2981  0.1219
  148OSM    H6F16416   4.526   5.216   4.098 -0.9230 -1.4936 -1.4051
  148OSM    H6G16417   4.702   5.252   4.042  1.0111 -1.3428 -0.2570
  148OSM    C7F16418   4.672   5.095   4.191  0.5412  0.1737 -0.2591
  148OSM    H7F16419   4.724   5.006   4.149 -3.2061 -2.9626  1.2412
  148OSM    H7G16420   4.591   5.054   4.254  0.8078 -1.2509 -0.8147
  148OSM    C8F16421   4.776   5.162   4.280  0.0274 -0.1123  0.6757
  148OSM    H8F16422   4.868   5.172   4.218 -1.0943  1.2147 -0.8721
  148OSM    H8G16423   4.806   5.092   4.360  0.7884  0.7963  1.2023
  148OSM    C9F16424   4.754   5.295   4.340  0.4516 -0.8220  0.0906
  148OSM    H9F16425   4.690   5.362   4.280  0.8261  0.0589  0.6596
  148OSM   C10F16426   4.778   5.339   4.462 -0.2467  0.6205  0.0741
  148OSM   H10F16427   4.752   5.445   4.480 -0.6773  0.3207  1.2778
  148OSM   C11F16428   4.852   5.269   4.572  0.0062  0.3946  0.1120
  148OSM   H11F16429   4.927   5.198   4.531  1.2182  1.0595  1.1184
  148OSM   H11G16430   4.783   5.207   4.633  0.1210  0.3503  0.1985
  148OSM   C12F16431   4.925   5.367   4.664 -0.3161 -0.1631  0.2196
  148OSM   H12F16432   4.852   5.435   4.713  0.1257  0.6636 -0.2554
  148OSM   H12G16433   4.999   5.424   4.605 -1.5278  0.0014 -1.2044
  148OSM   C13F16434   4.985   5.292   4.789  0.1318  0.2790  0.1333
  148OSM   H13F16435   5.060   5.219   4.753 -2.3928 -1.8033 -1.2292
  148OSM   H13G16436   4.900   5.245   4.843 -1.1583  0.9892 -1.1946
  148OSM   C14F16437   5.055   5.397   4.878 -0.0929 -0.4293  0.2203
  148OSM   H14F16438   4.967   5.465   4.884  0.5564  0.5534 -0.9721
  148OSM   H14G16439   5.135   5.440   4.815  3.3526 -0.9215  3.8983
  148OSM   C15F16440   5.119   5.343   5.007 -0.5204  0.4657  0.7768
  148OSM   H15F16441   5.220   5.300   4.991 -0.9393 -1.2207  2.3694
  148OSM   H15G16442   5.048   5.267   5.047 -1.4249  0.8311 -0.0870
  148OSM   C16F16443   5.130   5.466   5.104  0.4468 -0.1453 -0.1182
  148OSM   H16F16444   5.026   5.505   5.117  0.7084  0.0896  1.3985
  148OSM   H16G16445   5.180   5.550   5.052 -1.0339  0.8427 -0.0228
  148OSM   C17F16446   5.190   5.441   5.240 -0.4718  0.5871  0.6838
  148OSM   H17F16447   5.301   5.442   5.229 -0.4953  2.1215  0.3321
  148OSM   H17G16448   5.151   5.345   5.281 -1.1257  0.7541  0.4694
  148OSM   C18F16449   5.149   5.547   5.341  0.3138 -0.1711 -0.3337
  148OSM   H18F16450   5.221   5.564   5.424  1.1998 -1.2883 -0.8320
  148OSM   H18G16451   5.051   5.517   5.384 -0.0202  1.3866  0.0372
  148OSM   H18H16452   5.135   5.645   5.291 -1.9962  0.5250  1.5264
  149OSM      N16453   4.734   2.137   2.922  0.8126  0.5812 -0.5806
  149OSM    C1516454   4.642   2.168   3.032  0.5227  0.0679 -0.8669
  149OSM   H15A16455   4.544   2.139   2.998  0.2232  0.1951 -0.1246
  149OSM   H15B16456   4.636   2.272   3.063  0.7828 -0.0409 -0.4400
  149OSM   H15C16457   4.661   2.115   3.124  1.1592 -0.5324 -1.3347
  149OSM    C1416458   4.865   2.191   2.958  0.5369  0.1173  0.8705
  149OSM   H14A16459   4.892   2.159   3.057  0.4653  2.3133  1.6581
  149OSM   H14B16460   4.857   2.298   2.970 -1.3896 -0.2197  3.5142
  149OSM   H14C16461   4.943   2.171   2.886 -0.6832  1.3037 -0.8498
  149OSM    C1316462   4.740   1.987   2.904  0.4052 -0.2451  0.0330
  149OSM   H13A16463   4.816   1.961   2.831  0.8666 -1.9382  1.0506
  149OSM   H13B16464   4.651   1.947   2.859  0.5450 -2.6605  1.7352
  149OSM   H13C16465   4.758   1.934   2.996  1.3028 -1.8611 -1.0130
  149OSM    C1216466   4.677   2.216   2.802 -0.7188 -0.0267 -0.1101
  149OSM   H12A16467   4.755   2.208   2.728  1.4303 -0.6310  2.0993
  149OSM   H12B16468   4.669   2.321   2.830 -0.9416 -0.2864  0.8631
  149OSM    C1116469   4.546   2.162   2.740  0.2289 -0.3835  0.7781
  149OSM   H11A16470   4.573   2.055   2.724 -0.0902 -0.6402  1.8365
  149OSM   H11B16471   4.516   2.204   2.641 -0.7294  1.5935  1.8470
  149OSM      P16472   4.296   2.229   2.797  0.0388 -0.3455 -0.1489
  149OSM    O1316473   4.320   2.370   2.742 -0.2579  0.3594 -0.0074
  149OSM    O1416474   4.222   2.137   2.708 -0.0245 -0.1293 -0.6724
  149OSM    O1116475   4.222   2.239   2.941 -0.2503  0.2593 -0.5074
  149OSM    O1216476   4.433   2.167   2.835  0.1668  0.2156  0.1672
  149OSM    C1S16477   4.234   2.125   3.023  0.5852 -0.3740  0.3811
  149OSM    H1S16478   4.338   2.095   3.049  0.2193 -0.3255  2.0516
  149OSM    H1T16479   4.176   2.042   2.977  2.0329 -0.9856 -0.4038
  149OSM     NF16480   4.191   2.019   3.246 -0.0939  0.3864  0.2324
  149OSM    HNF16481   4.102   1.984   3.276 -0.2549  0.2167 -0.4276
  149OSM    C2S16482   4.183   2.143   3.170  0.4427 -0.6881  0.8896
  149OSM    H2S16483   4.254   2.210   3.223 -0.5161 -0.2487  1.6358
  149OSM    C3S16484   4.049   2.219   3.173 -0.3189 -1.0416  0.1831
  149OSM    H3S16485   3.989   2.156   3.104 -1.0883  0.0482 -0.1725
  149OSM     O316486   4.056   2.353   3.112  0.1509 -0.0333 -0.0055
  149OSM    HO316487   4.134   2.338   3.058  0.3008 -0.6216  0.3531
  149OSM    C4S16488   3.988   2.222   3.307 -0.1152 -0.0261  0.6551
  149OSM    H4S16489   3.928   2.131   3.324 -0.5658  0.3378  1.0508
  149OSM    C5S16490   4.005   2.313   3.405  0.2782  0.5344 -0.1850
  149OSM    H5S16491   4.039   2.412   3.371 -0.4955  0.8203 -0.1438
  149OSM    C6S16492   3.955   2.290   3.547 -0.5132 -0.5708  0.6578
  149OSM    H6S16493   3.861   2.349   3.554  0.4385  1.2974 -1.2511
  149OSM    H6T16494   4.021   2.346   3.616 -2.1665  4.2434 -1.2319
  149OSM    C7S16495   3.939   2.146   3.586  0.2456 -0.4966  0.3953
  149OSM    H7S16496   4.022   2.082   3.550  1.1218  0.0787  1.3536
  149OSM    H7T16497   3.859   2.098   3.525  1.4983  0.7299 -2.3725
  149OSM    C8S16498   3.899   2.120   3.735 -0.0139  0.5160  0.2739
  149OSM    H8S16499   3.982   2.150   3.803 -0.3470 -0.9851  1.3856
  149OSM    H8T16500   3.893   2.009   3.736  0.0294  0.5017 -0.4555
  149OSM    C9S16501   3.771   2.190   3.780  0.0086  0.0873 -0.3214
  149OSM    H9S16502   3.697   2.174   3.698 -1.2059  0.1639  0.7390
  149OSM    H9T16503   3.790   2.300   3.785  0.0636  0.0184  1.5397
  149OSM   C10S16504   3.730   2.141   3.924  1.1263 -0.2162  0.6345
  149OSM   H10S16505   3.744   2.031   3.935  0.6318 -0.5320 -1.5512
  149OSM   H10T16506   3.633   2.176   3.965  1.4356  0.8515  0.4940
  149OSM   C11S16507   3.844   2.190   4.018  0.7506  0.3540  0.0387
  149OSM   H11S16508   3.841   2.301   4.020 -0.6101  0.3400  2.1358
  149OSM   H11T16509   3.945   2.146   4.005  1.1780  1.1115  0.7528
  149OSM   C12S16510   3.806   2.148   4.159  0.5178  0.2760 -1.0074
  149OSM   H12S16511   3.784   2.040   4.157  1.6354 -0.0982  1.9113
  149OSM   H12T16512   3.716   2.203   4.196  0.1948 -1.6741  1.3780
  149OSM   C13S16513   3.915   2.164   4.267 -0.3621  1.2059 -0.0765
  149OSM   H13S16514   3.952   2.269   4.268 -1.0366  1.4861 -1.3738
  149OSM   H13T16515   3.992   2.091   4.235 -0.1378  0.5940  1.7572
  149OSM   C14S16516   3.884   2.128   4.417  0.5945 -0.9246  0.3503
  149OSM   H14S16517   3.833   2.030   4.424  0.3397 -0.8952 -0.8363
  149OSM   H14T16518   3.816   2.213   4.441  1.9242  0.6801 -1.2429
  149OSM   C15S16519   3.987   2.130   4.525  0.1521  0.7246  0.4438
  149OSM   H15S16520   4.058   2.046   4.508  0.2826  0.9635 -0.2522
  149OSM   H15T16521   3.928   2.113   4.617  1.4294  1.4912  1.4579
  149OSM   C16S16522   4.069   2.253   4.549  0.1172  0.3914 -0.4110
  149OSM   H16S16523   4.113   2.300   4.458 -0.0475 -0.4114 -0.9139
  149OSM   H16T16524   4.156   2.233   4.615 -2.0771 -0.3481  2.4435
  149OSM   C17S16525   3.980   2.371   4.593 -0.1287  0.1212 -0.0971
  149OSM   H17S16526   3.910   2.415   4.519 -2.1070 -0.1273  1.5432
  149OSM   H17T16527   4.055   2.447   4.626 -0.3116 -0.6996  2.4302
  149OSM   C18S16528   3.900   2.351   4.721  0.5093  0.8417  0.3916
  149OSM   H18S16529   3.970   2.325   4.802 -1.7925 -3.0816  1.3586
  149OSM   H18T16530   3.828   2.269   4.700  2.6912 -0.7444 -1.2756
  149OSM   H18U16531   3.840   2.442   4.746 -1.2561  0.4686 -2.0988
  149OSM    C1F16532   4.300   1.951   3.278 -0.1929  0.7118  0.3492
  149OSM     OF16533   4.413   1.981   3.242  0.0417  0.1812 -0.1044
  149OSM    C2F16534   4.274   1.817   3.344 -0.1060  0.4347 -0.2913
  149OSM    H2F16535   4.324   1.732   3.292  2.7143  2.3075 -0.8384
  149OSM    H2G16536   4.164   1.809   3.332  0.0742 -0.5658 -1.4174
  149OSM    C3F16537   4.314   1.799   3.497  0.2728  0.1373  0.5966
  149OSM    H3F16538   4.424   1.816   3.491  0.5182 -1.3569  0.5675
  149OSM    H3G16539   4.296   1.698   3.539  1.0888  0.1709  1.0440
  149OSM    C4F16540   4.241   1.897   3.596 -0.2813  0.5382 -0.1688
  149OSM    H4F16541   4.136   1.863   3.602 -0.1409  0.3699  2.3109
  149OSM    H4G16542   4.252   1.995   3.545  1.2355 -0.6013 -2.1890
  149OSM    C5F16543   4.309   1.891   3.734  0.0596 -0.0179  0.2981
  149OSM    H5F16544   4.419   1.900   3.723  0.0541  0.1175  0.3574
  149OSM    H5G16545   4.295   1.797   3.792  0.5684  0.2789  0.9114
  149OSM    C6F16546   4.255   2.005   3.825  0.1573 -0.1531  0.9217
  149OSM    H6F16547   4.147   1.990   3.848  0.1868 -0.8556  0.6113
  149OSM    H6G16548   4.253   2.103   3.771  1.3503 -0.0559  1.0258
  149OSM    C7F16549   4.307   2.005   3.970 -0.2894 -0.1148 -0.6069
  149OSM    H7F16550   4.299   1.905   4.018  0.6274 -0.0971 -0.3796
  149OSM    H7G16551   4.245   2.069   4.036  0.4276 -1.4395  1.4458
  149OSM    C8F16552   4.460   2.029   3.989  0.4093 -0.6386  0.2260
  149OSM    H8F16553   4.518   1.955   3.928  2.0223 -1.5142  2.6641
  149OSM    H8G16554   4.475   1.998   4.094 -2.5305 -2.5643  0.1803
  149OSM    C9F16555   4.511   2.168   3.965  0.0323 -0.6432 -0.3391
  149OSM    H9F16556   4.429   2.241   3.955 -0.0943 -0.1726  2.9492
  149OSM   C10F16557   4.634   2.215   3.981  1.1519  0.0736 -0.1714
  149OSM   H10F16558   4.658   2.317   3.946 -0.2786  0.8914  1.1178
  149OSM   C11F16559   4.751   2.128   4.026  0.4850 -0.4532  0.4422
  149OSM   H11F16560   4.712   2.037   4.078  0.9426  0.6580  2.8673
  149OSM   H11G16561   4.814   2.189   4.095 -0.1805  0.8035 -0.0315
  149OSM   C12F16562   4.839   2.087   3.897 -0.6134  0.7544  0.0059
  149OSM   H12F16563   4.886   2.170   3.841  1.8834 -1.1580 -0.9260
  149OSM   H12G16564   4.770   2.035   3.827  0.5498 -2.4157  1.0591
  149OSM   C13F16565   4.937   1.976   3.936  0.4747 -0.0112 -0.1908
  149OSM   H13F16566   4.883   1.893   3.986  1.1612 -1.0564 -1.1368
  149OSM   H13G16567   5.004   2.014   4.016 -0.5872  1.2842  0.1143
  149OSM   C14F16568   5.017   1.928   3.817 -0.1823  0.5235  0.5825
  149OSM   H14F16569   5.095   2.003   3.793 -0.4467  1.1517  1.5924
  149OSM   H14G16570   4.944   1.911   3.735 -2.0251 -1.3181  2.4599
  149OSM   C15F16571   5.075   1.794   3.861  0.4318 -0.0340 -0.3085
  149OSM   H15F16572   5.134   1.754   3.776  1.4683 -0.9583  0.8088
  149OSM   H15G16573   4.998   1.713   3.859  0.2358  0.1652 -1.4430
  149OSM   C16F16574   5.166   1.786   3.985 -0.4480  0.3336 -0.1292
  149OSM   H16F16575   5.224   1.692   3.986 -0.8331 -0.0370 -3.0508
  149OSM   H16G16576   5.099   1.803   4.072  0.2657  2.0108  0.1318
  149OSM   C17F16577   5.289   1.880   4.001 -0.0612 -0.0201 -0.2853
  149OSM   H17F16578   5.258   1.986   4.015  0.0393 -0.0464  0.1557
  149OSM   H17G16579   5.349   1.874   3.908  1.7765 -0.3961  0.8719
  149OSM   C18F16580   5.382   1.852   4.121 -0.1770  0.3324  0.1046
  149OSM   H18F16581   5.320   1.857   4.213  0.8119  1.4321  0.7334
  149OSM   H18G16582   5.464   1.926   4.135  0.9298 -0.7764 -0.3277
  149OSM   H18H16583   5.418   1.747   4.111 -1.3616 -0.1182  0.3661
  150OSM      N16584   1.068   5.052   3.131  0.3705  0.2002 -0.4441
  150OSM    C1516585   1.012   5.087   3.263 -0.3971  0.5522  0.8118
  150OSM   H15A16586   0.955   5.179   3.251 -2.2737 -0.7266 -0.6513
  150OSM   H15B16587   1.088   5.100   3.338  0.7398  0.1978 -0.2501
  150OSM   H15C16588   0.953   5.008   3.306  0.6300 -1.4263 -1.2489
  150OSM    C1416589   1.137   4.917   3.144 -0.1622  0.0063  0.5969
  150OSM   H14A16590   1.228   4.928   3.202  0.0755 -0.9947  0.4272
  150OSM   H14B16591   1.173   4.883   3.048 -0.0135  0.6965  0.4025
  150OSM   H14C16592   1.082   4.837   3.190 -2.6903 -1.2786 -4.0297
  150OSM    C1316593   0.947   5.041   3.040 -0.0618  0.4455 -0.6413
  150OSM   H13A16594   0.965   5.035   2.934 -0.1248  2.6149 -0.8199
  150OSM   H13B16595   0.880   5.125   3.054  0.1521  0.5179 -0.0067
  150OSM   H13C16596   0.881   4.959   3.064  2.5803 -2.2975 -2.1646
  150OSM    C1216597   1.161   5.160   3.077  0.1859 -0.8380 -0.4124
  150OSM   H12A16598   1.114   5.254   3.055  2.9362  0.5979 -0.5625
  150OSM   H12B16599   1.205   5.133   2.983  1.5996  0.8667 -0.2849
  150OSM    C1116600   1.282   5.197   3.163 -0.2698  0.0410  0.2627
  150OSM   H11A16601   1.343   5.105   3.176 -1.1973 -0.5355  0.6709
  150OSM   H11B16602   1.252   5.230   3.264 -0.3654  2.1592 -0.4075
  150OSM      P16603   1.301   5.445   3.092 -0.0927 -0.0440  0.4825
  150OSM    O1316604   1.355   5.509   2.973  0.0163  0.1737 -0.0923
  150OSM    O1416605   1.149   5.451   3.097 -0.1042  0.7367 -0.0912
  150OSM    O1116606   1.361   5.516   3.217 -0.6110 -0.3300 -0.1080
  150OSM    O1216607   1.357   5.294   3.089 -0.2209 -0.5057  0.0737
  150OSM    C1S16608   1.284   5.530   3.341 -0.1302 -0.6367  0.4303
  150OSM    H1S16609   1.246   5.430   3.371 -2.3806 -1.2900 -3.8697
  150OSM    H1T16610   1.191   5.587   3.322  0.3401 -0.4687 -1.5688
  150OSM     NF16611   1.293   5.594   3.583  0.0777 -0.0604 -0.5651
  150OSM    HNF16612   1.221   5.662   3.596  1.0659  0.6606  1.7492
  150OSM    C2S16613   1.368   5.596   3.456  0.4620  0.5485  0.8872
  150OSM    H2S16614   1.460   5.536   3.471  1.0238  0.7250 -1.5400
  150OSM    C3S16615   1.411   5.743   3.413 -0.2893 -0.1822  0.0847
  150OSM    H3S16616   1.318   5.802   3.406 -1.9217 -2.6218  0.1222
  150OSM     O316617   1.474   5.757   3.286 -0.7882  0.0795  0.5196
  150OSM    HO316618   1.453   5.672   3.247 -0.8507  1.3263 -2.3871
  150OSM    C4S16619   1.499   5.810   3.520  0.0022  0.3498 -0.0297
  150OSM    H4S16620   1.585   5.755   3.561 -0.1738 -0.4215 -0.6645
  150OSM    C5S16621   1.460   5.918   3.589  0.0974  0.4690  0.5815
  150OSM    H5S16622   1.363   5.965   3.566  1.2346  2.5006 -0.2810
  150OSM    C6S16623   1.527   5.984   3.703 -0.5603  0.1331  0.3893
  150OSM    H6S16624   1.628   5.939   3.707 -1.4241 -1.9794 -0.0428
  150OSM    H6T16625   1.479   5.965   3.801  0.1391  0.1786  0.7421
  150OSM    C7S16626   1.542   6.130   3.655  0.1004 -0.2091 -0.2217
  150OSM    H7S16627   1.458   6.199   3.676  2.1947  2.0495  1.3831
  150OSM    H7T16628   1.574   6.137   3.549  1.0416 -0.9672 -0.0087
  150OSM    C8S16629   1.650   6.193   3.744 -0.7838 -0.3590  0.2133
  150OSM    H8S16630   1.668   6.299   3.714 -2.9422  0.1818  0.5901
  150OSM    H8T16631   1.738   6.133   3.714 -2.0562 -0.9687 -2.7045
  150OSM    C9S16632   1.607   6.202   3.892 -0.6773 -0.6374 -0.6277
  150OSM    H9S16633   1.594   6.098   3.928  2.1881 -0.5684  0.9549
  150OSM    H9T16634   1.508   6.251   3.899 -0.6396 -0.5379 -0.7919
  150OSM   C10S16635   1.708   6.277   3.987  0.0062  0.0539 -0.0265
  150OSM   H10S16636   1.704   6.387   3.972  0.2278 -0.1781 -2.0223
  150OSM   H10T16637   1.809   6.252   3.947  0.7443  1.0222  1.1601
  150OSM   C11S16638   1.674   6.255   4.142 -0.3137 -0.3518  0.7333
  150OSM   H11S16639   1.571   6.289   4.166 -1.3018 -3.8431  2.0706
  150OSM   H11T16640   1.731   6.342   4.182 -1.3000  0.9763 -0.6027
  150OSM   C12S16641   1.695   6.111   4.181  0.2198 -0.5959  0.1911
  150OSM   H12S16642   1.724   6.041   4.099  0.2728 -0.3976  0.0411
  150OSM   H12T16643   1.600   6.059   4.206 -0.6960 -0.0562 -1.9081
  150OSM   C13S16644   1.782   6.109   4.305 -0.2121  0.2288 -0.4318
  150OSM   H13S16645   1.878   6.164   4.293 -0.7863  1.0806 -1.3419
  150OSM   H13T16646   1.806   6.006   4.339 -1.0033  0.6763  1.5966
  150OSM   C14S16647   1.715   6.186   4.422  0.3236  0.0402 -0.7181
  150OSM   H14S16648   1.606   6.165   4.432  0.5187  0.0602  1.9412
  150OSM   H14T16649   1.724   6.295   4.402  0.7143  0.1769  0.1777
  150OSM   C15S16650   1.769   6.157   4.565  0.4352  0.4087  1.1396
  150OSM   H15S16651   1.880   6.157   4.559  0.4502 -1.9683  0.3727
  150OSM   H15T16652   1.743   6.052   4.590  0.9130  0.7472  3.2256
  150OSM   C16S16653   1.726   6.276   4.658 -0.0960 -1.2273 -0.5268
  150OSM   H16S16654   1.618   6.294   4.639  0.2468  1.3928 -0.3827
  150OSM   H16T16655   1.772   6.371   4.622  0.7947 -0.6568  1.8775
  150OSM   C17S16656   1.747   6.249   4.805 -0.5284 -0.2008 -0.3489
  150OSM   H17S16657   1.855   6.262   4.825 -0.5938 -1.0318  0.5859
  150OSM   H17T16658   1.727   6.142   4.828  0.2613  0.1373  2.2525
  150OSM   C18S16659   1.664   6.330   4.903 -0.3318  0.4291 -0.0087
  150OSM   H18S16660   1.685   6.439   4.904 -0.9223  0.5504  1.1894
  150OSM   H18T16661   1.674   6.290   5.006 -0.3312 -1.1300 -0.5810
  150OSM   H18U16662   1.556   6.319   4.882 -0.3722  0.2364  0.2846
  150OSM    C1F16663   1.277   5.475   3.651 -0.6150  0.2728 -0.3276
  150OSM     OF16664   1.329   5.369   3.612  0.1680  0.1204 -0.4132
  150OSM    C2F16665   1.200   5.481   3.776 -0.1943 -0.7947 -0.6043
  150OSM    H2F16666   1.150   5.384   3.792  0.8442 -1.2751 -0.2169
  150OSM    H2G16667   1.129   5.567   3.773  0.5963 -0.1449 -1.1232
  150OSM    C3F16668   1.287   5.508   3.909 -0.6968 -0.4761 -0.0009
  150OSM    H3F16669   1.316   5.615   3.900 -0.0774 -0.6715 -0.3516
  150OSM    H3G16670   1.386   5.457   3.910 -0.1911  0.4636 -0.3078
  150OSM    C4F16671   1.223   5.473   4.036  0.7103  0.6007 -0.1234
  150OSM    H4F16672   1.202   5.364   4.039 -0.8828  0.8917 -0.1971
  150OSM    H4G16673   1.130   5.532   4.047 -0.2268 -0.4233 -2.0788
  150OSM    C5F16674   1.301   5.505   4.167  0.1120 -0.5474  0.1588
  150OSM    H5F16675   1.335   5.611   4.163 -1.3446  0.0237  1.6442
  150OSM    H5G16676   1.390   5.439   4.169  0.9853  0.4404 -2.4507
  150OSM    C6F16677   1.222   5.484   4.292 -0.0872  0.3429 -0.1471
  150OSM    H6F16678   1.204   5.375   4.298  1.0131  0.1228 -0.5162
  150OSM    H6G16679   1.122   5.529   4.274 -1.1295 -1.4703  0.7647
  150OSM    C7F16680   1.295   5.539   4.412 -0.8368 -0.0016 -0.0327
  150OSM    H7F16681   1.306   5.649   4.412 -1.5189  0.1230  2.8286
  150OSM    H7G16682   1.395   5.491   4.421 -0.8717  0.2489  2.0654
  150OSM    C8F16683   1.219   5.498   4.544  0.1379 -0.5921  0.0103
  150OSM    H8F16684   1.226   5.388   4.539  1.5896 -0.5635  0.7662
  150OSM    H8G16685   1.112   5.527   4.536 -1.1141 -4.2054  1.6053
  150OSM    C9F16686   1.288   5.557   4.661  0.4280 -0.2487  0.8090
  150OSM    H9F16687   1.271   5.664   4.677 -0.2207 -0.4348  1.4531
  150OSM   C10F16688   1.362   5.494   4.757  0.4562 -0.7188  0.9122
  150OSM   H10F16689   1.418   5.550   4.834 -0.8529  1.7089  0.2085
  150OSM   C11F16690   1.394   5.345   4.756  0.3969  0.1307 -0.2529
  150OSM   H11F16691   1.331   5.283   4.687 -2.3665  2.7012 -0.2486
  150OSM   H11G16692   1.366   5.304   4.856  0.7645 -1.0825 -0.6225
  150OSM   C12F16693   1.539   5.315   4.731  0.0210  0.2763  0.8161
  150OSM   H12F16694   1.545   5.207   4.756  0.1182  0.3926  1.3061
  150OSM   H12G16695   1.610   5.355   4.806  0.5295 -1.8211  1.5091
  150OSM   C13F16696   1.597   5.343   4.593 -0.3938 -1.2936  0.1011
  150OSM   H13F16697   1.708   5.342   4.589 -0.4160 -0.9206 -0.8203
  150OSM   H13G16698   1.562   5.443   4.560  2.4192  0.2173  1.4284
  150OSM   C14F16699   1.555   5.245   4.479  0.2106  0.9762  0.0558
  150OSM   H14F16700   1.445   5.230   4.474  0.1872  1.5741 -2.9644
  150OSM   H14G16701   1.593   5.142   4.497 -0.5266  0.3913 -1.5509
  150OSM   C15F16702   1.606   5.284   4.340 -0.5842 -0.1034 -0.3543
  150OSM   H15F16703   1.717   5.290   4.345 -0.3847 -3.2288  1.7857
  150OSM   H15G16704   1.572   5.386   4.312 -1.5057 -0.2403  0.2359
  150OSM   C16F16705   1.564   5.188   4.225 -0.1277 -0.5369  0.7204
  150OSM   H16F16706   1.454   5.172   4.232  0.0507 -2.7289 -0.6473
  150OSM   H16G16707   1.610   5.091   4.251 -0.2488 -0.5828  0.7651
  150OSM   C17F16708   1.618   5.236   4.091 -0.2606 -0.6531  0.7090
  150OSM   H17F16709   1.728   5.235   4.104  0.0140 -0.2518 -1.3083
  150OSM   H17G16710   1.581   5.336   4.062 -1.1127 -1.5657 -1.5605
  150OSM   C18F16711   1.590   5.135   3.980  0.3948  0.4435  0.6278
  150OSM   H18F16712   1.612   5.034   4.022 -1.4240 -0.0519  0.5135
  150OSM   H18G16713   1.650   5.151   3.888 -1.7898  0.9778 -0.7965
  150OSM   H18H16714   1.486   5.136   3.939 -1.2391 -2.0858  4.1432
  151OSM      N16715   2.316   4.388   2.608  0.2938 -0.2049 -1.0433
  151OSM    C1516716   2.378   4.250   2.585  0.3407  0.0519 -0.2653
  151OSM   H15A16717   2.397   4.218   2.687 -0.0690  1.5015  0.2897
  151OSM   H15B16718   2.476   4.237   2.541  0.7083 -2.0540  1.0114
  151OSM   H15C16719   2.304   4.186   2.540  0.9519 -0.9540  0.1064
  151OSM    C1416720   2.426   4.469   2.667 -0.5835 -0.3949  0.1055
  151OSM   H14A16721   2.522   4.454   2.618 -1.5832 -2.9707 -1.2966
  151OSM   H14B16722   2.455   4.440   2.767  0.4746  1.0088  0.2339
  151OSM   H14C16723   2.394   4.571   2.675 -2.9996 -0.8365 -2.3034
  151OSM    C1316724   2.282   4.438   2.478 -0.1373 -0.1202  0.5610
  151OSM   H13A16725   2.361   4.455   2.406 -0.9168  0.3189 -0.2133
  151OSM   H13B16726   2.228   4.532   2.475  2.6277  1.5491 -1.5408
  151OSM   H13C16727   2.218   4.369   2.426  1.3085 -0.5149 -0.7687
  151OSM    C1216728   2.193   4.378   2.697 -0.5369 -0.1066 -0.1560
  151OSM   H12A16729   2.124   4.312   2.647  0.5026 -1.3904  0.0382
  151OSM   H12B16730   2.152   4.476   2.714  1.4559  0.9801 -1.1835
  151OSM    C1116731   2.209   4.315   2.842 -0.1232  0.5377  0.3706
  151OSM   H11A16732   2.112   4.326   2.895 -0.9872 -3.5833  0.0180
  151OSM   H11B16733   2.297   4.353   2.899  1.6188 -1.7912 -0.5996
  151OSM      P16734   2.310   4.084   2.905 -0.1125  0.0619 -0.3114
  151OSM    O1316735   2.239   3.950   2.919 -0.1788  0.4623 -0.3042
  151OSM    O1416736   2.448   4.088   2.852  0.4096 -0.4250 -0.0356
  151OSM    O1116737   2.312   4.150   3.051  0.7143  0.7165 -0.2510
  151OSM    O1216738   2.222   4.177   2.815 -0.0043 -0.3368  0.2187
  151OSM    C1S16739   2.203   4.141   3.150 -0.0648 -0.1418  0.2469
  151OSM    H1S16740   2.133   4.061   3.121  0.3609  0.5198 -2.8776
  151OSM    H1T16741   2.146   4.236   3.141 -0.6254 -0.3613  1.2650
  151OSM     NF16742   2.147   4.103   3.392  0.0397  0.1036 -0.1137
  151OSM    HNF16743   2.100   4.173   3.444 -0.0437 -0.1748  0.1874
  151OSM    C2S16744   2.259   4.140   3.304 -0.1352 -0.4715 -0.2140
  151OSM    H2S16745   2.332   4.056   3.308  1.6037  1.0323  2.1312
  151OSM    C3S16746   2.334   4.267   3.338  0.4002  0.5160 -0.7236
  151OSM    H3S16747   2.253   4.343   3.329  0.4794  0.5669 -1.0360
  151OSM     O316748   2.433   4.293   3.239 -0.6701  0.0426 -0.0291
  151OSM    HO316749   2.394   4.246   3.165  0.4256  1.7071 -1.7596
  151OSM    C4S16750   2.391   4.263   3.474  0.0158  0.3096  0.4583
  151OSM    H4S16751   2.472   4.191   3.497 -1.3812 -0.9730  1.5921
  151OSM    C5S16752   2.362   4.361   3.558  0.6907  0.9008 -0.0211
  151OSM    H5S16753   2.287   4.437   3.532 -0.3651  0.1844  0.8637
  151OSM    C6S16754   2.418   4.383   3.696 -0.1439  0.0620  0.4854
  151OSM    H6S16755   2.479   4.474   3.683 -2.3051  1.4513 -0.6155
  151OSM    H6T16756   2.482   4.295   3.717  0.4250 -0.5655 -3.1046
  151OSM    C7S16757   2.303   4.413   3.794  0.0802  0.0352 -0.3444
  151OSM    H7S16758   2.217   4.343   3.796 -1.7762  2.2138  1.3937
  151OSM    H7T16759   2.255   4.510   3.768 -0.5637  0.4025  1.9934
  151OSM    C8S16760   2.356   4.434   3.938  0.4959 -0.8483 -0.2675
  151OSM    H8S16761   2.437   4.360   3.955  2.2210  0.7815 -0.9899
  151OSM    H8T16762   2.277   4.426   4.016  1.0610  1.3438  0.6118
  151OSM    C9S16763   2.424   4.571   3.967 -0.4353  0.3988  0.3440
  151OSM    H9S16764   2.351   4.654   3.967  0.9983  1.7094  0.4345
  151OSM    H9T16765   2.497   4.577   3.883  0.1084 -2.0483  0.5537
  151OSM   C10S16766   2.497   4.571   4.104  0.1772 -0.5162  0.7278
  151OSM   H10S16767   2.565   4.654   4.075 -1.1594  0.3596 -0.0155
  151OSM   H10T16768   2.541   4.469   4.106 -1.6928 -1.6294 -3.1894
  151OSM   C11S16769   2.409   4.606   4.229  0.2978  0.0518  0.7064
  151OSM   H11S16770   2.315   4.548   4.217  1.1819 -1.0765 -1.5006
  151OSM   H11T16771   2.390   4.714   4.244  2.0297  0.6011 -0.6231
  151OSM   C12S16772   2.481   4.534   4.351  0.1900 -0.0104 -0.0510
  151OSM   H12S16773   2.583   4.571   4.373  0.3127 -0.7239  0.6158
  151OSM   H12T16774   2.505   4.429   4.324 -1.7333 -0.5213  0.0946
  151OSM   C13S16775   2.420   4.560   4.483  0.4301  0.2141 -0.3564
  151OSM   H13S16776   2.313   4.531   4.485  0.3306  0.5506 -0.6027
  151OSM   H13T16777   2.431   4.664   4.520  2.0050 -0.2398  0.5406
  151OSM   C14S16778   2.476   4.469   4.600  0.1393  0.5332 -0.5228
  151OSM   H14S16779   2.584   4.490   4.608 -0.1863  1.5839  2.5972
  151OSM   H14T16780   2.454   4.361   4.586  0.9394  0.1458  1.0040
  151OSM   C15S16781   2.406   4.507   4.730 -0.6325  1.1041  0.2802
  151OSM   H15S16782   2.297   4.490   4.715 -1.0286  3.7328 -0.4279
  151OSM   H15T16783   2.419   4.615   4.751  0.5502  0.9524  0.3744
  151OSM   C16S16784   2.461   4.421   4.849  0.1008 -0.1098 -0.0617
  151OSM   H16S16785   2.571   4.436   4.846  0.4198 -1.6621  1.5999
  151OSM   H16T16786   2.431   4.315   4.831  2.7875 -1.4352  2.4173
  151OSM   C17S16787   2.397   4.450   4.980  0.1817 -0.6434 -0.3752
  151OSM   H17S16788   2.287   4.439   4.984  0.1174  0.2721  1.0633
  151OSM   H17T16789   2.415   4.559   4.989 -1.0674 -0.4932  0.5928
  151OSM   C18S16790   2.460   4.370   5.091 -0.2123 -0.0006 -0.4896
  151OSM   H18S16791   2.415   4.376   5.192  1.6987  2.9300  0.2951
  151OSM   H18T16792   2.563   4.410   5.107 -1.1691  2.6004 -0.3655
  151OSM   H18U16793   2.467   4.262   5.066  0.4051 -0.2145  0.5309
  151OSM    C1F16794   2.097   3.981   3.392  0.6346  0.0615  1.0115
  151OSM     OF16795   2.148   3.893   3.326 -0.4640 -0.1206  0.3262
  151OSM    C2F16796   1.987   3.945   3.486 -0.1766 -0.5592  0.1963
  151OSM    H2F16797   1.892   4.000   3.464 -0.8934 -2.0975 -0.7349
  151OSM    H2G16798   2.030   3.977   3.583 -0.0511  0.0009 -0.0449
  151OSM    C3F16799   1.945   3.801   3.480  0.2151  0.3571 -0.4144
  151OSM    H3F16800   2.034   3.736   3.491  1.7538  2.6039  1.2647
  151OSM    H3G16801   1.898   3.773   3.383  1.6501 -1.1808 -0.7061
  151OSM    C4F16802   1.843   3.768   3.592  0.5408 -0.4173 -0.0433
  151OSM    H4F16803   1.787   3.678   3.560 -1.4630  0.3784  1.0415
  151OSM    H4G16804   1.771   3.852   3.597  1.6247  0.5937 -1.0609
  151OSM    C5F16805   1.913   3.762   3.727 -0.3150  0.0444  0.1732
  151OSM    H5F16806   1.966   3.855   3.757 -0.0931 -0.7014  2.1843
  151OSM    H5G16807   1.986   3.679   3.725  0.6333  0.8640  0.3254
  151OSM    C6F16808   1.818   3.750   3.853 -0.7233  0.4084  0.1165
  151OSM    H6F16809   1.763   3.654   3.850  0.2248 -0.1616  0.6476
  151OSM    H6G16810   1.740   3.829   3.846 -1.8481 -0.6179  0.6800
  151OSM    C7F16811   1.895   3.760   3.989 -0.6043  0.5107  0.0625
  151OSM    H7F16812   1.934   3.864   3.989 -1.0512  0.7100 -1.7175
  151OSM    H7G16813   1.972   3.681   3.978  0.4338  1.7942 -2.9996
  151OSM    C8F16814   1.808   3.725   4.113 -0.2829  0.0581  0.2908
  151OSM    H8F16815   1.824   3.616   4.129  0.6554 -0.2938 -2.5164
  151OSM    H8G16816   1.703   3.737   4.080  0.3029  0.5503 -1.5047
  151OSM    C9F16817   1.839   3.811   4.230 -0.4565 -0.0554  0.3140
  151OSM    H9F16818   1.777   3.902   4.236 -0.8763 -0.1795 -1.6183
  151OSM   C10F16819   1.931   3.787   4.323  0.3097  0.5059 -0.0711
  151OSM   H10F16820   1.920   3.854   4.409 -0.2414  0.5049 -0.1377
  151OSM   C11F16821   1.999   3.656   4.343  0.5522  0.6482 -0.2145
  151OSM   H11F16822   2.061   3.641   4.252 -0.1178 -1.2898 -0.3975
  151OSM   H11G16823   1.926   3.573   4.354  1.0276  0.3172  0.5569
  151OSM   C12F16824   2.103   3.636   4.459  0.6491  0.4175 -0.1914
  151OSM   H12F16825   2.183   3.713   4.451  1.6697 -0.4725  1.0317
  151OSM   H12G16826   2.143   3.534   4.440  0.3820  0.4737 -1.1435
  151OSM   C13F16827   2.040   3.644   4.601  0.1391  0.6919  0.2880
  151OSM   H13F16828   1.931   3.630   4.592  0.1695  0.7302 -0.2191
  151OSM   H13G16829   2.050   3.748   4.640  1.7499  1.2142 -1.3707
  151OSM   C14F16830   2.104   3.557   4.710 -0.1219  0.2029  0.5721
  151OSM   H14F16831   2.210   3.590   4.713 -0.2407  0.5629  0.8487
  151OSM   H14G16832   2.096   3.450   4.682  0.2747  0.2114  0.4164
  151OSM   C15F16833   2.040   3.591   4.844 -0.3674  0.5738  0.4151
  151OSM   H15F16834   1.929   3.588   4.831 -0.2714 -0.0457 -0.4074
  151OSM   H15G16835   2.063   3.696   4.869  2.7797  0.1731 -0.4232
  151OSM   C16F16836   2.073   3.497   4.956 -0.9314 -0.1456 -0.6266
  151OSM   H16F16837   2.080   3.560   5.048  0.8870 -1.1870 -0.0085
  151OSM   H16G16838   2.178   3.467   4.935 -2.1689 -3.2439 -3.1222
  151OSM   C17F16839   1.979   3.385   4.998 -1.1780  0.7612  0.1053
  151OSM   H17F16840   2.036   3.303   5.047  0.0266  0.3520 -1.8621
  151OSM   H17G16841   1.952   3.338   4.901 -0.1152  0.8830 -0.2628
  151OSM   C18F16842   1.856   3.427   5.081 -0.0555  0.3913 -0.5835
  151OSM   H18F16843   1.786   3.495   5.029  0.1523  3.0453  2.3041
  151OSM   H18G16844   1.883   3.465   5.182  1.2003 -1.4909 -0.1388
  151OSM   H18H16845   1.786   3.342   5.098 -1.2967  1.0691 -2.0843
  152OSM      N16846   3.390   1.565   2.770 -0.3486  0.0607 -0.0684
  152OSM    C1516847   3.448   1.463   2.671  0.2400 -0.2700  0.3607
  152OSM   H15A16848   3.380   1.466   2.587 -0.2360 -0.1848  0.7515
  152OSM   H15B16849   3.443   1.364   2.714  3.3295 -0.1804  1.2064
  152OSM   H15C16850   3.550   1.487   2.644 -0.2990  0.1964 -1.4520
  152OSM    C1416851   3.481   1.562   2.887 -0.5629 -0.5602 -0.3712
  152OSM   H14A16852   3.576   1.608   2.863  0.5273 -1.3998  2.1221
  152OSM   H14B16853   3.498   1.461   2.919 -2.6093 -0.5119  0.9984
  152OSM   H14C16854   3.447   1.616   2.974  0.5203 -3.0295  1.7123
  152OSM    C1316855   3.405   1.698   2.707  0.0156  0.0393  0.1355
  152OSM   H13A16856   3.507   1.731   2.694 -0.1324 -0.6380 -4.0825
  152OSM   H13B16857   3.359   1.766   2.777  0.7237 -0.0655  0.7204
  152OSM   H13C16858   3.358   1.701   2.610 -1.0790 -0.9239  0.6213
  152OSM    C1216859   3.246   1.534   2.798  0.1540  0.2569  0.7039
  152OSM   H12A16860   3.208   1.503   2.702  3.5104  1.8848 -1.3246
  152OSM   H12B16861   3.194   1.627   2.814  0.8395  0.7161  0.3292
  152OSM    C1116862   3.218   1.436   2.917  0.0022 -0.3597  0.5244
  152OSM   H11A16863   3.107   1.426   2.915 -0.0394  0.1989 -0.5576
  152OSM   H11B16864   3.246   1.478   3.016 -1.1193  0.5114  0.4937
  152OSM      P16865   3.360   1.225   2.985 -0.2850  0.2687 -0.3051
  152OSM    O1316866   3.471   1.158   2.918  0.1187  0.2923 -0.9632
  152OSM    O1416867   3.387   1.295   3.110 -0.3245 -0.0739 -0.4759
  152OSM    O1116868   3.240   1.122   3.009 -0.2591 -0.1807 -0.2932
  152OSM    O1216869   3.287   1.313   2.880 -0.3242 -0.5919  0.1679
  152OSM    C1S16870   3.255   1.038   3.127 -0.1338  0.7821 -0.1674
  152OSM    H1S16871   3.304   1.084   3.215  0.6856  0.8945 -0.6698
  152OSM    H1T16872   3.314   0.949   3.094 -2.0286 -0.7222  0.3269
  152OSM     NF16873   3.145   0.888   3.291  0.2277 -0.2138 -0.0797
  152OSM    HNF16874   3.127   0.793   3.266  3.3461 -0.4278 -2.0438
  152OSM    C2S16875   3.124   0.979   3.173 -0.4570 -0.2752 -0.4625
  152OSM    H2S16876   3.072   1.067   3.218 -1.9517 -1.6837  0.7073
  152OSM    C3S16877   3.043   0.916   3.056 -0.1618  0.1854 -0.6591
  152OSM    H3S16878   3.109   0.835   3.019 -1.9164 -1.9013  0.5132
  152OSM     O316879   3.011   1.011   2.948 -0.5959  0.7513 -0.1891
  152OSM    HO316880   3.061   1.092   2.962  1.3810 -0.1843 -1.3923
  152OSM    C4S16881   2.917   0.839   3.111  0.5044  0.0735  0.0359
  152OSM    H4S16882   2.925   0.737   3.150 -1.9457 -1.4011 -2.8842
  152OSM    C5S16883   2.793   0.884   3.120  0.0022  0.1707  0.3794
  152OSM    H5S16884   2.770   0.984   3.080  1.3592  1.1057  1.8406
  152OSM    C6S16885   2.677   0.815   3.185 -0.0239 -0.2280  0.4342
  152OSM    H6S16886   2.591   0.791   3.119 -1.3184  0.8852  1.6423
  152OSM    H6T16887   2.642   0.901   3.245  1.9846  1.2454 -0.3860
  152OSM    C7S16888   2.698   0.688   3.262 -0.1434  0.0898  0.7512
  152OSM    H7S16889   2.738   0.612   3.192 -2.5684  1.5488 -2.5325
  152OSM    H7T16890   2.597   0.654   3.292 -0.6112 -0.4451 -1.2554
  152OSM    C8S16891   2.792   0.703   3.388  0.3177  0.3236  0.6215
  152OSM    H8S16892   2.750   0.799   3.426 -0.9422  1.0358 -2.2659
  152OSM    H8T16893   2.901   0.704   3.367  0.4479 -0.8325  1.2305
  152OSM    C9S16894   2.770   0.601   3.506  0.4570  0.3106 -0.3746
  152OSM    H9S16895   2.757   0.495   3.477  0.1936  0.4166 -0.6483
  152OSM    H9T16896   2.673   0.634   3.550  1.5498  4.2999 -0.5805
  152OSM   C10S16897   2.879   0.615   3.616 -0.0537 -0.0192  0.7676
  152OSM   H10S16898   2.888   0.721   3.645 -0.5058  0.3092 -0.2557
  152OSM   H10T16899   2.980   0.583   3.581 -0.3307  1.2997 -1.3837
  152OSM   C11S16900   2.844   0.525   3.741  0.6096  0.6157 -1.3524
  152OSM   H11S16901   2.856   0.419   3.708  0.0379  0.6178 -1.5773
  152OSM   H11T16902   2.742   0.551   3.776  0.9465 -1.2491  1.3017
  152OSM   C12S16903   2.936   0.546   3.856 -0.1447  0.1871 -1.1422
  152OSM   H12S16904   2.936   0.652   3.890 -2.5133  0.1882 -0.9308
  152OSM   H12T16905   3.040   0.517   3.833  0.3233  1.1040 -0.2903
  152OSM   C13S16906   2.881   0.473   3.985 -0.5089  0.3884  0.1226
  152OSM   H13S16907   2.881   0.363   3.968  0.9401 -0.3090  3.6987
  152OSM   H13T16908   2.777   0.508   4.002 -1.0478 -0.6006 -1.0081
  152OSM   C14S16909   2.962   0.525   4.106  0.1298 -0.0297 -0.3160
  152OSM   H14S16910   2.981   0.634   4.110  0.3782  0.0175 -2.2413
  152OSM   H14T16911   3.064   0.481   4.094 -0.1000 -1.1008  1.2588
  152OSM   C15S16912   2.911   0.471   4.241 -0.3655 -0.2440 -0.8760
  152OSM   H15S16913   2.846   0.385   4.212  1.2203 -0.8127 -2.9622
  152OSM   H15T16914   2.850   0.547   4.294  0.0942 -0.7219  0.3712
  152OSM   C16S16915   3.019   0.428   4.346  0.6484  0.9197  0.3740
  152OSM   H16S16916   3.102   0.502   4.348  1.2690  0.2293  2.0045
  152OSM   H16T16917   3.072   0.337   4.311 -0.5728  0.0957  0.5865
  152OSM   C17S16918   2.958   0.399   4.487 -0.1617  0.2026  0.1461
  152OSM   H17S16919   2.877   0.323   4.487  0.9628 -1.0423 -0.3547
  152OSM   H17T16920   2.918   0.500   4.512 -0.1017  0.3600 -0.3853
  152OSM   C18S16921   3.073   0.391   4.591 -0.0301 -0.2882 -0.4092
  152OSM   H18S16922   3.118   0.289   4.597  1.0486  0.2254  0.6653
  152OSM   H18T16923   3.028   0.414   4.690  0.8091 -3.2522  0.7889
  152OSM   H18U16924   3.149   0.465   4.558  0.0875 -0.9842 -1.7695
  152OSM    C1F16925   3.196   0.921   3.413 -0.3923 -0.6754  0.4611
  152OSM     OF16926   3.215   1.038   3.451 -0.2030  0.3373  0.3384
  152OSM    C2F16927   3.214   0.812   3.510 -0.2197 -0.1846  0.4460
  152OSM    H2F16928   3.172   0.722   3.462  0.5804 -0.4368  0.1951
  152OSM    H2G16929   3.161   0.840   3.603  0.6612  1.8975  0.3854
  152OSM    C3F16930   3.369   0.800   3.542 -0.1478 -0.9120  0.4295
  152OSM    H3F16931   3.408   0.902   3.564 -0.0854 -1.1785  1.5801
  152OSM    H3G16932   3.431   0.771   3.454  0.8349  2.5152 -0.2000
  152OSM    C4F16933   3.404   0.694   3.652  0.6414  0.2838 -0.5046
  152OSM    H4F16934   3.515   0.701   3.659  0.7883 -2.6071  2.9749
  152OSM    H4G16935   3.365   0.596   3.617  1.3835 -0.7086  1.2986
  152OSM    C5F16936   3.355   0.738   3.791  0.8534  0.1094  0.1512
  152OSM    H5F16937   3.244   0.745   3.781  0.9629 -0.9129 -2.4380
  152OSM    H5G16938   3.396   0.841   3.800 -0.8379  0.8241  0.1728
  152OSM    C6F16939   3.384   0.665   3.917 -0.1255  0.1765 -0.0116
  152OSM    H6F16940   3.491   0.639   3.925  0.5156  2.6768  0.5282
  152OSM    H6G16941   3.320   0.574   3.912 -0.9252  0.7580 -0.7020
  152OSM    C7F16942   3.348   0.752   4.042  0.3312  0.6047  0.4597
  152OSM    H7F16943   3.242   0.784   4.027 -0.3201 -1.7095 -0.1634
  152OSM    H7G16944   3.418   0.839   4.044  0.3111  0.6278  3.0180
  152OSM    C8F16945   3.356   0.660   4.164 -0.0097  0.7134 -1.0350
  152OSM    H8F16946   3.439   0.589   4.141 -0.4693 -0.2853  0.2595
  152OSM    H8G16947   3.261   0.601   4.171 -0.8706  2.2529  1.3063
  152OSM    C9F16948   3.388   0.722   4.293  0.0136  0.3202 -0.0820
  152OSM    H9F16949   3.330   0.815   4.299  0.9325  0.9695 -1.0411
  152OSM   C10F16950   3.453   0.687   4.400 -0.2366 -0.1162  0.6175
  152OSM   H10F16951   3.459   0.763   4.480 -1.8675 -1.1056  1.7551
  152OSM   C11F16952   3.545   0.568   4.402 -0.4669  0.5473  0.4583
  152OSM   H11F16953   3.644   0.607   4.434  0.0639 -0.4856  0.1307
  152OSM   H11G16954   3.550   0.527   4.299 -0.4986 -0.0584  0.6964
  152OSM   C12F16955   3.499   0.472   4.508 -0.1657 -0.1968  0.8999
  152OSM   H12F16956   3.555   0.377   4.505 -1.3922 -0.9454 -1.2957
  152OSM   H12G16957   3.393   0.438   4.502 -0.6288  1.3418 -0.3982
  152OSM   C13F16958   3.536   0.520   4.652 -1.0144  0.1720  0.0838
  152OSM   H13F16959   3.475   0.612   4.667  1.0213  1.2441  2.4316
  152OSM   H13G16960   3.645   0.536   4.659 -0.9037 -0.6626  0.4250
  152OSM   C14F16961   3.494   0.422   4.764  0.1478 -0.2795  0.4829
  152OSM   H14F16962   3.580   0.355   4.787 -1.3137 -1.7233  2.1203
  152OSM   H14G16963   3.404   0.372   4.722 -0.6766  2.9558 -1.9512
  152OSM   C15F16964   3.452   0.496   4.898 -0.4090 -0.2828  0.1702
  152OSM   H15F16965   3.415   0.419   4.969 -1.1005  2.4619  3.0094
  152OSM   H15G16966   3.366   0.554   4.856  1.2773  0.1604 -2.9877
  152OSM   C16F16967   3.561   0.580   4.963  0.3224  0.5574  0.4165
  152OSM   H16F16968   3.517   0.661   5.026  2.3688  0.3906  2.2132
  152OSM   H16G16969   3.617   0.635   4.884 -0.4202  0.0247 -0.4901
  152OSM   C17F16970   3.665   0.500   5.043 -0.0877  0.0413  0.3089
  152OSM   H17F16971   3.743   0.451   4.980  0.2852 -0.5181  1.1944
  152OSM   H17G16972   3.621   0.416   5.102 -2.0765 -1.0969 -2.5490
  152OSM   C18F16973   3.753   0.590   5.138  0.4693  0.1900 -0.2163
  152OSM   H18F16974   3.795   0.678   5.086  0.7657  0.9184  1.2169
  152OSM   H18G16975   3.830   0.535   5.197 -1.2481 -0.7005  1.2871
  152OSM   H18H16976   3.674   0.630   5.205 -1.1217 -1.9919 -0.6644
  153OSM      N16977   2.451   6.398   2.854  0.0170  0.0974  0.4801
  153OSM    C1516978   2.373   6.519   2.833  0.3696  0.3888 -1.2095
  153OSM   H15A16979   2.434   6.602   2.800  0.1740  1.0085 -0.0666
  153OSM   H15B16980   2.327   6.555   2.924 -0.7260 -1.3643 -1.0195
  153OSM   H15C16981   2.283   6.501   2.776 -1.7100 -1.4958  2.3315
  153OSM    C1416982   2.524   6.410   2.985  0.4117 -1.0126  0.4432
  153OSM   H14A16983   2.463   6.415   3.074  0.8231 -1.4259  0.7587
  153OSM   H14B16984   2.594   6.492   2.989 -0.5288 -0.2399  1.7331
  153OSM   H14C16985   2.593   6.327   2.996  0.6344 -0.8415  0.3375
  153OSM    C1316986   2.360   6.282   2.861 -0.3275 -0.4777 -0.5398
  153OSM   H13A16987   2.281   6.285   2.934 -0.7798  0.6772 -1.0429
  153OSM   H13B16988   2.427   6.197   2.871 -1.4630 -1.6937 -2.4828
  153OSM   H13C16989   2.317   6.276   2.762  0.5718  1.4323 -1.1034
  153OSM    C1216990   2.549   6.370   2.743 -0.7223 -0.3394 -0.1917
  153OSM   H12A16991   2.619   6.453   2.741 -1.2575  0.1432  0.5704
  153OSM   H12B16992   2.497   6.382   2.650  1.2708 -0.2553 -1.3648
  153OSM    C1116993   2.633   6.235   2.750 -0.4050  0.3455 -0.3850
  153OSM   H11A16994   2.690   6.226   2.655 -1.3660  0.7889 -1.0208
  153OSM   H11B16995   2.559   6.152   2.748 -1.1084  0.9170  0.6520
  153OSM      P16996   2.783   6.083   2.898 -0.0657 -0.2185 -0.0576
  153OSM    O1316997   2.762   5.998   2.777 -0.2032 -0.4173 -0.5777
  153OSM    O1416998   2.920   6.119   2.940 -0.9837 -0.4571  0.1853
  153OSM    O1116999   2.710   6.026   3.026  0.1602 -0.8100  0.4474
  153OSM    O1217000   2.708   6.218   2.872 -0.2167 -0.0825  0.1126
  153OSM    C1S17001   2.626   6.110   3.112 -0.0589 -0.7003 -0.7208
  153OSM    H1S17002   2.536   6.138   3.053 -0.2200 -0.9649 -0.6038
  153OSM    H1T17003   2.680   6.201   3.144  1.4530 -1.2281 -1.6620
  153OSM     NF17004   2.460   6.110   3.304 -0.5354  0.4186  0.3597
  153OSM    HNF17005   2.480   6.157   3.389 -1.6411  1.0801  0.2670
  153OSM    C2S17006   2.571   6.035   3.238  0.5591  0.3799  0.5356
  153OSM    H2S17007   2.525   5.946   3.190  0.6034 -0.2968  1.7048
  153OSM    C3S17008   2.683   5.990   3.328 -0.9301  0.2579 -0.3281
  153OSM    H3S17009   2.702   6.077   3.395 -1.8324 -0.1087  0.4312
  153OSM     O317010   2.816   5.967   3.271 -0.2598  0.2910 -0.6955
  153OSM    HO317011   2.827   6.017   3.189  1.7245  0.7909 -0.1805
  153OSM    C4S17012   2.648   5.873   3.419 -0.6860  0.1701 -0.1252
  153OSM    H4S17013   2.635   5.909   3.522  0.1408 -0.6477  0.2849
  153OSM    C5S17014   2.644   5.737   3.403 -0.4105 -0.3725  0.1753
  153OSM    H5S17015   2.680   5.701   3.306  0.0092  0.6540 -0.0611
  153OSM    C6S17016   2.620   5.641   3.518 -0.3573  0.0773  0.2752
  153OSM    H6S17017   2.720   5.594   3.528 -1.4144 -2.3572  0.1130
  153OSM    H6T17018   2.534   5.575   3.492 -0.2294  0.3685 -0.9515
  153OSM    C7S17019   2.592   5.697   3.660 -0.3310 -0.2312  0.4348
  153OSM    H7S17020   2.498   5.754   3.644  1.5302  2.6564 -0.9792
  153OSM    H7T17021   2.675   5.768   3.683 -1.8468  1.0993  2.1431
  153OSM    C8S17022   2.557   5.587   3.762  0.3489 -0.2743  0.6509
  153OSM    H8S17023   2.646   5.550   3.817 -0.3131 -2.0544  0.5854
  153OSM    H8T17024   2.505   5.503   3.712 -1.1028  1.3994 -0.7637
  153OSM    C9S17025   2.460   5.641   3.875 -0.4303  0.6199 -0.1222
  153OSM    H9S17026   2.410   5.549   3.912  1.7804  0.0186  1.6898
  153OSM    H9T17027   2.384   5.715   3.842 -0.4996  1.5357  1.9132
  153OSM   C10S17028   2.550   5.679   3.995 -0.1236 -0.2871  0.5019
  153OSM   H10S17029   2.575   5.786   3.975 -0.4185 -0.4468 -0.8833
  153OSM   H10T17030   2.643   5.621   4.014 -0.3948 -0.1218  2.5113
  153OSM   C11S17031   2.463   5.682   4.119  0.3242  0.1788  0.5309
  153OSM   H11S17032   2.430   5.577   4.135  2.8986 -1.1831 -2.1460
  153OSM   H11T17033   2.365   5.731   4.103 -0.2215 -0.1464  2.5384
  153OSM   C12S17034   2.535   5.728   4.246  0.6836  0.4021  0.0509
  153OSM   H12S17035   2.612   5.653   4.274  1.5238  0.8876 -0.8996
  153OSM   H12T17036   2.450   5.730   4.318 -0.1589  0.0290 -0.8982
  153OSM   C13S17037   2.604   5.861   4.235  0.0880  0.8577 -0.3302
  153OSM   H13S17038   2.526   5.940   4.240 -2.3660 -1.4247 -0.4292
  153OSM   H13T17039   2.661   5.881   4.142  3.6066  0.8968  1.6396
  153OSM   C14S17040   2.710   5.885   4.344  0.2834 -0.0402  0.3903
  153OSM   H14S17041   2.759   5.985   4.338  1.5714 -0.7115 -0.8968
  153OSM   H14T17042   2.783   5.806   4.316 -1.3775 -2.0181  1.3659
  153OSM   C15S17043   2.666   5.862   4.493  0.3735 -0.8906 -0.8378
  153OSM   H15S17044   2.654   5.752   4.502 -2.5538 -0.5916 -0.0796
  153OSM   H15T17045   2.568   5.912   4.505  0.2453 -1.3084 -0.1455
  153OSM   C16S17046   2.759   5.937   4.597 -0.7125 -0.1839 -0.3398
  153OSM   H16S17047   2.729   6.043   4.596 -1.1883 -0.2983 -2.2575
  153OSM   H16T17048   2.865   5.930   4.563 -0.8789  0.0265 -0.9088
  153OSM   C17S17049   2.766   5.884   4.737  0.0517 -0.1850 -0.0498
  153OSM   H17S17050   2.828   5.792   4.731 -0.9182 -0.9077  0.6326
  153OSM   H17T17051   2.672   5.852   4.786  0.7745  0.5717  1.9351
  153OSM   C18S17052   2.838   5.971   4.842 -0.9702 -0.4595  0.5803
  153OSM   H18S17053   2.928   6.015   4.795  0.1709 -1.1115  2.0585
  153OSM   H18T17054   2.874   5.906   4.925  0.0608  0.3425  0.7859
  153OSM   H18U17055   2.769   6.045   4.887 -3.1204 -1.7153 -0.4827
  153OSM    C1F17056   2.349   6.142   3.239 -0.0515  0.1967  0.2628
  153OSM     OF17057   2.315   6.080   3.141  0.7501 -0.9596  0.0262
  153OSM    C2F17058   2.265   6.246   3.304  0.3699  0.1677  0.2903
  153OSM    H2F17059   2.285   6.343   3.253  1.2449  0.7893  1.7271
  153OSM    H2G17060   2.294   6.254   3.411  1.6849 -1.5838  0.1135
  153OSM    C3F17061   2.115   6.208   3.291 -0.0754 -0.5352  0.8389
  153OSM    H3F17062   2.090   6.117   3.349  0.3699 -1.1246  0.1219
  153OSM    H3G17063   2.093   6.184   3.185  1.4744 -0.4314  0.4583
  153OSM    C4F17064   2.022   6.322   3.334  0.0695 -0.1673  0.2560
  153OSM    H4F17065   1.926   6.319   3.278  0.4575 -2.7952 -0.4292
  153OSM    H4G17066   2.081   6.414   3.314  0.9921 -0.8671 -0.3710
  153OSM    C5F17067   1.998   6.308   3.485 -0.4544 -0.4392 -0.9878
  153OSM    H5F17068   2.091   6.279   3.538 -1.9317 -0.4200  1.8407
  153OSM    H5G17069   1.918   6.231   3.491  0.1807 -1.3036 -2.8515
  153OSM    C6F17070   1.934   6.418   3.558 -0.1666 -0.5423 -0.7622
  153OSM    H6F17071   2.009   6.499   3.550 -1.1662  0.2724 -2.5316
  153OSM    H6G17072   1.916   6.393   3.665  0.8833  1.2839 -0.1120
  153OSM    C7F17073   1.807   6.470   3.500  0.2308 -0.3910  0.5472
  153OSM    H7F17074   1.720   6.401   3.509 -2.7055  3.0605  0.6436
  153OSM    H7G17075   1.811   6.488   3.391 -0.4145 -2.6968  0.0773
  153OSM    C8F17076   1.750   6.599   3.567 -0.5528  0.0651 -0.0835
  153OSM    H8F17077   1.702   6.571   3.663  0.1605  0.3382  0.3655
  153OSM    H8G17078   1.676   6.631   3.491 -0.1569  2.6900  0.5044
  153OSM    C9F17079   1.851   6.717   3.594  0.6628 -0.1369  0.1944
  153OSM    H9F17080   1.923   6.726   3.511  1.5978  1.0266  1.1090
  153OSM   C10F17081   1.868   6.788   3.706 -0.2499 -0.3867 -0.0139
  153OSM   H10F17082   1.952   6.859   3.714 -2.4492  2.1974  1.7734
  153OSM   C11F17083   1.791   6.793   3.834  0.6466  0.2481  0.4329
  153OSM   H11F17084   1.690   6.757   3.806  1.2336  0.6640 -2.5814
  153OSM   H11G17085   1.791   6.896   3.878  0.9891  0.5024 -0.1531
  153OSM   C12F17086   1.848   6.697   3.940  0.0027 -0.0799  0.3047
  153OSM   H12F17087   1.956   6.720   3.954  0.0504  0.7841 -1.2240
  153OSM   H12G17088   1.821   6.591   3.923  0.6256  0.0317 -1.5665
  153OSM   C13F17089   1.777   6.748   4.065 -0.2450 -0.5458  0.6142
  153OSM   H13F17090   1.671   6.721   4.046 -0.6385  2.2116 -1.7126
  153OSM   H13G17091   1.781   6.858   4.073 -0.9296 -0.3362 -1.4693
  153OSM   C14F17092   1.822   6.676   4.193  0.6509 -0.0867  0.2748
  153OSM   H14F17093   1.931   6.696   4.191  0.2521  2.5601  1.2939
  153OSM   H14G17094   1.812   6.566   4.185 -1.5171 -0.0898  1.9452
  153OSM   C15F17095   1.775   6.723   4.331 -0.1766 -0.0832  0.2366
  153OSM   H15F17096   1.664   6.721   4.332 -0.1980  0.1749  2.8366
  153OSM   H15G17097   1.808   6.828   4.345  0.1620  0.1960 -2.2151
  153OSM   C16F17098   1.829   6.636   4.446  0.7166  0.2429  0.3011
  153OSM   H16F17099   1.938   6.616   4.451  0.9783  1.1058 -1.2912
  153OSM   H16G17100   1.783   6.536   4.428 -0.4272  0.9365 -0.8321
  153OSM   C17F17101   1.785   6.692   4.580 -0.0306  0.3867 -0.0491
  153OSM   H17F17102   1.796   6.802   4.566  0.6816  0.2620 -0.4877
  153OSM   H17G17103   1.848   6.652   4.662 -0.3348  0.5554  0.2699
  153OSM   C18F17104   1.637   6.657   4.610  0.3094  0.1174  0.2255
  153OSM   H18F17105   1.574   6.674   4.521  0.7612 -0.3660 -0.1933
  153OSM   H18G17106   1.593   6.714   4.695  0.4296  2.6450 -1.3153
  153OSM   H18H17107   1.636   6.547   4.627 -1.7500  0.1881  0.7298
  154OSM      N17108   1.624   4.630   2.769 -0.1437 -0.6209  0.2978
  154OSM    C1517109   1.635   4.616   2.916  0.3852  0.2603  0.0200
  154OSM   H15A17110   1.669   4.518   2.946 -2.8829 -0.8896  0.3744
  154OSM   H15B17111   1.546   4.622   2.976  1.2763  1.7013  1.2573
  154OSM   H15C17112   1.708   4.684   2.958 -1.5169  2.1027  0.4764
  154OSM    C1417113   1.537   4.517   2.712 -0.2554 -0.3700  0.0728
  154OSM   H14A17114   1.448   4.511   2.773 -0.1966 -1.0632  0.0976
  154OSM   H14B17115   1.583   4.420   2.717 -0.6789 -0.5450  0.8002
  154OSM   H14C17116   1.509   4.519   2.608 -0.3993  0.4720  0.1200
  154OSM    C1317117   1.557   4.759   2.745  0.4226 -0.6988  0.1499
  154OSM   H13A17118   1.630   4.835   2.764  0.6132 -1.2086  1.6015
  154OSM   H13B17119   1.467   4.770   2.804 -0.8849  4.0282 -2.2253
  154OSM   H13C17120   1.529   4.767   2.641  1.0239 -0.8125 -0.0237
  154OSM    C1217121   1.766   4.635   2.715  0.0737 -0.9696  0.5811
  154OSM   H12A17122   1.818   4.722   2.752  2.1127 -1.8977  0.0536
  154OSM   H12B17123   1.767   4.646   2.608  0.3730  0.1889  0.6922
  154OSM    C1117124   1.854   4.516   2.750  0.2012  0.4166 -0.0152
  154OSM   H11A17125   1.929   4.505   2.669  1.2908 -0.2565  1.0549
  154OSM   H11B17126   1.795   4.423   2.734 -0.8841  1.1955 -0.7117
  154OSM      P17127   2.018   4.645   2.902  0.2394 -0.0821 -0.0512
  154OSM    O1317128   2.114   4.651   2.787 -0.0206 -0.5848  0.1278
  154OSM    O1417129   1.929   4.763   2.923 -0.2285 -0.0679  0.4474
  154OSM    O1117130   2.095   4.612   3.043  0.0461 -0.1382  0.3436
  154OSM    O1217131   1.915   4.523   2.884  0.1509  0.2930  0.3241
  154OSM    C1S17132   2.027   4.591   3.163  0.3288 -0.6014 -0.0318
  154OSM    H1S17133   2.003   4.484   3.177  0.7951 -0.6829  0.1821
  154OSM    H1T17134   1.930   4.645   3.168  1.1303  0.8978  0.1534
  154OSM     NF17135   2.023   4.632   3.408 -0.1641  0.1656 -0.3170
  154OSM    HNF17136   1.996   4.722   3.441 -0.7376  0.4729 -1.5622
  154OSM    C2S17137   2.109   4.633   3.290 -0.2732  0.0685  0.2374
  154OSM    H2S17138   2.192   4.559   3.291 -0.6784 -0.5303 -2.4861
  154OSM    C3S17139   2.177   4.771   3.286  0.4020 -0.0895  0.4770
  154OSM    H3S17140   2.094   4.843   3.270 -1.0793 -1.4074  1.8270
  154OSM     O317141   2.260   4.785   3.164 -0.4067  0.0545  0.7042
  154OSM    HO317142   2.231   4.712   3.109 -0.3687 -0.6063  1.5328
  154OSM    C4S17143   2.260   4.797   3.413  0.0810  0.0446  0.2225
  154OSM    H4S17144   2.200   4.843   3.492 -0.9226  0.8563 -0.9723
  154OSM    C5S17145   2.392   4.776   3.426 -0.7997 -0.2252  0.2497
  154OSM    H5S17146   2.454   4.740   3.342 -1.0250  0.3609 -0.1754
  154OSM    C6S17147   2.472   4.794   3.554 -0.2149  0.4327  0.5839
  154OSM    H6S17148   2.544   4.875   3.529  0.9267 -0.7705 -0.1509
  154OSM    H6T17149   2.539   4.709   3.580  1.0382  1.0251 -0.6002
  154OSM    C7S17150   2.409   4.847   3.687  0.3620  0.5297 -0.3259
  154OSM    H7S17151   2.374   4.763   3.750  1.1393 -0.5289 -1.2738
  154OSM    H7T17152   2.324   4.914   3.659 -0.4370 -0.8781 -1.3882
  154OSM    C8S17153   2.510   4.933   3.771 -0.3678 -0.0337 -0.2046
  154OSM    H8S17154   2.537   5.020   3.708  1.7173 -0.8722 -0.5575
  154OSM    H8T17155   2.602   4.872   3.780 -2.2574 -3.3046 -1.4271
  154OSM    C9S17156   2.452   4.971   3.909  0.6748 -0.1505 -0.1118
  154OSM    H9S17157   2.425   4.886   3.976 -0.5785 -0.4586 -0.9698
  154OSM    H9T17158   2.356   5.024   3.893  0.7037  0.5401  1.7627
  154OSM   C10S17159   2.539   5.067   3.995  0.3146  0.3669 -0.3044
  154OSM   H10S17160   2.560   5.164   3.944  0.0267  0.8993  0.5854
  154OSM   H10T17161   2.630   5.004   4.004  1.9469  2.4808 -1.0872
  154OSM   C11S17162   2.484   5.097   4.138 -0.3268 -0.3981  0.2706
  154OSM   H11S17163   2.492   5.009   4.206 -0.4048 -0.5537  0.0775
  154OSM   H11T17164   2.375   5.119   4.144 -0.3858 -0.1744 -1.3817
  154OSM   C12S17165   2.554   5.214   4.203 -1.0423 -0.6913  0.3841
  154OSM   H12S17166   2.546   5.308   4.144  2.3422 -0.4413  0.1163
  154OSM   H12T17167   2.661   5.183   4.202 -1.0366 -0.7254  1.2059
  154OSM   C13S17168   2.506   5.248   4.344 -0.2975  0.1256  0.5376
  154OSM   H13S17169   2.459   5.160   4.391  0.7090 -0.6928  0.0591
  154OSM   H13T17170   2.425   5.323   4.335  0.1345  0.4560 -0.9472
  154OSM   C14S17171   2.621   5.302   4.428 -0.3299  0.5243 -0.1003
  154OSM   H14S17172   2.665   5.384   4.367  0.2624  1.0007  0.9352
  154OSM   H14T17173   2.694   5.222   4.452  1.4103  1.2577 -2.6228
  154OSM   C15S17174   2.579   5.363   4.560  0.0844  0.0088  0.4163
  154OSM   H15S17175   2.514   5.286   4.606  0.0875 -0.6014 -0.5902
  154OSM   H15T17176   2.519   5.456   4.551 -1.0920 -0.7200  0.4885
  154OSM   C16S17177   2.695   5.400   4.653 -0.4211 -0.2999 -0.3695
  154OSM   H16S17178   2.769   5.464   4.601 -0.6444 -1.6666 -2.4907
  154OSM   H16T17179   2.748   5.306   4.681 -2.4726 -1.3890  0.0659
  154OSM   C17S17180   2.657   5.478   4.780 -0.4882 -0.0499 -0.0692
  154OSM   H17S17181   2.580   5.424   4.839 -0.0421  1.3493  1.9007
  154OSM   H17T17182   2.627   5.582   4.753 -0.7338 -0.3974 -1.1895
  154OSM   C18S17183   2.778   5.496   4.873 -0.2858  0.1266 -0.4269
  154OSM   H18S17184   2.745   5.564   4.955  0.4476  0.5081 -0.4420
  154OSM   H18T17185   2.864   5.541   4.819 -0.5099  0.8223 -0.2216
  154OSM   H18U17186   2.811   5.400   4.917  2.0144  1.0838  0.0885
  154OSM    C1F17187   1.967   4.521   3.466 -0.1849  0.2118 -0.2269
  154OSM     OF17188   1.972   4.410   3.406 -0.5161  0.2987 -0.4564
  154OSM    C2F17189   1.886   4.550   3.590 -0.2764  0.4133  0.3334
  154OSM    H2F17190   1.780   4.528   3.566 -0.1994  1.7683 -1.4287
  154OSM    H2G17191   1.896   4.656   3.621 -1.9581  1.1737 -1.4894
  154OSM    C3F17192   1.927   4.461   3.705 -0.6662 -0.0522 -0.2558
  154OSM    H3F17193   2.028   4.492   3.738 -0.1957  0.3205 -1.9630
  154OSM    H3G17194   1.922   4.357   3.666  1.2659 -0.2727  0.0090
  154OSM    C4F17195   1.837   4.483   3.826  0.3831 -0.6960  0.7856
  154OSM    H4F17196   1.736   4.450   3.793  0.1474 -0.1237  0.9191
  154OSM    H4G17197   1.826   4.592   3.843 -3.2192 -0.7976  0.0194
  154OSM    C5F17198   1.861   4.407   3.959 -0.0152  0.2933  0.2883
  154OSM    H5F17199   1.769   4.399   4.020 -1.6674  0.9314 -2.0001
  154OSM    H5G17200   1.931   4.475   4.014 -1.7291  1.1098  1.5528
  154OSM    C6F17201   1.921   4.266   3.942  0.2741 -0.2764  0.1553
  154OSM    H6F17202   2.022   4.268   3.895 -0.3786 -0.0384 -1.2987
  154OSM    H6G17203   1.850   4.217   3.871  1.1276  3.0062 -3.2874
  154OSM    C7F17204   1.920   4.185   4.069  0.5543 -0.5580  0.1034
  154OSM    H7F17205   1.953   4.083   4.042  2.6807  0.3930 -1.0710
  154OSM    H7G17206   1.816   4.181   4.110  0.8047 -2.8901  0.6374
  154OSM    C8F17207   2.023   4.234   4.173  0.3688 -0.1325 -0.0702
  154OSM    H8F17208   1.982   4.329   4.215 -1.6276 -1.9061  2.3651
  154OSM    H8G17209   2.108   4.258   4.106 -0.1595  0.9663 -0.3784
  154OSM    C9F17210   2.063   4.126   4.273 -0.0310 -0.5065  0.3022
  154OSM    H9F17211   2.119   4.040   4.231  0.0230 -0.7319  0.8288
  154OSM   C10F17212   2.033   4.113   4.402  0.0074 -0.4786  0.0886
  154OSM   H10F17213   2.066   4.027   4.463 -0.3471 -0.2707  0.5816
  154OSM   C11F17214   1.931   4.202   4.481 -0.4733  0.5001 -0.2836
  154OSM   H11F17215   1.916   4.296   4.424  0.9065  0.4092 -0.8417
  154OSM   H11G17216   1.973   4.214   4.583 -0.9168 -1.3297  0.1567
  154OSM   C12F17217   1.797   4.129   4.489  0.4046 -0.8324 -1.1372
  154OSM   H12F17218   1.748   4.105   4.392 -0.0412 -1.5731 -0.7400
  154OSM   H12G17219   1.739   4.208   4.539  1.0937 -1.1924  0.2754
  154OSM   C13F17220   1.794   4.005   4.576 -0.7565  0.5005 -0.1809
  154OSM   H13F17221   1.898   3.967   4.580  0.1358  2.8702  1.2080
  154OSM   H13G17222   1.720   3.927   4.549  0.3671 -1.3838  1.8509
  154OSM   C14F17223   1.761   4.044   4.724 -0.3395  0.6487  0.2646
  154OSM   H14F17224   1.657   4.077   4.742 -0.1227  0.6612  1.6054
  154OSM   H14G17225   1.824   4.131   4.752  0.5521  0.0095  0.2942
  154OSM   C15F17226   1.788   3.918   4.815 -0.1523  0.1783  0.5907
  154OSM   H15F17227   1.891   3.879   4.816 -0.8578 -2.0062  3.9918
  154OSM   H15G17228   1.728   3.840   4.764  0.8194  0.1885 -0.6253
  154OSM   C16F17229   1.746   3.945   4.958 -0.1729 -0.6239  0.4705
  154OSM   H16F17230   1.640   3.979   4.962 -0.0562 -0.0846 -0.5963
  154OSM   H16G17231   1.811   4.022   5.006  0.8709 -2.3924  2.0645
  154OSM   C17F17232   1.773   3.829   5.061 -0.1045 -0.1159 -0.3981
  154OSM   H17F17233   1.729   3.736   5.017 -0.9825 -0.2096  0.6260
  154OSM   H17G17234   1.712   3.849   5.151  1.8469  1.1233  0.7189
  154OSM   C18F17235   1.916   3.815   5.103 -0.0164  0.4123 -0.4357
  154OSM   H18F17236   1.927   3.733   5.177  0.4721  0.4259 -0.4906
  154OSM   H18G17237   1.957   3.905   5.152  1.8750 -1.0440  0.8175
  154OSM   H18H17238   1.979   3.789   5.015  1.4716  0.5676  0.5419
  155OSM      N17239   2.604   2.004   2.914 -0.0733  0.6654 -0.2973
  155OSM    C1517240   2.689   1.973   3.030 -0.4120 -0.5476  0.3990
  155OSM   H15A17241   2.644   1.996   3.126  3.0904 -1.6201  2.4625
  155OSM   H15B17242   2.780   2.030   3.018 -0.3616 -0.4500  1.1667
  155OSM   H15C17243   2.703   1.866   3.033 -0.4027 -0.5308  1.2064
  155OSM    C1417244   2.462   1.959   2.953 -0.5568 -0.3537 -0.2875
  155OSM   H14A17245   2.458   1.862   3.001 -0.5786 -0.0880  0.2509
  155OSM   H14B17246   2.390   1.962   2.873  1.4961 -1.2164 -2.2930
  155OSM   H14C17247   2.433   2.031   3.028 -0.3030 -1.5529  0.9973
  155OSM    C1317248   2.598   2.151   2.874  0.6507  0.1342  0.0753
  155OSM   H13A17249   2.692   2.186   2.832  0.5010 -0.1252 -0.4773
  155OSM   H13B17250   2.574   2.201   2.967 -1.6347  1.0518 -0.9562
  155OSM   H13C17251   2.525   2.171   2.797  1.3874  0.3211 -0.5873
  155OSM    C1217252   2.639   1.916   2.796 -0.0017 -0.0815 -0.1778
  155OSM   H12A17253   2.588   1.954   2.708 -0.0118  1.3667  0.4135
  155OSM   H12B17254   2.596   1.820   2.820 -1.2546  1.0651  2.5613
  155OSM    C1117255   2.789   1.901   2.768 -0.7491  0.5181 -0.5623
  155OSM   H11A17256   2.840   1.995   2.799  1.1755 -0.8845  0.7836
  155OSM   H11B17257   2.813   1.889   2.660  0.2518  1.4945 -0.4664
  155OSM      P17258   2.824   1.647   2.818 -0.1847 -0.2908 -0.1594
  155OSM    O1317259   2.683   1.634   2.773 -0.5715 -0.4058 -0.7597
  155OSM    O1417260   2.926   1.597   2.721  0.0596 -0.2239  0.1016
  155OSM    O1117261   2.836   1.583   2.966  0.1734 -0.4329 -0.4461
  155OSM    O1217262   2.847   1.800   2.848  0.4828 -0.4125 -0.3545
  155OSM    C1S17263   2.931   1.616   3.067  0.0924  0.3488 -0.4698
  155OSM    H1S17264   2.919   1.723   3.096  0.4434  0.1807  0.3192
  155OSM    H1T17265   3.034   1.600   3.027  0.4400 -0.5615  0.7392
  155OSM     NF17266   3.012   1.578   3.305  0.9436  0.0908 -0.3501
  155OSM    HNF17267   3.090   1.516   3.305  0.4834 -0.6891  3.1449
  155OSM    C2S17268   2.915   1.532   3.199 -0.5653 -0.2728 -0.6141
  155OSM    H2S17269   2.812   1.552   3.237 -0.1184  0.8854  0.0401
  155OSM    C3S17270   2.927   1.378   3.172 -0.0918 -0.3439  0.2566
  155OSM    H3S17271   3.035   1.357   3.153 -0.0707 -0.1117  0.1142
  155OSM     O317272   2.845   1.339   3.051  0.0329 -0.0856  0.4421
  155OSM    HO317273   2.834   1.421   3.003  0.0334 -0.1865  0.2686
  155OSM    C4S17274   2.893   1.302   3.298  0.4873 -0.2585  0.5484
  155OSM    H4S17275   2.962   1.324   3.380  1.0287 -0.3640  0.1286
  155OSM    C5S17276   2.798   1.207   3.321  0.9299 -0.2045 -0.6054
  155OSM    H5S17277   2.733   1.182   3.236  0.4091 -0.9678  0.0093
  155OSM    C6S17278   2.783   1.130   3.446  0.0782 -0.5158  0.2215
  155OSM    H6S17279   2.774   1.027   3.406  1.9687  0.2711 -2.5088
  155OSM    H6T17280   2.684   1.156   3.489 -0.0818  0.0307 -0.4479
  155OSM    C7S17281   2.889   1.130   3.561 -0.3629 -0.5784 -0.0500
  155OSM    H7S17282   2.917   1.235   3.586 -1.0736 -0.4468  0.2211
  155OSM    H7T17283   2.978   1.069   3.537 -0.2555 -1.1131  1.5963
  155OSM    C8S17284   2.824   1.070   3.693 -0.2969 -0.3278 -0.7601
  155OSM    H8S17285   2.787   0.967   3.678 -1.5908 -0.4046  2.1765
  155OSM    H8T17286   2.735   1.129   3.724 -0.9227 -0.8641 -1.5067
  155OSM    C9S17287   2.917   1.061   3.816 -0.0099 -0.6541  0.2907
  155OSM    H9S17288   2.946   1.166   3.838 -3.1745  0.0556  1.6668
  155OSM    H9T17289   3.005   1.011   3.771 -0.6390 -2.0494  0.5589
  155OSM   C10S17290   2.857   0.989   3.934  0.1819 -0.3671 -0.5607
  155OSM   H10S17291   2.831   0.882   3.920 -4.4813 -0.0385  2.9518
  155OSM   H10T17292   2.762   1.041   3.962  0.9595  1.4740 -1.2262
  155OSM   C11S17293   2.954   1.000   4.049  0.0282 -0.9595  0.3963
  155OSM   H11S17294   2.966   1.110   4.062  0.4722 -0.9135 -0.3274
  155OSM   H11T17295   3.050   0.961   4.009 -0.4899 -1.2772 -0.5908
  155OSM   C12S17296   2.909   0.929   4.177 -0.7526 -0.2151 -0.2687
  155OSM   H12S17297   2.894   0.823   4.147 -2.7057  0.7040 -2.8904
  155OSM   H12T17298   2.819   0.972   4.226  0.2956  3.1609 -1.0587
  155OSM   C13S17299   3.027   0.929   4.281  0.3580 -0.7616  0.1781
  155OSM   H13S17300   3.039   1.037   4.304 -1.3131 -0.1180 -1.6081
  155OSM   H13T17301   3.120   0.891   4.234  0.1577 -0.3609 -0.5685
  155OSM   C14S17302   2.977   0.856   4.406 -0.1752 -0.1592 -0.3798
  155OSM   H14S17303   2.972   0.748   4.382 -0.3755 -0.6637  1.7459
  155OSM   H14T17304   2.881   0.902   4.437 -1.0743 -0.4853 -2.4780
  155OSM   C15S17305   3.071   0.864   4.523  0.1303  0.1473  0.8269
  155OSM   H15S17306   3.075   0.972   4.547 -0.2830  0.3112  0.1838
  155OSM   H15T17307   3.167   0.827   4.480  1.3397  1.7656  1.9905
  155OSM   C16S17308   3.032   0.788   4.655 -0.3832  0.5895 -0.5244
  155OSM   H16S17309   3.008   0.686   4.617  1.6722 -0.1593  0.0722
  155OSM   H16T17310   2.949   0.837   4.710 -0.8628 -3.2571  2.5273
  155OSM   C17S17311   3.156   0.772   4.753  0.2372 -0.6706 -0.1634
  155OSM   H17S17312   3.182   0.873   4.793 -1.0002  0.0324 -1.0561
  155OSM   H17T17313   3.232   0.728   4.685 -3.1978 -2.9904 -2.8518
  155OSM   C18S17314   3.117   0.683   4.871  0.3678  0.4438 -0.7936
  155OSM   H18S17315   3.107   0.581   4.826 -3.1094  0.1977  0.2648
  155OSM   H18T17316   3.013   0.713   4.896  1.3029  0.9272  3.0127
  155OSM   H18U17317   3.173   0.692   4.966 -0.7789  1.8021 -0.2191
  155OSM    C1F17318   3.015   1.708   3.348  0.4428  0.6389 -0.8791
  155OSM     OF17319   2.915   1.782   3.330 -0.1587  0.6347 -0.2075
  155OSM    C2F17320   3.136   1.761   3.421  0.3188 -0.1268  0.3934
  155OSM    H2F17321   3.194   1.820   3.347 -0.4004 -1.3436 -1.1978
  155OSM    H2G17322   3.205   1.680   3.455  1.9034  0.2415 -1.7031
  155OSM    C3F17323   3.087   1.857   3.537  0.1567 -1.0754  0.2800
  155OSM    H3F17324   3.024   1.940   3.498  3.3835  1.2203 -0.4018
  155OSM    H3G17325   3.169   1.914   3.585 -0.7180  0.7590 -0.3086
  155OSM    C4F17326   2.998   1.786   3.631 -0.0484 -0.3421 -0.3959
  155OSM    H4F17327   3.051   1.701   3.681  1.2888  2.2892  3.0845
  155OSM    H4G17328   2.902   1.753   3.585  1.0172  0.8002 -3.6315
  155OSM    C5F17329   2.962   1.871   3.762 -0.1248 -0.0877 -0.1329
  155OSM    H5F17330   2.903   1.961   3.734  0.7345  0.5404  0.0443
  155OSM    H5G17331   3.057   1.914   3.800  0.3331  0.2965 -1.6673
  155OSM    C6F17332   2.878   1.787   3.863 -0.7564  0.1507 -0.0211
  155OSM    H6F17333   2.946   1.700   3.880 -0.0671  0.5104 -0.8606
  155OSM    H6G17334   2.786   1.758   3.808  0.3799  0.9487 -2.4949
  155OSM    C7F17335   2.825   1.864   3.982 -0.5075 -0.0277  0.0667
  155OSM    H7F17336   2.740   1.929   3.954 -2.0480 -1.1511  1.9590
  155OSM    H7G17337   2.902   1.931   4.026 -1.1144  1.1121 -0.5608
  155OSM    C8F17338   2.779   1.774   4.100 -0.2557  0.2550 -0.6822
  155OSM    H8F17339   2.709   1.695   4.063 -0.8265  2.0618 -3.9321
  155OSM    H8G17340   2.711   1.848   4.147 -1.9387 -0.7640 -1.4034
  155OSM    C9F17341   2.882   1.726   4.203 -0.2085  0.1411  0.2848
  155OSM    H9F17342   2.895   1.617   4.189  2.7859  0.4722 -0.1769
  155OSM   C10F17343   2.961   1.790   4.288  0.3337 -0.1904 -0.2304
  155OSM   H10F17344   3.018   1.724   4.354 -1.3507 -2.7721 -1.2002
  155OSM   C11F17345   2.958   1.936   4.313  0.2428 -0.0989  0.7999
  155OSM   H11F17346   2.887   1.992   4.249  1.3673  0.7657  0.2794
  155OSM   H11G17347   3.062   1.972   4.295  0.7519 -0.9256  1.9636
  155OSM   C12F17348   2.926   1.973   4.457 -0.3561 -0.5146  0.0144
  155OSM   H12F17349   2.822   1.949   4.488 -0.4839 -0.5006 -0.4006
  155OSM   H12G17350   2.933   2.084   4.458 -1.1565 -0.3886 -2.3701
  155OSM   C13F17351   3.033   1.936   4.560 -0.2115  0.0491 -0.0195
  155OSM   H13F17352   3.134   1.967   4.526  0.5067 -0.1712  1.7668
  155OSM   H13G17353   3.049   1.826   4.561  0.0856  0.0851 -0.3629
  155OSM   C14F17354   2.997   1.979   4.700  0.2543  0.1813 -0.0813
  155OSM   H14F17355   2.892   1.947   4.716  1.4302 -3.5603  1.1178
  155OSM   H14G17356   3.010   2.089   4.713 -0.6566  0.2275  0.5133
  155OSM   C15F17357   3.075   1.921   4.821 -0.0457  0.9469 -0.1226
  155OSM   H15F17358   3.181   1.923   4.787  0.7791 -2.6712  1.7218
  155OSM   H15G17359   3.058   1.813   4.840 -0.8498  1.3458  1.6844
  155OSM   C16F17360   3.063   1.999   4.951 -0.2302  0.7240 -0.0441
  155OSM   H16F17361   2.959   2.009   4.988 -0.4382 -0.4786 -0.2497
  155OSM   H16G17362   3.108   2.100   4.940 -1.6593  1.4520  0.5288
  155OSM   C17F17363   3.151   1.931   5.068  0.7785  0.2122  0.3141
  155OSM   H17F17364   3.235   1.873   5.025 -1.0363 -3.7341  1.6455
  155OSM   H17G17365   3.090   1.868   5.136 -1.7307  1.2936 -0.8069
  155OSM   C18F17366   3.217   2.028   5.163 -0.0207 -0.1837 -0.7127
  155OSM   H18F17367   3.183   2.132   5.146  0.9307  0.2864  0.1501
  155OSM   H18G17368   3.325   2.032   5.136  0.2457  0.8840  0.4469
  155OSM   H18H17369   3.206   2.011   5.272 -1.2007  0.1446 -0.7730
  156OSM      N17370   6.575   0.371   2.912  0.3515  0.4491 -0.6017
  156OSM    C1517371   6.606   0.418   3.054  0.7336  0.7113 -0.1726
  156OSM   H15A17372   6.693   0.364   3.086 -0.1601  0.0041  1.1828
  156OSM   H15B17373   6.529   0.394   3.126  2.5952 -1.0044  1.3789
  156OSM   H15C17374   6.617   0.525   3.058  1.7837  0.5933  0.2716
  156OSM    C1417375   6.713   0.388   2.841 -0.1422  0.0431 -0.4154
  156OSM   H14A17376   6.719   0.333   2.748  1.8547  1.8646 -1.4565
  156OSM   H14B17377   6.794   0.357   2.905 -1.3354 -0.1159  1.1062
  156OSM   H14C17378   6.729   0.493   2.821  0.0553 -0.1716 -1.4298
  156OSM    C1317379   6.558   0.221   2.912  0.9130  0.1388 -0.3033
  156OSM   H13A17380   6.557   0.180   2.813  0.4232 -0.2158 -0.1584
  156OSM   H13B17381   6.471   0.186   2.967  1.1755 -1.8662 -1.0853
  156OSM   H13C17382   6.651   0.180   2.948  0.5436 -1.2863 -0.8744
  156OSM    C1217383   6.458   0.431   2.850  0.3682  0.3717 -0.1388
  156OSM   H12A17384   6.465   0.427   2.743  0.8414 -0.0473 -0.0937
  156OSM   H12B17385   6.453   0.537   2.872  1.7427  0.5836 -0.7712
  156OSM    C1117386   6.315   0.381   2.896  0.5846  0.2226  0.0788
  156OSM   H11A17387   6.316   0.280   2.849  1.2329  0.3005 -0.0871
  156OSM   H11B17388   6.231   0.439   2.852  0.2445 -0.0822  0.3180
  156OSM      P17389   6.234   0.264   3.114  0.2964 -0.0789  0.2928
  156OSM    O1317390   6.092   0.300   3.127  0.2924 -0.2018  0.6160
  156OSM    O1417391   6.261   0.131   3.052 -0.2138  0.9048 -0.4806
  156OSM    O1117392   6.295   0.265   3.255 -0.4806 -0.5303 -0.3601
  156OSM    O1217393   6.309   0.373   3.039 -0.2882 -0.2922  0.0730
  156OSM    C1S17394   6.316   0.390   3.320  0.0361  0.6472  0.0779
  156OSM    H1S17395   6.219   0.441   3.338  0.9360  2.1903  0.7645
  156OSM    H1T17396   6.393   0.450   3.266  1.6764 -1.7123 -0.3799
  156OSM     NF17397   6.395   0.510   3.532 -0.5094  0.5240  0.4241
  156OSM    HNF17398   6.489   0.527   3.560  0.0191  1.3504 -1.6305
  156OSM    C2S17399   6.370   0.381   3.465 -0.0518  0.5182  0.1711
  156OSM    H2S17400   6.288   0.328   3.518  0.6419 -0.2121  0.5371
  156OSM    C3S17401   6.492   0.284   3.477  0.6003  0.1327  0.2628
  156OSM    H3S17402   6.577   0.322   3.416 -0.3277 -0.5845 -1.5607
  156OSM     O317403   6.477   0.156   3.427 -0.1542  0.9400 -0.2502
  156OSM    HO317404   6.414   0.162   3.355  1.6465  2.4150 -1.7910
  156OSM    C4S17405   6.536   0.256   3.617  0.3823 -0.1269 -0.4985
  156OSM    H4S17406   6.442   0.228   3.667 -0.8222  1.6760 -1.6415
  156OSM    C5S17407   6.664   0.257   3.670 -0.6887  0.1564 -0.0262
  156OSM    H5S17408   6.752   0.272   3.606  0.5243 -3.2591  0.6326
  156OSM    C6S17409   6.711   0.210   3.806  0.4582 -0.1524 -0.2850
  156OSM    H6S17410   6.758   0.111   3.788  0.2878 -0.1860 -0.5483
  156OSM    H6T17411   6.622   0.189   3.870 -0.9203  0.7992 -1.8023
  156OSM    C7S17412   6.799   0.301   3.880 -0.2835  0.0086 -0.0620
  156OSM    H7S17413   6.757   0.404   3.884 -0.2307  0.1790 -2.3910
  156OSM    H7T17414   6.899   0.321   3.838 -0.7461  1.0713 -0.7082
  156OSM    C8S17415   6.823   0.261   4.034 -0.1684  0.0279  0.5614
  156OSM    H8S17416   6.853   0.154   4.035 -2.5817 -0.7647 -1.4749
  156OSM    H8T17417   6.722   0.253   4.080 -0.1399 -3.0198  0.3027
  156OSM    C9S17418   6.915   0.346   4.117 -0.4593  0.2469  0.5484
  156OSM    H9S17419   6.898   0.456   4.111 -0.7963  0.1276 -1.1605
  156OSM    H9T17420   7.016   0.330   4.075 -1.0066  1.8439 -1.5731
  156OSM   C10S17421   6.924   0.313   4.267 -0.6713  0.1247 -0.4846
  156OSM   H10S17422   7.011   0.370   4.306 -0.3295 -0.8612  0.2394
  156OSM   H10T17423   6.945   0.204   4.273  3.0906  0.7615  0.3910
  156OSM   C11S17424   6.810   0.349   4.361 -0.2239 -0.2314 -0.1557
  156OSM   H11S17425   6.724   0.279   4.355 -1.6665  1.4240  0.2933
  156OSM   H11T17426   6.765   0.446   4.328  0.5567  0.7120  1.4459
  156OSM   C12S17427   6.831   0.328   4.516 -0.0963 -0.1984  0.3423
  156OSM   H12S17428   6.867   0.224   4.533 -0.0850 -0.3630 -0.5948
  156OSM   H12T17429   6.735   0.330   4.571  0.5677  2.7128  1.5687
  156OSM   C13S17430   6.922   0.433   4.578  0.2869  0.2937 -0.1640
  156OSM   H13S17431   6.873   0.531   4.561 -0.2558  0.1489  0.5189
  156OSM   H13T17432   7.020   0.431   4.525  1.3698 -0.6707  1.7822
  156OSM   C14S17433   6.930   0.409   4.728 -0.6952 -0.5453 -0.4256
  156OSM   H14S17434   7.019   0.466   4.762 -0.3633 -0.2582 -1.7435
  156OSM   H14T17435   6.947   0.305   4.764 -1.1903 -0.4136  0.1956
  156OSM   C15S17436   6.809   0.454   4.809 -0.1573  0.2142  0.1676
  156OSM   H15S17437   6.732   0.390   4.761  2.9210 -2.0029 -2.2588
  156OSM   H15T17438   6.797   0.559   4.774 -0.2302 -0.5353 -2.2199
  156OSM   C16S17439   6.823   0.435   4.961 -1.1434 -0.1649  0.2892
  156OSM   H16S17440   6.917   0.483   4.995 -1.6202  0.9257  0.0909
  156OSM   H16T17441   6.827   0.330   4.998 -1.1513 -0.4279 -0.4436
  156OSM   C17S17442   6.703   0.502   5.030 -1.5281  0.6597 -0.3813
  156OSM   H17S17443   6.611   0.440   5.018 -0.3883 -1.4563  1.2252
  156OSM   H17T17444   6.690   0.602   4.983  4.7864  2.1244  0.0596
  156OSM   C18S17445   6.736   0.524   5.173  0.9648 -0.9943  0.4733
  156OSM   H18S17446   6.726   0.635   5.184 -1.6240 -1.2918  1.9738
  156OSM   H18T17447   6.841   0.499   5.200  0.0836 -3.4695  1.9224
  156OSM   H18U17448   6.666   0.479   5.247 -2.6122 -1.5418 -2.9573
  156OSM    C1F17449   6.306   0.597   3.570 -0.5921 -0.0232  0.4494
  156OSM     OF17450   6.187   0.595   3.539 -0.1588  0.9495  0.6027
  156OSM    C2F17451   6.366   0.703   3.655  0.6183 -0.3188 -0.1678
  156OSM    H2F17452   6.298   0.790   3.668 -2.0092 -2.1949 -0.6212
  156OSM    H2G17453   6.466   0.736   3.619  1.1296 -1.6816 -0.0378
  156OSM    C3F17454   6.392   0.645   3.798 -0.0464 -0.4597  0.1516
  156OSM    H3F17455   6.478   0.576   3.787 -0.4246 -1.0800  0.9945
  156OSM    H3G17456   6.302   0.584   3.818 -1.5886  1.4530 -0.6469
  156OSM    C4F17457   6.417   0.751   3.908  0.0768 -0.0967  0.3807
  156OSM    H4F17458   6.347   0.837   3.908  1.9915  1.5415  1.1545
  156OSM    H4G17459   6.520   0.790   3.892 -0.3911  0.2999 -2.0284
  156OSM    C5F17460   6.430   0.679   4.046 -0.3016 -0.0094  0.6815
  156OSM    H5F17461   6.502   0.595   4.044 -0.4989 -0.1906  1.1774
  156OSM    H5G17462   6.327   0.646   4.067 -0.8022 -0.1150 -1.7139
  156OSM    C6F17463   6.481   0.769   4.159 -0.8539  0.5654  0.6548
  156OSM    H6F17464   6.408   0.851   4.176 -0.2885  0.6960  2.6884
  156OSM    H6G17465   6.581   0.809   4.128 -1.2480  0.9982 -0.0956
  156OSM    C7F17466   6.498   0.683   4.288  0.6100 -0.0584 -0.1124
  156OSM    H7F17467   6.549   0.585   4.279 -1.2163 -1.3659  2.5365
  156OSM    H7G17468   6.395   0.659   4.323  0.5654  1.7232  1.0777
  156OSM    C8F17469   6.564   0.755   4.400 -0.0180  0.1950 -0.0651
  156OSM    H8F17470   6.510   0.846   4.433  2.3594  0.7113  2.8163
  156OSM    H8G17471   6.655   0.790   4.347  0.6881 -0.2814  0.8088
  156OSM    C9F17472   6.618   0.677   4.518  0.1477 -0.1310  0.0253
  156OSM    H9F17473   6.707   0.614   4.501  0.1338 -1.1092  2.9669
  156OSM   C10F17474   6.562   0.676   4.639  0.0729  0.1389  0.6032
  156OSM   H10F17475   6.611   0.620   4.720 -0.0360  0.2285  0.7322
  156OSM   C11F17476   6.441   0.755   4.682 -0.3416 -0.3981 -1.0777
  156OSM   H11F17477   6.354   0.689   4.698  0.2142 -1.1108 -0.9670
  156OSM   H11G17478   6.418   0.837   4.610 -0.5936  0.8425  0.3586
  156OSM   C12F17479   6.469   0.835   4.818 -0.5011  1.1054 -1.0654
  156OSM   H12F17480   6.455   0.766   4.905  0.1844  1.9362 -0.2764
  156OSM   H12G17481   6.386   0.909   4.827 -1.6935 -0.3468  0.8391
  156OSM   C13F17482   6.602   0.911   4.809 -0.5194  0.4425 -0.1832
  156OSM   H13F17483   6.609   0.972   4.717 -0.5260 -0.3733 -0.7331
  156OSM   H13G17484   6.683   0.836   4.797 -1.4859 -0.9167  1.4459
  156OSM   C14F17485   6.640   0.992   4.934 -0.0262 -0.6190 -0.0160
  156OSM   H14F17486   6.557   1.065   4.936 -0.7407 -1.3569 -1.2857
  156OSM   H14G17487   6.739   1.043   4.924 -0.1701 -0.5696 -1.4965
  156OSM   C15F17488   6.643   0.916   5.059 -0.2775  0.1440  0.4025
  156OSM   H15F17489   6.710   0.828   5.048 -0.2849  0.0510  1.1001
  156OSM   H15G17490   6.542   0.873   5.077 -0.5293  0.4372 -0.2582
  156OSM   C16F17491   6.691   0.996   5.176 -0.2734 -0.0925 -0.5785
  156OSM   H16F17492   6.624   1.083   5.189  0.5080  0.1867  2.7209
  156OSM   H16G17493   6.790   1.036   5.145 -0.8103  0.5334 -1.4953
  156OSM   C17F17494   6.705   0.914   5.306  0.2200 -0.9973  0.0552
  156OSM   H17F17495   6.791   0.844   5.303  2.0418  1.1355 -0.0917
  156OSM   H17G17496   6.610   0.858   5.318  0.9202 -2.0344  0.9750
  156OSM   C18F17497   6.716   1.002   5.433  0.0587  1.3042 -0.7160
  156OSM   H18F17498   6.623   1.062   5.443 -0.5569  0.1721  0.8270
  156OSM   H18G17499   6.803   1.070   5.428  0.9851  0.2216 -0.0632
  156OSM   H18H17500   6.718   0.934   5.522 -3.7183  2.1052  0.1368
  157OSM      N17501   4.420   0.222   2.550 -1.5290  0.2605  0.1459
  157OSM    C1517502   4.370   0.145   2.434  0.0910  0.7383 -0.0554
  157OSM   H15A17503   4.374   0.213   2.350  0.4173  0.8120  0.0177
  157OSM   H15B17504   4.268   0.113   2.445 -0.0118  1.0018 -0.2170
  157OSM   H15C17505   4.421   0.056   2.401  0.6462  1.0515 -0.0693
  157OSM    C1417506   4.570   0.229   2.561  0.0174  0.5094  0.1827
  157OSM   H14A17507   4.607   0.270   2.654  0.5848 -0.3345  0.3292
  157OSM   H14B17508   4.622   0.270   2.476 -2.0247 -0.6609 -1.7418
  157OSM   H14C17509   4.598   0.125   2.557  0.0849  0.3960  2.3973
  157OSM    C1317510   4.378   0.359   2.539  0.5848 -0.0831 -0.0153
  157OSM   H13A17511   4.271   0.368   2.526  0.7630  0.2651 -1.4415
  157OSM   H13B17512   4.416   0.407   2.450 -1.1006  0.1523 -0.6485
  157OSM   H13C17513   4.390   0.411   2.633 -2.3856 -0.7634  0.8300
  157OSM    C1217514   4.363   0.145   2.677 -0.0699 -0.3452  0.8807
  157OSM   H12A17515   4.398   0.043   2.675  1.5684  0.1870 -1.5108
  157OSM   H12B17516   4.256   0.147   2.664 -0.3834 -2.3968  2.6538
  157OSM    C1117517   4.401   0.197   2.819  0.2521 -0.3148 -0.4660
  157OSM   H11A17518   4.349   0.136   2.896 -0.1274  0.0070 -0.4656
  157OSM   H11B17519   4.353   0.297   2.814 -1.7964 -1.1627  0.5360
  157OSM      P17520   4.615   0.060   2.868  0.4061  0.3976 -0.5180
  157OSM    O1317521   4.521  -0.055   2.873 -0.1708  0.3975  0.0772
  157OSM    O1417522   4.724   0.059   2.769  0.4149 -0.6717  0.5545
  157OSM    O1117523   4.683   0.070   3.013 -0.2110  0.4844  0.2799
  157OSM    O1217524   4.538   0.199   2.855 -0.1463 -0.5172  0.2364
  157OSM    C1S17525   4.677   0.192   3.094 -0.0058  0.3122 -0.3037
  157OSM    H1S17526   4.573   0.201   3.132  0.1328  1.2536 -0.1269
  157OSM    H1T17527   4.706   0.281   3.035  0.1864  0.5232  0.1000
  157OSM     NF17528   4.729   0.302   3.319 -0.3377  0.1227 -0.0465
  157OSM    HNF17529   4.813   0.355   3.332  0.0090 -0.7715  1.6880
  157OSM    C2S17530   4.761   0.193   3.228 -0.0488  0.0600  0.8297
  157OSM    H2S17531   4.746   0.098   3.283  0.2520 -0.8163 -0.5484
  157OSM    C3S17532   4.916   0.194   3.180  0.3294 -0.1695 -0.4451
  157OSM    H3S17533   4.933   0.296   3.140  0.3274  0.2728  0.6408
  157OSM     O317534   4.942   0.109   3.069 -0.6914 -0.3029 -0.0048
  157OSM    HO317535   4.856   0.072   3.046 -0.1719 -0.8405 -1.1911
  157OSM    C4S17536   5.008   0.167   3.297  0.1289 -0.6340  0.9411
  157OSM    H4S17537   5.030   0.255   3.360 -1.4479  0.1109  0.4959
  157OSM    C5S17538   5.076   0.053   3.331 -0.3571  0.3373 -1.3084
  157OSM    H5S17539   5.080  -0.035   3.266  1.4930 -0.3335 -0.3507
  157OSM    C6S17540   5.175   0.047   3.446  0.0766 -0.1475 -0.5993
  157OSM    H6S17541   5.276   0.015   3.413  0.5218 -1.3083  1.6782
  157OSM    H6T17542   5.148  -0.042   3.508 -0.0785 -0.6976 -1.4445
  157OSM    C7S17543   5.201   0.172   3.545  0.1012  0.3820  0.2121
  157OSM    H7S17544   5.198   0.264   3.483  4.0621  0.3741 -0.2416
  157OSM    H7T17545   5.296   0.167   3.603 -0.7601  1.6152  1.8509
  157OSM    C8S17546   5.080   0.186   3.637  0.3061 -0.7455 -0.1841
  157OSM    H8S17547   5.072   0.100   3.707 -1.5260 -1.8731 -1.6478
  157OSM    H8T17548   4.990   0.179   3.571  2.5360  0.5034 -3.6644
  157OSM    C9S17549   5.076   0.325   3.701 -0.4066  0.2228 -0.0563
  157OSM    H9S17550   5.007   0.392   3.645  0.8201  1.3270 -0.3106
  157OSM    H9T17551   5.171   0.383   3.692 -0.3114  0.2888  1.1585
  157OSM   C10S17552   5.036   0.336   3.851  0.4641 -0.0325  0.4103
  157OSM   H10S17553   4.943   0.281   3.877  0.8603 -1.3354 -0.8349
  157OSM   H10T17554   5.029   0.440   3.888 -1.7590 -0.5118  1.4741
  157OSM   C11S17555   5.148   0.261   3.927 -0.5348  0.2071 -0.3242
  157OSM   H11S17556   5.242   0.269   3.869 -0.4575  0.0485 -0.2220
  157OSM   H11T17557   5.139   0.150   3.929  1.2956  0.0284  1.5577
  157OSM   C12S17558   5.173   0.320   4.067 -0.1027  0.4056 -0.2617
  157OSM   H12S17559   5.216   0.422   4.055  0.9365 -0.0565 -0.6082
  157OSM   H12T17560   5.245   0.266   4.133  0.1332  1.6228  0.5220
  157OSM   C13S17561   5.046   0.345   4.148  0.4022  0.7863  0.3104
  157OSM   H13S17562   4.979   0.257   4.136 -0.2548  1.1408  1.2418
  157OSM   H13T17563   4.994   0.431   4.103 -0.1856  0.5108  0.4579
  157OSM   C14S17564   5.063   0.374   4.297 -0.1857  0.5861  0.3681
  157OSM   H14S17565   4.983   0.445   4.329  0.1978  0.6082  1.3032
  157OSM   H14T17566   5.154   0.433   4.321  1.2133 -1.4153  0.2284
  157OSM   C15S17567   5.072   0.251   4.386 -0.9533 -0.0502  0.2681
  157OSM   H15S17568   5.164   0.194   4.363 -2.3465 -1.8310 -1.3053
  157OSM   H15T17569   4.999   0.176   4.350  0.6966 -1.8071  0.4463
  157OSM   C16S17570   5.042   0.277   4.526 -0.0444  0.3732 -0.4531
  157OSM   H16S17571   5.028   0.187   4.589  0.0446  1.2905  0.9106
  157OSM   H16T17572   4.946   0.332   4.537 -1.2373 -1.7295  0.2220
  157OSM   C17S17573   5.139   0.375   4.595 -0.2483 -0.8283  0.2130
  157OSM   H17S17574   5.156   0.476   4.553 -0.4388 -0.5792  0.7249
  157OSM   H17T17575   5.237   0.324   4.611 -0.1508 -0.7159 -0.0166
  157OSM   C18S17576   5.080   0.407   4.741 -0.1599 -1.2719  0.3771
  157OSM   H18S17577   5.117   0.507   4.773 -1.2534 -0.7216 -0.0568
  157OSM   H18T17578   5.116   0.333   4.817  0.5858 -0.3591  0.9359
  157OSM   H18U17579   4.969   0.409   4.732 -0.1202  1.6948 -0.4808
  157OSM    C1F17580   4.614   0.312   3.388 -0.2142 -0.3212 -0.3001
  157OSM     OF17581   4.527   0.222   3.375 -0.2639 -0.1726 -0.0172
  157OSM    C2F17582   4.593   0.422   3.483  0.3921  0.3077  0.2191
  157OSM    H2F17583   4.522   0.489   3.429  1.1973 -0.6479 -2.1727
  157OSM    H2G17584   4.686   0.482   3.484  0.0838  0.9465 -2.3000
  157OSM    C3F17585   4.541   0.367   3.615  0.0340  0.6988 -0.2876
  157OSM    H3F17586   4.615   0.287   3.636  2.2109  1.9305 -2.6332
  157OSM    H3G17587   4.441   0.324   3.596  0.2620 -0.1645  0.3852
  157OSM    C4F17588   4.550   0.477   3.728  0.3399  0.4037  0.8682
  157OSM    H4F17589   4.485   0.446   3.813  0.0877  0.2034  0.6019
  157OSM    H4G17590   4.522   0.570   3.674  1.6009 -0.3298 -1.1760
  157OSM    C5F17591   4.698   0.490   3.769  0.4652 -0.1982 -0.3139
  157OSM    H5F17592   4.759   0.542   3.692  2.6775 -1.9517  0.1553
  157OSM    H5G17593   4.745   0.389   3.771  0.1064 -0.3638 -0.1151
  157OSM    C6F17594   4.725   0.556   3.910 -0.0725 -0.3257  0.8269
  157OSM    H6F17595   4.680   0.657   3.909 -3.1653 -1.5704 -1.1543
  157OSM    H6G17596   4.834   0.551   3.932 -0.3154 -2.1423  1.8240
  157OSM    C7F17597   4.665   0.469   4.026 -1.1691  0.5794 -0.3255
  157OSM    H7F17598   4.708   0.367   4.013 -1.9258  0.1009  0.7782
  157OSM    H7G17599   4.554   0.466   4.024 -1.1635  0.4930 -0.7304
  157OSM    C8F17600   4.711   0.529   4.158 -0.1932  0.0529  0.5121
  157OSM    H8F17601   4.661   0.627   4.174  2.1920  1.1346  1.8889
  157OSM    H8G17602   4.820   0.549   4.159 -0.6562  3.0030  0.8845
  157OSM    C9F17603   4.669   0.444   4.275  0.1993  0.0653  0.0284
  157OSM    H9F17604   4.646   0.342   4.241 -0.8822 -0.2585  1.6366
  157OSM   C10F17605   4.675   0.463   4.407 -0.2317 -0.4380 -0.1468
  157OSM   H10F17606   4.650   0.391   4.487  1.5297 -2.3261 -1.2026
  157OSM   C11F17607   4.716   0.598   4.462  0.3430  0.0152  0.1995
  157OSM   H11F17608   4.629   0.665   4.478  1.0249  0.3840  2.9545
  157OSM   H11G17609   4.769   0.655   4.383 -1.1193  1.4807  0.2258
  157OSM   C12F17610   4.797   0.615   4.594  0.6486  0.2995  1.0224
  157OSM   H12F17611   4.835   0.720   4.594  0.3157  0.4197  1.0823
  157OSM   H12G17612   4.888   0.552   4.587  0.2188 -0.2399  0.0929
  157OSM   C13F17613   4.719   0.591   4.723 -0.2995  0.3470  0.5058
  157OSM   H13F17614   4.728   0.490   4.770 -1.6792  1.4252  3.3671
  157OSM   H13G17615   4.615   0.599   4.686  0.5844 -2.0539 -2.9837
  157OSM   C14F17616   4.749   0.698   4.831 -0.4406  0.3097  0.5184
  157OSM   H14F17617   4.665   0.707   4.903 -0.9619 -0.3979  0.0156
  157OSM   H14G17618   4.743   0.795   4.776 -1.4719 -0.3020 -0.4927
  157OSM   C15F17619   4.877   0.657   4.896 -0.8299 -0.0267  0.4295
  157OSM   H15F17620   4.967   0.672   4.832 -0.2834 -3.2455  0.2254
  157OSM   H15G17621   4.876   0.549   4.922  0.5253  0.4635  2.7909
  157OSM   C16F17622   4.910   0.742   5.026 -0.1345  0.1168  0.7886
  157OSM   H16F17623   5.006   0.707   5.071  0.4850 -0.0434 -0.6182
  157OSM   H16G17624   4.826   0.732   5.099  0.3954  3.4751  2.0510
  157OSM   C17F17625   4.922   0.885   4.995 -0.5076  0.2438 -0.4170
  157OSM   H17F17626   4.823   0.936   4.998 -0.2007  0.8242  1.6894
  157OSM   H17G17627   4.940   0.892   4.886  2.0171  1.1035 -0.0322
  157OSM   C18F17628   5.036   0.957   5.064 -0.1547 -0.1358 -0.1846
  157OSM   H18F17629   5.064   1.060   5.034  2.9718 -0.6322  0.6027
  157OSM   H18G17630   5.127   0.900   5.035 -0.7109 -0.4422 -1.3948
  157OSM   H18H17631   5.030   0.955   5.175 -1.7606 -0.7597 -0.2583
  158OSM      N17632   1.514   6.715   3.125  0.1181  0.2281  0.0570
  158OSM    C1517633   1.390   6.668   3.063 -0.0183  0.1025  0.0697
  158OSM   H15A17634   1.310   6.740   3.069  0.2980  0.3248  2.1776
  158OSM   H15B17635   1.359   6.568   3.092 -3.3272 -0.2201 -3.6745
  158OSM   H15C17636   1.401   6.659   2.956 -1.7996  0.0167 -0.1497
  158OSM    C1417637   1.529   6.851   3.071  0.1265 -0.3892 -0.0724
  158OSM   H14A17638   1.635   6.868   3.057 -0.1212  2.8987  1.1711
  158OSM   H14B17639   1.489   6.930   3.133  1.3375 -0.5872  1.0170
  158OSM   H14C17640   1.476   6.861   2.978  1.0955  1.0114 -0.5075
  158OSM    C1317641   1.489   6.717   3.277  0.0176 -0.5824 -0.2337
  158OSM   H13A17642   1.480   6.614   3.306  0.9825 -0.2912  1.1943
  158OSM   H13B17643   1.403   6.780   3.291 -1.3629 -1.8218 -2.4978
  158OSM   H13C17644   1.572   6.762   3.330  0.7881 -2.9196  0.7003
  158OSM    C1217645   1.633   6.629   3.085  0.3492 -0.1861 -0.2366
  158OSM   H12A17646   1.645   6.633   2.978  1.6532 -1.2474 -0.1530
  158OSM   H12B17647   1.609   6.527   3.113 -2.3794  0.7960  1.3455
  158OSM    C1117648   1.775   6.679   3.139 -0.7272  0.6638 -0.3753
  158OSM   H11A17649   1.848   6.598   3.119  1.1902  1.6404  2.1518
  158OSM   H11B17650   1.768   6.698   3.249 -2.1776  1.6793 -0.6151
  158OSM      P17651   1.935   6.800   2.970 -0.0785  0.2096 -0.1138
  158OSM    O1317652   1.928   6.683   2.877 -0.4380 -0.0378 -1.2004
  158OSM    O1417653   1.946   6.932   2.896 -0.1743  0.1835  0.3680
  158OSM    O1117654   2.060   6.790   3.069 -0.3448  0.7540  0.0000
  158OSM    O1217655   1.809   6.798   3.066 -0.0091 -0.4286  0.0899
  158OSM    C1S17656   2.085   6.901   3.158 -0.1152 -0.0037  0.0492
  158OSM    H1S17657   1.990   6.947   3.193  0.3018  0.9080  0.0200
  158OSM    H1T17658   2.149   6.979   3.112 -1.1480 -0.4803 -2.3377
  158OSM     NF17659   2.143   6.959   3.403  1.0070 -1.0365  0.0365
  158OSM    HNF17660   2.227   6.964   3.457  1.3386  0.0621 -0.5560
  158OSM    C2S17661   2.140   6.858   3.303  0.7052  0.5821  0.8306
  158OSM    H2S17662   2.067   6.787   3.347  0.2393  0.4650 -0.1002
  158OSM    C3S17663   2.278   6.783   3.282  0.2794 -0.1046  0.6796
  158OSM    H3S17664   2.355   6.857   3.251  0.0518 -0.1352  0.0116
  158OSM     O317665   2.270   6.670   3.190  0.3114 -0.3852  0.0578
  158OSM    HO317666   2.195   6.684   3.133 -1.0349 -1.1627  1.5447
  158OSM    C4S17667   2.321   6.739   3.421 -0.5673  0.3066  0.1053
  158OSM    H4S17668   2.358   6.830   3.470  2.1944 -0.5626 -0.1531
  158OSM    C5S17669   2.306   6.628   3.489  0.1465 -0.2526  0.3853
  158OSM    H5S17670   2.251   6.547   3.438 -1.4670  0.7427  0.4519
  158OSM    C6S17671   2.328   6.593   3.631  0.8230 -0.3926  0.5430
  158OSM    H6S17672   2.435   6.561   3.640  1.4636  1.5885  0.3234
  158OSM    H6T17673   2.257   6.510   3.653 -0.6455  0.6856 -0.0138
  158OSM    C7S17674   2.283   6.704   3.727 -0.3345  0.0908 -0.3674
  158OSM    H7S17675   2.177   6.737   3.712 -1.3393 -1.9552  1.6940
  158OSM    H7T17676   2.366   6.777   3.732  1.1983 -1.6808  1.9210
  158OSM    C8S17677   2.289   6.662   3.874 -0.1095  0.9817 -0.3269
  158OSM    H8S17678   2.395   6.634   3.895  0.4648  1.9984 -1.6919
  158OSM    H8T17679   2.231   6.567   3.882  1.4430  0.0358  0.2345
  158OSM    C9S17680   2.252   6.774   3.971 -0.0308 -0.3117 -0.4589
  158OSM    H9S17681   2.149   6.807   3.945  0.0965  0.8481  0.4820
  158OSM    H9T17682   2.319   6.855   3.938 -0.0718 -0.9385 -2.2066
  158OSM   C10S17683   2.266   6.745   4.125 -0.0288 -0.1560  0.6069
  158OSM   H10S17684   2.368   6.705   4.140 -0.3238 -1.5295 -0.7889
  158OSM   H10T17685   2.198   6.658   4.140  2.1136 -1.8338  1.1915
  158OSM   C11S17686   2.224   6.855   4.225 -0.5255  0.2648  0.3549
  158OSM   H11S17687   2.128   6.891   4.182  0.4146  1.1033 -1.1094
  158OSM   H11T17688   2.296   6.937   4.206  0.3296 -0.8333 -1.4209
  158OSM   C12S17689   2.189   6.812   4.370  0.4141  0.2890 -0.4424
  158OSM   H12S17690   2.275   6.776   4.429 -1.9603  0.2681  3.3250
  158OSM   H12T17691   2.110   6.734   4.362 -1.0331  1.5342  1.0330
  158OSM   C13S17692   2.117   6.928   4.448  0.7956  0.5851  0.0637
  158OSM   H13S17693   2.013   6.927   4.408  0.5742 -1.7256  0.5248
  158OSM   H13T17694   2.167   7.027   4.440 -0.5247  1.1216 -2.2820
  158OSM   C14S17695   2.087   6.896   4.604  0.1663 -0.5861 -0.0667
  158OSM   H14S17696   2.024   6.806   4.620 -0.6283  0.2618  1.9202
  158OSM   H14T17697   2.024   6.983   4.633  4.0785  3.1602 -1.6073
  158OSM   C15S17698   2.207   6.898   4.698  0.0070  0.2647  0.0876
  158OSM   H15S17699   2.239   7.005   4.701 -0.4908  0.4175  3.4612
  158OSM   H15T17700   2.287   6.832   4.657 -2.2522 -2.0342 -0.8629
  158OSM   C16S17701   2.184   6.840   4.840 -0.5815 -0.0511 -0.0072
  158OSM   H16S17702   2.103   6.885   4.902 -1.4692  1.8269 -2.3935
  158OSM   H16T17703   2.278   6.861   4.897  0.3315 -1.8600 -0.7558
  158OSM   C17S17704   2.146   6.686   4.841 -0.0763 -0.2096  0.0995
  158OSM   H17S17705   2.224   6.621   4.798  0.0808 -1.4358  2.1298
  158OSM   H17T17706   2.065   6.669   4.766  0.7776 -1.6710 -0.5265
  158OSM   C18S17707   2.115   6.628   4.981 -0.0539  0.2910  0.0678
  158OSM   H18S17708   2.036   6.685   5.036 -0.1776  1.2478 -1.0498
  158OSM   H18T17709   2.206   6.624   5.044  1.7836  0.0184 -2.4608
  158OSM   H18U17710   2.083   6.522   4.970 -1.9386  0.8825 -0.7592
  158OSM    C1F17711   2.036   7.023   3.450 -0.1317 -0.3617 -0.4941
  158OSM     OF17712   1.922   7.002   3.421  0.2201  1.0057 -0.4157
  158OSM    C2F17713   2.073   7.129   3.550  0.1503 -0.2122  0.0857
  158OSM    H2F17714   2.132   7.207   3.498  0.4483  1.4734  2.7548
  158OSM    H2G17715   2.125   7.071   3.630  0.0503 -0.9883 -0.3953
  158OSM    C3F17716   1.952   7.208   3.600 -0.4636  0.0886  0.6851
  158OSM    H3F17717   1.889   7.132   3.650 -0.6271  0.8580  1.6841
  158OSM    H3G17718   1.899   7.260   3.517  1.9542  2.2529  0.3504
  158OSM    C4F17719   1.981   7.330   3.693 -0.0560  0.0816 -0.5073
  158OSM    H4F17720   1.891   7.394   3.702  0.8656  1.5142 -1.0500
  158OSM    H4G17721   2.056   7.401   3.651  0.4766  1.9821  3.2733
  158OSM    C5F17722   2.050   7.280   3.823 -0.4269 -0.7468 -0.1668
  158OSM    H5F17723   2.081   7.363   3.890  0.3033 -1.8850  0.9533
  158OSM    H5G17724   2.144   7.243   3.777  0.1348  2.0484 -1.5223
  158OSM    C6F17725   1.980   7.183   3.918 -0.5385 -0.3927 -0.1148
  158OSM    H6F17726   1.941   7.082   3.892 -1.6546 -0.6859  2.3904
  158OSM    H6G17727   1.890   7.242   3.945  0.2790 -0.4884  3.2183
  158OSM    C7F17728   2.041   7.150   4.054  0.2475 -0.4132  0.4881
  158OSM    H7F17729   2.137   7.097   4.039  0.5784  0.7231 -1.8319
  158OSM    H7G17730   1.984   7.071   4.107  1.5614 -0.8100  1.3543
  158OSM    C8F17731   2.064   7.255   4.158  0.4618  0.3407 -0.1195
  158OSM    H8F17732   2.129   7.331   4.108  2.6624 -0.5031  1.3101
  158OSM    H8G17733   2.118   7.206   4.242  0.1814  0.5574  0.1867
  158OSM    C9F17734   1.942   7.333   4.196  0.0927  0.3058 -0.2938
  158OSM    H9F17735   1.879   7.358   4.110  0.4891 -0.6970 -0.8969
  158OSM   C10F17736   1.887   7.348   4.318 -0.2388 -0.4139 -0.6020
  158OSM   H10F17737   1.788   7.392   4.336 -0.0499 -0.4589  0.6209
  158OSM   C11F17738   1.942   7.305   4.452  0.3066 -0.7972 -0.6957
  158OSM   H11F17739   2.043   7.260   4.446  0.9391  0.0317  2.2583
  158OSM   H11G17740   1.879   7.221   4.488 -0.6453  0.2968  0.2808
  158OSM   C12F17741   1.955   7.410   4.571  0.2837  0.0657  0.4571
  158OSM   H12F17742   2.006   7.506   4.546 -3.8446  2.7867  1.4186
  158OSM   H12G17743   2.013   7.355   4.648 -1.5703 -1.3173  0.9210
  158OSM   C13F17744   1.824   7.442   4.642  0.1555 -0.9098 -0.3171
  158OSM   H13F17745   1.774   7.356   4.691  0.7592 -1.0414  0.0770
  158OSM   H13G17746   1.760   7.469   4.555  0.4617 -1.4665 -0.7230
  158OSM   C14F17747   1.828   7.558   4.747  1.0331  0.3709  0.0842
  158OSM   H14F17748   1.726   7.574   4.789  1.4334 -2.3648  2.4128
  158OSM   H14G17749   1.866   7.644   4.689  1.6407 -0.9952 -1.6502
  158OSM   C15F17750   1.925   7.526   4.861  0.9674  0.4888  0.3096
  158OSM   H15F17751   2.030   7.530   4.825  0.2871  1.1499 -1.7499
  158OSM   H15G17752   1.906   7.419   4.887 -0.2850  0.0677 -2.0417
  158OSM   C16F17753   1.906   7.621   4.975 -0.4318  0.0370 -0.1141
  158OSM   H16F17754   1.808   7.609   5.024 -1.1204  1.2816 -1.1369
  158OSM   H16G17755   1.923   7.719   4.927 -2.4634  0.5547  0.1605
  158OSM   C17F17756   2.007   7.584   5.079  0.6377 -0.2144  0.1186
  158OSM   H17F17757   2.003   7.661   5.158 -0.4101  0.6211 -0.7281
  158OSM   H17G17758   2.111   7.584   5.039  0.9645  1.7626  0.8988
  158OSM   C18F17759   1.981   7.449   5.145 -0.2416 -0.1019  0.5159
  158OSM   H18F17760   2.048   7.435   5.232 -0.4295 -1.5929  0.4516
  158OSM   H18G17761   1.994   7.358   5.082 -0.4481 -0.1901  0.6002
  158OSM   H18H17762   1.876   7.450   5.182  0.0263 -3.8089  1.8407
  159OSM      N17763   6.296   1.602   2.523 -0.6667 -0.0523  0.0129
  159OSM    C1517764   6.419   1.511   2.498  0.4998 -0.2306 -0.5762
  159OSM   H15A17765   6.473   1.495   2.590 -0.8581  1.1383  0.5154
  159OSM   H15B17766   6.488   1.546   2.422  0.6741 -2.1348 -1.3430
  159OSM   H15C17767   6.394   1.415   2.456  0.8589  0.4596 -2.4697
  159OSM    C1417768   6.209   1.606   2.397 -0.9085  0.2249  0.3413
  159OSM   H14A17769   6.115   1.657   2.408 -0.2087  2.2029 -2.0311
  159OSM   H14B17770   6.166   1.511   2.369  1.4992 -0.8889  0.1256
  159OSM   H14C17771   6.247   1.647   2.305 -0.5546  2.7104  1.5285
  159OSM    C1317772   6.223   1.529   2.634 -0.1791 -0.0544 -0.2367
  159OSM   H13A17773   6.278   1.519   2.726 -3.9165 -0.7538  2.1383
  159OSM   H13B17774   6.192   1.431   2.599  1.4569 -1.6505  2.3627
  159OSM   H13C17775   6.143   1.592   2.668  1.4823  1.4107  1.1787
  159OSM    C1217776   6.334   1.747   2.567  0.1691 -0.7057 -0.4561
  159OSM   H12A17777   6.279   1.829   2.525  0.3784  0.8023  2.0223
  159OSM   H12B17778   6.430   1.779   2.529 -0.5628  5.1777  1.6155
  159OSM    C1117779   6.338   1.764   2.720 -1.0233  0.2431 -0.2606
  159OSM   H11A17780   6.376   1.867   2.737 -1.5717  0.5351 -0.7739
  159OSM   H11B17781   6.407   1.693   2.772 -0.5694  1.9605  1.6268
  159OSM      P17782   6.095   1.855   2.766 -0.2618  0.0879  0.2732
  159OSM    O1317783   6.145   1.991   2.734  0.1782 -0.1459  0.4147
  159OSM    O1417784   5.988   1.798   2.684 -1.1868 -0.6960  0.1569
  159OSM    O1117785   6.047   1.855   2.919  0.1261  0.4227  0.1559
  159OSM    O1217786   6.214   1.743   2.788  0.5318  0.5487  0.3153
  159OSM    C1S17787   6.054   1.978   2.988 -0.5024  0.0047  0.1679
  159OSM    H1S17788   5.981   2.053   2.951 -0.0982  0.2192 -0.1943
  159OSM    H1T17789   6.148   2.033   2.967 -1.3622  0.4730 -2.9813
  159OSM     NF17790   6.045   2.076   3.215 -0.2572  0.6192  0.6274
  159OSM    HNF17791   6.122   2.112   3.267  0.2860 -0.3531  0.5213
  159OSM    C2S17792   6.044   1.954   3.146 -0.2984  0.5077  0.2769
  159OSM    H2S17793   5.944   1.906   3.155 -0.7440  1.5959  1.3919
  159OSM    C3S17794   6.152   1.859   3.194 -0.0540  0.0811  1.0672
  159OSM    H3S17795   6.255   1.902   3.183 -0.0992  0.1624  0.9524
  159OSM     O317796   6.161   1.742   3.118  0.0477 -0.1126  0.1057
  159OSM    HO317797   6.110   1.750   3.036  0.4278 -0.0375 -0.1250
  159OSM    C4S17798   6.123   1.829   3.336  0.3716  0.1343 -0.4835
  159OSM    H4S17799   6.056   1.745   3.360  0.2025  0.4324  0.1330
  159OSM    C5S17800   6.190   1.872   3.442 -0.8987  0.6319  0.4170
  159OSM    H5S17801   6.284   1.923   3.416 -0.5936 -0.7637 -1.4315
  159OSM    C6S17802   6.168   1.831   3.580  0.1405 -0.1960 -0.5243
  159OSM    H6S17803   6.149   1.928   3.631  0.6391 -0.7512  0.7561
  159OSM    H6T17804   6.266   1.793   3.616 -0.3755 -0.3828  0.7463
  159OSM    C7S17805   6.057   1.735   3.606 -0.2737 -0.2287 -0.0822
  159OSM    H7S17806   6.070   1.638   3.553  2.9020 -0.8795  1.5998
  159OSM    H7T17807   5.969   1.782   3.559 -0.7019 -1.8472 -0.9809
  159OSM    C8S17808   6.031   1.711   3.759  0.4601 -0.4405 -0.3451
  159OSM    H8S17809   6.116   1.651   3.798 -0.5139 -0.4883  1.8655
  159OSM    H8T17810   5.940   1.647   3.766  0.7921 -0.8470  0.3704
  159OSM    C9S17811   6.012   1.821   3.856  0.5957  0.1401 -0.6084
  159OSM    H9S17812   5.925   1.889   3.841  0.7592  0.5821  0.4043
  159OSM    H9T17813   6.099   1.889   3.858 -0.7826  1.9548  0.0879
  159OSM   C10S17814   5.989   1.769   3.999 -0.1012 -0.6749  0.4359
  159OSM   H10S17815   6.057   1.683   4.019 -1.0066 -1.6969 -0.7187
  159OSM   H10T17816   5.883   1.734   4.003 -0.6906  1.1215  1.8289
  159OSM   C11S17817   5.992   1.869   4.114  0.4963  0.4195 -0.0461
  159OSM   H11S17818   5.913   1.942   4.085  1.4435  1.3611 -0.3434
  159OSM   H11T17819   6.085   1.929   4.121  0.4783  0.2813  2.2443
  159OSM   C12S17820   5.964   1.798   4.245 -0.5702 -0.2051 -0.7969
  159OSM   H12S17821   6.049   1.730   4.266  0.4604  2.0544  3.4994
  159OSM   H12T17822   5.872   1.736   4.245  0.7145 -2.3269  1.8987
  159OSM   C13S17823   5.957   1.887   4.370 -0.2435 -0.1252 -0.4136
  159OSM   H13S17824   5.874   1.954   4.340 -2.3493 -3.3681 -2.5396
  159OSM   H13T17825   6.053   1.941   4.388  0.8054 -2.4236  1.4981
  159OSM   C14S17826   5.922   1.809   4.498 -0.3006  0.4747 -0.5084
  159OSM   H14S17827   6.003   1.734   4.506 -0.5588 -0.1879 -3.2138
  159OSM   H14T17828   5.824   1.764   4.470 -1.3652  2.5750 -0.4311
  159OSM   C15S17829   5.928   1.892   4.622  0.1603 -0.1697 -0.4690
  159OSM   H15S17830   5.842   1.963   4.624 -0.1807 -0.5287 -1.6453
  159OSM   H15T17831   6.024   1.948   4.619 -0.6945  1.3840 -0.2457
  159OSM   C16S17832   5.929   1.798   4.753  0.3685 -0.5451  0.2066
  159OSM   H16S17833   6.008   1.721   4.737 -0.0669 -0.5635 -2.3262
  159OSM   H16T17834   5.827   1.755   4.751 -1.1842  2.8297 -1.7246
  159OSM   C17S17835   5.955   1.873   4.879 -0.2467  0.6762  0.3118
  159OSM   H17S17836   6.054   1.924   4.877  1.4577 -2.3316 -2.5061
  159OSM   H17T17837   5.964   1.804   4.966  0.0822 -1.5873 -1.4338
  159OSM   C18S17838   5.849   1.971   4.912 -0.7568 -0.0656 -0.8792
  159OSM   H18S17839   5.833   2.047   4.832  1.2462 -0.0506 -1.3244
  159OSM   H18T17840   5.868   2.016   5.011  1.0813 -0.5420 -0.9626
  159OSM   H18U17841   5.750   1.921   4.911 -1.6161  1.5143  0.9941
  159OSM    C1F17842   5.942   2.165   3.198 -0.8275  0.0223 -0.2224
  159OSM     OF17843   5.828   2.127   3.166  0.6479  0.1150  0.1100
  159OSM    C2F17844   5.968   2.303   3.232  0.2162 -0.0957 -0.5962
  159OSM    H2F17845   5.909   2.365   3.161 -1.2605  0.6878  1.2167
  159OSM    H2G17846   6.074   2.336   3.244  0.1451 -0.7483  3.0716
  159OSM    C3F17847   5.914   2.334   3.374  0.3834  0.3060 -0.0078
  159OSM    H3F17848   5.813   2.289   3.388  1.1732 -1.2425  1.0804
  159OSM    H3G17849   5.896   2.442   3.392 -2.0635  0.2409 -1.5731
  159OSM    C4F17850   6.003   2.282   3.485  0.0238  0.7097  0.3935
  159OSM    H4F17851   6.098   2.339   3.495 -0.7417  1.9512  0.8435
  159OSM    H4G17852   6.030   2.177   3.462 -0.1126  1.0385 -1.4139
  159OSM    C5F17853   5.934   2.282   3.619 -0.1585  0.5244  0.5552
  159OSM    H5F17854   5.848   2.212   3.621  1.0817 -1.0362  1.0910
  159OSM    H5G17855   5.899   2.387   3.625 -0.0693  0.7427 -1.8459
  159OSM    C6F17856   6.021   2.245   3.739  0.4174  0.3098  0.1602
  159OSM    H6F17857   6.103   2.320   3.748 -0.4798  1.1750  1.5032
  159OSM    H6G17858   6.046   2.138   3.720 -0.9652  0.0373 -0.2253
  159OSM    C7F17859   5.943   2.257   3.875  1.2319  0.1259 -0.2201
  159OSM    H7F17860   5.871   2.173   3.860 -0.3274  0.8640  2.4372
  159OSM    H7G17861   5.885   2.351   3.877  0.2197 -0.4753 -0.3545
  159OSM    C8F17862   6.024   2.222   3.997  0.2807 -0.1576  0.4353
  159OSM    H8F17863   6.074   2.123   3.984  0.5193  0.2899 -2.8889
  159OSM    H8G17864   5.956   2.210   4.085 -2.1765 -1.2570 -1.4803
  159OSM    C9F17865   6.136   2.320   4.010 -0.6385  0.7977 -0.3780
  159OSM    H9F17866   6.108   2.425   3.997  1.0163  1.4533  0.9784
  159OSM   C10F17867   6.273   2.299   4.042  0.2304  0.5257 -0.0086
  159OSM   H10F17868   6.341   2.385   4.056  2.3691 -1.1395  0.3510
  159OSM   C11F17869   6.339   2.163   4.072 -0.3565 -0.0216 -0.2699
  159OSM   H11F17870   6.385   2.121   3.980 -0.5917 -0.0677 -0.3656
  159OSM   H11G17871   6.272   2.085   4.112  1.0161 -0.0813  2.1222
  159OSM   C12F17872   6.441   2.158   4.188  0.0226 -0.0056 -0.2883
  159OSM   H12F17873   6.493   2.060   4.181 -2.0288 -1.0764 -1.2588
  159OSM   H12G17874   6.387   2.161   4.284 -0.3815 -0.7191 -0.4825
  159OSM   C13F17875   6.543   2.281   4.184 -0.2154 -0.2928 -0.9233
  159OSM   H13F17876   6.503   2.369   4.238 -0.0205 -0.4574 -0.5053
  159OSM   H13G17877   6.566   2.301   4.077  1.4042  1.6116 -0.2872
  159OSM   C14F17878   6.675   2.242   4.253  0.0419  0.8902 -0.1837
  159OSM   H14F17879   6.749   2.320   4.223 -0.2301  0.7815 -1.1564
  159OSM   H14G17880   6.707   2.146   4.208  2.8277  0.3367  2.6211
  159OSM   C15F17881   6.663   2.215   4.405  0.7903  0.0069  0.1311
  159OSM   H15F17882   6.766   2.209   4.446 -0.3456 -1.2126  3.1492
  159OSM   H15G17883   6.619   2.115   4.421  0.1368  0.3439  0.5186
  159OSM   C16F17884   6.584   2.320   4.486  0.0925 -0.1141 -0.0435
  159OSM   H16F17885   6.481   2.286   4.463 -0.6974  2.6609 -0.9268
  159OSM   H16G17886   6.611   2.425   4.463 -0.3090  0.9116  3.5633
  159OSM   C17F17887   6.617   2.295   4.637 -0.4643 -0.6898 -0.0061
  159OSM   H17F17888   6.726   2.296   4.658 -0.1941 -3.5460 -0.8267
  159OSM   H17G17889   6.593   2.189   4.660  2.2085 -1.4280 -0.3590
  159OSM   C18F17890   6.555   2.397   4.735  0.1471  0.1756  0.5258
  159OSM   H18F17891   6.584   2.379   4.841 -2.5503  0.0006  1.3175
  159OSM   H18G17892   6.445   2.387   4.733  0.2575 -2.4331  2.0547
  159OSM   H18H17893   6.579   2.498   4.696 -1.4760 -0.3212 -1.9404
  160OSM      N17894   2.723   3.375   2.678 -0.1264 -0.1788 -0.4302
  160OSM    C1517895   2.753   3.265   2.589 -0.0942 -0.4813  0.0843
  160OSM   H15A17896   2.730   3.170   2.633 -1.3563  0.0700  0.6672
  160OSM   H15B17897   2.861   3.263   2.578 -0.0048 -0.9318  0.9359
  160OSM   H15C17898   2.717   3.268   2.487  2.1889  0.6954 -0.7525
  160OSM    C1417899   2.766   3.502   2.601  0.3584 -0.5783 -0.1830
  160OSM   H14A17900   2.730   3.596   2.639 -0.5208 -0.9786  0.0042
  160OSM   H14B17901   2.744   3.490   2.496  3.1059 -0.3338 -0.8658
  160OSM   H14C17902   2.873   3.504   2.610  0.3773 -2.2267  0.3875
  160OSM    C1317903   2.578   3.396   2.708 -0.4509  0.3170  0.2406
  160OSM   H13A17904   2.546   3.311   2.767  1.1005 -0.6318 -0.2246
  160OSM   H13B17905   2.522   3.415   2.617 -0.7181  3.0531  0.9060
  160OSM   H13C17906   2.562   3.483   2.769 -1.9613 -0.1049  0.4804
  160OSM    C1217907   2.805   3.369   2.802  0.1612 -0.7901 -0.3740
  160OSM   H12A17908   2.765   3.451   2.859 -0.9031 -0.5586 -1.4158
  160OSM   H12B17909   2.910   3.387   2.791 -0.1569  2.3803  0.8537
  160OSM    C1117910   2.799   3.244   2.881  0.1672  0.4566  0.4405
  160OSM   H11A17911   2.691   3.224   2.894 -0.1328  0.4873 -1.5880
  160OSM   H11B17912   2.845   3.274   2.977  1.1571  2.7790 -0.6802
  160OSM      P17913   3.018   3.127   2.807 -0.1472  0.4280 -0.0746
  160OSM    O1317914   3.062   3.017   2.714  0.6538 -0.3333  0.0297
  160OSM    O1417915   3.080   3.262   2.791  0.2995 -0.7318 -0.3066
  160OSM    O1117916   3.058   3.074   2.953 -0.2647  0.1243 -0.2991
  160OSM    O1217917   2.862   3.132   2.810 -0.1568 -0.4866  0.2767
  160OSM    C1S17918   3.072   3.157   3.060  0.6948 -0.0808  0.1362
  160OSM    H1S17919   2.967   3.176   3.092 -0.6898 -1.6313 -3.0747
  160OSM    H1T17920   3.129   3.250   3.042  1.2480 -0.7163 -1.6396
  160OSM     NF17921   3.143   3.151   3.305  0.3935  0.5219  0.0011
  160OSM    HNF17922   3.201   3.226   3.336 -0.7278  1.0589  0.8842
  160OSM    C2S17923   3.156   3.092   3.174 -0.1267 -0.5921  0.4654
  160OSM    H2S17924   3.128   2.985   3.177  0.5528 -0.7697  0.7173
  160OSM    C3S17925   3.303   3.075   3.121  0.0900  0.2632  0.3915
  160OSM    H3S17926   3.348   3.172   3.090  0.0217 -0.6761 -2.9194
  160OSM     O317927   3.307   3.004   2.994 -0.3179 -0.2508  0.8099
  160OSM    HO317928   3.217   2.995   2.961  0.6208 -3.6726 -1.4218
  160OSM    C4S17929   3.388   3.006   3.228  0.4931 -0.5576 -0.0178
  160OSM    H4S17930   3.422   3.073   3.308  3.2242 -0.0765 -1.4349
  160OSM    C5S17931   3.432   2.883   3.232  0.5743 -0.0668 -0.8547
  160OSM    H5S17932   3.415   2.821   3.143 -2.6999 -0.0275 -0.3785
  160OSM    C6S17933   3.525   2.835   3.338  0.5821 -0.1546 -0.2173
  160OSM    H6S17934   3.626   2.840   3.293 -0.2195 -1.0343 -2.2483
  160OSM    H6T17935   3.507   2.728   3.361  3.1912 -0.1878  2.1454
  160OSM    C7S17936   3.511   2.915   3.478  0.0086 -0.7150  0.7115
  160OSM    H7S17937   3.403   2.923   3.502  0.4837  2.3979  2.2981
  160OSM    H7T17938   3.554   3.016   3.459 -2.2714  0.1023 -0.3798
  160OSM    C8S17939   3.590   2.852   3.592  0.4704  0.1016 -0.2878
  160OSM    H8S17940   3.695   2.827   3.564  0.3198 -1.6500  0.5330
  160OSM    H8T17941   3.540   2.757   3.622 -0.5670  0.6900 -0.1038
  160OSM    C9S17942   3.585   2.940   3.719 -0.2434 -0.1888  0.0282
  160OSM    H9S17943   3.477   2.956   3.744 -0.2088 -0.1344  0.1444
  160OSM    H9T17944   3.622   3.042   3.693 -0.9563  0.0431 -0.1077
  160OSM   C10S17945   3.656   2.885   3.846 -0.0786 -1.0140  0.1085
  160OSM   H10S17946   3.766   2.895   3.840 -0.1796  0.5374  0.4409
  160OSM   H10T17947   3.637   2.776   3.854  1.0671 -1.2423 -0.2143
  160OSM   C11S17948   3.608   2.950   3.974 -0.0139 -0.2591 -0.1058
  160OSM   H11S17949   3.627   2.884   4.061 -0.6078  0.1890  0.3786
  160OSM   H11T17950   3.500   2.975   3.965  0.4891  2.4928  0.6822
  160OSM   C12S17951   3.681   3.084   3.992 -0.0769 -0.9880  0.1095
  160OSM   H12S17952   3.643   3.155   3.915  0.7839  0.7051  1.1688
  160OSM   H12T17953   3.790   3.062   3.988  0.1348 -0.2784  1.4001
  160OSM   C13S17954   3.653   3.165   4.116 -1.2651 -0.6841 -1.5807
  160OSM   H13S17955   3.545   3.188   4.128 -1.4564 -1.7958 -1.0911
  160OSM   H13T17956   3.708   3.258   4.089 -1.3469 -0.6273 -1.5548
  160OSM   C14S17957   3.709   3.105   4.248 -0.3657  0.0434  0.8929
  160OSM   H14S17958   3.820   3.096   4.244 -0.3745 -1.8747  3.1818
  160OSM   H14T17959   3.669   3.003   4.261 -1.4878  0.5580  1.6218
  160OSM   C15S17960   3.675   3.181   4.374  0.0418 -0.6176 -0.1834
  160OSM   H15S17961   3.676   3.286   4.337  0.4103 -0.4930  0.1655
  160OSM   H15T17962   3.754   3.162   4.450 -2.0143  0.6031  2.4336
  160OSM   C16S17963   3.532   3.158   4.431  0.6569 -0.1196 -0.1660
  160OSM   H16S17964   3.529   3.062   4.486 -1.4483  0.6654  1.1877
  160OSM   H16T17965   3.460   3.166   4.346  0.5075  1.3567  0.0828
  160OSM   C17S17966   3.499   3.265   4.539 -0.2348  0.3145  0.4597
  160OSM   H17S17967   3.558   3.229   4.626 -2.4005 -1.8427  1.1566
  160OSM   H17T17968   3.393   3.257   4.571 -0.4907  0.4854 -0.3148
  160OSM   C18S17969   3.528   3.407   4.497 -0.4712 -0.6413 -0.0196
  160OSM   H18S17970   3.510   3.472   4.586  0.6539  0.1826 -0.3654
  160OSM   H18T17971   3.463   3.439   4.414 -1.2581  0.5661  1.0267
  160OSM   H18U17972   3.634   3.430   4.470 -0.8567  1.7840  0.2939
  160OSM    C1F17973   3.037   3.120   3.380  0.4678 -0.2372 -0.0424
  160OSM     OF17974   2.973   3.022   3.357  0.2447  0.6009 -0.0111
  160OSM    C2F17975   3.021   3.205   3.500  0.4706  0.0230  0.3273
  160OSM    H2F17976   3.048   3.307   3.467  3.4528 -0.7714  0.0572
  160OSM    H2G17977   3.098   3.172   3.573  0.8283  0.5796  0.2069
  160OSM    C3F17978   2.884   3.191   3.567 -0.5750 -0.3673  0.4854
  160OSM    H3F17979   2.867   3.089   3.607 -0.5804 -0.8451 -0.6966
  160OSM    H3G17980   2.799   3.201   3.496 -0.5282 -0.2763  0.4419
  160OSM    C4F17981   2.857   3.293   3.685 -0.7802  0.2054  0.0445
  160OSM    H4F17982   2.953   3.299   3.741  0.2168  0.4063 -1.6049
  160OSM    H4G17983   2.794   3.246   3.763  2.1908  0.1597  2.6171
  160OSM    C5F17984   2.808   3.438   3.659  0.6012 -0.7217  0.4402
  160OSM    H5F17985   2.714   3.440   3.601  0.5699 -1.2096  0.4656
  160OSM    H5G17986   2.887   3.494   3.606  0.1519  0.6181  1.1487
  160OSM    C6F17987   2.782   3.504   3.793  0.0849  0.6310  0.7440
  160OSM    H6F17988   2.877   3.517   3.849 -0.0296 -0.0683  1.1187
  160OSM    H6G17989   2.712   3.437   3.847 -0.4687 -0.3056 -1.0444
  160OSM    C7F17990   2.698   3.635   3.785  0.1162  0.5679  0.0691
  160OSM    H7F17991   2.608   3.608   3.725  0.0822 -0.3643  0.5373
  160OSM    H7G17992   2.767   3.692   3.718  0.0739  0.0156 -0.4513
  160OSM    C8F17993   2.670   3.721   3.915 -1.1532  0.1223  0.5256
  160OSM    H8F17994   2.602   3.661   3.980 -0.1829 -2.4805 -0.6956
  160OSM    H8G17995   2.611   3.811   3.890  0.5576  2.7026  4.7118
  160OSM    C9F17996   2.792   3.768   3.988 -0.4159  0.3763 -0.2246
  160OSM    H9F17997   2.849   3.852   3.947  0.7057 -0.6205 -0.7678
  160OSM   C10F17998   2.832   3.720   4.108 -0.7657  0.3159 -0.0001
  160OSM   H10F17999   2.927   3.746   4.157 -0.7836 -0.8616  0.6959
  160OSM   C11F18000   2.753   3.608   4.176  0.0108 -0.6526  0.2698
  160OSM   H11F18001   2.804   3.517   4.138 -0.2679 -0.3291 -0.9265
  160OSM   H11G18002   2.645   3.617   4.149  0.4933  2.1926 -1.1207
  160OSM   C12F18003   2.765   3.627   4.332 -0.2300 -0.2074 -0.6107
  160OSM   H12F18004   2.732   3.730   4.358  1.8433  0.4360 -0.2945
  160OSM   H12G18005   2.864   3.608   4.379 -0.1164  0.0343 -0.7503
  160OSM   C13F18006   2.663   3.535   4.404  0.2415 -0.3536 -0.0809
  160OSM   H13F18007   2.647   3.440   4.349  0.6666 -0.6314  0.2641
  160OSM   H13G18008   2.567   3.591   4.415 -0.5300 -1.1820 -2.1062
  160OSM   C14F18009   2.697   3.494   4.554  0.9200  0.1596 -0.1355
  160OSM   H14F18010   2.734   3.590   4.597  1.3140  0.4418 -1.0661
  160OSM   H14G18011   2.785   3.426   4.547  1.3832  0.8412 -1.4887
  160OSM   C15F18012   2.575   3.457   4.633 -0.8511  0.0702 -0.2752
  160OSM   H15F18013   2.517   3.375   4.587 -0.1734 -1.8507  2.0843
  160OSM   H15G18014   2.499   3.538   4.636 -0.1728  0.7013  0.5096
  160OSM   C16F18015   2.611   3.396   4.773  0.0379 -0.3047  0.1628
  160OSM   H16F18016   2.722   3.384   4.768 -0.2159 -2.4547 -2.0127
  160OSM   H16G18017   2.560   3.298   4.779 -2.4583  0.9953  3.0204
  160OSM   C17F18018   2.580   3.473   4.903 -0.4618  0.1955 -0.0066
  160OSM   H17F18019   2.625   3.413   4.986  1.1896  1.3070 -0.0459
  160OSM   H17G18020   2.470   3.467   4.905 -0.4358 -0.0986  1.2343
  160OSM   C18F18021   2.647   3.605   4.915 -0.3994  0.0389  0.4840
  160OSM   H18F18022   2.752   3.607   4.880  0.0755  1.8165  1.8528
  160OSM   H18G18023   2.639   3.636   5.022  0.9768  0.7806  0.3986
  160OSM   H18H18024   2.596   3.686   4.858  0.4675 -0.3957 -0.9491
  161OSM      N18025   6.426   1.230   3.118 -0.3446 -0.0708  0.3755
  161OSM    C1518026   6.278   1.198   3.085 -0.6437  0.3211 -0.4465
  161OSM   H15A18027   6.219   1.166   3.170 -1.2248 -0.5501 -1.1488
  161OSM   H15B18028   6.265   1.124   3.007 -2.0005 -0.6836  0.6690
  161OSM   H15C18029   6.240   1.293   3.050  0.8559  1.2896  0.4618
  161OSM    C1418030   6.495   1.234   2.983 -0.3306 -0.3261  0.2460
  161OSM   H14A18031   6.590   1.286   2.988  0.1994 -1.1620 -0.7045
  161OSM   H14B18032   6.425   1.277   2.913  0.2838  0.6523  0.2042
  161OSM   H14C18033   6.517   1.133   2.953  0.4128 -0.4039  1.0147
  161OSM    C1318034   6.438   1.361   3.190  0.4580 -0.2487  0.8424
  161OSM   H13A18035   6.380   1.430   3.131  1.7852 -0.8703 -1.3100
  161OSM   H13B18036   6.538   1.401   3.188 -0.1611  1.3065 -1.1050
  161OSM   H13C18037   6.404   1.366   3.293  0.2528 -2.0292  0.8967
  161OSM    C1218038   6.496   1.124   3.207 -0.0183 -0.4734 -0.4764
  161OSM   H12A18039   6.455   1.127   3.307  2.5454  2.1704  0.6744
  161OSM   H12B18040   6.601   1.148   3.220  0.2860 -2.0174  0.1631
  161OSM    C1118041   6.497   0.974   3.172 -0.1424  0.1367  0.0775
  161OSM   H11A18042   6.393   0.936   3.166 -0.0999 -0.2839  1.6543
  161OSM   H11B18043   6.551   0.929   3.258  0.8960 -0.4668 -0.8650
  161OSM      P18044   6.622   0.813   3.012  0.2493  0.2504 -0.3322
  161OSM    O1318045   6.516   0.716   2.971 -0.1212  0.2158 -0.1261
  161OSM    O1418046   6.736   0.828   2.924 -0.4364 -0.3871 -0.4292
  161OSM    O1118047   6.680   0.769   3.149 -0.5608 -0.3496  0.3253
  161OSM    O1218048   6.559   0.947   3.049  0.3538  0.5145  0.5467
  161OSM    C1S18049   6.824   0.796   3.192  0.0866  0.1730  0.0300
  161OSM    H1S18050   6.866   0.882   3.135  0.6623  0.2310  0.5291
  161OSM    H1T18051   6.896   0.711   3.184 -1.5123 -1.3057  0.7443
  161OSM     NF18052   6.950   0.886   3.381 -0.2295 -0.5061  0.2786
  161OSM    HNF18053   7.026   0.834   3.418  0.6806 -1.7220 -3.0234
  161OSM    C2S18054   6.830   0.820   3.347  0.0610  0.6513  0.1110
  161OSM    H2S18055   6.744   0.888   3.364  0.1421  0.8859 -0.3955
  161OSM    C3S18056   6.796   0.690   3.426 -0.3211  0.1397 -0.0624
  161OSM    H3S18057   6.876   0.615   3.404 -0.3024  0.9418 -3.2761
  161OSM     O318058   6.671   0.642   3.370 -0.0765  0.0910  0.5909
  161OSM    HO318059   6.654   0.689   3.288  1.6417 -0.4693 -0.1389
  161OSM    C4S18060   6.770   0.711   3.566  0.5038 -0.3890  0.2605
  161OSM    H4S18061   6.692   0.779   3.602 -0.6313 -0.8298 -1.2919
  161OSM    C5S18062   6.850   0.658   3.657  0.2584  0.1607  0.7914
  161OSM    H5S18063   6.933   0.591   3.631  1.0543  1.7330 -1.0100
  161OSM    C6S18064   6.848   0.680   3.800 -0.2039  0.0245  0.1502
  161OSM    H6S18065   6.917   0.610   3.851 -0.3510 -1.0781 -1.1228
  161OSM    H6T18066   6.747   0.651   3.836  0.4738 -1.2393  1.1067
  161OSM    C7S18067   6.879   0.823   3.832 -0.7792  0.4548  0.0413
  161OSM    H7S18068   6.782   0.877   3.828 -0.8015  0.4420  0.3532
  161OSM    H7T18069   6.937   0.872   3.751  0.7296 -1.6501 -0.2439
  161OSM    C8S18070   6.955   0.816   3.967  0.3835 -0.2606  0.6343
  161OSM    H8S18071   7.015   0.908   3.987 -1.1283  0.6750  1.0540
  161OSM    H8T18072   7.030   0.734   3.956 -2.0192 -2.8651  2.3902
  161OSM    C9S18073   6.872   0.791   4.086  0.2393  0.2176  0.1040
  161OSM    H9S18074   6.827   0.689   4.083 -1.8293  1.0914 -2.3526
  161OSM    H9T18075   6.788   0.864   4.088 -0.0150 -0.0961  1.2376
  161OSM   C10S18076   6.945   0.814   4.219  0.3225  0.3297 -0.5767
  161OSM   H10S18077   6.870   0.815   4.302  1.1253 -0.1231  0.1743
  161OSM   H10T18078   6.997   0.913   4.222  0.7304  0.2362 -2.8911
  161OSM   C11S18079   7.048   0.706   4.249 -0.1515 -0.5356  0.1373
  161OSM   H11S18080   7.140   0.717   4.189  0.9172 -0.3451  1.7510
  161OSM   H11T18081   7.003   0.610   4.215 -1.0983 -0.3915  0.9548
  161OSM   C12S18082   7.087   0.692   4.398  0.0421 -0.5726  0.7428
  161OSM   H12S18083   7.143   0.598   4.416  2.2801  0.9387  2.1483
  161OSM   H12T18084   6.992   0.681   4.456  0.4748  0.3667  1.6572
  161OSM   C13S18085   7.178   0.800   4.461  0.1219 -0.6219  0.1222
  161OSM   H13S18086   7.144   0.903   4.437  1.7101  0.4178  2.0648
  161OSM   H13T18087   7.280   0.801   4.417  0.9899  0.8916  2.0365
  161OSM   C14S18088   7.201   0.781   4.608 -0.8100  0.0503  0.4319
  161OSM   H14S18089   7.279   0.850   4.647 -0.5991 -1.1862  2.3710
  161OSM   H14T18090   7.253   0.686   4.635 -0.7027  0.2966  1.1272
  161OSM   C15S18091   7.085   0.789   4.702 -0.3791  0.3757 -0.0754
  161OSM   H15S18092   7.000   0.726   4.669 -0.5097  0.9418 -0.8525
  161OSM   H15T18093   7.056   0.896   4.698 -1.5934  0.0449 -0.5038
  161OSM   C16S18094   7.124   0.753   4.851  0.4200 -0.6237  0.0621
  161OSM   H16S18095   7.211   0.809   4.892  0.5228 -1.1363  0.5493
  161OSM   H16T18096   7.154   0.646   4.860  1.4106 -0.3199  0.5374
  161OSM   C17S18097   7.019   0.795   4.952 -0.2131  0.0457  0.4288
  161OSM   H17S18098   6.916   0.757   4.932  0.1984 -0.3681 -1.0589
  161OSM   H17T18099   7.004   0.904   4.938  1.1555  0.1492 -0.4260
  161OSM   C18S18100   7.063   0.765   5.091  0.1944 -0.1437 -0.3715
  161OSM   H18S18101   6.983   0.797   5.160 -0.0894  0.1628 -0.8342
  161OSM   H18T18102   7.149   0.834   5.106 -0.7704  1.0813 -0.2954
  161OSM   H18U18103   7.082   0.657   5.108  0.2020 -0.1229 -0.2449
  161OSM    C1F18104   6.981   1.020   3.366 -0.2871  0.1132 -0.1753
  161OSM     OF18105   6.921   1.091   3.282  1.1902 -0.4477 -0.1610
  161OSM    C2F18106   7.088   1.070   3.466  0.2800  1.0285 -0.4191
  161OSM    H2F18107   7.183   1.073   3.408  1.6048  1.5386  1.6811
  161OSM    H2G18108   7.108   1.003   3.552 -2.5136  0.2728 -0.2420
  161OSM    C3F18109   7.056   1.198   3.539  0.1123 -0.0683  0.4572
  161OSM    H3F18110   6.952   1.199   3.577  1.0874  0.9195  3.3810
  161OSM    H3G18111   7.049   1.278   3.462 -0.2225  0.4008  0.9666
  161OSM    C4F18112   7.167   1.233   3.641  0.2237  0.3321  0.8538
  161OSM    H4F18113   7.159   1.341   3.666  1.4232 -0.2221  4.0854
  161OSM    H4G18114   7.265   1.239   3.589  0.2817  1.3967  1.0540
  161OSM    C5F18115   7.154   1.147   3.772  1.1187  0.2646  0.8428
  161OSM    H5F18116   7.214   1.054   3.764  0.1384 -0.2444 -1.6198
  161OSM    H5G18117   7.047   1.126   3.795  0.7992 -0.1015 -0.8274
  161OSM    C6F18118   7.216   1.222   3.898  0.4894  0.0247 -0.0726
  161OSM    H6F18119   7.176   1.324   3.917  2.6645  0.5798  2.0953
  161OSM    H6G18120   7.326   1.226   3.880  0.3931  0.4599 -0.5697
  161OSM    C7F18121   7.188   1.136   4.025  0.0704  0.2070 -0.5401
  161OSM    H7F18122   7.214   1.031   3.998 -2.3042 -0.2974 -1.1565
  161OSM    H7G18123   7.079   1.132   4.050 -0.0719 -2.2013 -1.3376
  161OSM    C8F18124   7.262   1.193   4.147 -0.2499  0.3508 -0.2958
  161OSM    H8F18125   7.210   1.291   4.144  0.8867  0.9573 -2.2529
  161OSM    H8G18126   7.371   1.211   4.136 -0.2150  0.8658  0.8483
  161OSM    C9F18127   7.226   1.114   4.272 -0.4148  0.8807 -0.7402
  161OSM    H9F18128   7.205   1.007   4.262  2.4699  0.2171 -0.5281
  161OSM   C10F18129   7.223   1.154   4.400  0.3905 -0.1702  0.1296
  161OSM   H10F18130   7.181   1.097   4.484 -1.9448  0.4684 -0.5367
  161OSM   C11F18131   7.254   1.297   4.432 -0.1926  0.1596 -0.1189
  161OSM   H11F18132   7.163   1.359   4.421 -0.3528 -0.1357 -0.4719
  161OSM   H11G18133   7.322   1.339   4.356  1.4908 -1.0761  0.6427
  161OSM   C12F18134   7.310   1.326   4.574  0.0936 -0.1497  0.1660
  161OSM   H12F18135   7.319   1.436   4.590 -1.3241 -0.0970  0.7475
  161OSM   H12G18136   7.414   1.288   4.578  1.0862  1.9546 -2.3798
  161OSM   C13F18137   7.218   1.259   4.675  0.7551  0.3920 -1.2655
  161OSM   H13F18138   7.221   1.148   4.678  0.7216  0.4056 -0.6074
  161OSM   H13G18139   7.110   1.282   4.656  0.1191 -1.1071  0.2794
  161OSM   C14F18140   7.251   1.304   4.818  0.0944 -0.1761 -0.2891
  161OSM   H14F18141   7.148   1.323   4.855 -0.0565 -0.7084 -0.4275
  161OSM   H14G18142   7.295   1.406   4.820 -0.5487  0.1025  2.0762
  161OSM   C15F18143   7.336   1.203   4.886 -0.6526  0.3708 -0.0942
  161OSM   H15F18144   7.436   1.201   4.839 -1.1343 -1.8872 -1.1826
  161OSM   H15G18145   7.300   1.098   4.878  0.3094  0.1192 -1.3647
  161OSM   C16F18146   7.336   1.219   5.042  0.3341  0.5307 -0.3302
  161OSM   H16F18147   7.234   1.196   5.078  0.0358 -0.5041 -1.7419
  161OSM   H16G18148   7.357   1.323   5.073 -1.9926  1.0272 -0.2924
  161OSM   C17F18149   7.424   1.124   5.108 -0.2680 -0.0701  0.2344
  161OSM   H17F18150   7.533   1.139   5.090 -0.2448  0.0315  0.4563
  161OSM   H17G18151   7.394   1.020   5.083 -0.7203 -0.3853  1.9720
  161OSM   C18F18152   7.401   1.129   5.261 -0.3145  0.4390 -0.1900
  161OSM   H18F18153   7.457   1.217   5.298 -1.5352  1.1562 -0.0022
  161OSM   H18G18154   7.445   1.034   5.298 -0.9608  1.4681  3.7017
  161OSM   H18H18155   7.298   1.128   5.303 -0.2099 -1.7059  0.1372
  162OSM      N18156   1.572   1.492   2.896 -0.0610  0.6627 -1.1584
  162OSM    C1518157   1.479   1.369   2.924 -0.0159  0.1426  0.3927
  162OSM   H15A18158   1.392   1.364   2.860  0.6548 -1.5388 -0.4594
  162OSM   H15B18159   1.448   1.365   3.027  4.9830  0.5135  2.1450
  162OSM   H15C18160   1.540   1.282   2.907  3.6368  2.4090  0.8096
  162OSM    C1418161   1.661   1.512   3.019 -0.1440  0.1522 -0.0886
  162OSM   H14A18162   1.600   1.526   3.108 -1.7298 -1.9704 -0.7583
  162OSM   H14B18163   1.733   1.592   3.012 -1.4770  1.5652  1.4270
  162OSM   H14C18164   1.716   1.420   3.034  0.9416  0.3935 -2.2204
  162OSM    C1318165   1.665   1.456   2.786 -0.8024 -0.3089 -0.1622
  162OSM   H13A18166   1.717   1.362   2.797 -2.4636 -1.2541  0.0623
  162OSM   H13B18167   1.743   1.528   2.766 -1.7983  1.5754  2.2029
  162OSM   H13C18168   1.620   1.442   2.689 -1.5679  0.6751  0.0272
  162OSM    C1218169   1.490   1.618   2.872 -0.2770  0.8925 -0.2391
  162OSM   H12A18170   1.421   1.604   2.790 -2.8614  0.2280  1.9199
  162OSM   H12B18171   1.557   1.698   2.846  0.4094  0.5541  0.4351
  162OSM    C1118172   1.402   1.676   2.981 -0.4326 -0.3330 -0.5885
  162OSM   H11A18173   1.468   1.692   3.069  0.7185  2.4820 -1.8501
  162OSM   H11B18174   1.321   1.605   3.008 -0.3250 -0.4050 -0.4535
  162OSM      P18175   1.201   1.813   2.871  0.0384  0.0766 -0.0399
  162OSM    O1318176   1.190   1.933   2.781  0.0121 -0.2109  0.4923
  162OSM    O1418177   1.152   1.686   2.818  0.2398  0.4766 -0.3167
  162OSM    O1118178   1.103   1.841   2.988  0.4194 -0.0250 -0.9187
  162OSM    O1218179   1.340   1.792   2.933  0.0122 -0.0103 -0.4631
  162OSM    C1S18180   1.087   1.761   3.113  0.1381  0.0605  0.0432
  162OSM    H1S18181   1.099   1.654   3.086 -1.2354  0.5079 -2.7238
  162OSM    H1T18182   0.980   1.767   3.142 -0.0086  0.1052 -0.4901
  162OSM     NF18183   1.140   1.727   3.340 -0.1200 -0.2708 -0.4869
  162OSM    HNF18184   1.123   1.775   3.426 -0.4515 -1.5600  0.2051
  162OSM    C2S18185   1.174   1.805   3.228 -0.2019  0.1264 -0.8947
  162OSM    H2S18186   1.278   1.779   3.201  0.6556  0.3136  1.9525
  162OSM    C3S18187   1.155   1.964   3.243  0.1625  0.0303 -0.4675
  162OSM    H3S18188   1.052   1.989   3.276  0.9226  0.2920  1.9498
  162OSM     O318189   1.166   2.046   3.123 -0.1307 -0.2274 -0.1621
  162OSM    HO318190   1.168   1.990   3.046 -0.7904  0.3784 -0.6397
  162OSM    C4S18191   1.245   2.012   3.357 -0.0324 -0.1177 -0.3766
  162OSM    H4S18192   1.347   1.971   3.349  0.3855  0.4481  1.5232
  162OSM    C5S18193   1.221   2.110   3.450  0.1950 -0.1313 -0.6885
  162OSM    H5S18194   1.125   2.164   3.448 -0.5586 -1.3164  1.1347
  162OSM    C6S18195   1.327   2.151   3.551  0.1668  0.2985 -0.3708
  162OSM    H6S18196   1.333   2.262   3.554 -1.5856  0.3972  0.7081
  162OSM    H6T18197   1.425   2.116   3.510 -0.3827  0.4931 -1.9136
  162OSM    C7S18198   1.299   2.093   3.685 -0.0620  0.2767 -0.2641
  162OSM    H7S18199   1.285   1.983   3.681 -3.1457  0.5704 -4.2186
  162OSM    H7T18200   1.205   2.132   3.731 -0.2505 -0.5142  0.0456
  162OSM    C8S18201   1.410   2.136   3.781 -1.0327 -0.0362  0.4704
  162OSM    H8S18202   1.416   2.246   3.790 -0.5061 -0.1010  0.9582
  162OSM    H8T18203   1.504   2.097   3.735  0.6031  3.3468  0.6642
  162OSM    C9S18204   1.391   2.063   3.920 -0.3622 -0.6711  0.3821
  162OSM    H9S18205   1.394   1.955   3.897  0.4193 -0.5709 -0.0238
  162OSM    H9T18206   1.299   2.104   3.967 -0.9893  2.1176 -2.8537
  162OSM   C10S18207   1.507   2.109   4.007 -0.0925  0.0213  0.6300
  162OSM   H10S18208   1.506   2.219   3.993 -1.9074  0.0249  0.4883
  162OSM   H10T18209   1.599   2.056   3.976 -0.4336 -1.0922  1.4440
  162OSM   C11S18210   1.487   2.075   4.157 -0.1531 -0.6085 -0.9522
  162OSM   H11S18211   1.475   1.967   4.179 -1.3650 -0.0498  1.4457
  162OSM   H11T18212   1.388   2.113   4.189  0.6365 -0.1870  1.1593
  162OSM   C12S18213   1.585   2.129   4.257 -0.1196 -0.2050  0.3562
  162OSM   H12S18214   1.593   2.239   4.247 -1.5051  0.1695  2.6406
  162OSM   H12T18215   1.689   2.092   4.241 -0.3616 -0.2716 -1.2110
  162OSM   C13S18216   1.544   2.111   4.403  0.5530 -0.2834  0.1426
  162OSM   H13S18217   1.483   2.019   4.403  0.2948 -0.1735 -2.1521
  162OSM   H13T18218   1.486   2.196   4.447  1.6467  0.1690  0.7638
  162OSM   C14S18219   1.662   2.093   4.496 -0.1858  0.6788 -0.3634
  162OSM   H14S18220   1.723   2.185   4.483 -1.6436  1.6533 -0.5730
  162OSM   H14T18221   1.723   2.010   4.454  2.2819  1.7412  0.8747
  162OSM   C15S18222   1.635   2.076   4.643 -0.2002 -0.2071 -0.1929
  162OSM   H15S18223   1.574   1.983   4.643  2.6726 -2.2128  0.1339
  162OSM   H15T18224   1.571   2.159   4.682 -0.1429 -0.0934 -0.3374
  162OSM   C16S18225   1.768   2.054   4.717  0.3327  0.5238 -0.2865
  162OSM   H16S18226   1.827   2.147   4.705  3.1565 -1.0081  0.8389
  162OSM   H16T18227   1.840   1.980   4.676 -0.3297 -0.8835  0.9782
  162OSM   C17S18228   1.749   2.018   4.869  0.5498  0.3518  0.9323
  162OSM   H17S18229   1.697   1.920   4.872  1.0567 -0.0649 -1.6635
  162OSM   H17T18230   1.677   2.089   4.915  0.4618  0.4502  0.6429
  162OSM   C18S18231   1.865   2.015   4.968 -0.1780 -0.5198 -0.0251
  162OSM   H18S18232   1.936   1.930   4.953  2.1550  1.0613  1.4681
  162OSM   H18T18233   1.833   2.005   5.074 -1.5265  0.6844 -0.2945
  162OSM   H18U18234   1.919   2.111   4.955 -0.3585 -0.3716  0.3142
  162OSM    C1F18235   1.178   1.598   3.352 -0.9731  0.7106  0.1421
  162OSM     OF18236   1.237   1.540   3.257 -0.5993  0.2054  0.0426
  162OSM    C2F18237   1.143   1.533   3.471  0.7198  0.4299  0.0551
  162OSM    H2F18238   1.132   1.603   3.557 -3.8821  0.0687  0.0117
  162OSM    H2G18239   1.228   1.466   3.497 -0.2063 -1.4756 -1.5546
  162OSM    C3F18240   1.008   1.460   3.458 -0.5398  0.1000  0.6459
  162OSM    H3F18241   1.021   1.391   3.371 -0.0253  0.8156  0.1452
  162OSM    H3G18242   0.921   1.525   3.435 -1.6357 -2.2914 -2.8283
  162OSM    C4F18243   0.983   1.374   3.582 -0.9594  0.2003  0.3629
  162OSM    H4F18244   1.085   1.336   3.604 -0.2792  0.8471 -1.4561
  162OSM    H4G18245   0.915   1.298   3.537 -1.0590  1.4707 -1.7953
  162OSM    C5F18246   0.926   1.442   3.703  0.8018  0.6563 -0.1160
  162OSM    H5F18247   0.833   1.499   3.684  0.1279 -0.5017 -0.3489
  162OSM    H5G18248   1.006   1.502   3.753  1.1326 -0.1066  0.2958
  162OSM    C6F18249   0.892   1.340   3.819  0.1615 -0.1670  0.0256
  162OSM    H6F18250   0.977   1.275   3.849 -0.7344 -1.0215  0.7837
  162OSM    H6G18251   0.803   1.284   3.781  0.9228 -0.1327 -1.9343
  162OSM    C7F18252   0.836   1.431   3.939  0.7976  0.3076  0.1302
  162OSM    H7F18253   0.745   1.483   3.902  0.6013 -0.9558 -1.2879
  162OSM    H7G18254   0.912   1.508   3.964  2.0607 -0.9019  0.1438
  162OSM    C8F18255   0.805   1.350   4.065  0.3993 -0.3541  0.4748
  162OSM    H8F18256   0.898   1.310   4.111  0.2100 -2.5482 -0.8749
  162OSM    H8G18257   0.740   1.265   4.035 -1.5095  0.6101  1.6633
  162OSM    C9F18258   0.723   1.441   4.160 -0.4741 -0.0210  0.1969
  162OSM    H9F18259   0.614   1.440   4.150 -0.4137 -0.5712 -0.4957
  162OSM   C10F18260   0.771   1.506   4.268 -0.1299 -0.8855  0.0344
  162OSM   H10F18261   0.699   1.571   4.318  1.7362  1.4281 -0.0982
  162OSM   C11F18262   0.911   1.488   4.317 -0.3241 -0.0881 -0.0337
  162OSM   H11F18263   0.971   1.549   4.246  1.7830  1.6201  2.9597
  162OSM   H11G18264   0.938   1.380   4.314 -0.5466 -0.1740  0.8134
  162OSM   C12F18265   0.917   1.535   4.465  0.9167 -0.4744 -0.9263
  162OSM   H12F18266   0.884   1.640   4.481  0.5130 -1.0328  3.1341
  162OSM   H12G18267   1.024   1.534   4.495 -0.0827 -1.8371  3.3803
  162OSM   C13F18268   0.841   1.453   4.569 -0.5567  0.2248  0.4563
  162OSM   H13F18269   0.869   1.352   4.534  2.7523  0.9805  0.5823
  162OSM   H13G18270   0.731   1.465   4.572 -0.7613 -0.8551 -1.2459
  162OSM   C14F18271   0.891   1.467   4.708 -0.5314 -0.7096 -0.0979
  162OSM   H14F18272   1.000   1.460   4.728 -0.8323 -1.4651  1.4883
  162OSM   H14G18273   0.854   1.380   4.766  1.2190 -2.0929 -0.9472
  162OSM   C15F18274   0.850   1.604   4.772  1.1916  0.5556  0.4771
  162OSM   H15F18275   0.850   1.686   4.697  1.3333  1.3658  1.3410
  162OSM   H15G18276   0.915   1.633   4.857  1.8044  1.4727 -0.2931
  162OSM   C16F18277   0.705   1.598   4.839 -0.0841  0.4366 -0.0033
  162OSM   H16F18278   0.695   1.521   4.919 -0.9905  2.5248  2.0145
  162OSM   H16G18279   0.630   1.588   4.758 -1.6217  3.6072  0.8525
  162OSM   C17F18280   0.673   1.730   4.909 -0.1887  0.1535 -0.0578
  162OSM   H17F18281   0.664   1.812   4.834  3.7634 -0.2430 -1.1873
  162OSM   H17G18282   0.768   1.753   4.962 -0.7570  1.3023  0.5019
  162OSM   C18F18283   0.557   1.733   5.007  0.4103  0.2467 -1.2866
  162OSM   H18F18284   0.566   1.822   5.073  1.5573 -0.7928  0.0169
  162OSM   H18G18285   0.563   1.649   5.079 -0.4630 -0.2782 -1.8158
  162OSM   H18H18286   0.461   1.732   4.952 -0.5471  1.0869  0.3206
  163OSM      N18287   4.462   1.067   3.091 -0.3246  0.0592 -0.0272
  163OSM    C1518288   4.337   1.040   3.003 -0.6376  0.3909  0.3775
  163OSM   H15A18289   4.359   1.030   2.898  1.5704 -2.0245  0.9648
  163OSM   H15B18290   4.274   1.128   3.010 -0.1731  0.7657 -0.0305
  163OSM   H15C18291   4.280   0.955   3.037 -2.0507  0.1177 -2.4399
  163OSM    C1418292   4.548   0.939   3.100 -0.1152  0.0613  0.1447
  163OSM   H14A18293   4.636   0.973   3.153  2.1029 -2.4983 -1.6402
  163OSM   H14B18294   4.583   0.892   3.009  2.3260  0.2691  0.9072
  163OSM   H14C18295   4.505   0.865   3.165  2.0457 -0.2979  1.2579
  163OSM    C1318296   4.540   1.170   3.018 -0.4382  0.0935 -0.2919
  163OSM   H13A18297   4.546   1.150   2.912  0.5137 -0.4599 -0.1439
  163OSM   H13B18298   4.635   1.186   3.065 -0.6473 -0.2690  0.2664
  163OSM   H13C18299   4.481   1.260   3.022  0.2180  0.4817  1.0096
  163OSM    C1218300   4.422   1.123   3.228 -0.1314  0.0678  0.0287
  163OSM   H12A18301   4.506   1.117   3.295 -1.0952 -1.0968  1.1937
  163OSM   H12B18302   4.353   1.057   3.279  1.2140  0.0642  1.9662
  163OSM    C1118303   4.358   1.264   3.229 -0.5081  0.7425  0.2383
  163OSM   H11A18304   4.432   1.346   3.213  1.5937 -0.9946  0.6224
  163OSM   H11B18305   4.332   1.279   3.336  0.3084 -0.5808  0.6565
  163OSM      P18306   4.172   1.415   3.135  0.3320 -0.0945  0.1893
  163OSM    O1318307   4.267   1.527   3.111 -0.2792  0.8736  0.0291
  163OSM    O1418308   4.053   1.415   3.037  0.5114 -0.1746  0.5176
  163OSM    O1118309   4.117   1.413   3.283  0.3627 -0.3247 -0.0623
  163OSM    O1218310   4.257   1.282   3.132  0.8877 -0.1680 -0.5487
  163OSM    C1S18311   4.004   1.335   3.324 -0.5417  0.1756 -0.4099
  163OSM    H1S18312   4.033   1.228   3.318 -0.9006 -0.0480  1.3440
  163OSM    H1T18313   3.926   1.339   3.245 -0.6741 -0.9636 -0.3418
  163OSM     NF18314   3.851   1.289   3.512 -0.1045  0.3783 -0.7557
  163OSM    HNF18315   3.759   1.323   3.528 -0.4165 -1.0552  0.7939
  163OSM    C2S18316   3.955   1.375   3.464  0.1216  0.1991  0.9279
  163OSM    H2S18317   4.043   1.366   3.531  0.6521 -2.1560 -0.0020
  163OSM    C3S18318   3.914   1.523   3.474  0.0298  0.0394  0.2211
  163OSM    H3S18319   3.823   1.529   3.411 -0.5823  0.3945  1.1108
  163OSM     O318320   4.008   1.618   3.425  0.5748 -0.8881 -0.2747
  163OSM    HO318321   4.071   1.570   3.371  1.0467 -1.2068  0.5357
  163OSM    C4S18322   3.869   1.565   3.616  0.1710 -0.3503 -0.2911
  163OSM    H4S18323   3.761   1.552   3.634  0.0327  1.3917  0.3397
  163OSM    C5S18324   3.955   1.619   3.703  1.1152  0.4069 -0.4918
  163OSM    H5S18325   4.059   1.647   3.680  1.7269  0.2850  1.8592
  163OSM    C6S18326   3.919   1.656   3.845  0.3677 -1.2342  0.3890
  163OSM    H6S18327   3.826   1.603   3.875 -0.4103 -1.9997 -3.0195
  163OSM    H6T18328   3.892   1.763   3.838  0.5903 -1.2797 -1.7044
  163OSM    C7S18329   4.043   1.647   3.936  0.8111  0.3470  0.4271
  163OSM    H7S18330   4.119   1.719   3.899  1.3649 -0.4041  0.0682
  163OSM    H7T18331   4.079   1.542   3.948 -0.3461  0.0871  2.0253
  163OSM    C8S18332   4.011   1.698   4.080 -0.1603  0.4576 -0.0628
  163OSM    H8S18333   3.935   1.637   4.132  0.5812 -0.3471  0.0979
  163OSM    H8T18334   3.964   1.799   4.071  0.0559  0.5053 -0.7480
  163OSM    C9S18335   4.135   1.708   4.162 -0.7962 -0.0398  0.4563
  163OSM    H9S18336   4.184   1.806   4.146  0.0360 -0.8564 -2.5231
  163OSM    H9T18337   4.215   1.644   4.120 -0.5844  0.2441  0.4215
  163OSM   C10S18338   4.112   1.672   4.307  0.3410  0.2120  0.1172
  163OSM   H10S18339   4.061   1.573   4.305 -0.4999  0.6005  1.1800
  163OSM   H10T18340   4.039   1.743   4.352 -0.6449 -0.3730 -0.5334
  163OSM   C11S18341   4.244   1.655   4.388 -0.3857 -0.2493  0.4665
  163OSM   H11S18342   4.305   1.744   4.364 -0.7390  0.0534  0.6889
  163OSM   H11T18343   4.292   1.558   4.362  0.1864  0.3768 -0.8999
  163OSM   C12S18344   4.214   1.657   4.545 -0.7099 -0.2506 -0.2863
  163OSM   H12S18345   4.136   1.580   4.559 -1.9182  0.5520 -2.1208
  163OSM   H12T18346   4.177   1.751   4.591 -1.0186 -0.3268 -0.3771
  163OSM   C13S18347   4.332   1.616   4.628  0.2541 -0.2064  0.3999
  163OSM   H13S18348   4.422   1.623   4.564 -0.3666  0.6677 -0.4103
  163OSM   H13T18349   4.303   1.513   4.656  1.3491 -1.2091 -1.9658
  163OSM   C14S18350   4.365   1.711   4.739  0.1983  0.1413  0.0167
  163OSM   H14S18351   4.292   1.704   4.822  1.0597 -1.3555  0.6998
  163OSM   H14T18352   4.369   1.820   4.716 -0.0934  0.8354  2.8787
  163OSM   C15S18353   4.498   1.660   4.803  0.0018  0.2890 -0.1501
  163OSM   H15S18354   4.551   1.737   4.864 -0.2529 -1.8454  3.0410
  163OSM   H15T18355   4.578   1.647   4.727  0.5375  3.1437 -0.1804
  163OSM   C16S18356   4.483   1.529   4.895  0.6783  0.0229  0.5543
  163OSM   H16S18357   4.409   1.468   4.839  0.1823  1.5196 -0.5000
  163OSM   H16T18358   4.438   1.571   4.987  1.0341  2.2034 -0.1839
  163OSM   C17S18359   4.611   1.453   4.935 -0.6177  1.0950 -0.1419
  163OSM   H17S18360   4.692   1.518   4.975  0.2369  0.8511 -1.4331
  163OSM   H17T18361   4.661   1.411   4.845  0.6251  1.3900  0.3889
  163OSM   C18S18362   4.575   1.341   5.035  0.3022 -0.2231  0.6510
  163OSM   H18S18363   4.673   1.296   5.065  0.0767 -1.1210  0.0766
  163OSM   H18T18364   4.512   1.263   4.988  2.9429 -1.7353 -0.5996
  163OSM   H18U18365   4.520   1.376   5.125  0.8585  0.4037  0.7518
  163OSM    C1F18366   3.860   1.160   3.544  0.2257 -0.6785  0.6547
  163OSM     OF18367   3.965   1.098   3.541 -0.1039 -0.7336  0.0702
  163OSM    C2F18368   3.729   1.090   3.578 -0.1316  0.2065 -0.0292
  163OSM    H2F18369   3.714   1.008   3.504  1.0869 -1.9734  1.9819
  163OSM    H2G18370   3.644   1.160   3.561 -1.3423 -1.5280 -1.4578
  163OSM    C3F18371   3.706   1.026   3.716  0.0891  0.4618 -1.0961
  163OSM    H3F18372   3.598   0.996   3.714  0.5313 -1.2301 -3.0665
  163OSM    H3G18373   3.723   1.105   3.791  0.7098  0.1060 -0.8563
  163OSM    C4F18374   3.789   0.902   3.751 -0.2370  0.2722 -0.5827
  163OSM    H4F18375   3.897   0.922   3.738  0.9064 -4.2067  0.2718
  163OSM    H4G18376   3.767   0.818   3.682  0.0474 -0.6625  0.4441
  163OSM    C5F18377   3.748   0.856   3.892 -0.0370  0.0694  0.2962
  163OSM    H5F18378   3.650   0.806   3.876 -0.2427 -0.4963  2.8101
  163OSM    H5G18379   3.723   0.936   3.965  0.7240 -2.0684  3.0942
  163OSM    C6F18380   3.853   0.774   3.969  0.2562  0.1420  0.7722
  163OSM    H6F18381   3.953   0.818   3.990  0.6823 -0.1127 -0.5592
  163OSM    H6G18382   3.870   0.690   3.897  1.2384  1.3091 -0.4085
  163OSM    C7F18383   3.799   0.715   4.104 -0.7838 -0.5051  0.7516
  163OSM    H7F18384   3.876   0.642   4.136  0.1939  0.8434  1.5884
  163OSM    H7G18385   3.707   0.655   4.088  0.5453 -3.0752  2.2715
  163OSM    C8F18386   3.782   0.824   4.210 -0.4711 -0.7985  0.1824
  163OSM    H8F18387   3.748   0.773   4.303 -0.6926 -0.5356  0.2454
  163OSM    H8G18388   3.693   0.879   4.173 -1.1955 -2.7806 -1.2188
  163OSM    C9F18389   3.915   0.898   4.248  0.8323 -0.1442 -0.2822
  163OSM    H9F18390   4.007   0.837   4.242  2.2240  1.5474  1.9231
  163OSM   C10F18391   3.930   1.026   4.267  0.4363 -0.3139  0.4958
  163OSM   H10F18392   4.033   1.062   4.281  1.4249 -1.4064 -3.0626
  163OSM   C11F18393   3.828   1.133   4.261  0.0786 -0.3649 -0.1129
  163OSM   H11F18394   3.736   1.105   4.317 -0.7298  3.8571  1.0424
  163OSM   H11G18395   3.811   1.172   4.159  2.4817 -1.5024 -1.0341
  163OSM   C12F18396   3.877   1.259   4.338 -1.0897 -0.2349 -0.9516
  163OSM   H12F18397   3.810   1.340   4.301  1.4274  1.9092 -1.1950
  163OSM   H12G18398   3.976   1.289   4.297  0.6831 -2.7759  1.0889
  163OSM   C13F18399   3.890   1.248   4.487  0.0186  0.0204 -0.2290
  163OSM   H13F18400   3.837   1.151   4.503 -3.6220  1.9971  0.9469
  163OSM   H13G18401   3.829   1.320   4.546 -0.0785  0.0066 -0.3131
  163OSM   C14F18402   4.035   1.258   4.536  0.6231 -0.3499 -0.3201
  163OSM   H14F18403   4.075   1.352   4.493 -0.4586  1.0583  1.5877
  163OSM   H14G18404   4.085   1.164   4.504  0.1896 -0.3987 -0.8796
  163OSM   C15F18405   4.045   1.270   4.688  0.3655  0.0250  0.2955
  163OSM   H15F18406   3.983   1.190   4.734 -0.9907  1.2829  0.7411
  163OSM   H15G18407   4.010   1.372   4.713  2.1536  0.4130  1.3863
  163OSM   C16F18408   4.187   1.288   4.742  1.0136  0.7057  0.0497
  163OSM   H16F18409   4.184   1.340   4.840  1.5843 -0.2771  0.6037
  163OSM   H16G18410   4.243   1.322   4.652  0.8214 -3.2988 -1.8099
  163OSM   C17F18411   4.246   1.150   4.751  0.0280 -0.0704 -0.2074
  163OSM   H17F18412   4.355   1.174   4.756 -0.1497  0.5499  1.0726
  163OSM   H17G18413   4.216   1.093   4.661  0.3069 -0.5309 -0.0134
  163OSM   C18F18414   4.213   1.071   4.878  0.5816  0.8110  0.0499
  163OSM   H18F18415   4.255   1.116   4.970 -0.3918 -0.8576  1.3689
  163OSM   H18G18416   4.268   0.975   4.879 -1.2945 -0.3403  2.2608
  163OSM   H18H18417   4.105   1.046   4.888  0.9705 -1.0929 -0.2488
  164OSM      N18418   2.450   2.635   2.886  0.2738 -0.7871  0.8743
  164OSM    C1518419   2.434   2.733   3.003  0.4406  0.2174  0.0812
  164OSM   H15A18420   2.431   2.836   2.970  1.5771  0.4834  0.7533
  164OSM   H15B18421   2.512   2.705   3.072 -1.8935 -1.3254  2.2833
  164OSM   H15C18422   2.332   2.725   3.038  0.7062  0.2843  0.8982
  164OSM    C1418423   2.396   2.507   2.930  0.0291  0.3055 -0.0446
  164OSM   H14A18424   2.464   2.476   3.008  1.5005  1.3074 -0.8774
  164OSM   H14B18425   2.395   2.425   2.859  2.0019  0.6797 -0.5686
  164OSM   H14C18426   2.297   2.516   2.972  1.4589 -0.3410  3.9048
  164OSM    C1318427   2.357   2.676   2.774  0.3967  0.2921 -0.2420
  164OSM   H13A18428   2.385   2.633   2.679  1.0155  1.3195 -0.5446
  164OSM   H13B18429   2.349   2.782   2.754  0.9483  1.2060  3.5619
  164OSM   H13C18430   2.259   2.638   2.796 -0.6455  2.6515 -0.5100
  164OSM    C1218431   2.590   2.634   2.836 -0.1925  0.4848 -0.3433
  164OSM   H12A18432   2.618   2.734   2.807  2.7794 -0.4059 -0.9207
  164OSM   H12B18433   2.593   2.566   2.752  1.0696  0.9513 -0.6999
  164OSM    C1118434   2.703   2.602   2.935  1.3249 -0.3860  0.1310
  164OSM   H11A18435   2.699   2.682   3.013 -0.4747  0.8062 -1.0917
  164OSM   H11B18436   2.806   2.620   2.898  0.8011  1.2390 -0.6402
  164OSM      P18437   2.801   2.423   3.098  0.4405 -0.1056 -0.0771
  164OSM    O1318438   2.733   2.348   3.207  0.0658  0.0096 -0.5062
  164OSM    O1418439   2.896   2.346   3.018 -0.5990 -0.1244 -0.7765
  164OSM    O1118440   2.880   2.545   3.166  0.3780  0.0945  0.1145
  164OSM    O1218441   2.688   2.478   3.002  0.1866  0.3649  0.1537
  164OSM    C1S18442   2.827   2.660   3.227  0.0061 -0.2252 -0.5798
  164OSM    H1S18443   2.721   2.644   3.258  0.8929 -0.6945  2.6797
  164OSM    H1T18444   2.841   2.754   3.171 -0.6119  0.9577  1.1690
  164OSM     NF18445   2.824   2.790   3.429 -0.1905  0.1166  0.0436
  164OSM    HNF18446   2.867   2.878   3.411  2.7424 -1.1348  0.2867
  164OSM    C2S18447   2.895   2.689   3.357 -0.5094 -0.2143  0.9186
  164OSM    H2S18448   2.880   2.599   3.419  1.3178  0.0011  1.7353
  164OSM    C3S18449   3.046   2.702   3.342  0.5810  0.3147  0.4985
  164OSM    H3S18450   3.080   2.762   3.254 -0.8621  0.6235  0.1225
  164OSM     O318451   3.105   2.578   3.298  0.0197 -0.2085 -0.5456
  164OSM    HO318452   3.036   2.528   3.254 -0.2507  1.6036 -2.3617
  164OSM    C4S18453   3.110   2.746   3.465 -0.3211  0.6628 -0.8751
  164OSM    H4S18454   3.137   2.853   3.466 -1.0967  0.8799  0.6324
  164OSM    C5S18455   3.138   2.676   3.577 -0.7544 -0.6074  0.0233
  164OSM    H5S18456   3.101   2.575   3.598  0.1097 -0.9801 -0.2224
  164OSM    C6S18457   3.210   2.729   3.698  0.8479 -0.5397 -0.0765
  164OSM    H6S18458   3.307   2.780   3.680  0.7281 -0.1690  0.3412
  164OSM    H6T18459   3.214   2.646   3.772 -1.6239 -0.7708 -0.1028
  164OSM    C7S18460   3.120   2.837   3.768  0.0769  0.4076  0.5049
  164OSM    H7S18461   3.018   2.800   3.794  0.4941 -0.6708  0.6253
  164OSM    H7T18462   3.119   2.925   3.700  2.9253  0.7884  0.8607
  164OSM    C8S18463   3.178   2.890   3.895  0.2734 -0.6300 -0.8257
  164OSM    H8S18464   3.161   2.999   3.891 -1.2796 -0.5118  3.5682
  164OSM    H8T18465   3.287   2.869   3.897  0.3676 -0.0840  1.3530
  164OSM    C9S18466   3.107   2.841   4.024 -0.5381 -0.4630 -0.3945
  164OSM    H9S18467   3.094   2.731   4.015 -0.4147 -0.4150 -1.2383
  164OSM    H9T18468   3.005   2.887   4.025 -1.0878 -1.6203 -0.9788
  164OSM   C10S18469   3.189   2.871   4.150 -0.1583  0.1414  0.7279
  164OSM   H10S18470   3.198   2.981   4.165 -1.4453  0.3246  0.3028
  164OSM   H10T18471   3.289   2.825   4.134 -0.1255  0.2581  0.5822
  164OSM   C11S18472   3.138   2.807   4.283  0.3458  0.5311 -0.2614
  164OSM   H11S18473   3.138   2.698   4.262  3.0810  0.4565 -0.2114
  164OSM   H11T18474   3.042   2.855   4.314  0.7037  1.5523 -0.6827
  164OSM   C12S18475   3.244   2.829   4.387 -0.0377  0.1169  0.4684
  164OSM   H12S18476   3.258   2.939   4.389 -0.0035  0.2028 -1.9847
  164OSM   H12T18477   3.339   2.776   4.363 -0.0953 -0.9398  2.3674
  164OSM   C13S18478   3.200   2.775   4.526 -0.0392 -0.1836 -0.8125
  164OSM   H13S18479   3.176   2.667   4.527 -1.4163  0.1065 -0.9015
  164OSM   H13T18480   3.120   2.844   4.560 -0.6430 -0.0219 -2.4386
  164OSM   C14S18481   3.316   2.777   4.624  0.6718  0.2460 -0.6160
  164OSM   H14S18482   3.375   2.871   4.622 -0.0035  0.6870 -0.1476
  164OSM   H14T18483   3.373   2.688   4.589  0.6245 -0.1622  0.3104
  164OSM   C15S18484   3.274   2.744   4.768  0.3409 -0.2367 -0.4812
  164OSM   H15S18485   3.179   2.790   4.801 -0.0809  1.0788 -3.3102
  164OSM   H15T18486   3.333   2.809   4.836  0.5312  1.3563 -2.1103
  164OSM   C16S18487   3.303   2.602   4.812  0.4116 -0.7513  0.6403
  164OSM   H16S18488   3.342   2.588   4.915  1.0937 -2.3256  0.1920
  164OSM   H16T18489   3.380   2.551   4.751 -0.0534 -1.1722  0.3909
  164OSM   C17S18490   3.186   2.510   4.810  0.0249 -0.1184  0.7440
  164OSM   H17S18491   3.152   2.501   4.704  1.9068  0.5639  0.0353
  164OSM   H17T18492   3.091   2.552   4.849 -0.7118 -0.1514 -0.9017
  164OSM   C18S18493   3.220   2.371   4.876  0.5666  0.0393 -0.3312
  164OSM   H18S18494   3.145   2.293   4.854 -0.7745  0.7910  1.3259
  164OSM   H18T18495   3.213   2.389   4.986 -1.3763  0.1848 -0.4459
  164OSM   H18U18496   3.320   2.334   4.845  1.0734  0.6064  0.5802
  164OSM    C1F18497   2.706   2.774   3.488  0.2812 -0.5703  0.0281
  164OSM     OF18498   2.663   2.662   3.505  0.0245  0.4112  0.6444
  164OSM    C2F18499   2.626   2.897   3.524  0.2353  0.2016 -0.4273
  164OSM    H2F18500   2.547   2.913   3.448  0.9449  2.0180 -0.8563
  164OSM    H2G18501   2.683   2.992   3.533 -0.1280  0.3114  0.8444
  164OSM    C3F18502   2.558   2.889   3.663 -0.0659  0.3318 -0.4973
  164OSM    H3F18503   2.492   2.799   3.667  1.5712 -0.8851  0.1577
  164OSM    H3G18504   2.496   2.979   3.681 -0.0743  0.1188  0.6062
  164OSM    C4F18505   2.662   2.876   3.775  0.2354  0.0377 -0.0815
  164OSM    H4F18506   2.746   2.947   3.768 -0.6069  1.1976  1.2261
  164OSM    H4G18507   2.700   2.771   3.775  0.5855  0.0946 -2.4442
  164OSM    C5F18508   2.595   2.905   3.916 -0.6790  0.0782 -0.5871
  164OSM    H5F18509   2.539   2.811   3.933  0.1824 -0.1876  0.9639
  164OSM    H5G18510   2.524   2.989   3.902  1.2273  1.7637 -0.6564
  164OSM    C6F18511   2.700   2.932   4.029 -0.1647 -0.3075 -1.1158
  164OSM    H6F18512   2.778   2.854   4.017 -0.3314 -0.7401  0.3770
  164OSM    H6G18513   2.644   2.923   4.125 -2.1052  0.4474 -2.1207
  164OSM    C7F18514   2.752   3.078   4.024  0.3891 -0.4522  0.2299
  164OSM    H7F18515   2.664   3.142   4.000  0.4789 -1.0913 -2.0379
  164OSM    H7G18516   2.828   3.094   3.945  0.1025 -0.4246 -0.0400
  164OSM    C8F18517   2.820   3.119   4.152  0.4518  0.5127  0.3301
  164OSM    H8F18518   2.874   3.213   4.127  0.7745  0.3727  0.4944
  164OSM    H8G18519   2.898   3.042   4.168 -0.0596  0.4223  2.8513
  164OSM    C9F18520   2.720   3.137   4.268 -0.0095  0.4114 -0.4916
  164OSM    H9F18521   2.669   3.234   4.259  0.8768  0.9529  0.1234
  164OSM   C10F18522   2.693   3.049   4.369  0.3475 -0.3666  0.2384
  164OSM   H10F18523   2.626   3.084   4.450 -2.0386 -0.7116 -1.4794
  164OSM   C11F18524   2.750   2.907   4.387 -0.2421  0.1325 -0.0298
  164OSM   H11F18525   2.827   2.895   4.467 -2.3602  0.1019  2.0937
  164OSM   H11G18526   2.798   2.872   4.293 -1.8693  0.5884 -1.0698
  164OSM   C12F18527   2.640   2.801   4.417  0.1798  0.9815  0.0817
  164OSM   H12F18528   2.686   2.704   4.389  0.5796  1.4650 -0.9806
  164OSM   H12G18529   2.544   2.809   4.361  0.5006 -1.6150 -0.9885
  164OSM   C13F18530   2.604   2.798   4.566  0.6462 -0.3307  0.0362
  164OSM   H13F18531   2.694   2.814   4.629  0.6434  0.5688 -0.1727
  164OSM   H13G18532   2.568   2.696   4.594  0.0360  0.2912  1.6787
  164OSM   C14F18533   2.502   2.910   4.609 -0.3308  0.4734 -0.0758
  164OSM   H14F18534   2.411   2.911   4.546 -0.8855 -1.3456  0.6425
  164OSM   H14G18535   2.540   3.013   4.626 -0.2621  0.1646  1.9365
  164OSM   C15F18536   2.450   2.857   4.751  0.4932 -0.3478 -0.3590
  164OSM   H15F18537   2.544   2.843   4.808  1.7881  1.5674 -1.8956
  164OSM   H15G18538   2.390   2.764   4.744  1.5089 -0.9917 -0.6864
  164OSM   C16F18539   2.365   2.963   4.815  0.1847  0.3677 -0.4599
  164OSM   H16F18540   2.280   2.999   4.754 -1.0533  0.0136  0.9937
  164OSM   H16G18541   2.428   3.054   4.823 -0.6576  0.9348 -0.1297
  164OSM   C17F18542   2.311   2.929   4.954  0.1143 -0.6955 -0.0914
  164OSM   H17F18543   2.244   2.841   4.940  0.3162 -0.7360 -0.8532
  164OSM   H17G18544   2.266   3.019   5.001 -0.3311 -0.2512 -1.3443
  164OSM   C18F18545   2.422   2.903   5.056  0.2938  0.2172  0.1602
  164OSM   H18F18546   2.381   2.887   5.158  0.8120 -0.4801  0.2681
  164OSM   H18G18547   2.499   2.983   5.054  0.7688 -0.2386 -0.5707
  164OSM   H18H18548   2.475   2.809   5.030 -1.4606 -0.3061 -1.9406
  165SAPS     N18549   6.813   5.283   8.096 -0.0345  0.0340 -0.5526
  165SAPS   HN118550   6.889   5.348   8.126  1.1846 -1.3473 -0.5283
  165SAPS   HN218551   6.758   5.264   8.183  0.0068  2.5352  0.0840
  165SAPS   HN318552   6.875   5.210   8.056 -1.4071 -0.2229 -2.2930
  165SAPS   C1218553   6.724   5.355   8.004 -0.4177  0.5909 -0.7041
  165SAPS  H12A18554   6.693   5.268   7.948  0.4133 -1.8040  2.2872
  165SAPS   C1318555   6.590   5.407   8.079 -0.0100  0.3091  0.0897
  165SAPS  O13A18556   6.584   5.391   8.205 -0.4652 -0.8313  0.3592
  165SAPS  O13B18557   6.482   5.403   8.021 -0.0521  0.0853  0.2990
  165SAPS   C1118558   6.791   5.477   7.922  0.3174 -0.3822  0.0766
  165SAPS  H11A18559   6.794   5.565   7.989 -0.0456  0.1536 -0.5917
  165SAPS  H11B18560   6.731   5.502   7.832 -0.4426  1.1475  0.9661
  165SAPS     P18561   7.009   5.530   7.796  0.1097  0.4023 -0.1669
  165SAPS   O1318562   6.948   5.662   7.789  0.1039 -0.6685  0.7375
  165SAPS   O1418563   7.137   5.505   7.863 -0.0529 -0.0215  1.2022
  165SAPS   O1218564   6.914   5.431   7.867 -0.5397 -0.8306 -0.9655
  165SAPS   O1118565   7.014   5.484   7.642 -0.0963  0.3882  0.3041
  165SAPS    C118566   6.994   5.340   7.619 -0.4162 -0.3204 -0.9049
  165SAPS    HA18567   7.091   5.288   7.634 -0.4377  0.3730  2.1490
  165SAPS    HB18568   6.919   5.287   7.682 -1.4560 -0.0711 -1.8862
  165SAPS    C218569   6.960   5.298   7.476  0.7354  0.1684  0.7140
  165SAPS    HS18570   6.961   5.187   7.474 -1.0627  0.1228 -0.1787
  165SAPS   O2118571   7.049   5.352   7.375  0.2347  0.7954 -0.5479
  165SAPS   C2118572   7.063   5.284   7.264  0.1443 -0.2991  0.5066
  165SAPS   O2218573   6.998   5.184   7.239  0.7762  0.4736  0.4903
  165SAPS   C2218574   7.170   5.352   7.180  1.2765  0.2317  0.5816
  165SAPS   H2R18575   7.123   5.421   7.107 -0.0620 -2.0701 -0.8639
  165SAPS   H2S18576   7.242   5.408   7.243  1.3297  0.4948  0.2883
  165SAPS    C318577   6.817   5.361   7.446 -0.1692 -0.2494 -0.2558
  165SAPS    HX18578   6.835   5.465   7.412 -0.5884 -0.4830 -1.2162
  165SAPS    HY18579   6.767   5.374   7.545  2.1415 -0.3619  1.0148
  165SAPS   O3118580   6.744   5.289   7.347 -0.2085 -0.5083  0.2459
  165SAPS   C3118581   6.690   5.174   7.388 -0.2972 -0.4587 -0.4530
  165SAPS   O3218582   6.700   5.132   7.501 -0.4241  0.2490  0.0189
  165SAPS   C3218583   6.625   5.093   7.274 -0.2968 -0.4292  0.4510
  165SAPS   H2X18584   6.608   4.991   7.314 -0.5927  0.1750  1.9152
  165SAPS   H2Y18585   6.707   5.096   7.199  0.0279  2.1160  0.8141
  165SAPS   C2318586   7.255   5.247   7.108  0.4725  0.9152  0.9124
  165SAPS   H3R18587   7.219   5.244   7.003  1.9138 -0.7222  0.3980
  165SAPS   H3S18588   7.236   5.150   7.160 -3.0867  0.7275 -0.5008
  165SAPS   C2418589   7.410   5.265   7.119 -0.2303  0.1063 -0.3965
  165SAPS   H4R18590   7.421   5.262   7.230  0.3891 -0.0230 -0.4597
  165SAPS   H4S18591   7.427   5.369   7.085 -2.6192  0.7545  0.1771
  165SAPS   C2518592   7.486   5.150   7.056  0.2116 -0.3197 -0.0638
  165SAPS   H5R18593   7.500   5.070   7.131  1.4599  1.6387  1.8934
  165SAPS   C2618594   7.532   5.154   6.931  0.1531 -0.9271 -0.6374
  165SAPS   H6R18595   7.578   5.064   6.888 -0.3006 -1.1958 -0.5745
  165SAPS   C2718596   7.508   5.256   6.821  0.0107 -1.0340 -0.4321
  165SAPS   H7R18597   7.577   5.340   6.842 -1.5031  0.0600  0.3119
  165SAPS   H7S18598   7.413   5.313   6.821  1.3638  1.3579 -1.0289
  165SAPS   C2818599   7.520   5.200   6.680  0.8385  0.8262  0.9798
  165SAPS   H8R18600   7.589   5.114   6.675  0.1306  0.3321 -1.2184
  165SAPS   C2918601   7.441   5.235   6.574 -0.6586 -0.0588  0.1820
  165SAPS   H9R18602   7.469   5.197   6.475  0.1744  0.9906 -0.0083
  165SAPS  C21018603   7.347   5.353   6.555 -0.7044  0.5155 -0.1360
  165SAPS  H10R18604   7.411   5.444   6.564  0.5281 -0.4331  1.0479
  165SAPS  H10S18605   7.283   5.356   6.645 -0.2211 -2.3814  0.3802
  165SAPS  C21118606   7.272   5.350   6.423 -0.3548  0.4487 -0.7517
  165SAPS  H11R18607   7.166   5.324   6.437  0.0974 -1.2335 -0.1272
  165SAPS  C21218608   7.318   5.375   6.301  0.5014  0.2207  0.5979
  165SAPS  H12R18609   7.247   5.362   6.218 -0.4903  0.9643  1.2918
  165SAPS  C21318610   7.454   5.427   6.260 -0.1507  0.1230  0.0213
  165SAPS  H13R18611   7.524   5.435   6.346  0.3499  1.3675 -0.4728
  165SAPS  H13S18612   7.447   5.532   6.224  2.1285  0.7402  1.1977
  165SAPS  C21418613   7.527   5.325   6.165  0.2403  0.1963 -0.2789
  165SAPS  H14R18614   7.523   5.223   6.206 -1.4362  0.9919  1.7145
  165SAPS  C21518615   7.606   5.360   6.062  0.4617 -0.3668 -0.2237
  165SAPS  H15R18616   7.644   5.278   6.000  1.6633 -0.7821  1.0196
  165SAPS  C21618617   7.635   5.500   6.011  0.4834 -0.1343  0.8819
  165SAPS  H16R18618   7.581   5.581   6.065 -1.1557  1.0891 -2.3388
  165SAPS  H16S18619   7.614   5.496   5.902  2.6029  0.1221  0.4199
  165SAPS  C21718620   7.780   5.538   6.019 -0.6992  0.3555  0.5390
  165SAPS  H17R18621   7.824   5.539   6.121  2.6269 -0.3036 -0.7378
  165SAPS  H17S18622   7.782   5.641   5.977 -0.4504 -0.0648 -0.5133
  165SAPS  C21818623   7.878   5.462   5.941 -0.3334  0.3017 -0.6511
  165SAPS  H18R18624   7.866   5.352   5.949  1.0836  0.1068 -1.0073
  165SAPS  H18S18625   7.980   5.490   5.975 -0.4286 -2.2180  2.1832
  165SAPS  C21918626   7.876   5.497   5.792 -0.1569  0.1989  0.2776
  165SAPS  H19R18627   7.895   5.606   5.783  2.4168 -0.1960  0.0225
  165SAPS  H19S18628   7.779   5.481   5.742  0.0762  3.4188 -1.4311
  165SAPS  C22018629   7.979   5.425   5.710  0.3030 -0.2618 -0.3080
  165SAPS  H20R18630   8.077   5.460   5.749 -0.4640  1.2330  0.3478
  165SAPS  H20S18631   7.969   5.458   5.604  2.0067  1.1858 -0.0674
  165SAPS  H20T18632   7.979   5.314   5.723  2.2127 -0.3354 -0.7036
  165SAPS   C3318633   6.489   5.153   7.222 -0.3245 -0.1755 -0.3876
  165SAPS   H3X18634   6.493   5.264   7.222 -1.8268 -0.1051 -0.1781
  165SAPS   H3Y18635   6.408   5.131   7.294  1.3626  1.3262  2.1271
  165SAPS   C3418636   6.434   5.097   7.089 -0.3000  0.0091  0.0224
  165SAPS   H4X18637   6.334   5.144   7.080 -1.1729 -1.7299  0.2430
  165SAPS   H4Y18638   6.419   4.988   7.098  0.8113 -0.1878 -0.3293
  165SAPS   C3518639   6.520   5.128   6.969  0.0762 -0.2615  0.6870
  165SAPS   H5X18640   6.610   5.067   6.991  0.2550  0.0237  0.7575
  165SAPS   H5Y18641   6.546   5.235   6.983  2.3657 -0.6060 -0.4141
  165SAPS   C3618642   6.455   5.094   6.836  0.0755 -0.1089  0.1195
  165SAPS   H6X18643   6.356   5.144   6.837 -0.2093 -0.6758  0.8355
  165SAPS   H6Y18644   6.433   4.985   6.829 -2.2900  0.4117 -2.0147
  165SAPS   C3718645   6.546   5.143   6.723 -0.6459 -0.3517  0.3960
  165SAPS   H7X18646   6.642   5.087   6.732  0.1492  0.9409  0.1058
  165SAPS   H7Y18647   6.559   5.250   6.747  3.0132 -0.2312 -1.3444
  165SAPS   C3818648   6.478   5.145   6.587 -0.4234  0.3981  0.5942
  165SAPS   H8X18649   6.419   5.061   6.542 -1.4754  1.3063  0.2374
  165SAPS   H8Y18650   6.563   5.157   6.516 -2.1863  3.2509 -1.2210
  165SAPS   C3918651   6.389   5.267   6.571  0.5957 -0.0126  0.4120
  165SAPS   H9X18652   6.451   5.356   6.594 -0.1160  0.4157  0.7244
  165SAPS   H9Y18653   6.297   5.257   6.632  1.0019 -1.5109  0.8236
  165SAPS  C31018654   6.356   5.287   6.427 -0.0618  0.0857  0.0265
  165SAPS  H10X18655   6.287   5.374   6.419 -0.2850 -0.0282  0.6543
  165SAPS  H10Y18656   6.301   5.200   6.384 -0.9251  0.2893  0.6793
  165SAPS  C31118657   6.464   5.325   6.329 -1.2054 -0.3140 -0.3155
  165SAPS  H11X18658   6.530   5.236   6.325 -0.6503 -0.3823  4.3587
  165SAPS  H11Y18659   6.535   5.408   6.351  1.2173 -2.7410  1.6858
  165SAPS  C31218660   6.425   5.334   6.180 -0.9262 -0.5911  0.0653
  165SAPS  H12X18661   6.359   5.423   6.175 -0.0466  0.0168 -1.3737
  165SAPS  H12Y18662   6.359   5.250   6.150 -0.6832  0.1556 -2.8763
  165SAPS  C31318663   6.539   5.340   6.082 -0.3755  0.8812  0.2192
  165SAPS  H13X18664   6.614   5.262   6.104  0.7242  1.7073 -0.4673
  165SAPS  H13Y18665   6.589   5.435   6.110  0.9760 -0.4255  2.4485
  165SAPS  C31418666   6.502   5.323   5.936 -0.3925  0.6150  0.1394
  165SAPS  H14X18667   6.581   5.359   5.867 -0.7775 -0.8885 -1.1526
  165SAPS  H14Y18668   6.407   5.377   5.914 -1.5705 -0.9593  1.1285
  165SAPS  C31518669   6.485   5.170   5.898  1.2732  0.1548 -0.1987
  165SAPS  H15X18670   6.447   5.119   5.989 -1.5880 -0.2504 -1.5171
  165SAPS  H15Y18671   6.578   5.119   5.864  0.6300  0.8044 -3.1673
  165SAPS  C31618672   6.378   5.160   5.787  0.5641 -0.0280 -0.7656
  165SAPS  H16X18673   6.396   5.232   5.704  1.4674  0.8016  0.1248
  165SAPS  H16Y18674   6.276   5.183   5.824  0.5071  0.8743 -1.4456
  165SAPS  C31718675   6.390   5.029   5.719  0.0537  0.0847  0.4246
  165SAPS  H17X18676   6.303   5.000   5.657  0.1041 -2.4488  1.4125
  165SAPS  H17Y18677   6.392   4.945   5.792  1.8907  1.2488  1.8041
  165SAPS  C31818678   6.515   5.020   5.628  0.6428 -0.6486 -0.4010
  165SAPS  H18X18679   6.534   5.115   5.573 -0.0906 -0.9622 -1.2139
  165SAPS  H18Y18680   6.503   4.938   5.554 -1.8756 -0.6390 -0.0682
  165SAPS  H18Z18681   6.592   4.990   5.702  0.5218 -0.7614 -0.3208
  166SAPS     N18682   5.494   0.534   7.813  0.1439  0.2011  0.2527
  166SAPS   HN118683   5.406   0.590   7.816  0.5164  0.8620 -0.5076
  166SAPS   HN218684   5.507   0.506   7.714 -1.0118  1.8796 -0.4159
  166SAPS   HN318685   5.486   0.451   7.874 -0.4805  0.2117  0.1966
  166SAPS   C1218686   5.603   0.612   7.872  1.0172 -0.3505 -0.1269
  166SAPS  H12A18687   5.577   0.712   7.839  2.5842  0.5019  1.1072
  166SAPS   C1318688   5.599   0.611   8.031  0.5444 -0.0687  1.0435
  166SAPS  O13A18689   5.491   0.575   8.095 -0.6046  0.2361  0.3012
  166SAPS  O13B18690   5.693   0.656   8.096 -0.1592  0.7391  0.1302
  166SAPS   C1118691   5.736   0.569   7.814  0.2038 -0.4414 -0.1069
  166SAPS  H11A18692   5.813   0.641   7.848 -1.0887  0.6538  0.6340
  166SAPS  H11B18693   5.725   0.599   7.707 -0.0679  2.5935  0.6828
  166SAPS     P18694   5.914   0.384   7.836 -0.1968  0.0708 -0.1103
  166SAPS   O1318695   6.005   0.474   7.916  0.3576  0.5789  0.1134
  166SAPS   O1418696   5.919   0.240   7.885 -0.3469 -0.2840  0.3848
  166SAPS   O1218697   5.763   0.432   7.836 -0.1345 -0.5864  0.7785
  166SAPS   O1118698   5.954   0.382   7.678 -0.1756 -0.4019  0.0496
  166SAPS    C118699   5.869   0.325   7.581 -0.5140 -0.2996 -0.0017
  166SAPS    HA18700   5.906   0.221   7.567 -0.8961 -0.3550 -0.6628
  166SAPS    HB18701   5.764   0.323   7.617  0.2058 -2.0253  2.1747
  166SAPS    C218702   5.884   0.389   7.444  0.0566  0.4392  0.4908
  166SAPS    HS18703   5.980   0.350   7.405 -0.7389 -1.9799  0.7710
  166SAPS   O2118704   5.894   0.529   7.451  0.9741 -0.2558  0.5106
  166SAPS   C2118705   6.017   0.576   7.450  0.2898 -0.6203  0.1658
  166SAPS   O2218706   6.125   0.520   7.446 -0.0496 -0.3359  0.4602
  166SAPS   C2218707   5.997   0.718   7.423 -0.6475 -0.1064 -0.7789
  166SAPS   H2R18708   5.893   0.741   7.391 -1.3600 -0.4445  1.1359
  166SAPS   H2S18709   6.021   0.780   7.513 -2.8044 -1.9814  1.2180
  166SAPS    C318710   5.766   0.335   7.359 -0.2959  0.2715 -0.0880
  166SAPS    HX18711   5.670   0.334   7.414  0.0253 -0.1578  0.4761
  166SAPS    HY18712   5.787   0.227   7.342 -2.7176 -0.2133 -0.3338
  166SAPS   O3118713   5.759   0.409   7.238 -0.0244  0.7598 -0.1079
  166SAPS   C3118714   5.689   0.522   7.233  0.4734 -0.8077  0.4335
  166SAPS   O3218715   5.623   0.562   7.324 -0.8975 -0.1178  0.2043
  166SAPS   C3218716   5.695   0.580   7.093 -0.1488  0.2069 -0.2352
  166SAPS   H2X18717   5.604   0.637   7.063  1.2292  1.6728 -1.8733
  166SAPS   H2Y18718   5.707   0.493   7.025  4.0096 -0.2842  0.8553
  166SAPS   C2318719   6.095   0.759   7.307  0.0440 -0.1107  0.1635
  166SAPS   H3R18720   6.062   0.738   7.203  0.2096 -1.3302  0.3431
  166SAPS   H3S18721   6.200   0.729   7.323 -0.0284 -0.4118  0.0738
  166SAPS   C2418722   6.124   0.914   7.312  0.8719 -0.4419  0.2777
  166SAPS   H4R18723   6.211   0.937   7.246 -0.5066  1.2620 -1.0258
  166SAPS   H4S18724   6.149   0.952   7.414  1.2959 -0.1985  0.0868
  166SAPS   C2518725   6.004   0.987   7.260  0.2829  0.3167  0.5958
  166SAPS   H5R18726   5.927   1.017   7.332  1.2074  4.9208 -0.0407
  166SAPS   C2618727   5.994   1.032   7.132  0.5319  0.5151  0.0485
  166SAPS   H6R18728   5.914   1.107   7.114 -1.0580 -1.4943 -1.8497
  166SAPS   C2718729   6.090   1.003   7.021  0.5231 -0.3585  0.5991
  166SAPS   H7R18730   6.041   0.991   6.922 -0.4084 -0.2162  1.0277
  166SAPS   H7S18731   6.145   0.907   7.035  0.1853 -0.4419  1.4267
  166SAPS   C2818732   6.187   1.121   7.004  0.7098 -0.1879 -0.2031
  166SAPS   H8R18733   6.203   1.176   7.098 -0.8416 -0.1346  0.0500
  166SAPS   C2918734   6.244   1.158   6.893  0.0240  0.2585 -0.9208
  166SAPS   H9R18735   6.309   1.246   6.900 -0.0714  0.2456  0.2544
  166SAPS  C21018736   6.228   1.100   6.758 -0.7662 -0.1220  0.5662
  166SAPS  H10R18737   6.305   1.142   6.690  0.3957 -4.4160 -1.0727
  166SAPS  H10S18738   6.128   1.130   6.719 -0.3062 -0.5983 -1.0026
  166SAPS  C21118739   6.247   0.952   6.745  0.4135  0.1147 -0.4923
  166SAPS  H11R18740   6.262   0.896   6.838  0.9943 -0.2822 -0.8226
  166SAPS  C21218741   6.237   0.873   6.637  1.0860  0.1320  1.0811
  166SAPS  H12R18742   6.245   0.764   6.656  0.7122  0.1843  1.5698
  166SAPS  C21318743   6.208   0.924   6.497  0.4679 -0.1599  0.2707
  166SAPS  H13R18744   6.222   1.032   6.476 -0.4266  0.3513  2.1414
  166SAPS  H13S18745   6.103   0.904   6.465 -0.2984  3.1796  0.3664
  166SAPS  C21418746   6.291   0.843   6.400  0.3456 -0.1660  0.4156
  166SAPS  H14R18747   6.349   0.758   6.439 -0.3481  0.2583  2.5146
  166SAPS  C21518748   6.304   0.862   6.264 -0.6008 -0.2648 -0.3206
  166SAPS  H15R18749   6.368   0.797   6.202 -1.4957 -0.3155 -1.2134
  166SAPS  C21618750   6.216   0.962   6.197 -0.0637 -0.1804 -0.1602
  166SAPS  H16R18751   6.214   1.056   6.256 -0.4225  0.4634 -1.1698
  166SAPS  H16S18752   6.109   0.932   6.187 -0.2064  0.4264 -0.4975
  166SAPS  C21718753   6.270   1.012   6.053  0.9170 -0.1890 -0.2717
  166SAPS  H17R18754   6.376   0.989   6.025  0.9538 -0.7104  0.2738
  166SAPS  H17S18755   6.271   1.122   6.064 -0.7116 -0.2501  0.8933
  166SAPS  C21818756   6.174   0.980   5.947 -0.2677 -0.0109  1.0265
  166SAPS  H18R18757   6.078   1.035   5.960 -1.5040 -1.2315 -1.8800
  166SAPS  H18S18758   6.158   0.870   5.949  2.5934 -0.5518 -0.4025
  166SAPS  C21918759   6.241   1.011   5.808  0.8985 -0.3300 -0.1279
  166SAPS  H19R18760   6.279   1.115   5.809  2.3232 -0.8314  1.2897
  166SAPS  H19S18761   6.158   1.004   5.734 -1.3785  2.4371  1.9256
  166SAPS  C22018762   6.350   0.911   5.777  0.6207 -0.2956 -0.3708
  166SAPS  H20R18763   6.400   0.946   5.684 -2.6986  3.6787 -0.9396
  166SAPS  H20S18764   6.321   0.805   5.761 -1.1175  0.2261 -0.8936
  166SAPS  H20T18765   6.438   0.904   5.846 -0.5257  0.8991  1.3000
  166SAPS   C3318766   5.831   0.647   7.062  0.0312  0.2024 -0.3701
  166SAPS   H3X18767   5.904   0.565   7.081 -0.3236 -0.0602 -0.1112
  166SAPS   H3Y18768   5.847   0.727   7.138  1.2568  1.6811 -2.0829
  166SAPS   C3418769   5.847   0.704   6.918 -0.0929 -0.1627 -1.0153
  166SAPS   H4X18770   5.938   0.767   6.921 -1.3565  1.7174 -0.7650
  166SAPS   H4Y18771   5.768   0.780   6.899  0.4232  0.3528 -1.1263
  166SAPS   C3518772   5.859   0.606   6.814  0.3280  0.0743 -0.0554
  166SAPS   H5X18773   5.759   0.558   6.814 -0.1257  1.0011  0.1243
  166SAPS   H5Y18774   5.931   0.527   6.844 -0.4126  0.1068  1.9452
  166SAPS   C3618775   5.890   0.673   6.679  0.5693  0.5025 -0.1818
  166SAPS   H6X18776   5.985   0.729   6.688 -0.0532  1.6371 -0.5170
  166SAPS   H6Y18777   5.814   0.749   6.651 -0.1136 -0.5135 -1.1558
  166SAPS   C3718778   5.897   0.574   6.565 -0.2513  0.4734 -0.0586
  166SAPS   H7X18779   5.794   0.536   6.552  0.0640 -0.1039 -0.9666
  166SAPS   H7Y18780   5.960   0.489   6.598  0.3448 -0.2877 -2.9279
  166SAPS   C3818781   5.953   0.633   6.438 -0.3979 -0.7997  0.0970
  166SAPS   H8X18782   6.062   0.649   6.448 -0.2717 -1.3097 -0.3865
  166SAPS   H8Y18783   5.914   0.736   6.424  1.9715  0.2389  0.7033
  166SAPS   C3918784   5.952   0.540   6.310 -0.7959 -0.0623 -0.2419
  166SAPS   H9X18785   5.849   0.499   6.303 -0.6316 -0.7640  1.1023
  166SAPS   H9Y18786   6.022   0.457   6.332 -0.3931  0.5213  0.7468
  166SAPS  C31018787   6.000   0.622   6.197  0.8469  0.7182 -0.4414
  166SAPS  H10X18788   6.109   0.647   6.203  1.1614 -0.5057 -0.8522
  166SAPS  H10Y18789   5.942   0.717   6.193  0.5486  0.4907 -1.7831
  166SAPS  C31118790   5.967   0.533   6.075  0.0353 -0.3065  0.5496
  166SAPS  H11X18791   5.868   0.482   6.077  0.0033 -0.2562  0.3001
  166SAPS  H11Y18792   6.033   0.443   6.070  1.4983  0.7933 -1.3158
  166SAPS  C31218793   5.979   0.604   5.937 -0.2579  0.6263  0.3178
  166SAPS  H12X18794   6.062   0.677   5.948  0.7560 -0.5551  0.9099
  166SAPS  H12Y18795   5.888   0.660   5.907  0.5538  1.6318 -0.3262
  166SAPS  C31318796   6.015   0.511   5.815  0.0521  0.4430  0.0625
  166SAPS  H13X18797   5.931   0.438   5.807  0.9701 -0.7685  0.9833
  166SAPS  H13Y18798   6.106   0.450   5.835  0.0725 -0.0759 -1.5205
  166SAPS  C31418799   6.038   0.598   5.693  0.0852 -0.0013  0.4456
  166SAPS  H14X18800   6.097   0.688   5.718  0.6874 -0.7436  1.7835
  166SAPS  H14Y18801   5.935   0.634   5.672 -0.4539 -1.2825  0.7757
  166SAPS  C31518802   6.092   0.525   5.572  0.2619  0.2028  0.3230
  166SAPS  H15X18803   6.198   0.498   5.585  0.1072  0.0635  1.3495
  166SAPS  H15Y18804   6.092   0.597   5.487 -0.6192 -0.7581 -0.5255
  166SAPS  C31618805   6.014   0.405   5.532 -0.0678 -0.6046 -0.1812
  166SAPS  H16X18806   5.911   0.440   5.512 -0.7878  0.0114  3.6962
  166SAPS  H16Y18807   6.002   0.329   5.612 -1.2737  1.6938  1.9638
  166SAPS  C31718808   6.063   0.348   5.404  0.9607 -0.3164  0.3453
  166SAPS  H17X18809   6.163   0.300   5.405  1.0190 -0.1934  0.9046
  166SAPS  H17Y18810   6.080   0.443   5.349 -0.0129 -0.1094  0.3836
  166SAPS  C31818811   5.950   0.262   5.344  0.1303  0.1631 -0.2248
  166SAPS  H18X18812   5.849   0.288   5.384  0.4200  0.2556  0.4686
  166SAPS  H18Y18813   5.977   0.158   5.373  3.0300  0.7838 -0.3960
  166SAPS  H18Z18814   5.955   0.268   5.234 -0.7145  1.6241 -0.2090
  167SAPS     N18815   2.487   4.514   7.594 -0.1255  0.1400 -0.4767
  167SAPS   HN118816   2.545   4.514   7.508  0.4382 -2.6597 -0.2050
  167SAPS   HN218817   2.396   4.475   7.564 -0.5112  0.9726 -0.4138
  167SAPS   HN318818   2.472   4.606   7.640  0.8757 -0.5172  1.2804
  167SAPS   C1218819   2.542   4.426   7.697  0.4815 -0.2183 -0.0060
  167SAPS  H12A18820   2.507   4.458   7.794  0.9746  1.4769 -0.3405
  167SAPS   C1318821   2.515   4.275   7.690 -0.2180 -0.6463  0.3415
  167SAPS  O13A18822   2.422   4.234   7.616 -0.2356 -0.0228  0.2212
  167SAPS  O13B18823   2.587   4.198   7.759 -0.6595 -0.5949 -0.1848
  167SAPS   C1118824   2.696   4.442   7.690  0.3808  0.0427 -0.1341
  167SAPS  H11A18825   2.729   4.381   7.777 -0.2078  0.2037  0.2108
  167SAPS  H11B18826   2.736   4.542   7.715  2.5518 -0.7511 -0.2298
  167SAPS     P18827   2.898   4.379   7.545 -0.1062 -0.3741  0.0702
  167SAPS   O1318828   2.975   4.399   7.665 -0.2195 -0.3859 -0.3635
  167SAPS   O1418829   2.899   4.245   7.485  0.3041 -0.3007 -0.0985
  167SAPS   O1218830   2.744   4.406   7.563 -0.4059 -0.6731  0.0874
  167SAPS   O1118831   2.938   4.485   7.433 -0.0923 -0.1801 -0.1046
  167SAPS    C118832   2.862   4.608   7.424  0.3187  0.0909  0.1636
  167SAPS    HA18833   2.763   4.608   7.475  0.1843  1.2402 -0.0587
  167SAPS    HB18834   2.922   4.697   7.451  1.8948 -1.4736  2.0478
  167SAPS    C218835   2.831   4.624   7.272  0.0792 -0.1222  0.5790
  167SAPS    HS18836   2.761   4.707   7.248 -2.6946 -2.2446  0.7302
  167SAPS   O2118837   2.769   4.504   7.219 -0.6616  0.0673  0.0210
  167SAPS   C2118838   2.642   4.487   7.271  0.3636  0.9424 -0.2914
  167SAPS   O2218839   2.584   4.566   7.342 -0.0384  0.2650  0.1518
  167SAPS   C2218840   2.591   4.353   7.224  0.0482 -0.4442 -0.1832
  167SAPS   H2R18841   2.628   4.331   7.122 -0.9919  1.1104 -0.9284
  167SAPS   H2S18842   2.635   4.279   7.295  1.6196  1.2568  0.6711
  167SAPS    C318843   2.963   4.660   7.193 -0.0332  0.0141 -0.2777
  167SAPS    HX18844   3.047   4.589   7.207  1.1944  1.1498 -1.5688
  167SAPS    HY18845   2.991   4.749   7.253 -4.2028  0.3558  1.4930
  167SAPS   O3118846   2.925   4.705   7.058  0.0587  0.4325 -0.2508
  167SAPS   C3118847   2.945   4.604   6.964  0.0969 -0.2904  0.0761
  167SAPS   O3218848   2.993   4.498   6.991 -0.4723 -0.0158 -0.1564
  167SAPS   C3218849   2.900   4.659   6.828 -0.1123  0.8809 -0.0269
  167SAPS   H2X18850   2.902   4.770   6.831 -1.4190  0.9050  1.1128
  167SAPS   H2Y18851   2.793   4.638   6.810 -0.0203  1.1542 -0.9611
  167SAPS   C2318852   2.440   4.346   7.235  0.1455  0.6783  0.0757
  167SAPS   H3R18853   2.402   4.450   7.235 -1.1545  0.2224 -0.5609
  167SAPS   H3S18854   2.412   4.293   7.329 -2.0217 -0.3736 -1.0860
  167SAPS   C2418855   2.374   4.263   7.117  0.0063 -0.1589 -0.2105
  167SAPS   H4R18856   2.394   4.302   7.015  1.8374 -1.7656 -0.5165
  167SAPS   H4S18857   2.264   4.261   7.134  0.3788  0.3909  2.6914
  167SAPS   C2518858   2.423   4.119   7.118  0.2383 -0.1543  0.0880
  167SAPS   H5R18859   2.411   4.072   7.217  0.8247  2.4673  1.5111
  167SAPS   C2618860   2.503   4.049   7.031 -0.2157 -0.5005 -0.2943
  167SAPS   H6R18861   2.542   3.950   7.058 -0.4342 -1.1373 -2.1576
  167SAPS   C2718862   2.530   4.090   6.889 -0.1235 -0.1094  0.2694
  167SAPS   H7R18863   2.446   4.151   6.851  1.4829  0.5581 -2.4759
  167SAPS   H7S18864   2.532   4.000   6.825  0.5667  1.1232 -1.5192
  167SAPS   C2818865   2.660   4.168   6.857 -0.1381 -0.1304 -0.6346
  167SAPS   H8R18866   2.738   4.149   6.932 -0.3027  0.6686 -0.2413
  167SAPS   C2918867   2.678   4.261   6.763  0.7299 -0.2240 -0.5899
  167SAPS   H9R18868   2.777   4.306   6.746 -0.3541  1.4058 -3.1265
  167SAPS  C21018869   2.580   4.293   6.645 -0.7697 -0.4030 -0.5733
  167SAPS  H10R18870   2.617   4.383   6.592 -1.2263 -0.4599 -0.9943
  167SAPS  H10S18871   2.478   4.309   6.685 -1.1827  0.9669 -2.0623
  167SAPS  C21118872   2.568   4.175   6.557  0.8813  0.1529 -0.9403
  167SAPS  H11R18873   2.570   4.080   6.612  0.5857  0.8064  0.2239
  167SAPS  C21218874   2.545   4.181   6.422 -0.2675  0.1071  0.0863
  167SAPS  H12R18875   2.547   4.091   6.359  0.4587  0.6213 -0.6375
  167SAPS  C21318876   2.518   4.313   6.349  0.3302 -0.4815  0.3160
  167SAPS  H13R18877   2.604   4.324   6.280 -0.6089 -2.6877 -1.3608
  167SAPS  H13S18878   2.514   4.405   6.411 -3.6679 -0.1140 -0.2460
  167SAPS  C21418879   2.385   4.303   6.275  0.4608 -0.2730 -0.5949
  167SAPS  H14R18880   2.302   4.348   6.333  0.9818 -2.6646  2.2666
  167SAPS  C21518881   2.367   4.243   6.158  0.0314  0.1760  0.4872
  167SAPS  H15R18882   2.273   4.252   6.101  0.8945 -0.2800 -1.0740
  167SAPS  C21618883   2.482   4.175   6.091 -0.2235  0.3180  0.1734
  167SAPS  H16R18884   2.555   4.125   6.158 -1.1072 -0.1181  0.8385
  167SAPS  H16S18885   2.534   4.253   6.032 -1.3990  1.3022  0.3808
  167SAPS  C21718886   2.438   4.055   5.995  0.6097  0.0405  0.6638
  167SAPS  H17R18887   2.364   4.093   5.922  1.9790 -0.7096 -1.1888
  167SAPS  H17S18888   2.390   3.983   6.065  0.7116  0.8334  1.5705
  167SAPS  C21818889   2.561   3.980   5.932 -0.8016 -0.3517 -0.7905
  167SAPS  H18R18890   2.637   3.966   6.012 -0.7509  2.1900 -0.2977
  167SAPS  H18S18891   2.618   4.047   5.864  0.6974  0.1829  0.9246
  167SAPS  C21918892   2.518   3.853   5.865  0.5638 -0.3361 -0.0838
  167SAPS  H19R18893   2.458   3.885   5.777  1.4738  2.1549  0.1193
  167SAPS  H19S18894   2.454   3.778   5.916  1.8771 -3.1705 -2.3288
  167SAPS  C22018895   2.643   3.785   5.808 -0.8370 -0.9706  0.4505
  167SAPS  H20R18896   2.616   3.685   5.769 -3.9018 -0.7807  1.7889
  167SAPS  H20S18897   2.722   3.770   5.885 -1.2568 -0.0727  1.0657
  167SAPS  H20T18898   2.674   3.835   5.714 -1.9719 -1.6794 -0.3185
  167SAPS   C3318899   2.976   4.595   6.714  0.1859 -0.2234  0.4610
  167SAPS   H3X18900   2.952   4.486   6.720  0.7373 -0.3354  0.7022
  167SAPS   H3Y18901   3.085   4.600   6.734  0.3203 -0.5356 -0.1618
  167SAPS   C3418902   2.964   4.663   6.576 -0.1755  0.6068  0.0367
  167SAPS   H4X18903   3.056   4.624   6.527  0.9243  0.1223  2.3404
  167SAPS   H4Y18904   2.966   4.771   6.601 -1.8821  0.7444 -0.3141
  167SAPS   C3518905   2.836   4.620   6.496 -0.9886 -0.0259 -0.4031
  167SAPS   H5X18906   2.744   4.670   6.532 -2.1509 -0.8528 -2.1300
  167SAPS   H5Y18907   2.834   4.512   6.522 -1.4844  0.4679  1.8124
  167SAPS   C3618908   2.858   4.657   6.350 -0.7941  0.2043  0.4436
  167SAPS   H6X18909   2.955   4.626   6.305 -1.4604  0.2373 -1.1032
  167SAPS   H6Y18910   2.850   4.767   6.335 -5.6548 -0.1572 -1.2062
  167SAPS   C3718911   2.750   4.600   6.264 -0.7004 -0.2612  0.2595
  167SAPS   H7X18912   2.655   4.628   6.315 -0.6401 -0.5494  0.5304
  167SAPS   H7Y18913   2.764   4.490   6.267 -0.7541 -0.3775 -1.8167
  167SAPS   C3818914   2.745   4.649   6.115  0.0364  0.5725 -0.3010
  167SAPS   H8X18915   2.823   4.596   6.057 -2.6623 -1.7969 -2.0645
  167SAPS   H8Y18916   2.757   4.759   6.108  0.5507  0.6464  1.1977
  167SAPS   C3918917   2.602   4.605   6.071  0.0342 -0.1676  0.1263
  167SAPS   H9X18918   2.534   4.661   6.139 -0.3275 -0.4788  0.0261
  167SAPS   H9Y18919   2.595   4.494   6.075 -0.9899 -0.2711 -2.5368
  167SAPS  C31018920   2.566   4.643   5.927  0.6066  0.8324  0.2907
  167SAPS  H10X18921   2.484   4.573   5.899  2.0523 -0.8777  0.2041
  167SAPS  H10Y18922   2.652   4.615   5.862 -1.1159 -2.4820 -0.8143
  167SAPS  C31118923   2.530   4.789   5.903  0.1332  0.2744 -0.2581
  167SAPS  H11X18924   2.632   4.834   5.907  1.0733 -1.8007  0.4596
  167SAPS  H11Y18925   2.461   4.816   5.985  0.4686 -2.9685  1.2313
  167SAPS  C31218926   2.457   4.812   5.777  0.1096  0.0707 -0.0076
  167SAPS  H12X18927   2.411   4.913   5.774  1.4354  0.8024  2.3528
  167SAPS  H12Y18928   2.372   4.743   5.761  0.5655 -0.6509  0.6049
  167SAPS  C31318929   2.539   4.798   5.651  0.2112 -0.2898 -0.0784
  167SAPS  H13X18930   2.616   4.719   5.643  1.6164  1.1964 -2.6120
  167SAPS  H13Y18931   2.607   4.886   5.656  2.6078 -1.9117 -1.8492
  167SAPS  C31418932   2.455   4.800   5.524 -0.1362 -0.8080 -0.1001
  167SAPS  H14X18933   2.487   4.887   5.462 -1.7904 -0.8372 -1.0624
  167SAPS  H14Y18934   2.351   4.828   5.552  0.4277  0.3807  0.8903
  167SAPS  C31518935   2.466   4.672   5.439 -1.1022 -0.0676 -0.2494
  167SAPS  H15X18936   2.467   4.583   5.504  2.3994 -1.0242 -1.3975
  167SAPS  H15Y18937   2.566   4.653   5.393 -1.7136 -1.6948 -0.9795
  167SAPS  C31618938   2.363   4.662   5.327  0.4942  0.3596 -0.2978
  167SAPS  H16X18939   2.399   4.611   5.236  0.0080 -0.3465 -0.1093
  167SAPS  H16Y18940   2.348   4.767   5.294  0.2801  0.4329  0.0190
  167SAPS  C31718941   2.217   4.623   5.376  0.1958  0.6666 -0.5768
  167SAPS  H17X18942   2.186   4.695   5.455  1.1523  2.3433 -1.6653
  167SAPS  H17Y18943   2.220   4.525   5.429 -1.0771  0.4928 -0.7885
  167SAPS  C31818944   2.112   4.612   5.260 -0.0539  0.9511 -0.4555
  167SAPS  H18X18945   2.151   4.551   5.175 -0.2637  1.5858 -1.0176
  167SAPS  H18Y18946   2.097   4.712   5.214 -1.0592  0.4833 -1.1948
  167SAPS  H18Z18947   2.018   4.570   5.302  1.4442 -0.4867  1.6488
  168SAPS     N18948   0.873   0.739   7.496 -0.6987 -0.1349 -0.4818
  168SAPS   HN118949   0.862   0.641   7.529 -0.2075 -0.0192  0.0222
  168SAPS   HN218950   0.781   0.787   7.495 -0.3326  0.8421  3.0183
  168SAPS   HN318951   0.920   0.749   7.404  0.1539 -0.2608 -0.0601
  168SAPS   C1218952   0.960   0.816   7.581  0.3423  0.1853 -0.5559
  168SAPS  H12A18953   0.930   0.800   7.683 -0.3595  1.7493 -0.4899
  168SAPS   C1318954   1.105   0.782   7.581 -0.5273 -0.6341  1.1934
  168SAPS  O13A18955   1.143   0.684   7.506  0.2747 -0.7316 -0.1651
  168SAPS  O13B18956   1.190   0.840   7.655  0.6077 -0.1023  0.4088
  168SAPS   C1118957   0.937   0.962   7.540 -0.7811 -0.1681  0.1077
  168SAPS  H11A18958   0.978   0.978   7.438  1.4559 -0.1497  0.9508
  168SAPS  H11B18959   0.991   1.030   7.609 -0.5632  0.1357 -0.3601
  168SAPS     P18960   0.709   1.084   7.643 -0.0448  0.6965  0.6366
  168SAPS   O1318961   0.642   0.999   7.741  0.4849 -0.2190  0.3410
  168SAPS   O1418962   0.794   1.189   7.697 -0.1005 -0.2867  0.7727
  168SAPS   O1218963   0.792   0.985   7.547  0.6428 -0.3491 -0.1099
  168SAPS   O1118964   0.600   1.145   7.546  0.0624  0.0940  0.9809
  168SAPS    C118965   0.550   1.071   7.431  0.2624 -0.1853 -0.3121
  168SAPS    HA18966   0.593   0.970   7.414  1.3729  0.4269 -1.3092
  168SAPS    HB18967   0.441   1.057   7.449  0.1794  2.2820  1.5336
  168SAPS    C218968   0.559   1.145   7.298 -0.4822  0.1410  0.8285
  168SAPS    HS18969   0.541   1.074   7.214  3.7467 -0.9388  0.6455
  168SAPS   O2118970   0.681   1.204   7.276 -0.4196 -0.6019 -0.8547
  168SAPS   C2118971   0.776   1.127   7.232 -1.3316 -0.1622  0.2990
  168SAPS   O2218972   0.772   1.008   7.224  0.1808  1.0833 -0.1298
  168SAPS   C2218973   0.891   1.210   7.186 -0.2186 -0.5625  0.1305
  168SAPS   H2R18974   0.844   1.278   7.112  1.2748  1.0368  0.5835
  168SAPS   H2S18975   0.928   1.266   7.275  1.3131 -0.4718 -0.5410
  168SAPS    C318976   0.451   1.260   7.299 -0.4631  0.1571 -0.3461
  168SAPS    HX18977   0.460   1.303   7.402 -0.5195 -0.1850 -0.1963
  168SAPS    HY18978   0.357   1.204   7.280 -0.1020 -0.4869 -0.2534
  168SAPS   O3118979   0.471   1.357   7.197  0.2882 -0.0367  0.7150
  168SAPS   C3118980   0.369   1.429   7.154  0.2879 -0.1763 -0.1426
  168SAPS   O3218981   0.259   1.424   7.207  0.7624  0.3745  0.0235
  168SAPS   C3218982   0.401   1.504   7.027 -0.2876  0.4065  0.2721
  168SAPS   H2X18983   0.432   1.437   6.944  0.5222 -0.2729  1.1105
  168SAPS   H2Y18984   0.489   1.568   7.047  1.3891 -1.2887 -1.2449
  168SAPS   C2318985   1.004   1.131   7.115  0.4042 -0.1871 -0.0191
  168SAPS   H3R18986   0.956   1.072   7.034 -2.5386  3.3406 -1.0849
  168SAPS   H3S18987   1.055   1.073   7.196 -0.1899  1.5933  1.7168
  168SAPS   C2418988   1.108   1.234   7.058 -0.0849  0.0795 -0.3283
  168SAPS   H4R18989   1.167   1.283   7.139  0.2745 -1.2222  0.2200
  168SAPS   H4S18990   1.047   1.312   7.007 -0.4249 -0.5606 -0.9196
  168SAPS   C2518991   1.218   1.169   6.979 -0.3600  0.5017 -0.0170
  168SAPS   H5R18992   1.282   1.108   7.043 -1.7682  1.7362  2.7290
  168SAPS   C2618993   1.235   1.169   6.846  0.2492 -0.9230  0.3633
  168SAPS   H6R18994   1.314   1.101   6.811 -0.3711 -0.1004 -2.9865
  168SAPS   C2718995   1.146   1.242   6.744  0.1483 -0.3032  0.3859
  168SAPS   H7R18996   1.198   1.325   6.692 -1.3489  0.9118  0.7293
  168SAPS   H7S18997   1.059   1.293   6.792  0.9821  0.4574  1.1366
  168SAPS   C2818998   1.089   1.158   6.638 -0.6174  0.9070 -1.1430
  168SAPS   H8R18999   0.985   1.125   6.657  0.2128 -1.5624 -0.4512
  168SAPS   C2919000   1.148   1.108   6.524  0.0813  0.1101  0.4926
  168SAPS   H9R19001   1.096   1.051   6.446 -0.4278  0.1108  0.8272
  168SAPS  C21019002   1.289   1.140   6.473  0.2045 -0.4288 -0.6440
  168SAPS  H10R19003   1.344   1.043   6.478 -1.6710 -1.5271 -0.2104
  168SAPS  H10S19004   1.329   1.213   6.547 -0.0410 -1.1140  0.1953
  168SAPS  C21119005   1.308   1.198   6.334  0.5408  0.4524 -0.1766
  168SAPS  H11R19006   1.363   1.294   6.336  2.1801 -0.4558  1.8818
  168SAPS  C21219007   1.271   1.134   6.219  0.4799 -0.1495 -0.2938
  168SAPS  H12R19008   1.302   1.175   6.122  0.6260  0.5500  0.0403
  168SAPS  C21319009   1.212   1.000   6.217 -0.1911  0.8313  0.5921
  168SAPS  H13R19010   1.102   0.999   6.224 -0.2883 -0.9959 -0.5899
  168SAPS  H13S19011   1.250   0.944   6.305  1.9590 -0.5184 -1.0829
  168SAPS  C21419012   1.264   0.930   6.090 -0.4310  0.1954  0.5488
  168SAPS  H14R19013   1.373   0.913   6.091 -0.8887 -3.4177  1.6353
  168SAPS  C21519014   1.185   0.887   5.992 -0.1060 -0.1742 -0.0885
  168SAPS  H15R19015   1.233   0.851   5.900  1.1565  0.7070  0.2050
  168SAPS  C21619016   1.034   0.909   5.974 -0.0148 -0.8912  0.3403
  168SAPS  H16R19017   0.986   0.950   6.065  1.1559 -0.3962  0.7652
  168SAPS  H16S19018   0.990   0.809   5.959  1.9682 -1.5857 -1.4223
  168SAPS  C21719019   1.007   1.017   5.860 -0.4097  0.8121  0.4445
  168SAPS  H17R19020   1.048   0.967   5.769 -1.3708  2.2173 -0.8258
  168SAPS  H17S19021   1.054   1.116   5.880  1.4530 -0.2969  1.8386
  168SAPS  C21819022   0.852   1.026   5.845 -0.2267  0.1954  0.1314
  168SAPS  H18R19023   0.807   1.076   5.934 -1.5160 -2.0163  0.8118
  168SAPS  H18S19024   0.815   0.921   5.849 -0.6415  0.3401  0.1946
  168SAPS  C21919025   0.803   1.085   5.710 -0.7895 -0.0013 -0.2332
  168SAPS  H19R19026   0.829   0.998   5.645  2.8036 -0.5471  1.6437
  168SAPS  H19S19027   0.863   1.173   5.678 -0.5883  0.2993  0.9161
  168SAPS  C22019028   0.650   1.114   5.684 -0.9344  0.4133  0.1374
  168SAPS  H20R19029   0.614   1.185   5.761 -0.3568  0.1156  0.6862
  168SAPS  H20S19030   0.598   1.016   5.687  1.0449 -0.7049 -0.4658
  168SAPS  H20T19031   0.648   1.153   5.580 -0.0479  0.5077  0.1486
  168SAPS   C3319032   0.280   1.583   6.967  0.0554 -0.4476  0.7036
  168SAPS   H3X19033   0.259   1.664   7.040  1.3023  1.3023 -0.7863
  168SAPS   H3Y19034   0.195   1.512   6.970  0.6891 -1.1983  2.3727
  168SAPS   C3419035   0.305   1.637   6.825  0.2280 -0.5120 -0.9150
  168SAPS   H4X19036   0.299   1.555   6.750 -0.7854 -0.5287 -0.8349
  168SAPS   H4Y19037   0.409   1.674   6.811  0.4764 -0.9754 -0.3263
  168SAPS   C3519038   0.203   1.747   6.783 -0.0412 -0.5560 -0.4760
  168SAPS   H5X19039   0.213   1.821   6.865 -0.2785  1.5360 -2.2633
  168SAPS   H5Y19040   0.102   1.699   6.782  0.4944 -1.7472 -2.6236
  168SAPS   C3619041   0.227   1.815   6.650  0.4170  0.0160  0.1758
  168SAPS   H6X19042   0.334   1.844   6.643  0.8035 -1.4704 -0.3540
  168SAPS   H6Y19043   0.158   1.902   6.636 -0.2778 -0.5200  0.2410
  168SAPS   C3719044   0.214   1.711   6.533 -0.9850 -0.4692  0.7360
  168SAPS   H7X19045   0.114   1.667   6.513 -0.9424 -0.4777  0.5315
  168SAPS   H7Y19046   0.275   1.619   6.546  1.7433  0.7202 -2.1755
  168SAPS   C3819047   0.262   1.766   6.399 -0.9409 -0.5968 -0.3184
  168SAPS   H8X19048   0.368   1.796   6.415 -1.3798  0.6979  0.2888
  168SAPS   H8Y19049   0.208   1.851   6.352  0.2472  1.9325  2.5388
  168SAPS   C3919050   0.265   1.650   6.293  0.8036 -0.4884 -0.1435
  168SAPS   H9X19051   0.158   1.618   6.292  0.7089 -0.1956  0.3124
  168SAPS   H9Y19052   0.319   1.563   6.336  0.7551 -0.4001  0.0992
  168SAPS  C31019053   0.313   1.692   6.155  0.5789  0.1454  0.1422
  168SAPS  H10X19054   0.302   1.606   6.086 -0.2960  1.5032 -1.4872
  168SAPS  H10Y19055   0.421   1.715   6.161  0.2757  1.4056  1.3096
  168SAPS  C31119056   0.247   1.819   6.097  0.5544 -0.3765 -0.4166
  168SAPS  H11X19057   0.262   1.916   6.148  1.3285  0.7658 -2.6928
  168SAPS  H11Y19058   0.137   1.810   6.085  0.4113  0.9951 -0.2603
  168SAPS  C31219059   0.295   1.830   5.949 -0.6429 -0.3010 -0.2787
  168SAPS  H12X19060   0.279   1.730   5.902 -0.5463 -1.8595  2.7669
  168SAPS  H12Y19061   0.403   1.842   5.974 -0.6147 -0.8389 -0.1297
  168SAPS  C31319062   0.254   1.956   5.870 -0.3162  0.3476  0.3555
  168SAPS  H13X19063   0.249   2.044   5.937 -0.2243 -1.1586  2.4246
  168SAPS  H13Y19064   0.150   1.932   5.838  0.5304  0.9784 -3.3424
  168SAPS  C31419065   0.328   1.978   5.734 -0.9986 -0.4199  0.4470
  168SAPS  H14X19066   0.432   1.940   5.729  0.9440  4.2480 -3.5267
  168SAPS  H14Y19067   0.347   2.088   5.727  0.1674 -0.4481  2.3880
  168SAPS  C31519068   0.246   1.931   5.615  0.7303 -0.2897 -0.3739
  168SAPS  H15X19069   0.149   1.982   5.597  0.3289 -0.7848  0.3394
  168SAPS  H15Y19070   0.222   1.825   5.635  1.1019  0.1208  2.8311
  168SAPS  C31619071   0.319   1.943   5.482  0.2335 -0.1429 -0.0082
  168SAPS  H16X19072   0.424   1.913   5.503  0.3476  0.9558  1.0913
  168SAPS  H16Y19073   0.309   2.048   5.449 -1.2520  0.5654  2.4332
  168SAPS  C31719074   0.261   1.849   5.381  0.3598 -0.6767  0.6253
  168SAPS  H17X19075   0.159   1.868   5.339  1.9113  0.4807 -3.0668
  168SAPS  H17Y19076   0.267   1.750   5.431  0.4645  0.2713  2.5672
  168SAPS  C31819077   0.338   1.840   5.248  0.1152 -0.0467  0.0349
  168SAPS  H18X19078   0.281   1.791   5.166  0.5999 -1.9733  0.8143
  168SAPS  H18Y19079   0.423   1.770   5.256  0.4215 -0.0267 -2.2674
  168SAPS  H18Z19080   0.361   1.942   5.211 -2.0079  0.0971 -1.0467
  169SAPS     N19081   1.829   4.176   7.916 -0.1502 -0.1567 -0.2605
  169SAPS   HN119082   1.894   4.176   7.835  1.7678 -0.1275  1.2229
  169SAPS   HN219083   1.872   4.114   7.988  1.0605 -0.4640 -1.2105
  169SAPS   HN319084   1.743   4.124   7.888  0.9052 -1.7746 -0.6334
  169SAPS   C1219085   1.813   4.310   7.966  0.2689  0.0522 -0.3160
  169SAPS  H12A19086   1.738   4.308   8.044  1.4727  0.5223  0.8962
  169SAPS   C1319087   1.936   4.384   8.031  0.3424  0.7319 -0.1000
  169SAPS  O13A19088   2.045   4.314   8.039  0.3984  0.0010 -0.4517
  169SAPS  O13B19089   1.917   4.498   8.078  0.5484 -0.4422  0.3218
  169SAPS   C1119090   1.761   4.391   7.843  0.4843 -0.6556  0.4268
  169SAPS  H11A19091   1.733   4.492   7.880 -0.4134 -0.4144 -0.8204
  169SAPS  H11B19092   1.668   4.338   7.811  0.9245 -1.8651  1.1094
  169SAPS     P19093   1.847   4.416   7.590  0.5075  0.8241 -0.4049
  169SAPS   O1319094   1.823   4.558   7.578  0.3536  0.0243  0.3185
  169SAPS   O1419095   1.970   4.364   7.534 -0.3943 -0.2674  0.1339
  169SAPS   O1219096   1.859   4.391   7.742  0.3819 -0.5321 -0.4417
  169SAPS   O1119097   1.720   4.335   7.542  0.3323 -0.2725  0.2310
  169SAPS    C119098   1.726   4.264   7.415  0.6393 -0.3425  0.2627
  169SAPS    HA19099   1.824   4.214   7.396  0.6114  0.2079 -1.4443
  169SAPS    HB19100   1.660   4.176   7.422  0.1859 -0.1090 -0.9301
  169SAPS    C219101   1.672   4.341   7.301  0.9598 -0.0045  0.6441
  169SAPS    HS19102   1.653   4.266   7.222 -1.2679 -0.1663  1.2877
  169SAPS   O2119103   1.757   4.447   7.265 -0.6222 -0.0234  0.4305
  169SAPS   C2119104   1.855   4.406   7.181  0.0645 -0.1237 -0.6361
  169SAPS   O2219105   1.878   4.293   7.138  0.3787 -0.3009 -0.5352
  169SAPS   C2219106   1.936   4.540   7.150 -0.2522  0.6190  0.0424
  169SAPS   H2R19107   1.883   4.582   7.062  1.0320  0.8103 -0.6738
  169SAPS   H2S19108   1.933   4.605   7.240  1.9090 -0.7560  1.2153
  169SAPS    C319109   1.535   4.401   7.332  0.3133 -0.3429 -0.2011
  169SAPS    HX19110   1.544   4.464   7.423 -0.1926  1.5183 -1.3748
  169SAPS    HY19111   1.465   4.320   7.361  1.5237 -1.0967  0.7574
  169SAPS   O3119112   1.491   4.460   7.211 -0.1213  0.3278  0.0692
  169SAPS   C3119113   1.483   4.590   7.203 -0.0747  0.5873 -0.1386
  169SAPS   O3219114   1.477   4.667   7.300  0.6252 -0.7659 -0.0847
  169SAPS   C3219115   1.479   4.639   7.054  0.1180  0.4312 -0.0532
  169SAPS   H2X19116   1.573   4.696   7.036  0.9763 -1.1364 -0.7729
  169SAPS   H2Y19117   1.401   4.716   7.064  0.7279  1.3841 -2.0963
  169SAPS   C2319118   2.086   4.509   7.117  0.7303 -0.7372 -0.0633
  169SAPS   H3R19119   2.121   4.448   7.203 -1.6879  0.0705  1.5970
  169SAPS   H3S19120   2.140   4.606   7.116 -1.1053  0.3292 -0.0285
  169SAPS   C2419121   2.105   4.430   6.984  0.0817 -0.2748 -0.0609
  169SAPS   H4R19122   2.051   4.333   6.980 -1.7825  0.7675 -2.1511
  169SAPS   H4S19123   2.213   4.405   6.990 -0.0199 -0.4627  1.1260
  169SAPS   C2519124   2.086   4.512   6.861  0.3553  0.2843 -0.7114
  169SAPS   H5R19125   2.178   4.560   6.825  1.1156 -0.1367  0.6135
  169SAPS   C2619126   1.966   4.525   6.790  0.6970  0.6992 -0.2401
  169SAPS   H6R19127   1.968   4.596   6.706  1.2872  0.7019 -0.2310
  169SAPS   C2719128   1.840   4.451   6.815  0.2074  0.7483  1.1649
  169SAPS   H7R19129   1.757   4.521   6.838 -0.2228  0.4914  0.4263
  169SAPS   H7S19130   1.847   4.377   6.897  0.2125  0.8981  1.2997
  169SAPS   C2819131   1.815   4.365   6.695 -0.0679  0.3251  0.3003
  169SAPS   H8R19132   1.829   4.256   6.703 -1.6322  0.2091  1.9423
  169SAPS   C2919133   1.751   4.401   6.582 -0.3420 -0.0987 -1.0896
  169SAPS   H9R19134   1.741   4.319   6.509  0.2737 -0.1749 -1.0881
  169SAPS  C21019135   1.688   4.538   6.548  0.0712  0.1233 -0.4944
  169SAPS  H10R19136   1.763   4.599   6.492  0.5633 -0.6739 -0.7163
  169SAPS  H10S19137   1.676   4.598   6.641 -2.6959 -2.7040  1.1431
  169SAPS  C21119138   1.559   4.540   6.460  0.1582 -0.0503 -0.6017
  169SAPS  H11R19139   1.466   4.516   6.514  0.7512 -0.6488  0.1789
  169SAPS  C21219140   1.545   4.551   6.328 -0.7087  0.1496  0.0805
  169SAPS  H12R19141   1.445   4.566   6.285 -1.3353  0.7013  1.6539
  169SAPS  C21319142   1.652   4.567   6.218  0.1682  0.1682  0.2242
  169SAPS  H13R19143   1.643   4.485   6.144  1.5292  0.7597 -0.6426
  169SAPS  H13S19144   1.756   4.566   6.257  1.7022 -1.2650 -3.4604
  169SAPS  C21419145   1.628   4.698   6.145  0.1716 -0.3584  0.0300
  169SAPS  H14R19146   1.586   4.775   6.211 -0.3551  1.0654 -1.8495
  169SAPS  C21519147   1.642   4.725   6.013 -0.3239 -0.7458  0.0247
  169SAPS  H15R19148   1.620   4.827   5.975  3.0468 -0.3873 -1.3664
  169SAPS  C21619149   1.704   4.639   5.902  0.4580 -0.3535  0.2868
  169SAPS  H16R19150   1.759   4.555   5.948 -0.3388  0.4479  2.8857
  169SAPS  H16S19151   1.769   4.698   5.834  2.5486 -0.2132  2.2899
  169SAPS  C21719152   1.588   4.577   5.823  0.0752  0.0530  0.3047
  169SAPS  H17R19153   1.506   4.649   5.799 -1.6347 -2.0471 -0.5087
  169SAPS  H17S19154   1.547   4.495   5.885 -0.9931  0.4337  0.1162
  169SAPS  C21819155   1.626   4.523   5.679 -0.1497  0.8475  0.2878
  169SAPS  H18R19156   1.689   4.432   5.688 -1.5205 -0.0908  0.7111
  169SAPS  H18S19157   1.683   4.600   5.623 -1.4603  1.3690 -0.3596
  169SAPS  C21919158   1.507   4.492   5.586  0.0474 -0.0247 -0.0770
  169SAPS  H19R19159   1.455   4.583   5.549  1.6341  0.2996 -1.6263
  169SAPS  H19S19160   1.437   4.439   5.656  0.3099 -0.4599 -0.1389
  169SAPS  C22019161   1.534   4.397   5.474  0.2580 -0.1904 -0.1305
  169SAPS  H20R19162   1.612   4.443   5.409  0.5996  0.8740  0.9984
  169SAPS  H20S19163   1.443   4.400   5.410 -0.5180  1.7775  0.9878
  169SAPS  H20T19164   1.577   4.297   5.496  1.2985  0.2199 -0.2221
  169SAPS   C3319165   1.454   4.530   6.944  0.5779 -0.3058 -0.0600
  169SAPS   H3X19166   1.386   4.453   6.985 -0.8776  1.0348  0.1279
  169SAPS   H3Y19167   1.557   4.492   6.926  0.5073 -0.2079 -0.7109
  169SAPS   C3419168   1.406   4.597   6.816  0.0489 -0.0025  0.1607
  169SAPS   H4X19169   1.406   4.520   6.737 -0.0269  0.7273 -0.5619
  169SAPS   H4Y19170   1.477   4.679   6.793 -0.2274  0.8330  2.0411
  169SAPS   C3519171   1.262   4.649   6.829  0.2447  0.1424  0.0226
  169SAPS   H5X19172   1.250   4.703   6.926  0.1705 -0.4666  0.3527
  169SAPS   H5Y19173   1.187   4.570   6.850  0.3868  0.3970  1.6191
  169SAPS   C3619174   1.205   4.740   6.718  0.1395 -0.6191  0.8428
  169SAPS   H6X19175   1.236   4.844   6.738 -0.6085 -0.4262  1.0315
  169SAPS   H6Y19176   1.094   4.734   6.721 -0.0796 -0.5950 -2.6725
  169SAPS   C3719177   1.241   4.708   6.569 -0.4079 -1.2501 -0.1155
  169SAPS   H7X19178   1.204   4.608   6.539 -1.9637 -0.6122 -0.4085
  169SAPS   H7Y19179   1.351   4.695   6.566 -0.2323  0.1198 -0.1427
  169SAPS   C3819180   1.180   4.824   6.490  0.4342  0.3369  0.0380
  169SAPS   H8X19181   1.203   4.915   6.549  0.2329 -0.1101  0.8269
  169SAPS   H8Y19182   1.070   4.810   6.500  0.4913  1.3393  3.0136
  169SAPS   C3919183   1.212   4.826   6.340  0.4799 -0.4029  0.8832
  169SAPS   H9X19184   1.318   4.832   6.309  0.3477  0.1782  0.5237
  169SAPS   H9Y19185   1.162   4.919   6.304  0.6811  0.9344  3.7990
  169SAPS  C31019186   1.162   4.696   6.268  0.0659  0.8341  0.0441
  169SAPS  H10X19187   1.051   4.693   6.270 -0.3325 -4.1158 -4.5251
  169SAPS  H10Y19188   1.190   4.597   6.310 -1.0692 -1.0822 -3.2810
  169SAPS  C31119189   1.194   4.690   6.115 -0.1850 -0.1754 -0.6767
  169SAPS  H11X19190   1.303   4.701   6.099  0.3571 -3.9551 -0.3793
  169SAPS  H11Y19191   1.153   4.777   6.059  0.8462  0.3943 -0.5683
  169SAPS  C31219192   1.142   4.565   6.054 -0.2691  0.0973  0.0757
  169SAPS  H12X19193   1.035   4.554   6.084 -0.7691  1.8848 -0.8919
  169SAPS  H12Y19194   1.202   4.487   6.105 -0.2276  1.0669  1.5513
  169SAPS  C31319195   1.163   4.569   5.897  0.1702 -0.3995 -0.3434
  169SAPS  H13X19196   1.271   4.547   5.878  0.4294  0.1885  0.3837
  169SAPS  H13Y19197   1.153   4.675   5.866  2.1924  0.6975  2.2484
  169SAPS  C31419198   1.081   4.456   5.825 -0.9629  0.3931  0.3657
  169SAPS  H14X19199   0.972   4.474   5.821 -0.8908  2.1463  3.0165
  169SAPS  H14Y19200   1.090   4.360   5.879 -0.4159 -0.8085 -1.7799
  169SAPS  C31519201   1.149   4.431   5.682  0.6491 -0.0250 -0.6696
  169SAPS  H15X19202   1.250   4.395   5.709  2.1361  1.1282 -4.1351
  169SAPS  H15Y19203   1.151   4.517   5.611 -0.4017 -0.1422 -0.8691
  169SAPS  C31619204   1.070   4.312   5.614 -0.1529 -0.1907  0.1349
  169SAPS  H16X19205   0.966   4.346   5.598 -0.7484 -1.4316  1.1905
  169SAPS  H16Y19206   1.064   4.240   5.699  1.4272 -0.7228 -0.1744
  169SAPS  C31719207   1.147   4.244   5.498 -0.8808 -0.1984  0.6019
  169SAPS  H17X19208   1.115   4.141   5.473  1.1291 -0.5081 -0.9972
  169SAPS  H17Y19209   1.256   4.235   5.520 -0.4346  0.4283 -1.1068
  169SAPS  C31819210   1.129   4.324   5.368 -0.1373  0.0678 -0.7070
  169SAPS  H18X19211   1.180   4.273   5.284  1.1173 -0.1298  0.1452
  169SAPS  H18Y19212   1.174   4.425   5.382  0.5071 -0.2747 -0.2338
  169SAPS  H18Z19213   1.022   4.341   5.347 -0.3042  0.6428  0.5152
  170SAPS     N19214   4.141   6.637   7.712 -0.5336 -0.2559 -0.4979
  170SAPS   HN119215   4.189   6.552   7.749 -0.4988 -0.7290 -1.6123
  170SAPS   HN219216   4.082   6.617   7.629 -1.5413  1.5264 -0.2662
  170SAPS   HN319217   4.213   6.705   7.679  0.6503 -1.9562 -1.6064
  170SAPS   C1219218   4.061   6.711   7.813 -0.0635 -0.3565  0.6818
  170SAPS  H12A19219   4.005   6.639   7.870 -0.2968 -0.1911  0.6632
  170SAPS   C1319220   4.140   6.792   7.919  0.6205  0.0137  0.4720
  170SAPS  O13A19221   4.265   6.775   7.926  0.4810  0.2264 -0.1150
  170SAPS  O13B19222   4.078   6.850   8.010  0.1700  0.2893 -0.5546
  170SAPS   C1119223   3.974   6.817   7.741 -0.7408 -0.1754  0.7452
  170SAPS  H11A19224   4.035   6.898   7.695 -1.8897  0.7702  0.8566
  170SAPS  H11B19225   3.920   6.882   7.813 -2.0237  0.9110 -1.1135
  170SAPS     P19226   3.798   6.832   7.565 -0.1950 -0.1914  0.2944
  170SAPS   O1319227   3.682   6.864   7.646 -0.8614 -0.2502 -0.1893
  170SAPS   O1419228   3.873   6.950   7.511 -0.3327  0.5464 -0.2329
  170SAPS   O1219229   3.887   6.738   7.649  0.6264 -0.8223  0.9081
  170SAPS   O1119230   3.740   6.743   7.452 -0.5530 -0.7142  0.5554
  170SAPS    C119231   3.818   6.649   7.377  0.7690  0.1405 -0.2272
  170SAPS    HA19232   3.909   6.607   7.425  1.8781  1.7594 -0.8309
  170SAPS    HB19233   3.759   6.556   7.359  0.4808  0.4471 -0.9202
  170SAPS    C219234   3.856   6.710   7.240  0.3963  0.6422 -0.3904
  170SAPS    HS19235   3.909   6.805   7.257  2.4031 -0.0042 -2.4943
  170SAPS   O2119236   3.733   6.725   7.166 -0.5921 -0.2178  0.4131
  170SAPS   C2119237   3.704   6.843   7.117 -0.1509  0.0717  0.0273
  170SAPS   O2219238   3.759   6.946   7.134  0.0189 -0.3550  0.0743
  170SAPS   C2219239   3.582   6.824   7.031 -0.1017 -0.5897  0.3171
  170SAPS   H2R19240   3.634   6.799   6.936 -0.3561  3.9526 -1.2559
  170SAPS   H2S19241   3.525   6.735   7.067  0.4604 -0.2623  2.1412
  170SAPS    C319242   3.954   6.610   7.163  0.4079  0.3045 -0.0730
  170SAPS    HX19243   3.905   6.512   7.144  3.4924 -0.6985 -4.3901
  170SAPS    HY19244   4.040   6.591   7.230 -0.0494 -2.7195 -0.1816
  170SAPS   O3119245   4.002   6.656   7.033 -0.8826 -0.3604  0.2391
  170SAPS   C3119246   4.109   6.741   7.026  0.3312 -0.9686  0.1355
  170SAPS   O3219247   4.159   6.795   7.120 -0.4743 -0.2942  0.2449
  170SAPS   C3219248   4.164   6.754   6.884  0.2157 -0.2033  0.1118
  170SAPS   H2X19249   4.083   6.772   6.810  1.7078  2.4300 -1.0177
  170SAPS   H2Y19250   4.206   6.654   6.861 -2.4191 -1.0063 -1.6505
  170SAPS   C2319251   3.487   6.940   7.005  0.3393 -0.4011  0.2898
  170SAPS   H3R19252   3.552   7.011   6.948 -0.9275  1.2553  0.8065
  170SAPS   H3S19253   3.469   6.987   7.104 -1.1196 -0.2018 -0.0384
  170SAPS   C2419254   3.354   6.902   6.924 -0.4702  0.0991  0.7344
  170SAPS   H4R19255   3.297   6.848   7.003  1.1537  0.9997  2.6024
  170SAPS   H4S19256   3.379   6.843   6.833  1.1562  0.5318  0.8814
  170SAPS   C2519257   3.289   7.033   6.900  0.5807  0.3127 -0.4632
  170SAPS   H5R19258   3.212   7.037   6.978 -0.4759 -1.0179 -1.3886
  170SAPS   C2619259   3.332   7.138   6.818  0.2128 -0.0585  0.0122
  170SAPS   H6R19260   3.264   7.224   6.819 -1.0413 -1.0096 -0.7146
  170SAPS   C2719261   3.437   7.136   6.704 -0.3105  0.2371 -0.3773
  170SAPS   H7R19262   3.380   7.163   6.612 -0.1081  0.3290 -0.4756
  170SAPS   H7S19263   3.472   7.031   6.699  2.1312  0.7481  2.8992
  170SAPS   C2819264   3.554   7.228   6.732 -0.2664 -0.0215  0.0111
  170SAPS   H8R19265   3.573   7.258   6.837 -2.0662  3.4855 -0.5204
  170SAPS   C2919266   3.634   7.272   6.635  0.5747  0.0723  0.6850
  170SAPS   H9R19267   3.720   7.338   6.657 -0.4356  2.0041 -0.8617
  170SAPS  C21019268   3.620   7.274   6.482 -0.4611 -0.2536  0.1764
  170SAPS  H10R19269   3.587   7.173   6.451  3.1252 -1.8797  1.2507
  170SAPS  H10S19270   3.718   7.279   6.431  0.4680  1.2113  2.0073
  170SAPS  C21119271   3.531   7.382   6.426  0.0381  0.0130 -0.3952
  170SAPS  H11R19272   3.508   7.467   6.492  0.2923  0.4539 -0.8681
  170SAPS  C21219273   3.482   7.388   6.308  0.5869  0.0138 -0.1378
  170SAPS  H12R19274   3.418   7.471   6.272  1.0901 -1.5728 -5.7062
  170SAPS  C21319275   3.527   7.293   6.200  0.6290  0.5463 -0.7157
  170SAPS  H13R19276   3.434   7.235   6.180 -0.0469  1.5460 -0.5730
  170SAPS  H13S19277   3.605   7.221   6.232  1.4898  1.0669 -1.5832
  170SAPS  C21419278   3.572   7.362   6.078  0.1023  0.0459  0.6000
  170SAPS  H14R19279   3.500   7.442   6.057 -0.7600 -0.3625  1.8649
  170SAPS  C21519280   3.687   7.351   6.009 -0.7153  0.2866 -0.0123
  170SAPS  H15R19281   3.721   7.421   5.931  0.3829 -0.7226 -0.4833
  170SAPS  C21619282   3.797   7.255   6.036  0.5084 -0.3449  0.1626
  170SAPS  H16R19283   3.778   7.196   6.128  2.7840  0.5059  1.2491
  170SAPS  H16S19284   3.885   7.314   6.067 -0.0887  0.3326  0.5943
  170SAPS  C21719285   3.815   7.157   5.914 -0.9780  0.0590  0.5880
  170SAPS  H17R19286   3.722   7.102   5.890 -0.1201 -0.3645 -2.0586
  170SAPS  H17S19287   3.897   7.098   5.960  0.6700  1.9582  0.2632
  170SAPS  C21819288   3.858   7.223   5.787 -0.1282  0.5342 -0.4249
  170SAPS  H18R19289   3.957   7.270   5.806  0.4157  0.0792 -1.9932
  170SAPS  H18S19290   3.790   7.308   5.764 -1.1331  0.0251  0.5634
  170SAPS  C21919291   3.855   7.127   5.668 -0.3037 -0.3169  0.3453
  170SAPS  H19R19292   3.752   7.088   5.653 -0.4671  0.4301 -0.6000
  170SAPS  H19S19293   3.927   7.052   5.707  1.1465  1.7435  1.8070
  170SAPS  C22019294   3.913   7.175   5.532 -1.0003 -0.8821  0.3131
  170SAPS  H20R19295   4.003   7.237   5.551 -0.8515 -0.9722 -0.1057
  170SAPS  H20S19296   3.844   7.243   5.478  0.4456  0.8731  0.5779
  170SAPS  H20T19297   3.941   7.082   5.478  0.7935  0.8736 -1.9885
  170SAPS   C3319298   4.264   6.868   6.880  1.1776  0.4064 -0.1881
  170SAPS   H3X19299   4.346   6.854   6.953  0.1001 -1.0184  0.8059
  170SAPS   H3Y19300   4.207   6.958   6.911 -1.8870 -2.1134  2.1812
  170SAPS   C3419301   4.331   6.880   6.743 -0.2768  0.2046  0.1935
  170SAPS   H4X19302   4.374   6.982   6.736  0.7385 -0.0903  1.7139
  170SAPS   H4Y19303   4.242   6.866   6.679 -0.0809 -1.8779  0.3196
  170SAPS   C3519304   4.440   6.771   6.719  0.4577  0.3245  0.0216
  170SAPS   H5X19305   4.413   6.666   6.745  1.2562 -1.0774 -4.1693
  170SAPS   H5Y19306   4.527   6.797   6.783 -0.0292  0.6893  0.5443
  170SAPS   C3619307   4.488   6.773   6.581 -0.2905  0.3625  0.1110
  170SAPS   H6X19308   4.407   6.750   6.509 -1.2569 -0.2296  1.3431
  170SAPS   H6Y19309   4.559   6.688   6.572  0.5812  1.1586 -0.8229
  170SAPS   C3719310   4.546   6.899   6.528 -0.1652 -0.1283  0.3045
  170SAPS   H7X19311   4.610   6.953   6.601 -1.3752 -0.9834  2.0653
  170SAPS   H7Y19312   4.455   6.963   6.520  0.5345  0.9765  0.8655
  170SAPS   C3819313   4.623   6.901   6.396 -0.1944 -0.3517  0.9493
  170SAPS   H8X19314   4.555   6.857   6.319 -1.8156  2.2454  0.7925
  170SAPS   H8Y19315   4.715   6.840   6.413 -0.2735 -0.3999  1.2114
  170SAPS   C3919316   4.673   7.042   6.352 -0.2570 -0.8267 -0.7932
  170SAPS   H9X19317   4.746   7.072   6.430  0.5250 -3.1192 -0.5699
  170SAPS   H9Y19318   4.586   7.111   6.358  0.0447 -0.6067  2.4881
  170SAPS  C31019319   4.733   7.041   6.205 -0.0864  0.7215 -0.1687
  170SAPS  H10X19320   4.789   6.947   6.186 -3.1615 -1.2168 -0.4038
  170SAPS  H10Y19321   4.799   7.130   6.204  0.0756  0.6625  2.0396
  170SAPS  C31119322   4.630   7.062   6.097 -0.4305 -0.1045  0.1417
  170SAPS  H11X19323   4.577   7.157   6.120  1.0293  0.8623 -0.3306
  170SAPS  H11Y19324   4.564   6.973   6.102 -2.0963  1.1284  3.9173
  170SAPS  C31219325   4.695   7.078   5.953  0.0503  0.4716  0.4586
  170SAPS  H12X19326   4.794   7.130   5.955 -0.0921  0.7780 -0.0973
  170SAPS  H12Y19327   4.628   7.133   5.883  0.1886 -0.9623 -0.8476
  170SAPS  C31319328   4.719   6.937   5.896 -0.1974 -0.9081  0.7071
  170SAPS  H13X19329   4.638   6.868   5.929 -1.6578  0.2185 -0.3850
  170SAPS  H13Y19330   4.815   6.899   5.938  1.0349  0.0377 -1.1187
  170SAPS  C31419331   4.717   6.936   5.750 -0.3479 -0.3015 -0.1810
  170SAPS  H14X19332   4.787   7.015   5.718 -1.6244  0.9192 -0.0749
  170SAPS  H14Y19333   4.615   6.976   5.729 -1.5045 -3.3758 -0.9608
  170SAPS  C31519334   4.717   6.790   5.703 -0.0918  0.4869  0.0614
  170SAPS  H15X19335   4.632   6.727   5.739  1.1936 -0.2345  1.9799
  170SAPS  H15Y19336   4.811   6.743   5.738 -1.2577 -2.4652 -0.4336
  170SAPS  C31619337   4.713   6.781   5.549 -0.0783 -0.2043 -0.3023
  170SAPS  H16X19338   4.795   6.843   5.508 -0.4772  1.6698  1.5751
  170SAPS  H16Y19339   4.626   6.846   5.527  0.3011  0.3734 -0.1014
  170SAPS  C31719340   4.700   6.635   5.508  0.0230  0.5112  0.6574
  170SAPS  H17X19341   4.701   6.622   5.398 -0.7794  0.0765  0.6976
  170SAPS  H17Y19342   4.605   6.588   5.540  0.1844  0.0593  0.4852
  170SAPS  C31819343   4.821   6.548   5.558 -0.3823  0.1605  0.4620
  170SAPS  H18X19344   4.841   6.467   5.485  3.0109  0.6711  0.6706
  170SAPS  H18Y19345   4.811   6.501   5.658  1.9588 -2.2611 -0.3359
  170SAPS  H18Z19346   4.914   6.607   5.546 -0.7321  0.3706 -1.6324
  171SAPS     N19347   4.314   2.279   7.411  0.0723 -1.0111  0.1283
  171SAPS   HN119348   4.253   2.295   7.328 -0.9103 -0.1036  0.9862
  171SAPS   HN219349   4.372   2.365   7.412 -1.9332  0.4686 -2.0490
  171SAPS   HN319350   4.370   2.191   7.403  0.2487 -0.9018  0.1575
  171SAPS   C1219351   4.228   2.283   7.535  0.9257 -0.2661 -0.3274
  171SAPS  H12A19352   4.134   2.323   7.501  1.3950 -1.0126 -2.6884
  171SAPS   C1319353   4.199   2.142   7.587  0.4707  0.5524  0.6034
  171SAPS  O13A19354   4.250   2.040   7.535 -0.0371 -0.3700  0.5981
  171SAPS  O13B19355   4.117   2.133   7.682  0.5429 -0.3552 -0.3864
  171SAPS   C1119356   4.304   2.381   7.641  0.4834 -0.1188 -0.3528
  171SAPS  H11A19357   4.396   2.332   7.678  0.7433  0.6570  0.0361
  171SAPS  H11B19358   4.241   2.399   7.731 -0.5463 -1.8411 -0.6583
  171SAPS     P19359   4.264   2.639   7.611 -0.0584  0.0011 -0.0772
  171SAPS   O1319360   4.139   2.638   7.535  0.0610 -0.3409 -0.1834
  171SAPS   O1419361   4.265   2.661   7.756 -0.1242  0.2862  0.7320
  171SAPS   O1219362   4.350   2.504   7.583 -0.1796 -0.1700  0.2257
  171SAPS   O1119363   4.351   2.752   7.554 -0.2413  0.1207 -0.1305
  171SAPS    C119364   4.444   2.722   7.442  0.9637 -0.4494 -0.3722
  171SAPS    HA19365   4.515   2.806   7.432 -0.0308  0.5116  0.4566
  171SAPS    HB19366   4.500   2.628   7.461  0.4403 -0.1580  3.1892
  171SAPS    C219367   4.365   2.713   7.307  0.7959 -0.0239 -0.2930
  171SAPS    HS19368   4.275   2.649   7.314  1.7246 -1.2189  4.3798
  171SAPS   O2119369   4.458   2.676   7.205 -0.1465 -0.1347  0.1320
  171SAPS   C2119370   4.500   2.553   7.197 -0.5466 -0.0055  0.6507
  171SAPS   O2219371   4.465   2.466   7.273 -0.2721  0.1852  0.4311
  171SAPS   C2219372   4.579   2.529   7.068 -0.2505 -0.0335  0.0612
  171SAPS   H2R19373   4.574   2.619   7.003 -1.4519 -0.2093 -0.1126
  171SAPS   H2S19374   4.685   2.506   7.091 -0.1863 -0.1803 -0.3658
  171SAPS    C319375   4.298   2.851   7.272 -0.6534  0.0319  0.2239
  171SAPS    HX19376   4.380   2.926   7.267  0.4538 -1.2267 -1.7326
  171SAPS    HY19377   4.234   2.883   7.357  0.8291 -2.9299  2.6676
  171SAPS   O3119378   4.224   2.856   7.146 -0.0378 -0.5882 -0.6077
  171SAPS   C3119379   4.295   2.869   7.037  0.1877  0.1450 -0.0966
  171SAPS   O3219380   4.412   2.901   7.031 -0.3698  0.3450  0.4275
  171SAPS   C3219381   4.207   2.847   6.913  0.0705  0.2392  0.3129
  171SAPS   H2X19382   4.132   2.928   6.909  1.6610  1.7377 -2.3289
  171SAPS   H2Y19383   4.163   2.745   6.922 -1.1597  0.5829 -1.3456
  171SAPS   C2319384   4.532   2.399   6.995 -0.6798 -0.5304  0.0525
  171SAPS   H3R19385   4.545   2.314   7.065 -0.0413 -1.1641 -0.8158
  171SAPS   H3S19386   4.603   2.371   6.915  1.9292 -0.8875  2.3257
  171SAPS   C2419387   4.384   2.390   6.946 -0.3565  0.3882 -0.2773
  171SAPS   H4R19388   4.356   2.468   6.872 -1.7532 -1.2032 -1.5205
  171SAPS   H4S19389   4.323   2.419   7.034  1.1529  0.1294  0.8938
  171SAPS   C2519390   4.350   2.255   6.898  0.6571 -0.1458  0.5656
  171SAPS   H5R19391   4.417   2.177   6.934  0.4436  1.1146  4.0711
  171SAPS   C2619392   4.238   2.239   6.822 -0.2772 -0.6432 -0.0678
  171SAPS   H6R19393   4.213   2.134   6.799  0.3842 -0.5888 -1.0810
  171SAPS   C2719394   4.151   2.347   6.758  0.4475  0.3278 -0.0431
  171SAPS   H7R19395   4.208   2.441   6.741 -1.3893  2.2165  3.1667
  171SAPS   H7S19396   4.077   2.385   6.832  0.5898  1.3931 -0.4300
  171SAPS   C2819397   4.075   2.314   6.628 -0.4942  0.1305 -0.3654
  171SAPS   H8R19398   3.968   2.289   6.635 -0.7950  1.0047 -1.4775
  171SAPS   C2919399   4.133   2.303   6.508  0.1321  0.1481  0.2217
  171SAPS   H9R19400   4.081   2.281   6.414  0.0678 -1.5288  0.6292
  171SAPS  C21019401   4.274   2.332   6.462 -0.4593  0.1819 -0.1740
  171SAPS  H10R19402   4.309   2.253   6.392 -0.0157  0.4606 -0.2744
  171SAPS  H10S19403   4.345   2.342   6.547  0.9616  0.6154 -1.3683
  171SAPS  C21119404   4.282   2.461   6.388 -0.0204  0.6592 -0.1488
  171SAPS  H11R19405   4.273   2.546   6.457  2.6364  0.1711  0.9373
  171SAPS  C21219406   4.302   2.487   6.255 -1.3020  0.2160 -0.5324
  171SAPS  H12R19407   4.293   2.593   6.226  0.1270  0.1362 -1.3783
  171SAPS  C21319408   4.314   2.382   6.146 -0.2259  0.4464 -0.5007
  171SAPS  H13R19409   4.335   2.281   6.185  0.4384  0.2993 -1.2178
  171SAPS  H13S19410   4.404   2.397   6.082 -0.4814 -0.6906 -1.1533
  171SAPS  C21419411   4.183   2.372   6.063  0.1380  0.0504 -0.2652
  171SAPS  H14R19412   4.088   2.362   6.117 -1.3841  0.5381 -2.6765
  171SAPS  C21519413   4.176   2.342   5.934 -0.1270 -0.1594 -0.1277
  171SAPS  H15R19414   4.075   2.351   5.890 -0.5855  2.0559  1.2588
  171SAPS  C21619415   4.293   2.343   5.834  0.1018  0.3293 -0.3237
  171SAPS  H16R19416   4.390   2.338   5.888 -0.0514 -0.6674 -0.1298
  171SAPS  H16S19417   4.282   2.425   5.759 -0.9221 -0.9266 -1.5877
  171SAPS  C21719418   4.286   2.209   5.757  0.5874  0.6137 -0.0878
  171SAPS  H17R19419   4.181   2.186   5.728  0.8694 -0.6521 -0.1976
  171SAPS  H17S19420   4.315   2.124   5.824  2.0662  1.8338  0.8945
  171SAPS  C21819421   4.374   2.220   5.633  0.1438  0.9110  0.3481
  171SAPS  H18R19422   4.455   2.286   5.670  1.1657  1.1248 -2.0953
  171SAPS  H18S19423   4.327   2.264   5.543  0.9376 -0.2812 -0.6879
  171SAPS  C21919424   4.441   2.087   5.596  0.2669  0.0338 -0.0792
  171SAPS  H19R19425   4.369   2.010   5.561  0.0624  1.0473 -2.0162
  171SAPS  H19S19426   4.504   2.051   5.680 -0.4348 -2.4434 -0.5335
  171SAPS  C22019427   4.538   2.107   5.472  1.3619 -0.5473 -0.4045
  171SAPS  H20R19428   4.605   2.193   5.493 -0.1912  0.0142  3.0310
  171SAPS  H20S19429   4.479   2.106   5.379 -2.2652 -0.5866  1.7073
  171SAPS  H20T19430   4.603   2.017   5.465  0.3564 -1.1455 -3.3038
  171SAPS   C3319431   4.290   2.829   6.776  0.2026  0.3659  0.4556
  171SAPS   H3X19432   4.350   2.739   6.802  0.7290  1.1671  2.2066
  171SAPS   H3Y19433   4.361   2.913   6.761  0.6753 -0.1163 -0.0662
  171SAPS   C3419434   4.199   2.804   6.651 -0.6103 -0.2727  0.2215
  171SAPS   H4X19435   4.105   2.864   6.659 -0.6299 -0.4747  1.9296
  171SAPS   H4Y19436   4.176   2.698   6.627 -1.5598  0.2305 -1.2838
  171SAPS   C3519437   4.262   2.852   6.512  0.1834 -0.0929 -0.5311
  171SAPS   H5X19438   4.353   2.788   6.504  0.7924  0.2640  2.3377
  171SAPS   H5Y19439   4.304   2.955   6.524  1.1168 -0.4205 -0.9002
  171SAPS   C3619440   4.179   2.837   6.387 -0.3205 -0.7003 -0.0414
  171SAPS   H6X19441   4.081   2.889   6.391  0.2419  0.3303  0.3902
  171SAPS   H6Y19442   4.171   2.727   6.373  0.7246 -0.7979  0.0968
  171SAPS   C3719443   4.257   2.905   6.271  0.3634  0.8609  0.3570
  171SAPS   H7X19444   4.360   2.862   6.270  0.3345  0.7733 -0.8365
  171SAPS   H7Y19445   4.272   3.015   6.276 -0.4304  0.9214  1.7631
  171SAPS   C3819446   4.194   2.865   6.138  0.5804 -0.8310 -0.6926
  171SAPS   H8X19447   4.096   2.917   6.140  2.1727  2.4430 -1.2932
  171SAPS   H8Y19448   4.180   2.755   6.134  0.1969 -0.7488 -2.1969
  171SAPS   C3919449   4.266   2.918   6.019  0.5315  0.8169 -0.1739
  171SAPS   H9X19450   4.372   2.889   6.028  0.1444 -0.1091  2.1999
  171SAPS   H9Y19451   4.251   3.028   6.012 -0.7215  0.6925  0.1771
  171SAPS  C31019452   4.207   2.864   5.888  0.3829 -0.5369  0.2078
  171SAPS  H10X19453   4.102   2.899   5.873  1.2359  2.1589  0.1114
  171SAPS  H10Y19454   4.211   2.753   5.885 -1.2418 -0.6013 -1.2612
  171SAPS  C31119455   4.293   2.915   5.766  0.4851  0.6274 -0.2319
  171SAPS  H11X19456   4.397   2.877   5.772  1.0047  2.1767  1.2970
  171SAPS  H11Y19457   4.298   3.026   5.776  0.3981  0.6746 -0.6657
  171SAPS  C31219458   4.248   2.879   5.623  0.0335  0.5489 -0.2444
  171SAPS  H12X19459   4.331   2.910   5.555  0.6867  1.8616  1.0921
  171SAPS  H12Y19460   4.168   2.950   5.592 -1.6819 -0.6274  1.2910
  171SAPS  C31319461   4.203   2.728   5.605  0.5912 -1.0815  0.3575
  171SAPS  H13X19462   4.116   2.720   5.674  0.9666  1.6495  1.2803
  171SAPS  H13Y19463   4.288   2.669   5.644 -0.2648 -1.8261  1.1333
  171SAPS  C31419464   4.169   2.705   5.457  0.1416  0.1659  0.2605
  171SAPS  H14X19465   4.261   2.707   5.394  1.0450  0.7026  1.5591
  171SAPS  H14Y19466   4.106   2.784   5.412  0.3538  0.2533  0.1171
  171SAPS  C31519467   4.096   2.572   5.442  0.3205 -0.6786 -0.4354
  171SAPS  H15X19468   4.166   2.496   5.484  0.1597 -0.8563 -0.4887
  171SAPS  H15Y19469   4.076   2.545   5.337  0.0439  0.7503 -0.7614
  171SAPS  C31619470   3.967   2.571   5.524 -0.1673  0.9071  0.1661
  171SAPS  H16X19471   3.915   2.669   5.516  0.8301  1.6351  2.1237
  171SAPS  H16Y19472   3.992   2.558   5.631  0.9182  1.7050  0.0251
  171SAPS  C31719473   3.872   2.450   5.499 -0.1010  0.1415  0.3149
  171SAPS  H17X19474   3.863   2.447   5.388 -0.9717 -1.3958  0.3917
  171SAPS  H17Y19475   3.770   2.475   5.535  0.2253 -0.0349  1.3992
  171SAPS  C31819476   3.919   2.319   5.565  0.4564  0.2136  0.6219
  171SAPS  H18X19477   3.900   2.320   5.675 -0.3971 -0.9483  0.5001
  171SAPS  H18Y19478   4.028   2.303   5.553  0.1248 -1.3128 -0.7236
  171SAPS  H18Z19479   3.861   2.231   5.531  1.6025  0.0348 -0.9830
  172SAPS     N19480   2.631   2.326   7.379  0.4609  1.0661 -0.5672
  172SAPS   HN119481   2.612   2.388   7.461  3.5958  0.8166  0.4641
  172SAPS   HN219482   2.702   2.380   7.325  1.4505  1.7243  1.3140
  172SAPS   HN319483   2.544   2.303   7.326  0.1220 -2.8351  1.3596
  172SAPS   C1219484   2.695   2.197   7.409 -0.3706 -0.3823  0.1491
  172SAPS  H12A19485   2.764   2.184   7.327 -1.5416  1.7943 -1.2606
  172SAPS   C1319486   2.772   2.181   7.542  0.4415 -0.3554  0.0094
  172SAPS  O13A19487   2.760   2.266   7.635 -0.5076  0.0987 -0.4942
  172SAPS  O13B19488   2.820   2.066   7.567  0.1877  0.4881  0.4578
  172SAPS   C1119489   2.591   2.084   7.386  0.2786  0.3909  0.6786
  172SAPS  H11A19490   2.504   2.100   7.453 -1.4362 -0.5557 -1.2094
  172SAPS  H11B19491   2.632   1.987   7.422 -0.8600 -0.1629  0.5317
  172SAPS     P19492   2.417   2.149   7.187  0.2982  0.3046 -0.2752
  172SAPS   O1319493   2.306   2.057   7.217 -0.1982  0.0862 -0.2619
  172SAPS   O1419494   2.409   2.283   7.251  0.7375 -0.4538 -0.2643
  172SAPS   O1219495   2.558   2.090   7.243 -0.0358  0.2874 -0.0916
  172SAPS   O1119496   2.433   2.159   7.036 -0.0303  0.2273 -0.4615
  172SAPS    C119497   2.565   2.184   6.986  0.5617 -0.3902 -0.8913
  172SAPS    HA19498   2.600   2.283   7.023  2.0682 -1.2346  0.0737
  172SAPS    HB19499   2.625   2.095   7.013 -1.2166 -0.9802  1.5236
  172SAPS    C219500   2.572   2.174   6.827  0.4452  0.4913  1.4631
  172SAPS    HS19501   2.494   2.244   6.791 -1.9826 -2.3142  0.8403
  172SAPS   O2119502   2.527   2.045   6.784 -0.0873 -0.1933 -0.5711
  172SAPS   C2119503   2.503   2.041   6.648 -0.0780  0.6141  0.3842
  172SAPS   O2219504   2.536   2.127   6.566 -0.5281 -0.1323 -0.1644
  172SAPS   C2219505   2.430   1.913   6.613 -0.0093 -0.0548  0.4249
  172SAPS   H2R19506   2.511   1.841   6.637  0.3142 -0.0622 -0.6229
  172SAPS   H2S19507   2.345   1.893   6.681 -0.5529 -1.9118 -0.7339
  172SAPS    C319508   2.721   2.208   6.780  0.0712 -0.3111  0.3292
  172SAPS    HX19509   2.741   2.310   6.820  3.0835 -0.9141  0.6240
  172SAPS    HY19510   2.747   2.213   6.672 -0.1181  0.6530  0.3189
  172SAPS   O3119511   2.823   2.127   6.840 -0.2457  0.7037  0.5915
  172SAPS   C3119512   2.865   2.021   6.774 -0.5498 -0.8249 -0.2995
  172SAPS   O3219513   2.831   1.989   6.662 -0.0824 -0.3820 -0.0289
  172SAPS   C3219514   2.956   1.937   6.864  0.4625 -0.0212 -0.2401
  172SAPS   H2X19515   2.937   1.950   6.972 -1.5093  0.7113 -0.6359
  172SAPS   H2Y19516   3.057   1.983   6.864 -0.2433  1.8315  3.1757
  172SAPS   C2319517   2.378   1.912   6.461 -0.3466  0.2026 -0.5835
  172SAPS   H3R19518   2.463   1.955   6.403 -0.2306  0.4482 -0.2300
  172SAPS   H3S19519   2.293   1.983   6.465  1.0794  1.9826 -0.2655
  172SAPS   C2419520   2.337   1.783   6.389  0.0557  0.1857  0.5736
  172SAPS   H4R19521   2.314   1.807   6.283 -1.2049 -0.5522  0.6669
  172SAPS   H4S19522   2.250   1.738   6.441  0.3774 -0.7233  0.3444
  172SAPS   C2519523   2.455   1.687   6.393 -0.1592  0.0666 -0.9164
  172SAPS   H5R19524   2.479   1.645   6.491 -0.5490  0.2216 -0.7521
  172SAPS   C2619525   2.518   1.650   6.283 -0.2164  0.1773 -0.0718
  172SAPS   H6R19526   2.596   1.579   6.315 -2.3006 -1.2215  2.2724
  172SAPS   C2719527   2.489   1.674   6.136 -0.2181  0.6496  0.8909
  172SAPS   H7R19528   2.506   1.782   6.117  2.0812  0.4931  1.7243
  172SAPS   H7S19529   2.384   1.644   6.117  0.3606 -1.7492  1.1270
  172SAPS   C2819530   2.570   1.606   6.034  0.7107  0.5514  0.0457
  172SAPS   H8R19531   2.657   1.547   6.065 -1.1969 -3.1655 -0.9721
  172SAPS   C2919532   2.531   1.601   5.907  0.4000  0.0456 -0.0971
  172SAPS   H9R19533   2.594   1.538   5.844 -0.2720 -2.0935  1.2791
  172SAPS  C21019534   2.400   1.656   5.854  0.0811 -0.2700 -0.1710
  172SAPS  H10R19535   2.345   1.705   5.937  1.1891  1.1964 -0.2509
  172SAPS  H10S19536   2.336   1.573   5.817  1.4502 -0.6752 -1.7956
  172SAPS  C21119537   2.409   1.758   5.740  0.1386 -0.4096 -0.7988
  172SAPS  H11R19538   2.404   1.860   5.780  1.0517 -0.4954 -0.4528
  172SAPS  C21219539   2.417   1.726   5.610  0.6653  1.0561  0.3135
  172SAPS  H12R19540   2.432   1.812   5.542  1.4560  0.0367 -0.8389
  172SAPS  C21319541   2.430   1.592   5.535 -0.1817 -0.0484  0.7174
  172SAPS  H13R19542   2.373   1.591   5.439  0.1302 -2.1742  0.4852
  172SAPS  H13S19543   2.393   1.500   5.586  0.6334 -1.3210 -0.8757
  172SAPS  C21419544   2.578   1.567   5.509 -0.1186 -0.4466  0.8014
  172SAPS  H14R19545   2.642   1.595   5.594  1.1957 -1.6090  0.2250
  172SAPS  C21519546   2.632   1.486   5.419 -0.4242 -0.1283 -0.1197
  172SAPS  H15R19547   2.740   1.490   5.399 -0.5392  2.6152 -0.6592
  172SAPS  C21619548   2.561   1.426   5.300 -0.1641  0.5018 -0.0239
  172SAPS  H16R19549   2.633   1.391   5.224 -3.1305 -3.7179 -1.2235
  172SAPS  H16S19550   2.487   1.493   5.250  1.2354  0.4958 -2.2209
  172SAPS  C21719551   2.491   1.292   5.343  1.2626 -0.3121 -0.0661
  172SAPS  H17R19552   2.436   1.248   5.257 -1.4213 -0.8094  1.8089
  172SAPS  H17S19553   2.409   1.308   5.416  0.3360  2.1386 -1.5174
  172SAPS  C21819554   2.588   1.199   5.403  0.2158 -0.5077  0.1987
  172SAPS  H18R19555   2.631   1.228   5.501 -0.3641  1.0136  0.0270
  172SAPS  H18S19556   2.670   1.168   5.334  1.3321 -0.7496  1.5851
  172SAPS  C21919557   2.522   1.061   5.436 -0.6480  0.2821  0.5076
  172SAPS  H19R19558   2.603   1.000   5.480  0.3655 -0.0978 -1.7291
  172SAPS  H19S19559   2.496   1.008   5.341 -0.5016  0.3121  0.4511
  172SAPS  C22019560   2.407   1.064   5.533  0.1111  0.8199 -1.1494
  172SAPS  H20R19561   2.384   0.957   5.555 -0.6306  1.5582  2.1753
  172SAPS  H20S19562   2.306   1.097   5.500 -1.0493 -1.0335  0.2988
  172SAPS  H20T19563   2.438   1.114   5.627  2.8334 -1.0031 -0.9460
  172SAPS   C3319564   2.965   1.791   6.815  0.0757 -0.3327  0.4944
  172SAPS   H3X19565   3.033   1.724   6.872  0.3128 -1.8489 -1.4504
  172SAPS   H3Y19566   3.012   1.788   6.714  0.6510  1.8739  0.6328
  172SAPS   C3419567   2.828   1.715   6.802 -0.0565  0.1500  0.5594
  172SAPS   H4X19568   2.764   1.770   6.729  1.8493  3.0170  0.8878
  172SAPS   H4Y19569   2.772   1.715   6.898 -1.1492  1.1784 -0.0487
  172SAPS   C3519570   2.852   1.566   6.768 -0.7388 -0.4257 -0.0404
  172SAPS   H5X19571   2.753   1.516   6.776 -1.3515  0.7377 -0.1332
  172SAPS   H5Y19572   2.918   1.527   6.848  1.1791 -1.2939 -1.9313
  172SAPS   C3619573   2.919   1.544   6.626 -0.4294  1.0536 -1.1890
  172SAPS   H6X19574   2.916   1.438   6.593  0.0242  1.5463 -2.9337
  172SAPS   H6Y19575   3.027   1.565   6.639 -0.6811  1.3362  0.6442
  172SAPS   C3719576   2.871   1.631   6.505 -0.1632  0.2245 -0.1195
  172SAPS   H7X19577   2.923   1.729   6.509  2.2950 -0.9266 -1.8661
  172SAPS   H7Y19578   2.761   1.651   6.508 -0.3915 -0.9098 -0.5012
  172SAPS   C3819579   2.904   1.565   6.368  0.0766 -0.1991 -0.5389
  172SAPS   H8X19580   2.828   1.485   6.357  1.3894 -2.0938  2.8239
  172SAPS   H8Y19581   3.006   1.526   6.385  0.0902  0.7313  1.9616
  172SAPS   C3919582   2.896   1.656   6.244 -0.5495  0.0330  0.4279
  172SAPS   H9X19583   2.953   1.751   6.260  0.6570 -0.6443  0.3195
  172SAPS   H9Y19584   2.791   1.685   6.226 -0.3979  0.9025  0.8670
  172SAPS  C31019585   2.949   1.583   6.120 -0.0322  0.6607 -0.6555
  172SAPS  H10X19586   2.901   1.483   6.118  2.1275 -0.5434  2.1576
  172SAPS  H10Y19587   3.056   1.554   6.118 -0.4618 -1.1159  0.6754
  172SAPS  C31119588   2.925   1.656   5.990  0.5860 -0.1943  1.0904
  172SAPS  H11X19589   2.986   1.749   6.002 -0.0491  0.1855  1.3971
  172SAPS  H11Y19590   2.821   1.690   5.976  0.4824 -0.9831 -0.2680
  172SAPS  C31219591   2.948   1.575   5.862 -0.2951 -0.2689  0.2808
  172SAPS  H12X19592   2.881   1.486   5.867  0.6982 -1.1533 -1.3955
  172SAPS  H12Y19593   3.051   1.539   5.847 -0.3477 -0.0809 -0.5504
  172SAPS  C31319594   2.911   1.657   5.742  0.4202 -0.1326 -0.1613
  172SAPS  H13X19595   2.815   1.706   5.771  0.3524  0.1135 -0.7825
  172SAPS  H13Y19596   2.898   1.590   5.654  0.6446 -0.9417  0.4106
  172SAPS  C31419597   3.018   1.755   5.710 -0.1239 -0.9417 -0.1330
  172SAPS  H14X19598   3.108   1.707   5.665  2.5625  2.7306  0.7738
  172SAPS  H14Y19599   3.056   1.805   5.802 -2.1359 -0.4360  0.4651
  172SAPS  C31519600   2.971   1.875   5.622 -0.6303 -0.3002 -0.2658
  172SAPS  H15X19601   3.060   1.941   5.612 -1.0286  0.2063 -0.4863
  172SAPS  H15Y19602   2.894   1.932   5.676  0.6506  0.5555  0.7001
  172SAPS  C31619603   2.919   1.845   5.483  0.2128  0.4616  0.1127
  172SAPS  H16X19604   2.996   1.786   5.429 -0.4973 -0.5375  0.1550
  172SAPS  H16Y19605   2.820   1.794   5.484  0.2455  0.2049 -2.6018
  172SAPS  C31719606   2.898   1.980   5.406 -0.6262  0.1513 -0.3206
  172SAPS  H17X19607   2.992   2.014   5.357  1.1507 -1.6071  1.6039
  172SAPS  H17Y19608   2.874   2.060   5.479 -1.0802  0.6832 -1.0455
  172SAPS  C31819609   2.791   1.976   5.305  0.3568 -0.5500 -0.5173
  172SAPS  H18X19610   2.791   2.074   5.254 -0.7320 -0.6567 -0.7508
  172SAPS  H18Y19611   2.693   1.963   5.357  0.6759  0.8666  0.4808
  172SAPS  H18Z19612   2.797   1.901   5.223  0.5972  1.5158 -2.4974
  173SAPS     N19613   4.326   6.598   2.909 -0.0830  0.6091 -0.1781
  173SAPS   HN119614   4.358   6.563   3.002  0.1753  1.3807  0.0274
  173SAPS   HN219615   4.312   6.511   2.853 -0.7163  1.2446 -1.0341
  173SAPS   HN319616   4.396   6.665   2.872  1.2060 -0.4625  0.2432
  173SAPS   C1219617   4.193   6.658   2.913 -0.5288 -0.3329 -0.6390
  173SAPS  H12A19618   4.211   6.746   2.973 -1.5829  0.9525 -2.1438
  173SAPS   C1319619   4.138   6.716   2.778 -0.5626 -0.1257  0.7745
  173SAPS  O13A19620   4.200   6.700   2.673  0.1214 -0.3868  0.2600
  173SAPS  O13B19621   4.038   6.794   2.784  0.1202  0.3825 -0.3795
  173SAPS   C1119622   4.089   6.559   2.975  0.0293 -0.3281  0.1157
  173SAPS  H11A19623   4.093   6.478   2.899 -0.7766 -1.8345  1.6210
  173SAPS  H11B19624   3.993   6.615   2.967  0.4033  0.5867  1.6949
  173SAPS     P19625   4.007   6.444   3.198  0.5772 -0.1919  0.2297
  173SAPS   O1319626   3.965   6.330   3.113  0.3112  0.6256 -0.1846
  173SAPS   O1419627   4.064   6.407   3.325 -0.0278 -0.1013 -0.2113
  173SAPS   O1219628   4.111   6.521   3.111  0.0821 -0.4195 -0.2029
  173SAPS   O1119629   3.885   6.542   3.215  0.4087 -0.5840  0.0244
  173SAPS    C119630   3.912   6.686   3.243  0.4414 -0.2471 -0.0976
  173SAPS    HA19631   4.000   6.731   3.193  0.9697 -0.8499  0.2879
  173SAPS    HB19632   3.824   6.739   3.200 -1.5663 -2.7993  0.6449
  173SAPS    C219633   3.919   6.724   3.392 -0.0478  0.5680  0.3264
  173SAPS    HS19634   4.000   6.663   3.438 -0.1844  0.7748  0.8492
  173SAPS   O2119635   3.791   6.699   3.461 -0.2785  0.5105 -0.3431
  173SAPS   C2119636   3.811   6.673   3.587 -0.4098 -0.1655 -0.7331
  173SAPS   O2219637   3.921   6.659   3.642 -0.3368  0.6192  0.2818
  173SAPS   C2219638   3.670   6.672   3.659 -0.6526  0.1732 -0.1507
  173SAPS   H2R19639   3.646   6.779   3.679  1.5640  0.7511 -0.3582
  173SAPS   H2S19640   3.602   6.632   3.581 -0.6562  0.3918 -0.2603
  173SAPS    C319641   3.953   6.880   3.412  0.0796 -0.2475  1.3181
  173SAPS    HX19642   3.858   6.928   3.381  1.3710  0.9847 -0.9564
  173SAPS    HY19643   4.021   6.923   3.336 -0.8699 -1.1853 -0.1072
  173SAPS   O3119644   3.969   6.924   3.547 -0.3624  0.2821  0.1144
  173SAPS   C3119645   4.086   6.940   3.600 -0.1867  0.3595  0.0212
  173SAPS   O3219646   4.193   6.932   3.538  0.5405 -0.0426 -0.2635
  173SAPS   C3219647   4.069   6.975   3.745 -0.0024  0.1047  0.2857
  173SAPS   H2X19648   4.004   6.905   3.802  1.4079 -0.5174  1.1820
  173SAPS   H2Y19649   4.023   7.076   3.748  0.0210  0.0918  1.1673
  173SAPS   C2319650   3.673   6.596   3.799  0.5093  0.1490 -0.2042
  173SAPS   H3R19651   3.756   6.626   3.866  0.0715  2.2821 -0.5328
  173SAPS   H3S19652   3.678   6.487   3.777 -2.6011 -0.0925 -0.2285
  173SAPS   C2419653   3.537   6.608   3.881 -0.3436 -0.2195  0.1772
  173SAPS   H4R19654   3.534   6.526   3.956  1.8451  0.2692  0.8857
  173SAPS   H4S19655   3.459   6.595   3.803 -0.5913  3.0994 -0.2648
  173SAPS   C2519656   3.527   6.749   3.938  0.0327  0.2131  0.3939
  173SAPS   H5R19657   3.505   6.834   3.872 -1.3175 -2.2365 -2.5917
  173SAPS   C2619658   3.589   6.779   4.057  0.6250 -1.0644 -0.2357
  173SAPS   H6R19659   3.558   6.876   4.099 -0.6115 -0.8414 -1.5632
  173SAPS   C2719660   3.643   6.685   4.161 -0.8390  0.0797  0.6030
  173SAPS   H7R19661   3.724   6.741   4.211 -0.7078  0.6834 -0.2612
  173SAPS   H7S19662   3.692   6.602   4.105 -0.0068  2.7766 -3.0813
  173SAPS   C2819663   3.543   6.608   4.248 -0.2863 -0.6019  0.2193
  173SAPS   H8R19664   3.464   6.562   4.186 -1.0317  3.0538 -1.8434
  173SAPS   C2919665   3.539   6.587   4.381  0.0768 -0.4014 -0.3746
  173SAPS   H9R19666   3.452   6.545   4.432  0.5226 -0.7137  0.1412
  173SAPS  C21019667   3.642   6.650   4.469 -0.0420 -0.2031  0.0938
  173SAPS  H10R19668   3.692   6.734   4.415  0.4727 -0.6485 -0.1332
  173SAPS  H10S19669   3.716   6.568   4.475  0.5531  0.2319 -1.0252
  173SAPS  C21119670   3.593   6.689   4.605 -0.6269  0.0104 -0.5465
  173SAPS  H11R19671   3.525   6.775   4.602 -0.0728  0.5134  0.6269
  173SAPS  C21219672   3.642   6.648   4.726 -0.2051  0.1096 -1.0963
  173SAPS  H12R19673   3.600   6.699   4.814 -1.8983 -1.0937 -1.1476
  173SAPS  C21319674   3.762   6.552   4.750  0.1123  0.7140 -0.0505
  173SAPS  H13R19675   3.814   6.515   4.660  0.3897  0.2143  0.3149
  173SAPS  H13S19676   3.718   6.464   4.801  2.6323  1.0878  3.0461
  173SAPS  C21419677   3.868   6.609   4.834 -0.0109 -0.2353 -0.0169
  173SAPS  H14R19678   3.894   6.711   4.803 -0.3755  0.0008  0.4455
  173SAPS  C21519679   3.932   6.556   4.934 -0.7074  0.4589 -1.1011
  173SAPS  H15R19680   4.007   6.619   4.985 -0.5231  0.6637 -1.6179
  173SAPS  C21619681   3.920   6.416   4.982  0.0661 -0.3748  0.7255
  173SAPS  H16R19682   4.017   6.387   5.027 -1.1465 -1.7134  2.6375
  173SAPS  H16S19683   3.903   6.344   4.899  2.4128 -1.4081  1.0721
  173SAPS  C21719684   3.817   6.393   5.090  0.7749 -1.0802  0.1373
  173SAPS  H17R19685   3.796   6.286   5.109 -0.3110 -0.3419  3.7937
  173SAPS  H17S19686   3.720   6.446   5.073  1.7228  0.8905  0.5706
  173SAPS  C21819687   3.853   6.449   5.233  0.5402  0.0075 -0.0788
  173SAPS  H18R19688   3.872   6.557   5.218  1.3623 -0.1575 -0.3092
  173SAPS  H18S19689   3.947   6.414   5.282  0.9291 -0.0572 -0.8622
  173SAPS  C21919690   3.728   6.432   5.323 -0.3110 -0.2137 -0.0116
  173SAPS  H19R19691   3.634   6.455   5.269 -1.7880 -1.0722  2.0646
  173SAPS  H19S19692   3.746   6.513   5.396 -0.2418  0.8339 -1.1565
  173SAPS  C22019693   3.730   6.304   5.397 -0.8183  0.1463 -0.1630
  173SAPS  H20R19694   3.813   6.314   5.469 -0.9432  0.8617 -0.1177
  173SAPS  H20S19695   3.737   6.211   5.336 -0.4794 -0.0272  0.1381
  173SAPS  H20T19696   3.634   6.298   5.453 -0.0184 -1.4906  1.1146
  173SAPS   C3319697   4.206   6.970   3.814  0.4317 -0.2429 -0.2257
  173SAPS   H3X19698   4.263   7.065   3.798  2.6014 -1.3707  0.3523
  173SAPS   H3Y19699   4.263   6.879   3.785  1.5039  0.0992  0.7462
  173SAPS   C3419700   4.186   6.953   3.967  0.1635  0.7924  0.5621
  173SAPS   H4X19701   4.114   6.870   3.981  1.5964 -1.1648 -2.5507
  173SAPS   H4Y19702   4.133   7.046   3.996 -3.4002 -0.8260 -0.2667
  173SAPS   C3519703   4.319   6.931   4.038 -0.2946  0.3880 -0.3713
  173SAPS   H5X19704   4.374   7.024   4.015 -1.1348  0.9555 -0.1698
  173SAPS   H5Y19705   4.376   6.851   3.986 -1.3307 -0.9016  0.4026
  173SAPS   C3619706   4.325   6.897   4.188  0.0776  0.1168  0.1994
  173SAPS   H6X19707   4.429   6.862   4.208 -0.4764 -1.2956  0.8084
  173SAPS   H6Y19708   4.249   6.824   4.222 -0.7964  0.3736 -1.1378
  173SAPS   C3719709   4.329   7.031   4.276  0.4843  0.6731  0.0217
  173SAPS   H7X19710   4.231   7.077   4.255  0.3984  0.5118  0.0691
  173SAPS   H7Y19711   4.405   7.098   4.231 -0.4663  1.1748 -0.8561
  173SAPS   C3819712   4.343   6.992   4.427 -0.4230  0.4127  0.4005
  173SAPS   H8X19713   4.437   6.936   4.446 -0.9651  0.4257  3.7624
  173SAPS   H8Y19714   4.262   6.922   4.458  0.9153 -0.6000  1.7367
  173SAPS   C3919715   4.336   7.116   4.519  0.1064  0.2693 -0.4874
  173SAPS   H9X19716   4.242   7.165   4.485 -0.5217 -0.6415 -0.1022
  173SAPS   H9Y19717   4.416   7.189   4.493  1.5382 -0.2792  2.0790
  173SAPS  C31019718   4.353   7.090   4.666 -0.1173  0.1496 -0.3640
  173SAPS  H10X19719   4.449   7.046   4.701 -0.1404  0.1368 -0.3182
  173SAPS  H10Y19720   4.280   7.019   4.709 -0.4041 -0.5137 -1.9026
  173SAPS  C31119721   4.331   7.215   4.764 -0.0056 -0.2427  1.1950
  173SAPS  H11X19722   4.223   7.235   4.779 -0.8034 -0.6772 -2.7064
  173SAPS  H11Y19723   4.371   7.306   4.714 -0.6957 -0.1938  0.7037
  173SAPS  C31219724   4.414   7.212   4.890 -0.2077 -0.0532 -0.0411
  173SAPS  H12X19725   4.514   7.173   4.860  1.1686  2.8038  0.4843
  173SAPS  H12Y19726   4.379   7.127   4.952 -1.2035 -0.0566 -0.5909
  173SAPS  C31319727   4.421   7.345   4.959  0.0053  0.1326 -0.2256
  173SAPS  H13X19728   4.457   7.419   4.885 -2.5405  0.4790 -1.1789
  173SAPS  H13Y19729   4.486   7.333   5.049 -0.4932 -0.5524  0.0535
  173SAPS  C31419730   4.283   7.380   5.002 -0.9686  0.1347  0.2432
  173SAPS  H14X19731   4.237   7.293   5.053 -1.8910  0.8406  0.6434
  173SAPS  H14Y19732   4.223   7.399   4.911  0.1888  0.4828 -0.4766
  173SAPS  C31519733   4.292   7.509   5.086  0.0078  0.7280  0.0205
  173SAPS  H15X19734   4.333   7.596   5.030 -3.0716  0.6908 -2.5716
  173SAPS  H15Y19735   4.361   7.511   5.174  0.7783  0.7607 -0.5786
  173SAPS  C31619736   4.151   7.550   5.129 -0.3482 -0.2749 -0.3100
  173SAPS  H16X19737   4.099   7.471   5.188  2.0821 -1.2138  0.7226
  173SAPS  H16Y19738   4.091   7.586   5.043 -1.7037  0.8586  1.0514
  173SAPS  C31719739   4.151   7.676   5.217  0.5468 -0.2584  0.2791
  173SAPS  H17X19740   4.214   7.746   5.158  0.8901 -0.9966 -0.2386
  173SAPS  H17Y19741   4.207   7.661   5.311  1.4151  2.2385  0.2337
  173SAPS  C31819742   4.008   7.745   5.237  0.2364 -0.7028 -0.4081
  173SAPS  H18X19743   4.020   7.842   5.291  1.7403 -1.0574 -0.0834
  173SAPS  H18Y19744   3.945   7.678   5.299 -0.4338  0.7280  0.5307
  173SAPS  H18Z19745   3.973   7.767   5.134  1.2336  2.8361 -0.1354
  174SAPS     N19746   2.261   3.765   3.107  0.0061  0.4743 -0.3764
  174SAPS   HN119747   2.195   3.775   3.187  0.4376  1.6638 -0.1547
  174SAPS   HN219748   2.360   3.761   3.139 -0.3199 -2.5132  0.5418
  174SAPS   HN319749   2.245   3.848   3.047  0.4484 -0.0415 -1.2200
  174SAPS   C1219750   2.225   3.639   3.041  0.0794 -0.0223  0.4250
  174SAPS  H12A19751   2.248   3.567   3.118  3.8511 -0.9143 -1.3099
  174SAPS   C1319752   2.079   3.627   3.010  0.3577 -0.0788  0.5318
  174SAPS  O13A19753   1.999   3.719   3.043  0.1510 -0.3207 -0.5788
  174SAPS  O13B19754   2.037   3.513   2.962 -0.0422  0.8511 -0.2583
  174SAPS   C1119755   2.317   3.612   2.919  0.3049  0.0521  0.1312
  174SAPS  H11A19756   2.317   3.701   2.852 -1.4106  0.6194  0.8023
  174SAPS  H11B19757   2.283   3.537   2.845 -0.2343 -0.0002  0.4235
  174SAPS     P19758   2.572   3.663   2.969  0.3223 -0.1881  0.2806
  174SAPS   O1319759   2.680   3.593   3.040 -0.4997 -1.0427  0.5199
  174SAPS   O1419760   2.597   3.708   2.832 -0.1593  0.2919  0.2204
  174SAPS   O1219761   2.450   3.568   2.959 -0.4035  0.5346  0.2750
  174SAPS   O1119762   2.523   3.785   3.059  0.2219 -0.1714  0.3398
  174SAPS    C119763   2.602   3.898   3.081  0.2600  0.2217  0.0453
  174SAPS    HA19764   2.700   3.886   3.031 -0.9017  0.0266 -2.3409
  174SAPS    HB19765   2.546   3.992   3.061 -0.4136 -0.2797 -0.4722
  174SAPS    C219766   2.650   3.899   3.230 -0.1637 -0.0344  0.4478
  174SAPS    HS19767   2.709   3.806   3.248 -0.5377 -0.5179 -0.6806
  174SAPS   O2119768   2.534   3.899   3.311  0.6863  0.0343 -0.0611
  174SAPS   C2119769   2.538   3.835   3.423  0.0897 -0.5181 -0.4301
  174SAPS   O2219770   2.627   3.759   3.465 -0.3927 -0.9566  0.0033
  174SAPS   C2219771   2.405   3.854   3.493 -0.2357  0.2771  0.0177
  174SAPS   H2R19772   2.382   3.963   3.496 -1.0903  0.1136 -0.3910
  174SAPS   H2S19773   2.338   3.813   3.414 -0.2166  0.1773  0.0537
  174SAPS    C319774   2.736   4.027   3.264  0.2053  0.1549 -0.3522
  174SAPS    HX19775   2.689   4.125   3.244  0.0343  0.8035  2.7323
  174SAPS    HY19776   2.826   4.021   3.198 -0.6443  1.1477 -1.6522
  174SAPS   O3119777   2.761   4.034   3.402  0.1989 -0.5630 -0.5484
  174SAPS   C3119778   2.853   3.962   3.448 -0.1264 -0.1018  0.2985
  174SAPS   O3219779   2.940   3.902   3.387  0.7667 -0.0850 -0.1718
  174SAPS   C3219780   2.845   3.947   3.594  0.3034  0.5909 -0.8645
  174SAPS   H2X19781   2.946   3.925   3.635 -1.0876 -1.9065  1.5957
  174SAPS   H2Y19782   2.787   3.855   3.617  4.2077 -2.1245 -0.8410
  174SAPS   C2319783   2.402   3.787   3.631 -0.4427  0.8747 -0.3226
  174SAPS   H3R19784   2.484   3.835   3.689  0.9504  0.4000 -1.8059
  174SAPS   H3S19785   2.423   3.678   3.626  0.0538  0.8428  1.6629
  174SAPS   C2419786   2.260   3.793   3.696 -0.7438 -0.1886  0.5277
  174SAPS   H4R19787   2.191   3.724   3.644 -0.3574 -0.5242  0.4544
  174SAPS   H4S19788   2.222   3.897   3.682  0.6839  0.4413  1.1500
  174SAPS   C2519789   2.258   3.744   3.840 -0.5651 -0.3290 -0.1618
  174SAPS   H5R19790   2.232   3.637   3.848 -0.7799 -0.2326  0.4659
  174SAPS   C2619791   2.260   3.824   3.946  0.2716  0.3366  0.9626
  174SAPS   H6R19792   2.247   3.773   4.043  2.3833 -1.5928  0.3049
  174SAPS   C2719793   2.283   3.969   3.958 -0.4124  0.0469  0.1085
  174SAPS   H7R19794   2.267   4.001   4.063 -0.0657  0.6919 -0.0303
  174SAPS   H7S19795   2.197   4.007   3.898 -1.3527  0.4573  1.6734
  174SAPS   C2819796   2.412   4.035   3.911 -0.5728 -0.2873  0.0052
  174SAPS   H8R19797   2.412   4.049   3.802 -1.3335 -0.6696 -0.0571
  174SAPS   C2919798   2.521   4.060   3.985  0.6435  0.4936 -0.1713
  174SAPS   H9R19799   2.601   4.115   3.934  1.8945  0.1103  1.3226
  174SAPS  C21019800   2.535   4.041   4.132  0.1863  0.1121 -0.4933
  174SAPS  H10R19801   2.640   4.068   4.156  0.2648  1.8545 -2.4775
  174SAPS  H10S19802   2.516   3.936   4.163  0.1797  0.1334 -0.4251
  174SAPS  C21119803   2.440   4.113   4.218 -0.0172 -0.0121 -0.1478
  174SAPS  H11R19804   2.361   4.170   4.167 -2.5973 -1.7922  1.6377
  174SAPS  C21219805   2.465   4.127   4.351  0.1229 -0.5915  0.0983
  174SAPS  H12R19806   2.386   4.183   4.404 -0.5408 -2.7090  1.4905
  174SAPS  C21319807   2.571   4.082   4.448 -0.1711  0.2273  0.5807
  174SAPS  H13R19808   2.566   4.154   4.533  1.0642  1.8653 -0.6767
  174SAPS  H13S19809   2.664   4.093   4.389 -0.9870 -0.2376 -0.8417
  174SAPS  C21419810   2.548   3.934   4.482  0.0363 -0.1457  0.3555
  174SAPS  H14R19811   2.541   3.879   4.387  0.3713  2.0051 -0.9788
  174SAPS  C21519812   2.564   3.882   4.611  0.2582 -0.0595 -0.4371
  174SAPS  H15R19813   2.520   3.786   4.640  1.3151 -0.4041  0.0951
  174SAPS  C21619814   2.602   3.959   4.731  0.2005 -0.0451 -0.1198
  174SAPS  H16R19815   2.667   4.047   4.712 -1.9796  1.8153  0.5854
  174SAPS  H16S19816   2.652   3.910   4.818 -1.2469 -1.2657  0.0624
  174SAPS  C21719817   2.467   4.020   4.788  0.0791 -0.0197 -0.4726
  174SAPS  H17R19818   2.413   4.091   4.722  0.3983  0.8435  0.1599
  174SAPS  H17S19819   2.505   4.072   4.879 -1.7893 -0.7353  0.7745
  174SAPS  C21819820   2.364   3.922   4.845 -0.2263 -1.0046  0.2383
  174SAPS  H18R19821   2.421   3.858   4.916 -0.3809  0.3658  1.6680
  174SAPS  H18S19822   2.302   3.863   4.775 -2.4329  2.0154 -0.5798
  174SAPS  C21919823   2.258   3.996   4.925 -0.6664  0.3145 -0.0518
  174SAPS  H19R19824   2.297   4.073   4.995  0.3952  1.1684 -1.5117
  174SAPS  H19S19825   2.225   3.918   4.997  2.2566  0.7099  1.8922
  174SAPS  C22019826   2.144   4.063   4.845  0.0660  0.8364 -0.0387
  174SAPS  H20R19827   2.094   4.124   4.923 -2.0659 -1.6712  0.7121
  174SAPS  H20S19828   2.079   3.979   4.813  0.0217  1.4201 -1.5349
  174SAPS  H20T19829   2.180   4.132   4.766  1.6766  0.3173  0.1885
  174SAPS   C3319830   2.784   4.065   3.673  0.1010  0.1846 -0.3463
  174SAPS   H3X19831   2.775   4.045   3.782 -1.1156  2.0284 -0.0542
  174SAPS   H3Y19832   2.684   4.075   3.626  0.7617 -1.9535 -2.3769
  174SAPS   C3419833   2.858   4.197   3.655 -0.1262  0.4615  0.4116
  174SAPS   H4X19834   2.819   4.256   3.570  2.8765  0.4298 -1.1163
  174SAPS   H4Y19835   2.961   4.184   3.618 -0.0054  0.3335  0.7901
  174SAPS   C3519836   2.842   4.291   3.770  0.2713 -1.1244  0.4539
  174SAPS   H5X19837   2.897   4.250   3.858  3.4868 -0.1105 -0.9077
  174SAPS   H5Y19838   2.733   4.302   3.784  0.2641  1.7854 -1.0607
  174SAPS   C3619839   2.923   4.427   3.752 -0.2106 -0.2694  0.7331
  174SAPS   H6X19840   2.873   4.477   3.666  1.6743 -0.0991 -0.3314
  174SAPS   H6Y19841   3.022   4.389   3.719  0.1061  0.9163  0.2720
  174SAPS   C3719842   2.930   4.520   3.878 -0.2280 -0.9943 -0.2048
  174SAPS   H7X19843   3.018   4.584   3.855 -0.8167 -0.4671 -1.0239
  174SAPS   H7Y19844   2.964   4.459   3.965 -1.4242 -1.0770  0.2184
  174SAPS   C3819845   2.804   4.610   3.897 -0.5707 -0.1461 -0.4234
  174SAPS   H8X19846   2.724   4.560   3.956 -1.7992  1.5784 -0.5505
  174SAPS   H8Y19847   2.755   4.606   3.798  0.9554 -1.3926 -1.1850
  174SAPS   C3919848   2.825   4.752   3.940 -0.4952 -0.4513 -0.1638
  174SAPS   H9X19849   2.724   4.798   3.939 -0.5200 -0.5003 -1.1873
  174SAPS   H9Y19850   2.887   4.807   3.866 -0.2692 -0.9089 -0.3197
  174SAPS  C31019851   2.900   4.766   4.077  0.4651 -0.7624  0.8891
  174SAPS  H10X19852   3.010   4.759   4.060  0.2217 -3.5955 -0.0911
  174SAPS  H10Y19853   2.864   4.684   4.143  0.8865 -0.3635  1.6346
  174SAPS  C31119854   2.879   4.906   4.148 -0.0687 -0.3058 -0.6788
  174SAPS  H11X19855   2.771   4.928   4.167  0.5488  0.9561  1.8167
  174SAPS  H11Y19856   2.928   4.978   4.080  0.1214 -0.7380 -1.0003
  174SAPS  C31219857   2.950   4.902   4.292 -0.0330  0.9172  0.2633
  174SAPS  H12X19858   2.964   5.006   4.328 -0.6020  1.9626 -2.3319
  174SAPS  H12Y19859   3.044   4.845   4.278 -1.0360 -0.5859 -0.5640
  174SAPS  C31319860   2.866   4.820   4.391  0.1260 -0.1222  0.2558
  174SAPS  H13X19861   2.854   4.715   4.354 -0.4129 -0.6667  1.8814
  174SAPS  H13Y19862   2.761   4.857   4.390 -0.0020 -0.4838 -0.3387
  174SAPS  C31419863   2.933   4.806   4.529 -0.3741  0.2431  0.1796
  174SAPS  H14X19864   2.980   4.902   4.561  2.5519 -0.1187 -2.5744
  174SAPS  H14Y19865   3.019   4.737   4.525  1.1276  2.0326 -0.0386
  174SAPS  C31519866   2.835   4.767   4.636 -0.2588  0.2981 -0.1741
  174SAPS  H15X19867   2.786   4.675   4.601 -1.1731 -0.3620  2.5937
  174SAPS  H15Y19868   2.758   4.846   4.649 -0.8338 -0.3050  0.1483
  174SAPS  C31619869   2.917   4.758   4.763 -0.1379  0.3012 -0.9009
  174SAPS  H16X19870   2.923   4.857   4.814  0.2291 -0.3108  0.2948
  174SAPS  H16Y19871   3.024   4.734   4.745  1.2920  3.3063  2.4214
  174SAPS  C31719872   2.857   4.666   4.867 -0.2285 -0.3151 -0.1085
  174SAPS  H17X19873   2.925   4.664   4.956  0.4738 -2.4952 -0.6438
  174SAPS  H17Y19874   2.858   4.562   4.829  1.6161 -0.4548  0.2425
  174SAPS  C31819875   2.714   4.699   4.914 -0.6249 -0.8691 -0.3615
  174SAPS  H18X19876   2.674   4.621   4.983  0.7270  1.8506  3.9165
  174SAPS  H18Y19877   2.656   4.701   4.819  2.5433 -1.5514 -2.4671
  174SAPS  H18Z19878   2.706   4.796   4.967  0.4585 -1.0374  0.1316
  175SAPS     N19879   5.731   5.077   3.081 -0.5399  0.0713 -0.2843
  175SAPS   HN119880   5.713   5.177   3.060  0.0734  0.2151 -0.1562
  175SAPS   HN219881   5.835   5.069   3.089 -0.1063  1.8728 -2.9644
  175SAPS   HN319882   5.691   5.014   3.010 -3.4347  1.2089  0.2114
  175SAPS   C1219883   5.664   5.047   3.216 -0.3627  0.3895  0.6810
  175SAPS  H12A19884   5.562   5.079   3.200 -0.6088 -0.2034  1.0392
  175SAPS   C1319885   5.665   4.898   3.249  0.3770 -0.3445 -0.4062
  175SAPS  O13A19886   5.722   4.813   3.180 -0.0448  0.2894 -0.1599
  175SAPS  O13B19887   5.599   4.864   3.352 -0.3055 -0.0493 -0.7533
  175SAPS   C1119888   5.714   5.137   3.334  0.2516 -0.1109 -0.7908
  175SAPS  H11A19889   5.819   5.118   3.363  0.8524  1.9484 -1.4327
  175SAPS  H11B19890   5.654   5.109   3.424 -0.5027 -0.1925 -1.3117
  175SAPS     P19891   5.582   5.366   3.319 -0.1482 -0.3144 -0.2659
  175SAPS   O1319892   5.630   5.511   3.338 -0.0601  0.4751 -0.0034
  175SAPS   O1419893   5.476   5.333   3.219 -0.2719 -0.0739  0.0405
  175SAPS   O1219894   5.703   5.274   3.291 -0.6205  0.1709 -0.2837
  175SAPS   O1119895   5.538   5.323   3.460  0.4702  0.0574 -0.1792
  175SAPS    C119896   5.404   5.287   3.493  0.3872  0.0557  0.0917
  175SAPS    HA19897   5.351   5.246   3.404  2.9739  1.6433 -2.3503
  175SAPS    HB19898   5.409   5.210   3.573 -0.1803 -2.2242 -1.9075
  175SAPS    C219899   5.327   5.408   3.547  0.0872 -0.7269 -0.0583
  175SAPS    HS19900   5.345   5.483   3.468  1.6751 -0.8268  0.1790
  175SAPS   O2119901   5.370   5.448   3.680 -0.1905 -0.1666  0.4184
  175SAPS   C2119902   5.436   5.554   3.685 -0.0476 -0.3206  0.1415
  175SAPS   O2219903   5.457   5.635   3.596  0.5497  0.9163  0.6621
  175SAPS   C2219904   5.475   5.575   3.829 -0.5191 -0.4886 -0.8877
  175SAPS   H2R19905   5.399   5.634   3.884  0.2260  1.3305 -1.7248
  175SAPS   H2S19906   5.485   5.479   3.885 -1.1742 -0.3093 -0.4569
  175SAPS    C319907   5.168   5.388   3.551  0.7968 -0.6022  0.0987
  175SAPS    HX19908   5.120   5.370   3.452 -0.1948 -3.1009  0.9614
  175SAPS    HY19909   5.122   5.483   3.587 -0.7338 -1.7503  1.2816
  175SAPS   O3119910   5.142   5.293   3.651 -0.4477 -0.3207 -0.9373
  175SAPS   C3119911   5.126   5.174   3.605  0.7672 -0.7850  0.7416
  175SAPS   O3219912   5.114   5.145   3.485  0.0166  0.0115 -0.4090
  175SAPS   C3219913   5.129   5.071   3.712 -0.0321  0.7279 -0.2317
  175SAPS   H2X19914   5.198   4.989   3.683 -0.5748  0.0829  0.2639
  175SAPS   H2Y19915   5.024   5.034   3.715  0.2703 -0.3640 -1.9529
  175SAPS   C2319916   5.607   5.655   3.844 -0.3200  0.2862 -0.7478
  175SAPS   H3R19917   5.579   5.758   3.814  2.1417  1.1985 -0.2041
  175SAPS   H3S19918   5.682   5.613   3.774  1.7010 -0.0499  1.4863
  175SAPS   C2419919   5.680   5.658   3.986  0.6256 -0.1005 -0.1962
  175SAPS   H4R19920   5.732   5.757   3.984 -0.1569  0.3122 -1.2663
  175SAPS   H4S19921   5.749   5.572   3.993  2.2055  1.2188  1.2542
  175SAPS   C2519922   5.576   5.667   4.098 -0.4758  0.1876 -0.5926
  175SAPS   H5R19923   5.475   5.690   4.061  0.3755  1.2903 -2.3629
  175SAPS   C2619924   5.597   5.648   4.233  0.2922 -0.1425 -0.3519
  175SAPS   H6R19925   5.513   5.649   4.304  0.4517  1.2863 -0.1518
  175SAPS   C2719926   5.736   5.622   4.287  0.0681 -0.0405 -0.4594
  175SAPS   H7R19927   5.816   5.615   4.210  0.2503 -1.4007 -0.1725
  175SAPS   H7S19928   5.742   5.525   4.341  1.2534  0.3075  0.0580
  175SAPS   C2819929   5.771   5.724   4.387 -0.0737 -0.3937  0.6489
  175SAPS   H8R19930   5.781   5.824   4.341 -0.2451 -0.0399  1.3762
  175SAPS   C2919931   5.805   5.719   4.519  0.5134 -0.2852  0.0414
  175SAPS   H9R19932   5.828   5.815   4.567 -1.7104 -0.3529  1.3694
  175SAPS  C21019933   5.810   5.595   4.607 -0.3128 -0.0552  0.3899
  175SAPS  H10R19934   5.761   5.511   4.552 -2.3188  2.3459 -1.7860
  175SAPS  H10S19935   5.758   5.609   4.704 -0.8614  1.9601 -0.1501
  175SAPS  C21119936   5.955   5.555   4.622 -0.4259  0.2084  0.5543
  175SAPS  H11R19937   5.998   5.526   4.525 -0.5251  3.5269 -0.6110
  175SAPS  C21219938   6.042   5.566   4.721 -0.1931 -0.4568 -0.6377
  175SAPS  H12R19939   6.145   5.536   4.698 -0.1985 -1.7808  0.8987
  175SAPS  C21319940   6.016   5.632   4.856  0.0163 -0.2282 -0.1168
  175SAPS  H13R19941   5.955   5.724   4.844  2.1911  1.0639 -1.9707
  175SAPS  H13S19942   6.113   5.657   4.903  0.9115 -1.2948 -1.3371
  175SAPS  C21419943   5.947   5.530   4.952 -0.2222  1.3516  0.6060
  175SAPS  H14R19944   5.839   5.513   4.939  0.0948  0.9182 -1.9437
  175SAPS  C21519945   6.010   5.469   5.059  0.1605 -0.4116 -0.5770
  175SAPS  H15R19946   5.951   5.396   5.118 -1.7791  0.2386 -1.6087
  175SAPS  C21619947   6.156   5.486   5.108  0.8842  0.9113 -0.2815
  175SAPS  H16R19948   6.195   5.581   5.065  0.2213  2.0572  1.5207
  175SAPS  H16S19949   6.220   5.404   5.069  1.2719  1.3410 -0.5581
  175SAPS  C21719950   6.148   5.484   5.267  0.7111 -0.1288 -0.1764
  175SAPS  H17R19951   6.067   5.546   5.312  2.4933  2.1837  0.0479
  175SAPS  H17S19952   6.246   5.520   5.306  0.8871  0.6045 -1.2388
  175SAPS  C21819953   6.122   5.342   5.324  0.3157  0.5309 -0.2836
  175SAPS  H18R19954   6.034   5.293   5.276  1.8780 -0.3765 -2.3813
  175SAPS  H18S19955   6.104   5.350   5.433 -0.4258  0.0526 -0.3636
  175SAPS  C21919956   6.245   5.245   5.305  0.2084 -0.3238 -0.1052
  175SAPS  H19R19957   6.342   5.292   5.330  0.5108 -0.7155 -0.5432
  175SAPS  H19S19958   6.247   5.215   5.198 -0.3196  1.8882 -0.8041
  175SAPS  C22019959   6.237   5.119   5.391 -0.3178 -0.9598  0.5679
  175SAPS  H20R19960   6.327   5.055   5.402  0.4895  0.4030  2.4359
  175SAPS  H20S19961   6.147   5.062   5.359 -2.0035  2.6552 -1.8433
  175SAPS  H20T19962   6.219   5.160   5.492 -1.5436  0.5805 -0.2283
  175SAPS   C3319963   5.158   5.118   3.852  0.1517 -0.3687  0.7727
  175SAPS   H3X19964   5.116   5.038   3.917 -2.4061 -0.0786 -0.3795
  175SAPS   H3Y19965   5.100   5.211   3.871 -0.1354 -0.0078 -1.5268
  175SAPS   C3419966   5.309   5.142   3.861  1.1631  0.0446  0.0008
  175SAPS   H4X19967   5.344   5.220   3.789  0.3410 -0.2519 -0.7392
  175SAPS   H4Y19968   5.372   5.056   3.831 -0.1553 -0.7570 -0.5358
  175SAPS   C3519969   5.355   5.189   4.003  0.1503 -0.2840  0.0306
  175SAPS   H5X19970   5.319   5.124   4.086 -0.0911 -0.3203 -0.1017
  175SAPS   H5Y19971   5.301   5.285   4.020 -0.7544 -0.8821  0.6181
  175SAPS   C3619972   5.503   5.224   4.012  0.2183 -0.0940  0.0342
  175SAPS   H6X19973   5.532   5.286   3.925  0.5851  0.4056  0.5023
  175SAPS   H6Y19974   5.546   5.121   4.009 -3.1375 -1.6609  0.7118
  175SAPS   C3719975   5.529   5.306   4.141  0.2637  0.2819  0.2300
  175SAPS   H7X19976   5.476   5.404   4.132  1.3274  0.7202 -1.5999
  175SAPS   H7Y19977   5.631   5.345   4.158  0.0887  0.0474  2.0880
  175SAPS   C3819978   5.499   5.227   4.269  0.0265  0.1893  0.4485
  175SAPS   H8X19979   5.545   5.127   4.250 -2.4831 -0.3675 -3.8891
  175SAPS   H8Y19980   5.392   5.206   4.291  0.4987 -0.1391  2.7400
  175SAPS   C3919981   5.542   5.308   4.391 -0.7138 -0.2171 -0.1380
  175SAPS   H9X19982   5.497   5.410   4.390  1.1639  0.6967  1.2333
  175SAPS   H9Y19983   5.653   5.317   4.382 -0.5803 -2.4133 -1.1725
  175SAPS  C31019984   5.509   5.236   4.527 -0.4867 -0.4528 -0.2450
  175SAPS  H10X19985   5.563   5.139   4.526 -0.7062 -0.5709 -1.1424
  175SAPS  H10Y19986   5.399   5.219   4.534 -0.6116 -0.0400 -1.0763
  175SAPS  C31119987   5.572   5.299   4.650  0.1561 -0.5519 -0.2851
  175SAPS  H11X19988   5.523   5.393   4.682 -1.9931 -1.4211 -0.8791
  175SAPS  H11Y19989   5.680   5.315   4.625 -0.5420  0.0626 -3.2780
  175SAPS  C31219990   5.557   5.206   4.769 -0.5450 -0.0234  0.4379
  175SAPS  H12X19991   5.619   5.116   4.751 -0.5350 -0.7779  3.5784
  175SAPS  H12Y19992   5.447   5.188   4.764 -0.3942 -0.6235 -1.4723
  175SAPS  C31319993   5.595   5.269   4.903 -0.5873  0.5523  0.9893
  175SAPS  H13X19994   5.553   5.372   4.898  1.0278  1.1887 -1.2288
  175SAPS  H13Y19995   5.704   5.286   4.892 -0.4185 -1.2232 -0.5281
  175SAPS  C31419996   5.548   5.195   5.030  0.2161 -0.6855  0.1224
  175SAPS  H14X19997   5.547   5.086   5.010 -1.8957 -0.7565  0.3474
  175SAPS  H14Y19998   5.445   5.224   5.062  0.4421  0.8419 -0.4632
  175SAPS  C31519999   5.642   5.239   5.147  0.4157  0.9059  0.2314
  175SAPS  H15X20000   5.745   5.207   5.122 -0.5900 -1.1359 -1.5833
  175SAPS  H15Y20001   5.606   5.185   5.237  0.2942 -0.7906 -0.7989
  175SAPS  C31620002   5.632   5.392   5.177  0.5180  0.0392  0.0706
  175SAPS  H16X20003   5.524   5.416   5.185  0.9565  2.2343  0.0481
  175SAPS  H16Y20004   5.665   5.468   5.103 -0.9360  1.4059  0.7625
  175SAPS  C31720005   5.686   5.439   5.304 -0.2889  0.1208  0.7905
  175SAPS  H17X20006   5.796   5.432   5.288 -0.4266 -1.3337  0.3791
  175SAPS  H17Y20007   5.665   5.366   5.385  0.7182  0.7812  1.6837
  175SAPS  C31820008   5.657   5.581   5.343  0.4508 -0.1741  0.2945
  175SAPS  H18X20009   5.554   5.596   5.382  0.4089  5.0496 -1.1485
  175SAPS  H18Y20010   5.666   5.640   5.249  0.5651 -1.2182 -0.3691
  175SAPS  H18Z20011   5.730   5.627   5.413  0.3834 -0.0679  0.2948
  176SAPS     N20012   6.123   2.247   2.659 -0.0819 -0.4214 -0.0214
  176SAPS   HN120013   6.216   2.289   2.638 -1.6065  3.1171 -0.4269
  176SAPS   HN220014   6.133   2.149   2.692  0.7901 -0.9269 -1.6702
  176SAPS   HN320015   6.074   2.253   2.567 -0.7339 -3.7679 -0.0489
  176SAPS   C1220016   6.054   2.337   2.762  0.2668  0.8011 -0.7249
  176SAPS  H12A20017   6.039   2.435   2.720  1.7694  1.2036 -0.3734
  176SAPS   C1320018   5.904   2.293   2.801 -0.4326  0.4738 -0.3830
  176SAPS  O13A20019   5.848   2.214   2.720 -0.0596  0.2399  0.3387
  176SAPS  O13B20020   5.842   2.375   2.868  0.0670 -0.4654 -0.1200
  176SAPS   C1120021   6.137   2.345   2.898  0.1048 -0.6959  0.2283
  176SAPS  H11A20022   6.106   2.254   2.954  0.0385 -1.0576 -0.3943
  176SAPS  H11B20023   6.098   2.439   2.941  0.0432  0.7839 -2.8289
  176SAPS     P20024   6.358   2.422   2.996 -0.0119 -0.5573  0.4523
  176SAPS   O1320025   6.445   2.527   2.931 -0.0794  0.4855 -0.2220
  176SAPS   O1420026   6.272   2.469   3.115 -0.1546 -0.1825  0.2480
  176SAPS   O1220027   6.279   2.347   2.882 -0.1992 -0.5493 -0.0447
  176SAPS   O1120028   6.456   2.307   3.042  0.0897  0.4852 -0.3627
  176SAPS    C120029   6.409   2.179   3.073 -0.0717 -0.4504 -0.1684
  176SAPS    HA20030   6.301   2.186   3.099  0.0606 -1.4612  0.7142
  176SAPS    HB20031   6.430   2.107   2.991  0.7691 -0.1076 -0.2640
  176SAPS    C220032   6.484   2.122   3.195 -0.0794 -0.3431  0.3409
  176SAPS    HS20033   6.423   2.033   3.220 -0.6375 -0.3870 -1.0852
  176SAPS   O2120034   6.487   2.214   3.304  0.0267 -0.2215  0.2643
  176SAPS   C2120035   6.368   2.252   3.349 -0.0442  1.0680 -0.1266
  176SAPS   O2220036   6.265   2.187   3.340  0.6205  0.0022  0.9666
  176SAPS   C2220037   6.393   2.375   3.436  0.4171 -0.1566  0.4297
  176SAPS   H2R20038   6.497   2.411   3.424  0.3587 -0.6416 -1.8984
  176SAPS   H2S20039   6.326   2.462   3.419  2.0446  0.8892 -0.9492
  176SAPS    C320040   6.632   2.090   3.155  0.0980  1.2608 -0.9066
  176SAPS    HX20041   6.683   2.188   3.145 -0.7651  1.8259 -0.0049
  176SAPS    HY20042   6.641   2.041   3.056 -0.0235 -0.2883 -0.1693
  176SAPS   O3120043   6.700   2.008   3.260 -0.0906  0.6310 -0.7231
  176SAPS   C3120044   6.670   1.879   3.246 -0.3940 -0.2501 -0.4784
  176SAPS   O3220045   6.595   1.836   3.154 -0.5687  0.2375 -0.4933
  176SAPS   C3220046   6.726   1.796   3.368 -0.5364 -0.3786  0.6382
  176SAPS   H2X20047   6.836   1.796   3.354 -0.6372  2.0024 -0.8508
  176SAPS   H2Y20048   6.674   1.699   3.361 -3.3082  1.0813 -0.9752
  176SAPS   C2320049   6.374   2.336   3.587  0.0262 -0.5135 -0.4848
  176SAPS   H3R20050   6.465   2.281   3.619 -1.0955 -1.7027  0.7994
  176SAPS   H3S20051   6.291   2.262   3.590 -1.1784  0.8066  2.1586
  176SAPS   C2420052   6.353   2.450   3.689 -0.1847 -0.1336 -0.4912
  176SAPS   H4R20053   6.377   2.401   3.786  0.3894 -0.3362 -0.7306
  176SAPS   H4S20054   6.245   2.477   3.688 -0.5609 -1.4726  0.5775
  176SAPS   C2520055   6.419   2.583   3.660 -0.2642 -0.3787  0.3416
  176SAPS   H5R20056   6.377   2.634   3.572  0.3580  1.5982  1.1409
  176SAPS   C2620057   6.515   2.655   3.728  0.2539 -0.3290  1.0930
  176SAPS   H6R20058   6.556   2.748   3.687  2.4066 -2.6057 -2.4195
  176SAPS   C2720059   6.576   2.599   3.853  0.2119  0.8922  0.5392
  176SAPS   H7R20060   6.684   2.623   3.855  0.4454  0.0801 -0.9113
  176SAPS   H7S20061   6.565   2.488   3.852  0.6562  0.8487 -0.4744
  176SAPS   C2820062   6.519   2.629   3.976  0.7546 -0.0593 -0.6004
  176SAPS   H8R20063   6.414   2.598   3.991  1.1582 -2.4667 -2.1479
  176SAPS   C2920064   6.584   2.671   4.083 -0.2482 -0.1932 -0.2208
  176SAPS   H9R20065   6.526   2.670   4.176 -1.8715 -1.3100 -1.1920
  176SAPS  C21020066   6.732   2.712   4.100 -0.6287 -0.3942 -0.9123
  176SAPS  H10R20067   6.800   2.663   4.028  2.6383 -1.1940  2.4016
  176SAPS  H10S20068   6.761   2.670   4.199 -1.0229 -0.7706 -0.9536
  176SAPS  C21120069   6.755   2.864   4.109 -0.9980  0.2315 -0.0664
  176SAPS  H11R20070   6.698   2.919   4.033 -0.1345  0.6175 -0.4424
  176SAPS  C21220071   6.821   2.936   4.199  0.7572 -0.0320 -0.0007
  176SAPS  H12R20072   6.816   3.046   4.197  1.2671 -0.0130 -0.5852
  176SAPS  C21320073   6.900   2.872   4.308 -0.2759  0.6282  0.0516
  176SAPS  H13R20074   6.976   2.809   4.257 -0.7056 -0.5952  0.8743
  176SAPS  H13S20075   6.835   2.797   4.358  0.1026 -0.7023 -1.3628
  176SAPS  C21420076   6.965   2.978   4.402 -0.7961  0.4699  0.1982
  176SAPS  H14R20077   6.917   3.077   4.410 -1.1242  0.2563  1.1018
  176SAPS  C21520078   7.064   2.951   4.494  0.0929 -0.5451  0.1433
  176SAPS  H15R20079   7.092   3.038   4.554 -0.6674  1.0759 -1.7591
  176SAPS  C21620080   7.136   2.823   4.503  1.0140 -0.6876 -0.6822
  176SAPS  H16R20081   7.245   2.843   4.510  0.5868  3.2271 -2.7266
  176SAPS  H16S20082   7.127   2.767   4.407  0.5308 -1.4999 -0.1792
  176SAPS  C21720083   7.086   2.746   4.627  0.0137  0.3381 -0.3972
  176SAPS  H17R20084   7.141   2.649   4.635 -1.8076 -0.7950 -0.9572
  176SAPS  H17S20085   6.978   2.720   4.617  0.5995 -2.0156 -1.3820
  176SAPS  C21820086   7.111   2.824   4.753 -0.1077  0.0523 -1.0722
  176SAPS  H18R20087   7.050   2.914   4.776 -1.9651 -1.4479  0.1760
  176SAPS  H18S20088   7.208   2.877   4.746 -0.6498  1.1907 -0.2140
  176SAPS  C21920089   7.128   2.747   4.881 -0.0399  0.0112 -0.1559
  176SAPS  H19R20090   7.202   2.667   4.855  0.6568  0.8367 -0.7825
  176SAPS  H19S20091   7.029   2.712   4.916  0.2140  1.3323  2.0836
  176SAPS  C22020092   7.183   2.837   4.993  0.0867 -0.1430 -0.0833
  176SAPS  H20R20093   7.285   2.875   4.970  1.0245 -2.2229  0.4634
  176SAPS  H20S20094   7.190   2.787   5.091  3.4176  2.8782  1.4499
  176SAPS  H20T20095   7.109   2.918   5.010 -1.2076 -1.2034 -0.5031
  176SAPS   C3320096   6.702   1.858   3.509 -0.9551 -0.2174  0.6056
  176SAPS   H3X20097   6.703   1.968   3.501 -0.6208 -0.1573  1.3247
  176SAPS   H3Y20098   6.790   1.824   3.569 -0.2989  0.1537 -0.1419
  176SAPS   C3420099   6.571   1.813   3.578  0.2154 -0.1401  0.4146
  176SAPS   H4X20100   6.557   1.705   3.557 -0.2962  0.0823 -0.4530
  176SAPS   H4Y20101   6.489   1.870   3.530  1.0591 -0.5746 -1.6246
  176SAPS   C3520102   6.576   1.835   3.727 -0.2965 -0.2047 -0.5670
  176SAPS   H5X20103   6.588   1.944   3.749  1.7327 -0.4234 -0.3865
  176SAPS   H5Y20104   6.666   1.786   3.769 -0.3818 -1.6032 -1.9270
  176SAPS   C3620105   6.459   1.790   3.809 -0.1080 -0.4527  0.7928
  176SAPS   H6X20106   6.451   1.681   3.789  1.2424 -0.3682 -0.3642
  176SAPS   H6Y20107   6.377   1.851   3.765  0.7424 -0.7628 -1.3515
  176SAPS   C3720108   6.470   1.820   3.961 -0.0605 -0.1730  0.4370
  176SAPS   H7X20109   6.447   1.927   3.979 -0.7635 -0.4025  0.9505
  176SAPS   H7Y20110   6.577   1.806   3.990  0.0371 -0.6847 -0.1530
  176SAPS   C3820111   6.369   1.737   4.049  0.5024 -0.1257 -1.1343
  176SAPS   H8X20112   6.401   1.631   4.058  0.2296 -0.1100  0.1742
  176SAPS   H8Y20113   6.270   1.742   3.999  1.0827  2.1692 -2.2229
  176SAPS   C3920114   6.348   1.796   4.187 -0.8255 -0.2073 -0.3569
  176SAPS   H9X20115   6.247   1.778   4.230 -0.0641  3.0699  3.4365
  176SAPS   H9Y20116   6.354   1.906   4.168  0.1476 -0.4480 -1.5348
  176SAPS  C31020117   6.449   1.765   4.295  0.4404 -0.1565 -0.2868
  176SAPS  H10X20118   6.553   1.759   4.256  0.6728  1.0358  0.1234
  176SAPS  H10Y20119   6.421   1.668   4.342  0.6997 -0.1379 -0.0899
  176SAPS  C31120120   6.450   1.881   4.407  0.1382  0.0336  0.0317
  176SAPS  H11X20121   6.430   1.983   4.367 -1.7304 -0.9423 -1.7133
  176SAPS  H11Y20122   6.550   1.878   4.454  0.8667 -0.9108 -1.4984
  176SAPS  C31220123   6.348   1.851   4.524  0.0970 -0.3512 -0.1337
  176SAPS  H12X20124   6.371   1.747   4.556  2.2320 -0.0998 -0.6908
  176SAPS  H12Y20125   6.242   1.845   4.490  0.3947  1.0387 -1.4213
  176SAPS  C31320126   6.360   1.954   4.645 -0.0173  0.6022 -0.1908
  176SAPS  H13X20127   6.325   2.055   4.615 -0.0994  0.6861  0.1841
  176SAPS  H13Y20128   6.467   1.975   4.670 -0.6239  0.9042  2.3703
  176SAPS  C31420129   6.290   1.908   4.766  0.0756 -0.3094  0.2954
  176SAPS  H14X20130   6.198   1.851   4.741  0.1322 -0.5237  0.5690
  176SAPS  H14Y20131   6.268   2.002   4.820  0.3870  0.2363 -0.5148
  176SAPS  C31520132   6.370   1.821   4.864 -0.6051  0.2918 -0.2905
  176SAPS  H15X20133   6.453   1.883   4.904 -1.1465  0.4986  0.5393
  176SAPS  H15Y20134   6.406   1.728   4.815  0.0308  0.8706 -0.9418
  176SAPS  C31620135   6.295   1.795   4.995 -0.0065 -0.0673 -0.6873
  176SAPS  H16X20136   6.201   1.742   4.972 -0.0079 -1.0656  1.4138
  176SAPS  H16Y20137   6.272   1.888   5.050  1.7395  1.1460 -1.8671
  176SAPS  C31720138   6.375   1.696   5.083 -0.2314 -0.2064 -0.0165
  176SAPS  H17X20139   6.463   1.751   5.122 -0.6920 -0.3756  1.3149
  176SAPS  H17Y20140   6.407   1.610   5.021 -0.8956  0.3132 -1.1154
  176SAPS  C31820141   6.286   1.648   5.201 -0.5920  0.0980 -0.3936
  176SAPS  H18X20142   6.266   1.729   5.274 -2.2554 -0.9587  0.3789
  176SAPS  H18Y20143   6.347   1.576   5.261  1.3436  0.7162 -1.5234
  176SAPS  H18Z20144   6.195   1.606   5.154 -1.1817  1.3599 -0.4031
  177SAPS     N20145   6.524   5.244   3.085 -0.2356  0.3673  0.2536
  177SAPS   HN120146   6.529   5.348   3.089 -2.1793  0.5462 -0.6483
  177SAPS   HN220147   6.563   5.197   3.170  0.3299  0.5763  0.1139
  177SAPS   HN320148   6.581   5.218   3.002  1.0465  0.0381  1.2107
  177SAPS   C1220149   6.383   5.197   3.061  0.0275 -0.9663  0.2343
  177SAPS  H12A20150   6.359   5.246   2.967  2.0176  2.0185  1.1279
  177SAPS   C1320151   6.377   5.040   3.059 -0.4525 -1.3051 -0.3835
  177SAPS  O13A20152   6.479   4.973   3.044 -0.6645  0.3287  0.2825
  177SAPS  O13B20153   6.263   4.988   3.061 -0.5157  0.3374 -0.4702
  177SAPS   C1120154   6.289   5.241   3.180 -0.6772  0.3699  0.5274
  177SAPS  H11A20155   6.313   5.174   3.266 -1.4019  0.8522  1.1132
  177SAPS  H11B20156   6.183   5.219   3.158 -1.1422  2.5171  0.4190
  177SAPS     P20157   6.253   5.414   3.364 -0.5015  0.1158  0.2213
  177SAPS   O1320158   6.335   5.348   3.469  0.1219 -0.8170  0.5820
  177SAPS   O1420159   6.230   5.561   3.374  0.6070  0.0083 -0.1897
  177SAPS   O1220160   6.306   5.377   3.221 -0.6651  0.5348 -0.1351
  177SAPS   O1120161   6.122   5.328   3.349  0.1582  0.3787 -0.5684
  177SAPS    C120162   6.060   5.267   3.465  0.2579 -0.4507  0.2301
  177SAPS    HA20163   6.016   5.167   3.446  0.1537 -0.1151 -1.4202
  177SAPS    HB20164   6.127   5.247   3.552 -4.8990 -4.8067  3.8963
  177SAPS    C220165   5.941   5.354   3.511 -0.2785 -0.5952 -0.9937
  177SAPS    HS20166   5.874   5.371   3.424 -2.0463  0.3432  0.4767
  177SAPS   O2120167   5.997   5.478   3.549 -0.5172 -0.1766 -0.3052
  177SAPS   C2120168   5.923   5.587   3.560  0.2176 -0.3625  0.9310
  177SAPS   O2220169   5.799   5.584   3.541  0.4747  0.4271  0.1344
  177SAPS   C2220170   6.006   5.702   3.610  0.1673 -0.2443 -0.0095
  177SAPS   H2R20171   6.110   5.721   3.576  1.3686 -1.5914  2.6453
  177SAPS   H2S20172   5.956   5.794   3.571 -0.4607 -0.8290 -0.6095
  177SAPS    C320173   5.848   5.290   3.617 -0.1255  0.3377 -0.6905
  177SAPS    HX20174   5.785   5.210   3.574  0.1368 -0.1601 -0.1601
  177SAPS    HY20175   5.787   5.367   3.668 -0.8188 -0.0950 -0.8636
  177SAPS   O3120176   5.932   5.230   3.724  0.0679  0.3359 -0.2233
  177SAPS   C3120177   5.900   5.105   3.762  0.0220  0.1636  0.2869
  177SAPS   O3220178   5.787   5.057   3.756  0.3887  0.2184 -0.0428
  177SAPS   C3220179   6.039   5.042   3.807  1.2345 -0.4473  0.7866
  177SAPS   H2X20180   6.120   5.107   3.770  1.6008 -0.7924  0.9814
  177SAPS   H2Y20181   6.050   4.943   3.758 -1.8252 -0.1040 -0.8433
  177SAPS   C2320182   5.989   5.699   3.765  0.7459  0.3603 -0.3068
  177SAPS   H3R20183   5.888   5.675   3.805  0.8112  3.2747  1.9534
  177SAPS   H3S20184   6.013   5.804   3.791 -0.6798  0.7725 -0.5496
  177SAPS   C2420185   6.098   5.616   3.841 -0.3189 -0.0919  0.2411
  177SAPS   H4R20186   6.194   5.653   3.800 -0.9232 -0.5423 -1.6574
  177SAPS   H4S20187   6.087   5.513   3.801 -2.8348 -0.1933  0.9967
  177SAPS   C2520188   6.091   5.597   3.985  0.1914  0.2221  0.6247
  177SAPS   H5R20189   6.070   5.491   4.007  1.1148 -0.5262 -1.7646
  177SAPS   C2620190   6.109   5.691   4.078 -0.0034  0.1841 -0.4456
  177SAPS   H6R20191   6.103   5.647   4.178 -0.6023  2.3685  0.5265
  177SAPS   C2720192   6.139   5.834   4.052 -0.5445 -0.4393 -0.2386
  177SAPS   H7R20193   6.146   5.861   3.945  3.4830  0.6997  0.1395
  177SAPS   H7S20194   6.246   5.846   4.080 -0.0486  0.8643 -2.4400
  177SAPS   C2820195   6.049   5.939   4.119 -0.2559  0.2122  0.4164
  177SAPS   H8R20196   5.976   5.973   4.044 -0.7112 -0.5956  0.4809
  177SAPS   C2920197   6.040   5.976   4.253 -0.2998  0.7895  0.1714
  177SAPS   H9R20198   5.973   6.056   4.287  0.8451  1.1685  1.6912
  177SAPS  C21020199   6.114   5.920   4.370 -0.2730  0.1013 -0.5906
  177SAPS  H10R20200   6.188   5.843   4.339 -0.6859 -0.1169 -1.0464
  177SAPS  H10S20201   6.040   5.872   4.437  1.2643 -1.2364  0.2308
  177SAPS  C21120202   6.191   6.023   4.449  0.4234 -0.2227 -0.9654
  177SAPS  H11R20203   6.251   6.089   4.384  2.4255 -0.1928  0.7849
  177SAPS  C21220204   6.177   6.069   4.578  0.4969 -0.2720 -0.2303
  177SAPS  H12R20205   6.244   6.148   4.613 -1.1694  1.6746 -1.2630
  177SAPS  C21320206   6.066   6.019   4.673 -0.5627 -1.0229 -0.5922
  177SAPS  H13R20207   6.104   5.926   4.720  0.0860  0.5262  2.1114
  177SAPS  H13S20208   5.970   5.995   4.621 -0.1553 -0.8066 -1.4671
  177SAPS  C21420209   6.043   6.099   4.798 -1.1574 -0.7029  0.3449
  177SAPS  H14R20210   6.128   6.133   4.859 -1.2900  1.8474 -0.7965
  177SAPS  C21520211   5.925   6.119   4.853 -0.3859 -0.7781  0.2286
  177SAPS  H15R20212   5.918   6.184   4.942 -0.7775  0.7317 -0.8757
  177SAPS  C21620213   5.790   6.060   4.817 -0.9156 -0.0557 -0.2652
  177SAPS  H16R20214   5.753   6.001   4.903  1.0438  1.4176  1.6861
  177SAPS  H16S20215   5.795   5.988   4.732 -0.5738  0.7915 -0.9779
  177SAPS  C21720216   5.691   6.169   4.759  0.2928 -0.2586 -0.1769
  177SAPS  H17R20217   5.676   6.254   4.829  0.6035 -0.2639 -0.1023
  177SAPS  H17S20218   5.595   6.114   4.758 -2.0362  3.4831 -1.3657
  177SAPS  C21820219   5.714   6.222   4.619  1.0087  0.0700  0.9010
  177SAPS  H18R20220   5.819   6.255   4.605  0.8893 -0.5184 -1.8023
  177SAPS  H18S20221   5.650   6.312   4.605 -3.0183 -2.5638  0.8150
  177SAPS  C21920222   5.660   6.127   4.517 -0.1905  0.1797 -0.0590
  177SAPS  H19R20223   5.560   6.083   4.539  0.0556 -1.4013 -1.8637
  177SAPS  H19S20224   5.723   6.036   4.526  0.2718  0.5193  0.1461
  177SAPS  C22020225   5.674   6.184   4.376  0.7301 -0.1806 -0.3103
  177SAPS  H20R20226   5.778   6.223   4.368  0.9195 -0.5289  0.4037
  177SAPS  H20S20227   5.604   6.267   4.350  1.8549  0.7273 -0.5489
  177SAPS  H20T20228   5.670   6.101   4.303 -0.3656  0.3526 -0.8857
  177SAPS   C3320229   6.049   5.007   3.956 -0.0013 -0.4056  0.2277
  177SAPS   H3X20230   6.132   4.934   3.967 -1.9729 -2.9272 -0.7432
  177SAPS   H3Y20231   5.957   4.967   4.003 -0.6935  1.7043  0.7845
  177SAPS   C3420232   6.075   5.140   4.031 -0.6957 -0.9174  0.0058
  177SAPS   H4X20233   5.987   5.207   4.023 -0.7903 -0.6659  2.3510
  177SAPS   H4Y20234   6.159   5.202   3.992 -1.1149  1.1783  2.1429
  177SAPS   C3520235   6.116   5.119   4.175 -0.6165  0.1060  1.0113
  177SAPS   H5X20236   6.162   5.212   4.213  1.0852 -0.6600  0.9088
  177SAPS   H5Y20237   6.188   5.035   4.186 -0.7619  0.0836  1.8197
  177SAPS   C3620238   5.985   5.090   4.261 -0.1327 -0.8779  0.2737
  177SAPS   H6X20239   5.943   4.996   4.220 -1.9201 -0.7816  1.7534
  177SAPS   H6Y20240   5.905   5.163   4.235 -0.9153 -2.1860 -1.1216
  177SAPS   C3720241   6.005   5.062   4.411 -0.2591  0.6982 -0.4124
  177SAPS   H7X20242   6.075   4.977   4.419  0.9113  1.5963 -0.7449
  177SAPS   H7Y20243   5.902   5.036   4.443  0.3574  1.1682  2.2112
  177SAPS   C3820244   6.057   5.192   4.479  0.3128 -0.0856 -0.6736
  177SAPS   H8X20245   5.987   5.278   4.474  2.0303  1.4943  0.8668
  177SAPS   H8Y20246   6.153   5.209   4.426  1.8831 -1.6251  1.5405
  177SAPS   C3920247   6.099   5.194   4.629 -0.3359  0.9797 -0.5406
  177SAPS   H9X20248   6.153   5.290   4.644 -1.7810  1.7776 -0.3399
  177SAPS   H9Y20249   6.166   5.106   4.636 -2.0985 -0.4253 -0.7650
  177SAPS  C31020250   6.000   5.184   4.741 -0.0692  0.2803 -1.1578
  177SAPS  H10X20251   5.917   5.118   4.707  0.9282 -1.4460 -0.3900
  177SAPS  H10Y20252   5.965   5.288   4.753  3.6154  1.6482 -0.8774
  177SAPS  C31120253   6.060   5.140   4.877 -0.1966 -0.0285  0.0869
  177SAPS  H11X20254   5.991   5.177   4.956  1.1822  0.2747  1.1819
  177SAPS  H11Y20255   6.164   5.178   4.893 -0.5324  0.4834  1.1567
  177SAPS  C31220256   6.062   4.989   4.896 -0.2478 -0.1279  0.0349
  177SAPS  H12X20257   6.123   4.936   4.820  0.4995 -1.4604  1.5161
  177SAPS  H12Y20258   5.963   4.941   4.880 -1.1316  1.1010  1.5190
  177SAPS  C31320259   6.102   4.939   5.038  0.0455 -0.4595  0.0669
  177SAPS  H13X20260   6.202   4.979   5.065  0.7602 -1.2805 -1.2113
  177SAPS  H13Y20261   6.104   4.828   5.047 -1.3589 -0.4650  0.4679
  177SAPS  C31420262   5.998   4.978   5.143  0.1148  0.1578 -0.0478
  177SAPS  H14X20263   5.902   4.998   5.091  1.2093 -1.9200 -3.1659
  177SAPS  H14Y20264   6.021   5.077   5.187 -2.0332  0.2163  1.0851
  177SAPS  C31520265   5.977   4.875   5.250 -0.3352 -0.2820 -0.6851
  177SAPS  H15X20266   6.078   4.850   5.288  0.4947  0.7017 -2.1322
  177SAPS  H15Y20267   5.936   4.784   5.200 -0.7865 -1.0507  1.0243
  177SAPS  C31620268   5.875   4.926   5.350  0.2791  0.1417  0.6166
  177SAPS  H16X20269   5.782   4.958   5.298  0.1122 -0.5336  0.4853
  177SAPS  H16Y20270   5.925   5.010   5.402  0.0025 -0.1808  1.4331
  177SAPS  C31720271   5.840   4.820   5.454 -0.2714 -0.2659 -0.1351
  177SAPS  H17X20272   5.779   4.859   5.538 -1.6311 -0.1172 -1.1535
  177SAPS  H17Y20273   5.937   4.785   5.493  0.1783  0.8137 -0.2730
  177SAPS  C31820274   5.763   4.691   5.406 -0.4134  0.3274 -0.1330
  177SAPS  H18X20275   5.735   4.626   5.492 -1.8870 -0.1106 -0.8969
  177SAPS  H18Y20276   5.809   4.641   5.319  0.1854  0.5023  0.0809
  177SAPS  H18Z20277   5.666   4.731   5.368 -0.2071  0.5170 -0.4576
  178SAPS     N20278   3.778   6.680   2.756  0.1284  0.3289  0.2300
  178SAPS   HN120279   3.781   6.590   2.702  2.9404  1.5545 -1.9641
  178SAPS   HN220280   3.872   6.724   2.760  1.4983 -2.4138  3.4566
  178SAPS   HN320281   3.735   6.675   2.850 -0.3438 -1.1192 -0.0292
  178SAPS   C1220282   3.693   6.766   2.668  0.2867 -0.4695  0.1851
  178SAPS  H12A20283   3.755   6.786   2.581 -0.6393 -0.9329 -0.6103
  178SAPS   C1320284   3.564   6.706   2.623 -0.1545  0.8266  0.2423
  178SAPS  O13A20285   3.527   6.589   2.656 -0.4808  0.6314  0.2412
  178SAPS  O13B20286   3.495   6.773   2.546 -0.3643 -0.2814 -0.5618
  178SAPS   C1120287   3.669   6.901   2.747  0.7116 -0.2525 -0.1884
  178SAPS  H11A20288   3.618   6.975   2.681  0.5820 -1.5916 -1.6522
  178SAPS  H11B20289   3.765   6.956   2.762  0.3625  0.4420 -0.4563
  178SAPS     P20290   3.463   6.939   2.915 -0.3500 -0.1522  0.1111
  178SAPS   O1320291   3.423   7.043   2.814  0.7126  0.2586  0.2821
  178SAPS   O1420292   3.373   6.820   2.924 -0.0738 -0.2257 -0.2202
  178SAPS   O1220293   3.605   6.892   2.878  0.2302  0.0434 -0.2197
  178SAPS   O1120294   3.488   7.008   3.058 -0.0017  0.2019 -0.1589
  178SAPS    C120295   3.552   6.929   3.165 -0.1120 -0.1417  0.0538
  178SAPS    HA20296   3.630   6.855   3.136  2.3697  2.1049  0.5782
  178SAPS    HB20297   3.609   6.995   3.235  2.5956 -1.3280 -0.8781
  178SAPS    C220298   3.447   6.866   3.255  0.0513 -0.1089 -0.0592
  178SAPS    HS20299   3.377   6.802   3.197  1.6879 -1.4353 -0.6280
  178SAPS   O2120300   3.368   6.976   3.310  0.2603 -0.5265  0.2661
  178SAPS   C2120301   3.243   6.957   3.346 -0.4158  1.0152 -0.4227
  178SAPS   O2220302   3.179   6.852   3.316 -0.5144 -0.3160  0.0512
  178SAPS   C2220303   3.180   7.071   3.416  0.8215 -0.7394  0.2973
  178SAPS   H2R20304   3.258   7.142   3.452 -0.2841  1.5322 -1.5518
  178SAPS   H2S20305   3.128   7.135   3.341  3.6871  2.2295  0.6012
  178SAPS    C320306   3.505   6.771   3.366 -0.5522 -0.2347  0.4906
  178SAPS    HX20307   3.555   6.826   3.449 -1.5010  0.5578  0.5488
  178SAPS    HY20308   3.586   6.714   3.316  2.2267  3.8814 -0.1549
  178SAPS   O3120309   3.403   6.684   3.414  0.2802  0.2148  0.1272
  178SAPS   C3120310   3.350   6.706   3.539  0.3214 -0.7872 -0.0439
  178SAPS   O3220311   3.372   6.798   3.615 -0.5392 -0.1985 -0.0379
  178SAPS   C3220312   3.259   6.588   3.580  0.5217 -0.6915 -0.8842
  178SAPS   H2X20313   3.315   6.494   3.564  0.8002 -0.4854 -1.1180
  178SAPS   H2Y20314   3.183   6.581   3.499 -1.3107  0.9959  0.5696
  178SAPS   C2320315   3.096   7.034   3.531 -0.0125 -0.2328 -0.2546
  178SAPS   H3R20316   3.088   6.924   3.541  1.3982 -0.4292 -0.9794
  178SAPS   H3S20317   2.997   7.078   3.508  1.3832  1.5029 -3.6001
  178SAPS   C2420318   3.153   7.102   3.658  0.4329 -0.3267 -0.4582
  178SAPS   H4R20319   3.164   7.213   3.655 -0.1522 -0.2770 -1.8761
  178SAPS   H4S20320   3.261   7.076   3.656  0.5730  0.1650 -3.0737
  178SAPS   C2520321   3.062   7.053   3.771 -0.0723 -0.1856 -0.3142
  178SAPS   H5R20322   2.953   7.060   3.757  0.1450  1.0578 -1.6732
  178SAPS   C2620323   3.111   7.006   3.887 -0.6887 -0.0876  0.6558
  178SAPS   H6R20324   3.040   6.992   3.970 -1.2224  1.5453  0.5039
  178SAPS   C2720325   3.257   6.995   3.919  0.2491 -0.2238  0.1025
  178SAPS   H7R20326   3.321   7.000   3.828  0.6924  0.4344  0.4437
  178SAPS   H7S20327   3.274   6.901   3.976 -0.5992 -0.7782 -0.5296
  178SAPS   C2820328   3.289   7.107   4.015  0.1601  0.1376 -0.4415
  178SAPS   H8R20329   3.312   7.196   3.955 -0.0972  0.3448 -0.2355
  178SAPS   C2920330   3.313   7.110   4.147  0.1591  0.0703  0.3246
  178SAPS   H9R20331   3.349   7.203   4.193  1.3856  0.1252 -0.6996
  178SAPS  C21020332   3.296   6.988   4.236 -0.6945  0.0945 -0.3323
  178SAPS  H10R20333   3.350   6.902   4.192 -0.7438 -0.9133  1.4762
  178SAPS  H10S20334   3.192   6.949   4.240 -0.6559 -0.1520 -1.3422
  178SAPS  C21120335   3.341   6.998   4.379 -0.1018 -0.4714 -0.1405
  178SAPS  H11R20336   3.415   7.074   4.407 -2.2366  1.1150  1.4801
  178SAPS  C21220337   3.296   6.922   4.479 -0.1328 -0.1105  0.4622
  178SAPS  H12R20338   3.350   6.930   4.575  1.0607 -0.1990 -0.1808
  178SAPS  C21320339   3.193   6.814   4.472 -0.0670  0.3669 -0.5115
  178SAPS  H13R20340   3.240   6.724   4.516 -0.8279  0.8549  1.3873
  178SAPS  H13S20341   3.156   6.800   4.368  1.1621 -1.4710 -0.7521
  178SAPS  C21420342   3.075   6.851   4.558  0.6090  0.3618 -0.0110
  178SAPS  H14R20343   2.996   6.896   4.497  0.0527  1.1988  1.2898
  178SAPS  C21520344   3.046   6.826   4.688  0.3131 -0.3406  0.3544
  178SAPS  H15R20345   2.956   6.868   4.736  0.3091  0.3360 -0.2210
  178SAPS  C21620346   3.136   6.748   4.786  0.0504 -0.1795 -0.1310
  178SAPS  H16R20347   3.203   6.676   4.733  0.8530  1.5639 -1.5834
  178SAPS  H16S20348   3.073   6.692   4.858  0.4801  0.4885  0.7753
  178SAPS  C21720349   3.220   6.849   4.871  0.2001 -0.3799  0.0333
  178SAPS  H17R20350   3.157   6.928   4.917 -0.1805 -0.8658  0.3560
  178SAPS  H17S20351   3.294   6.912   4.816 -1.8670  1.6075 -0.6320
  178SAPS  C21820352   3.299   6.768   4.971 -0.4100  1.0518 -0.5344
  178SAPS  H18R20353   3.373   6.711   4.910  1.8069  1.5848  1.5138
  178SAPS  H18S20354   3.228   6.697   5.018  1.7310 -1.2002 -0.4755
  178SAPS  C21920355   3.378   6.833   5.082 -0.6430  0.1649 -0.0500
  178SAPS  H19R20356   3.317   6.894   5.151 -0.2298 -2.6507  3.0758
  178SAPS  H19S20357   3.448   6.903   5.031 -1.1794  0.9145  0.2279
  178SAPS  C22020358   3.458   6.736   5.173 -0.4467  0.3785 -0.0089
  178SAPS  H20R20359   3.522   6.781   5.252  1.3620 -2.5958  0.3801
  178SAPS  H20S20360   3.528   6.687   5.102  1.2905  1.6797  0.7478
  178SAPS  H20T20361   3.385   6.669   5.224 -3.0729  3.1203  0.1185
  178SAPS   C3320362   3.184   6.604   3.716 -0.7236  0.0590  0.5800
  178SAPS   H3X20363   3.079   6.637   3.700 -0.6432 -0.2272 -0.5830
  178SAPS   H3Y20364   3.226   6.687   3.777  0.9847 -0.5429  0.2913
  178SAPS   C3420365   3.169   6.477   3.803 -0.3066  0.9297 -0.0431
  178SAPS   H4X20366   3.269   6.428   3.805  0.1168  1.7883  1.5564
  178SAPS   H4Y20367   3.091   6.405   3.773 -0.4491  0.3279  1.6456
  178SAPS   C3520368   3.134   6.507   3.951  0.0022  0.8950 -0.7136
  178SAPS   H5X20369   3.034   6.547   3.981  0.3079  0.5658  0.8182
  178SAPS   H5Y20370   3.205   6.592   3.966 -0.4576  1.4345 -1.5169
  178SAPS   C3620371   3.170   6.397   4.059  0.5630 -0.3863 -0.1984
  178SAPS   H6X20372   3.273   6.371   4.028 -0.3212 -2.8978 -1.2346
  178SAPS   H6Y20373   3.108   6.307   4.044 -1.4916  0.8565  0.4644
  178SAPS   C3720374   3.166   6.447   4.206 -0.4080  0.0191 -0.2966
  178SAPS   H7X20375   3.215   6.546   4.220 -0.6276  0.1834 -0.6847
  178SAPS   H7Y20376   3.215   6.377   4.278 -1.5874 -0.3092  0.2164
  178SAPS   C3820377   3.028   6.457   4.261  0.4663  0.1684 -0.6068
  178SAPS   H8X20378   2.983   6.356   4.250  0.2384  0.1920  0.0659
  178SAPS   H8Y20379   2.980   6.527   4.189  1.9696  3.7698  1.6143
  178SAPS   C3920380   3.014   6.492   4.412 -0.3590  0.4539  0.8188
  178SAPS   H9X20381   3.026   6.603   4.419  2.7084  0.1652  1.5400
  178SAPS   H9Y20382   3.095   6.437   4.464 -1.4293 -2.8575 -0.7410
  178SAPS  C31020383   2.877   6.449   4.474  0.0765 -0.5842  0.1280
  178SAPS  H10X20384   2.850   6.342   4.459 -1.5529 -0.4658  1.9194
  178SAPS  H10Y20385   2.796   6.518   4.440  1.8434  0.9393 -1.1857
  178SAPS  C31120386   2.877   6.475   4.622 -0.8217  0.0856  0.0939
  178SAPS  H11X20387   2.775   6.489   4.663 -2.1080 -0.5558 -2.6324
  178SAPS  H11Y20388   2.936   6.568   4.635 -1.4277  0.3062  1.4191
  178SAPS  C31220389   2.956   6.371   4.701  0.0256  0.2023  0.0621
  178SAPS  H12X20390   3.065   6.389   4.692 -0.2833  1.6060 -1.1230
  178SAPS  H12Y20391   2.950   6.267   4.663 -1.9650  0.3602 -0.1557
  178SAPS  C31320392   2.913   6.349   4.854 -0.2200 -0.0418  0.2925
  178SAPS  H13X20393   2.971   6.259   4.886  1.3762 -0.0565 -2.3456
  178SAPS  H13Y20394   2.804   6.329   4.861 -0.4325  1.4814  2.4098
  178SAPS  C31420395   2.953   6.463   4.949  0.0770  0.0130  0.5262
  178SAPS  H14X20396   2.898   6.553   4.914 -0.2946 -0.0058  1.0544
  178SAPS  H14Y20397   3.063   6.468   4.936  0.3853 -0.0228  2.6867
  178SAPS  C31520398   2.926   6.443   5.099 -0.7239  0.6046 -0.0578
  178SAPS  H15X20399   2.961   6.344   5.137  1.8442  1.5801  0.3256
  178SAPS  H15Y20400   2.815   6.452   5.109 -0.9545 -0.9913 -0.8831
  178SAPS  C31620401   2.998   6.556   5.172 -0.1643  0.3081 -0.1222
  178SAPS  H16X20402   3.022   6.639   5.102 -0.1983 -1.1495 -1.9203
  178SAPS  H16Y20403   3.091   6.502   5.201 -1.1509 -2.8292 -2.2714
  178SAPS  C31720404   2.926   6.608   5.292  0.0701  0.3121 -0.4627
  178SAPS  H17X20405   2.916   6.528   5.368  2.9439  0.0054 -0.2701
  178SAPS  H17Y20406   2.824   6.643   5.265 -0.0163  1.2683  0.9859
  178SAPS  C31820407   3.001   6.730   5.352  0.1110  0.0128  0.7585
  178SAPS  H18X20408   2.934   6.781   5.425 -0.6414 -1.5777  1.2174
  178SAPS  H18Y20409   3.035   6.805   5.278  2.2711 -0.3425  1.3424
  178SAPS  H18Z20410   3.091   6.692   5.404  2.0176  0.3706 -2.0402
  179SAPS     N20411   5.506   1.825   2.908 -0.4509 -0.1177 -0.8040
  179SAPS   HN120412   5.516   1.756   2.985 -2.9505 -1.4937 -1.5685
  179SAPS   HN220413   5.581   1.896   2.916 -0.7454  0.0762  0.2899
  179SAPS   HN320414   5.414   1.873   2.909  0.1935  1.1412  0.2279
  179SAPS   C1220415   5.511   1.750   2.773  0.0114  0.3550  0.1121
  179SAPS  H12A20416   5.418   1.701   2.749 -0.0349  0.9896 -1.0651
  179SAPS   C1320417   5.522   1.842   2.652  0.2540  0.2568  0.7390
  179SAPS  O13A20418   5.511   1.965   2.661  0.1208 -0.0625 -0.7815
  179SAPS  O13B20419   5.524   1.780   2.539  0.1362  0.1903 -0.2600
  179SAPS   C1120420   5.634   1.654   2.784  0.4655 -0.2619  0.1177
  179SAPS  H11A20421   5.730   1.711   2.780 -0.9314  2.1952  0.0250
  179SAPS  H11B20422   5.637   1.596   2.690 -0.1919  0.0212 -0.0765
  179SAPS     P20423   5.740   1.453   2.924 -0.1054 -0.0537  0.0946
  179SAPS   O1320424   5.679   1.364   3.028 -0.1135  0.3064  0.2838
  179SAPS   O1420425   5.785   1.385   2.803  0.0241 -0.1033  0.4403
  179SAPS   O1220426   5.633   1.564   2.890 -0.1506  0.2930 -0.3404
  179SAPS   O1120427   5.868   1.532   2.995 -0.1440 -0.2493  0.5462
  179SAPS    C120428   5.834   1.609   3.111  0.4574  0.0282 -0.4588
  179SAPS    HA20429   5.900   1.698   3.116 -1.3955  1.6625 -2.7216
  179SAPS    HB20430   5.733   1.655   3.108 -0.0836 -1.1635 -1.4063
  179SAPS    C220431   5.842   1.526   3.250 -0.0001 -0.2227  0.0687
  179SAPS    HS20432   5.762   1.449   3.243  0.4036 -0.6506  0.1502
  179SAPS   O2120433   5.824   1.634   3.345  0.1792 -0.0438  0.1042
  179SAPS   C2120434   5.697   1.649   3.386  0.2501  0.0145  0.3276
  179SAPS   O2220435   5.600   1.587   3.335  0.4071  0.1190  0.2362
  179SAPS   C2220436   5.693   1.740   3.504  0.0078 -0.2348 -0.0336
  179SAPS   H2R20437   5.742   1.688   3.589 -1.1777  1.0208  1.4899
  179SAPS   H2S20438   5.750   1.832   3.481  0.0891 -0.3008 -0.0987
  179SAPS    C320439   5.977   1.455   3.271  0.7618 -0.4488  0.1984
  179SAPS    HX20440   6.065   1.521   3.255  1.5970 -1.7734 -0.8886
  179SAPS    HY20441   5.976   1.382   3.187 -1.0903  0.4737 -0.6383
  179SAPS   O3120442   5.977   1.397   3.405 -0.0515  0.4415  0.2620
  179SAPS   C3120443   6.047   1.281   3.424 -0.1481 -0.5263  0.2356
  179SAPS   O3220444   6.115   1.227   3.337 -0.3404 -0.6676  0.4857
  179SAPS   C3220445   6.026   1.241   3.565  0.7822 -0.1133  0.3818
  179SAPS   H2X20446   6.106   1.167   3.587  1.7705  1.5158  2.6125
  179SAPS   H2Y20447   5.927   1.190   3.572  1.4829 -1.2153  4.9299
  179SAPS   C2320448   5.551   1.787   3.540 -0.1511  0.0226 -0.6800
  179SAPS   H3R20449   5.493   1.700   3.579  0.7387 -0.6551 -0.8311
  179SAPS   H3S20450   5.501   1.824   3.448 -2.2394 -3.5054 -1.1515
  179SAPS   C2420451   5.562   1.899   3.646  0.0010 -0.1002 -0.4086
  179SAPS   H4R20452   5.628   1.972   3.595 -0.6279  0.4431 -0.4682
  179SAPS   H4S20453   5.618   1.850   3.729  1.9304  0.9947 -1.0044
  179SAPS   C2520454   5.429   1.957   3.682  0.2146  0.3519 -0.3882
  179SAPS   H5R20455   5.345   1.886   3.689 -0.2322  0.8701 -0.4679
  179SAPS   C2620456   5.396   2.086   3.682 -0.6431 -0.1801 -0.3811
  179SAPS   H6R20457   5.294   2.112   3.715 -0.8985 -1.6944  0.1160
  179SAPS   C2720458   5.500   2.194   3.694 -0.3003 -0.0390  0.2317
  179SAPS   H7R20459   5.598   2.150   3.718 -0.8540 -1.0747  0.6377
  179SAPS   H7S20460   5.473   2.256   3.782  3.0244 -0.0648  1.3859
  179SAPS   C2820461   5.484   2.283   3.572  0.9584  0.3115  0.0311
  179SAPS   H8R20462   5.416   2.242   3.496  1.9932 -1.6681  0.1128
  179SAPS   C2920463   5.542   2.403   3.555  0.3081 -0.0814  0.6250
  179SAPS   H9R20464   5.526   2.466   3.467  0.7080  1.5496  1.6656
  179SAPS  C21020465   5.638   2.463   3.647 -0.6524  0.3681 -1.1397
  179SAPS  H10R20466   5.725   2.512   3.598 -2.0056  1.4021 -2.5770
  179SAPS  H10S20467   5.676   2.384   3.715 -2.8858 -1.4367 -1.8645
  179SAPS  C21120468   5.566   2.578   3.712  0.4163  0.0263 -0.8852
  179SAPS  H11R20469   5.490   2.632   3.653 -0.0036  1.1452  0.6080
  179SAPS  C21220470   5.572   2.600   3.844 -0.0265  0.3942 -0.1028
  179SAPS  H12R20471   5.522   2.692   3.879 -0.9084 -0.3859  0.7473
  179SAPS  C21320472   5.641   2.519   3.946 -0.1973  0.4182 -0.3560
  179SAPS  H13R20473   5.751   2.535   3.940 -0.1995  0.6666  0.1942
  179SAPS  H13S20474   5.618   2.411   3.941  1.9841 -0.1252  0.1779
  179SAPS  C21420475   5.597   2.561   4.090  0.1446 -0.0817  0.5212
  179SAPS  H14R20476   5.569   2.667   4.102 -2.4748 -0.8015  1.3379
  179SAPS  C21520477   5.613   2.490   4.206  0.4015  0.0028 -0.0161
  179SAPS  H15R20478   5.569   2.538   4.295  2.3493 -0.7687  1.4206
  179SAPS  C21620479   5.682   2.358   4.239  0.6283 -0.1044 -0.2247
  179SAPS  H16R20480   5.760   2.362   4.318  0.9744  1.3224 -0.6033
  179SAPS  H16S20481   5.726   2.320   4.145 -1.3561 -1.6737 -0.5849
  179SAPS  C21720482   5.578   2.250   4.281 -0.5298 -0.1260  0.0174
  179SAPS  H17R20483   5.523   2.229   4.187  1.9868 -1.1733 -1.3104
  179SAPS  H17S20484   5.508   2.279   4.363  0.0245 -0.9970  0.8218
  179SAPS  C21820485   5.644   2.116   4.332  0.6572 -0.2512 -0.7521
  179SAPS  H18R20486   5.731   2.143   4.396 -0.0354  0.4847 -0.0975
  179SAPS  H18S20487   5.679   2.053   4.247 -0.4979 -0.7548 -0.8657
  179SAPS  C21920488   5.553   2.028   4.420  1.0344  0.3053  0.2540
  179SAPS  H19R20489   5.592   1.925   4.411 -0.6448 -0.3169 -0.3186
  179SAPS  H19S20490   5.454   2.016   4.370 -0.3282 -0.7496  2.9819
  179SAPS  C22020491   5.526   2.072   4.563 -0.1922 -0.3764  0.4040
  179SAPS  H20R20492   5.454   2.001   4.608  0.4445 -1.3991 -0.1576
  179SAPS  H20S20493   5.484   2.175   4.562 -0.2664 -0.3263 -2.8185
  179SAPS  H20T20494   5.621   2.076   4.620 -0.9787 -0.8737  1.7986
  179SAPS   C3320495   6.024   1.362   3.664  0.0838  0.4473 -0.4139
  179SAPS   H3X20496   5.933   1.420   3.638 -0.2041 -0.8729 -2.5951
  179SAPS   H3Y20497   6.111   1.428   3.646  1.5802 -0.7726  1.7901
  179SAPS   C3420498   6.022   1.306   3.809 -0.3967 -0.2376 -0.5922
  179SAPS   H4X20499   6.107   1.235   3.819  0.8949  1.2920 -0.3357
  179SAPS   H4Y20500   5.937   1.241   3.840 -1.0780 -0.0356 -1.9602
  179SAPS   C3520501   6.047   1.403   3.918 -0.4660  1.2997 -0.0380
  179SAPS   H5X20502   5.959   1.470   3.930 -1.6066 -0.4161  2.1102
  179SAPS   H5Y20503   6.134   1.470   3.903  0.0706  0.8817  1.0484
  179SAPS   C3620504   6.058   1.330   4.054 -0.3637 -0.5452  0.6110
  179SAPS   H6X20505   6.152   1.271   4.058  0.8247  1.2144 -0.0258
  179SAPS   H6Y20506   5.973   1.260   4.066  0.1944 -1.4553 -0.4806
  179SAPS   C3720507   6.065   1.425   4.171 -0.7187 -0.4209 -0.2457
  179SAPS   H7X20508   5.970   1.479   4.191  1.3099  2.2054  3.6249
  179SAPS   H7Y20509   6.135   1.507   4.144 -1.8809  0.8266  0.4229
  179SAPS   C3820510   6.103   1.362   4.310  0.1790  0.8918 -0.3326
  179SAPS   H8X20511   6.189   1.295   4.289 -0.8257 -0.3923 -0.5528
  179SAPS   H8Y20512   6.024   1.290   4.341  1.1968 -0.4278 -0.7005
  179SAPS   C3920513   6.134   1.453   4.425  0.0719 -0.5635 -0.5076
  179SAPS   H9X20514   6.058   1.532   4.437  0.3241 -0.2873 -0.7254
  179SAPS   H9Y20515   6.229   1.509   4.411 -0.0540  0.2889  1.6402
  179SAPS  C31020516   6.149   1.371   4.551 -0.3171  0.5976  0.6528
  179SAPS  H10X20517   6.247   1.319   4.540 -2.2350 -3.4950  1.0616
  179SAPS  H10Y20518   6.067   1.296   4.555 -2.1029  2.4655  0.4083
  179SAPS  C31120519   6.155   1.456   4.676  0.1980  0.0584  0.5019
  179SAPS  H11X20520   6.051   1.483   4.704  0.1123  0.9453 -0.6351
  179SAPS  H11Y20521   6.202   1.552   4.648 -1.0585 -0.2328 -3.0364
  179SAPS  C31220522   6.244   1.405   4.795 -0.7575 -0.0044  0.1131
  179SAPS  H12X20523   6.257   1.492   4.863  0.6247 -0.5125  0.5427
  179SAPS  H12Y20524   6.333   1.365   4.742 -0.1187  0.9889  0.3956
  179SAPS  C31320525   6.192   1.287   4.869 -0.5924  0.7137  0.0375
  179SAPS  H13X20526   6.171   1.212   4.790  1.7696 -0.5859  0.5758
  179SAPS  H13Y20527   6.096   1.321   4.914 -0.3742  1.5818 -0.1425
  179SAPS  C31420528   6.287   1.214   4.968  0.5115 -0.4824  0.2062
  179SAPS  H14X20529   6.387   1.195   4.925 -0.1378 -1.1873 -1.0707
  179SAPS  H14Y20530   6.253   1.108   4.967  1.5281 -0.8163 -0.3615
  179SAPS  C31520531   6.281   1.282   5.113  0.3171  0.1887  0.3844
  179SAPS  H15X20532   6.175   1.312   5.130  0.6924  1.5862  0.4403
  179SAPS  H15Y20533   6.359   1.362   5.115  1.8271 -1.1922 -0.7286
  179SAPS  C31620534   6.307   1.183   5.220  0.1134  0.3807  0.4513
  179SAPS  H16X20535   6.408   1.139   5.204 -0.5862 -1.1842  0.0826
  179SAPS  H16Y20536   6.244   1.091   5.211  0.0875  0.5596 -1.9914
  179SAPS  C31720537   6.265   1.227   5.365 -0.2151  0.3637  1.0377
  179SAPS  H17X20538   6.229   1.141   5.426 -2.1000  2.2944  2.8608
  179SAPS  H17Y20539   6.177   1.288   5.336 -0.0499 -0.8315 -2.3002
  179SAPS  C31820540   6.370   1.310   5.437  0.1398 -0.5281  0.0048
  179SAPS  H18X20541   6.357   1.319   5.547  2.8307 -1.2910  0.4724
  179SAPS  H18Y20542   6.366   1.415   5.402  1.5825 -0.7128 -0.7816
  179SAPS  H18Z20543   6.477   1.284   5.419  0.4063  0.5246  0.0042
  180SAPS     N20544   0.768   2.036   2.781 -0.8998  0.6167 -0.3736
  180SAPS   HN120545   0.786   1.941   2.742 -3.3597  0.3991 -1.1504
  180SAPS   HN220546   0.665   2.043   2.769 -1.2902 -0.6263  1.7452
  180SAPS   HN320547   0.813   2.104   2.717  2.1752 -0.3011  0.6460
  180SAPS   C1220548   0.817   2.064   2.923 -0.2956 -0.6293  0.1314
  180SAPS  H12A20549   0.923   2.044   2.935 -0.6023 -1.9245  0.7958
  180SAPS   C1320550   0.796   2.210   2.965 -0.2122  0.4366 -0.1040
  180SAPS  O13A20551   0.743   2.290   2.887  0.2635 -0.3140 -0.3819
  180SAPS  O13B20552   0.797   2.229   3.088 -0.3532  0.5494  0.0325
  180SAPS   C1120553   0.741   1.971   3.030 -0.6026 -0.5208 -0.3416
  180SAPS  H11A20554   0.646   2.021   3.058 -0.4472  0.5688 -1.6609
  180SAPS  H11B20555   0.807   1.970   3.119 -0.7045  1.1806 -0.2157
  180SAPS     P20556   0.655   1.733   3.074 -0.3558  0.0145 -0.0474
  180SAPS   O1320557   0.509   1.716   3.047  0.0216  0.1903  0.3338
  180SAPS   O1420558   0.742   1.613   3.051  0.4122  0.6399 -0.7514
  180SAPS   O1220559   0.715   1.844   2.979  0.7327 -0.2720  0.0788
  180SAPS   O1120560   0.669   1.788   3.218 -0.8238  0.2450  0.6252
  180SAPS    C120561   0.743   1.711   3.315  0.9662  0.2099 -0.3924
  180SAPS    HA20562   0.698   1.610   3.325 -0.6235  0.9054 -0.2580
  180SAPS    HB20563   0.848   1.710   3.280  1.1302  0.9196  0.0631
  180SAPS    C220564   0.736   1.787   3.458 -0.5929  0.5848  0.0535
  180SAPS    HS20565   0.772   1.713   3.532  2.3766 -0.4554 -2.2270
  180SAPS   O2120566   0.598   1.823   3.497 -0.2736 -0.6414 -0.4423
  180SAPS   C2120567   0.505   1.736   3.516  0.9753 -0.7930 -0.0490
  180SAPS   O2220568   0.512   1.616   3.507 -0.1577 -0.5006  0.1752
  180SAPS   C2220569   0.383   1.818   3.558 -0.1527 -0.0456  0.0475
  180SAPS   H2R20570   0.408   1.884   3.643  1.5054 -0.5782 -0.0096
  180SAPS   H2S20571   0.361   1.887   3.473 -0.7390  0.0566  0.2741
  180SAPS    C320572   0.825   1.912   3.450  0.3887 -1.0685  0.4233
  180SAPS    HX20573   0.767   1.991   3.398 -0.7049 -3.1184 -1.6333
  180SAPS    HY20574   0.915   1.891   3.390  1.5666 -0.1163  1.7882
  180SAPS   O3120575   0.852   1.960   3.578  0.3334  0.1277 -0.4612
  180SAPS   C3120576   0.949   1.891   3.634 -0.2484  0.2788 -0.8210
  180SAPS   O3220577   1.030   1.819   3.582 -0.3060 -0.0416  0.0305
  180SAPS   C3220578   0.942   1.907   3.791  1.3097  0.1490  0.7489
  180SAPS   H2X20579   0.849   1.854   3.821  1.0457  0.2143  0.0592
  180SAPS   H2Y20580   0.938   2.016   3.811 -0.1263  0.0163  1.2965
  180SAPS   C2320581   0.251   1.744   3.568  0.0031  0.1422  0.0271
  180SAPS   H3R20582   0.237   1.688   3.474  0.4327 -0.4290  0.2995
  180SAPS   H3S20583   0.170   1.820   3.575  0.8612  1.3028 -1.8320
  180SAPS   C2420584   0.242   1.651   3.687 -0.4649  0.4732  0.2659
  180SAPS   H4R20585   0.252   1.713   3.778 -1.6367  0.6547  0.2791
  180SAPS   H4S20586   0.329   1.582   3.688 -0.3630  0.5921 -0.1563
  180SAPS   C2520587   0.112   1.579   3.693  0.2181  0.7129  0.1979
  180SAPS   H5R20588   0.084   1.518   3.606  0.4307 -1.0336  1.2999
  180SAPS   C2620589   0.021   1.581   3.783 -0.0818 -0.2013 -0.7283
  180SAPS   H6R20590  -0.074   1.525   3.774 -1.5988  1.9414  0.9285
  180SAPS   C2720591   0.023   1.635   3.925 -0.1337 -0.5720 -0.2592
  180SAPS   H7R20592  -0.071   1.618   3.981 -2.0477  0.1842 -3.0719
  180SAPS   H7S20593   0.025   1.746   3.919  1.9715 -0.5951 -0.9715
  180SAPS   C2820594   0.136   1.589   4.009  0.8436 -0.3858 -0.0228
  180SAPS   H8R20595   0.202   1.521   3.954 -1.1545 -1.2913 -1.3934
  180SAPS   C2920596   0.136   1.593   4.142  0.1281 -0.4238  0.5202
  180SAPS   H9R20597   0.225   1.555   4.194 -0.8439 -1.0787  1.7751
  180SAPS  C21020598   0.031   1.665   4.227  0.1863 -0.0212  0.7915
  180SAPS  H10R20599   0.006   1.617   4.324  0.0603 -1.6691 -0.0177
  180SAPS  H10S20600  -0.066   1.665   4.173  1.6633 -0.8097 -2.0689
  180SAPS  C21120601   0.070   1.808   4.253  1.2117 -0.2025 -0.5365
  180SAPS  H11R20602   0.063   1.872   4.164  0.3261  0.1702 -0.2157
  180SAPS  C21220603   0.072   1.868   4.375 -0.3748 -0.0731  0.0642
  180SAPS  H12R20604   0.101   1.974   4.371  1.2930 -0.5051 -0.0377
  180SAPS  C21320605   0.062   1.809   4.515 -0.6075  0.4841  0.4690
  180SAPS  H13R20606   0.052   1.699   4.527  0.9898  0.2643  0.0653
  180SAPS  H13S20607  -0.034   1.839   4.563 -1.9997 -0.1953 -1.7137
  180SAPS  C21420608   0.180   1.848   4.606 -0.6175 -0.1031  0.3999
  180SAPS  H14R20609   0.274   1.809   4.563 -1.2041 -0.6435 -0.4267
  180SAPS  C21520610   0.168   1.913   4.719 -0.4776  1.2246 -0.3536
  180SAPS  H15R20611   0.256   1.923   4.783 -2.0392 -0.4990  2.2029
  180SAPS  C21620612   0.038   1.952   4.780 -0.4524 -0.4134 -0.9831
  180SAPS  H16R20613  -0.026   1.862   4.791 -1.6399  0.3562 -1.3938
  180SAPS  H16S20614  -0.017   2.034   4.729 -1.5705  0.5218  1.5326
  180SAPS  C21720615   0.062   1.997   4.923 -0.5368 -0.0760 -0.2686
  180SAPS  H17R20616   0.152   2.061   4.918 -0.8449  0.5753  1.6378
  180SAPS  H17S20617   0.082   1.905   4.982 -1.1517  0.7346  1.2805
  180SAPS  C21820618  -0.041   2.096   4.970 -0.6738 -0.5868  0.0527
  180SAPS  H18R20619  -0.039   2.172   4.888  1.2286  0.2800  0.8597
  180SAPS  H18S20620  -0.013   2.155   5.059 -1.5354  0.5786 -0.4226
  180SAPS  C21920621  -0.170   2.027   4.990 -0.6587  0.3133 -0.1717
  180SAPS  H19R20622  -0.145   1.941   5.055 -0.7339  0.0866 -0.4382
  180SAPS  H19S20623  -0.206   1.972   4.900 -2.4699  0.5968  0.3396
  180SAPS  C22020624  -0.280   2.105   5.056  0.3086 -0.0509  0.4768
  180SAPS  H20R20625  -0.264   2.125   5.164  2.3503  0.6166  0.1019
  180SAPS  H20S20626  -0.288   2.206   5.011 -1.1361  0.6698  2.2664
  180SAPS  H20T20627  -0.379   2.055   5.050  0.2675 -0.1277  1.5440
  180SAPS   C3320628   1.045   1.821   3.859 -0.0118 -0.1188 -0.3321
  180SAPS   H3X20629   1.140   1.848   3.808  1.0311 -1.4758  0.8324
  180SAPS   H3Y20630   1.024   1.714   3.840 -1.1636  0.2863 -1.5283
  180SAPS   C3420631   1.064   1.862   4.010 -0.4967 -0.0318 -0.3725
  180SAPS   H4X20632   0.969   1.834   4.061  0.1724 -1.1426  0.3016
  180SAPS   H4Y20633   1.078   1.972   4.019  0.9883 -0.2365  0.1818
  180SAPS   C3520634   1.179   1.786   4.082  0.5121  0.0696 -0.1444
  180SAPS   H5X20635   1.275   1.811   4.033  1.0938 -4.1688 -1.5790
  180SAPS   H5Y20636   1.153   1.678   4.088 -0.9711  0.1862 -2.6833
  180SAPS   C3620637   1.197   1.832   4.232  0.3177 -0.1398 -0.2356
  180SAPS   H6X20638   1.094   1.843   4.272  0.1063  0.8354 -1.0090
  180SAPS   H6Y20639   1.251   1.929   4.223  2.8701 -1.6323 -3.0217
  180SAPS   C3720640   1.279   1.724   4.314  0.2334 -0.4342 -0.1579
  180SAPS   H7X20641   1.384   1.731   4.278 -0.0590  0.5804 -0.8726
  180SAPS   H7Y20642   1.236   1.625   4.291 -0.7689 -0.0207 -0.1444
  180SAPS   C3820643   1.284   1.744   4.471 -0.1298  1.2039  0.7655
  180SAPS   H8X20644   1.185   1.710   4.508  0.0180 -0.8660 -0.6144
  180SAPS   H8Y20645   1.280   1.854   4.491 -0.6825  1.1819  0.7795
  180SAPS   C3920646   1.405   1.666   4.533  0.1644  0.1391  0.2626
  180SAPS   H9X20647   1.487   1.740   4.542  0.5376 -0.4156  1.6524
  180SAPS   H9Y20648   1.438   1.592   4.458 -0.2937  0.0008  0.1964
  180SAPS  C31020649   1.365   1.598   4.662  0.2826  0.1469  0.6504
  180SAPS  H10X20650   1.443   1.522   4.684 -1.1809 -1.4448  0.5027
  180SAPS  H10Y20651   1.272   1.539   4.654  0.1986  0.4754 -1.3300
  180SAPS  C31120652   1.359   1.712   4.775 -0.1113 -0.4433  0.2058
  180SAPS  H11X20653   1.319   1.802   4.724 -2.5603 -1.7731 -0.4250
  180SAPS  H11Y20654   1.464   1.716   4.808 -0.4026  2.1645  1.0219
  180SAPS  C31220655   1.276   1.675   4.891 -0.3620 -0.7212 -0.4749
  180SAPS  H12X20656   1.309   1.583   4.944  1.6176  0.3582  0.2730
  180SAPS  H12Y20657   1.168   1.669   4.863 -0.8837  0.7731  1.0696
  180SAPS  C31320658   1.278   1.796   4.989 -0.4864  0.1605 -0.3816
  180SAPS  H13X20659   1.223   1.884   4.950 -0.5011  0.7985  0.9964
  180SAPS  H13Y20660   1.386   1.812   5.007 -0.4556 -0.5667  0.1604
  180SAPS  C31420661   1.214   1.769   5.123 -0.9150  0.4009  0.5131
  180SAPS  H14X20662   1.108   1.738   5.113 -0.9999  1.1591 -1.4597
  180SAPS  H14Y20663   1.218   1.866   5.176  1.5984  0.1522  0.8909
  180SAPS  C31520664   1.280   1.665   5.203  0.9087 -0.2720  0.5207
  180SAPS  H15X20665   1.388   1.693   5.207  0.6496  0.6285  3.2806
  180SAPS  H15Y20666   1.261   1.570   5.149 -0.5221  0.7742 -0.8865
  180SAPS  C31620667   1.230   1.665   5.348  0.0651 -0.2139 -0.0796
  180SAPS  H16X20668   1.124   1.631   5.343 -0.2029  0.2962  1.5227
  180SAPS  H16Y20669   1.230   1.771   5.382  0.1222  0.7171 -2.7572
  180SAPS  C31720670   1.322   1.575   5.439  0.8405  0.2387  0.0161
  180SAPS  H17X20671   1.333   1.481   5.380 -0.1718 -0.4482  0.8962
  180SAPS  H17Y20672   1.263   1.553   5.530 -1.3130 -1.0198 -1.5793
  180SAPS  C31820673   1.462   1.632   5.459 -0.1618 -0.5018  0.9614
  180SAPS  H18X20674   1.537   1.568   5.510  1.0756 -0.8672 -1.1551
  180SAPS  H18Y20675   1.455   1.730   5.511  2.5571  0.1930  0.1915
  180SAPS  H18Z20676   1.501   1.657   5.357 -2.8922 -0.2436 -0.1010
  181POPC     N20677   4.412   4.253   7.563  0.4064 -0.2688  0.2969
  181POPC   C1220678   4.445   4.367   7.661  0.0390  0.4335 -0.2720
  181POPC  H12A20679   4.532   4.338   7.718  1.1166 -0.1308 -2.1372
  181POPC  H12B20680   4.366   4.359   7.734 -0.1483 -1.1388 -0.6149
  181POPC   C1320681   4.380   4.128   7.638  0.1318  0.0907  0.7436
  181POPC  H13A20682   4.369   4.050   7.564 -0.3435  0.0433  0.8609
  181POPC  H13B20683   4.466   4.093   7.695  0.9809  1.0812  0.1006
  181POPC  H13C20684   4.292   4.125   7.700  0.8679  1.3577  1.9169
  181POPC   C1420685   4.293   4.291   7.478 -0.4623  0.2814  0.1925
  181POPC  H14A20686   4.275   4.222   7.397 -2.1691 -0.5252  1.1963
  181POPC  H14B20687   4.195   4.301   7.522 -0.9624 -1.5777 -0.3945
  181POPC  H14C20688   4.314   4.386   7.430  0.6455 -0.0847 -0.0991
  181POPC   C1520689   4.531   4.231   7.480 -0.3686  0.6297 -0.6547
  181POPC  H15A20690   4.513   4.162   7.399 -2.7973  0.1052  0.2601
  181POPC  H15B20691   4.612   4.188   7.537 -0.3105  0.5068 -0.8307
  181POPC  H15C20692   4.571   4.325   7.442  0.2575  0.9392  0.6922
  181POPC   C1120693   4.459   4.516   7.621 -0.8968  1.0129  0.3244
  181POPC  H11A20694   4.495   4.576   7.708  0.9578 -2.0306  1.8353
  181POPC  H11B20695   4.352   4.538   7.601 -1.3263 -2.0777 -1.4191
  181POPC     P20696   4.691   4.551   7.513  0.0357 -0.4081  0.0653
  181POPC   O1320697   4.756   4.422   7.542  0.0117  0.0379 -0.5171
  181POPC   O1420698   4.708   4.661   7.612 -0.4019 -0.1097  0.5563
  181POPC   O1220699   4.533   4.529   7.500  0.4473 -0.5081  1.0780
  181POPC   O1120700   4.740   4.605   7.374  0.6474  0.2655  0.3350
  181POPC    C120701   4.705   4.527   7.258 -0.8680 -0.2472  0.1619
  181POPC    HA20702   4.626   4.581   7.200  0.4061 -0.9084 -2.3309
  181POPC    HB20703   4.649   4.434   7.280 -1.5518 -0.3881 -1.9291
  181POPC    C220704   4.824   4.505   7.160  0.2019  0.7906 -0.3539
  181POPC    HS20705   4.900   4.463   7.229 -0.6080  1.4999  1.0180
  181POPC   O2120706   4.861   4.635   7.115 -0.0251  0.3847  0.3597
  181POPC   C2120707   4.987   4.663   7.108  0.5071 -0.4916  0.5600
  181POPC   O2220708   5.082   4.602   7.152  0.3415 -0.4773 -0.4137
  181POPC   C2220709   4.993   4.796   7.036  0.8056  0.0299  1.3006
  181POPC   H2R20710   5.078   4.859   7.068  1.2402  0.6222 -0.8239
  181POPC   H2S20711   4.902   4.855   7.061  0.9361  0.0488  1.7238
  181POPC    C320712   4.792   4.417   7.040 -0.9438  0.8899  0.0623
  181POPC    HX20713   4.720   4.467   6.973 -0.2026 -0.2065 -1.6196
  181POPC    HY20714   4.753   4.316   7.066  3.5673 -2.0866 -3.1870
  181POPC   O3120715   4.899   4.400   6.942  0.4669 -0.0760 -0.2247
  181POPC   C3120716   5.012   4.338   6.983 -0.1426 -0.2343  0.2548
  181POPC   O3220717   5.036   4.304   7.094 -0.1612 -0.8938  0.5376
  181POPC   C3220718   5.115   4.353   6.868 -0.9718  0.5868 -0.0223
  181POPC   H2X20719   5.165   4.452   6.870  1.2723 -0.4903  0.2365
  181POPC   H2Y20720   5.054   4.352   6.775  0.4638  3.2626 -1.1151
  181POPC   C2320721   5.016   4.785   6.882  0.6842 -0.1370  0.1919
  181POPC   H3R20722   5.095   4.713   6.854 -0.4764 -1.2286 -0.3420
  181POPC   H3S20723   5.054   4.883   6.846 -0.0362 -0.7138 -2.3482
  181POPC   C2420724   4.893   4.756   6.801 -1.1658 -0.4706 -0.3363
  181POPC   H4R20725   4.813   4.828   6.829 -0.4155  0.2630 -0.0408
  181POPC   H4S20726   4.860   4.653   6.827 -0.1877 -0.6745  0.1683
  181POPC   C2520727   4.909   4.767   6.652 -0.3311  0.0598  0.7242
  181POPC   H5R20728   4.939   4.870   6.620 -0.3051  0.3933  1.7804
  181POPC   H5S20729   4.812   4.748   6.600 -0.0004 -1.1909  0.5474
  181POPC   C2620730   5.003   4.668   6.589  0.7193 -0.7520 -0.1716
  181POPC   H6R20731   4.998   4.587   6.665  1.6296 -1.4010 -0.7832
  181POPC   H6S20732   5.108   4.705   6.579  0.2558  0.9787  0.9038
  181POPC   C2720733   4.944   4.612   6.453 -0.6247 -0.3795 -0.0338
  181POPC   H7R20734   4.953   4.687   6.372  1.4800  1.7118  1.9882
  181POPC   H7S20735   4.838   4.591   6.477 -0.6769  0.8599  0.9775
  181POPC   C2820736   5.019   4.487   6.412  0.0862  0.3769  0.0913
  181POPC   H8R20737   4.958   4.420   6.348  1.6143 -2.1111  1.0700
  181POPC   H8S20738   5.038   4.431   6.506  4.1290  1.7057  0.2588
  181POPC   C2920739   5.148   4.514   6.337 -0.0428  0.9220 -0.3342
  181POPC   H9120740   5.215   4.574   6.401 -1.4719  0.6264  1.5205
  181POPC  C21020741   5.173   4.506   6.208  0.0971  0.3401  0.4584
  181POPC  H10120742   5.278   4.517   6.178  0.7082 -1.6572  1.6343
  181POPC  C21120743   5.079   4.433   6.109 -0.5728  0.0093  0.4369
  181POPC  H11R20744   5.031   4.343   6.153 -1.2126 -0.3220 -0.8763
  181POPC  H11S20745   5.137   4.394   6.023 -0.3322 -0.7366  0.9288
  181POPC  C21220746   4.967   4.517   6.042  0.1417  0.2666  0.4146
  181POPC  H12R20747   4.935   4.601   6.107 -0.5215  0.8125 -0.5786
  181POPC  H12S20748   4.879   4.449   6.032  1.2761 -1.1568 -0.1323
  181POPC  C21320749   5.000   4.584   5.910  0.7653 -0.7878  0.7014
  181POPC  H13R20750   5.094   4.642   5.914  0.1508  0.3544 -0.5481
  181POPC  H13S20751   4.916   4.653   5.886  1.1932 -0.8439 -1.1099
  181POPC  C21420752   5.018   4.481   5.792  0.0683 -0.2669  0.6840
  181POPC  H14R20753   4.917   4.445   5.762 -0.4723 -0.5725  2.6824
  181POPC  H14S20754   5.063   4.388   5.833 -1.8194 -1.0257  1.1512
  181POPC  C21520755   5.089   4.539   5.668  0.3817 -0.8720  0.2403
  181POPC  H15R20756   5.192   4.570   5.694  1.0899 -1.3258 -1.8634
  181POPC  H15S20757   5.038   4.631   5.632  0.0098 -1.1443  0.0716
  181POPC  C21620758   5.104   4.437   5.557 -0.2844 -0.3612  0.5825
  181POPC  H16R20759   5.012   4.376   5.545 -1.1925  1.0572  0.1222
  181POPC  H16S20760   5.191   4.377   5.590 -0.5891  0.1867  2.4850
  181POPC  C21720761   5.129   4.496   5.422 -0.0128 -1.1092 -0.6914
  181POPC  H17R20762   5.230   4.542   5.418 -0.0797 -0.9851 -0.9879
  181POPC  H17S20763   5.050   4.573   5.407  0.3341 -0.4805  0.6045
  181POPC  C21820764   5.112   4.396   5.308 -0.5939 -0.2994  0.0593
  181POPC  H18R20765   5.142   4.460   5.223  0.4505  0.2471  0.8237
  181POPC  H18S20766   5.005   4.368   5.298 -0.6571 -0.0766  0.1290
  181POPC  H18T20767   5.173   4.303   5.315 -0.3350 -0.0972  0.5072
  181POPC   C3320768   5.215   4.230   6.863 -0.1297  0.1680 -0.1092
  181POPC   H3X20769   5.154   4.137   6.869 -2.1413  1.4797  0.8784
  181POPC   H3Y20770   5.272   4.245   6.957 -0.2102 -0.7835  0.0978
  181POPC   C3420771   5.308   4.220   6.743  0.5073 -0.2078 -0.2971
  181POPC   H4X20772   5.379   4.135   6.755 -0.3570 -0.6496  2.3299
  181POPC   H4Y20773   5.372   4.310   6.743  0.4574 -0.1293  1.7639
  181POPC   C3520774   5.231   4.203   6.614 -0.4349  0.0886  0.4428
  181POPC   H5X20775   5.174   4.292   6.579 -0.3618  0.0199  0.1448
  181POPC   H5Y20776   5.157   4.122   6.633 -0.1825 -0.3339 -0.3348
  181POPC   C3620777   5.323   4.152   6.506 -0.0444  0.2120  0.2820
  181POPC   H6X20778   5.348   4.046   6.528 -1.2586  0.0682  1.0544
  181POPC   H6Y20779   5.416   4.210   6.490 -0.5723  1.0552  0.2305
  181POPC   C3720780   5.247   4.132   6.369  0.5239  0.0266 -0.1710
  181POPC   H7X20781   5.189   4.223   6.342  0.3051  0.2626  1.0348
  181POPC   H7Y20782   5.168   4.054   6.361  2.4466 -2.0437  0.0863
  181POPC   C3820783   5.342   4.113   6.248 -0.4969 -0.2015 -0.2570
  181POPC   H8X20784   5.390   4.014   6.264  1.1593  0.2324 -2.1795
  181POPC   H8Y20785   5.422   4.190   6.249  0.7777 -1.4499 -1.3673
  181POPC   C3920786   5.277   4.109   6.113 -0.2648  0.5572  0.2390
  181POPC   H9X20787   5.282   4.207   6.061  1.3239  0.1405 -0.4634
  181POPC   H9Y20788   5.169   4.089   6.126 -0.1111 -0.3630  0.1396
  181POPC  C31020789   5.357   4.022   6.018 -0.1526  0.2545 -0.2693
  181POPC  H10X20790   5.361   3.919   6.059  1.1064  1.1235  1.9772
  181POPC  H10Y20791   5.458   4.068   6.020  0.5769 -1.2861  0.1732
  181POPC  C31120792   5.289   4.030   5.883  0.1152 -0.0862 -0.0824
  181POPC  H11X20793   5.271   4.131   5.839 -1.1862  1.1897  3.0657
  181POPC  H11Y20794   5.187   3.997   5.908 -0.1405  1.3292  0.8530
  181POPC  C31220795   5.356   3.932   5.789 -0.2968  0.2085  0.1910
  181POPC  H12X20796   5.358   3.829   5.830  1.7731 -1.6680 -3.9957
  181POPC  H12Y20797   5.466   3.945   5.776 -0.3464 -1.4817 -2.7475
  181POPC  C31320798   5.301   3.934   5.648 -0.0724  0.0582  0.5063
  181POPC  H13X20799   5.192   3.954   5.657 -0.8196 -2.3446 -1.9356
  181POPC  H13Y20800   5.303   3.826   5.622  1.0567  0.4720 -1.3669
  181POPC  C31420801   5.382   4.024   5.552 -0.7144  0.6190 -0.1746
  181POPC  H14X20802   5.485   3.982   5.551 -0.1774  1.8312 -2.4513
  181POPC  H14Y20803   5.394   4.131   5.581  0.1658  0.6641 -0.6766
  181POPC  C31520804   5.319   4.030   5.417 -0.2892  0.1366  0.0234
  181POPC  H15X20805   5.226   4.089   5.411 -1.2249 -1.3605 -1.1478
  181POPC  H15Y20806   5.298   3.924   5.390  0.0642  0.5024 -1.8040
  181POPC  C31620807   5.422   4.082   5.314 -0.0442 -0.1393  0.3473
  181POPC  H16X20808   5.374   4.093   5.215 -1.0149 -0.6959  0.7457
  181POPC  H16Y20809   5.498   4.000   5.320  0.0229 -0.1160 -0.1819
  181POPC  H16Z20810   5.447   4.185   5.347  0.4711  0.4410 -1.7001
  182POPC     N20811   3.354   4.442   7.533  0.7659 -0.1352 -0.5243
  182POPC   C1220812   3.396   4.399   7.393 -0.5095 -0.3895  0.4910
  182POPC  H12A20813   3.474   4.326   7.405  1.5384  1.6537  0.3618
  182POPC  H12B20814   3.445   4.471   7.329 -1.0901 -0.9711 -0.6472
  182POPC   C1320815   3.476   4.490   7.611  0.5568  0.0614  0.2565
  182POPC  H13A20816   3.527   4.571   7.562 -0.0029  0.4496  0.3017
  182POPC  H13B20817   3.436   4.538   7.699  0.2641  0.2527  0.0205
  182POPC  H13C20818   3.537   4.409   7.648  1.3301 -0.1252 -1.3375
  182POPC   C1420819   3.260   4.555   7.520 -0.0931  0.5486 -0.0117
  182POPC  H14A20820   3.219   4.586   7.615  2.2576 -0.9686  1.5909
  182POPC  H14B20821   3.305   4.638   7.468 -2.0511  1.3930 -0.4881
  182POPC  H14C20822   3.176   4.537   7.453  1.1610 -0.4725 -1.3769
  182POPC   C1520823   3.291   4.328   7.598  0.1663 -0.1908 -0.3918
  182POPC  H15A20824   3.188   4.311   7.568 -0.7138  1.6518  1.3792
  182POPC  H15B20825   3.295   4.338   7.705 -1.7070 -1.5755 -0.1524
  182POPC  H15C20826   3.341   4.236   7.569  1.6997  0.0043  1.4431
  182POPC   C1120827   3.288   4.329   7.308 -1.3414 -1.1151  0.5294
  182POPC  H11A20828   3.220   4.413   7.284 -0.6341 -1.0179 -1.2695
  182POPC  H11B20829   3.222   4.255   7.358  0.0894 -0.8018  3.0530
  182POPC     P20830   3.385   4.371   7.065 -0.3104 -0.1439  0.2324
  182POPC   O1320831   3.529   4.346   7.043  0.2029  0.1892  0.3764
  182POPC   O1420832   3.341   4.513   7.087 -0.1465  1.1370  0.4707
  182POPC   O1220833   3.343   4.279   7.184 -0.0658  0.1599 -0.6621
  182POPC   O1120834   3.315   4.308   6.943 -0.1713 -0.0568  0.0242
  182POPC    C120835   3.269   4.169   6.944  0.0803  0.2953 -0.2281
  182POPC    HA20836   3.194   4.150   7.023 -2.8492  1.3176 -2.5599
  182POPC    HB20837   3.350   4.096   6.963 -1.7656 -2.5516 -2.4726
  182POPC    C220838   3.209   4.126   6.808 -0.3734 -0.5989 -0.7671
  182POPC    HS20839   3.159   4.030   6.831  0.5065 -1.1966 -1.2602
  182POPC   O2120840   3.307   4.111   6.710 -0.3850  0.1640  0.0463
  182POPC   C2120841   3.393   4.014   6.713 -0.4323  0.2617  0.4794
  182POPC   O2220842   3.398   3.923   6.793 -0.3614  0.4577 -0.2648
  182POPC   C2220843   3.508   4.033   6.615  0.2498 -0.9711 -0.0731
  182POPC   H2R20844   3.553   3.931   6.614 -0.2029 -1.1953  0.9812
  182POPC   H2S20845   3.586   4.094   6.666 -0.6445  0.0176  0.1441
  182POPC    C320846   3.095   4.231   6.776  0.0554 -0.1839  0.4447
  182POPC    HX20847   3.145   4.330   6.772 -0.1392 -0.0981 -2.1638
  182POPC    HY20848   3.016   4.229   6.854  0.0401 -2.3659  0.4146
  182POPC   O3120849   3.024   4.202   6.648  0.0021  0.0075  0.1913
  182POPC   C3120850   3.078   4.254   6.541  0.1049 -0.5361  0.3506
  182POPC   O3220851   3.182   4.318   6.531 -0.0457  0.6137 -0.6639
  182POPC   C3220852   3.001   4.212   6.420  0.7721  0.2197 -0.1480
  182POPC   H2X20853   2.893   4.206   6.448  0.1590  2.0605 -1.8752
  182POPC   H2Y20854   3.033   4.112   6.384 -1.1419  0.1082 -1.7641
  182POPC   C2320855   3.471   4.100   6.482  0.3645  0.1138  0.2432
  182POPC   H3R20856   3.565   4.091   6.424  0.2981  0.6333  0.0496
  182POPC   H3S20857   3.443   4.207   6.488  0.3927  0.1053  0.5395
  182POPC   C2420858   3.362   4.024   6.414 -0.0236  0.3220 -0.4263
  182POPC   H4R20859   3.266   4.019   6.470  0.0789  1.9281 -0.0547
  182POPC   H4S20860   3.398   3.919   6.401 -2.0935 -0.3670 -1.1069
  182POPC   C2520861   3.320   4.075   6.276 -0.6789  0.2336 -0.0127
  182POPC   H5R20862   3.251   4.160   6.297 -3.7685 -0.9470 -3.9933
  182POPC   H5S20863   3.261   3.999   6.220 -0.1292  0.3526 -0.7619
  182POPC   C2620864   3.435   4.118   6.191  0.3759  1.1399 -0.6518
  182POPC   H6R20865   3.496   4.034   6.152  0.7753 -0.0455  2.2759
  182POPC   H6S20866   3.489   4.194   6.250 -1.9861  0.3369  2.8479
  182POPC   C2720867   3.398   4.201   6.059  0.3156  0.3134 -0.5250
  182POPC   H7R20868   3.487   4.228   5.997 -0.1600  0.3662 -1.1902
  182POPC   H7S20869   3.361   4.294   6.106  0.6556  0.1139  0.1513
  182POPC   C2820870   3.282   4.138   5.970 -0.1301  0.0736 -0.4329
  182POPC   H8R20871   3.247   4.213   5.896 -1.7747 -0.2630 -0.0328
  182POPC   H8S20872   3.196   4.116   6.035  2.6722  0.2574  3.7125
  182POPC   C2920873   3.328   4.017   5.898  0.1662  0.8829  0.2948
  182POPC   H9120874   3.338   3.928   5.962 -1.4846  0.5917  0.2060
  182POPC  C21020875   3.333   3.996   5.764 -0.5532 -0.5368  0.4563
  182POPC  H10120876   3.377   3.902   5.728  0.9074  0.7946 -1.4111
  182POPC  C21120877   3.328   4.090   5.646 -0.1018 -0.4663 -0.4748
  182POPC  H11R20878   3.418   4.077   5.583 -0.1313 -0.3547 -0.5395
  182POPC  H11S20879   3.334   4.195   5.682  1.1005  0.0794 -2.1562
  182POPC  C21220880   3.196   4.073   5.568  0.0236 -0.1405  0.1020
  182POPC  H12R20881   3.195   4.163   5.503  0.8151 -0.4672 -0.3851
  182POPC  H12S20882   3.107   4.090   5.631  0.7859 -1.0002  1.4620
  182POPC  C21320883   3.196   3.944   5.488 -0.1797 -0.1412 -1.4530
  182POPC  H13R20884   3.202   3.860   5.560 -0.6920  3.3692  3.2444
  182POPC  H13S20885   3.297   3.940   5.442  0.1441 -2.2828 -0.6436
  182POPC  C21420886   3.090   3.943   5.384  0.0054 -0.7051  0.2380
  182POPC  H14R20887   3.096   4.031   5.316 -0.2622 -0.1966  0.8682
  182POPC  H14S20888   2.985   3.938   5.419 -0.4369  0.7318 -0.7908
  182POPC  C21520889   3.125   3.822   5.292 -0.2020  0.8105  0.0051
  182POPC  H15R20890   3.103   3.730   5.351  4.1504 -1.0205 -0.8382
  182POPC  H15S20891   3.227   3.823   5.250  0.6204  2.3519  1.8595
  182POPC  C21620892   3.031   3.805   5.172  0.0825 -0.3422  0.2672
  182POPC  H16R20893   2.931   3.840   5.204  0.8888  0.6434  1.8388
  182POPC  H16S20894   3.030   3.702   5.131 -2.7328 -0.4041  0.3535
  182POPC  C21720895   3.067   3.899   5.055  0.1755  0.2882  0.4701
  182POPC  H17R20896   3.169   3.871   5.022 -0.1079 -0.4131  0.1850
  182POPC  H17S20897   3.096   4.005   5.069 -0.4980  0.4678  0.5412
  182POPC  C21820898   2.976   3.885   4.929 -0.5563  0.4661 -0.7713
  182POPC  H18R20899   2.869   3.913   4.936 -0.9641 -1.2522  1.5175
  182POPC  H18S20900   2.965   3.776   4.907 -0.3784 -0.4880  3.0558
  182POPC  H18T20901   3.014   3.928   4.834 -4.7577 -0.6692 -3.2179
  182POPC   C3320902   3.018   4.301   6.296  0.3196  0.7535  0.3004
  182POPC   H3X20903   3.126   4.313   6.272  0.6349 -0.9293  0.7637
  182POPC   H3Y20904   2.978   4.400   6.324 -2.0626  0.1489 -0.6937
  182POPC   C3420905   2.941   4.244   6.179  0.0910  0.5484 -0.8561
  182POPC   H4X20906   2.833   4.255   6.203 -0.0406 -1.3237 -0.5008
  182POPC   H4Y20907   2.953   4.134   6.171 -0.3060  0.4612 -0.3433
  182POPC   C3520908   2.962   4.314   6.044  0.6442 -0.4609  0.3264
  182POPC   H5X20909   3.064   4.284   6.012  0.0081  0.8303 -3.4572
  182POPC   H5Y20910   2.962   4.425   6.049  1.5045 -0.3372 -1.4757
  182POPC   C3620911   2.866   4.258   5.940 -0.8156 -0.2262 -0.5654
  182POPC   H6X20912   2.765   4.282   5.979 -0.2075  1.1630  0.2349
  182POPC   H6Y20913   2.878   4.147   5.942  3.1515  0.0435 -0.5177
  182POPC   C3720914   2.872   4.316   5.791 -0.3623 -1.0190 -1.0199
  182POPC   H7X20915   2.968   4.284   5.745  0.7831 -0.4102  0.8339
  182POPC   H7Y20916   2.867   4.427   5.801  0.5086 -0.8958 -1.8343
  182POPC   C3820917   2.759   4.273   5.702  0.1571  0.5779 -0.1317
  182POPC   H8X20918   2.762   4.163   5.687 -0.8318  0.3662  1.0184
  182POPC   H8Y20919   2.770   4.319   5.601  0.0978 -1.2116 -0.9962
  182POPC   C3920920   2.622   4.307   5.752  0.8287 -0.3283  0.1354
  182POPC   H9X20921   2.600   4.415   5.742  1.5578 -0.3138 -1.6877
  182POPC   H9Y20922   2.604   4.272   5.855  0.8585 -0.0847  0.2241
  182POPC  C31020923   2.515   4.249   5.649 -0.2191  0.0310 -0.2007
  182POPC  H10X20924   2.526   4.139   5.648 -0.2154  0.0155 -2.3774
  182POPC  H10Y20925   2.548   4.288   5.550 -3.3738  0.2029 -1.3263
  182POPC  C31120926   2.374   4.294   5.682  0.3086 -0.4476  0.5944
  182POPC  H11X20927   2.367   4.403   5.700  0.1486 -0.2680 -0.4957
  182POPC  H11Y20928   2.343   4.249   5.779 -0.8864  0.0424  0.4593
  182POPC  C31220929   2.263   4.251   5.576  0.2770  0.5889 -0.1052
  182POPC  H12X20930   2.282   4.146   5.545 -3.0087  0.3801 -1.7946
  182POPC  H12Y20931   2.265   4.315   5.485  1.3529  0.3091 -0.2993
  182POPC  C31320932   2.114   4.262   5.635 -0.2745 -0.5124 -0.3333
  182POPC  H13X20933   2.112   4.354   5.696 -1.9765 -0.3499 -0.5683
  182POPC  H13Y20934   2.080   4.180   5.702  0.6639  0.3563  1.2453
  182POPC  C31420935   2.010   4.276   5.520 -0.5896 -0.3309  0.4133
  182POPC  H14X20936   2.039   4.351   5.444 -0.7924 -1.0783 -0.4068
  182POPC  H14Y20937   1.922   4.308   5.580  1.2116  0.3865  2.8640
  182POPC  C31520938   1.975   4.151   5.443 -0.1130 -0.5454  0.0915
  182POPC  H15X20939   1.941   4.075   5.517 -0.4742 -0.6045 -0.1299
  182POPC  H15Y20940   2.073   4.124   5.398  0.3129 -1.3130  1.4118
  182POPC  C31620941   1.863   4.168   5.337  0.1326 -0.1841 -0.3537
  182POPC  H16X20942   1.779   4.213   5.394  2.1886  1.1723  1.7623
  182POPC  H16Y20943   1.829   4.075   5.287 -0.2703  0.0405 -0.5015
  182POPC  H16Z20944   1.899   4.243   5.262 -0.9993  0.0107 -0.7152
  183POPC     N20945   6.399   2.666   7.876  0.1159  0.2729 -0.4310
  183POPC   C1220946   6.342   2.790   7.807 -0.8472 -0.3032  0.6130
  183POPC  H12A20947   6.335   2.753   7.705 -0.4300  0.0485  0.4541
  183POPC  H12B20948   6.413   2.871   7.813 -0.7661 -0.4990  2.8271
  183POPC   C1320949   6.546   2.655   7.846 -0.8112  0.4420  0.1680
  183POPC  H13A20950   6.561   2.637   7.740  1.3952  0.7941  0.3651
  183POPC  H13B20951   6.598   2.748   7.868  0.7688 -0.5017  0.5886
  183POPC  H13C20952   6.593   2.573   7.898  0.4850 -1.5248 -3.6620
  183POPC   C1420953   6.396   2.679   8.023  0.5460 -0.1154  0.4336
  183POPC  H14A20954   6.462   2.754   8.062  0.0696 -1.3465  3.9200
  183POPC  H14B20955   6.295   2.698   8.053  0.0855 -0.7115 -0.6633
  183POPC  H14C20956   6.434   2.587   8.066  0.6630  0.1768  0.9518
  183POPC   C1520957   6.339   2.537   7.825 -0.8954  0.1536  0.9352
  183POPC  H15A20958   6.393   2.458   7.874  1.5631  0.9076 -0.3420
  183POPC  H15B20959   6.342   2.521   7.718  0.5410  0.8313  0.8484
  183POPC  H15C20960   6.236   2.536   7.857 -1.4838 -1.2506 -0.8140
  183POPC   C1120961   6.198   2.839   7.852  0.6380  0.2526  0.1870
  183POPC  H11A20962   6.161   2.934   7.808 -2.1602 -0.4265  0.9203
  183POPC  H11B20963   6.190   2.862   7.960 -0.9968 -0.3269  0.2086
  183POPC     P20964   6.038   2.710   7.692 -0.1575  0.1956  0.3610
  183POPC   O1320965   5.945   2.824   7.673 -0.2342 -0.0609 -0.1122
  183POPC   O1420966   5.971   2.573   7.692 -0.6550 -0.2951 -0.4459
  183POPC   O1220967   6.099   2.739   7.833 -0.4062 -0.2968 -0.4780
  183POPC   O1120968   6.153   2.720   7.582  0.0176  0.6066 -0.0560
  183POPC    C120969   6.185   2.840   7.515 -0.3075 -0.2011 -0.7867
  183POPC    HA20970   6.295   2.840   7.495  0.2538  0.8813  1.9066
  183POPC    HB20971   6.188   2.929   7.581 -0.3916  0.2709 -1.4028
  183POPC    C220972   6.115   2.876   7.383  1.1540  0.2016  0.2068
  183POPC    HS20973   6.020   2.928   7.411  2.2556  1.0477  2.6790
  183POPC   O2120974   6.089   2.750   7.310 -0.2615 -0.1060  0.5278
  183POPC   C2120975   5.967   2.710   7.312  0.2752 -0.5353  0.5950
  183POPC   O2220976   5.876   2.757   7.374  0.7839  0.4616 -0.2229
  183POPC   C2220977   5.954   2.586   7.221 -0.5516  0.9052 -0.5016
  183POPC   H2R20978   5.857   2.596   7.167  0.9779 -1.7081 -4.0979
  183POPC   H2S20979   5.937   2.496   7.285  3.4320 -0.6844 -1.4157
  183POPC    C320980   6.197   2.980   7.296  0.5929  0.1880 -0.3462
  183POPC    HX20981   6.218   3.061   7.369 -1.7890 -0.8433  1.5973
  183POPC    HY20982   6.127   3.030   7.225  1.5584 -0.7832 -2.0420
  183POPC   O3120983   6.314   2.923   7.243 -0.3081  0.0024 -0.3651
  183POPC   C3120984   6.303   2.878   7.121 -0.0732  0.3653 -0.0095
  183POPC   O3220985   6.212   2.895   7.041  0.3846 -0.5043 -0.0489
  183POPC   C3220986   6.430   2.791   7.101  0.3418 -0.0854  0.6272
  183POPC   H2X20987   6.410   2.691   7.144 -1.6551  1.0772  2.6603
  183POPC   H2Y20988   6.509   2.847   7.156 -0.4581 -0.5514  2.3196
  183POPC   C2320989   6.066   2.565   7.116  0.0291  0.0596  0.7750
  183POPC   H3R20990   6.159   2.517   7.151  0.7240  0.3498 -0.6269
  183POPC   H3S20991   6.087   2.665   7.072 -1.0108  0.1891  0.5256
  183POPC   C2420992   6.021   2.467   7.008  0.3920 -0.1522  0.1647
  183POPC   H4R20993   5.923   2.500   6.965  0.2016 -0.2113  0.5414
  183POPC   H4S20994   6.010   2.375   7.069  2.8450 -1.4082 -1.1703
  183POPC   C2520995   6.125   2.436   6.906 -0.1141 -0.2735 -0.1678
  183POPC   H5R20996   6.220   2.404   6.954  0.1169 -0.5822 -0.8190
  183POPC   H5S20997   6.157   2.526   6.851  1.8348 -0.9664 -0.2371
  183POPC   C2620998   6.068   2.332   6.810  0.1106  0.1209  0.7438
  183POPC   H6R20999   5.967   2.358   6.773  0.6685 -0.0706 -1.0502
  183POPC   H6S21000   6.060   2.236   6.865 -1.1061 -0.9968 -1.2475
  183POPC   C2721001   6.160   2.305   6.685  0.1153  0.1887 -0.1536
  183POPC   H7R21002   6.265   2.315   6.719  1.9199 -0.2705 -4.8129
  183POPC   H7S21003   6.141   2.385   6.610 -0.8815  0.3664  0.2664
  183POPC   C2821004   6.144   2.172   6.609  0.5689 -0.1254  0.1120
  183POPC   H8R21005   6.149   2.090   6.684  2.0744 -0.3356 -0.1905
  183POPC   H8S21006   6.233   2.167   6.544  0.6368  0.7161  0.1371
  183POPC   C2921007   6.020   2.168   6.525 -0.3628 -0.1694 -0.2734
  183POPC   H9121008   5.929   2.163   6.587 -0.7496  0.7642 -0.7549
  183POPC  C21021009   6.015   2.195   6.396  0.6741 -0.5773  0.1586
  183POPC  H10121010   5.916   2.188   6.350  0.1666  2.4990  0.5683
  183POPC  C21121011   6.126   2.217   6.299 -0.4132  0.4512 -0.4547
  183POPC  H11R21012   6.223   2.237   6.348 -0.4367 -3.2040  1.4976
  183POPC  H11S21013   6.098   2.305   6.238  2.1519  0.6970 -1.3602
  183POPC  C21221014   6.147   2.106   6.198  0.8460 -1.0114  0.2100
  183POPC  H12R21015   6.060   2.107   6.128 -0.3905 -0.7725  1.7016
  183POPC  H12S21016   6.164   2.004   6.238  2.0246 -1.8656 -2.2609
  183POPC  C21321017   6.277   2.134   6.116  0.1036  0.2064 -0.6195
  183POPC  H13R21018   6.359   2.140   6.191 -0.7350 -2.4147  0.6393
  183POPC  H13S21019   6.267   2.236   6.072  0.3011  0.0593 -1.0102
  183POPC  C21421020   6.319   2.027   6.011  0.1240 -0.2930  0.5104
  183POPC  H14R21021   6.334   1.926   6.055  1.2173 -0.4427 -0.1612
  183POPC  H14S21022   6.415   2.061   5.965 -0.4265  2.3097  1.1230
  183POPC  C21521023   6.214   2.026   5.900 -0.5813 -0.8918  0.2240
  183POPC  H15R21024   6.120   1.984   5.940 -0.8181 -0.2038  0.4049
  183POPC  H15S21025   6.242   1.952   5.823 -0.9236 -1.2347  0.4273
  183POPC  C21621026   6.174   2.156   5.835  1.0889 -0.0818  0.3739
  183POPC  H16R21027   6.123   2.216   5.913 -0.3257 -0.4384 -0.2400
  183POPC  H16S21028   6.093   2.121   5.767 -0.4023  0.4550  1.8226
  183POPC  C21721029   6.286   2.236   5.773  0.1345  0.2076 -0.1528
  183POPC  H17R21030   6.343   2.167   5.708  0.1171 -1.8603  1.8640
  183POPC  H17S21031   6.353   2.283   5.849  2.7326  0.7550 -2.6390
  183POPC  C21821032   6.230   2.344   5.684 -0.1356  0.8280  0.0221
  183POPC  H18R21033   6.291   2.360   5.593 -0.6826 -1.8616 -0.8881
  183POPC  H18S21034   6.221   2.434   5.749  1.0989 -0.1820  1.6911
  183POPC  H18T21035   6.125   2.327   5.651 -0.5674  1.8277  0.8138
  183POPC   C3321036   6.486   2.785   6.955  0.5640 -0.4681 -0.2546
  183POPC   H3X21037   6.593   2.757   6.956  0.9786  0.7247 -3.0344
  183POPC   H3Y21038   6.482   2.887   6.913 -3.9398 -0.1008  0.5338
  183POPC   C3421039   6.418   2.680   6.860 -0.1785  0.6021 -0.8176
  183POPC   H4X21040   6.307   2.685   6.853 -0.2567 -1.0005 -1.2865
  183POPC   H4Y21041   6.448   2.578   6.893 -0.8522 -0.2498 -2.6449
  183POPC   C3521042   6.469   2.681   6.714 -0.8700 -0.3357 -0.2184
  183POPC   H5X21043   6.577   2.657   6.710 -0.5369  0.8568  1.0344
  183POPC   H5Y21044   6.457   2.780   6.666 -1.0309 -1.5081 -2.7378
  183POPC   C3621045   6.411   2.573   6.627  0.6615 -0.1584 -0.4928
  183POPC   H6X21046   6.301   2.590   6.622  1.1006  2.8200 -2.4393
  183POPC   H6Y21047   6.425   2.467   6.659  0.2865  0.2233  1.0297
  183POPC   C3721048   6.466   2.575   6.483  0.5644 -0.4545  0.9202
  183POPC   H7X21049   6.577   2.573   6.481  0.5477 -1.3089  0.0038
  183POPC   H7Y21050   6.429   2.671   6.442  1.6595 -0.1742  0.5491
  183POPC   C3821051   6.437   2.447   6.409  1.4126  0.0115  0.6654
  183POPC   H8X21052   6.330   2.417   6.405  2.0588 -2.6619  1.1492
  183POPC   H8Y21053   6.486   2.368   6.471 -0.3976 -0.7920  1.1216
  183POPC   C3921054   6.491   2.443   6.270 -0.1341 -0.4974 -0.0866
  183POPC   H9X21055   6.481   2.343   6.223 -2.3758  0.1068 -1.0201
  183POPC   H9Y21056   6.593   2.487   6.274 -0.1629 -0.4668  3.2730
  183POPC  C31021057   6.407   2.527   6.172  0.1993  0.4872 -0.8390
  183POPC  H10X21058   6.386   2.626   6.218  0.2306 -0.5029  1.4419
  183POPC  H10Y21059   6.315   2.465   6.165 -0.2059  0.9560  0.1899
  183POPC  C31121060   6.478   2.559   6.051  0.7903 -0.1941  0.5088
  183POPC  H11X21061   6.521   2.470   5.999 -1.4884 -0.0202 -1.9057
  183POPC  H11Y21062   6.557   2.632   6.081  1.3238 -0.2248 -0.7501
  183POPC  C31221063   6.385   2.630   5.950  0.3420  0.2677 -0.1371
  183POPC  H12X21064   6.380   2.738   5.975  0.9317  0.3266 -0.2558
  183POPC  H12Y21065   6.283   2.587   5.954 -0.2307  1.6125  0.1834
  183POPC  C31321066   6.444   2.621   5.807  0.3852 -0.5248  0.4947
  183POPC  H13X21067   6.437   2.521   5.761  1.3247 -0.9524  1.2351
  183POPC  H13Y21068   6.553   2.637   5.820  0.5872  1.9204 -2.8898
  183POPC  C31421069   6.399   2.734   5.709  0.4539  0.4936 -0.9491
  183POPC  H14X21070   6.379   2.823   5.772  0.8604 -0.2184  0.2182
  183POPC  H14Y21071   6.301   2.704   5.665  0.1605 -1.7515  1.0388
  183POPC  C31521072   6.492   2.756   5.589 -0.0851  0.0127  0.1867
  183POPC  H15X21073   6.513   2.663   5.531 -2.0115 -0.2417 -0.1658
  183POPC  H15Y21074   6.589   2.789   5.632 -0.4026 -0.5732  1.3871
  183POPC  C31621075   6.448   2.863   5.487  0.0813  0.6516 -0.3632
  183POPC  H16X21076   6.343   2.852   5.455 -0.2668  2.2155  0.1672
  183POPC  H16Y21077   6.509   2.865   5.394 -2.1260 -0.6484 -1.9373
  183POPC  H16Z21078   6.458   2.965   5.529 -0.1925  1.7447 -2.7605
  184POPC     N21079   4.933   4.549   8.169  0.4456  0.0296 -0.2420
  184POPC   C1221080   5.020   4.506   8.050 -0.3470  0.0571  0.7760
  184POPC  H12A21081   5.027   4.398   8.051 -0.6007  0.0082  2.9962
  184POPC  H12B21082   5.121   4.540   8.063  0.4191 -1.9284  0.2458
  184POPC   C1321083   4.792   4.493   8.125  0.4692 -0.1396 -0.0381
  184POPC  H13A21084   4.764   4.535   8.029  2.5838  0.6690 -0.3611
  184POPC  H13B21085   4.798   4.386   8.121  0.4704 -0.2414  1.8694
  184POPC  H13C21086   4.718   4.508   8.202 -0.5429 -0.6466 -0.8895
  184POPC   C1421087   4.990   4.483   8.291  0.3578 -0.1245  0.2821
  184POPC  H14A21088   5.087   4.522   8.320  1.0554 -0.4261 -1.5192
  184POPC  H14B21089   4.918   4.498   8.370  0.0384 -1.0198  0.1700
  184POPC  H14C21090   4.991   4.377   8.272  0.7883 -0.1435  0.4005
  184POPC   C1521091   4.928   4.694   8.170  0.7414 -0.0005  0.5849
  184POPC  H15A21092   5.016   4.741   8.212  0.1144  2.3501 -0.6100
  184POPC  H15B21093   4.847   4.732   8.231  1.7285  2.2855  0.5393
  184POPC  H15C21094   4.919   4.744   8.075  1.3386 -0.2179  0.4105
  184POPC   C1121095   4.997   4.555   7.904 -0.3508 -0.0041 -0.3139
  184POPC  H11A21096   4.904   4.505   7.869 -0.0987  0.3936 -1.5944
  184POPC  H11B21097   5.063   4.503   7.833  1.6318  1.0332  0.6955
  184POPC     P21098   5.121   4.782   7.866 -0.5169 -0.1427 -0.2870
  184POPC   O1321099   5.239   4.692   7.881  0.4489 -0.3120  0.5847
  184POPC   O1421100   5.119   4.898   7.961  0.8502 -0.0436 -0.0224
  184POPC   O1221101   4.995   4.701   7.894  0.2980  0.1199 -0.0922
  184POPC   O1121102   5.103   4.825   7.719  0.2709  0.5356  0.5421
  184POPC    C121103   5.114   4.723   7.615 -0.2048  1.0412 -0.2260
  184POPC    HA21104   5.012   4.680   7.598  0.0378  0.1901  0.4023
  184POPC    HB21105   5.179   4.640   7.650  0.9169  2.7583  1.9991
  184POPC    C221106   5.164   4.771   7.479 -0.3992 -0.3804  1.0116
  184POPC    HS21107   5.150   4.685   7.410  2.1479  0.6452 -0.9591
  184POPC   O2121108   5.310   4.811   7.488  0.3191 -0.0215  0.2461
  184POPC   C2121109   5.400   4.719   7.461 -0.2126 -0.4647 -0.7477
  184POPC   O2221110   5.377   4.601   7.440 -0.1431 -0.7382  0.6108
  184POPC   C2221111   5.535   4.779   7.447 -0.3649 -0.3714 -0.3691
  184POPC   H2R21112   5.585   4.748   7.541  2.2372  1.0041 -1.1888
  184POPC   H2S21113   5.522   4.889   7.457 -1.5256 -0.4059 -1.2372
  184POPC    C321114   5.077   4.894   7.444 -0.2425  0.0551  0.5102
  184POPC    HX21115   5.111   4.964   7.524 -0.4045  3.0541 -1.8640
  184POPC    HY21116   4.971   4.864   7.460 -0.4748  0.3986 -0.3497
  184POPC   O3121117   5.102   4.947   7.310  0.0017 -0.5054 -0.0447
  184POPC   C3121118   5.060   5.073   7.299  0.5645  0.3610  0.9737
  184POPC   O3221119   4.991   5.129   7.381 -0.8693 -0.0949  0.3772
  184POPC   C3221120   5.095   5.122   7.158  0.6436  0.6201 -0.7688
  184POPC   H2X21121   5.012   5.126   7.084  1.0004  0.6050 -1.1709
  184POPC   H2Y21122   5.172   5.057   7.112  0.4227 -2.3456  2.6247
  184POPC   C2321123   5.600   4.739   7.312 -0.1072  0.4932  0.1793
  184POPC   H3R21124   5.613   4.629   7.310  0.8971  0.6057 -0.8127
  184POPC   H3S21125   5.701   4.786   7.320  0.6495 -0.7924 -1.3697
  184POPC   C2421126   5.522   4.793   7.197 -0.0166 -0.1203  0.1542
  184POPC   H4R21127   5.491   4.899   7.203 -2.7959 -0.7618 -1.0339
  184POPC   H4S21128   5.436   4.723   7.193  0.7815 -1.0926 -1.2709
  184POPC   C2521129   5.608   4.767   7.074  1.0890  0.2307  0.0908
  184POPC   H5R21130   5.613   4.658   7.051  1.3552  0.1487  0.5145
  184POPC   H5S21131   5.712   4.804   7.084  1.9495 -1.8667 -0.4918
  184POPC   C2621132   5.550   4.838   6.949  0.2779  0.2773 -0.1337
  184POPC   H6R21133   5.616   4.823   6.861  2.5334  0.3824  1.4399
  184POPC   H6S21134   5.553   4.948   6.966 -0.3053  0.5055 -1.3872
  184POPC   C2721135   5.406   4.796   6.912 -0.4005 -0.1498  0.0705
  184POPC   H7R21136   5.341   4.834   6.994  1.6989  1.2513  1.1712
  184POPC   H7S21137   5.385   4.687   6.907 -1.5059  0.0778 -0.4865
  184POPC   C2821138   5.350   4.861   6.781  0.1441  0.2272 -0.5262
  184POPC   H8R21139   5.256   4.806   6.758  1.0930 -1.2351 -1.0267
  184POPC   H8S21140   5.419   4.836   6.699  1.6992  2.3445  0.0405
  184POPC   C2921141   5.333   5.013   6.790 -0.8149 -0.2336 -0.7664
  184POPC   H9121142   5.340   5.045   6.895 -0.7305 -1.1808 -0.4737
  184POPC  C21021143   5.294   5.101   6.699 -0.1873  0.1106 -0.1706
  184POPC  H10121144   5.275   5.205   6.730 -1.4615 -0.6622  1.8089
  184POPC  C21121145   5.257   5.068   6.557  1.2364 -0.4339  0.5513
  184POPC  H11R21146   5.266   4.957   6.552  0.9974 -0.4276 -3.1919
  184POPC  H11S21147   5.308   5.111   6.468 -1.6633  0.9913 -0.5756
  184POPC  C21221148   5.105   5.079   6.535 -0.0714  0.6501 -0.0750
  184POPC  H12R21149   5.071   5.184   6.525 -1.0735  0.4723  1.1531
  184POPC  H12S21150   5.058   5.042   6.629  0.1327  1.8745  0.5384
  184POPC  C21321151   5.056   5.012   6.401 -0.6760 -0.0018  0.3241
  184POPC  H13R21152   4.946   5.006   6.394 -0.5159 -2.0948 -2.9854
  184POPC  H13S21153   5.082   4.904   6.413 -1.8922 -0.2600  0.7091
  184POPC  C21421154   5.123   5.068   6.276  0.0475  0.4143  0.1337
  184POPC  H14R21155   5.233   5.065   6.290  0.0555  2.0379  0.6874
  184POPC  H14S21156   5.105   5.177   6.288 -0.4298  0.3592 -0.0531
  184POPC  C21521157   5.089   5.008   6.142  0.4631 -0.6153 -0.0263
  184POPC  H15R21158   4.979   5.013   6.135  0.5315  0.4739 -0.4656
  184POPC  H15S21159   5.114   4.900   6.133 -0.4001 -0.7369 -1.1070
  184POPC  C21621160   5.160   5.077   6.025 -0.7743 -0.0189 -0.1286
  184POPC  H16R21161   5.266   5.044   6.024 -1.1113 -1.1217 -0.3796
  184POPC  H16S21162   5.179   5.185   6.043  1.3904 -0.6037  1.5679
  184POPC  C21721163   5.098   5.026   5.895 -0.2888 -0.4344  0.4945
  184POPC  H17R21164   5.070   4.918   5.896 -0.7044 -0.3336  0.0630
  184POPC  H17S21165   5.176   5.045   5.817 -1.0407 -0.2591 -0.2237
  184POPC  C21821166   4.975   5.107   5.863  0.3229 -0.0199  0.7882
  184POPC  H18R21167   5.003   5.210   5.834 -0.5510 -0.2335 -0.9722
  184POPC  H18S21168   4.901   5.108   5.947  0.2945 -0.1770  0.7647
  184POPC  H18T21169   4.925   5.063   5.774  0.9765 -1.8267  1.2675
  184POPC   C3321170   5.152   5.266   7.161 -0.2790  0.1608 -0.0812
  184POPC   H3X21171   5.238   5.277   7.231 -0.0874  0.9667 -0.4298
  184POPC   H3Y21172   5.072   5.332   7.200 -1.3647 -1.4128  0.4329
  184POPC   C3421173   5.185   5.310   7.019  0.2072 -0.7311  0.2054
  184POPC   H4X21174   5.103   5.292   6.946  1.0032  0.5788 -1.0856
  184POPC   H4Y21175   5.260   5.234   6.989 -1.1948 -2.6015  1.2192
  184POPC   C3521176   5.240   5.452   7.014 -0.4237  0.5276 -1.2462
  184POPC   H5X21177   5.338   5.460   7.065 -1.4462 -0.8969  1.1240
  184POPC   H5Y21178   5.178   5.515   7.081  2.4901  1.2823  0.9486
  184POPC   C3621179   5.241   5.511   6.876  0.0060 -0.1133 -0.5194
  184POPC   H6X21180   5.249   5.622   6.871  0.8060 -0.2076 -2.4311
  184POPC   H6Y21181   5.149   5.488   6.819  0.0506 -2.6302  0.3174
  184POPC   C3721182   5.353   5.455   6.785 -0.9538  0.2651 -0.5130
  184POPC   H7X21183   5.376   5.355   6.829 -3.2950  0.1081  0.5415
  184POPC   H7Y21184   5.434   5.528   6.802 -0.8743  0.1653 -0.4587
  184POPC   C3821185   5.305   5.456   6.637  0.5017 -0.2710 -0.1990
  184POPC   H8X21186   5.263   5.557   6.621  0.9490  0.1228  0.9755
  184POPC   H8Y21187   5.216   5.391   6.628  1.0141 -1.3823  2.0479
  184POPC   C3921188   5.408   5.408   6.532 -0.1633  0.3643 -0.3412
  184POPC   H9X21189   5.435   5.301   6.540  0.4985  0.4962 -0.6568
  184POPC   H9Y21190   5.502   5.468   6.534  0.6921 -0.8510 -1.9117
  184POPC  C31021191   5.357   5.426   6.389  0.2867  0.6266  0.1489
  184POPC  H10X21192   5.326   5.533   6.384  0.8294  0.8827  1.6927
  184POPC  H10Y21193   5.269   5.359   6.382  0.0627  0.9012  0.3253
  184POPC  C31121194   5.454   5.392   6.278 -0.2158  0.5074 -0.1535
  184POPC  H11X21195   5.490   5.287   6.281 -1.4400  0.0781  0.2256
  184POPC  H11Y21196   5.539   5.462   6.295  0.9686 -0.7754 -0.6024
  184POPC  C31221197   5.395   5.408   6.139  0.8553 -0.0370  0.3453
  184POPC  H12X21198   5.350   5.509   6.134  1.8077  0.3754 -0.1265
  184POPC  H12Y21199   5.312   5.339   6.111 -0.9191  2.1371  0.0327
  184POPC  C31321200   5.501   5.396   6.023  0.0138  0.2077  0.0525
  184POPC  H13X21201   5.550   5.297   6.025 -1.2263 -0.4417 -0.7409
  184POPC  H13Y21202   5.584   5.468   6.040  0.9020 -0.3987 -1.5083
  184POPC  C31421203   5.445   5.438   5.889  0.2733  0.0560 -0.5780
  184POPC  H14X21204   5.390   5.533   5.903  1.0080  0.2845  1.0418
  184POPC  H14Y21205   5.362   5.370   5.861  0.1953  0.6389 -1.8038
  184POPC  C31521206   5.543   5.413   5.771  0.3886  0.0436 -0.5302
  184POPC  H15X21207   5.580   5.310   5.788 -0.1447  0.3005  3.0464
  184POPC  H15Y21208   5.638   5.471   5.774 -0.8763  2.3212 -1.5666
  184POPC  C31621209   5.476   5.430   5.632  0.4154  0.2419 -0.3411
  184POPC  H16X21210   5.381   5.375   5.624 -0.3271  1.4270  0.0633
  184POPC  H16Y21211   5.554   5.411   5.555  0.5683  1.3947 -0.4861
  184POPC  H16Z21212   5.460   5.538   5.611 -0.7358  0.6529  2.2595
  185POPC     N21213   0.580   4.478   3.501  0.0755  0.0428 -0.3079
  185POPC   C1221214   0.437   4.493   3.550  0.5483 -0.1716  0.1916
  185POPC  H12A21215   0.375   4.542   3.475 -0.0911  2.5121  2.2959
  185POPC  H12B21216   0.445   4.567   3.629 -0.0716  1.7486 -1.4501
  185POPC   C1321217   0.592   4.395   3.382  0.7167  0.9289 -0.1861
  185POPC  H13A21218   0.692   4.372   3.348  0.5213 -0.7080  0.2473
  185POPC  H13B21219   0.531   4.306   3.394  2.3861 -0.1806  0.4014
  185POPC  H13C21220   0.545   4.449   3.301 -2.9184 -0.5485  0.7230
  185POPC   C1421221   0.638   4.608   3.467  0.5015 -0.6166  0.3143
  185POPC  H14A21222   0.577   4.659   3.394  1.4126 -1.8364 -1.3889
  185POPC  H14B21223   0.646   4.676   3.550  0.6195 -0.3734  0.1068
  185POPC  H14C21224   0.734   4.596   3.418  0.3750  2.1287 -0.8018
  185POPC   C1521225   0.669   4.423   3.613  0.4536  0.1671 -0.3448
  185POPC  H15A21226   0.771   4.409   3.582  0.1636 -2.0376 -0.4797
  185POPC  H15B21227   0.622   4.331   3.645 -1.7574  1.0265 -0.9183
  185POPC  H15C21228   0.668   4.489   3.698  0.7432  0.2052 -0.3698
  185POPC   C1121229   0.363   4.360   3.588 -0.6649  0.3972 -0.3145
  185POPC  H11A21230   0.273   4.375   3.651 -0.1964  0.2340  0.4075
  185POPC  H11B21231   0.415   4.290   3.658 -0.2131  1.9259  0.9409
  185POPC     P21232   0.222   4.346   3.375 -0.4651  0.3396  0.0056
  185POPC   O1321233   0.204   4.249   3.267  0.1456 -0.2110  0.0173
  185POPC   O1421234   0.241   4.487   3.333 -0.0701 -0.4660 -0.3410
  185POPC   O1221235   0.340   4.287   3.469  0.9537  0.0584  0.0578
  185POPC   O1121236   0.093   4.328   3.454  0.4618 -0.0035  0.4173
  185POPC    C121237   0.014   4.441   3.476 -0.4680  0.5082 -0.3505
  185POPC    HA21238  -0.040   4.457   3.380 -0.4679 -1.2667 -0.6871
  185POPC    HB21239   0.065   4.528   3.521  0.1025  0.0475 -0.0919
  185POPC    C221240  -0.101   4.409   3.580  0.4828 -0.1571 -1.0555
  185POPC    HS21241  -0.175   4.491   3.580 -2.1515 -2.3845  0.0697
  185POPC   O2121242  -0.046   4.386   3.714  0.1358 -0.3037 -0.2139
  185POPC   C2121243  -0.015   4.504   3.784 -0.0124  0.4992  0.4905
  185POPC   O2221244  -0.058   4.611   3.746  0.1656  0.1775  0.1585
  185POPC   C2221245   0.063   4.478   3.911  0.0771  1.1864 -0.2512
  185POPC   H2R21246   0.168   4.482   3.875 -0.5162 -0.2003 -2.3576
  185POPC   H2S21247   0.048   4.373   3.942  0.9616  1.0886 -0.1386
  185POPC    C321248  -0.179   4.276   3.543 -0.7199 -0.2241  0.7432
  185POPC    HX21249  -0.108   4.192   3.555 -2.0863 -1.4765  0.3773
  185POPC    HY21250  -0.191   4.277   3.433  2.0294  1.6267  0.3549
  185POPC   O3121251  -0.303   4.270   3.614 -0.2001  0.1713 -0.5721
  185POPC   C3121252  -0.319   4.165   3.704  0.0709  0.1450 -0.3164
  185POPC   O3221253  -0.253   4.062   3.714 -0.2490 -0.4117 -0.2715
  185POPC   C3221254  -0.438   4.209   3.790  0.0500  0.3208 -0.2414
  185POPC   H2X21255  -0.525   4.157   3.742  0.4834 -1.0289  0.3922
  185POPC   H2Y21256  -0.438   4.320   3.783  2.2023  0.4794  1.2974
  185POPC   C2321257   0.033   4.576   4.030 -0.4591  0.0210  0.0661
  185POPC   H3R21258  -0.073   4.555   4.056 -0.3291 -1.8444 -0.7183
  185POPC   H3S21259   0.069   4.677   4.002  1.4845 -0.2392  1.4542
  185POPC   C2421260   0.112   4.549   4.169  0.1065  0.4340 -0.3696
  185POPC   H4R21261   0.219   4.573   4.150  0.0127  1.0704 -0.1210
  185POPC   H4S21262   0.108   4.439   4.185  2.6776 -0.2849 -3.5806
  185POPC   C2521263   0.043   4.622   4.294  0.4001  0.0130  0.2995
  185POPC   H5R21264  -0.063   4.588   4.284 -0.7790  3.5801 -1.1526
  185POPC   H5S21265   0.049   4.731   4.270  3.2518 -0.4630 -1.7030
  185POPC   C2621266   0.119   4.573   4.416  0.2489  0.3281 -0.3948
  185POPC   H6R21267   0.219   4.619   4.401 -0.2098  1.1544 -1.0389
  185POPC   H6S21268   0.132   4.463   4.412 -2.8656 -0.1160 -0.6761
  185POPC   C2721269   0.061   4.601   4.555 -0.6181 -0.5726  0.3058
  185POPC   H7R21270   0.091   4.517   4.621 -2.3404 -3.6239 -2.4740
  185POPC   H7S21271  -0.046   4.631   4.565  0.0470  3.3930 -2.0161
  185POPC   C2821272   0.135   4.723   4.620 -0.0922 -0.0472  0.5332
  185POPC   H8R21273   0.145   4.797   4.538  1.8596 -0.3650  0.4232
  185POPC   H8S21274   0.241   4.690   4.627 -0.1726 -0.3458  0.3750
  185POPC   C2921275   0.090   4.782   4.753  0.1605  0.8262 -0.3914
  185POPC   H9121276   0.023   4.869   4.757 -0.2900  0.4258  1.1284
  185POPC  C21021277   0.104   4.715   4.869 -0.1379  0.1642 -0.6889
  185POPC  H10121278   0.081   4.765   4.964 -2.7048  1.7562 -2.0418
  185POPC  C21121279   0.167   4.584   4.888 -0.2487 -0.2752 -0.3974
  185POPC  H11R21280   0.241   4.587   4.971 -0.2102 -2.7572 -0.2711
  185POPC  H11S21281   0.223   4.546   4.799  0.3465 -2.6296  0.8909
  185POPC  C21221282   0.060   4.481   4.931  0.3168  0.2708 -0.2734
  185POPC  H12R21283  -0.016   4.461   4.852  0.4939 -1.5108 -0.0507
  185POPC  H12S21284  -0.003   4.514   5.016 -0.0224  1.7396 -1.0620
  185POPC  C21321285   0.120   4.345   4.964 -0.1905 -0.1248 -1.0737
  185POPC  H13R21286   0.059   4.285   5.036 -0.6870  4.0495  2.3977
  185POPC  H13S21287   0.211   4.370   5.023 -0.0487 -2.1834 -0.3001
  185POPC  C21421288   0.162   4.258   4.842  0.2981 -0.3757  0.5951
  185POPC  H14R21289   0.209   4.315   4.759 -3.4597 -0.2956 -1.7053
  185POPC  H14S21290   0.064   4.227   4.800  1.0117 -0.5950 -0.9952
  185POPC  C21521291   0.225   4.123   4.870  0.2667  0.0466 -0.8817
  185POPC  H15R21292   0.174   4.085   4.960  1.1591  1.5036  0.3006
  185POPC  H15S21293   0.331   4.147   4.893 -0.5592  1.5889  1.7084
  185POPC  C21621294   0.201   4.023   4.753 -0.3654 -0.8375 -0.2035
  185POPC  H16R21295   0.220   4.072   4.655 -1.2004  2.2415  1.0792
  185POPC  H16S21296   0.098   3.979   4.754  0.2058 -2.3683  2.3946
  185POPC  C21721297   0.298   3.908   4.772 -0.3332 -0.6962 -0.0421
  185POPC  H17R21298   0.397   3.958   4.778 -0.7692  0.0381  1.8461
  185POPC  H17S21299   0.284   3.843   4.683 -1.1206  0.2491 -0.6377
  185POPC  C21821300   0.268   3.831   4.894 -0.6414 -0.3535  0.5739
  185POPC  H18R21301   0.163   3.794   4.898 -0.5744 -0.6387 -0.1778
  185POPC  H18S21302   0.289   3.884   4.989  1.7552 -0.8728  0.4001
  185POPC  H18T21303   0.330   3.739   4.893 -0.7952 -0.4575  0.4907
  185POPC   C3321304  -0.444   4.162   3.940 -1.0639 -0.2134  0.1419
  185POPC   H3X21305  -0.342   4.146   3.981 -1.7210 -2.6661  0.9473
  185POPC   H3Y21306  -0.493   4.063   3.944  1.2576 -1.4177  0.6394
  185POPC   C3421307  -0.529   4.258   4.031 -0.0858  0.2167  0.3898
  185POPC   H4X21308  -0.613   4.291   3.966  0.8246  0.5895 -0.6306
  185POPC   H4Y21309  -0.462   4.345   4.047 -0.1229  0.1699  0.8085
  185POPC   C3521310  -0.575   4.183   4.156  0.1593 -0.4959 -0.2216
  185POPC   H5X21311  -0.489   4.172   4.225 -0.1943 -2.2609 -0.0346
  185POPC   H5Y21312  -0.602   4.080   4.125 -0.6951 -0.2397 -0.3574
  185POPC   C3621313  -0.696   4.228   4.226 -0.3724 -0.0763  0.0333
  185POPC   H6X21314  -0.782   4.242   4.158  0.6020  2.3591 -0.7977
  185POPC   H6Y21315  -0.673   4.334   4.249 -1.6765  1.0323 -3.2424
  185POPC   C3721316  -0.741   4.149   4.350  0.0653  0.0115  0.7521
  185POPC   H7X21317  -0.659   4.146   4.425 -0.7192  1.9888  1.7637
  185POPC   H7Y21318  -0.765   4.042   4.335 -2.5106  0.7599 -1.1879
  185POPC   C3821319  -0.855   4.222   4.423  0.3416  0.0082 -0.1626
  185POPC   H8X21320  -0.917   4.285   4.356  1.9469  1.1821 -0.6007
  185POPC   H8Y21321  -0.824   4.300   4.495  1.3596 -0.7809  0.2791
  185POPC   C3921322  -0.952   4.120   4.490  0.1799 -0.1119 -0.0102
  185POPC   H9X21323  -0.999   4.052   4.416  0.1538  0.4259 -0.4968
  185POPC   H9Y21324  -1.042   4.176   4.526 -1.0052 -0.9319 -1.5866
  185POPC  C31021325  -0.885   4.046   4.612  0.4520 -0.6647  0.9770
  185POPC  H10X21326  -0.791   3.998   4.575  0.2147  0.1676 -0.7699
  185POPC  H10Y21327  -0.945   3.959   4.646  1.4612 -0.7722  2.6203
  185POPC  C31121328  -0.871   4.130   4.736 -0.0934  0.5946 -0.6533
  185POPC  H11X21329  -0.965   4.188   4.731  0.3867  1.3215 -1.8773
  185POPC  H11Y21330  -0.791   4.207   4.723 -0.3237  1.6412  2.8765
  185POPC  C31221331  -0.839   4.055   4.871 -0.1752  0.1104  0.2132
  185POPC  H12X21332  -0.909   3.970   4.884 -1.0837  0.6656 -0.8521
  185POPC  H12Y21333  -0.867   4.126   4.952  1.6118 -1.4319  2.3299
  185POPC  C31321334  -0.690   4.018   4.899  0.0538  0.3101 -0.0914
  185POPC  H13X21335  -0.632   4.113   4.903 -0.9829  1.0709 -1.7039
  185POPC  H13Y21336  -0.664   3.952   4.813 -4.0987  0.1428 -1.4649
  185POPC  C31421337  -0.672   3.945   5.028  0.0165 -0.3735  0.1420
  185POPC  H14X21338  -0.734   3.853   5.027  0.5910 -0.8002  1.2873
  185POPC  H14Y21339  -0.718   4.006   5.109  0.2420 -1.1141  0.8480
  185POPC  C31521340  -0.528   3.913   5.068  0.0441 -0.1499  0.3137
  185POPC  H15X21341  -0.467   4.006   5.063 -1.4643  0.8538 -0.2183
  185POPC  H15Y21342  -0.492   3.834   4.999  0.2180  0.8150 -0.7481
  185POPC  C31621343  -0.509   3.872   5.215  0.7917  0.3496 -0.0168
  185POPC  H16X21344  -0.597   3.809   5.242 -0.7136  2.3430  0.0064
  185POPC  H16Y21345  -0.504   3.963   5.279  1.7148  0.4843 -0.2696
  185POPC  H16Z21346  -0.412   3.820   5.225  0.7678  0.2733 -0.1889
  186POPC     N21347   0.494   1.084   2.866  0.6309 -0.2786  0.2165
  186POPC   C1221348   0.451   1.028   3.000 -0.1394 -0.6735 -0.7293
  186POPC  H12A21349   0.358   0.978   2.974  0.6605 -1.5695 -1.9468
  186POPC  H12B21350   0.417   1.110   3.062  2.4299 -0.3864  0.4125
  186POPC   C1321351   0.623   1.143   2.884 -0.8470  0.0181 -0.3330
  186POPC  H13A21352   0.699   1.077   2.924 -0.9675 -0.1147 -0.3248
  186POPC  H13B21353   0.665   1.175   2.790 -1.6241  0.4011 -0.5514
  186POPC  H13C21354   0.624   1.224   2.955 -0.1867  0.0253 -0.3436
  186POPC   C1421355   0.497   0.973   2.768  0.0765  0.3763 -0.9023
  186POPC  H14A21356   0.548   0.989   2.674 -0.5146 -1.0504 -1.4996
  186POPC  H14B21357   0.545   0.886   2.809  0.2478  0.6618 -0.4928
  186POPC  H14C21358   0.398   0.944   2.734 -0.3848 -3.8430  3.0503
  186POPC   C1521359   0.404   1.198   2.824  0.1828 -0.4721  0.0776
  186POPC  H15A21360   0.449   1.254   2.744 -0.0171 -2.2845 -1.3711
  186POPC  H15B21361   0.391   1.268   2.905 -0.9142  2.6848 -2.6363
  186POPC  H15C21362   0.307   1.159   2.798 -0.4885  0.7996  0.6039
  186POPC   C1121363   0.542   0.925   3.072  0.4530 -0.2572 -0.0943
  186POPC  H11A21364   0.500   0.904   3.173  1.2929  1.1477  0.5808
  186POPC  H11B21365   0.643   0.972   3.080  0.7412 -0.6403 -1.3146
  186POPC     P21366   0.477   0.670   3.007  0.0512 -0.0255  0.3533
  186POPC   O1321367   0.557   0.565   2.939 -0.1935  0.4419 -0.0439
  186POPC   O1421368   0.346   0.697   2.944  0.1779  0.7729 -0.3644
  186POPC   O1221369   0.556   0.804   2.994 -0.1978 -0.0545  0.1406
  186POPC   O1121370   0.477   0.643   3.160  0.4796  0.1531  0.4238
  186POPC    C121371   0.355   0.634   3.235 -0.4947 -0.4033  0.4295
  186POPC    HA21372   0.279   0.593   3.165  1.4446 -1.6815 -1.0337
  186POPC    HB21373   0.312   0.736   3.247 -0.5845 -0.1016 -1.9465
  186POPC    C221374   0.359   0.546   3.357  0.3421 -0.2729 -0.5454
  186POPC    HS21375   0.266   0.554   3.417 -0.7745 -2.7295 -1.7752
  186POPC   O2121376   0.478   0.577   3.434 -0.3764  0.2777 -0.4990
  186POPC   C2121377   0.468   0.696   3.495  0.6799 -0.3501 -0.3113
  186POPC   O2221378   0.363   0.756   3.512 -0.0333  0.0475  0.4424
  186POPC   C2221379   0.603   0.733   3.556  0.2179 -0.2643  0.1597
  186POPC   H2R21380   0.689   0.690   3.501  2.0823  1.3286  1.6764
  186POPC   H2S21381   0.611   0.687   3.657  2.9592 -0.1162  0.0826
  186POPC    C321382   0.362   0.398   3.313  0.0136  0.5036 -0.1588
  186POPC    HX21383   0.448   0.390   3.243  2.4117 -0.7600  2.7117
  186POPC    HY21384   0.265   0.370   3.266 -1.2552  1.3232  1.8393
  186POPC   O3121385   0.377   0.310   3.427 -0.4152  0.0630 -0.9311
  186POPC   C3121386   0.279   0.307   3.514 -0.9237 -0.3524 -0.0052
  186POPC   O3221387   0.174   0.369   3.503  0.2364  0.0348 -0.2758
  186POPC   C3221388   0.315   0.213   3.634  0.5049  0.4322  0.1571
  186POPC   H2X21389   0.339   0.110   3.600  0.5468  0.3649  0.3899
  186POPC   H2Y21390   0.215   0.208   3.684  0.7147 -0.3560  0.5221
  186POPC   C2321391   0.617   0.887   3.572  0.3695 -0.1724 -0.1841
  186POPC   H3R21392   0.516   0.920   3.605 -2.0973 -3.8959 -3.1381
  186POPC   H3S21393   0.629   0.933   3.471 -3.2624 -0.2191 -0.7760
  186POPC   C2421394   0.731   0.932   3.665  0.4660 -0.4371 -0.8780
  186POPC   H4R21395   0.735   1.042   3.677 -2.0604 -0.1504 -2.1367
  186POPC   H4S21396   0.823   0.902   3.610  0.5496 -2.3982  0.2340
  186POPC   C2521397   0.745   0.874   3.815 -0.3373 -0.2944  0.1299
  186POPC   H5R21398   0.841   0.905   3.860 -0.2457  1.6276 -1.2982
  186POPC   H5S21399   0.734   0.763   3.813 -3.0463 -0.1023 -0.4855
  186POPC   C2621400   0.627   0.910   3.911 -0.3573 -0.2230 -0.3053
  186POPC   H6R21401   0.536   0.870   3.860  0.7039  0.0124 -2.4994
  186POPC   H6S21402   0.621   1.020   3.918  2.2780  0.0904 -1.8235
  186POPC   C2721403   0.637   0.848   4.054  0.1262 -0.3082 -0.5278
  186POPC   H7R21404   0.654   0.743   4.022  1.8677 -1.0404  2.3926
  186POPC   H7S21405   0.541   0.859   4.110  0.9293 -0.2758  0.8714
  186POPC   C2821406   0.748   0.890   4.141 -0.4755 -0.3413 -0.0951
  186POPC   H8R21407   0.730   0.994   4.176 -1.3325 -0.6983  0.5798
  186POPC   H8S21408   0.836   0.901   4.075 -1.3770  1.5220 -1.0614
  186POPC   C2921409   0.771   0.788   4.247 -0.9096  0.0442 -0.4148
  186POPC   H9121410   0.723   0.691   4.227  0.6405 -0.7629 -0.3720
  186POPC  C21021411   0.833   0.808   4.362  1.1227  0.0402  0.3314
  186POPC  H10121412   0.845   0.736   4.444  1.0879 -0.3982 -0.0396
  186POPC  C21121413   0.892   0.942   4.408  0.3390 -0.4426 -0.3050
  186POPC  H11R21414   0.916   1.008   4.322 -0.8252  0.5097  0.0664
  186POPC  H11S21415   0.986   0.922   4.464 -0.2487 -0.0360  0.8552
  186POPC  C21221416   0.803   1.035   4.497  1.0780  0.2414  0.3999
  186POPC  H12R21417   0.721   1.078   4.436  1.7135  0.3043 -0.4304
  186POPC  H12S21418   0.858   1.125   4.530  1.0982  0.0787  0.8201
  186POPC  C21321419   0.756   0.966   4.625  0.7114  0.2657 -1.1310
  186POPC  H13R21420   0.693   0.884   4.584 -0.4794  1.1367 -1.1070
  186POPC  H13S21421   0.686   1.028   4.684  2.1841  0.4711  0.4997
  186POPC  C21421422   0.867   0.910   4.711 -0.2502  0.3363 -0.7963
  186POPC  H14R21423   0.936   0.992   4.738 -0.3357  0.0807  0.2581
  186POPC  H14S21424   0.921   0.834   4.650 -1.0133 -0.3030 -0.6986
  186POPC  C21521425   0.804   0.839   4.829  0.0198 -0.4372 -0.1335
  186POPC  H15R21426   0.825   0.730   4.820 -1.8214 -0.9193  0.7760
  186POPC  H15S21427   0.694   0.849   4.844  0.0170 -0.2376 -0.2922
  186POPC  C21621428   0.873   0.868   4.963 -0.7835  0.3125  0.2499
  186POPC  H16R21429   0.859   0.978   4.970  1.7385  0.6199  1.6936
  186POPC  H16S21430   0.981   0.846   4.949 -0.9356 -0.2738 -0.0112
  186POPC  C21721431   0.821   0.776   5.073  0.1187  0.1179  0.1947
  186POPC  H17R21432   0.848   0.672   5.045  1.0417  0.2566  0.5349
  186POPC  H17S21433   0.714   0.802   5.063 -0.0664 -0.9914 -0.9406
  186POPC  C21821434   0.868   0.806   5.216  0.4889  0.3154  0.0426
  186POPC  H18R21435   0.856   0.916   5.222  1.0673  0.7387 -3.7768
  186POPC  H18S21436   0.806   0.758   5.294  0.4071  1.2377  0.5526
  186POPC  H18T21437   0.976   0.783   5.228  0.9409  1.7360 -1.0234
  186POPC   C3321438   0.411   0.270   3.746  0.2810 -0.0920 -0.2106
  186POPC   H3X21439   0.515   0.242   3.718  1.0016  2.0962  0.0464
  186POPC   H3Y21440   0.383   0.217   3.839 -1.9196 -1.4003 -1.5161
  186POPC   C3421441   0.405   0.428   3.767  0.4814 -0.1025  0.1887
  186POPC   H4X21442   0.298   0.447   3.789  0.1646 -0.0455 -1.2603
  186POPC   H4Y21443   0.435   0.477   3.672  0.2589  0.2348  0.2882
  186POPC   C3521444   0.492   0.501   3.879 -0.6140 -0.0754  0.0225
  186POPC   H5X21445   0.471   0.610   3.873  0.8465  0.1616 -1.4938
  186POPC   H5Y21446   0.596   0.486   3.843 -0.9429 -0.5665 -0.7547
  186POPC   C3621447   0.491   0.462   4.022  0.7248 -0.1607  0.6610
  186POPC   H6X21448   0.387   0.466   4.063  1.2174 -1.4558  2.1644
  186POPC   H6Y21449   0.565   0.531   4.067  2.9183 -1.8817 -0.0938
  186POPC   C3721450   0.553   0.330   4.060  0.1566  1.2206 -0.3771
  186POPC   H7X21451   0.650   0.310   4.010 -0.4172 -3.6709 -0.0425
  186POPC   H7Y21452   0.488   0.253   4.014 -0.6898  2.1907 -0.8409
  186POPC   C3821453   0.564   0.304   4.210 -0.5437 -1.2465  0.2743
  186POPC   H8X21454   0.615   0.206   4.218  0.0001 -0.9434  0.5664
  186POPC   H8Y21455   0.462   0.296   4.253 -0.5739 -0.6026  0.3266
  186POPC   C3921456   0.638   0.406   4.291 -0.4674 -0.3413 -0.3251
  186POPC   H9X21457   0.598   0.509   4.283  2.2879  0.8581  0.3756
  186POPC   H9Y21458   0.741   0.415   4.249  0.2764 -1.6766  1.1149
  186POPC  C31021459   0.667   0.368   4.439  0.2460 -0.2015 -1.2037
  186POPC  H10X21460   0.757   0.303   4.447  0.3166 -0.2803 -2.4183
  186POPC  H10Y21461   0.582   0.319   4.490  1.4942 -1.1990 -0.0092
  186POPC  C31121462   0.697   0.502   4.513 -0.2600 -0.2152 -0.2197
  186POPC  H11X21463   0.611   0.565   4.481  0.5898  1.2806  0.3527
  186POPC  H11Y21464   0.793   0.542   4.473 -0.1301  0.1565  0.4494
  186POPC  C31221465   0.701   0.507   4.674 -0.5758 -0.1031  0.1827
  186POPC  H12X21466   0.702   0.612   4.712 -0.1906 -0.6366  1.7181
  186POPC  H12Y21467   0.796   0.457   4.703  1.0631  1.2666 -2.3758
  186POPC  C31321468   0.579   0.432   4.731 -0.0357 -0.0032  0.2829
  186POPC  H13X21469   0.575   0.326   4.700 -1.9530 -0.3180  1.4763
  186POPC  H13Y21470   0.493   0.489   4.689 -1.3423 -0.9208  1.6237
  186POPC  C31421471   0.595   0.437   4.879 -0.0407  0.4218  0.2031
  186POPC  H14X21472   0.611   0.545   4.900  1.5561  0.2522 -0.0110
  186POPC  H14Y21473   0.695   0.405   4.914  1.2516  1.1781 -2.5079
  186POPC  C31521474   0.482   0.375   4.961  1.0136 -0.3073  0.1416
  186POPC  H15X21475   0.456   0.273   4.927  2.5103 -0.6328 -0.0744
  186POPC  H15Y21476   0.393   0.440   4.947  2.6817  2.6501  2.1612
  186POPC  C31621477   0.512   0.358   5.108  0.1142  0.4743 -0.1171
  186POPC  H16X21478   0.418   0.352   5.167 -0.5654  0.8731 -1.1341
  186POPC  H16Y21479   0.573   0.442   5.146  0.2340  1.1857 -1.8145
  186POPC  H16Z21480   0.567   0.264   5.131  1.4778  1.7106  2.0159
  187POPC     N21481   4.229   3.571   2.883  0.2406  0.1524 -0.7044
  187POPC   C1221482   4.322   3.493   2.975 -0.4730 -0.0104  0.2918
  187POPC  H12A21483   4.423   3.527   2.956  0.1278 -1.0618  1.4667
  187POPC  H12B21484   4.333   3.391   2.940 -0.9943  0.2395 -0.6421
  187POPC   C1321485   4.084   3.537   2.884 -0.0176  0.0227 -0.2786
  187POPC  H13A21486   4.040   3.556   2.981 -1.9271 -0.2734 -1.0397
  187POPC  H13B21487   4.023   3.593   2.814 -1.3865 -1.1277 -0.0552
  187POPC  H13C21488   4.064   3.435   2.858  1.3977 -0.6575  1.1417
  187POPC   C1421489   4.239   3.717   2.908 -0.4406  0.2712  0.2665
  187POPC  H14A21490   4.149   3.753   2.861 -1.9432 -3.3889 -0.0239
  187POPC  H14B21491   4.233   3.739   3.013 -1.1090 -1.2544  0.5824
  187POPC  H14C21492   4.323   3.765   2.861 -0.1124  2.4179  2.7967
  187POPC   C1521493   4.269   3.543   2.744 -0.1349 -0.3901 -1.1642
  187POPC  H15A21494   4.238   3.447   2.704 -0.9530 -0.7635  0.2844
  187POPC  H15B21495   4.375   3.549   2.724  0.2302  1.0803  0.8800
  187POPC  H15C21496   4.235   3.623   2.680  1.5424  1.4512  0.1359
  187POPC   C1121497   4.292   3.486   3.124  0.1964 -0.4632  0.2280
  187POPC  H11A21498   4.372   3.421   3.166 -0.3876  0.0001  2.1390
  187POPC  H11B21499   4.194   3.434   3.132 -1.1748  2.0382  0.6300
  187POPC     P21500   4.423   3.668   3.266 -0.0526  0.4196  0.3615
  187POPC   O1321501   4.409   3.816   3.281 -0.3286 -0.2189 -0.0918
  187POPC   O1421502   4.542   3.621   3.187 -0.2330  0.2251  0.0609
  187POPC   O1221503   4.286   3.615   3.193 -0.1672  0.3099  0.0889
  187POPC   O1121504   4.418   3.591   3.403  0.4245 -0.0101 -0.1426
  187POPC    C121505   4.335   3.652   3.507 -0.0299 -0.1337  0.3238
  187POPC    HA21506   4.226   3.627   3.501 -0.6936  2.5579 -0.3348
  187POPC    HB21507   4.339   3.763   3.504  3.0505 -0.1674  0.6094
  187POPC    C221508   4.381   3.613   3.656 -0.0467  0.0130 -0.4282
  187POPC    HS21509   4.294   3.646   3.717  0.0808  1.9907 -1.2289
  187POPC   O2121510   4.494   3.696   3.686 -0.3440 -0.6978 -0.1461
  187POPC   C2121511   4.518   3.710   3.812 -0.3842 -0.2505  0.3580
  187POPC   O2221512   4.451   3.669   3.906  0.4628 -0.7357  0.3285
  187POPC   C2221513   4.652   3.777   3.831 -0.1543  0.2571  0.5244
  187POPC   H2R21514   4.656   3.834   3.926  0.5720 -0.0860  0.7011
  187POPC   H2S21515   4.674   3.843   3.744 -0.4217  0.9812  0.9960
  187POPC    C321516   4.407   3.459   3.660 -0.1511  0.7421 -0.5089
  187POPC    HX21517   4.504   3.430   3.616  0.2064  3.7339 -1.9413
  187POPC    HY21518   4.335   3.409   3.591 -0.0472 -2.4463  1.4593
  187POPC   O3121519   4.377   3.408   3.786 -0.8024  0.2596 -0.5088
  187POPC   C3121520   4.485   3.359   3.858 -0.5821  0.1947 -0.1299
  187POPC   O3221521   4.597   3.332   3.820  0.3177 -0.0792  0.1835
  187POPC   C3221522   4.438   3.342   4.008  0.0652 -0.2165  0.0039
  187POPC   H2X21523   4.339   3.292   3.994 -0.5030  1.4101 -2.6368
  187POPC   H2Y21524   4.421   3.442   4.054 -0.5294  0.1785 -1.0282
  187POPC   C2321525   4.771   3.681   3.844 -0.4744  0.0818 -0.0426
  187POPC   H3R21526   4.859   3.747   3.828  1.0231 -1.6095  0.8606
  187POPC   H3S21527   4.762   3.609   3.760 -0.2688 -0.5629  0.4839
  187POPC   C2421528   4.782   3.606   3.979  0.2500 -0.2967  0.4364
  187POPC   H4R21529   4.856   3.524   3.962  2.1610  1.4527 -0.1400
  187POPC   H4S21530   4.684   3.565   4.010 -0.9878  2.4733  0.4106
  187POPC   C2521531   4.841   3.702   4.087 -0.1538 -0.2652  0.6660
  187POPC   H5R21532   4.767   3.783   4.104 -0.1774  0.0040 -0.6201
  187POPC   H5S21533   4.938   3.738   4.049 -0.4642 -1.4746 -1.4675
  187POPC   C2621534   4.871   3.632   4.216 -0.0993  0.6511 -0.1525
  187POPC   H6R21535   4.943   3.552   4.190  0.1202  0.7888  0.0297
  187POPC   H6S21536   4.782   3.584   4.262  1.2784 -0.1936  1.7960
  187POPC   C2721537   4.938   3.734   4.304 -0.9782  0.3674 -0.5060
  187POPC   H7R21538   4.878   3.824   4.328 -1.1061  0.6923 -1.9668
  187POPC   H7S21539   5.023   3.785   4.254  0.7756  1.2031  2.9844
  187POPC   C2821540   4.993   3.667   4.427  0.5833 -0.3838  0.2953
  187POPC   H8R21541   5.078   3.603   4.394  2.0322  0.7823  1.6065
  187POPC   H8S21542   4.913   3.603   4.468  0.3419  0.1905  0.7488
  187POPC   C2921543   5.054   3.768   4.527  0.4655 -0.4947 -0.7547
  187POPC   H9121544   5.002   3.864   4.522  0.1018 -0.6516 -0.0595
  187POPC  C21021545   5.160   3.755   4.607 -0.4206 -0.3243  0.0193
  187POPC  H10121546   5.185   3.838   4.674 -1.2054 -1.7301  2.1835
  187POPC  C21121547   5.250   3.633   4.624 -0.2330  0.3744  0.4403
  187POPC  H11R21548   5.343   3.647   4.565 -1.1782  0.8399 -0.9981
  187POPC  H11S21549   5.205   3.536   4.593  1.0045 -0.9308  2.5234
  187POPC  C21221550   5.279   3.611   4.773  0.4425 -0.1356  0.7373
  187POPC  H12R21551   5.187   3.598   4.833 -0.0649 -0.7945 -0.1554
  187POPC  H12S21552   5.338   3.693   4.819 -0.3626  0.6585  0.3863
  187POPC  C21321553   5.361   3.496   4.797 -0.4267  0.1457  0.0123
  187POPC  H13R21554   5.464   3.497   4.755 -0.3147 -1.2662  0.2339
  187POPC  H13S21555   5.308   3.408   4.756 -0.4477  0.2677 -0.2273
  187POPC  C21421556   5.381   3.496   4.952  0.4260 -0.3423 -0.1438
  187POPC  H14R21557   5.282   3.492   5.001  0.4329  2.7003  0.3220
  187POPC  H14S21558   5.417   3.595   4.988 -0.7380  1.2485 -2.9748
  187POPC  C21521559   5.476   3.390   4.998 -0.5532  0.0024 -0.2736
  187POPC  H15R21560   5.556   3.382   4.922  0.4322  1.1691  0.5943
  187POPC  H15S21561   5.427   3.291   4.993 -1.5902  0.5004 -0.1357
  187POPC  C21621562   5.524   3.413   5.143 -0.0238  0.3602  0.9862
  187POPC  H16R21563   5.449   3.376   5.216  0.5389 -1.0577  0.8817
  187POPC  H16S21564   5.544   3.522   5.153  0.1699  0.8384 -2.9931
  187POPC  C21721565   5.652   3.344   5.183  0.5685  0.0113 -0.2443
  187POPC  H17R21566   5.689   3.393   5.275 -0.4028  0.8209 -0.2670
  187POPC  H17S21567   5.725   3.344   5.099 -0.3116 -2.4458 -1.1221
  187POPC  C21821568   5.626   3.199   5.222 -0.3646  0.5955 -0.5000
  187POPC  H18R21569   5.547   3.156   5.156  0.1896  0.4356 -1.0603
  187POPC  H18S21570   5.591   3.206   5.327 -0.7278  0.6031 -0.6185
  187POPC  H18T21571   5.715   3.133   5.215  1.0203  2.4184 -0.6544
  187POPC   C3321572   4.531   3.264   4.104 -0.3223 -0.1080  0.2781
  187POPC   H3X21573   4.635   3.302   4.098 -0.8527  1.3646  0.1241
  187POPC   H3Y21574   4.523   3.159   4.066 -1.0521  0.4347 -1.1442
  187POPC   C3421575   4.486   3.276   4.248  0.4088  0.4126  0.0849
  187POPC   H4X21576   4.382   3.237   4.255  0.4844  0.3420  0.9732
  187POPC   H4Y21577   4.478   3.384   4.271 -0.4836  0.4175 -0.2461
  187POPC   C3521578   4.575   3.197   4.349  0.3587  0.0298  0.2649
  187POPC   H5X21579   4.621   3.113   4.292 -1.4214 -0.5962 -0.3221
  187POPC   H5Y21580   4.515   3.145   4.427 -1.2257  0.5736 -0.5353
  187POPC   C3621581   4.685   3.281   4.405  0.0870 -0.1241 -0.7685
  187POPC   H6X21582   4.622   3.359   4.454 -0.1604 -0.7660 -0.0411
  187POPC   H6Y21583   4.743   3.327   4.323  0.9786  1.2891  0.5959
  187POPC   C3721584   4.787   3.207   4.500 -0.0636  0.2142  0.0157
  187POPC   H7X21585   4.864   3.153   4.442  0.1347  0.0025  0.4714
  187POPC   H7Y21586   4.729   3.142   4.569 -0.7431  0.8941  0.1099
  187POPC   C3821587   4.873   3.312   4.575 -0.0612 -0.1814 -0.1140
  187POPC   H8X21588   4.933   3.370   4.502  2.2143 -2.2824 -0.0071
  187POPC   H8Y21589   4.948   3.252   4.630  0.6967  0.5828 -0.2853
  187POPC   C3921590   4.792   3.402   4.674  0.3884  0.3685  0.0507
  187POPC   H9X21591   4.726   3.351   4.747 -0.3784  0.8830 -0.2693
  187POPC   H9Y21592   4.720   3.469   4.622  0.9439 -0.0154 -1.2561
  187POPC  C31021593   4.896   3.486   4.751  0.2220  0.0765 -0.4219
  187POPC  H10X21594   4.956   3.555   4.688  0.5785  0.0455 -0.1210
  187POPC  H10Y21595   4.973   3.426   4.804  1.5354  0.8468 -1.4136
  187POPC  C31121596   4.829   3.571   4.859 -0.3956  0.0431  0.2660
  187POPC  H11X21597   4.771   3.508   4.929  0.7928 -1.0982  0.2544
  187POPC  H11Y21598   4.759   3.637   4.803 -1.5778 -0.2228  1.3805
  187POPC  C31221599   4.917   3.661   4.944 -0.1683 -0.0706 -0.7715
  187POPC  H12X21600   4.857   3.749   4.973 -1.3501 -1.2272  0.4827
  187POPC  H12Y21601   4.999   3.704   4.884 -0.3041 -0.8135 -1.5056
  187POPC  C31321602   4.967   3.603   5.074 -0.7249  0.9232 -0.6057
  187POPC  H13X21603   5.024   3.511   5.048  0.7428  2.0600 -1.6080
  187POPC  H13Y21604   4.878   3.590   5.139 -0.0590  3.2533  0.9214
  187POPC  C31421605   5.060   3.704   5.147 -0.8169  0.1087  0.2591
  187POPC  H14X21606   5.000   3.797   5.151  2.0046  2.0615  4.0956
  187POPC  H14Y21607   5.152   3.728   5.089 -0.3585 -1.4754  0.2767
  187POPC  C31521608   5.110   3.681   5.290  0.6099 -0.4269 -0.9801
  187POPC  H15X21609   5.019   3.672   5.354  0.2421  1.4589 -1.1706
  187POPC  H15Y21610   5.154   3.780   5.316 -0.9014  0.5574 -1.9491
  187POPC  C31621611   5.212   3.576   5.303 -0.6968  0.2562  0.0275
  187POPC  H16X21612   5.166   3.476   5.311 -0.1643  0.1326  5.3483
  187POPC  H16Y21613   5.262   3.579   5.403  0.1489  1.4721 -0.4000
  187POPC  H16Z21614   5.295   3.569   5.230  0.8023 -2.7577  1.8172
  188POPC     N21615   5.500   6.023   2.844  0.1831 -0.2314 -0.8294
  188POPC   C1221616   5.405   6.140   2.870 -0.5576  0.3306 -0.2987
  188POPC  H12A21617   5.418   6.197   2.779  1.0561  1.1110  0.3888
  188POPC  H12B21618   5.439   6.202   2.951 -0.9721 -1.1159  1.0308
  188POPC   C1321619   5.441   5.949   2.727  0.1172  0.8912  0.5155
  188POPC  H13A21620   5.504   5.866   2.698 -0.8114 -0.1080  1.2421
  188POPC  H13B21621   5.334   5.932   2.729 -0.0186  1.2953 -1.5589
  188POPC  H13C21622   5.442   6.021   2.647 -0.5385 -1.2820 -1.5604
  188POPC   C1421623   5.642   6.068   2.806  0.7262 -0.3760 -0.4102
  188POPC  H14A21624   5.699   6.118   2.884 -0.8236  0.4266  0.2563
  188POPC  H14B21625   5.705   5.983   2.788  0.7887 -0.6742  1.1019
  188POPC  H14C21626   5.635   6.133   2.720 -1.3184 -1.1084 -0.8548
  188POPC   C1521627   5.505   5.938   2.967  0.2649  0.5034 -0.9759
  188POPC  H15A21628   5.571   5.978   3.043  1.0933 -0.2399 -1.2801
  188POPC  H15B21629   5.534   5.838   2.939 -1.4876 -0.1800 -0.4299
  188POPC  H15C21630   5.411   5.926   3.018  0.5086  0.0767 -0.6210
  188POPC   C1121631   5.253   6.116   2.895  0.2822 -0.1971 -0.1793
  188POPC  H11A21632   5.194   6.080   2.809 -0.7026 -0.9888  0.8132
  188POPC  H11B21633   5.218   6.220   2.916  3.1764  0.6651  0.8820
  188POPC     P21634   5.206   6.060   3.155 -0.2624  0.1938 -0.1335
  188POPC   O1321635   5.245   5.935   3.223  0.2468  0.1377 -0.0292
  188POPC   O1421636   5.064   6.102   3.170  0.7310  0.0491  0.2221
  188POPC   O1221637   5.243   6.033   3.004 -0.3757  0.3788  0.5774
  188POPC   O1121638   5.306   6.173   3.202  0.1365  0.4899 -0.2788
  188POPC    C121639   5.439   6.134   3.252 -0.4183  0.3627  0.6919
  188POPC    HA21640   5.523   6.175   3.193 -0.4982 -1.1054 -0.5131
  188POPC    HB21641   5.455   6.024   3.255 -0.1752  0.4010  0.7686
  188POPC    C221642   5.458   6.181   3.390  0.4571 -0.4727 -0.4995
  188POPC    HS21643   5.547   6.124   3.425  0.6054 -0.8332 -1.4307
  188POPC   O2121644   5.336   6.162   3.471  0.8201 -0.3165  0.7011
  188POPC   C2121645   5.327   6.050   3.526  0.7145  0.3856  1.0644
  188POPC   O2221646   5.420   5.970   3.536 -0.4344 -0.1541 -0.3668
  188POPC   C2221647   5.178   6.020   3.574  0.2972 -1.0110 -0.1460
  188POPC   H2R21648   5.112   5.998   3.488 -0.5934 -2.2691  0.8206
  188POPC   H2S21649   5.143   6.119   3.610  0.9631 -0.6378 -0.5145
  188POPC    C321650   5.485   6.329   3.398 -0.1250  0.3557  0.0618
  188POPC    HX21651   5.398   6.371   3.343  0.5299 -1.0675 -2.1662
  188POPC    HY21652   5.568   6.354   3.329 -0.1611 -0.3940 -0.2571
  188POPC   O3121653   5.517   6.377   3.528 -0.3121  0.7138  0.1188
  188POPC   C3121654   5.549   6.503   3.540  0.1041  0.1515  0.6350
  188POPC   O3221655   5.549   6.579   3.447 -0.0579 -0.2950  0.0693
  188POPC   C3221656   5.604   6.528   3.679  0.1410  0.4355  0.5261
  188POPC   H2X21657   5.708   6.490   3.681  0.7195  1.8371 -0.7977
  188POPC   H2Y21658   5.549   6.464   3.751  1.3990  1.5757  2.6214
  188POPC   C2321659   5.175   5.918   3.688  0.3598 -0.0552  0.6685
  188POPC   H3R21660   5.227   5.960   3.777 -0.8208  0.6081  1.0673
  188POPC   H3S21661   5.219   5.821   3.657 -0.9202 -0.9966  1.6651
  188POPC   C2421662   5.033   5.879   3.730 -0.7128 -0.4041  0.6192
  188POPC   H4R21663   5.038   5.804   3.812 -0.4819 -1.1916 -0.1103
  188POPC   H4S21664   4.983   5.836   3.641 -0.1488  1.0553 -0.4338
  188POPC   C2521665   4.934   5.985   3.761  0.8610  0.1580  0.4220
  188POPC   H5R21666   4.848   5.928   3.803  0.3244  0.8885  0.3278
  188POPC   H5S21667   4.891   6.038   3.673  0.6608 -1.1642 -0.3087
  188POPC   C2621668   4.971   6.083   3.873 -0.0956  0.7345 -0.2234
  188POPC   H6R21669   5.068   6.128   3.843  0.3942  1.1128  1.7786
  188POPC   H6S21670   4.975   6.036   3.974  0.6959 -0.0988 -0.6286
  188POPC   C2721671   4.859   6.186   3.885  0.2134 -0.0210 -0.0772
  188POPC   H7R21672   4.771   6.130   3.923 -0.9784  0.7868 -1.5263
  188POPC   H7S21673   4.839   6.225   3.783 -0.3128  0.2540  0.1250
  188POPC   C2821674   4.887   6.299   3.983 -0.2224 -0.2509  0.4685
  188POPC   H8R21675   4.979   6.356   3.958  0.0522 -0.8544  0.0721
  188POPC   H8S21676   4.912   6.243   4.076  0.7089 -0.0582  0.3497
  188POPC   C2921677   4.782   6.404   3.999 -0.6027 -0.9057 -1.1006
  188POPC   H9121678   4.777   6.468   3.910 -0.0952 -2.1278 -2.0347
  188POPC  C21021679   4.723   6.433   4.118 -0.0246 -0.0457 -0.6941
  188POPC  H10121680   4.677   6.533   4.130  1.4624  0.4602  1.4903
  188POPC  C21121681   4.738   6.356   4.249 -0.0685 -0.1275  0.0403
  188POPC  H11R21682   4.808   6.269   4.246 -0.0505 -0.2327  2.1377
  188POPC  H11S21683   4.639   6.315   4.276 -0.7932  0.0519 -2.1163
  188POPC  C21221684   4.782   6.452   4.369 -0.4537 -0.1854 -0.0476
  188POPC  H12R21685   4.698   6.525   4.380  0.1415  0.9128 -2.1164
  188POPC  H12S21686   4.872   6.512   4.345 -0.5485  0.2930  0.7725
  188POPC  C21321687   4.806   6.379   4.502 -0.8641  0.6600  0.3087
  188POPC  H13R21688   4.896   6.316   4.486  0.2849  1.5611  2.7226
  188POPC  H13S21689   4.714   6.319   4.522 -1.0658  0.8495 -0.0365
  188POPC  C21421690   4.820   6.471   4.625 -0.2377 -0.4094 -0.2330
  188POPC  H14R21691   4.726   6.525   4.644 -0.0133  0.0597 -0.4357
  188POPC  H14S21692   4.905   6.540   4.603 -0.1146 -1.3170 -3.0428
  188POPC  C21521693   4.849   6.402   4.756 -0.5353  0.1182 -0.3408
  188POPC  H15R21694   4.937   6.335   4.745 -0.0499  0.6038  0.4888
  188POPC  H15S21695   4.764   6.343   4.796  0.7717 -2.6103 -1.3472
  188POPC  C21621696   4.886   6.501   4.873 -0.1933  0.4709 -0.1939
  188POPC  H16R21697   4.800   6.563   4.907 -0.8912 -0.5012 -0.1465
  188POPC  H16S21698   4.965   6.571   4.838  1.4145 -2.2132 -2.3112
  188POPC  C21721699   4.937   6.413   4.993  0.0925 -0.3212 -0.1647
  188POPC  H17R21700   5.023   6.353   4.955  1.0517  0.3785  0.8130
  188POPC  H17S21701   4.871   6.331   5.028  1.1124 -0.5573  1.3171
  188POPC  C21821702   4.971   6.492   5.116  0.2812 -0.0710  0.3526
  188POPC  H18R21703   4.886   6.547   5.162  0.7390  0.9295  0.0291
  188POPC  H18S21704   5.048   6.570   5.097 -1.1262  0.9408 -1.4959
  188POPC  H18T21705   5.014   6.420   5.190  2.0059 -1.3011 -1.7113
  188POPC   C3321706   5.610   6.682   3.723  0.0372  0.2856  0.5199
  188POPC   H3X21707   5.509   6.715   3.755  0.6514  1.0488  1.7456
  188POPC   H3Y21708   5.644   6.743   3.637 -0.2736  0.5855  0.6059
  188POPC   C3421709   5.717   6.706   3.842  0.2268 -0.0321  0.1531
  188POPC   H4X21710   5.735   6.815   3.859 -2.5997  0.3776  1.0556
  188POPC   H4Y21711   5.816   6.664   3.818 -0.8451 -1.7885 -1.4490
  188POPC   C3521712   5.676   6.647   3.983  0.3269 -0.1034 -0.8713
  188POPC   H5X21713   5.656   6.539   3.967 -0.3972 -0.0744 -0.2647
  188POPC   H5Y21714   5.581   6.701   4.004 -0.4924 -1.0528 -2.0341
  188POPC   C3621715   5.771   6.676   4.095 -0.2377 -0.0339 -0.1030
  188POPC   H6X21716   5.764   6.782   4.126  0.4566 -0.6558  2.4703
  188POPC   H6Y21717   5.873   6.649   4.059 -1.1827 -2.4365 -1.1839
  188POPC   C3721718   5.736   6.601   4.227  0.3246 -0.1998 -0.0621
  188POPC   H7X21719   5.742   6.492   4.209  1.6721  0.0338 -1.2425
  188POPC   H7Y21720   5.634   6.627   4.263 -0.1083 -1.8146 -0.0777
  188POPC   C3821721   5.818   6.621   4.361  0.1318  0.4128 -0.0514
  188POPC   H8X21722   5.894   6.701   4.348 -1.0017  1.7133  0.9864
  188POPC   H8Y21723   5.878   6.531   4.385  2.0828  1.9322  1.1026
  188POPC   C3921724   5.731   6.672   4.477 -0.0071 -0.4811 -0.5394
  188POPC   H9X21725   5.654   6.592   4.486  2.0518 -2.5101 -0.3178
  188POPC   H9Y21726   5.679   6.770   4.467  0.3594 -0.2036  0.2375
  188POPC  C31021727   5.797   6.669   4.618  0.0491 -0.2118 -0.2436
  188POPC  H10X21728   5.883   6.739   4.610 -1.6329  1.7617 -2.2452
  188POPC  H10Y21729   5.848   6.570   4.629  2.4622  0.9633 -0.1998
  188POPC  C31121730   5.698   6.697   4.725  0.4253 -0.7609  0.1779
  188POPC  H11X21731   5.624   6.615   4.735  1.8493 -1.8192  3.9258
  188POPC  H11Y21732   5.654   6.794   4.695  1.0485 -0.5325 -0.0101
  188POPC  C31221733   5.753   6.714   4.869 -0.4227 -0.4897  0.7770
  188POPC  H12X21734   5.671   6.737   4.941 -0.2817  0.2583  0.7096
  188POPC  H12Y21735   5.833   6.791   4.872 -1.6156  0.9483 -1.6580
  188POPC  C31321736   5.823   6.589   4.924  0.2864  0.2465  0.3599
  188POPC  H13X21737   5.888   6.542   4.848  0.8770 -1.4283  1.8247
  188POPC  H13Y21738   5.741   6.516   4.942  0.0003  0.6978  0.9059
  188POPC  C31421739   5.899   6.609   5.055 -0.0570  0.4497 -0.7207
  188POPC  H14X21740   5.961   6.701   5.055  2.3951 -1.0844  0.0245
  188POPC  H14Y21741   5.958   6.519   5.083  2.7614  2.1928 -0.7247
  188POPC  C31521742   5.797   6.641   5.175  0.5880 -0.2215  0.3229
  188POPC  H15X21743   5.838   6.582   5.260 -1.0283 -0.6602  0.8340
  188POPC  H15Y21744   5.698   6.604   5.141  0.7548 -0.8270  0.4750
  188POPC  C31621745   5.788   6.787   5.211 -0.3690  1.2128 -0.4682
  188POPC  H16X21746   5.762   6.852   5.125 -2.3719  2.2172  0.8174
  188POPC  H16Y21747   5.882   6.828   5.256  0.5373 -0.9179 -0.3061
  188POPC  H16Z21748   5.710   6.803   5.289  0.6432  1.2786  0.5617
  189SAPI   C1221749   6.490   3.498   8.164 -0.3988 -0.3678 -0.0941
  189SAPI    H221750   6.589   3.502   8.113 -0.3621 -3.7140 -0.5055
  189SAPI    O221751   6.418   3.375   8.133  0.2098  0.1218 -0.7887
  189SAPI   HO221752   6.458   3.332   8.058  0.6427  0.7654 -0.9346
  189SAPI   C1321753   6.524   3.508   8.318  0.0919  0.7281 -0.0603
  189SAPI    H321754   6.583   3.600   8.335  1.6454  0.0310 -1.3724
  189SAPI    O321755   6.601   3.389   8.353  0.1084 -0.2465 -0.1772
  189SAPI   HO321756   6.570   3.306   8.316  2.6974 -1.1443 -0.5083
  189SAPI   C1421757   6.395   3.506   8.396 -0.1758  0.2595  0.2957
  189SAPI    H421758   6.354   3.404   8.386  0.7299  0.0202 -1.1600
  189SAPI    O421759   6.416   3.523   8.536  0.1053  0.1348  0.2740
  189SAPI   HO421760   6.399   3.440   8.581 -0.9648 -0.1448 -0.6205
  189SAPI   C1521761   6.279   3.600   8.346 -0.0540  0.4670  0.2115
  189SAPI    H521762   6.300   3.694   8.402  1.3695 -0.3709  1.1372
  189SAPI    O521763   6.152   3.544   8.383 -0.1539  0.5156  0.6213
  189SAPI   HO521764   6.104   3.621   8.414 -0.2688  0.3095  0.9526
  189SAPI   C1621765   6.288   3.636   8.198 -0.4955 -0.4267  1.2835
  189SAPI    H621766   6.224   3.558   8.151 -0.5296 -0.5722  1.5700
  189SAPI    O621767   6.230   3.767   8.178 -0.7243 -0.1632 -0.0474
  189SAPI   HO621768   6.145   3.765   8.134 -1.2772  1.2582  0.9237
  189SAPI   C1121769   6.417   3.632   8.133 -0.2688 -0.2730 -0.0815
  189SAPI    H121770   6.465   3.718   8.185 -1.9158 -1.5170  3.8999
  189SAPI     P21771   6.516   3.686   7.876 -0.2429 -0.2152  0.1459
  189SAPI   O1321772   6.480   3.642   7.741 -0.3395  0.3997  0.7860
  189SAPI   O1421773   6.656   3.659   7.921 -0.7166 -0.8025  0.0375
  189SAPI   O1221774   6.407   3.645   7.990 -0.5296  0.3427  0.5342
  189SAPI   O1121775   6.498   3.847   7.878 -0.4101  0.1684 -0.4173
  189SAPI    C121776   6.398   3.920   7.811 -0.2881  0.2373  0.0843
  189SAPI    HA21777   6.308   3.858   7.794  0.0454 -0.3575  0.4639
  189SAPI    HB21778   6.358   3.996   7.882 -2.8608 -0.9572  0.0129
  189SAPI    C221779   6.450   3.994   7.682 -1.1583  0.0503  0.1732
  189SAPI    HS21780   6.373   4.068   7.654 -0.0804  1.2312  0.2300
  189SAPI   O2121781   6.472   3.900   7.575 -0.1296 -0.0234 -0.6550
  189SAPI   C2121782   6.360   3.846   7.530 -0.0658  0.6465  0.0521
  189SAPI   O2221783   6.249   3.889   7.550 -1.1413  0.3448 -0.5201
  189SAPI   C2221784   6.388   3.718   7.450 -0.3132  0.4740  0.7112
  189SAPI   H2R21785   6.411   3.641   7.527 -0.1412  0.4944  0.6799
  189SAPI   H2S21786   6.294   3.691   7.398  0.2189 -0.0151 -0.0080
  189SAPI    C321787   6.592   4.048   7.714 -0.3359  0.2498 -0.5045
  189SAPI    HX21788   6.649   3.963   7.756  0.3286  0.7785 -0.3275
  189SAPI    HY21789   6.593   4.131   7.788 -2.5410 -1.0475  1.0932
  189SAPI   O3121790   6.668   4.097   7.607  0.3263  0.5429 -0.5628
  189SAPI   C3121791   6.623   4.208   7.546 -0.5884  0.3214 -0.6892
  189SAPI   O3221792   6.528   4.275   7.584 -0.1956 -0.3352  0.5663
  189SAPI   C3221793   6.699   4.236   7.418 -0.6651  0.5050  0.5392
  189SAPI   H2X21794   6.727   4.137   7.376 -0.3552 -0.3618  2.6718
  189SAPI   H2Y21795   6.786   4.303   7.430 -0.4768  0.1789  1.0501
  189SAPI   C2321796   6.502   3.738   7.338 -0.5580 -0.4581 -0.5509
  189SAPI   H3R21797   6.600   3.735   7.391 -1.9122  0.5452  2.2401
  189SAPI   H3S21798   6.496   3.840   7.295 -1.0712  0.0128  0.5793
  189SAPI   C2421799   6.481   3.632   7.240 -0.5309 -1.0443 -0.4041
  189SAPI   H4R21800   6.390   3.667   7.185  1.0755  0.4093 -2.2951
  189SAPI   H4S21801   6.461   3.529   7.276 -0.2590 -1.6090 -1.8124
  189SAPI   C2521802   6.604   3.633   7.146 -0.1986  0.9436  0.5686
  189SAPI   H5R21803   6.693   3.590   7.193 -1.3256 -1.5580  0.5838
  189SAPI   C2621804   6.615   3.671   7.014  0.3867 -0.1195 -0.5207
  189SAPI   H6R21805   6.713   3.666   6.965  0.8075  0.2497  0.2721
  189SAPI   C2721806   6.510   3.738   6.933 -0.4714  0.3688 -0.5836
  189SAPI   H7R21807   6.558   3.789   6.847  0.0609 -0.8866 -1.0558
  189SAPI   H7S21808   6.478   3.820   7.001  0.7384 -0.6850  1.3442
  189SAPI   C2821809   6.387   3.664   6.893 -0.2028  0.0031 -0.0802
  189SAPI   H8R21810   6.347   3.604   6.976  1.6461 -1.8522 -0.4252
  189SAPI   C2921811   6.318   3.662   6.775  0.0002 -0.2610  0.5070
  189SAPI   H9R21812   6.234   3.591   6.772 -1.0125  0.8852  0.5749
  189SAPI  C21021813   6.362   3.746   6.653  0.5504  0.4472 -0.4546
  189SAPI  H10R21814   6.472   3.752   6.646  0.6275 -0.4980 -0.1813
  189SAPI  H10S21815   6.326   3.850   6.670 -0.6313 -0.2279  1.4810
  189SAPI  C21121816   6.294   3.689   6.530 -0.5189  0.6601 -0.1408
  189SAPI  H11R21817   6.186   3.709   6.526 -0.6805 -0.3449 -2.6194
  189SAPI  C21221818   6.354   3.629   6.425 -0.2956  0.3441  0.2290
  189SAPI  H12R21819   6.280   3.594   6.352 -0.6713  2.3792 -0.4345
  189SAPI  C21321820   6.505   3.596   6.403  0.2235 -0.2015 -0.3081
  189SAPI  H13R21821   6.503   3.494   6.360  0.3150 -0.0316 -0.7268
  189SAPI  H13S21822   6.565   3.586   6.496 -0.3169 -3.3538 -0.1832
  189SAPI  C21421823   6.560   3.698   6.306 -0.2748  0.2036 -0.9718
  189SAPI  H14R21824   6.629   3.766   6.358 -1.4739 -0.8942  2.3901
  189SAPI  C21521825   6.551   3.696   6.171  0.6221 -0.0306  0.4096
  189SAPI  H15R21826   6.625   3.759   6.120  0.1383  0.9734  0.9237
  189SAPI  C21621827   6.465   3.599   6.085  0.4431  0.2764  0.2403
  189SAPI  H16R21828   6.394   3.542   6.148 -0.4647  1.3058  0.1807
  189SAPI  H16S21829   6.530   3.522   6.039 -0.7715 -0.6004 -0.0512
  189SAPI  C21721830   6.376   3.652   5.967  0.0670 -0.5687  0.4760
  189SAPI  H17R21831   6.314   3.735   6.006  1.8147  1.5165 -0.9714
  189SAPI  H17S21832   6.299   3.577   5.939 -0.8629  0.6660 -0.3749
  189SAPI  C21821833   6.459   3.691   5.841  0.2081  0.8801 -0.0660
  189SAPI  H18R21834   6.504   3.598   5.801  0.3327  1.4500 -1.2815
  189SAPI  H18S21835   6.547   3.757   5.857 -0.1743  1.6061 -0.8619
  189SAPI  C21921836   6.376   3.754   5.733 -0.4749 -0.5277  0.4979
  189SAPI  H19R21837   6.435   3.759   5.639  0.1069 -1.2495  0.8159
  189SAPI  H19S21838   6.339   3.849   5.776  2.0334  0.0243  1.6074
  189SAPI  C22021839   6.247   3.669   5.700  0.9114  0.3343  0.6233
  189SAPI  H20R21840   6.155   3.696   5.755 -0.1825 -2.3850  0.2956
  189SAPI  H20S21841   6.275   3.561   5.700  0.2479  0.1420  1.8639
  189SAPI  H20T21842   6.208   3.687   5.597 -0.1489 -0.9493  0.7691
  189SAPI   C3321843   6.610   4.305   7.305 -0.0380  0.4270  0.3337
  189SAPI   H3X21844   6.587   4.413   7.320 -0.3393  0.6570 -1.4759
  189SAPI   H3Y21845   6.508   4.262   7.291 -2.1292  4.9014 -0.1939
  189SAPI   C3421846   6.680   4.306   7.161 -0.6952  0.3880  0.8370
  189SAPI   H4X21847   6.739   4.212   7.157  1.1119  1.4784 -2.4584
  189SAPI   H4Y21848   6.755   4.388   7.161 -0.9815  0.6576  0.2861
  189SAPI   C3521849   6.582   4.330   7.046 -0.0594 -0.5403 -0.5038
  189SAPI   H5X21850   6.507   4.249   7.056  1.3005 -2.1668 -2.6694
  189SAPI   H5Y21851   6.649   4.329   6.957  0.7600  0.9166  0.0518
  189SAPI   C3621852   6.524   4.466   7.061  0.3895  0.2155  0.9791
  189SAPI   H6X21853   6.594   4.543   7.099  1.3417  1.0211 -2.1313
  189SAPI   H6Y21854   6.442   4.463   7.137  1.4317  1.2304  2.2062
  189SAPI   C3721855   6.472   4.523   6.926 -0.0173  0.1397 -0.6490
  189SAPI   H7X21856   6.428   4.623   6.948  0.6326  0.2828  0.0511
  189SAPI   H7Y21857   6.402   4.443   6.893  1.4814 -0.8873 -1.4983
  189SAPI   C3821858   6.576   4.548   6.816  0.0728  0.3111  0.2757
  189SAPI   H8X21859   6.623   4.457   6.774 -3.2403 -0.5829 -1.9362
  189SAPI   H8Y21860   6.652   4.599   6.879 -0.9053  0.4489  1.3805
  189SAPI   C3921861   6.536   4.636   6.699  0.2333 -0.3648  0.3482
  189SAPI   H9X21862   6.482   4.728   6.731 -0.9836 -0.7491 -0.5276
  189SAPI   H9Y21863   6.482   4.594   6.611  3.8758  1.0574 -2.8894
  189SAPI  C31021864   6.667   4.688   6.642  0.4517 -0.4298  0.0658
  189SAPI  H10X21865   6.722   4.602   6.597 -0.0546 -0.9490  0.4256
  189SAPI  H10Y21866   6.731   4.704   6.731  0.0206 -2.7642  0.8666
  189SAPI  C31121867   6.647   4.813   6.554  0.2165  0.5534  0.3351
  189SAPI  H11X21868   6.750   4.852   6.539 -0.3957  1.4959 -1.7006
  189SAPI  H11Y21869   6.591   4.891   6.611  1.5815 -0.8221  3.8479
  189SAPI  C31221870   6.580   4.785   6.416  0.4848  0.3706  0.2215
  189SAPI  H12X21871   6.477   4.744   6.430  1.1825 -1.2100  0.9149
  189SAPI  H12Y21872   6.651   4.713   6.371 -0.2895 -1.0628  1.2114
  189SAPI  C31321873   6.563   4.918   6.323  0.8664  0.4446  0.7801
  189SAPI  H13X21874   6.653   4.976   6.350  0.4156  0.6998  1.8071
  189SAPI  H13Y21875   6.481   4.978   6.368  0.0667 -1.4757  2.0373
  189SAPI  C31421876   6.546   4.906   6.173  0.2329  0.6842  0.3108
  189SAPI  H14X21877   6.570   5.003   6.126 -1.8103  0.4760 -1.2846
  189SAPI  H14Y21878   6.439   4.887   6.152 -0.2625  2.1570  1.3439
  189SAPI  C31521879   6.629   4.787   6.117  0.1609 -0.1028 -0.5737
  189SAPI  H15X21880   6.583   4.698   6.164 -0.9523  1.0395  0.6047
  189SAPI  H15Y21881   6.732   4.799   6.156 -0.5604  0.9307  1.1697
  189SAPI  C31621882   6.626   4.773   5.958  0.4651  0.4364 -0.9273
  189SAPI  H16X21883   6.721   4.721   5.933  1.7042  1.5167  1.2283
  189SAPI  H16Y21884   6.637   4.877   5.920 -0.3460  0.1667 -1.9553
  189SAPI  C31721885   6.508   4.702   5.905  0.8275  0.3403  0.0672
  189SAPI  H17X21886   6.520   4.691   5.795  1.9708 -3.2242  0.4125
  189SAPI  H17Y21887   6.415   4.759   5.926 -0.7172 -1.2990 -2.0147
  189SAPI  C31821888   6.490   4.557   5.946  1.2708  0.3285  0.3418
  189SAPI  H18X21889   6.462   4.547   6.054 -2.1419 -0.3950 -0.4878
  189SAPI  H18Y21890   6.584   4.500   5.929  0.8584 -0.8151  1.6231
  189SAPI  H18Z21891   6.409   4.517   5.882  2.7009 -0.1691 -1.2042
  190SAPI   C1221892   0.005   2.966   8.037  0.0230 -0.3532 -0.5959
  190SAPI    H221893   0.036   2.864   8.069 -1.4683 -1.0048 -1.0903
  190SAPI    O221894  -0.133   2.959   8.029  0.5343 -0.0100  0.4086
  190SAPI   HO221895  -0.155   2.985   7.939 -1.1120 -1.3115  0.3855
  190SAPI   C1321896   0.054   3.075   8.132 -0.0272  0.5645 -0.2775
  190SAPI    H321897   0.163   3.076   8.111 -0.4093  3.1788 -2.7387
  190SAPI    O321898   0.029   3.038   8.273  0.7613 -0.1106  0.1064
  190SAPI   HO321899   0.077   3.091   8.337 -0.4620  0.7346  0.3536
  190SAPI   C1421900  -0.011   3.210   8.094  0.1017 -0.3789  0.1604
  190SAPI    H421901  -0.119   3.188   8.109 -0.0195 -2.8282 -3.1267
  190SAPI    O421902   0.019   3.319   8.186 -0.6470  0.7771  0.1709
  190SAPI   HO421903  -0.052   3.327   8.250  0.2521 -1.2862  1.5355
  190SAPI   C1521904   0.019   3.243   7.948 -0.0902  0.1880  0.3193
  190SAPI    H521905   0.116   3.293   7.967  1.0697 -1.6358 -0.5386
  190SAPI    O521906  -0.064   3.343   7.897 -0.1993  0.5728  0.4484
  190SAPI   HO521907  -0.156   3.320   7.914  0.1257 -2.4004 -1.1484
  190SAPI   C1621908   0.045   3.135   7.840 -0.2903 -0.4359 -0.2825
  190SAPI    H621909  -0.048   3.118   7.782  0.4469 -1.9595 -1.0917
  190SAPI    O621910   0.135   3.181   7.743 -0.2717 -0.3902  0.4589
  190SAPI   HO621911   0.085   3.241   7.687  0.6489 -0.7305 -0.7635
  190SAPI   C1121912   0.072   2.995   7.898 -0.6716 -0.3150  0.2568
  190SAPI    H121913   0.181   2.988   7.918  0.0967  1.6145 -2.6751
  190SAPI     P21914   0.106   2.762   7.759  0.0437  0.2540  0.3313
  190SAPI   O1321915   0.016   2.660   7.694 -0.3301  0.2204  0.3311
  190SAPI   O1421916   0.186   2.718   7.879 -0.0606 -0.4319 -0.0280
  190SAPI   O1221917   0.023   2.899   7.801 -0.2049  1.1823  0.6050
  190SAPI   O1121918   0.198   2.820   7.636  0.5436  0.4454 -0.0674
  190SAPI    C121919   0.130   2.892   7.541 -0.1219  0.3654 -0.1887
  190SAPI    HA21920   0.037   2.840   7.507 -1.0448  0.1207  2.4562
  190SAPI    HB21921   0.095   2.993   7.572 -0.3763  0.0438  0.6041
  190SAPI    C221922   0.218   2.926   7.411 -0.4708  0.0796  0.5213
  190SAPI    HS21923   0.159   2.986   7.339 -0.2114 -0.5004 -0.1797
  190SAPI   O2121924   0.265   2.803   7.347 -0.0847 -0.2824 -0.0042
  190SAPI   C2121925   0.271   2.798   7.219 -0.7293 -0.1899  0.4345
  190SAPI   O2221926   0.228   2.880   7.137  0.2076  0.4517 -0.0025
  190SAPI   C2221927   0.341   2.670   7.184 -0.4520  0.2375 -0.4179
  190SAPI   H2R21928   0.443   2.669   7.228  0.0967 -1.5169 -1.6335
  190SAPI   H2S21929   0.269   2.595   7.223 -0.9206  0.5153 -0.7328
  190SAPI    C321930   0.339   3.012   7.458  0.7316  0.0432 -0.1980
  190SAPI    HX21931   0.407   2.941   7.510  0.0856 -0.5293 -0.1126
  190SAPI    HY21932   0.288   3.082   7.527 -1.1328 -1.3624 -0.0666
  190SAPI   O3121933   0.390   3.089   7.357 -0.6521 -0.3537  0.1078
  190SAPI   C3121934   0.502   3.047   7.306  0.4775  0.4259  0.9317
  190SAPI   O3221935   0.556   2.944   7.331  0.2402 -0.3748  0.2196
  190SAPI   C3221936   0.549   3.127   7.184 -0.1772  0.6773 -0.7312
  190SAPI   H2X21937   0.660   3.138   7.188  0.0667 -1.3936 -0.4047
  190SAPI   H2Y21938   0.513   3.232   7.187 -0.9684  0.4215 -1.0546
  190SAPI   C2321939   0.343   2.649   7.033  0.4482 -0.4535  0.2500
  190SAPI   H3R21940   0.413   2.563   7.019  2.0504  0.2943  2.9602
  190SAPI   H3S21941   0.380   2.734   6.971 -1.7322 -2.1100 -3.7086
  190SAPI   C2421942   0.207   2.602   6.978 -0.1775 -0.4919 -0.4968
  190SAPI   H4R21943   0.132   2.680   7.002 -0.4038 -0.6308 -0.7343
  190SAPI   H4S21944   0.172   2.505   7.019  0.4741 -2.6050 -4.4386
  190SAPI   C2521945   0.193   2.574   6.830 -0.3124 -0.1273  0.3536
  190SAPI   H5R21946   0.181   2.469   6.800 -2.0504  0.1983 -0.1945
  190SAPI   C2621947   0.190   2.673   6.735 -0.2823 -0.8438 -0.7893
  190SAPI   H6R21948   0.189   2.641   6.630  1.7360 -0.1691 -1.0619
  190SAPI   C2721949   0.193   2.828   6.760  0.5175  0.1716  0.2595
  190SAPI   H7R21950   0.242   2.884   6.677 -0.2797  3.2120  1.7107
  190SAPI   H7S21951   0.261   2.838   6.848  1.9217 -0.4201 -0.7117
  190SAPI   C2821952   0.059   2.890   6.793 -0.0388  1.0482 -0.2607
  190SAPI   H8R21953   0.047   2.932   6.894  0.9591  0.9397 -0.0853
  190SAPI   C2921954  -0.046   2.918   6.711 -0.2498  0.1939 -0.4759
  190SAPI   H9R21955  -0.135   2.970   6.750 -2.2126 -3.6548  0.6573
  190SAPI  C21021956  -0.057   2.881   6.562  0.5355  0.1902  0.1649
  190SAPI  H10R21957  -0.152   2.824   6.551  1.6600 -1.5568 -1.1253
  190SAPI  H10S21958   0.019   2.804   6.535  0.2756 -0.8359  2.1497
  190SAPI  C21121959  -0.047   2.994   6.459  0.0284 -0.4065 -0.4352
  190SAPI  H11R21960   0.002   3.080   6.507 -0.0106 -0.8138  0.3448
  190SAPI  C21221961  -0.057   2.982   6.323  0.3516  0.4828 -0.0476
  190SAPI  H12R21962  -0.041   3.063   6.251 -0.9230 -0.9965 -2.1086
  190SAPI  C21321963  -0.112   2.861   6.249 -0.0979  0.0618  0.4841
  190SAPI  H13R21964  -0.139   2.893   6.146 -1.0829 -1.4084  0.2583
  190SAPI  H13S21965  -0.210   2.833   6.293 -0.8092 -1.0449 -1.7048
  190SAPI  C21421966  -0.022   2.736   6.254  0.3014  0.0205 -0.0536
  190SAPI  H14R21967   0.023   2.713   6.352  2.0949 -3.0646 -1.4603
  190SAPI  C21521968   0.018   2.665   6.146  0.6503  0.4289 -0.1466
  190SAPI  H15R21969   0.069   2.570   6.167 -0.2865 -1.2155 -4.3301
  190SAPI  C21621970  -0.031   2.676   5.999  0.4308 -0.3346  0.4918
  190SAPI  H16R21971  -0.102   2.760   5.988  1.3466  0.3374 -0.4609
  190SAPI  H16S21972  -0.088   2.584   5.973 -0.8797  0.8475 -0.9750
  190SAPI  C21721973   0.070   2.685   5.884  0.7091 -0.2074  0.0059
  190SAPI  H17R21974   0.125   2.591   5.863 -3.0066 -2.6401  0.2638
  190SAPI  H17S21975   0.157   2.750   5.909 -0.3710  1.7028 -0.9444
  190SAPI  C21821976   0.015   2.711   5.744 -0.4997  0.2425 -0.1438
  190SAPI  H18R21977  -0.036   2.810   5.747 -1.0512  0.0589 -2.2688
  190SAPI  H18S21978  -0.062   2.634   5.724  0.7779 -1.2922  0.6279
  190SAPI  C21921979   0.120   2.716   5.637 -0.1760  0.9953 -0.2920
  190SAPI  H19R21980   0.188   2.629   5.654  0.1485  0.9680 -1.6293
  190SAPI  H19S21981   0.183   2.805   5.656  0.8611  0.2948 -0.3615
  190SAPI  C22021982   0.080   2.709   5.487  0.5205  0.5549  0.7700
  190SAPI  H20R21983   0.170   2.709   5.422 -0.1227 -2.4545 -0.2901
  190SAPI  H20S21984   0.018   2.793   5.452  1.6759 -0.1081 -3.3054
  190SAPI  H20T21985   0.047   2.607   5.459 -0.4132  0.6552  1.4605
  190SAPI   C3321986   0.502   3.061   7.053 -0.5654  0.5777  0.6097
  190SAPI   H3X21987   0.392   3.041   7.060 -0.5263  0.1304 -0.0205
  190SAPI   H3Y21988   0.543   2.960   7.034 -0.5544  0.8697 -1.0133
  190SAPI   C3421989   0.535   3.149   6.932 -0.6153  0.1508  0.2583
  190SAPI   H4X21990   0.646   3.158   6.926 -0.4455 -1.7826  0.1645
  190SAPI   H4Y21991   0.497   3.253   6.947  0.8689  0.7998 -0.1952
  190SAPI   C3521992   0.482   3.083   6.802 -0.1360  0.4672  0.6670
  190SAPI   H5X21993   0.371   3.077   6.797 -0.2262 -0.6287  2.7175
  190SAPI   H5Y21994   0.525   2.981   6.812 -1.4808 -0.3547 -1.2332
  190SAPI   C3621995   0.533   3.155   6.673 -0.1458  0.0229 -0.1395
  190SAPI   H6X21996   0.643   3.140   6.670  0.0109  1.1167  0.0031
  190SAPI   H6Y21997   0.510   3.263   6.673 -0.6477 -0.0724  0.7489
  190SAPI   C3721998   0.456   3.092   6.547 -0.2115  0.2362 -0.4142
  190SAPI   H7X21999   0.475   3.166   6.466 -1.8449 -0.2144 -1.2375
  190SAPI   H7Y22000   0.346   3.093   6.559 -0.5343 -0.9397 -2.8134
  190SAPI   C3822001   0.481   2.944   6.512 -0.2424 -0.1071  0.1700
  190SAPI   H8X22002   0.432   2.881   6.588 -0.2731 -0.2585  0.0266
  190SAPI   H8Y22003   0.591   2.929   6.519 -0.2770 -0.4587 -0.0173
  190SAPI   C3922004   0.427   2.910   6.372  0.1132 -0.0352 -0.1376
  190SAPI   H9X22005   0.497   2.969   6.309  1.0819 -1.1392 -0.1253
  190SAPI   H9Y22006   0.327   2.953   6.351 -1.3329 -2.5685  1.1149
  190SAPI  C31022007   0.426   2.767   6.321  0.2050 -0.2435 -0.3775
  190SAPI  H10X22008   0.344   2.702   6.356 -0.3834 -0.7224 -2.4802
  190SAPI  H10Y22009   0.524   2.727   6.354  0.2438 -0.4815 -0.7787
  190SAPI  C31122010   0.417   2.765   6.165 -0.1671 -0.1575  0.6439
  190SAPI  H11X22011   0.495   2.830   6.120 -0.1426 -1.2154 -0.9390
  190SAPI  H11Y22012   0.319   2.804   6.131 -0.4022 -1.0363  0.2649
  190SAPI  C31222013   0.452   2.629   6.112  0.3537 -0.0834  0.3084
  190SAPI  H12X22014   0.401   2.557   6.179  0.8980 -0.4210  0.3635
  190SAPI  H12Y22015   0.563   2.618   6.118  0.5105  0.0586 -1.5933
  190SAPI  C31322016   0.417   2.604   5.961  0.3237 -0.6849 -0.1466
  190SAPI  H13X22017   0.448   2.685   5.892  1.2826  1.7417  2.8725
  190SAPI  H13Y22018   0.307   2.613   5.967  0.5044  1.1713  1.5582
  190SAPI  C31422019   0.458   2.460   5.916  0.0858 -0.4176 -0.1044
  190SAPI  H14X22020   0.413   2.386   5.985  0.5696  0.8894  1.7234
  190SAPI  H14Y22021   0.569   2.458   5.926  0.2452  1.0331 -1.1444
  190SAPI  C31522022   0.422   2.422   5.772 -1.0187  0.1539  0.4954
  190SAPI  H15X22023   0.316   2.397   5.750 -0.8531 -1.0018  0.9491
  190SAPI  H15Y22024   0.465   2.322   5.754  0.3761  0.8289 -0.0818
  190SAPI  C31622025   0.475   2.524   5.667  0.2397  0.1686 -0.5269
  190SAPI  H16X22026   0.579   2.550   5.697 -0.1319 -0.1779  1.2183
  190SAPI  H16Y22027   0.417   2.618   5.656 -0.6741 -0.5715 -2.3765
  190SAPI  C31722028   0.470   2.465   5.523  0.0146 -0.3929  0.4247
  190SAPI  H17X22029   0.478   2.556   5.459  2.1655 -1.1194 -0.4072
  190SAPI  H17Y22030   0.366   2.425   5.521  0.4824 -1.6679 -2.3898
  190SAPI  C31822031   0.568   2.361   5.486 -0.3360  0.5098 -0.2307
  190SAPI  H18X22032   0.554   2.262   5.535 -2.9773  2.4335  3.3411
  190SAPI  H18Y22033   0.665   2.400   5.524 -0.0453  0.7810 -1.2014
  190SAPI  H18Z22034   0.571   2.336   5.377  2.1321  0.2379 -0.1548
  191SAPI   C1222035   1.779   2.277   2.551 -0.7009 -0.8708  0.1416
  191SAPI    H222036   1.746   2.382   2.566  0.7142 -0.4171  0.2397
  191SAPI    O222037   1.672   2.191   2.530  0.1149  0.1005 -1.0342
  191SAPI   HO222038   1.658   2.167   2.621 -0.5187  1.4137 -0.7637
  191SAPI   C1322039   1.882   2.280   2.437 -0.0253 -0.5260  0.1402
  191SAPI    H322040   1.961   2.348   2.477  0.6408 -1.4646  0.4883
  191SAPI    O322041   1.822   2.328   2.308  0.2769  0.3305 -0.2935
  191SAPI   HO322042   1.783   2.251   2.268  0.8534 -0.5951  0.8683
  191SAPI   C1422043   1.941   2.138   2.418  0.0934 -0.0307  0.2841
  191SAPI    H422044   1.861   2.073   2.374  1.2040 -1.4456  0.2985
  191SAPI    O422045   2.048   2.147   2.323 -0.0334  0.8025  0.6486
  191SAPI   HO422046   2.065   2.058   2.290 -0.8874  0.6217  0.6624
  191SAPI   C1522047   1.998   2.070   2.534  0.0400  0.2615 -0.6457
  191SAPI    H522048   2.097   2.115   2.560  0.5156 -1.1876  0.1380
  191SAPI    O522049   2.012   1.927   2.514 -0.2249  0.1787 -0.8816
  191SAPI   HO522050   2.094   1.902   2.557 -1.4993  0.7120  2.0836
  191SAPI   C1622051   1.919   2.099   2.661 -0.4637  0.0158  0.2508
  191SAPI    H622052   1.829   2.033   2.665 -0.6856  0.2685 -0.3674
  191SAPI    O622053   2.002   2.068   2.775 -0.6784  0.1240  0.2427
  191SAPI   HO622054   1.979   1.983   2.814 -1.1839  0.6287  1.0752
  191SAPI   C1122055   1.852   2.232   2.676 -0.1667  0.1408 -0.2564
  191SAPI    H122056   1.936   2.303   2.693  1.5007 -1.8441  0.1073
  191SAPI     P22057   1.748   2.358   2.887 -0.2717 -0.3033  0.3003
  191SAPI   O1322058   1.607   2.379   2.927 -0.7724 -0.0201  0.1340
  191SAPI   O1422059   1.825   2.478   2.832  0.8426  0.5903 -0.2722
  191SAPI   O1222060   1.755   2.232   2.784  0.1675  0.0825 -0.2678
  191SAPI   O1122061   1.823   2.300   3.020  0.3788 -0.5921 -0.6458
  191SAPI    C122062   1.830   2.167   3.056  0.8507 -0.1560  0.1451
  191SAPI    HA22063   1.727   2.126   3.067 -0.3071  2.8945  2.0434
  191SAPI    HB22064   1.882   2.110   2.976  0.7706 -0.0867  0.0429
  191SAPI    C222065   1.922   2.133   3.171 -0.3540  0.7678 -0.2448
  191SAPI    HS22066   1.957   2.028   3.179  0.2301  1.0026  0.4314
  191SAPI   O2122067   1.879   2.187   3.293 -0.1262  0.1099  0.0634
  191SAPI   C2122068   1.887   2.100   3.396 -0.2501 -0.1941  0.2885
  191SAPI   O2222069   1.938   1.991   3.397 -0.1337 -0.3477 -0.4840
  191SAPI   C2222070   1.802   2.152   3.518  0.7393 -0.1284  0.8594
  191SAPI   H2R22071   1.737   2.225   3.465  0.5120 -2.3018 -2.1300
  191SAPI   H2S22072   1.736   2.070   3.552 -0.2026  0.6652  0.9966
  191SAPI    C322073   2.058   2.195   3.142 -0.2446  0.0652  0.1658
  191SAPI    HX22074   2.041   2.305   3.137  0.4533  0.2252  1.0493
  191SAPI    HY22075   2.099   2.177   3.040  2.2567  2.5494  0.6249
  191SAPI   O3122076   2.160   2.167   3.247  0.2814  0.5752  0.0252
  191SAPI   C3122077   2.214   2.047   3.240 -0.3841 -0.2429 -0.1635
  191SAPI   O3222078   2.180   1.967   3.155 -0.0570  0.2852  0.0171
  191SAPI   C3222079   2.314   2.023   3.359  0.4933 -0.4959  1.0595
  191SAPI   H2X22080   2.383   2.110   3.364 -1.1362  0.9087  0.1975
  191SAPI   H2Y22081   2.369   1.931   3.332  1.2771 -0.4467  2.3872
  191SAPI   C2322082   1.882   2.204   3.631  0.0271  0.4603 -0.7869
  191SAPI   H3R22083   1.905   2.312   3.619  1.0674  0.2263 -1.0329
  191SAPI   H3S22084   1.977   2.147   3.632  0.3843  1.0554 -0.4394
  191SAPI   C2422085   1.800   2.192   3.762 -0.2779 -0.4063 -0.2569
  191SAPI   H4R22086   1.762   2.089   3.777  0.1364 -0.5377 -0.0946
  191SAPI   H4S22087   1.701   2.240   3.743 -0.9026 -0.8657  1.5705
  191SAPI   C2522088   1.879   2.228   3.887  0.3998  0.3930  0.3758
  191SAPI   H5R22089   1.937   2.146   3.931  0.0320  1.1894  2.4399
  191SAPI   C2622090   1.873   2.345   3.953  0.3696  0.2371  0.1181
  191SAPI   H6R22091   1.912   2.349   4.056  0.8420  0.2796 -0.0614
  191SAPI   C2722092   1.783   2.456   3.918 -0.1825  0.2716  0.1446
  191SAPI   H7R22093   1.676   2.429   3.913 -0.1073  0.2310 -2.3833
  191SAPI   H7S22094   1.806   2.487   3.814  0.4779  2.0706  0.7911
  191SAPI   C2822095   1.785   2.572   4.017  0.4720 -0.3154  0.5501
  191SAPI   H8R22096   1.880   2.627   4.029  1.0676 -0.5870 -2.3592
  191SAPI   C2922097   1.688   2.617   4.101  0.5493 -0.3966  0.0262
  191SAPI   H9R22098   1.707   2.694   4.178 -0.4813  0.0003 -0.0898
  191SAPI  C21022099   1.540   2.581   4.109  0.3997 -0.2315 -0.4109
  191SAPI  H10R22100   1.528   2.498   4.037  2.3835 -0.8087 -0.1298
  191SAPI  H10S22101   1.479   2.668   4.076  0.4613 -0.2464 -0.5646
  191SAPI  C21122102   1.499   2.531   4.245  0.4362  0.0795 -0.8298
  191SAPI  H11R22103   1.568   2.537   4.330 -1.4383  0.9680  0.6969
  191SAPI  C21222104   1.391   2.450   4.261 -0.3676  0.2380 -0.0404
  191SAPI  H12R22105   1.349   2.422   4.358 -1.8483 -0.4616 -0.8447
  191SAPI  C21322106   1.291   2.403   4.153  0.4300 -0.3321  0.0060
  191SAPI  H13R22107   1.276   2.294   4.168 -0.0583 -0.1992  0.5058
  191SAPI  H13S22108   1.350   2.411   4.059  1.7199  1.1225  0.8731
  191SAPI  C21422109   1.166   2.486   4.132  0.2840  0.7417  0.1005
  191SAPI  H14R22110   1.114   2.538   4.213  0.2368  0.4163  0.2826
  191SAPI  C21522111   1.093   2.467   4.018 -0.1246 -0.0202 -0.6380
  191SAPI  H15R22112   1.002   2.527   4.016  0.0698  0.3697  0.8503
  191SAPI  C21622113   1.109   2.381   3.896 -0.0694 -0.6199 -1.2933
  191SAPI  H16R22114   1.078   2.276   3.916  1.2539 -0.7486  0.2994
  191SAPI  H16S22115   1.215   2.384   3.862  0.5124 -0.7168  0.4552
  191SAPI  C21722116   1.016   2.429   3.780 -0.4356 -0.8132 -0.7611
  191SAPI  H17R22117   1.030   2.538   3.766 -1.3177 -0.5348  0.3212
  191SAPI  H17S22118   0.908   2.437   3.806 -0.3287  0.2658 -0.6203
  191SAPI  C21822119   1.043   2.353   3.650  0.8575 -0.0905 -0.1392
  191SAPI  H18R22120   1.014   2.246   3.649 -0.6212  0.2068 -3.3583
  191SAPI  H18S22121   1.152   2.362   3.635  0.8825 -1.6194 -1.1269
  191SAPI  C21922122   0.967   2.418   3.539 -0.1547  0.4693  0.3207
  191SAPI  H19R22123   1.008   2.380   3.442 -0.8289  0.2544  0.1140
  191SAPI  H19S22124   0.981   2.528   3.536  2.6999  0.2440  2.2171
  191SAPI  C22022125   0.820   2.379   3.537  0.1477  0.2775 -0.5854
  191SAPI  H20R22126   0.781   2.411   3.438 -0.4777 -1.7554 -1.0539
  191SAPI  H20S22127   0.761   2.441   3.608 -0.3021  1.8611 -2.2616
  191SAPI  H20T22128   0.807   2.269   3.550 -2.1934  0.6749  1.1498
  191SAPI   C3322129   2.239   2.006   3.493 -0.9953 -0.3747 -0.3116
  191SAPI   H3X22130   2.161   1.927   3.494 -1.7923  0.4039  0.0988
  191SAPI   H3Y22131   2.182   2.102   3.494 -2.4606 -1.2168 -0.3050
  191SAPI   C3422132   2.327   2.004   3.625  0.1880  0.6541  0.0693
  191SAPI   H4X22133   2.396   2.090   3.631 -1.3641  1.8925  1.0745
  191SAPI   H4Y22134   2.378   1.906   3.635 -1.7556 -0.4707 -0.4170
  191SAPI   C3522135   2.229   2.016   3.740  0.0104  0.3212  0.1739
  191SAPI   H5X22136   2.174   1.920   3.753 -0.2887  0.1967 -1.7345
  191SAPI   H5Y22137   2.154   2.097   3.729  0.4425  0.4159 -2.9195
  191SAPI   C3622138   2.304   2.045   3.873 -0.0545 -0.0862 -0.0215
  191SAPI   H6X22139   2.332   2.152   3.873  3.4495 -0.8249 -2.4196
  191SAPI   H6Y22140   2.398   1.986   3.880  0.5264  0.8259  0.0175
  191SAPI   C3722141   2.232   1.997   4.005 -0.3638  0.4311 -0.1054
  191SAPI   H7X22142   2.229   1.886   4.002  1.0719  0.3635  0.1853
  191SAPI   H7Y22143   2.131   2.040   4.021 -0.3371  0.0265  1.3336
  191SAPI   C3822144   2.318   2.034   4.124  0.3168 -0.5457 -0.4847
  191SAPI   H8X22145   2.333   2.144   4.125  1.1515 -0.6575 -0.4106
  191SAPI   H8Y22146   2.421   1.999   4.104  0.5468  0.8104 -1.8780
  191SAPI   C3922147   2.261   2.014   4.266 -0.4150 -0.3568  0.3743
  191SAPI   H9X22148   2.234   1.910   4.291 -0.7795 -0.2646  0.3638
  191SAPI   H9Y22149   2.164   2.066   4.280  0.3133  1.0975  0.3254
  191SAPI  C31022150   2.355   2.075   4.380 -0.1590  0.2484 -0.1694
  191SAPI  H10X22151   2.356   2.186   4.377 -1.4171  0.3075  0.8095
  191SAPI  H10Y22152   2.459   2.039   4.365  0.4207  1.8423 -0.1220
  191SAPI  C31122153   2.298   2.025   4.519 -0.1321  0.5928  0.5914
  191SAPI  H11X22154   2.280   1.916   4.525  3.4481 -0.1035  0.3325
  191SAPI  H11Y22155   2.198   2.067   4.546 -0.3350  1.2497 -1.0259
  191SAPI  C31222156   2.388   2.052   4.637 -0.2982  0.1075  0.2626
  191SAPI  H12X22157   2.397   2.161   4.655 -2.7505  0.3095  0.6434
  191SAPI  H12Y22158   2.489   2.012   4.616  0.2442  1.0466  0.9981
  191SAPI  C31322159   2.354   1.983   4.765  0.0909  0.8100 -0.7586
  191SAPI  H13X22160   2.442   1.979   4.832 -0.2942 -3.2883 -0.2304
  191SAPI  H13Y22161   2.320   1.878   4.756  0.9504  0.5378 -0.9595
  191SAPI  C31422162   2.240   2.056   4.849  0.4827  0.5116  0.9324
  191SAPI  H14X22163   2.146   2.053   4.791  2.7601 -2.5777 -3.0696
  191SAPI  H14Y22164   2.258   2.165   4.860 -1.6568  1.4528 -2.9483
  191SAPI  C31522165   2.209   1.991   4.984 -0.3798 -0.9248 -0.2410
  191SAPI  H15X22166   2.147   1.899   4.978 -0.5477 -0.8357  0.0990
  191SAPI  H15Y22167   2.152   2.071   5.036  0.6553 -0.5267  0.3088
  191SAPI  C31622168   2.330   1.963   5.078  0.1577  0.6973  0.2242
  191SAPI  H16X22169   2.389   2.055   5.097  1.1328  0.4329 -1.3579
  191SAPI  H16Y22170   2.407   1.909   5.019 -0.7991  0.6861 -1.0573
  191SAPI  C31722171   2.288   1.870   5.194  0.2650 -0.0062  0.1829
  191SAPI  H17X22172   2.373   1.800   5.213 -0.6997 -1.7893 -1.7039
  191SAPI  H17Y22173   2.203   1.803   5.169  2.3096 -2.3648 -0.8809
  191SAPI  C31822174   2.265   1.953   5.316 -0.0723 -0.6182  0.0580
  191SAPI  H18X22175   2.365   1.964   5.364  1.0890 -1.4106 -2.0118
  191SAPI  H18Y22176   2.193   1.907   5.386 -1.7281  0.3448 -0.9364
  191SAPI  H18Z22177   2.215   2.049   5.293  0.6596 -0.5118 -1.2261
  192SAPI   C1222178   5.081   1.601   2.848 -0.5927  1.4487  0.0359
  192SAPI    H222179   5.032   1.502   2.833 -0.3357  1.2849  0.2959
  192SAPI    O222180   5.217   1.570   2.836 -0.1017 -0.4337 -0.0255
  192SAPI   HO222181   5.240   1.524   2.917 -0.7348  1.7172  1.4659
  192SAPI   C1322182   5.038   1.707   2.754 -0.4433 -0.0552 -0.0314
  192SAPI    H322183   4.934   1.734   2.784 -0.6282  0.8590 -1.4119
  192SAPI    O322184   5.032   1.666   2.617 -0.0153 -0.5499  0.3463
  192SAPI   HO322185   5.112   1.688   2.567  0.1702 -2.5227 -0.3231
  192SAPI   C1422186   5.108   1.835   2.774  0.6719  0.3189  0.5348
  192SAPI    H422187   5.210   1.823   2.730  0.7110  1.1422  0.3864
  192SAPI    O422188   5.043   1.948   2.706 -0.2041  0.3965  0.5933
  192SAPI   HO422189   5.117   2.008   2.692  2.0969 -2.5349 -1.1911
  192SAPI   C1522190   5.131   1.880   2.917 -0.0692 -0.3035 -0.6458
  192SAPI    H522191   5.048   1.950   2.939 -0.0090 -0.2036 -0.7420
  192SAPI    O522192   5.250   1.957   2.924  0.1501 -0.1623  0.4169
  192SAPI   HO522193   5.233   2.052   2.920  0.5734 -0.1228 -1.2391
  192SAPI   C1622194   5.136   1.772   3.022  0.0432  0.0851  0.3456
  192SAPI    H622195   5.243   1.743   3.031 -0.1528 -0.8463 -0.2008
  192SAPI    O622196   5.096   1.826   3.148  0.0589 -0.1747  0.6055
  192SAPI   HO622197   5.000   1.832   3.153 -0.1470 -1.6393 -0.6819
  192SAPI   C1122198   5.054   1.646   2.986  0.3245 -0.2146 -0.2292
  192SAPI    H122199   4.948   1.671   3.009  0.4154 -0.0693  0.0416
  192SAPI     P22200   4.994   1.419   3.104 -0.0624 -0.0263  0.2109
  192SAPI   O1322201   5.080   1.300   3.116 -0.0533 -0.9122 -0.8879
  192SAPI   O1422202   4.888   1.416   3.005 -0.0793  0.1206  0.1784
  192SAPI   O1222203   5.096   1.540   3.078 -0.1813 -0.1881  1.0203
  192SAPI   O1122204   4.931   1.450   3.250 -0.2088  0.5184 -0.4401
  192SAPI    C122205   5.006   1.519   3.349 -0.8133  0.2647  0.1896
  192SAPI    HA22206   5.091   1.456   3.379  0.3226  0.8881 -1.5893
  192SAPI    HB22207   5.049   1.610   3.303  1.6849 -1.9566 -2.1769
  192SAPI    C222208   4.924   1.562   3.477 -0.1669 -0.0705 -0.7231
  192SAPI    HS22209   4.997   1.603   3.550 -2.1086 -0.5123  1.5538
  192SAPI   O2122210   4.852   1.443   3.525 -0.3966  0.1780 -0.2906
  192SAPI   C2122211   4.921   1.361   3.599 -0.4696 -0.0845  0.8077
  192SAPI   O2222212   5.037   1.384   3.635 -0.2288  0.5168  0.6148
  192SAPI   C2222213   4.834   1.253   3.650 -0.2186  0.3323 -0.2029
  192SAPI   H2R22214   4.739   1.300   3.685 -1.1631 -2.5484  1.4908
  192SAPI   H2S22215   4.812   1.191   3.560 -1.4299  1.8584 -1.0295
  192SAPI    C322216   4.821   1.678   3.450 -0.1269  0.1744 -1.1573
  192SAPI    HX22217   4.748   1.636   3.377 -1.3286  1.3709 -0.6938
  192SAPI    HY22218   4.873   1.762   3.398 -0.0579  0.6706 -0.3179
  192SAPI   O3122219   4.764   1.718   3.575 -0.5263 -0.4910  0.0312
  192SAPI   C3122220   4.654   1.647   3.614 -0.5295  0.3861 -0.3876
  192SAPI   O3222221   4.586   1.579   3.543  0.5711  0.6227  0.1581
  192SAPI   C3222222   4.624   1.675   3.754  0.1081  0.1218  0.4676
  192SAPI   H2X22223   4.575   1.774   3.764 -3.2002 -1.2617 -0.5873
  192SAPI   H2Y22224   4.722   1.672   3.808 -1.0503  0.1063  2.7108
  192SAPI   C2322225   4.894   1.166   3.765 -1.4813  0.0737 -0.1827
  192SAPI   H3R22226   5.004   1.179   3.775 -1.6016  0.6915  0.3813
  192SAPI   H3S22227   4.880   1.056   3.753  2.5410 -0.4650 -1.5112
  192SAPI   C2422228   4.833   1.217   3.894 -0.4020 -0.4158  0.1125
  192SAPI   H4R22229   4.730   1.175   3.899  0.2909 -2.4317 -1.0477
  192SAPI   H4S22230   4.835   1.328   3.900 -1.1474 -0.0819 -3.3551
  192SAPI   C2522231   4.913   1.163   4.005  0.0320 -0.2011 -1.0632
  192SAPI   H5R22232   4.959   1.066   3.980  1.0847  0.0949 -0.3348
  192SAPI   C2622233   4.959   1.224   4.120  0.0286 -0.1194 -0.6649
  192SAPI   H6R22234   5.023   1.171   4.192  0.3777  1.4959  0.2689
  192SAPI   C2722235   4.929   1.359   4.173  0.5546 -0.1937  0.2777
  192SAPI   H7R22236   4.887   1.353   4.276 -2.1134  2.1507 -0.5593
  192SAPI   H7S22237   4.855   1.414   4.111  0.8357 -1.0163 -0.8306
  192SAPI   C2822238   5.061   1.432   4.162  0.1220  0.0725  0.6111
  192SAPI   H8R22239   5.117   1.421   4.069 -0.2783 -0.0309  0.3805
  192SAPI   C2922240   5.098   1.520   4.252  0.5492  0.2237  0.0149
  192SAPI   H9R22241   5.199   1.557   4.230 -0.7659  2.0228 -3.9830
  192SAPI  C21022242   5.041   1.555   4.387 -1.2223  0.0379 -0.1069
  192SAPI  H10R22243   5.089   1.492   4.465 -0.4648 -0.0410 -0.6240
  192SAPI  H10S22244   4.933   1.530   4.383 -1.0014 -1.3563  1.7827
  192SAPI  C21122245   5.066   1.701   4.411 -0.1363  0.4349 -0.2710
  192SAPI  H11R22246   5.007   1.767   4.346  1.1836 -0.5600 -2.5931
  192SAPI  C21222247   5.165   1.748   4.476 -0.5611  0.4014 -0.0318
  192SAPI  H12R22248   5.175   1.858   4.476  1.1281  0.2779 -1.0861
  192SAPI  C21322249   5.282   1.683   4.547 -0.3757 -0.4786  0.8375
  192SAPI  H13R22250   5.371   1.680   4.481  0.1724 -1.2152  1.5935
  192SAPI  H13S22251   5.277   1.574   4.568 -2.0173 -0.3050  1.4948
  192SAPI  C21422252   5.334   1.758   4.671 -0.3935  0.4420 -0.4681
  192SAPI  H14R22253   5.441   1.782   4.669 -0.2564 -0.1095  0.1858
  192SAPI  C21522254   5.267   1.799   4.782  0.3533  0.9723 -0.3307
  192SAPI  H15R22255   5.329   1.845   4.860  1.0255 -1.2572  0.5317
  192SAPI  C21622256   5.124   1.759   4.807  0.1747  0.1596 -0.1890
  192SAPI  H16R22257   5.115   1.704   4.904  0.1971  0.5959  0.0621
  192SAPI  H16S22258   5.082   1.694   4.727 -0.6239  0.8969 -0.3767
  192SAPI  C21722259   5.042   1.893   4.819 -0.2644 -0.2180  0.2458
  192SAPI  H17R22260   5.048   1.939   4.718 -0.0579 -0.7430  0.0106
  192SAPI  H17S22261   5.094   1.952   4.898 -0.0357  0.1052 -0.1389
  192SAPI  C21822262   4.898   1.884   4.869 -0.4980  0.3400 -0.1718
  192SAPI  H18R22263   4.848   1.799   4.819  3.3078 -3.4412  1.7497
  192SAPI  H18S22264   4.858   1.984   4.842 -1.1076  0.2271  0.2916
  192SAPI  C21922265   4.893   1.856   5.022  0.2587  0.5156  0.3886
  192SAPI  H19R22266   4.924   1.950   5.073  0.8810 -0.4190  1.7930
  192SAPI  H19S22267   4.960   1.771   5.047 -0.6674 -0.2268  0.4053
  192SAPI  C22022268   4.753   1.827   5.078 -0.3886  0.5073  1.0412
  192SAPI  H20R22269   4.697   1.746   5.026  0.2523 -0.4786  1.8537
  192SAPI  H20S22270   4.683   1.913   5.087 -0.5366  0.4999  0.0926
  192SAPI  H20T22271   4.765   1.789   5.181  3.4132  0.9183  0.8861
  192SAPI   C3322272   4.530   1.576   3.827 -0.1675 -0.0492 -0.2181
  192SAPI   H3X22273   4.578   1.478   3.852 -0.8579 -0.5412 -0.7948
  192SAPI   H3Y22274   4.437   1.543   3.777  0.7502 -2.4313 -0.4928
  192SAPI   C3422275   4.493   1.634   3.959 -0.7948 -0.2054 -0.1424
  192SAPI   H4X22276   4.417   1.571   4.011  1.4023 -4.2405 -1.3644
  192SAPI   H4Y22277   4.458   1.739   3.945  1.2612  1.0961  3.3435
  192SAPI   C3522278   4.625   1.646   4.053  0.0874  0.1997  0.7283
  192SAPI   H5X22279   4.695   1.710   3.996 -1.2112  0.3178 -0.7996
  192SAPI   H5Y22280   4.673   1.549   4.079  2.4808  1.7033  2.3848
  192SAPI   C3622281   4.594   1.728   4.183  0.2709  0.3666  0.4422
  192SAPI   H6X22282   4.495   1.719   4.234 -0.6657  3.1601 -0.6913
  192SAPI   H6Y22283   4.580   1.832   4.148  0.7625 -0.2303 -1.6190
  192SAPI   C3722284   4.702   1.712   4.289  0.5055 -0.6896 -1.0233
  192SAPI   H7X22285   4.802   1.744   4.253  0.0118  0.6456 -1.2690
  192SAPI   H7Y22286   4.711   1.603   4.309 -0.0219 -0.5632 -0.0336
  192SAPI   C3822287   4.682   1.797   4.416 -0.6303 -0.2025 -0.3735
  192SAPI   H8X22288   4.734   1.745   4.499  0.3590  0.5061 -0.5187
  192SAPI   H8Y22289   4.576   1.804   4.446 -0.7926  0.9574 -1.1459
  192SAPI   C3922290   4.747   1.941   4.407 -0.9790  0.1611 -0.6823
  192SAPI   H9X22291   4.683   1.997   4.335  0.0169 -1.1901 -2.7178
  192SAPI   H9Y22292   4.839   1.917   4.349 -0.6873 -0.6883  0.1103
  192SAPI  C31022293   4.774   2.001   4.543  0.4401 -0.1684 -0.2591
  192SAPI  H10X22294   4.823   2.097   4.515 -3.9379  2.2145 -0.5889
  192SAPI  H10Y22295   4.846   1.936   4.598 -1.0349  0.7644  3.0535
  192SAPI  C31122296   4.645   2.026   4.626  0.0114  0.1221  0.1022
  192SAPI  H11X22297   4.665   2.062   4.729  2.1816  2.6726 -1.0668
  192SAPI  H11Y22298   4.608   1.922   4.636 -1.0951  0.4299 -0.5795
  192SAPI  C31222299   4.544   2.118   4.560 -0.0128 -0.4087 -0.3848
  192SAPI  H12X22300   4.442   2.115   4.604  0.2742  1.5043  0.5047
  192SAPI  H12Y22301   4.527   2.074   4.459  4.1385 -0.0258 -1.4239
  192SAPI  C31322302   4.593   2.262   4.544 -0.2324 -0.5376 -0.2463
  192SAPI  H13X22303   4.693   2.252   4.497 -0.1923 -2.3562  0.1796
  192SAPI  H13Y22304   4.603   2.325   4.635  0.4865 -2.7027  1.2617
  192SAPI  C31422305   4.500   2.344   4.450 -1.1355 -0.3594 -0.2585
  192SAPI  H14X22306   4.526   2.451   4.467 -0.7048 -0.7569  1.9484
  192SAPI  H14Y22307   4.398   2.333   4.491 -0.5274 -3.8472  0.6743
  192SAPI  C31522308   4.515   2.309   4.301 -0.3219 -0.1597 -0.0655
  192SAPI  H15X22309   4.468   2.211   4.278 -1.3731  0.3883 -0.3180
  192SAPI  H15Y22310   4.623   2.305   4.276 -0.8763  1.0714 -3.0533
  192SAPI  C31622311   4.455   2.423   4.218 -0.0617 -0.5005  0.6122
  192SAPI  H16X22312   4.487   2.403   4.114 -0.5816 -2.2898  0.7644
  192SAPI  H16Y22313   4.503   2.516   4.257  0.4671 -2.2359  4.5686
  192SAPI  C31722314   4.302   2.434   4.227  0.0377  0.2079  0.4262
  192SAPI  H17X22315   4.282   2.534   4.184  2.7854  0.0151 -1.5464
  192SAPI  H17Y22316   4.282   2.436   4.336 -1.5560 -4.0042  0.3953
  192SAPI  C31822317   4.214   2.323   4.165 -0.0964 -0.5980  0.2696
  192SAPI  H18X22318   4.215   2.238   4.237  0.4214 -0.6961  0.1478
  192SAPI  H18Y22319   4.256   2.298   4.065 -1.7356  0.9841 -0.8858
  192SAPI  H18Z22320   4.109   2.359   4.158  0.1697 -0.0835 -1.3370
  193SOD    SOD22321   5.614   5.712   3.442  0.1037 -0.1530 -0.1571
  194SOD    SOD22322   6.095   0.477   1.258  0.0929 -0.0398  0.3803
  195SOD    SOD22323   4.376   3.296   8.161  0.0674  0.1435  0.0963
  196SOD    SOD22324   2.174   0.583   0.450 -0.3917  0.0541 -0.0274
  197SOD    SOD22325   4.856   2.163   2.327  0.1636 -0.0766 -0.1256
  198SOD    SOD22326   5.198   3.404   1.367 -0.3072  0.1703 -0.7517
  199SOD    SOD22327   1.988   5.713   7.747  0.2757 -0.0226  0.4087
  200SOD    SOD22328   5.814   1.303   8.107  0.0870  0.0065  0.0661
  201SOD    SOD22329   5.206   2.673   8.366 -0.2882  0.2764 -0.2398
  202SOD    SOD22330   1.657   2.747   1.800  0.8889  0.0186 -0.4218
  203SOD    SOD22331   4.568   5.442   0.080  0.3275 -0.5496 -0.2185
  204SOD    SOD22332   0.958   3.310   7.904 -0.3874  0.2705  0.4420
  205SOD    SOD22333   1.631   0.734   8.476 -0.3652  0.2070 -0.2577
  206SOD    SOD22334   5.867   1.419   2.110  0.7657  0.6232  0.0978
  207SOD    SOD22335   3.996   0.391   0.402 -0.0654 -0.5262  0.2185
  208SOD    SOD22336   5.066   1.325   0.791  0.3168 -0.3667 -0.5827
  209SOD    SOD22337   4.885   5.259   7.835 -0.1495  0.6018  0.3415
  210SOD    SOD22338   2.958   4.193   8.662 -0.0006  0.5551 -0.7470
  211SOD    SOD22339   0.522   2.514   1.772  0.2452 -0.1742  0.0649
  212SOD    SOD22340   5.356   6.130   2.363  0.6124  0.1477 -0.5542
  213SOD    SOD22341   0.663   6.697   1.044  1.1477  0.4295  0.5052
  214SOD    SOD22342   1.868   3.946   1.976  0.1111 -0.0140  0.4538
  215SOD    SOD22343   0.267   4.172   7.915  0.0224 -0.5654  0.3685
  216SOD    SOD22344   3.299   5.297   0.605 -0.1584 -0.4154  0.2063
  217SOD    SOD22345   6.059   3.304   3.495 -0.0267  0.1849  0.0884
  218SOD    SOD22346   3.364   2.912   0.671 -0.3615 -0.2397 -0.2722
  219SOD    SOD22347   5.151   4.988   3.328 -0.2514  0.0065  0.3693
  220SOD    SOD22348   1.949   5.934   0.130  0.5768  0.8020 -0.2233
  221SOD    SOD22349   5.624   0.490   8.278  0.0239 -0.1149  0.2218
  222SOD    SOD22350   4.356   2.215   8.723 -0.4596  0.3975 -0.0812
  223SOD    SOD22351   0.578   6.265   0.295  0.2912 -0.1716 -0.2609
  224SOD    SOD22352   0.128   1.586   0.096 -0.1823  0.7236 -0.7122
  225SOD    SOD22353   0.709   6.218   2.531 -0.3099  0.2839  0.3586
  226SOD    SOD22354   5.249   3.464   2.715 -0.4746  0.2949 -0.3756
  227SOD    SOD22355   1.962   2.086   0.484  0.3529 -0.3534  0.3772
  228SOD    SOD22356   4.395   3.919   8.730  0.4218 -0.0750  0.1798
  229SOD    SOD22357   3.747   5.632   3.332 -0.6571 -0.3056 -0.9660
  230CLA    CLA22358   6.388   3.849   8.805  0.2685 -0.4570  0.1176
  231CLA    CLA22359   0.830   1.655   0.200  0.1758  0.3549 -0.6101
  232CLA    CLA22360   6.420   4.242   0.660  0.1088 -0.2640  0.2925
  233CLA    CLA22361   3.732   5.085   0.172  0.0638 -0.3676 -0.1571
  234CLA    CLA22362   4.335   5.884   8.093 -0.0134 -0.2658 -0.2267
  235CLA    CLA22363   5.025   0.448   1.773 -0.1373  0.3747 -0.0710
  236CLA    CLA22364   4.604   3.377   8.736  0.2291  0.3057 -0.0713
  237CLA    CLA22365   1.720   5.982   2.455 -0.1067  0.0900 -0.3121
  238CLA    CLA22366   0.682   6.320   0.542 -0.4489  0.0402 -0.1981
  239CLA    CLA22367   4.766   3.801   7.596 -0.0416 -0.0380  0.1349
  240CLA    CLA22368   6.038   3.727   2.475  0.1136  0.0021  0.2360
  241CLA    CLA22369   0.916   3.579   1.781  0.1683  0.5064  0.2392
  242CLA    CLA22370   3.964   0.928   0.173  0.1680 -0.1116  0.2422
  243CLA    CLA22371   6.318   6.583   1.673  0.0638  0.0046  0.0777
  244CLA    CLA22372   4.791   3.908   1.348  0.4195 -0.1928 -0.0206
  245CLA    CLA22373   2.195   6.107   0.861  0.2725  0.1228 -0.0714
  246CLA    CLA22374   5.927   4.298   1.283 -0.3542 -0.1124 -0.6345
  247TIP3   OH222375   0.283   4.768   3.486 -0.4915 -0.1563 -0.1016
  247TIP3    H122376   0.201   4.719   3.476 -1.0549  0.6593  0.3799
  247TIP3    H222377   0.275   4.841   3.425 -0.7633  0.7351  0.9769
  248TIP3   OH222378   2.001   6.277   8.101 -0.0977  0.1932  0.0056
  248TIP3    H122379   1.934   6.252   8.165 -0.7510 -0.5952 -0.9674
  248TIP3    H222380   1.972   6.362   8.068  2.1347  2.4997  3.3254
  249TIP3   OH222381   6.005   6.549   2.594 -0.2315  0.0842 -0.0597
  249TIP3    H122382   6.052   6.593   2.524  2.4081 -0.3219  1.3442
  249TIP3    H222383   5.968   6.471   2.553  3.0836 -1.3091 -0.6682
  250TIP3   OH222384   2.699   5.873   0.227 -0.3500  0.1404  0.3469
  250TIP3    H122385   2.762   5.806   0.201 -0.6331  0.3436 -0.9231
  250TIP3    H222386   2.672   5.848   0.316  1.7340  0.2264  1.0562
  251TIP3   OH222387   5.144   5.567   2.094 -0.7057 -0.0589  0.5008
  251TIP3    H122388   5.190   5.531   2.170 -1.8942 -2.6840  0.0806
  251TIP3    H222389   5.060   5.596   2.127 -0.2113  1.3421  0.6114
  252TIP3   OH222390   4.873   2.506   0.324 -0.0560  0.3414 -0.7461
  252TIP3    H122391   4.860   2.414   0.347  1.4024  0.7330  2.2829
  252TIP3    H222392   4.965   2.510   0.297  0.0583  0.9783 -0.2702
  253TIP3   OH222393   4.693   4.263   0.485 -0.8890  0.4610  0.3224
  253TIP3    H122394   4.689   4.342   0.430  1.1959  1.3003  1.2712
  253TIP3    H222395   4.650   4.288   0.566 -3.4977 -0.6172 -0.6197
  254TIP3   OH222396   2.205   5.752   2.525  0.6543 -0.6221  0.0192
  254TIP3    H122397   2.219   5.705   2.607  1.8034 -1.1529 -0.4563
  254TIP3    H222398   2.182   5.684   2.462 -1.9108 -0.0481  0.2091
  255TIP3   OH222399   2.778   5.358   1.767 -0.1867  0.2315  0.2344
  255TIP3    H122400   2.686   5.355   1.794 -0.0393 -0.7356  0.6741
  255TIP3    H222401   2.827   5.330   1.844  0.4230 -0.1046 -0.2651
  256TIP3   OH222402   5.105   3.503   7.787 -0.1682 -0.6707 -0.0889
  256TIP3    H122403   5.079   3.422   7.743 -2.2207 -1.2234  1.9605
  256TIP3    H222404   5.133   3.475   7.874 -1.3778  0.8419  0.8217
  257TIP3   OH222405   3.223   3.830   0.712  0.2364  0.1424  0.6479
  257TIP3    H122406   3.291   3.885   0.674 -0.6171  1.2197  0.6213
  257TIP3    H222407   3.180   3.789   0.637  0.9202 -0.6342  0.6715
  258TIP3   OH222408   3.914   5.948   0.582  0.5281 -0.4032  0.0702
  258TIP3    H122409   3.968   5.869   0.580  0.3864 -0.5015  0.1798
  258TIP3    H222410   3.978   6.020   0.582  0.6538 -0.5136 -0.1492
  259TIP3   OH222411   1.038   2.037   1.110 -0.5298  0.1887 -0.0931
  259TIP3    H122412   1.133   2.033   1.122 -0.4052 -0.8075 -1.2378
  259TIP3    H222413   1.012   1.946   1.093 -1.3729  0.7141 -1.8777
  260TIP3   OH222414   1.526   0.642   8.286 -0.5913 -0.3070  0.2422
  260TIP3    H122415   1.569   0.574   8.234 -0.3626 -0.2359  0.3374
  260TIP3    H222416   1.435   0.641   8.256 -0.9838 -1.7361  1.3323
  261TIP3   OH222417   0.256   5.152   1.515 -0.1936  0.2410  0.0391
  261TIP3    H122418   0.261   5.101   1.596  0.8750 -0.4240 -0.4235
  261TIP3    H222419   0.163   5.172   1.504 -0.3041  0.7183  1.6538
  262TIP3   OH222420   0.791   4.744   8.187  0.5981  0.3102 -0.0867
  262TIP3    H122421   0.830   4.829   8.168  0.0741  0.1703 -2.1002
  262TIP3    H222422   0.851   4.702   8.248  1.7735  1.4440 -0.4203
  263TIP3   OH222423   0.129   0.310   7.978 -0.1035  0.7956  0.9634
  263TIP3    H122424   0.178   0.368   7.918  1.9270  1.5514  3.2091
  263TIP3    H222425   0.119   0.229   7.929  1.6482  1.3156 -0.3885
  264TIP3   OH222426   0.155   0.692   0.576 -0.4333 -0.0037  0.2676
  264TIP3    H122427   0.141   0.785   0.562  1.9194  0.4170  0.1805
  264TIP3    H222428   0.164   0.655   0.488  0.1206 -0.0064  0.3174
  265TIP3   OH222429   6.329   3.703   1.304  0.2411 -0.3517  0.4785
  265TIP3    H122430   6.415   3.661   1.314  0.4891  0.4698  2.3806
  265TIP3    H222431   6.350   3.793   1.277 -0.1892 -0.8364 -1.6260
  266TIP3   OH222432   4.446   5.985   0.439 -0.1918  0.1938  0.0916
  266TIP3    H122433   4.455   6.006   0.533  0.8936  0.2163  0.0027
  266TIP3    H222434   4.377   6.043   0.408 -0.3782  0.3775  0.8245
  267TIP3   OH222435   1.079   3.238   2.622 -0.2378 -0.1055  0.0378
  267TIP3    H122436   1.024   3.243   2.700 -0.1956 -1.6175  0.2020
  267TIP3    H222437   1.167   3.254   2.654  0.0745 -2.6637  0.7474
  268TIP3   OH222438   5.432   3.454   8.258  0.5048  0.2814  0.3820
  268TIP3    H122439   5.523   3.424   8.267  0.5473  0.7155  1.5227
  268TIP3    H222440   5.436   3.548   8.272 -0.0582  0.3900 -0.1293
  269TIP3   OH222441   4.182   6.054   8.686  0.0515  0.2125  0.0005
  269TIP3    H122442   4.121   6.031   8.616  0.6602 -0.7044 -0.2469
  269TIP3    H222443   4.127   6.065   8.763 -0.3110 -1.9782  0.1043
  270TIP3   OH222444   2.900   4.749   2.345 -0.6176  0.0047 -0.0561
  270TIP3    H122445   2.843   4.675   2.323 -0.0620 -0.3880 -0.2047
  270TIP3    H222446   2.842   4.826   2.339 -0.9719 -0.3054 -0.9056
  271TIP3   OH222447   2.175   5.712   2.122  0.6470  0.4007 -0.2375
  271TIP3    H122448   2.082   5.712   2.145  0.7439  0.8433  0.1815
  271TIP3    H222449   2.177   5.697   2.028  0.0831  1.6523 -0.4661
  272TIP3   OH222450   6.742   2.438   1.565  0.3216 -0.0589 -1.2051
  272TIP3    H122451   6.804   2.400   1.627  0.9313  2.4372 -0.1468
  272TIP3    H222452   6.664   2.384   1.572  1.3032 -1.4085 -0.2209
  273TIP3   OH222453   6.434   0.701   0.325  0.4161 -0.3654  0.3437
  273TIP3    H122454   6.510   0.712   0.382 -0.1831 -2.5039  1.6793
  273TIP3    H222455   6.391   0.621   0.357 -2.1442  0.4992 -0.6542
  274TIP3   OH222456   6.540   2.723   3.300  0.4815  0.0645 -0.0093
  274TIP3    H122457   6.577   2.639   3.273 -0.8847 -1.0547  1.4115
  274TIP3    H222458   6.598   2.752   3.371 -1.0473 -1.5576  2.0316
  275TIP3   OH222459   3.323   6.177   0.640  0.4721 -0.0849 -0.2826
  275TIP3    H122460   3.405   6.131   0.623  1.4917  1.0171  1.2949
  275TIP3    H222461   3.288   6.135   0.719 -0.1902 -0.1583 -0.6084
  276TIP3   OH222462   5.278   5.728   1.921 -0.3369 -0.6967  0.2859
  276TIP3    H122463   5.340   5.763   1.986  1.5733 -0.3512 -1.5961
  276TIP3    H222464   5.230   5.660   1.968 -0.1874  0.6170  2.4893
  277TIP3   OH222465   5.183   4.517   1.410  0.3576  0.1178  0.6124
  277TIP3    H122466   5.132   4.598   1.405 -0.0808 -0.2206 -2.5546
  277TIP3    H222467   5.119   4.450   1.436 -0.4996  0.0581 -1.3948
  278TIP3   OH222468   5.026   4.608   8.804 -0.0308  0.3484 -0.3909
  278TIP3    H122469   5.071   4.611   8.888  0.9247 -0.1444 -0.8721
  278TIP3    H222470   4.997   4.517   8.796 -0.3180  0.4482 -0.4882
  279TIP3   OH222471   6.201   4.153   2.523 -0.0033 -0.7497  0.2472
  279TIP3    H122472   6.231   4.067   2.550 -0.2131 -0.7665  0.4334
  279TIP3    H222473   6.242   4.214   2.585 -0.1455 -0.7507  0.3444
  280TIP3   OH222474   6.440   5.060   1.714 -0.3846 -0.3520 -0.2980
  280TIP3    H122475   6.520   5.034   1.759 -0.4550  0.5459  0.3900
  280TIP3    H222476   6.470   5.104   1.634 -0.1778 -0.0102 -0.0362
  281TIP3   OH222477   6.763   3.712   1.651  0.5627 -0.1322  0.0289
  281TIP3    H122478   6.779   3.802   1.681 -0.9005 -0.0355  0.6413
  281TIP3    H222479   6.679   3.717   1.605 -0.1778 -1.3805  1.1463
  282TIP3   OH222480   3.490   2.875   0.215  0.3568  0.6213  0.2225
  282TIP3    H122481   3.493   2.795   0.268  0.2125  1.5740  1.7227
  282TIP3    H222482   3.427   2.856   0.146  0.4204 -0.6076  0.4893
  283TIP3   OH222483   2.505   6.122   2.110  0.0625  0.1523 -0.1770
  283TIP3    H122484   2.421   6.147   2.071 -0.8798 -0.4720  1.3507
  283TIP3    H222485   2.510   6.174   2.191 -0.1093 -1.6588  1.0542
  284TIP3   OH222486   0.960   4.590   1.819  0.5273  0.2435  0.3767
  284TIP3    H122487   0.980   4.641   1.897 -0.2303  0.5382  0.3840
  284TIP3    H222488   0.885   4.537   1.844 -0.6637  1.4054 -0.5921
  285TIP3   OH222489   1.110   1.490   0.848 -0.0680 -0.1494  0.4110
  285TIP3    H122490   1.086   1.462   0.760 -1.5189  0.5592  0.5580
  285TIP3    H222491   1.186   1.437   0.870  0.1788 -0.4977 -1.1772
  286TIP3   OH222492   4.163   3.698   8.102  0.0802 -0.0639  0.1416
  286TIP3    H122493   4.111   3.778   8.103 -0.2728 -0.2839  0.9595
  286TIP3    H222494   4.220   3.706   8.026 -0.0734  0.8831  0.1212
  287TIP3   OH222495   6.512   5.803   1.831 -0.2316  0.0945  0.1534
  287TIP3    H122496   6.462   5.744   1.887 -0.2669  0.3907  0.4354
  287TIP3    H222497   6.550   5.867   1.891  0.5596 -0.1732 -0.0499
  288TIP3   OH222498   5.383   5.727   1.445 -0.1184 -0.1432 -0.3658
  288TIP3    H122499   5.397   5.817   1.476 -1.8548  0.2812 -0.6971
  288TIP3    H222500   5.328   5.737   1.368  0.3564 -1.4686 -0.9011
  289TIP3   OH222501   0.944   0.232   8.244 -0.0913  0.7707  0.0136
  289TIP3    H122502   0.911   0.189   8.323 -0.4268  1.6279  0.3543
  289TIP3    H222503   0.949   0.163   8.179  0.5412 -0.0315  0.8822
  290TIP3   OH222504   4.232   2.885   7.895  0.0448  0.7315  0.0622
  290TIP3    H122505   4.280   2.939   7.832  0.4369  0.5004  0.1594
  290TIP3    H222506   4.245   2.796   7.864 -1.2918  0.7349 -0.5734
  291TIP3   OH222507   3.302   2.017   1.298 -0.1261  0.8290  0.4441
  291TIP3    H122508   3.387   1.993   1.262  0.0185 -0.4584  1.5808
  291TIP3    H222509   3.304   1.986   1.388 -1.3341  1.9358  0.8831
  292TIP3   OH222510   6.182   4.425   0.736 -0.1767  0.0649 -0.6241
  292TIP3    H122511   6.251   4.360   0.732  1.0036  1.2827 -0.8391
  292TIP3    H222512   6.177   4.450   0.829  1.5217  1.8204 -0.9375
  293TIP3   OH222513   4.528   0.070   2.059  0.2321  0.0268  0.2536
  293TIP3    H122514   4.603   0.102   2.110 -0.7764  1.5069  0.8887
  293TIP3    H222515   4.485   0.007   2.116  0.1050  0.3659  0.5377
  294TIP3   OH222516   0.545   5.710   8.761 -0.2455 -0.2859 -0.2753
  294TIP3    H122517   0.610   5.777   8.780 -1.2838  0.7196 -0.1141
  294TIP3    H222518   0.583   5.628   8.793  0.4874  0.4430  0.7639
  295TIP3   OH222519   0.433   4.988   1.724 -0.3012 -0.0144 -0.2431
  295TIP3    H122520   0.425   5.048   1.798  1.0385  0.0652 -0.1396
  295TIP3    H222521   0.398   4.905   1.756 -1.5113  0.4934 -0.1618
  296TIP3   OH222522   2.052   6.418   8.448 -0.1504 -0.3103  0.0594
  296TIP3    H122523   2.049   6.360   8.524 -0.5467 -0.9664 -0.4428
  296TIP3    H222524   1.974   6.473   8.457  0.0523 -0.0732  0.3695
  297TIP3   OH222525   1.837   4.992   2.157 -0.2641  0.5317 -0.5939
  297TIP3    H122526   1.824   5.048   2.234  0.3173  2.4768 -1.8628
  297TIP3    H222527   1.782   5.031   2.089  0.3344 -0.2974 -1.5800
  298TIP3   OH222528   6.198   6.096   2.592 -0.1661 -0.4759 -0.1128
  298TIP3    H122529   6.224   6.157   2.662  1.7353 -1.2697 -0.0548
  298TIP3    H222530   6.146   6.030   2.637  0.9662 -0.9318  0.5852
  299TIP3   OH222531   1.767   6.753   2.043 -0.1453  0.1293  0.0674
  299TIP3    H122532   1.765   6.826   2.104 -0.7170 -0.0997  0.3292
  299TIP3    H222533   1.856   6.718   2.050 -0.5146 -0.5866  1.6163
  300TIP3   OH222534   6.688   3.026   8.498  0.5429 -0.0871 -0.0313
  300TIP3    H122535   6.746   3.044   8.573  1.1539  2.6959 -1.0503
  300TIP3    H222536   6.748   2.998   8.429  0.2063 -0.7538 -0.0570
  301TIP3   OH222537   1.253   6.079   8.240  0.2276  0.4576  0.1536
  301TIP3    H122538   1.181   6.046   8.293 -0.8321  1.6645 -0.4909
  301TIP3    H222539   1.211   6.121   8.165  1.6457  0.1378 -0.8551
  302TIP3   OH222540   0.232   2.023   0.952 -0.2479 -0.2674 -0.2635
  302TIP3    H122541   0.276   2.084   1.011  0.2376 -1.3740  0.5314
  302TIP3    H222542   0.227   2.071   0.868  0.2891  0.7818  0.2822
  303TIP3   OH222543   5.186   3.923   3.605  0.0311  0.0977  0.2827
  303TIP3    H122544   5.101   3.889   3.576  0.8643 -2.4895  0.6370
  303TIP3    H222545   5.164   3.988   3.672 -1.6766  0.5951 -0.6937
  304TIP3   OH222546   2.173   5.609   8.175 -0.5177 -0.6546 -0.1837
  304TIP3    H122547   2.172   5.517   8.148 -0.8407 -0.4500 -0.9081
  304TIP3    H222548   2.222   5.654   8.105 -1.6205 -0.0618 -0.6003
  305TIP3   OH222549   5.196   4.450   2.257 -0.1531 -0.6956 -0.6260
  305TIP3    H122550   5.221   4.543   2.261 -2.0065 -0.1682 -0.4755
  305TIP3    H222551   5.197   4.421   2.349  0.6490 -0.9012 -0.6937
  306TIP3   OH222552   4.005   2.712   8.425  0.2342 -0.3881 -0.4777
  306TIP3    H122553   4.012   2.783   8.488  0.6702  0.3983 -1.3991
  306TIP3    H222554   4.056   2.740   8.349 -0.3954 -1.2442 -1.2552
  307TIP3   OH222555   3.232   4.428   2.211 -0.8256 -0.2734 -0.0025
  307TIP3    H122556   3.253   4.501   2.270  2.4435 -1.8203  1.0096
  307TIP3    H222557   3.222   4.468   2.125 -0.6241  1.5127  0.7611
  308TIP3   OH222558   5.755   1.191   2.639 -0.9027  0.0494 -0.0227
  308TIP3    H122559   5.787   1.249   2.707  0.3403  0.0272 -0.5518
  308TIP3    H222560   5.684   1.239   2.596 -2.6344 -0.4616  2.0865
  309TIP3   OH222561   2.251   0.231   7.535  0.0493  0.2629  0.7757
  309TIP3    H122562   2.296   0.306   7.496  1.3623 -0.9429 -0.1127
  309TIP3    H222563   2.178   0.214   7.476 -0.2794  0.8512  1.0029
  310TIP3   OH222564   4.553   3.854   7.111 -0.4944 -0.3022  0.2820
  310TIP3    H122565   4.633   3.809   7.084 -0.0703  1.5371 -1.8137
  310TIP3    H222566   4.579   3.946   7.121 -1.9524  0.0146  1.4897
  311TIP3   OH222567   5.614   6.511   0.361 -0.2235  0.4280 -0.6458
  311TIP3    H122568   5.534   6.484   0.406 -0.5446 -0.2204 -1.5744
  311TIP3    H222569   5.682   6.509   0.429  0.0892 -4.0699 -0.7909
  312TIP3   OH222570   2.604   4.755   2.270  0.4607  0.1706  0.0261
  312TIP3    H122571   2.614   4.759   2.175 -0.8829  2.4778 -0.1014
  312TIP3    H222572   2.607   4.846   2.298 -0.0010 -0.4018  2.1150
  313TIP3   OH222573   3.208   0.151   1.352  0.2410 -0.6581 -0.3045
  313TIP3    H122574   3.225   0.186   1.440  0.9461 -1.7520  0.0189
  313TIP3    H222575   3.221   0.057   1.361 -2.1520 -1.1248 -1.0015
  314TIP3   OH222576   3.732   6.379   8.104  0.3925 -0.4678 -0.1138
  314TIP3    H122577   3.792   6.367   8.030 -1.6873  0.3171 -2.0611
  314TIP3    H222578   3.746   6.469   8.131 -2.0064  0.8724 -2.7599
  315TIP3   OH222579   5.688   0.006   1.863  0.2745  0.3645 -0.2009
  315TIP3    H122580   5.719   0.067   1.930 -1.3480 -0.5989  1.5291
  315TIP3    H222581   5.593   0.010   1.869  0.0926 -0.4866 -1.8217
  316TIP3   OH222582   2.747   2.440   7.161 -0.0259  0.0076 -0.2212
  316TIP3    H122583   2.705   2.526   7.169  0.1414 -0.0456  1.7262
  316TIP3    H222584   2.802   2.448   7.083 -0.3696  1.5046 -0.3515
  317TIP3   OH222585   3.898   2.262   8.508 -0.2845 -0.0156  0.5754
  317TIP3    H122586   3.856   2.209   8.576  0.8706 -0.1773  1.1961
  317TIP3    H222587   3.890   2.352   8.539  0.9564 -0.1478  1.3866
  318TIP3   OH222588   5.412   1.667   7.370 -0.4822 -0.8884  0.3292
  318TIP3    H122589   5.490   1.682   7.424 -0.1150 -1.4687 -0.0210
  318TIP3    H222590   5.430   1.714   7.289  0.5169 -2.7968 -0.6323
  319TIP3   OH222591   0.581   2.631   0.595 -0.1852 -0.4832  0.1589
  319TIP3    H122592   0.532   2.562   0.639  0.6999 -0.6930  0.8544
  319TIP3    H222593   0.592   2.699   0.661  1.4479 -0.9462  0.4207
  320TIP3   OH222594   0.050   5.058   8.419  0.9698 -0.5873  0.3542
  320TIP3    H122595   0.126   5.004   8.440  2.0539 -0.4324 -2.6308
  320TIP3    H222596   0.000   5.005   8.356 -0.2821  0.1668  0.6768
  321TIP3   OH222597   1.211   1.243   2.619  0.5510 -0.1625 -0.2205
  321TIP3    H122598   1.157   1.286   2.684  0.7734 -0.7099  0.3299
  321TIP3    H222599   1.149   1.198   2.561  0.2907  1.2444 -1.0699
  322TIP3   OH222600   1.050   0.478   2.069 -0.0230 -0.6322  0.3774
  322TIP3    H122601   1.044   0.517   2.156  0.1586  0.1395  0.0524
  322TIP3    H222602   1.004   0.395   2.077 -0.2585 -0.4387  1.1377
  323TIP3   OH222603   5.984   4.425   2.594 -0.1283 -0.0318 -0.2195
  323TIP3    H122604   6.012   4.509   2.558  2.8535 -0.2737  1.2230
  323TIP3    H222605   5.985   4.438   2.688  1.9316 -2.0097  0.1263
  324TIP3   OH222606   5.229   5.083   1.855  0.2247  0.6199  0.2941
  324TIP3    H122607   5.237   4.993   1.888 -2.9222  0.5016  1.0186
  324TIP3    H222608   5.294   5.132   1.905  0.1423 -0.7692  1.8581
  325TIP3   OH222609   0.748   6.429   2.026  0.4764  0.3848 -0.3439
  325TIP3    H122610   0.817   6.399   1.967 -0.6408  0.4546 -1.7541
  325TIP3    H222611   0.794   6.472   2.098  1.8824  0.9850 -1.5540
  326TIP3   OH222612   2.398   3.494   7.928 -0.0706  0.2492 -0.2394
  326TIP3    H122613   2.440   3.566   7.975 -1.3307  0.9332 -0.0889
  326TIP3    H222614   2.352   3.536   7.855 -0.4482 -0.4555 -0.4218
  327TIP3   OH222615   1.027   0.701   0.530  0.0583 -0.5850 -0.0402
  327TIP3    H122616   0.990   0.740   0.450  0.5051 -0.6958 -0.3030
  327TIP3    H222617   1.122   0.702   0.515  0.1619 -0.3242  0.6210
  328TIP3   OH222618   0.899   5.383   1.779 -0.0703 -0.2580  0.0395
  328TIP3    H122619   0.851   5.406   1.700  0.3971  0.7535  0.0454
  328TIP3    H222620   0.988   5.366   1.749  0.7831  2.7102  0.6481
  329TIP3   OH222621   5.008   3.500   8.556  0.0897  0.1599 -0.0606
  329TIP3    H122622   5.089   3.466   8.520  0.5292 -0.6011  1.5575
  329TIP3    H222623   5.013   3.481   8.650 -1.2509  1.5125  0.3387
  330TIP3   OH222624   0.812   5.072   7.368  0.2016 -0.1944  0.2309
  330TIP3    H122625   0.901   5.101   7.387  0.6069 -1.0250 -0.3434
  330TIP3    H222626   0.756   5.136   7.413  1.0815 -0.0052  1.0990
  331TIP3   OH222627   4.255   6.005   3.299  0.1841  0.2678  0.0830
  331TIP3    H122628   4.277   5.936   3.236 -0.4956  0.8288 -0.7798
  331TIP3    H222629   4.176   6.046   3.264  0.4087  1.2954  0.7378
  332TIP3   OH222630   6.210   3.217   1.464 -0.4521  0.2568 -0.2073
  332TIP3    H122631   6.176   3.293   1.512 -0.6139  0.4418 -0.6147
  332TIP3    H222632   6.152   3.209   1.389 -0.0539  0.1075 -0.4960
  333TIP3   OH222633   2.761   4.856   8.798  0.5079  0.1662 -0.2184
  333TIP3    H122634   2.826   4.859   8.728  0.9211 -1.9295  0.0034
  333TIP3    H222635   2.810   4.878   8.877  0.7524 -0.4542 -0.1892
  334TIP3   OH222636   0.666   0.308   2.379  0.1550 -0.2734  0.0681
  334TIP3    H122637   0.634   0.241   2.318 -2.1633 -0.0966  1.0032
  334TIP3    H222638   0.705   0.375   2.323 -1.5957 -0.2731 -1.2273
  335TIP3   OH222639   1.194   3.853   1.792  0.5218  0.2686 -0.7954
  335TIP3    H122640   1.177   3.944   1.816  0.8121  0.4377 -1.2129
  335TIP3    H222641   1.238   3.858   1.707 -0.6227 -0.3166 -1.4447
  336TIP3   OH222642   3.168   1.239   0.332  0.2059  0.2013 -0.1577
  336TIP3    H122643   3.223   1.198   0.399  0.5688 -1.5326 -1.4356
  336TIP3    H222644   3.079   1.229   0.366  0.4131 -0.2963  0.2609
  337TIP3   OH222645   1.468   0.094   1.699  0.1922  0.3586  0.6816
  337TIP3    H122646   1.485   0.180   1.738 -1.9033 -0.3190  3.4387
  337TIP3    H222647   1.519   0.033   1.753  0.4631 -0.2718 -0.2660
  338TIP3   OH222648   3.815   6.508   2.524  0.2761  0.3079  0.5309
  338TIP3    H122649   3.910   6.495   2.523  0.2181 -0.1149  0.4883
  338TIP3    H222650   3.781   6.445   2.462 -0.1709 -0.6902  1.7431
  339TIP3   OH222651   1.359   1.862   1.830 -0.1737 -0.0275 -0.7376
  339TIP3    H122652   1.348   1.943   1.880  0.9376 -0.6200  0.5220
  339TIP3    H222653   1.326   1.793   1.888 -2.6968 -0.3845 -2.4298
  340TIP3   OH222654   3.151   0.952   8.775  0.0153 -0.2120  0.2170
  340TIP3    H122655   3.246   0.959   8.773  0.1097 -0.8347  1.2329
  340TIP3    H222656   3.121   1.036   8.809  0.1009  0.4601 -1.3222
  341TIP3   OH222657   6.482   2.513   2.023 -0.2011 -0.3532 -0.4440
  341TIP3    H122658   6.554   2.527   1.963 -0.5773  0.0937 -0.7962
  341TIP3    H222659   6.524   2.505   2.109  0.1886  1.2743 -0.4403
  342TIP3   OH222660   4.727   3.057   8.314  0.6528  0.1621 -0.4342
  342TIP3    H122661   4.720   3.081   8.221 -0.2500  0.3515 -0.3284
  342TIP3    H222662   4.736   3.141   8.359 -0.0448  0.1453 -0.2599
  343TIP3   OH222663   2.018   2.300   1.872  0.8839 -0.0429  0.2973
  343TIP3    H122664   2.021   2.320   1.966 -1.6165 -0.5518  0.5605
  343TIP3    H222665   2.108   2.279   1.849  1.9467  2.0379  2.1201
  344TIP3   OH222666   0.786   4.072   1.835  0.2207  0.3019  0.6488
  344TIP3    H122667   0.797   3.977   1.842 -0.4791 -0.0390 -1.7721
  344TIP3    H222668   0.817   4.092   1.747 -0.3538  2.2156  0.8521
  345TIP3   OH222669   4.234   6.808   2.084  0.6309  0.5789 -0.0400
  345TIP3    H122670   4.209   6.897   2.110 -0.7617  0.3184 -0.4307
  345TIP3    H222671   4.285   6.775   2.158 -0.8435  0.8686  1.1568
  346TIP3   OH222672   4.771   6.499   1.861  0.2883  0.4673  0.1674
  346TIP3    H122673   4.829   6.427   1.884 -1.1199 -1.0283 -0.6981
  346TIP3    H222674   4.813   6.540   1.785 -1.1353 -2.6243 -2.5851
  347TIP3   OH222675   3.828   0.824   1.097  0.3723 -0.1334 -0.1530
  347TIP3    H122676   3.740   0.849   1.126  0.9548 -0.7357  2.4534
  347TIP3    H222677   3.823   0.729   1.084  0.5809 -0.1337 -0.2322
  348TIP3   OH222678   3.645   1.821   7.920  0.0052  0.1695  0.2963
  348TIP3    H122679   3.666   1.727   7.923 -0.7550 -0.0478 -0.7409
  348TIP3    H222680   3.553   1.826   7.945 -0.7186  0.3308 -2.1280
  349TIP3   OH222681   3.328   0.268   2.381 -0.3554  0.1952 -0.5473
  349TIP3    H122682   3.332   0.352   2.336  1.9693 -0.3991 -1.6214
  349TIP3    H222683   3.353   0.288   2.472 -0.2115  0.7411 -0.7039
  350TIP3   OH222684   4.895   3.901   0.202 -0.1943 -0.2596  0.1788
  350TIP3    H122685   4.873   3.933   0.114 -0.5740  0.7458  0.6247
  350TIP3    H222686   4.947   3.822   0.186  0.1615  0.1740 -0.9615
  351TIP3   OH222687   2.657   1.522   0.466 -0.0714 -0.3145  0.2031
  351TIP3    H122688   2.582   1.483   0.510  0.1007 -0.9291 -0.0477
  351TIP3    H222689   2.660   1.612   0.500 -0.8755 -0.3023  0.2694
  352TIP3   OH222690   3.635   0.180   1.799  0.3225  0.7651 -0.0699
  352TIP3    H122691   3.723   0.205   1.828 -0.1702  0.0366  2.2596
  352TIP3    H222692   3.639   0.085   1.788 -0.3397  0.6213  0.8087
  353TIP3   OH222693   0.093   1.613   1.823  0.1500  0.2841 -0.1440
  353TIP3    H122694   0.162   1.547   1.819  0.8249  0.9118  0.7931
  353TIP3    H222695   0.135   1.693   1.794  0.0383  0.8383  1.1778
  354TIP3   OH222696   3.479   0.364   1.271  0.1875 -0.0108  0.1591
  354TIP3    H122697   3.515   0.311   1.342 -0.0653 -1.3577 -0.6790
  354TIP3    H222698   3.526   0.447   1.277  0.1679 -0.0866  1.8865
  355TIP3   OH222699   4.064   1.998   2.404  0.1120  0.1184  0.3637
  355TIP3    H122700   4.097   1.915   2.439 -2.2322 -1.0734 -0.0376
  355TIP3    H222701   4.078   1.991   2.309 -0.2444  0.1040  0.3120
  356TIP3   OH222702   1.568   1.503   1.390  0.3951 -0.1526  0.1060
  356TIP3    H122703   1.581   1.553   1.310  1.6243 -0.0253  0.3690
  356TIP3    H222704   1.617   1.422   1.377  0.3315 -0.2779  0.6003
  357TIP3   OH222705   2.949   6.501   0.203 -0.4674 -0.3272  0.5256
  357TIP3    H122706   2.861   6.520   0.235 -0.5127 -2.0438  1.5409
  357TIP3    H222707   2.948   6.407   0.185  1.1458 -0.3666  0.4941
  358TIP3   OH222708   5.354   3.135   8.125  0.1149  0.8151  0.6144
  358TIP3    H122709   5.397   3.137   8.039 -0.8054  1.1361  0.1479
  358TIP3    H222710   5.285   3.200   8.119 -1.2228 -0.5276  0.9242
  359TIP3   OH222711   2.030   0.142   8.121  0.0401  0.4720 -0.3745
  359TIP3    H122712   2.078   0.063   8.097  1.9770  1.4096  0.2014
  359TIP3    H222713   2.061   0.209   8.060 -1.1845  0.9183 -0.5352
  360TIP3   OH222714   0.241   4.917   2.532 -0.3561 -0.5045  0.5136
  360TIP3    H122715   0.264   4.829   2.503 -0.0944 -0.1710 -0.3375
  360TIP3    H222716   0.148   4.926   2.509  0.3625  0.5452 -2.4226
  361TIP3   OH222717   1.520   0.769   7.809  0.3986  0.2068  0.1029
  361TIP3    H122718   1.599   0.715   7.815  0.3832  0.1540 -0.1704
  361TIP3    H222719   1.522   0.823   7.888  1.7055  1.5675 -0.8151
  362TIP3   OH222720   0.540   2.300   1.356 -0.3228  0.4733  0.0985
  362TIP3    H122721   0.521   2.356   1.282  0.4296  0.2196 -0.3004
  362TIP3    H222722   0.526   2.211   1.324 -0.1274  0.3674  0.2987
  363TIP3   OH222723   1.003   4.479   2.904 -0.0556  0.2959  0.3135
  363TIP3    H122724   0.931   4.435   2.949  0.8933 -1.0560  0.5843
  363TIP3    H222725   0.963   4.518   2.826 -1.0913 -0.3221  0.5178
  364TIP3   OH222726   2.775   2.951   0.285  0.0040 -0.7202  0.0068
  364TIP3    H122727   2.702   2.898   0.252 -0.9254  0.2718  0.4144
  364TIP3    H222728   2.801   3.005   0.211 -1.0404  0.3836  0.4308
  365TIP3   OH222729   4.197   3.925   1.554 -0.9265 -0.5413 -0.3533
  365TIP3    H122730   4.272   3.899   1.502 -1.4499 -0.6691 -1.0593
  365TIP3    H222731   4.153   3.842   1.576 -0.3703 -0.5474  0.8361
  366TIP3   OH222732   0.580   3.919   2.614 -0.3916  0.0331  0.4921
  366TIP3    H122733   0.545   3.990   2.561 -0.4511 -0.3331  0.0373
  366TIP3    H222734   0.653   3.884   2.563 -0.4689 -0.3404  0.6306
  367TIP3   OH222735   4.422   3.641   2.171  0.0483  0.1008 -0.2303
  367TIP3    H122736   4.457   3.705   2.109 -0.4220 -0.1765 -0.7874
  367TIP3    H222737   4.375   3.578   2.117  0.3520 -0.6238  0.3270
  368TIP3   OH222738   2.931   3.960   0.978  0.7812  0.1024 -0.3631
  368TIP3    H122739   2.845   3.919   0.989  1.8704 -2.0442  1.1001
  368TIP3    H222740   2.927   4.040   1.030 -0.2638 -0.1119 -0.0966
  369TIP3   OH222741   0.066   6.485   0.924  0.5076 -0.0234 -0.1317
  369TIP3    H122742   0.007   6.510   0.994 -0.5939 -1.0001 -0.6788
  369TIP3    H222743   0.081   6.566   0.875 -0.9684  0.0957 -0.4077
  370TIP3   OH222744   3.284   0.620   0.008  0.3403 -0.0627  0.0753
  370TIP3    H122745   3.315   0.529   0.012  0.8426  0.1547  1.9883
  370TIP3    H222746   3.360   0.669  -0.023  0.3084 -0.1914 -0.2098
  371TIP3   OH222747   2.255   6.438   8.239 -0.8067 -0.0434  0.2801
  371TIP3    H122748   2.200   6.420   8.315 -0.2046 -0.0839  0.7122
  371TIP3    H222749   2.195   6.436   8.165 -1.2618 -0.8260  0.6584
  372TIP3   OH222750   5.114   1.929   7.979  0.0184  0.1126 -0.1113
  372TIP3    H122751   5.118   1.947   7.885 -0.9880 -0.0567 -0.1956
  372TIP3    H222752   5.047   1.861   7.988  1.5339 -1.3417  0.5379
  373TIP3   OH222753   5.917   2.444   0.407  0.1357  0.1727 -0.4642
  373TIP3    H122754   5.938   2.527   0.449  1.9577  0.3728 -1.6598
  373TIP3    H222755   5.836   2.415   0.450 -0.3697  2.3816  0.2152
  374TIP3   OH222756   5.753   1.718   2.373 -0.0860 -0.1306 -0.9727
  374TIP3    H122757   5.830   1.763   2.408  1.1381 -2.9496  0.2723
  374TIP3    H222758   5.683   1.740   2.435  0.1947  0.8396 -0.9815
  375TIP3   OH222759   6.497   4.544   2.761  0.7751 -0.2316 -0.2324
  375TIP3    H122760   6.511   4.566   2.669 -0.1889  0.7083 -0.1712
  375TIP3    H222761   6.558   4.600   2.809  0.6892 -0.1174 -0.2561
  376TIP3   OH222762   0.641   1.876   8.270  0.6185  0.8222  0.1188
  376TIP3    H122763   0.699   1.912   8.336 -0.4669  1.5037  0.7367
  376TIP3    H222764   0.693   1.810   8.225  1.8488  1.4003  0.6551
  377TIP3   OH222765   0.859   6.528   8.471  0.1025 -0.0088  0.2021
  377TIP3    H122766   0.902   6.515   8.387 -0.0349  1.2896 -0.0955
  377TIP3    H222767   0.881   6.618   8.495  1.0593 -0.7147  2.1104
  378TIP3   OH222768   2.905   5.398   0.782  0.1833  0.1880 -0.2439
  378TIP3    H122769   2.937   5.354   0.861  1.0826  1.7336  0.2874
  378TIP3    H222770   2.814   5.421   0.802 -0.2696 -1.2927 -0.4929
  379TIP3   OH222771   2.956   1.600   1.526  0.6394 -0.0287 -0.0253
  379TIP3    H122772   2.950   1.618   1.620  0.5158  2.4398 -0.4431
  379TIP3    H222773   2.868   1.614   1.493  1.3267  2.5638 -0.9775
  380TIP3   OH222774   1.140   4.524   8.741  0.6284  0.3158 -0.1759
  380TIP3    H122775   1.106   4.610   8.717  0.0214 -0.1046 -0.8672
  380TIP3    H222776   1.084   4.462   8.694  0.9204 -0.4664  0.4822
  381TIP3   OH222777   3.630   2.169   0.284  0.0878 -0.1705  0.0864
  381TIP3    H122778   3.554   2.225   0.294 -0.2843 -0.6355 -0.0999
  381TIP3    H222779   3.698   2.226   0.248  0.0297  0.4047  0.8693
  382TIP3   OH222780   3.110   4.983   2.890  0.2894  0.6500 -0.0728
  382TIP3    H122781   3.190   4.934   2.910  0.7217  0.9279 -1.0580
  382TIP3    H222782   3.049   4.917   2.858  1.0034  0.7791 -1.7802
  383TIP3   OH222783   3.324   3.168   2.121 -0.2880 -0.0430 -0.0738
  383TIP3    H122784   3.328   3.195   2.213  0.6038  1.3188 -0.4834
  383TIP3    H222785   3.374   3.235   2.074 -1.4448 -0.2404 -1.6634
  384TIP3   OH222786   6.782   1.558   8.306  1.1564  0.2715 -0.3462
  384TIP3    H122787   6.847   1.568   8.236  1.6022 -0.4297 -0.0341
  384TIP3    H222788   6.817   1.611   8.378  1.6628 -0.5268  0.0093
  385TIP3   OH222789   3.426   4.434   0.756 -0.2764 -0.2923  0.2239
  385TIP3    H122790   3.397   4.516   0.795 -1.0303 -0.2835 -0.3325
  385TIP3    H222791   3.347   4.379   0.753 -0.2848 -0.2582 -1.3543
  386TIP3   OH222792   1.131   5.370   1.388 -0.0631  0.4439  0.3109
  386TIP3    H122793   1.078   5.290   1.388 -1.7745  1.5230 -0.4291
  386TIP3    H222794   1.074   5.436   1.350  1.3607  2.0069  0.7903
  387TIP3   OH222795   5.463   2.087   0.956  0.0928  0.2774 -0.0888
  387TIP3    H122796   5.505   2.042   0.883 -0.1073  1.1631 -0.7508
  387TIP3    H222797   5.371   2.092   0.933 -0.2839 -0.9399  1.0017
  388TIP3   OH222798   6.606   1.830   0.439 -0.4706 -0.1148  0.2663
  388TIP3    H122799   6.544   1.776   0.390 -0.8118  0.8899 -0.4458
  388TIP3    H222800   6.620   1.907   0.384 -2.1358  1.8569  2.3994
  389TIP3   OH222801   6.423   4.134   2.187  0.3949 -0.2984 -0.0522
  389TIP3    H122802   6.388   4.100   2.105  1.2328  0.2438 -0.6491
  389TIP3    H222803   6.346   4.158   2.238 -0.1624 -1.6910 -0.2129
  390TIP3   OH222804   1.760   6.169   2.707  0.4197 -0.4497  0.1625
  390TIP3    H122805   1.746   6.104   2.638 -0.5433  0.0674 -0.1431
  390TIP3    H222806   1.677   6.173   2.755  0.0969  1.2635 -0.4572
  391TIP3   OH222807   4.749   2.755   0.372 -0.7694  0.0522 -0.7006
  391TIP3    H122808   4.804   2.679   0.351 -1.6304 -1.3227  1.6713
  391TIP3    H222809   4.660   2.726   0.351 -1.5740 -1.1046  3.4806
  392TIP3   OH222810   2.805   4.792   7.812 -0.2950  0.3605 -0.1169
  392TIP3    H122811   2.776   4.821   7.898 -1.0004  0.4902 -0.3909
  392TIP3    H222812   2.743   4.832   7.751  0.1748  0.2396 -0.6803
  393TIP3   OH222813   1.134   6.413   3.102  0.2662  0.2543  0.2279
  393TIP3    H122814   1.181   6.330   3.099  0.4654  0.3775 -0.1354
  393TIP3    H222815   1.042   6.389   3.092  0.1822 -0.0387  1.5338
  394TIP3   OH222816   3.069   1.878   1.676 -0.3915 -0.1470 -0.2897
  394TIP3    H122817   3.006   1.880   1.603 -0.4735  2.0942 -0.2096
  394TIP3    H222818   3.015   1.864   1.754 -0.5060 -0.6753 -0.4583
  395TIP3   OH222819   6.344   4.242   0.357  0.0453 -0.2543  0.1474
  395TIP3    H122820   6.353   4.236   0.452 -0.7386 -1.4095  0.1686
  395TIP3    H222821   6.307   4.329   0.342 -0.1433 -0.1928  0.9265
  396TIP3   OH222822   3.106   1.212   8.502 -0.3003 -0.0571  0.7510
  396TIP3    H122823   3.200   1.193   8.493 -0.3995 -0.0341 -0.4507
  396TIP3    H222824   3.098   1.247   8.591  0.5703 -1.5716  1.4818
  397TIP3   OH222825   2.272   2.523   0.602 -0.5892  0.1284  0.3914
  397TIP3    H122826   2.358   2.549   0.636 -1.1901  1.1977  1.1626
  397TIP3    H222827   2.215   2.527   0.679 -1.1339 -1.5933  0.1157
  398TIP3   OH222828   3.528   6.250   2.013  0.1276 -0.2495 -0.0315
  398TIP3    H122829   3.523   6.303   2.093  0.6322 -0.3360  0.0627
  398TIP3    H222830   3.448   6.271   1.965 -0.9130 -1.2830  1.1716
  399TIP3   OH222831   5.560   3.647   7.944  0.6845 -0.0278 -0.4514
  399TIP3    H122832   5.655   3.647   7.938  0.7601 -1.6003  0.2690
  399TIP3    H222833   5.534   3.734   7.914  2.6562  2.4933  4.0318
  400TIP3   OH222834   1.551   4.882   2.456 -0.9847  0.2300  0.1129
  400TIP3    H122835   1.553   4.819   2.384 -0.6460  1.9603 -1.4768
  400TIP3    H222836   1.643   4.895   2.480 -0.9462  0.9430 -0.3704
  401TIP3   OH222837   1.871   1.012   7.767  0.5815 -0.0869  0.1391
  401TIP3    H122838   1.842   1.021   7.858 -2.9631  1.6654 -0.9547
  401TIP3    H222839   1.891   1.101   7.739  0.2593 -0.4050 -1.1660
  402TIP3   OH222840   3.711   0.026   0.501 -0.2327  0.1234 -0.0043
  402TIP3    H122841   3.685   0.112   0.470 -1.2725 -0.1075  0.1871
  402TIP3    H222842   3.746  -0.018   0.424 -0.4600  0.4293 -0.2820
  403TIP3   OH222843   3.290   3.220   0.015  0.0984  0.8186  0.0223
  403TIP3    H122844   3.311   3.221   0.109 -0.8082  2.1782  0.2325
  403TIP3    H222845   3.337   3.295  -0.021  1.2353 -0.2565 -0.8291
  404TIP3   OH222846   5.540   6.148   1.660 -0.3597 -1.2990  0.1275
  404TIP3    H122847   5.510   6.079   1.719 -1.1286 -0.1168  1.1746
  404TIP3    H222848   5.598   6.202   1.714  0.4453 -1.2462 -0.7526
  405TIP3   OH222849   1.841   5.365   0.840  0.2196  0.0210 -0.3932
  405TIP3    H122850   1.859   5.311   0.763 -3.4539 -1.0977 -0.6541
  405TIP3    H222851   1.833   5.454   0.805 -1.8271 -0.5284 -1.4597
  406TIP3   OH222852   0.765   3.611   0.451  0.2543 -0.2800  0.1079
  406TIP3    H122853   0.730   3.542   0.507 -0.4239  0.6872  0.9001
  406TIP3    H222854   0.785   3.567   0.368 -2.1131 -1.0304 -0.1291
  407TIP3   OH222855   5.761   2.662   2.428  1.0111  0.2435 -0.1184
  407TIP3    H122856   5.829   2.727   2.446  1.4103 -0.2849  0.2886
  407TIP3    H222857   5.721   2.646   2.514  0.4648  0.4446 -0.3318
  408TIP3   OH222858   3.416   2.455   1.447 -0.2762 -0.3290  0.3790
  408TIP3    H122859   3.456   2.534   1.411 -0.2591 -0.7784 -0.6356
  408TIP3    H222860   3.335   2.485   1.489  0.1459  0.3267  0.7249
  409TIP3   OH222861   6.329   3.290   8.653 -0.0523 -0.0711  0.2616
  409TIP3    H122862   6.304   3.255   8.738  1.2217 -0.8492  0.3501
  409TIP3    H222863   6.259   3.263   8.594 -0.6832  0.0170  0.9598
  410TIP3   OH222864   2.376   2.305   8.613  0.2879 -0.5796  0.4991
  410TIP3    H122865   2.371   2.260   8.529  0.9330 -0.5651  0.4517
  410TIP3    H222866   2.289   2.292   8.652 -0.2357 -0.0357 -0.4418
  411TIP3   OH222867   2.953   6.332   2.145 -0.1595  0.2760 -0.1207
  411TIP3    H122868   3.003   6.304   2.221 -0.7783  2.0526  0.9990
  411TIP3    H222869   2.863   6.341   2.177 -0.4138  1.1465 -1.0257
  412TIP3   OH222870   3.953   0.080   0.054 -0.6460 -0.2418 -0.1138
  412TIP3    H122871   3.874   0.045   0.095 -0.0216 -2.2416 -0.5286
  412TIP3    H222872   4.013   0.006   0.049  0.8728  0.9689 -0.7989
  413TIP3   OH222873   4.873   4.178   0.298 -0.1335 -0.1478  1.0645
  413TIP3    H122874   4.827   4.165   0.381 -1.1154  0.3359  0.6136
  413TIP3    H222875   4.891   4.089   0.266 -2.0360 -0.3962  0.5706
  414TIP3   OH222876   6.498   5.359   7.751  0.1159 -0.1757 -0.0483
  414TIP3    H122877   6.522   5.433   7.695 -0.2105  0.0185  0.0658
  414TIP3    H222878   6.487   5.397   7.838 -0.0625 -0.3574  0.0084
  415TIP3   OH222879   0.581   4.974   2.876  0.1878  0.1226  0.4055
  415TIP3    H122880   0.580   5.028   2.956  0.8871 -0.2547  0.6832
  415TIP3    H222881   0.660   4.921   2.885  0.7970  0.7466 -0.9899
  416TIP3   OH222882   4.155   2.842   1.232  0.2891 -0.4292  0.3030
  416TIP3    H122883   4.100   2.896   1.176 -0.2892 -0.9140  0.3852
  416TIP3    H222884   4.104   2.832   1.313  0.1347 -1.5288  0.0926
  417TIP3   OH222885   5.160   1.206   2.871 -0.5433  0.8540 -0.3381
  417TIP3    H122886   5.245   1.245   2.855 -0.1501 -0.3316 -1.2744
  417TIP3    H222887   5.132   1.243   2.955  0.4039  2.0471 -0.5224
  418TIP3   OH222888   4.318   1.464   8.264  0.3650  0.0741 -0.7324
  418TIP3    H122889   4.289   1.472   8.174 -0.0856 -0.4366 -0.6379
  418TIP3    H222890   4.258   1.401   8.303 -0.8109  1.8444  0.4917
  419TIP3   OH222891   4.102   6.162   1.272 -0.6037  0.7295 -0.4233
  419TIP3    H122892   4.023   6.192   1.227 -1.5027 -1.1293 -0.1586
  419TIP3    H222893   4.110   6.070   1.249  0.1024  0.2531  1.5227
  420TIP3   OH222894   4.429   4.305   2.121 -0.3220 -0.3197 -0.0065
  420TIP3    H122895   4.436   4.282   2.214 -1.9465  1.2466  0.5762
  420TIP3    H222896   4.395   4.226   2.079 -0.5964 -0.7247  0.9429
  421TIP3   OH222897   4.005   3.875   1.892  0.1711  0.0143  0.0590
  421TIP3    H122898   3.932   3.868   1.954  0.5533 -5.0380  0.3610
  421TIP3    H222899   3.968   3.844   1.809  1.4968 -1.1575 -0.1402
  422TIP3   OH222900   1.743   1.835   2.891  1.0847  0.1681 -0.8139
  422TIP3    H122901   1.823   1.823   2.942 -0.7275 -1.4392  1.8918
  422TIP3    H222902   1.691   1.898   2.942 -0.6997 -1.2927 -0.7064
  423TIP3   OH222903   0.764   1.215   0.074 -0.2037  0.2171  0.2148
  423TIP3    H122904   0.738   1.284   0.014 -2.1852 -0.2131  0.4852
  423TIP3    H222905   0.783   1.140   0.018  0.4009  0.5201  0.0080
  424TIP3   OH222906   2.310   3.666   7.680  0.2541  0.1078 -0.1120
  424TIP3    H122907   2.365   3.734   7.641 -0.3326  1.8396  1.9085
  424TIP3    H222908   2.229   3.712   7.705 -0.4201 -1.4721  0.7583
  425TIP3   OH222909   0.451   4.420   0.349 -0.7698 -0.0714  0.2854
  425TIP3    H122910   0.411   4.349   0.299 -1.9218 -0.0603  1.1563
  425TIP3    H222911   0.448   4.391   0.440  0.9893  0.0561  0.4026
  426TIP3   OH222912   5.710   3.571   7.711 -0.2068 -0.0049 -0.0982
  426TIP3    H122913   5.619   3.581   7.740  0.1755  3.4867  0.2671
  426TIP3    H222914   5.708   3.595   7.618  0.2614 -0.7298 -0.3091
  427TIP3   OH222915   5.840   4.838   8.312  0.4504  0.3196 -0.2078
  427TIP3    H122916   5.871   4.747   8.305 -1.8748 -0.5153 -0.5206
  427TIP3    H222917   5.747   4.830   8.333  0.1273  2.6514 -0.4906
  428TIP3   OH222918   0.127   0.557   2.945 -0.1901 -0.3075  0.0314
  428TIP3    H122919   0.130   0.467   2.978 -0.7129 -0.1468  0.5482
  428TIP3    H222920   0.212   0.594   2.968 -1.1127  0.3271  2.8418
  429TIP3   OH222921   6.732   3.364   1.264  0.1601 -0.4378 -0.4697
  429TIP3    H122922   6.806   3.411   1.301  0.4737 -0.5094 -0.9995
  429TIP3    H222923   6.712   3.295   1.328 -0.7093  0.7811  0.6243
  430TIP3   OH222924   2.887   6.509   8.466 -0.3094 -0.1570 -0.5581
  430TIP3    H122925   2.958   6.573   8.474 -0.6708  0.0536  1.7007
  430TIP3    H222926   2.827   6.532   8.537 -0.0268 -3.5098  0.9136
  431TIP3   OH222927   2.197   2.370   1.037  0.0717 -0.2038 -0.0914
  431TIP3    H122928   2.184   2.374   1.132 -0.0830 -1.4435 -0.0490
  431TIP3    H222929   2.129   2.310   1.006 -1.2909  1.8122 -1.2828
  432TIP3   OH222930   4.871   5.179   0.753 -0.3613 -0.7583  0.4349
  432TIP3    H122931   4.938   5.246   0.740 -0.5157 -0.1018  2.4966
  432TIP3    H222932   4.910   5.098   0.720  2.2783 -0.7769  3.1756
  433TIP3   OH222933   4.987   3.082   1.426 -0.2921 -0.1462 -0.2304
  433TIP3    H122934   5.063   3.058   1.480  0.6235  0.7629 -1.0806
  433TIP3    H222935   5.007   3.169   1.393 -1.6757  0.0763 -0.5607
  434TIP3   OH222936   2.268   0.933   8.185  0.4120 -1.0051 -0.2014
  434TIP3    H122937   2.222   0.967   8.109  0.6091 -0.4186 -0.0607
  434TIP3    H222938   2.318   0.858   8.152 -1.4275 -2.3327 -0.1670
  435TIP3   OH222939   5.178   4.288   0.438 -0.5371 -0.0724  0.6848
  435TIP3    H122940   5.244   4.355   0.457  0.2417 -0.3065 -0.9870
  435TIP3    H222941   5.095   4.332   0.453 -0.0328  1.0660  0.3304
  436TIP3   OH222942   3.234   3.837   7.576  0.4665  0.5427  0.1897
  436TIP3    H122943   3.195   3.923   7.589 -1.3296  0.0521 -1.4226
  436TIP3    H222944   3.170   3.776   7.614  1.6224 -0.1089  1.1449
  437TIP3   OH222945   1.121   3.454   8.004 -0.0423 -0.5004 -0.2723
  437TIP3    H122946   1.125   3.526   7.941 -0.5525 -0.6255 -0.4535
  437TIP3    H222947   1.100   3.497   8.087 -0.5148 -0.4580 -0.4126
  438TIP3   OH222948   2.674   4.044   7.532  0.2599  0.1977 -0.1959
  438TIP3    H122949   2.723   4.100   7.592 -0.4741 -2.2629  2.9550
  438TIP3    H222950   2.589   4.088   7.523  0.6930  1.0565 -0.1979
  439TIP3   OH222951   4.431   5.265   0.407 -0.5080  0.3866  0.1019
  439TIP3    H122952   4.476   5.323   0.346  2.0794  0.2601  1.7677
  439TIP3    H222953   4.473   5.180   0.396 -2.5114 -0.5870 -0.4664
  440TIP3   OH222954   5.866   0.387   1.728 -0.0270  0.2976 -0.1505
  440TIP3    H122955   5.781   0.415   1.762  0.0550  1.2888 -0.7293
  440TIP3    H222956   5.929   0.448   1.767  0.1448  1.0061 -1.4939
  441TIP3   OH222957   1.513   6.240   0.312 -0.1159 -0.7862 -0.3024
  441TIP3    H122958   1.461   6.224   0.391 -0.3853  1.5983  0.0535
  441TIP3    H222959   1.449   6.253   0.243 -0.0443  1.4761  0.0021
  442TIP3   OH222960   3.289   3.501   0.446  0.0702 -0.1060  0.2962
  442TIP3    H122961   3.208   3.551   0.449 -0.0092 -0.1136 -1.1038
  442TIP3    H222962   3.358   3.566   0.456 -0.0910 -0.0309  0.9366
  443TIP3   OH222963   4.518   5.191   8.586 -0.1530 -0.4617  0.4799
  443TIP3    H122964   4.540   5.099   8.596  0.3300 -0.7747 -2.5166
  443TIP3    H222965   4.432   5.190   8.542 -0.5523  0.5375  1.2120
  444TIP3   OH222966   4.999   0.299   0.419  0.3072  0.3016 -0.4232
  444TIP3    H122967   5.074   0.276   0.474  0.1399 -1.0449 -0.7228
  444TIP3    H222968   4.941   0.348   0.477  1.5069  1.6139 -0.2609
  445TIP3   OH222969   5.394   3.900   3.170 -0.0220 -0.1404 -0.2523
  445TIP3    H122970   5.435   3.816   3.150 -1.3527 -0.7165 -0.6978
  445TIP3    H222971   5.320   3.905   3.110 -0.9414  0.5708  0.8959
  446TIP3   OH222972   6.264   0.650   8.154  0.5430 -0.6709 -0.5302
  446TIP3    H122973   6.230   0.721   8.099  1.2945  0.2291  0.1295
  446TIP3    H222974   6.213   0.656   8.234  2.2907  0.8082  0.5430
  447TIP3   OH222975   4.761   2.906   1.584 -0.0956 -0.2432 -0.7178
  447TIP3    H122976   4.736   2.948   1.666 -1.9731  0.9991 -1.8557
  447TIP3    H222977   4.854   2.925   1.575 -0.5005  2.2351 -0.3331
  448TIP3   OH222978   3.133   2.172   2.531 -0.1942 -0.4502 -0.8832
  448TIP3    H122979   3.071   2.106   2.501 -1.1566 -1.2781  2.5297
  448TIP3    H222980   3.088   2.256   2.517 -1.0291 -0.8684 -0.7559
  449TIP3   OH222981   1.457   2.458   2.684 -0.2281 -0.2642 -0.1782
  449TIP3    H122982   1.467   2.422   2.772 -0.8661  0.3208  0.1383
  449TIP3    H222983   1.498   2.545   2.689  1.2615 -0.8976 -0.9228
  450TIP3   OH222984   0.575   2.041   2.008 -0.3603 -0.2185 -0.2700
  450TIP3    H122985   0.579   2.137   2.017  0.5560 -0.2659 -0.1017
  450TIP3    H222986   0.612   2.024   1.922 -0.0093 -0.4636 -0.0699
  451TIP3   OH222987   1.463   5.292   0.903  0.3878  0.2875 -0.2636
  451TIP3    H122988   1.539   5.277   0.960 -0.2967  0.2978  0.6778
  451TIP3    H222989   1.491   5.260   0.817  2.3381  2.5092 -0.5669
  452TIP3   OH222990   3.719   1.041   8.476 -0.8687 -0.2102 -0.2084
  452TIP3    H122991   3.784   1.042   8.546 -1.5155  0.5173  0.3973
  452TIP3    H222992   3.659   0.971   8.499 -0.1869 -1.0408 -0.8931
  453TIP3   OH222993   6.394   1.375   1.646 -0.6789 -0.3531 -0.3117
  453TIP3    H122994   6.375   1.304   1.585  0.4264 -0.8223 -0.1417
  453TIP3    H222995   6.346   1.352   1.725 -0.3018 -0.9491 -0.2456
  454TIP3   OH222996   3.138   5.174   8.245 -0.0362 -0.1918  0.1670
  454TIP3    H122997   3.189   5.248   8.280  0.6273 -0.2851 -0.5608
  454TIP3    H222998   3.106   5.128   8.323  2.1661 -0.9343  0.7249
  455TIP3   OH222999   6.478   6.118   8.343 -0.2472  0.5063  0.2028
  455TIP3    H123000   6.502   6.175   8.416 -1.9345 -0.4508  1.5764
  455TIP3    H223001   6.561   6.082   8.312  0.6409  2.0692  0.6562
  456TIP3   OH223002   0.245   3.793   8.601 -0.3968 -0.1929  0.2664
  456TIP3    H123003   0.301   3.737   8.655 -0.9978 -2.1522 -1.0251
  456TIP3    H223004   0.179   3.826   8.662 -0.9333 -2.1625  0.8251
  457TIP3   OH223005   2.912   4.416   0.405 -0.1054 -0.4051  0.6294
  457TIP3    H123006   2.877   4.433   0.492 -1.0084 -1.7365  0.5695
  457TIP3    H223007   2.834   4.400   0.351  0.3507  1.5870 -0.7417
  458TIP3   OH223008   6.488   6.773   8.302  0.3473  0.2332 -0.3482
  458TIP3    H123009   6.484   6.764   8.206  0.1748 -2.2381 -0.1622
  458TIP3    H223010   6.466   6.686   8.335  0.7343  0.9580  1.9595
  459TIP3   OH223011   1.545   3.542   0.484 -0.6223  0.2483 -0.1811
  459TIP3    H123012   1.494   3.597   0.424  0.0228  0.3163 -0.6768
  459TIP3    H223013   1.629   3.530   0.440 -0.6849 -0.9947 -0.0177
  460TIP3   OH223014   1.397   1.678   2.263 -0.3347 -0.6233  0.3188
  460TIP3    H123015   1.443   1.594   2.259  1.4843  0.2588  1.3807
  460TIP3    H223016   1.315   1.658   2.308 -0.0542 -1.8827  0.3219
  461TIP3   OH223017   4.590   5.482   0.307 -0.2256  0.3827 -0.4416
  461TIP3    H123018   4.549   5.558   0.348 -1.4472 -1.1941  1.4354
  461TIP3    H223019   4.680   5.482   0.342  0.1921  1.6137 -1.4389
  462TIP3   OH223020   1.963   5.814   1.897 -0.0850 -0.6885  0.0766
  462TIP3    H123021   1.883   5.836   1.945  0.3609 -0.3636  0.6909
  462TIP3    H223022   2.031   5.866   1.940  0.1300  0.5598 -1.6741
  463TIP3   OH223023   4.315   4.211   8.519  0.1311  0.1818 -0.2169
  463TIP3    H123024   4.274   4.136   8.562  2.5856 -1.1109 -0.0059
  463TIP3    H223025   4.363   4.174   8.445  0.0634  1.7811 -1.1133
  464TIP3   OH223026   2.166   3.141   1.988 -0.2905  0.1573  0.2728
  464TIP3    H123027   2.205   3.204   1.926  0.8328  1.3537  2.0755
  464TIP3    H223028   2.236   3.077   2.003  0.0375  0.7607  1.4414
  465TIP3   OH223029   1.713   0.878   1.787 -0.2979 -0.4497 -0.3366
  465TIP3    H123030   1.640   0.922   1.743 -1.4270 -0.7450  1.1554
  465TIP3    H223031   1.734   0.804   1.731 -1.4955 -0.6410 -0.5708
  466TIP3   OH223032   6.045   1.651   7.110 -0.2648 -0.2314 -0.5477
  466TIP3    H123033   6.014   1.703   7.184 -0.4640 -1.4500  0.2621
  466TIP3    H223034   5.969   1.599   7.084  0.2714 -1.0955 -0.4508
  467TIP3   OH223035   0.081   4.159   0.206  0.3967 -0.5242 -0.2397
  467TIP3    H123036   0.059   4.251   0.193 -1.3160 -0.9729 -0.8332
  467TIP3    H223037   0.009   4.124   0.258  0.3355 -1.8088 -1.1298
  468TIP3   OH223038   6.173   4.797   1.116 -0.3439  0.2943 -0.3525
  468TIP3    H123039   6.210   4.710   1.133 -0.6111  0.4406  1.1179
  468TIP3    H223040   6.249   4.854   1.107 -0.1248  0.4311  1.7763
  469TIP3   OH223041   2.677   0.437   2.445  0.7576 -0.2695 -0.5283
  469TIP3    H123042   2.728   0.357   2.432  0.1109 -0.5862 -1.2049
  469TIP3    H223043   2.740   0.502   2.475  1.3534 -0.9422 -0.3143
  470TIP3   OH223044   1.855   5.063   1.764 -0.1455 -0.5962 -0.4376
  470TIP3    H123045   1.933   5.057   1.820  0.6618  2.1553 -1.0919
  470TIP3    H223046   1.782   5.043   1.821  0.8751 -0.9565  0.7853
  471TIP3   OH223047   2.074   6.408   8.764 -0.2373 -0.0268 -0.4275
  471TIP3    H123048   2.005   6.470   8.740  0.9741  1.5115 -0.0944
  471TIP3    H223049   2.053   6.383   8.854  0.1737  1.2328  0.0357
  472TIP3   OH223050   1.875   1.484   0.641 -0.5223 -0.3343  0.4402
  472TIP3    H123051   1.820   1.420   0.686 -0.3015 -1.4168 -0.7521
  472TIP3    H223052   1.963   1.445   0.644 -0.3799 -0.0789 -0.2637
  473TIP3   OH223053   3.148   2.479   1.492  0.2575  0.3144 -0.6851
  473TIP3    H123054   3.101   2.398   1.475 -1.0892  1.0010 -0.4250
  473TIP3    H223055   3.079   2.546   1.495  1.2522  1.3499 -0.1571
  474TIP3   OH223056   2.040   4.942   8.728  0.2235  0.1952  0.6182
  474TIP3    H123057   1.987   4.863   8.719  0.2730  0.1999  0.2343
  474TIP3    H223058   1.981   5.007   8.765 -0.0272  0.1870  0.2393
  475TIP3   OH223059   6.418   0.384   0.600  0.3557 -0.6061  0.1482
  475TIP3    H123060   6.486   0.451   0.605 -0.3707  0.1508  0.1062
  475TIP3    H223061   6.451   0.312   0.653  0.9628 -0.0402  0.5466
  476TIP3   OH223062   0.248   2.721   1.035  0.0883  0.2734 -0.2821
  476TIP3    H123063   0.246   2.757   1.123  1.5233 -2.1179  0.8267
  476TIP3    H223064   0.158   2.726   1.004 -0.5179  0.7778  1.4802
  477TIP3   OH223065   6.504   3.300   2.378  0.0491  0.2913  0.2440
  477TIP3    H123066   6.560   3.350   2.438  0.7295 -0.4889  0.2739
  477TIP3    H223067   6.522   3.209   2.398  0.1292  0.0149 -1.0050
  478TIP3   OH223068   4.310   4.829   1.741 -0.0772 -0.9627 -1.1546
  478TIP3    H123069   4.372   4.783   1.686 -0.5966 -1.7120 -1.1270
  478TIP3    H223070   4.229   4.779   1.734 -0.8397  0.2750 -1.5895
  479TIP3   OH223071   2.709   1.382   8.224 -0.0650 -0.1725 -0.0015
  479TIP3    H123072   2.717   1.414   8.134  0.0077 -3.5749 -1.3742
  479TIP3    H223073   2.617   1.359   8.233  0.1860 -1.1813  0.2108
  480TIP3   OH223074   4.820   1.102   2.238 -0.3467 -0.6427 -0.1941
  480TIP3    H123075   4.776   1.163   2.296 -0.6397 -1.7523  0.7986
  480TIP3    H223076   4.772   1.020   2.249 -0.0100 -1.0397 -1.5430
  481TIP3   OH223077   2.924   6.268   3.172  0.4429  0.3765  0.1039
  481TIP3    H123078   3.016   6.294   3.160  0.8404 -0.7938  0.4554
  481TIP3    H223079   2.909   6.204   3.102  1.2418 -2.7106  2.5625
  482TIP3   OH223080   3.308   3.379   2.819 -0.2930  0.0741 -0.4366
  482TIP3    H123081   3.316   3.390   2.914 -0.5824 -3.6492  0.1543
  482TIP3    H223082   3.219   3.348   2.805 -1.4107  3.6093 -2.4539
  483TIP3   OH223083   0.126   6.792   0.530  0.2428  0.6495 -0.1537
  483TIP3    H123084   0.135   6.886   0.541 -0.1232  0.7935 -1.0224
  483TIP3    H223085   0.043   6.770   0.571  0.8725  0.5017  1.1070
  484TIP3   OH223086   6.471   2.379   0.649 -0.3564  0.7010 -0.0304
  484TIP3    H123087   6.510   2.292   0.648 -0.3393  0.6869 -1.7379
  484TIP3    H223088   6.398   2.372   0.710 -2.9950 -1.8215 -3.0517
  485TIP3   OH223089   4.392   5.184   1.078 -0.1217 -0.3043 -0.4577
  485TIP3    H123090   4.472   5.200   1.027  0.0847 -0.7384 -0.2705
  485TIP3    H223091   4.380   5.089   1.075 -0.4313 -0.2743 -0.1786
  486TIP3   OH223092   2.885   0.481   2.123  0.1330 -0.3227  0.4900
  486TIP3    H123093   2.921   0.415   2.183 -0.1422  0.0585  1.0860
  486TIP3    H223094   2.870   0.434   2.041  0.0696 -0.9665  0.8633
  487TIP3   OH223095   0.650   5.466   8.190 -0.3479  0.4339  0.2947
  487TIP3    H123096   0.686   5.554   8.191 -0.8831  0.6639 -0.1109
  487TIP3    H223097   0.557   5.478   8.167  0.2827 -0.4853 -3.3254
  488TIP3   OH223098   6.428   0.888   1.378  0.6694  0.2670 -0.6870
  488TIP3    H123099   6.404   0.828   1.449  2.4524  0.5723  0.2518
  488TIP3    H223100   6.355   0.949   1.373  0.6519  0.4664  1.1715
  489TIP3   OH223101   6.665   3.457   0.104 -0.1766  0.3486  0.0702
  489TIP3    H123102   6.735   3.512   0.067 -1.6241  1.5327 -1.0711
  489TIP3    H223103   6.652   3.492   0.192  1.6250 -0.8675  0.8886
  490TIP3   OH223104   4.957   6.410   7.732 -0.3075 -0.2716 -0.2045
  490TIP3    H123105   5.022   6.451   7.789  0.0795  0.1577 -0.9267
  490TIP3    H223106   4.983   6.437   7.644 -1.5791  0.0529 -0.4995
  491TIP3   OH223107   5.876   3.273   0.905  0.2185  0.3833 -0.1976
  491TIP3    H123108   5.937   3.347   0.905  0.8691 -0.1428  0.3978
  491TIP3    H223109   5.930   3.197   0.883 -0.6921  0.2486 -2.1554
  492TIP3   OH223110   4.784   2.173   1.848  0.7290  0.2210  0.5298
  492TIP3    H123111   4.787   2.162   1.753  4.2185 -1.0663  0.6388
  492TIP3    H223112   4.788   2.268   1.861  0.1472  0.4172 -0.5938
  493TIP3   OH223113   1.384   0.375   1.523 -0.0998  0.1082  0.8536
  493TIP3    H123114   1.376   0.449   1.584 -0.9360  0.0301  0.8497
  493TIP3    H223115   1.366   0.298   1.577 -0.4183  0.0067  0.6109
  494TIP3   OH223116   3.169   3.962   7.307 -0.4518 -0.1448 -0.8139
  494TIP3    H123117   3.093   4.019   7.299 -0.0050  0.3180 -2.0885
  494TIP3    H223118   3.176   3.944   7.401 -2.5640 -0.8336 -0.7318
  495TIP3   OH223119   1.167   1.975   7.839 -0.2797 -0.0994  0.1204
  495TIP3    H123120   1.253   2.012   7.857  0.3428 -0.8001 -1.2762
  495TIP3    H223121   1.184   1.899   7.783 -1.7419 -0.8058  0.5818
  496TIP3   OH223122   4.761   3.641   7.064  0.0499  0.3464 -0.0012
  496TIP3    H123123   4.699   3.594   7.009 -0.0309  0.6686 -0.1925
  496TIP3    H223124   4.790   3.577   7.129 -1.3482  0.5104  0.8123
  497TIP3   OH223125   0.921   5.541   0.072  0.3169 -0.4741  0.0321
  497TIP3    H123126   0.989   5.558   0.137  1.3829 -1.0620 -0.8932
  497TIP3    H223127   0.943   5.598  -0.002  0.1558 -1.1162 -0.5173
  498TIP3   OH223128   4.832   5.185   8.529 -0.2703  0.0644  0.3621
  498TIP3    H123129   4.850   5.225   8.444  1.8779 -1.4558 -0.0039
  498TIP3    H223130   4.743   5.210   8.550 -0.8954  0.4257 -2.3846
  499TIP3   OH223131   0.473   3.783   2.245 -0.2052  0.3941  0.3588
  499TIP3    H123132   0.486   3.734   2.164  1.6378  1.2322  0.1049
  499TIP3    H223133   0.489   3.719   2.314 -0.2844  0.0445  0.0610
  500TIP3   OH223134   2.892   0.455   7.576  0.1957  0.4798  0.5261
  500TIP3    H123135   2.927   0.371   7.604 -1.9137 -0.8516 -0.5259
  500TIP3    H223136   2.841   0.487   7.651 -0.2094  0.0706  0.4288
  501TIP3   OH223137   0.812   4.858   1.796  0.0151 -0.5850 -0.5321
  501TIP3    H123138   0.823   4.775   1.842 -1.5212 -0.9172 -0.7181
  501TIP3    H223139   0.782   4.834   1.709  0.9468  0.1275 -1.0763
  502TIP3   OH223140   3.853   3.792   8.576  0.3739 -0.3241 -0.1119
  502TIP3    H123141   3.931   3.787   8.521 -1.1329 -0.6599 -2.3758
  502TIP3    H223142   3.810   3.707   8.565 -1.0490  0.3552 -0.1293
  503TIP3   OH223143   1.267   0.512   2.908  0.0981 -0.3203 -0.1156
  503TIP3    H123144   1.352   0.555   2.918  1.6264 -2.5275 -2.5161
  503TIP3    H223145   1.237   0.500   2.998  0.6074  3.5053  0.7584
  504TIP3   OH223146   0.201   2.182   0.750  0.6692  0.1030  0.2735
  504TIP3    H123147   0.148   2.216   0.677  2.0846  2.7118  0.3375
  504TIP3    H223148   0.275   2.242   0.756  1.6982 -1.2621  2.5611
  505TIP3   OH223149   1.853   1.260   8.710  0.2044 -0.0541  0.0986
  505TIP3    H123150   1.761   1.281   8.694  0.1105 -0.7861 -0.3560
  505TIP3    H223151   1.876   1.200   8.639  0.4866 -1.4417  1.3386
  506TIP3   OH223152   4.742   3.349   1.962 -0.3735 -0.4330 -0.1195
  506TIP3    H123153   4.833   3.365   1.989  0.5051 -2.9614 -1.2263
  506TIP3    H223154   4.689   3.382   2.035  1.4632  0.3206  0.9465
  507TIP3   OH223155   1.483   0.903   1.246 -0.9268 -0.2308  0.0763
  507TIP3    H123156   1.480   0.830   1.309  0.0852 -0.4952 -0.1657
  507TIP3    H223157   1.392   0.915   1.219 -1.2607 -0.6664  0.9628
  508TIP3   OH223158   1.695   2.380   8.779  0.0754  0.3951  0.2291
  508TIP3    H123159   1.703   2.449   8.714  0.5433  1.0036  0.9206
  508TIP3    H223160   1.761   2.400   8.845 -0.2139 -0.3491  0.7677
  509TIP3   OH223161   2.651   4.947   0.673  0.0930  1.0055 -0.8952
  509TIP3    H123162   2.734   4.974   0.633  1.2384  0.7644  1.1933
  509TIP3    H223163   2.655   4.852   0.674 -0.3471  0.9839 -1.0026
  510TIP3   OH223164   6.618   5.187   1.514  0.1579 -0.1139 -0.0373
  510TIP3    H123165   6.682   5.134   1.467  0.0769 -0.6008  0.3921
  510TIP3    H223166   6.549   5.205   1.450 -1.0856 -2.6742  0.4278
  511TIP3   OH223167   3.237   0.329   1.115 -0.0632 -0.0939  0.3405
  511TIP3    H123168   3.327   0.351   1.141 -0.2263  0.1363  0.7290
  511TIP3    H223169   3.209   0.266   1.181  0.7370 -2.2806 -1.3096
  512TIP3   OH223170   4.979   3.490   2.660 -0.4002  0.1607 -0.1014
  512TIP3    H123171   4.929   3.419   2.620  1.0369 -2.6942  2.7041
  512TIP3    H223172   4.914   3.557   2.679 -2.3333 -1.4329 -0.7186
  513TIP3   OH223173   0.412   1.867   1.506 -0.0501 -0.3796 -0.0469
  513TIP3    H123174   0.478   1.843   1.441  0.0423 -2.2741  0.6659
  513TIP3    H223175   0.329   1.862   1.458 -0.0719 -2.6256  0.0836
  514TIP3   OH223176   4.636   6.116   2.129  0.0961 -0.8557 -0.7619
  514TIP3    H123177   4.613   6.184   2.193 -1.7328 -3.6804  1.8765
  514TIP3    H223178   4.580   6.134   2.053 -0.9808  0.1192  0.2267
  515TIP3   OH223179   5.764   6.484   0.938  0.1315 -0.2871 -0.1109
  515TIP3    H123180   5.850   6.441   0.929  0.6587  0.4319  1.2375
  515TIP3    H223181   5.783   6.577   0.933 -0.6520 -0.1288 -0.2760
  516TIP3   OH223182   4.431   1.149   7.750 -0.5909  0.0130 -0.0652
  516TIP3    H123183   4.522   1.167   7.771  0.0299 -1.2782 -1.5138
  516TIP3    H223184   4.394   1.113   7.831  0.2059  0.4482  0.4976
  517TIP3   OH223185   6.796   1.735   0.026 -0.0443 -0.2479 -0.7920
  517TIP3    H123186   6.712   1.721  -0.019 -0.3393 -0.4569 -0.1896
  517TIP3    H223187   6.808   1.830   0.025 -0.3008 -0.2156 -0.8635
  518TIP3   OH223188   3.340   5.983   2.649 -0.1707  0.1256 -0.1359
  518TIP3    H123189   3.368   6.036   2.723 -1.0639  0.4190  0.0122
  518TIP3    H223190   3.249   6.009   2.635 -0.0102  0.0934 -1.3474
  519TIP3   OH223191   0.915   3.120   1.973 -0.1651 -0.5945  0.3507
  519TIP3    H123192   0.977   3.170   1.920  1.1616  0.8451  3.0429
  519TIP3    H223193   0.967   3.046   2.005 -1.4530 -2.4887 -1.6706
  520TIP3   OH223194   5.032   0.153   0.681 -0.2725  0.5710  0.2923
  520TIP3    H123195   5.057   0.073   0.729  0.2157  0.4388 -0.1706
  520TIP3    H223196   4.949   0.131   0.640 -0.3290  0.4303  0.4789
  521TIP3   OH223197   1.579   4.119   8.516 -0.6198  0.3876  0.2311
  521TIP3    H123198   1.590   4.168   8.597 -1.0059  0.2116  0.3920
  521TIP3    H223199   1.645   4.049   8.522 -0.3948  0.5949  0.2181
  522TIP3   OH223200   1.724   5.068   0.529  0.6628  0.0447  0.5282
  522TIP3    H123201   1.761   4.983   0.555  1.4637  0.2169  0.0104
  522TIP3    H223202   1.798   5.129   0.535 -0.0496  0.8467  1.4860
  523TIP3   OH223203   5.940   1.211   0.770 -0.2674  0.0614  0.4255
  523TIP3    H123204   5.933   1.126   0.727  2.0121  0.6989 -1.4066
  523TIP3    H223205   5.849   1.236   0.789 -1.1442 -1.7332 -1.0729
  524TIP3   OH223206   0.111   0.443   8.752 -0.0264 -0.1773 -0.0809
  524TIP3    H123207   0.052   0.487   8.691  0.0287 -0.0290 -0.0278
  524TIP3    H223208   0.059   0.371   8.787  0.3308 -0.9926 -1.1899
  525TIP3   OH223209   2.397   1.052   1.297 -0.9132 -0.2106  0.3349
  525TIP3    H123210   2.307   1.035   1.268 -0.7111 -0.7325 -0.0092
  525TIP3    H223211   2.412   0.988   1.367 -0.6720 -0.4124  0.1019
  526TIP3   OH223212   2.663   3.687   8.625 -0.5140 -0.1245  0.5732
  526TIP3    H123213   2.599   3.747   8.662 -1.5237 -1.2663  0.7488
  526TIP3    H223214   2.612   3.611   8.598  0.7162 -0.8891  0.2996
  527TIP3   OH223215   4.494   1.819   1.766  0.0589 -0.0026 -0.6151
  527TIP3    H123216   4.483   1.725   1.778  0.3817 -0.1621 -1.4896
  527TIP3    H223217   4.556   1.827   1.694  0.4804  0.8862 -0.1692
  528TIP3   OH223218   4.798   0.506   2.711  0.0199 -0.0749  0.1271
  528TIP3    H123219   4.831   0.524   2.623 -2.3300 -1.0183 -1.0477
  528TIP3    H223220   4.842   0.569   2.767  0.6320  1.4384 -1.9448
  529TIP3   OH223221   0.865   0.004   8.397 -0.2516 -0.1745 -0.4006
  529TIP3    H123222   0.780  -0.009   8.357 -0.6741  0.1094  0.3743
  529TIP3    H223223   0.847   0.005   8.491  0.6095 -0.1538 -0.2273
  530TIP3   OH223224   0.155   1.823   1.401 -0.0913 -0.0007 -0.4592
  530TIP3    H123225   0.140   1.803   1.494  2.3238  1.3806  0.3173
  530TIP3    H223226   0.102   1.900   1.384 -1.9734 -1.3093 -0.7972
  531TIP3   OH223227   5.255   0.924   3.295  0.7457  0.8561  0.2024
  531TIP3    H123228   5.293   0.995   3.346  2.5032  0.2606 -0.2035
  531TIP3    H223229   5.303   0.924   3.213  0.5142 -0.5300  0.0338
  532TIP3   OH223230   4.817   3.204   0.900  0.1045  0.7322 -0.2190
  532TIP3    H123231   4.767   3.124   0.915 -1.6754  2.1115  1.6422
  532TIP3    H223232   4.757   3.261   0.852  0.3354  1.9392  0.8866
  533TIP3   OH223233   5.045   0.697   1.986  0.0401 -0.1012  0.4802
  533TIP3    H123234   4.997   0.674   2.065 -0.9441 -2.5992 -0.7273
  533TIP3    H223235   5.030   0.623   1.927  0.8645  1.5818 -1.9874
  534TIP3   OH223236   3.222   4.889   7.078  0.4744 -0.7313 -0.2179
  534TIP3    H123237   3.172   4.970   7.087 -2.4862 -2.4258  0.1680
  534TIP3    H223238   3.218   4.869   6.984  1.2280 -0.4303 -0.3174
  535TIP3   OH223239   4.465   3.506   8.502 -0.3662 -0.6105  0.2419
  535TIP3    H123240   4.508   3.451   8.567  0.0035 -0.6808 -0.0596
  535TIP3    H223241   4.479   3.460   8.419  0.9499  0.5056 -0.1944
  536TIP3   OH223242   5.780   0.005   7.346  0.2452 -0.1628 -0.4484
  536TIP3    H123243   5.801  -0.084   7.374  2.2844  1.4877  4.2487
  536TIP3    H223244   5.689   0.017   7.373  1.0616  0.1686  2.5735
  537TIP3   OH223245   2.838   1.150   8.336 -0.3538  0.4018 -0.4012
  537TIP3    H123246   2.906   1.165   8.401 -1.2623  0.4692  0.5538
  537TIP3    H223247   2.809   1.237   8.310 -1.2661  0.3826  0.4897
  538TIP3   OH223248   2.800   0.725   0.372 -0.5767  0.0443  0.6391
  538TIP3    H123249   2.888   0.762   0.373 -0.6209  0.1383  1.2769
  538TIP3    H223250   2.803   0.658   0.304 -0.0257  0.0675  0.6346
  539TIP3   OH223251   3.401   4.135   3.070  0.2641 -0.4635  0.2120
  539TIP3    H123252   3.404   4.128   2.975 -1.9356 -0.4835  0.0927
  539TIP3    H223253   3.468   4.201   3.091  0.7442 -0.4160 -1.3314
  540TIP3   OH223254   2.881   3.260   1.871 -0.3539  0.0707 -1.3187
  540TIP3    H123255   2.902   3.175   1.833 -2.0769 -0.9478 -0.1223
  540TIP3    H223256   2.934   3.264   1.951 -0.2326  0.1414 -1.4030
  541TIP3   OH223257   5.230   0.061   2.203 -0.0583 -0.5598  0.4394
  541TIP3    H123258   5.170   0.114   2.151  0.9944  0.5979  0.3434
  541TIP3    H223259   5.202   0.074   2.293 -0.4912 -0.7500  0.3348
  542TIP3   OH223260   2.098   2.411   8.231  0.0683  0.1993  0.2022
  542TIP3    H123261   2.141   2.380   8.151  0.6133 -0.0208  0.5805
  542TIP3    H223262   2.134   2.357   8.301 -1.1910 -0.3180  0.4680
  543TIP3   OH223263   0.802   3.013   1.520 -0.0111  0.1859  0.2367
  543TIP3    H123264   0.887   3.001   1.562  0.8413 -0.6997 -1.6035
  543TIP3    H223265   0.796   2.940   1.458 -1.7216  0.7526 -0.3222
  544TIP3   OH223266   2.184   0.364   0.844  0.0641 -0.0614 -0.0711
  544TIP3    H123267   2.239   0.409   0.909  1.3584 -0.7584 -0.6647
  544TIP3    H223268   2.223   0.386   0.760  1.2361 -2.8781 -0.3564
  545TIP3   OH223269   3.544   1.745   1.395  0.2787  0.0604 -0.1362
  545TIP3    H123270   3.464   1.786   1.427  2.1942  3.7422  0.4445
  545TIP3    H223271   3.585   1.708   1.473  0.2399  0.2113 -0.0436
  546TIP3   OH223272   0.978   4.176   8.583 -0.2316  0.0994 -0.2131
  546TIP3    H123273   0.914   4.239   8.550  0.2425 -0.6195 -2.6703
  546TIP3    H223274   1.031   4.153   8.507  1.1559 -1.4542  1.1437
  547TIP3   OH223275   2.333   5.021   1.415  1.0522  0.0844 -0.0478
  547TIP3    H123276   2.251   5.001   1.369 -0.7007  0.7323  2.5556
  547TIP3    H223277   2.389   5.060   1.348 -1.0622  0.3744 -1.7783
  548TIP3   OH223278   5.696   4.048   1.333 -0.0302 -0.1007 -0.5728
  548TIP3    H123279   5.714   4.116   1.269  1.5309 -0.6716 -0.8015
  548TIP3    H223280   5.749   3.973   1.303  0.1346 -0.6254  0.9442
  549TIP3   OH223281   3.434   6.656   0.619 -0.2745 -0.3293 -0.0481
  549TIP3    H123282   3.363   6.720   0.614 -0.1665 -0.1495  0.6986
  549TIP3    H223283   3.405   6.584   0.562 -1.3844 -0.5819  0.7980
  550TIP3   OH223284   2.933   2.160   7.133 -0.1515 -0.2450 -0.1919
  550TIP3    H123285   2.843   2.170   7.104 -0.6264 -2.9559  0.0596
  550TIP3    H223286   2.984   2.158   7.052 -0.4265  0.3694 -0.3842
  551TIP3   OH223287   5.982   0.390   0.282 -0.3154  0.2295 -0.2139
  551TIP3    H123288   5.973   0.476   0.241 -0.0815  0.2904 -0.1344
  551TIP3    H223289   6.058   0.351   0.240 -0.4415  0.0449 -0.2752
  552TIP3   OH223290   3.756   4.930   1.687  0.2704  0.4574  0.1242
  552TIP3    H123291   3.668   4.924   1.723  1.2409  0.2362  2.6343
  552TIP3    H223292   3.788   4.840   1.686  0.0073  0.3144 -2.2380
  553TIP3   OH223293   6.419   2.351   8.116  0.0239 -0.5693 -0.2650
  553TIP3    H123294   6.441   2.293   8.189 -0.7426 -1.9893 -1.1204
  553TIP3    H223295   6.421   2.295   8.039  0.1099  0.7423 -1.2609
  554TIP3   OH223296   2.034   2.949   8.389 -0.0554  0.1314 -0.3474
  554TIP3    H123297   2.072   2.968   8.303  0.3131  2.0188  0.1943
  554TIP3    H223298   1.977   2.873   8.373 -2.1801  2.0390 -2.9223
  555TIP3   OH223299   1.775   0.966   8.037 -0.0625 -0.3641  0.3969
  555TIP3    H123300   1.713   0.897   8.062 -1.7487  0.7621 -0.4330
  555TIP3    H223301   1.728   1.047   8.056  1.2205  0.5343 -0.1698
  556TIP3   OH223302   6.381   4.789   7.899 -0.5206  0.0373  0.3638
  556TIP3    H123303   6.421   4.806   7.814  3.5202  0.4229  2.1235
  556TIP3    H223304   6.324   4.714   7.884 -0.4827  0.4984 -2.7625
  557TIP3   OH223305   5.480   1.236   3.133  0.0002  0.4948 -0.6168
  557TIP3    H123306   5.460   1.148   3.100  0.1212 -0.0089  0.5871
  557TIP3    H223307   5.553   1.267   3.079  2.7530 -1.8130  1.4461
  558TIP3   OH223308   6.797   6.052   0.413 -0.1080 -0.1823 -0.1698
  558TIP3    H123309   6.871   6.028   0.470  0.6495  1.3626 -0.4508
  558TIP3    H223310   6.726   6.074   0.473  0.4756  0.7834  0.1910
  559TIP3   OH223311   0.605   4.317   7.521 -0.6412 -0.1086 -0.2726
  559TIP3    H123312   0.689   4.277   7.543  1.2123  3.0707 -1.0461
  559TIP3    H223313   0.586   4.285   7.433  0.7767  0.5950 -0.8667
  560TIP3   OH223314   5.466   5.144   2.728 -0.4765  0.2736 -0.4677
  560TIP3    H123315   5.437   5.232   2.705  1.6099  0.8906 -1.0038
  560TIP3    H223316   5.477   5.100   2.643 -0.1518 -0.0338 -0.2691
  561TIP3   OH223317   4.177   5.134   7.916  0.2116 -0.1006  0.5126
  561TIP3    H123318   4.119   5.167   7.985 -0.9127  1.1119 -0.9300
  561TIP3    H223319   4.242   5.204   7.905 -0.4978  0.4062 -0.6296
  562TIP3   OH223320   3.045   6.737   8.555 -0.0230 -0.0257  0.4919
  562TIP3    H123321   3.077   6.809   8.502 -0.1266  0.1528  0.6703
  562TIP3    H223322   3.011   6.778   8.634 -1.5189 -0.1175 -0.0636
  563TIP3   OH223323   4.244   4.976   2.839 -0.5113 -0.3964 -0.0128
  563TIP3    H123324   4.235   4.915   2.912 -1.0680 -0.7322 -0.3621
  563TIP3    H223325   4.305   5.043   2.872  1.0379 -1.7358 -0.0290
  564TIP3   OH223326   3.090   5.158   8.810 -0.1122  0.6873 -0.1078
  564TIP3    H123327   3.107   5.107   8.731  1.7560  1.3061 -0.1551
  564TIP3    H223328   3.164   5.138   8.868 -1.4629  0.2025  1.5463
  565TIP3   OH223329   6.059   6.076   2.353  0.2989  0.2539  0.1225
  565TIP3    H123330   6.120   6.094   2.425 -2.0415  2.5444  1.7466
  565TIP3    H223331   6.104   6.013   2.297  3.9974  1.6549  1.2852
  566TIP3   OH223332   0.707   3.092   2.785  0.3155  1.0483  0.1138
  566TIP3    H123333   0.672   3.170   2.827 -2.1221 -0.2197  0.6568
  566TIP3    H223334   0.693   3.106   2.692 -1.0795  0.8890  0.2766
  567TIP3   OH223335   2.272   3.397   1.429 -0.2557 -0.2721 -0.1401
  567TIP3    H123336   2.303   3.310   1.454  0.0256 -0.2566 -0.4231
  567TIP3    H223337   2.272   3.395   1.333  3.1931  1.1835 -0.3306
  568TIP3   OH223338   2.201   6.089   8.095  0.0945  0.2590  0.6206
  568TIP3    H123339   2.140   6.160   8.073 -0.6908 -0.4293  0.5545
  568TIP3    H223340   2.287   6.123   8.069 -0.1313  1.5745  1.4729
  569TIP3   OH223341   0.071   1.302   0.900  0.3189 -0.0828  0.3142
  569TIP3    H123342   0.019   1.226   0.924 -0.5962  0.0417 -1.1548
  569TIP3    H223343   0.125   1.320   0.977 -0.3869 -1.4168  1.1476
  570TIP3   OH223344   6.635   6.030   7.614  1.0499  0.0214  0.2213
  570TIP3    H123345   6.547   6.068   7.616  1.5308  1.1369  1.2091
  570TIP3    H223346   6.620   5.936   7.603 -0.1940  0.3617 -1.5659
  571TIP3   OH223347   6.613   2.437   8.407  0.3512  0.3786  0.3303
  571TIP3    H123348   6.574   2.365   8.356 -0.7627 -0.5123  2.3157
  571TIP3    H223349   6.540   2.497   8.423  0.3727  0.0334  1.8501
  572TIP3   OH223350   2.580   4.960   1.713  0.3795 -0.3165 -0.0655
  572TIP3    H123351   2.588   4.940   1.806  0.0943 -1.3757 -0.2579
  572TIP3    H223352   2.649   5.024   1.696  3.6919 -3.5628 -0.1002
  573TIP3   OH223353   3.998   2.409   0.038 -0.6209 -0.3127 -0.0205
  573TIP3    H123354   3.993   2.502   0.014 -1.3135 -0.1082  0.8565
  573TIP3    H223355   4.063   2.372  -0.022  1.4809  1.2484  1.1754
  574TIP3   OH223356   3.951   5.310   8.515 -0.1036  0.0414  0.4647
  574TIP3    H123357   3.884   5.353   8.567 -0.7965  0.2070 -0.5359
  574TIP3    H223358   3.961   5.365   8.437  2.4326  0.9557  1.3319
  575TIP3   OH223359   2.807   2.718   8.470  0.0582  0.0395 -0.3401
  575TIP3    H123360   2.739   2.785   8.460  0.3564  0.7807  1.9759
  575TIP3    H223361   2.875   2.744   8.408 -0.8422  0.5145 -1.1568
  576TIP3   OH223362   5.128   6.579   1.867 -0.5570  0.1825 -0.0638
  576TIP3    H123363   5.055   6.534   1.909 -1.2039  1.4588  0.2411
  576TIP3    H223364   5.110   6.672   1.881 -0.8759  0.7177 -3.2355
  577TIP3   OH223365   4.633   1.695   2.702  0.5103 -0.4914 -0.0295
  577TIP3    H123366   4.663   1.609   2.733 -1.4987 -1.8504 -1.5243
  577TIP3    H223367   4.579   1.728   2.773  0.5523 -0.9120  0.2034
  578TIP3   OH223368   2.742   1.456   7.783  0.0164 -0.2107  0.3859
  578TIP3    H123369   2.836   1.442   7.791  0.0364 -0.0976  0.3383
  578TIP3    H223370   2.704   1.368   7.790  0.1755 -0.3414 -0.3381
  579TIP3   OH223371   5.329   3.133   7.503 -0.1266 -0.1427  0.2865
  579TIP3    H123372   5.342   3.153   7.410  3.8862 -0.4399  0.5869
  579TIP3    H223373   5.288   3.047   7.504 -1.7821  0.5686 -1.1266
  580TIP3   OH223374   1.760   1.093   0.448  0.2094  0.2739  0.2728
  580TIP3    H123375   1.830   1.103   0.513 -0.5986 -0.3932  1.2854
  580TIP3    H223376   1.681   1.123   0.493 -0.5974 -1.4559  0.0880
  581TIP3   OH223377   0.983   0.821   3.405 -0.3525  0.0120 -0.7294
  581TIP3    H123378   1.070   0.853   3.429 -1.0241  1.4187 -0.0560
  581TIP3    H223379   0.996   0.779   3.320  1.1341 -0.5972 -0.2322
  582TIP3   OH223380   5.504   6.180   2.184  0.1902 -0.7618  0.6607
  582TIP3    H123381   5.441   6.245   2.153  1.4692  0.0461 -0.3624
  582TIP3    H223382   5.574   6.182   2.119  0.7084 -2.5017  1.1328
  583TIP3   OH223383   2.823   5.689   0.610 -0.2432  0.4851 -0.4663
  583TIP3    H123384   2.794   5.642   0.688 -1.8267  0.1177 -1.2428
  583TIP3    H223385   2.766   5.658   0.540  1.2063  0.7300 -1.8220
  584TIP3   OH223386   3.810   2.520   0.287 -0.2279 -0.2249  0.7813
  584TIP3    H123387   3.825   2.594   0.228 -1.8705  1.0419  1.8928
  584TIP3    H223388   3.749   2.463   0.239  0.0534 -0.2471  0.4413
  585TIP3   OH223389   6.602   2.019   1.510  0.0934  0.2174 -0.1665
  585TIP3    H123390   6.667   2.073   1.466 -0.1384  0.0772 -0.6886
  585TIP3    H223391   6.641   1.999   1.595  0.0682  1.4154  0.1352
  586TIP3   OH223392   4.676   4.870   7.318 -0.5819  0.5514  0.3956
  586TIP3    H123393   4.615   4.886   7.246 -1.3349  1.0781  1.1318
  586TIP3    H223394   4.700   4.778   7.309 -0.1060  0.7848 -0.9386
  587TIP3   OH223395   1.512   2.190   0.055  0.0837 -0.0522  0.4988
  587TIP3    H123396   1.570   2.257   0.020  0.6115 -0.9732 -0.4213
  587TIP3    H223397   1.432   2.197   0.002  0.6032 -0.9523 -0.4269
  588TIP3   OH223398   6.611   6.093   0.611  0.1669  0.8481 -0.1217
  588TIP3    H123399   6.529   6.098   0.659  0.6871  0.0884  0.8710
  588TIP3    H223400   6.674   6.139   0.666  0.6166  0.5762 -0.3995
  589TIP3   OH223401   5.788   3.184   8.102  0.0759 -0.2800 -0.1515
  589TIP3    H123402   5.775   3.212   8.012  0.8789  1.0100  0.0992
  589TIP3    H223403   5.872   3.137   8.101  0.3419  0.1874  0.0104
  590TIP3   OH223404   3.338   3.960   2.579 -0.3649 -0.7525  0.0363
  590TIP3    H123405   3.403   4.030   2.585 -1.2565  0.0156  1.1623
  590TIP3    H223406   3.318   3.938   2.669  0.1175 -2.7195 -0.2830
  591TIP3   OH223407   2.496   2.548   1.567  0.3110 -0.4708 -0.1393
  591TIP3    H123408   2.407   2.554   1.603 -0.1246  1.0958 -1.3857
  591TIP3    H223409   2.485   2.502   1.484  0.2177  1.8443 -1.4974
  592TIP3   OH223410   5.325   3.948   7.985 -0.0701 -0.4664  0.3201
  592TIP3    H123411   5.372   4.014   8.036 -0.5441  0.4646 -0.4159
  592TIP3    H223412   5.281   3.998   7.916  0.2801 -1.6432 -0.8033
  593TIP3   OH223413   3.809   1.481   0.532  0.6541  0.5877  0.8621
  593TIP3    H123414   3.787   1.439   0.448 -0.2055 -1.5699  2.0944
  593TIP3    H223415   3.904   1.492   0.528  1.1052 -2.4838  0.8151
  594TIP3   OH223416   3.589   3.996   2.079 -0.2025  0.2459 -1.7205
  594TIP3    H123417   3.612   4.065   2.017  0.3273  0.9837 -0.7264
  594TIP3    H223418   3.603   3.915   2.030 -1.5417  0.8185 -3.1499
  595TIP3   OH223419   6.145   3.379   0.228  0.3267 -0.5027 -0.7080
  595TIP3    H123420   6.084   3.415   0.163  0.1832  0.6051  0.0020
  595TIP3    H223421   6.221   3.437   0.223  1.0729 -1.4941 -1.1362
  596TIP3   OH223422   1.057   1.291   8.020  0.1377  0.1447 -0.1141
  596TIP3    H123423   1.115   1.241   7.963 -0.4841  1.6140 -2.1329
  596TIP3    H223424   1.021   1.226   8.081  2.2657 -1.1403 -0.1274
  597TIP3   OH223425   6.028   3.085   1.762 -0.3001 -0.2004  0.4369
  597TIP3    H123426   6.118   3.117   1.766 -0.7594  1.3622 -0.6497
  597TIP3    H223427   5.982   3.134   1.831 -0.2868 -1.2091  1.1894
  598TIP3   OH223428   6.389   1.163   7.875 -0.0476 -0.1305 -0.3570
  598TIP3    H123429   6.470   1.127   7.910 -0.3170  0.7474  1.2582
  598TIP3    H223430   6.328   1.163   7.949 -0.4994  2.2198 -0.6294
  599TIP3   OH223431   5.444   0.672   3.190 -0.4772 -0.3993 -0.2123
  599TIP3    H123432   5.397   0.738   3.140 -0.0563  0.0944  0.0303
  599TIP3    H223433   5.472   0.718   3.270  0.7722 -0.5458 -0.5330
  600TIP3   OH223434   6.139   2.732   2.956 -0.4517  0.2541  0.2289
  600TIP3    H123435   6.100   2.693   3.034 -4.4070 -0.7853 -1.9876
  600TIP3    H223436   6.161   2.822   2.983  2.3702 -1.1988  3.5418
  601TIP3   OH223437   6.186   6.637   1.302  0.1077 -0.0504 -0.0272
  601TIP3    H123438   6.237   6.560   1.280  1.6582  0.6497  0.9281
  601TIP3    H223439   6.189   6.642   1.398 -0.4067  0.9062 -0.0418
  602TIP3   OH223440   3.610   4.487   6.778 -0.1988 -0.6240  0.0135
  602TIP3    H123441   3.524   4.452   6.753 -0.7935  0.5681  0.3565
  602TIP3    H223442   3.671   4.417   6.755 -1.2240 -1.3745 -0.5127
  603TIP3   OH223443   3.464   4.781   2.537  0.5263  0.2200  0.6081
  603TIP3    H123444   3.497   4.761   2.625  1.5318  2.1382  0.7048
  603TIP3    H223445   3.403   4.853   2.550  0.1980  0.0988 -0.2019
  604TIP3   OH223446   1.624   2.976   2.777  0.2328 -0.4816 -0.3095
  604TIP3    H123447   1.549   3.035   2.776 -1.2756 -2.2666 -2.2992
  604TIP3    H223448   1.678   3.005   2.704 -0.0948 -1.0008 -0.7717
  605TIP3   OH223449   2.144   5.967   2.033 -0.0370  0.1438  0.2685
  605TIP3    H123450   2.156   5.930   2.120 -0.8151  1.8815  1.1630
  605TIP3    H223451   2.187   6.053   2.037  0.8122 -0.1644 -1.3889
  606TIP3   OH223452   1.515   2.720   2.766 -0.8713  0.3400 -0.0562
  606TIP3    H123453   1.566   2.801   2.765  0.0222 -0.1851  0.9977
  606TIP3    H223454   1.438   2.741   2.818  0.0158  0.1587  1.3764
  607TIP3   OH223455   1.070   6.372   0.948  0.1244 -0.5962 -0.3745
  607TIP3    H123456   1.056   6.463   0.922 -0.1993 -0.6501 -0.3881
  607TIP3    H223457   1.096   6.377   1.040  0.9863 -0.4262 -0.6173
  608TIP3   OH223458   5.293   5.591   0.481 -0.2205  0.2806  0.0030
  608TIP3    H123459   5.238   5.524   0.523 -1.7513  1.2159 -0.4324
  608TIP3    H223460   5.245   5.615   0.402  0.2843  1.8858  0.1547
  609TIP3   OH223461   3.323   6.699   8.075  0.4339  0.3475  0.0382
  609TIP3    H123462   3.370   6.774   8.037 -0.3160 -0.3259 -2.3931
  609TIP3    H223463   3.391   6.650   8.121  1.5523  0.9462 -0.8873
  610TIP3   OH223464   0.868   2.750   2.228  0.2309  0.4434 -0.1166
  610TIP3    H123465   0.775   2.731   2.235  0.6622 -1.5891  0.6605
  610TIP3    H223466   0.888   2.802   2.306 -0.0856  0.1936  0.1303
  611TIP3   OH223467   0.551   1.700   1.783  0.1812  0.1950 -0.3552
  611TIP3    H123468   0.562   1.753   1.704  2.2266 -1.2730 -1.1595
  611TIP3    H223469   0.623   1.638   1.780 -0.0308 -0.3248  2.3892
  612TIP3   OH223470   3.911   3.614   0.212 -0.1124  0.6275 -0.1136
  612TIP3    H123471   3.950   3.619   0.299  0.6076  0.4424 -0.4145
  612TIP3    H223472   3.954   3.684   0.162  0.5987 -0.2158 -0.7316
  613TIP3   OH223473   1.333   0.410   2.216 -0.0760 -0.2329 -0.1023
  613TIP3    H123474   1.381   0.490   2.194  0.1270 -0.6622 -1.3014
  613TIP3    H223475   1.307   0.422   2.307  2.0011  0.1706  0.4920
  614TIP3   OH223476   3.147   0.461   1.361  0.1315  0.0812  0.3089
  614TIP3    H123477   3.058   0.493   1.346  0.2977  0.8686  0.9546
  614TIP3    H223478   3.182   0.446   1.273 -0.6551 -0.2952  0.0503
  615TIP3   OH223479   4.692   0.476   2.363 -0.1813 -0.5136 -0.0299
  615TIP3    H123480   4.630   0.440   2.300  0.3077 -0.0100 -0.8242
  615TIP3    H223481   4.639   0.532   2.419 -0.5916 -0.7834 -0.1417
  616TIP3   OH223482   2.177   3.288   2.973  0.1350  0.4969  0.8923
  616TIP3    H123483   2.110   3.256   3.033 -0.4083  0.2453  0.1638
  616TIP3    H223484   2.152   3.378   2.954 -0.7162  0.0298 -0.3399
  617TIP3   OH223485   2.547   3.593   1.928  0.1095 -0.0498 -0.2866
  617TIP3    H123486   2.529   3.603   1.835 -1.3441 -0.1464 -0.0397
  617TIP3    H223487   2.607   3.665   1.950  0.0433  0.2803 -1.1703
  618TIP3   OH223488   5.017   4.742   3.701 -0.1992 -0.3586  0.3680
  618TIP3    H123489   4.984   4.703   3.781  0.9019 -0.1003  0.9675
  618TIP3    H223490   5.110   4.759   3.719 -0.7010  2.9574  0.3099
  619TIP3   OH223491   2.335   3.692   7.312  0.3468 -0.5782 -0.2064
  619TIP3    H123492   2.392   3.692   7.235 -0.8516 -0.7645 -1.1394
  619TIP3    H223493   2.369   3.761   7.368  2.0702 -1.3343 -0.2558
  620TIP3   OH223494   4.610   2.441   0.136  0.2355  0.1840 -0.0848
  620TIP3    H123495   4.652   2.432   0.222 -0.4210 -1.0616  0.1391
  620TIP3    H223496   4.682   2.435   0.074  0.8615  2.2354  0.3760
  621TIP3   OH223497   4.237   5.806   1.823  0.1468  0.1919  0.1948
  621TIP3    H123498   4.176   5.875   1.851  0.1919  0.0615  0.6178
  621TIP3    H223499   4.311   5.813   1.883 -0.6787 -1.4465  1.4775
  622TIP3   OH223500   0.678   3.979   2.886 -0.2920  0.0738  0.1430
  622TIP3    H123501   0.678   3.950   2.795  0.2534  2.6057 -0.7416
  622TIP3    H223502   0.590   4.015   2.900  0.7930  3.3914 -0.7704
  623TIP3   OH223503   4.116   4.536   1.080 -0.1900  0.3485  0.1806
  623TIP3    H123504   4.138   4.518   0.988  0.4442 -2.9613  0.8575
  623TIP3    H223505   4.039   4.593   1.075  0.1794  0.7787 -2.3785
  624TIP3   OH223506   5.479   5.898   7.534 -0.4736  0.5338 -0.0261
  624TIP3    H123507   5.553   5.838   7.544  0.0962  1.2716  0.2679
  624TIP3    H223508   5.518   5.985   7.539 -1.4322  0.9394  0.6660
  625TIP3   OH223509   6.210   5.745   8.051 -0.2662  0.0147 -0.1801
  625TIP3    H123510   6.239   5.837   8.049  1.5788 -0.5241 -0.2235
  625TIP3    H223511   6.181   5.728   7.961 -3.1729  1.2524  0.4177
  626TIP3   OH223512   4.262   2.508   8.504 -0.1563  0.1787 -0.0027
  626TIP3    H123513   4.298   2.475   8.422  0.0926  0.4466 -0.0077
  626TIP3    H223514   4.339   2.516   8.561 -0.1101  1.3095 -0.1990
  627TIP3   OH223515   4.450   2.753   2.223 -0.6162 -0.5253  0.3334
  627TIP3    H123516   4.361   2.720   2.212  0.5110 -4.0507  0.5530
  627TIP3    H223517   4.489   2.747   2.135 -0.0019 -1.1322  0.6322
  628TIP3   OH223518   5.572   4.220   7.833  0.1422 -0.2555  0.3327
  628TIP3    H123519   5.491   4.171   7.819  0.0868  0.0882 -0.6340
  628TIP3    H223520   5.642   4.157   7.813  0.1771 -0.8964  2.2604
  629TIP3   OH223521   1.576   1.927   3.305 -0.4134 -0.2633 -0.4207
  629TIP3    H123522   1.554   2.020   3.312  0.1539 -0.1696  0.1874
  629TIP3    H223523   1.622   1.920   3.222 -2.2059 -0.3641 -1.4538
  630TIP3   OH223524   4.882   1.891   0.038 -0.1905  0.0248  0.1695
  630TIP3    H123525   4.909   1.978   0.009 -0.7466 -0.1876 -1.0564
  630TIP3    H223526   4.797   1.905   0.078 -1.1321 -0.1616 -1.6471
  631TIP3   OH223527   4.850   2.311   0.987  0.5255 -0.0367  0.1671
  631TIP3    H123528   4.880   2.325   1.077 -0.8601 -0.8213  0.7857
  631TIP3    H223529   4.913   2.250   0.949  1.1279  0.3121  0.5927
  632TIP3   OH223530   4.504   3.125   8.575 -0.1429 -0.2050 -0.2550
  632TIP3    H123531   4.520   3.198   8.635 -0.2363 -1.5614  1.5161
  632TIP3    H223532   4.580   3.068   8.586 -1.2027 -1.5570  0.2855
  633TIP3   OH223533   1.631   1.784   8.697  0.4262 -1.0081 -1.1110
  633TIP3    H123534   1.654   1.845   8.628  0.6082  0.9095  0.5516
  633TIP3    H223535   1.548   1.746   8.668  0.5869 -0.3930 -2.4563
  634TIP3   OH223536   4.406   5.628   0.078 -0.3555  0.3270 -0.1776
  634TIP3    H123537   4.388   5.722   0.088 -0.5529  0.2510  0.1769
  634TIP3    H223538   4.349   5.600   0.006 -0.2832  0.4829 -0.2964
  635TIP3   OH223539   0.293   3.436   1.355 -0.1236 -0.4809  0.6914
  635TIP3    H123540   0.315   3.375   1.425  2.2262  0.8422  1.2100
  635TIP3    H223541   0.372   3.440   1.301 -0.3552  1.7576  0.4373
  636TIP3   OH223542   4.678   2.470   2.605 -0.0802  0.1692 -0.2331
  636TIP3    H123543   4.661   2.478   2.699  0.2317  1.0648 -0.2383
  636TIP3    H223544   4.624   2.538   2.565  0.4508  0.3804 -0.6094
  637TIP3   OH223545   6.593   2.869   1.491 -0.8309 -0.0213  0.0995
  637TIP3    H123546   6.639   2.913   1.420 -0.7415 -2.0848 -1.1996
  637TIP3    H223547   6.510   2.916   1.499 -0.2252  1.1523 -0.3523
  638TIP3   OH223548   1.913   5.271   0.565  0.2436 -0.2984 -0.2625
  638TIP3    H123549   2.006   5.272   0.541  0.9480  3.1276  1.9474
  638TIP3    H223550   1.872   5.331   0.503 -0.1763 -0.5278 -0.2056
  639TIP3   OH223551   4.837   2.939   0.529  0.1144  0.3676 -0.6870
  639TIP3    H123552   4.808   2.869   0.471 -1.3540  0.5457 -0.2052
  639TIP3    H223553   4.800   2.918   0.614  1.1383  0.8101 -0.1103
  640TIP3   OH223554   1.379   3.102   3.266 -1.0399  0.1323 -0.2384
  640TIP3    H123555   1.418   3.172   3.213 -0.0560 -0.2456 -0.0418
  640TIP3    H223556   1.350   3.037   3.202 -2.2030  0.8176 -0.4382
  641TIP3   OH223557   2.956   0.641   8.060 -0.5757  0.4975  0.2511
  641TIP3    H123558   2.869   0.603   8.069 -0.4115 -0.4223 -1.6211
  641TIP3    H223559   2.987   0.652   8.150 -1.3412 -2.1770  0.9149
  642TIP3   OH223560   2.449   6.743   2.120 -0.5523  0.0504  0.6303
  642TIP3    H123561   2.500   6.689   2.180  0.3178  0.2052  0.0580
  642TIP3    H223562   2.509   6.812   2.092 -0.8539 -0.1440 -0.5726
  643TIP3   OH223563   4.666   1.828   1.551 -0.1351  0.0480 -0.1983
  643TIP3    H123564   4.678   1.802   1.460 -0.9362 -2.0350  0.2434
  643TIP3    H223565   4.755   1.847   1.582  0.3287 -0.7832 -0.9832
  644TIP3   OH223566   1.981   1.259   7.746  0.0175 -0.0318  1.4238
  644TIP3    H123567   1.973   1.352   7.725  0.6598  0.1111  1.7894
  644TIP3    H223568   2.061   1.232   7.701 -0.6503 -0.6275  0.5735
  645TIP3   OH223569   0.814   2.486   0.963  0.0620 -0.2428 -0.2650
  645TIP3    H123570   0.873   2.412   0.974  1.1419  0.5775 -0.4220
  645TIP3    H223571   0.862   2.548   0.909 -0.2571  1.1659  0.9933
  646TIP3   OH223572   1.819   2.755   8.312 -0.2799  0.2762 -0.3345
  646TIP3    H123573   1.769   2.673   8.313 -0.4931  0.3508 -1.8143
  646TIP3    H223574   1.753   2.824   8.315 -0.2082  0.3752 -0.8366
  647TIP3   OH223575   4.284   2.823   8.462 -0.2668  0.3882 -0.3593
  647TIP3    H123576   4.306   2.806   8.553  1.0807  1.4636 -0.4391
  647TIP3    H223577   4.275   2.736   8.422 -2.5644 -0.1286  1.1180
  648TIP3   OH223578   3.060   1.400   0.616  0.4991 -0.4901  0.3869
  648TIP3    H123579   2.999   1.468   0.643 -0.3442 -1.1045  0.1010
  648TIP3    H223580   3.040   1.325   0.672  0.8994 -0.7412  0.2037
  649TIP3   OH223581   6.486   2.332   0.262  0.0515  0.2562  0.0275
  649TIP3    H123582   6.429   2.287   0.325 -0.2195  1.0427  0.3559
  649TIP3    H223583   6.431   2.343   0.185 -0.2945  1.1371  0.3930
  650TIP3   OH223584   3.045   6.265   2.459 -0.1362 -0.3560 -0.4082
  650TIP3    H123585   3.096   6.234   2.384 -0.1232 -2.2358  0.3088
  650TIP3    H223586   3.110   6.287   2.525 -0.1919 -1.0139 -0.1263
  651TIP3   OH223587   1.680   6.220   0.054 -0.1163 -0.4528  0.5410
  651TIP3    H123588   1.757   6.168   0.079  1.1411  1.4460  0.8327
  651TIP3    H223589   1.634   6.236   0.136 -1.1316 -1.9679  0.3099
  652TIP3   OH223590   6.783   4.238   3.136  0.0337 -0.1552  0.2939
  652TIP3    H123591   6.728   4.168   3.169 -1.8307  1.0790 -0.0728
  652TIP3    H223592   6.849   4.251   3.204  0.0622 -1.8277  0.6283
  653TIP3   OH223593   1.042   6.596   8.752 -0.0223 -0.0392  0.6174
  653TIP3    H123594   0.949   6.584   8.733 -0.4292  1.3146  1.5385
  653TIP3    H223595   1.055   6.557   8.838  0.1886  0.0672  0.6365
  654TIP3   OH223596   3.930   1.034   8.679 -0.1455  0.4203  0.4940
  654TIP3    H123597   3.919   0.974   8.752  1.9074  0.3419  0.8040
  654TIP3    H223598   3.964   1.114   8.718 -1.2158  1.2017 -0.1229
  655TIP3   OH223599   0.607   4.755   2.027 -0.4630  0.2008 -0.0977
  655TIP3    H123600   0.574   4.695   1.960 -0.0539 -3.1046  2.3536
  655TIP3    H223601   0.530   4.779   2.078 -0.5157  1.2772 -0.6519
  656TIP3   OH223602   2.112   1.935   1.219  0.2861 -0.0481  1.0091
  656TIP3    H123603   2.046   1.969   1.280 -0.4289 -0.7614  0.6446
  656TIP3    H223604   2.102   1.840   1.223  0.8317 -0.1360  0.4338
  657TIP3   OH223605   6.564   2.010   8.205  0.5697  0.5935 -0.5401
  657TIP3    H123606   6.595   1.921   8.219  2.1867  1.2198  0.2042
  657TIP3    H223607   6.577   2.026   8.112 -2.3468 -0.8115 -1.3048
  658TIP3   OH223608   1.640   3.562   0.788  0.6525 -0.5620 -0.2875
  658TIP3    H123609   1.566   3.521   0.741  1.0053 -1.0991 -0.3816
  658TIP3    H223610   1.613   3.653   0.800  0.7558 -0.2713 -1.9927
  659TIP3   OH223611   5.558   3.659   3.114 -0.2468  0.2855  0.3489
  659TIP3    H123612   5.524   3.570   3.125 -0.4631  0.1460 -1.1746
  659TIP3    H223613   5.632   3.664   3.174 -0.1964 -0.9505  0.4158
  660TIP3   OH223614   1.771   6.506   2.783 -0.2296 -0.4117  0.0063
  660TIP3    H123615   1.834   6.573   2.809 -0.6075  0.2118 -0.6599
  660TIP3    H223616   1.812   6.464   2.707  0.7087 -1.9876  1.3186
  661TIP3   OH223617   6.185   2.853   0.175  0.3317  0.3992 -0.0104
  661TIP3    H123618   6.276   2.870   0.196  1.0061  0.3818 -2.5713
  661TIP3    H223619   6.178   2.871   0.081 -1.8509 -1.4212 -0.2841
  662TIP3   OH223620   5.683   2.111   2.517  0.1252 -0.4923  0.2708
  662TIP3    H123621   5.747   2.151   2.576 -1.3524  0.4843  1.3002
  662TIP3    H223622   5.611   2.083   2.575 -1.9388  1.5821 -1.0791
  663TIP3   OH223623   5.318   4.014   2.110  0.1764 -0.3217 -0.0085
  663TIP3    H123624   5.321   4.109   2.094  0.4605  0.1114  2.3710
  663TIP3    H223625   5.405   3.983   2.085 -0.1115 -0.1177 -1.3990
  664TIP3   OH223626   6.691   3.639   7.579 -0.2617 -0.4748  0.4132
  664TIP3    H123627   6.724   3.729   7.574  1.0481 -0.9846 -1.4555
  664TIP3    H223628   6.604   3.647   7.617  0.4100  1.4048  1.7162
  665TIP3   OH223629   2.268   1.108   1.999  0.6130 -0.0876 -1.0810
  665TIP3    H123630   2.318   1.146   1.927  0.3894  1.2878 -0.5462
  665TIP3    H223631   2.269   1.176   2.067  0.3041 -1.1078 -0.0224
  666TIP3   OH223632   4.139   5.407   8.216 -0.3973 -0.3300 -0.0341
  666TIP3    H123633   4.197   5.369   8.150  2.3521 -0.8367  2.4641
  666TIP3    H223634   4.123   5.496   8.185  2.1795  0.0163 -0.6591
  667TIP3   OH223635   0.830   3.111   7.489  0.3285 -0.0815 -0.1229
  667TIP3    H123636   0.852   3.027   7.448 -0.8640 -0.1503 -0.6849
  667TIP3    H223637   0.835   3.175   7.418 -1.0980 -0.0921 -0.2633
  668TIP3   OH223638   3.145   1.626   2.355  0.0717 -0.2650 -0.7796
  668TIP3    H123639   3.090   1.696   2.391  2.1882  0.6768  0.8032
  668TIP3    H223640   3.193   1.667   2.284 -0.4032 -0.7946 -1.4260
  669TIP3   OH223641   1.739   2.062   1.351 -0.4198 -0.0458 -0.0509
  669TIP3    H123642   1.657   2.101   1.381 -1.2709 -0.0191 -2.2606
  669TIP3    H223643   1.762   2.000   1.421 -1.3223  1.2305  1.4628
  670TIP3   OH223644   6.359   0.058   0.151 -0.3625 -0.3932  0.1080
  670TIP3    H123645   6.419   0.056   0.227 -0.9958  0.6736  0.6581
  670TIP3    H223646   6.388   0.134   0.101 -1.6900  0.5750  0.7634
  671TIP3   OH223647   4.746   3.803   0.861 -0.7203  0.3791  0.6520
  671TIP3    H123648   4.669   3.775   0.811 -0.6875  1.4010  0.0032
  671TIP3    H223649   4.819   3.797   0.798 -0.9016  3.0272  0.0909
  672TIP3   OH223650   3.139   6.792   3.045  0.5111 -0.2974  0.4371
  672TIP3    H123651   3.224   6.813   3.006 -0.0202  2.0659  0.4316
  672TIP3    H223652   3.148   6.818   3.137  0.0739 -0.9396  0.6709
  673TIP3   OH223653   5.500   5.133   1.018 -0.4368 -0.2325 -0.2892
  673TIP3    H123654   5.451   5.051   1.021 -2.2092  0.6775 -2.0173
  673TIP3    H223655   5.434   5.201   1.034  0.3416  1.0122 -2.0494
  674TIP3   OH223656   6.010   0.537   1.045 -0.3465 -0.4933  0.3252
  674TIP3    H123657   6.014   0.633   1.050 -2.8381 -0.3382  0.9040
  674TIP3    H223658   6.037   0.517   0.956 -1.0375  0.9047 -0.2402
  675TIP3   OH223659   2.768   0.871   8.300  0.3286  0.7973  0.0438
  675TIP3    H123660   2.820   0.950   8.317 -0.1261  1.2256 -0.5062
  675TIP3    H223661   2.760   0.828   8.385  2.9041 -0.1247 -0.1097
  676TIP3   OH223662   2.637   4.273   2.814  0.1173 -0.5432 -0.3869
  676TIP3    H123663   2.561   4.215   2.811 -0.7517  0.5870 -1.6280
  676TIP3    H223664   2.658   4.280   2.908 -1.2838 -0.9261 -0.0223
  677TIP3   OH223665   0.554   0.062   0.968 -0.1698  0.6262 -0.3104
  677TIP3    H123666   0.573   0.127   0.901  2.3479 -0.3811 -0.7108
  677TIP3    H223667   0.468   0.086   1.002 -0.0155  3.1979 -1.4975
  678TIP3   OH223668   0.144   0.162   0.751 -0.7712 -0.5703  0.1856
  678TIP3    H123669   0.125   0.246   0.709  1.3622  0.4851  1.1172
  678TIP3    H223670   0.239   0.153   0.743 -0.7184 -1.9228  1.8209
  679TIP3   OH223671   2.580   6.259   0.411  0.3363 -0.0278  0.4473
  679TIP3    H123672   2.602   6.296   0.496 -0.0178  1.2439  0.0099
  679TIP3    H223673   2.505   6.202   0.428  1.1565 -0.9156  1.2037
  680TIP3   OH223674   2.192   3.135   8.111  0.3306 -0.2385 -0.1834
  680TIP3    H123675   2.124   3.191   8.148  0.1030  0.6434 -1.8151
  680TIP3    H223676   2.145   3.057   8.081  0.5274 -0.9936  1.3532
  681TIP3   OH223677   4.761   2.714   7.305 -0.1956 -0.3274  0.6051
  681TIP3    H123678   4.760   2.618   7.300 -0.3620 -0.2672 -1.3486
  681TIP3    H223679   4.824   2.734   7.373 -1.1387 -1.8327  1.9923
  682TIP3   OH223680   1.177   5.260   0.654  0.2381 -0.4205  0.0444
  682TIP3    H123681   1.238   5.274   0.582  2.0263 -0.3969  1.4994
  682TIP3    H223682   1.093   5.242   0.611  1.0789  0.2804 -2.0115
  683TIP3   OH223683   3.507   4.449   7.991 -0.0710  0.5064  0.3054
  683TIP3    H123684   3.466   4.466   8.076 -2.3433 -1.0389 -0.3981
  683TIP3    H223685   3.499   4.532   7.944 -1.5987  0.5181  0.5383
  684TIP3   OH223686   4.921   2.752   7.557  0.6965 -0.7576 -0.1271
  684TIP3    H123687   5.003   2.715   7.524  0.1212 -0.4592 -1.9614
  684TIP3    H223688   4.944   2.786   7.644  2.4067 -1.0437 -0.4371
  685TIP3   OH223689   0.609   3.296   8.223  0.1692 -0.1356  0.4811
  685TIP3    H123690   0.608   3.318   8.316  2.0871 -1.7520  0.9770
  685TIP3    H223691   0.526   3.251   8.208 -0.2421  0.3018  1.3516
  686TIP3   OH223692   6.254   2.858   8.524  0.6536 -0.0340  0.4655
  686TIP3    H123693   6.326   2.843   8.586 -0.2957 -0.0702  1.5922
  686TIP3    H223694   6.259   2.952   8.505  0.5784  0.0982  1.0848
  687TIP3   OH223695   5.846   6.654   1.528 -0.2333  0.3205 -0.1726
  687TIP3    H123696   5.761   6.680   1.565 -0.4490 -0.4254 -0.1323
  687TIP3    H223697   5.838   6.671   1.434 -0.1863  0.8787 -0.0803
  688TIP3   OH223698   5.321   2.255   8.265 -0.3788 -0.1957 -0.4119
  688TIP3    H123699   5.394   2.232   8.208 -0.8858 -0.6726 -0.8820
  688TIP3    H223700   5.252   2.193   8.243 -0.4638 -0.6548  1.0080
  689TIP3   OH223701   5.340   1.796   8.320 -0.3928 -0.2382  0.7961
  689TIP3    H123702   5.277   1.846   8.268  1.0354 -1.4568 -2.3435
  689TIP3    H223703   5.398   1.863   8.357 -1.5609  0.6806  1.0374
  690TIP3   OH223704   3.390   3.256   2.389 -0.6045 -0.6511  0.1651
  690TIP3    H123705   3.377   3.264   2.483 -3.2916  1.0751 -0.2629
  690TIP3    H223706   3.476   3.296   2.373 -0.6649  0.1555  1.7272
  691TIP3   OH223707   6.688   1.827   7.982 -0.3757  0.0198  0.0897
  691TIP3    H123708   6.736   1.799   7.904 -1.1025 -2.4817  0.4764
  691TIP3    H223709   6.635   1.901   7.952  0.6244  0.1890 -1.3467
  692TIP3   OH223710   3.474   5.248   0.052  0.6513 -0.5236  0.5243
  692TIP3    H123711   3.563   5.257   0.087  0.2674 -0.1205  1.4381
  692TIP3    H223712   3.437   5.336   0.060  0.1723 -0.6899  0.1380
  693TIP3   OH223713   0.739   5.903   8.821  0.2567  0.3205 -0.3676
  693TIP3    H123714   0.761   5.853   8.900  2.7480  0.3640 -0.9813
  693TIP3    H223715   0.796   5.979   8.824  0.8915 -0.0198 -2.5252
  694TIP3   OH223716   4.310   3.428   1.932  0.2004  0.2423  0.4544
  694TIP3    H123717   4.225   3.386   1.914  0.2829 -0.1483  0.9503
  694TIP3    H223718   4.297   3.519   1.907 -0.7362  0.4545  1.6272
  695TIP3   OH223719   4.879   1.508   1.494  0.6005 -0.0836  0.4160
  695TIP3    H123720   4.933   1.450   1.548 -0.0582  0.4785  1.7493
  695TIP3    H223721   4.930   1.589   1.488  0.4625  0.0215  0.6280
  696TIP3   OH223722   3.294   4.021   8.437  0.2243 -0.3965  0.4005
  696TIP3    H123723   3.261   3.956   8.375  0.7586  1.0108 -1.4313
  696TIP3    H223724   3.218   4.075   8.458  0.2474 -0.2955  0.2249
  697TIP3   OH223725   5.686   2.381   2.338  0.3688 -0.4067  0.4172
  697TIP3    H123726   5.740   2.457   2.316 -1.1012  0.5510 -0.0445
  697TIP3    H223727   5.749   2.311   2.355  1.8170  1.1439  1.8510
  698TIP3   OH223728   3.666   4.996   2.907 -0.4413 -0.0626  0.5720
  698TIP3    H123729   3.655   4.914   2.954  0.6987 -0.0536  0.8667
  698TIP3    H223730   3.685   5.061   2.975  2.7147 -0.3188  0.0578
  699TIP3   OH223731   5.490   4.931   2.017 -0.6830 -0.1553  0.0555
  699TIP3    H123732   5.568   4.883   2.046 -1.7313 -1.1365  1.3935
  699TIP3    H223733   5.501   4.939   1.923 -0.1905 -2.5902 -0.1619
  700TIP3   OH223734   5.645   5.370   1.385 -0.2420 -0.0476 -0.2096
  700TIP3    H123735   5.633   5.375   1.480 -3.6360 -1.0737 -0.4811
  700TIP3    H223736   5.559   5.388   1.349  0.8070 -0.4148 -3.1225
  701TIP3   OH223737   4.252   6.081   3.579 -0.8498 -0.5343  0.0394
  701TIP3    H123738   4.207   6.163   3.560 -2.0555 -1.3530 -0.7409
  701TIP3    H223739   4.214   6.018   3.518  0.2799 -1.6116  0.4090
  702TIP3   OH223740   3.535   4.468   0.143  0.2678 -0.1460 -0.4559
  702TIP3    H123741   3.546   4.374   0.158  2.0698  0.2862  1.2686
  702TIP3    H223742   3.459   4.492   0.196 -0.3963 -0.6646 -1.1531
  703TIP3   OH223743   3.157   3.362   1.154  0.5362  0.2181  0.2271
  703TIP3    H123744   3.140   3.325   1.241  1.6965  0.2102  0.4669
  703TIP3    H223745   3.195   3.448   1.172 -0.9892  1.0426 -0.3148
  704TIP3   OH223746   5.263   2.201   0.486 -0.2060 -0.1381  0.0369
  704TIP3    H123747   5.278   2.295   0.490 -1.9385  0.3111 -1.9475
  704TIP3    H223748   5.186   2.186   0.541 -0.0111 -0.3884  0.2464
  705TIP3   OH223749   3.828   0.288   3.137  0.4295  0.8948 -0.3951
  705TIP3    H123750   3.827   0.367   3.192  2.4118  1.7752 -1.5354
  705TIP3    H223751   3.765   0.307   3.068 -0.9782  0.3861  0.6940
  706TIP3   OH223752   2.203   6.261   2.408 -0.1593  0.1383  1.0459
  706TIP3    H123753   2.235   6.173   2.389  1.5769  1.3754 -2.7727
  706TIP3    H223754   2.130   6.274   2.347 -0.3846  1.3660  1.5483
  707TIP3   OH223755   3.283   4.693   7.257 -0.5474 -0.1308  0.3409
  707TIP3    H123756   3.299   4.626   7.191  2.1821  0.3787  0.3871
  707TIP3    H223757   3.272   4.774   7.208  4.8798  0.9454  0.2691
  708TIP3   OH223758   4.664   5.901   7.995 -0.2138 -0.3535 -0.5306
  708TIP3    H123759   4.637   5.913   7.905 -0.7691  0.8159 -0.2261
  708TIP3    H223760   4.582   5.897   8.045  0.1028  0.8084  0.1174
  709TIP3   OH223761   0.178   2.539   2.613  0.0482  0.6136  0.4066
  709TIP3    H123762   0.124   2.520   2.690 -0.3911  2.3704  0.5519
  709TIP3    H223763   0.131   2.607   2.566  0.6618  0.0524 -1.0785
  710TIP3   OH223764   6.090   3.354   2.468  0.1108 -0.3323 -0.1950
  710TIP3    H123765   6.020   3.405   2.510  0.8323 -0.3825  1.1091
  710TIP3    H223766   6.113   3.405   2.391  0.1833  0.8721  0.5955
  711TIP3   OH223767   2.075   5.583   0.724  0.3003  0.1306 -0.1704
  711TIP3    H123768   2.059   5.677   0.731 -0.4835  0.1732 -1.9313
  711TIP3    H223769   2.083   5.567   0.630  1.4048 -1.4253  0.1477
  712TIP3   OH223770   1.241   5.575   1.630 -0.8090  0.4021  0.5957
  712TIP3    H123771   1.191   5.497   1.606 -0.5069  0.2388  0.4901
  712TIP3    H223772   1.330   5.543   1.645 -0.5251  0.8360 -0.1179
  713TIP3   OH223773   5.331   0.045   2.983  0.2411 -0.0496  0.3166
  713TIP3    H123774   5.334  -0.039   3.030  2.1877  0.8802  1.9786
  713TIP3    H223775   5.293   0.106   3.046 -0.8448  0.4422 -0.7688
  714TIP3   OH223776   2.805   6.071   8.545  0.1170 -0.3769  0.7945
  714TIP3    H123777   2.869   6.136   8.573 -1.0220  0.8005  0.7649
  714TIP3    H223778   2.787   6.020   8.624  1.2071 -0.8421  0.7568
  715TIP3   OH223779   2.445   3.980   0.091  0.0486 -0.1232  0.3164
  715TIP3    H123780   2.364   3.936   0.116 -0.3453  0.7724  0.6505
  715TIP3    H223781   2.501   3.973   0.169 -0.3049  0.6315  0.6451
  716TIP3   OH223782   2.345   3.435   1.087 -0.1372  0.4568  0.4298
  716TIP3    H123783   2.333   3.527   1.065  0.1892  0.2951 -0.4669
  716TIP3    H223784   2.421   3.408   1.036 -0.2839 -0.3305  0.6129
  717TIP3   OH223785   2.683   0.567   1.515 -0.0057 -0.7764 -0.1943
  717TIP3    H123786   2.668   0.624   1.591  0.5490 -0.0020 -0.6503
  717TIP3    H223787   2.742   0.499   1.548  0.9830  0.0815 -0.1481
  718TIP3   OH223788   0.141   4.145   2.837 -0.4479  0.6601  0.3041
  718TIP3    H123789   0.159   4.052   2.843  1.0991  0.8969 -0.2509
  718TIP3    H223790   0.045   4.151   2.833 -0.6266 -0.7853  1.7065
  719TIP3   OH223791   0.847   6.092   8.559 -0.2625 -1.0145 -0.1972
  719TIP3    H123792   0.786   6.019   8.550 -0.8916 -0.3097 -2.8480
  719TIP3    H223793   0.797   6.159   8.605  0.0772 -1.9428  1.6011
  720TIP3   OH223794   3.531   2.725   8.557 -0.6872 -0.0280  0.1448
  720TIP3    H123795   3.572   2.801   8.518  1.1309 -1.8167 -1.6943
  720TIP3    H223796   3.603   2.677   8.598 -1.0467 -2.4709 -1.7949
  721TIP3   OH223797   4.840   3.248   7.602  0.4139 -0.1390 -0.2903
  721TIP3    H123798   4.775   3.200   7.549 -1.7581  0.0503  2.0001
  721TIP3    H223799   4.827   3.340   7.579 -1.8476  0.1410  1.7330
  722TIP3   OH223800   1.994   0.823   1.018  0.4768 -0.4379 -0.6510
  722TIP3    H123801   1.974   0.734   1.048  0.5128 -0.2820 -0.1593
  722TIP3    H223802   2.080   0.816   0.977 -0.0704 -0.8864 -1.7653
  723TIP3   OH223803   0.484   5.979   1.854 -0.2212 -0.3877  0.3419
  723TIP3    H123804   0.390   5.962   1.849  0.0915 -1.8361 -1.9814
  723TIP3    H223805   0.496   6.059   1.802 -0.0930 -0.5393  0.1398
  724TIP3   OH223806   4.256   4.851   0.381 -0.8966  0.3174  0.0654
  724TIP3    H123807   4.253   4.841   0.477 -1.4925 -1.2637 -0.0939
  724TIP3    H223808   4.168   4.829   0.352 -0.2577 -0.9822 -0.9860
  725TIP3   OH223809   1.906   0.460   2.668  0.2773 -0.1372 -0.3134
  725TIP3    H123810   1.950   0.402   2.606  0.2286  0.3624 -0.8156
  725TIP3    H223811   1.905   0.545   2.625 -0.7547 -0.0345 -0.1015
  726TIP3   OH223812   4.855   5.621   1.406 -0.0459  0.0019  0.5135
  726TIP3    H123813   4.787   5.588   1.464  1.5922 -0.3483  2.3707
  726TIP3    H223814   4.902   5.543   1.377  0.3636  0.3157  0.3257
  727TIP3   OH223815   2.634   6.733   2.392 -0.4090 -0.0974 -1.0511
  727TIP3    H123816   2.678   6.709   2.473 -0.6978  3.7208  0.4555
  727TIP3    H223817   2.545   6.697   2.401 -0.5867  0.6460  0.6361
  728TIP3   OH223818   1.034   6.177   8.089  0.2452 -0.3765 -0.6894
  728TIP3    H123819   0.998   6.214   8.009  0.2906  0.3109 -0.4005
  728TIP3    H223820   0.982   6.098   8.105  0.5035 -0.7400 -1.6066
  729TIP3   OH223821   4.541   6.419   8.005  0.1846  0.1028 -0.3840
  729TIP3    H123822   4.505   6.332   8.018 -1.7059  0.5971 -1.7899
  729TIP3    H223823   4.627   6.404   7.966  0.0672 -1.1259 -0.2060
  730TIP3   OH223824   2.849   4.596   1.018 -0.1805  0.5084  0.0105
  730TIP3    H123825   2.862   4.649   0.940  0.0790  0.4111 -0.0138
  730TIP3    H223826   2.794   4.650   1.075 -1.9381 -0.1564 -0.9754
  731TIP3   OH223827   4.580   5.058   0.904 -0.2721  0.2652 -0.0285
  731TIP3    H123828   4.635   5.008   0.844  0.3830  0.9511 -0.0025
  731TIP3    H223829   4.640   5.115   0.951 -1.0964  1.7023 -0.6567
  732TIP3   OH223830   6.663   0.507   0.360 -0.3664  0.0917 -0.1028
  732TIP3    H123831   6.652   0.413   0.375  0.9759 -0.0263  0.3212
  732TIP3    H223832   6.615   0.525   0.279  0.6061 -1.2768 -1.0320
  733TIP3   OH223833   0.286   0.814   8.479  0.0778 -0.6430 -0.0535
  733TIP3    H123834   0.331   0.869   8.544 -1.8421  1.0900 -0.0794
  733TIP3    H223835   0.320   0.844   8.395  0.8854 -1.2917  0.0317
  734TIP3   OH223836   0.432   6.406   1.941  0.2301  0.0745 -0.1852
  734TIP3    H123837   0.439   6.361   1.857 -0.2685 -0.7064  0.1822
  734TIP3    H223838   0.521   6.404   1.977  0.4422  0.4012 -0.6776
  735TIP3   OH223839   1.464   0.899   8.496  0.4255  0.0398  0.1333
  735TIP3    H123840   1.444   0.979   8.544 -0.8413 -0.9050  1.2247
  735TIP3    H223841   1.424   0.913   8.410 -1.6023 -0.1929  0.9775
  736TIP3   OH223842   0.512   4.033   0.501  0.1025  0.4328  0.5587
  736TIP3    H123843   0.423   4.063   0.481  0.4418  0.5647 -0.8756
  736TIP3    H223844   0.564   4.062   0.426  1.0323 -1.1047  0.5679
  737TIP3   OH223845   4.370   0.199   7.997  0.0399 -0.2379 -0.8620
  737TIP3    H123846   4.337   0.110   7.985 -2.2253  0.4426 -0.1880
  737TIP3    H223847   4.345   0.245   7.917  2.0483 -0.3586 -1.6370
  738TIP3   OH223848   0.451   1.128   0.207 -0.0618 -0.3242 -0.0988
  738TIP3    H123849   0.495   1.170   0.133 -0.4212  0.8823  0.3446
  738TIP3    H223850   0.387   1.069   0.166  0.0961 -0.0600 -0.7449
  739TIP3   OH223851   6.131   5.350   1.605 -0.4980  0.4896 -0.0521
  739TIP3    H123852   6.065   5.385   1.664  0.0845  2.1954 -0.3527
  739TIP3    H223853   6.086   5.279   1.558 -0.8987 -1.1305  2.5368
  740TIP3   OH223854   1.134   3.814   0.317  0.4588  0.1606 -0.3975
  740TIP3    H123855   1.226   3.786   0.309  0.9132  1.0627  1.1517
  740TIP3    H223856   1.135   3.907   0.297 -0.1420  0.1489 -0.4924
  741TIP3   OH223857   0.382   2.870   7.981  0.2352  0.7827 -0.3113
  741TIP3    H123858   0.308   2.822   7.944 -2.0748  2.4317  1.8649
  741TIP3    H223859   0.388   2.950   7.929 -0.5245  1.3485  0.4611
  742TIP3   OH223860   0.224   4.314   7.428 -0.1503 -0.2166  0.0777
  742TIP3    H123861   0.228   4.224   7.398  1.2000  0.1126 -0.8199
  742TIP3    H223862   0.228   4.308   7.524  1.6636 -1.0638 -0.0239
  743TIP3   OH223863   2.997   4.296   3.313  0.6773  0.3552  0.6316
  743TIP3    H123864   3.075   4.328   3.358 -0.3282 -1.1505  3.6676
  743TIP3    H223865   3.028   4.224   3.259  1.4156 -0.2350  1.8108
  744TIP3   OH223866   4.657   4.643   0.379 -0.3768 -0.7458  0.2472
  744TIP3    H123867   4.584   4.671   0.324  0.9735  2.1083 -0.2727
  744TIP3    H223868   4.702   4.576   0.327  0.0722  0.9058 -1.5953
  745TIP3   OH223869   2.291   4.630   2.205  0.1437  0.0455  0.5261
  745TIP3    H123870   2.205   4.667   2.224  0.4720  0.9768  0.2352
  745TIP3    H223871   2.353   4.699   2.228  1.0592 -1.5681  3.4865
  746TIP3   OH223872   0.506   5.409   1.934 -0.0736  0.0657 -0.0706
  746TIP3    H123873   0.533   5.400   2.026 -0.1362 -0.5880 -0.1119
  746TIP3    H223874   0.539   5.495   1.908  0.5749 -0.0476  0.3524
  747TIP3   OH223875   3.127   3.507   0.801 -0.2344 -0.3668  0.1279
  747TIP3    H123876   3.156   3.559   0.726  0.1235 -0.7687 -0.0203
  747TIP3    H223877   3.121   3.569   0.873 -0.9755  0.1022 -0.3294
  748TIP3   OH223878   3.536   4.342   0.526 -0.0091  0.0598 -0.0838
  748TIP3    H123879   3.528   4.381   0.613 -2.0274 -3.3357  1.4522
  748TIP3    H223880   3.456   4.367   0.481 -0.0724 -0.0918 -0.0586
  749TIP3   OH223881   5.556   3.097   1.167 -0.1529 -0.9204 -0.1533
  749TIP3    H123882   5.577   3.159   1.097 -0.0850  0.1741  0.8011
  749TIP3    H223883   5.482   3.047   1.133 -0.1401 -0.3902 -1.0023
  750TIP3   OH223884   3.290   5.932   8.010 -0.2676 -0.5287  0.1330
  750TIP3    H123885   3.275   6.008   8.066  0.4049 -0.2050 -0.1143
  750TIP3    H223886   3.227   5.942   7.938 -0.0242 -0.0864 -0.0179
  751TIP3   OH223887   2.529   3.678   7.143 -0.3400 -0.2849 -0.1447
  751TIP3    H123888   2.611   3.725   7.160 -0.0194 -1.0233  0.4152
  751TIP3    H223889   2.553   3.609   7.083 -0.3909 -0.9798  0.6211
  752TIP3   OH223890   2.500   3.701   1.680  0.1340 -0.7687 -0.1013
  752TIP3    H123891   2.510   3.793   1.704  1.2722 -0.6645 -0.8891
  752TIP3    H223892   2.525   3.697   1.588 -0.7948 -1.7221 -0.3345
  753TIP3   OH223893   4.742   0.271   0.087 -0.3899 -0.4663  0.1787
  753TIP3    H123894   4.744   0.233   0.174 -2.2222 -0.6986  0.1486
  753TIP3    H223895   4.650   0.293   0.071 -0.3488 -1.6736 -2.2082
  754TIP3   OH223896   0.253   2.250   8.716  0.0834 -0.1382  0.6013
  754TIP3    H123897   0.312   2.325   8.722  1.1709 -0.9633  0.4225
  754TIP3    H223898   0.183   2.280   8.658  0.2975  0.8657  0.8419
  755TIP3   OH223899   4.956   0.271   2.864 -0.2318 -0.4368  0.0525
  755TIP3    H123900   4.922   0.352   2.902  2.1495  0.3329  0.6768
  755TIP3    H223901   4.939   0.204   2.931  0.9012  0.2651  1.0798
  756TIP3   OH223902   1.917   0.964   2.676 -0.9566  0.2312  0.2618
  756TIP3    H123903   1.941   1.037   2.733 -1.6476 -0.0722  0.9722
  756TIP3    H223904   1.974   0.972   2.600  1.5855 -0.6575  1.9769
  757TIP3   OH223905   6.426   6.369   8.642  0.7996  0.4759 -0.5528
  757TIP3    H123906   6.396   6.443   8.694  1.0765  0.5411 -0.4842
  757TIP3    H223907   6.422   6.400   8.551 -0.3805  0.1183 -0.6325
  758TIP3   OH223908   6.544   6.453   2.148  0.0184  0.5393  0.1704
  758TIP3    H123909   6.502   6.515   2.088 -0.3328 -0.2260 -0.3766
  758TIP3    H223910   6.472   6.399   2.181  0.4561 -0.2476 -0.1493
  759TIP3   OH223911   2.316   2.198   1.559  0.0074  0.1128  0.1466
  759TIP3    H123912   2.237   2.154   1.528  1.2982 -1.9409 -0.3918
  759TIP3    H223913   2.316   2.183   1.654 -0.3186  0.2751  0.1759
  760TIP3   OH223914   4.747   5.906   2.643  0.0467  0.6646 -0.3840
  760TIP3    H123915   4.700   5.839   2.593  0.1668  0.2992 -0.0178
  760TIP3    H223916   4.683   5.975   2.657 -1.1762 -0.8296  2.1172
  761TIP3   OH223917   3.708   3.213   1.282  0.2860  0.0399 -0.2008
  761TIP3    H123918   3.654   3.188   1.357  0.7846  1.2594  0.6024
  761TIP3    H223919   3.647   3.212   1.208 -0.2175 -1.1819  0.2065
  762TIP3   OH223920   5.800   4.020   8.023 -0.3470 -0.1741  0.0257
  762TIP3    H123921   5.784   4.022   7.929  2.0276 -0.6770 -0.4516
  762TIP3    H223922   5.746   3.948   8.055 -0.3461 -0.7093 -1.1375
  763TIP3   OH223923   1.230   2.822   1.490 -0.5241  0.0382  0.4245
  763TIP3    H123924   1.291   2.770   1.437  0.1225  0.7610  0.4407
  763TIP3    H223925   1.143   2.797   1.458 -0.1516  2.2977 -2.8910
  764TIP3   OH223926   3.888   6.578   2.185  0.0715  0.7834 -0.2391
  764TIP3    H123927   3.929   6.554   2.102 -1.0937  1.8297 -1.1732
  764TIP3    H223928   3.926   6.519   2.250  1.4193  0.3099 -1.4206
  765TIP3   OH223929   2.922   0.306   8.286 -0.3316 -0.3672 -0.3496
  765TIP3    H123930   2.937   0.352   8.204 -2.3311  0.7013 -0.1955
  765TIP3    H223931   2.826   0.300   8.293 -0.2003 -1.0852  1.5460
  766TIP3   OH223932   3.476   4.909   8.172  0.0287 -0.1879  0.3016
  766TIP3    H123933   3.391   4.934   8.135  0.9195  1.3562 -0.8394
  766TIP3    H223934   3.482   4.960   8.252 -0.4077 -0.8420  0.7585
  767TIP3   OH223935   6.191   0.806   3.336  0.2181 -0.7618  0.1172
  767TIP3    H123936   6.220   0.741   3.272  2.3523  0.1023  0.1376
  767TIP3    H223937   6.182   0.756   3.418  1.8813 -1.0578  0.1475
  768TIP3   OH223938   1.916   0.742   2.894  0.0907  0.0527  0.1377
  768TIP3    H123939   1.830   0.712   2.862  0.5526  0.1845 -1.2856
  768TIP3    H223940   1.927   0.828   2.854 -0.0725  1.0461  2.1172
  769TIP3   OH223941   1.168   4.528   1.340  0.2926 -0.0876 -0.5637
  769TIP3    H123942   1.118   4.605   1.313  1.6021  0.6174 -1.0690
  769TIP3    H223943   1.188   4.483   1.258  0.6336 -0.2592 -0.3863
  770TIP3   OH223944   5.873   0.099   1.375 -0.2685 -0.4058 -0.7296
  770TIP3    H123945   5.900   0.042   1.302  0.7272 -0.6015 -0.2154
  770TIP3    H223946   5.933   0.173   1.371  1.3710 -1.5162  1.2878
  771TIP3   OH223947   5.685   2.687   8.126 -0.1099 -0.3870 -0.1953
  771TIP3    H123948   5.774   2.668   8.157 -0.3633 -0.2411  0.6252
  771TIP3    H223949   5.661   2.768   8.170 -1.8340 -2.0195  2.0727
  772TIP3   OH223950   0.553   2.366   7.629 -0.0383 -0.3917 -0.0616
  772TIP3    H123951   0.613   2.293   7.616 -1.1870 -1.4113  0.2087
  772TIP3    H223952   0.518   2.385   7.542  0.7964  0.3377 -0.2537
  773TIP3   OH223953   3.611   3.199   8.459 -0.0755  0.5846 -0.6544
  773TIP3    H123954   3.634   3.288   8.484 -0.1413 -0.0042  1.6695
  773TIP3    H223955   3.527   3.183   8.501  0.1397 -0.7242 -0.6765
  774TIP3   OH223956   1.272   2.276   0.882 -0.5800  0.4560 -0.9468
  774TIP3    H123957   1.308   2.211   0.822  1.0215  0.9209 -0.5278
  774TIP3    H223958   1.183   2.291   0.850 -1.1567 -2.1777 -0.8450
  775TIP3   OH223959   0.830   6.048   0.616 -1.0395 -0.4078 -0.4668
  775TIP3    H123960   0.805   6.025   0.706 -0.5590 -0.6331 -0.3921
  775TIP3    H223961   0.751   6.089   0.580 -1.3473 -0.6263 -0.0539
  776TIP3   OH223962   6.741   4.666   1.769 -0.1732  0.1121 -0.2422
  776TIP3    H123963   6.663   4.614   1.748 -0.2027  0.1822 -0.3051
  776TIP3    H223964   6.809   4.633   1.711 -0.0246 -0.2767  0.1419
  777TIP3   OH223965   5.567   4.334   1.869  0.3161 -0.3134 -0.0753
  777TIP3    H123966   5.497   4.292   1.818 -0.4146  0.9335 -0.1478
  777TIP3    H223967   5.645   4.283   1.848 -0.2862 -0.8435 -1.1588
  778TIP3   OH223968   2.244   1.718   0.761 -0.1253 -0.2086  0.2837
  778TIP3    H123969   2.305   1.713   0.834 -0.8356 -1.9652  0.7995
  778TIP3    H223970   2.264   1.802   0.719  2.2882 -0.4905  0.7102
  779TIP3   OH223971   3.832   2.767   2.958  0.5636  0.1793 -0.5132
  779TIP3    H123972   3.739   2.754   2.938  1.4220 -1.3968 -4.4970
  779TIP3    H223973   3.851   2.854   2.923  0.7406  0.1449 -0.5016
  780TIP3   OH223974   5.984   6.002   8.648  0.0602  0.1666 -0.6246
  780TIP3    H123975   6.050   6.071   8.643  0.0344  0.1787 -0.8077
  780TIP3    H223976   6.032   5.922   8.628  0.3574 -0.0406  0.8265
  781TIP3   OH223977   2.926   5.129   0.378  0.0740  0.3754  0.0417
  781TIP3    H123978   2.859   5.182   0.336  1.7347  2.5165 -0.0922
  781TIP3    H223979   2.909   5.138   0.472  0.7255  1.7384  0.0451
  782TIP3   OH223980   5.981   4.929   0.393  0.0112 -0.2587  0.2502
  782TIP3    H123981   6.024   4.880   0.323  0.0404  1.4725 -1.0266
  782TIP3    H223982   5.896   4.887   0.403  0.5782 -1.4475  0.2257
  783TIP3   OH223983   0.946   2.430   2.470  0.1109 -0.2327  0.2234
  783TIP3    H123984   0.878   2.430   2.538  0.3737 -0.2797  0.4884
  783TIP3    H223985   1.028   2.438   2.519  0.2657  0.4196 -0.1252
  784TIP3   OH223986   4.657   0.910   0.945  0.0941 -0.4310  0.2693
  784TIP3    H123987   4.615   0.884   1.027  0.5329 -0.0369  0.6224
  784TIP3    H223988   4.584   0.935   0.887 -0.2454 -1.1513  0.3784
  785TIP3   OH223989   3.759   2.470   0.748  0.3125  0.1310 -0.3810
  785TIP3    H123990   3.728   2.541   0.805  0.6565  0.6253 -0.8050
  785TIP3    H223991   3.682   2.447   0.696  0.6449  1.4455 -1.5229
  786TIP3   OH223992   2.743   2.748   7.100  0.4867 -0.2326  0.5011
  786TIP3    H123993   2.772   2.838   7.082 -0.9841  0.0386 -0.7252
  786TIP3    H223994   2.707   2.718   7.017 -2.3269 -0.6713  1.7511
  787TIP3   OH223995   3.038   2.041   1.270 -0.0834 -0.2053 -0.0588
  787TIP3    H123996   3.001   1.974   1.212 -0.6925 -1.4895  1.7079
  787TIP3    H223997   3.132   2.036   1.256 -0.2774  0.6338 -2.0431
  788TIP3   OH223998   3.352   1.297   8.787  0.4985  0.4016 -0.3908
  788TIP3    H123999   3.348   1.281   8.693  3.5480 -0.3052 -0.4906
  788TIP3    H224000   3.378   1.389   8.794 -1.2630  0.9225 -0.1394
  789TIP3   OH224001   5.822   3.944   1.672  0.0523 -0.1065 -0.1543
  789TIP3    H124002   5.761   4.013   1.644 -0.1037  0.4887  1.5597
  789TIP3    H224003   5.795   3.867   1.623  0.3259  1.0441 -2.2504
  790TIP3   OH224004   1.112   5.196   1.076 -0.0451 -0.6982  0.6126
  790TIP3    H124005   1.018   5.179   1.071 -0.4552  1.3988  0.2632
  790TIP3    H224006   1.150   5.135   1.014 -1.0873 -2.0215  1.2151
  791TIP3   OH224007   2.944   0.406   0.600 -0.0827  0.2613  0.1002
  791TIP3    H124008   2.994   0.483   0.571  0.4131 -0.2113 -0.3251
  791TIP3    H224009   3.009   0.336   0.605 -0.7979 -0.5172 -1.0700
  792TIP3   OH224010   4.176   3.221   8.074  0.4817  0.3633  0.2670
  792TIP3    H124011   4.087   3.254   8.079 -0.0925 -1.0037 -0.3243
  792TIP3    H224012   4.168   3.127   8.090  1.8716  0.2679  0.5848
  793TIP3   OH224013   2.055   2.639   1.356  0.1499 -0.0424 -0.7767
  793TIP3    H124014   1.969   2.600   1.372  0.8751 -1.1061  0.8099
  793TIP3    H224015   2.112   2.565   1.339  1.0791  0.5118 -0.1738
  794TIP3   OH224016   1.315   6.498   2.578  0.1677 -0.1591  0.6123
  794TIP3    H124017   1.269   6.578   2.554  0.6694  0.0538  0.3209
  794TIP3    H224018   1.361   6.519   2.659  2.3820  0.7186 -0.7838
  795TIP3   OH224019   3.624   1.785   8.748  0.4247 -0.0712 -0.0650
  795TIP3    H124020   3.611   1.835   8.829 -2.0671  0.4491 -0.6889
  795TIP3    H224021   3.686   1.717   8.772  2.2590  1.9805  1.4031
  796TIP3   OH224022   3.641   4.386   1.406  0.7291 -0.3407 -0.2776
  796TIP3    H124023   3.689   4.312   1.442  0.7142 -0.0080  0.4591
  796TIP3    H224024   3.549   4.361   1.414  0.7543 -0.8256 -1.3507
  797TIP3   OH224025   4.030   2.262   2.260  0.5020 -0.4860 -0.3284
  797TIP3    H124026   4.070   2.238   2.344  1.5735  0.3462 -0.5635
  797TIP3    H224027   3.967   2.193   2.242 -1.7879  0.6595  2.4726
  798TIP3   OH224028   2.186   3.556   0.424 -0.0603  0.0893 -0.6834
  798TIP3    H124029   2.256   3.618   0.410  0.1942 -0.0711 -0.1534
  798TIP3    H224030   2.211   3.479   0.373  2.3628 -1.6507  2.7345
  799TIP3   OH224031   5.827   5.030   1.721  0.3420  0.4405  0.7850
  799TIP3    H124032   5.771   5.091   1.770  0.0786 -0.0568  1.1129
  799TIP3    H224033   5.856   4.967   1.787 -1.2043 -1.1108  0.0575
  800TIP3   OH224034   5.172   1.874   0.526  0.1701  0.4446  0.7855
  800TIP3    H124035   5.226   1.859   0.449  1.3407 -0.2408  1.7133
  800TIP3    H224036   5.223   1.933   0.581  0.0065 -0.2092  1.6704
  801TIP3   OH224037   1.775   4.958   2.914 -0.5105  0.0613  0.1374
  801TIP3    H124038   1.702   4.933   2.971 -0.3479  0.8838  0.7216
  801TIP3    H224039   1.835   4.884   2.919 -1.1584 -0.4934 -0.1091
  802TIP3   OH224040   5.368   5.019   1.358 -0.1315  0.1642 -0.1402
  802TIP3    H124041   5.358   4.927   1.382 -1.8130  0.4996  0.6189
  802TIP3    H224042   5.372   5.065   1.441 -0.1579  0.8536 -0.5129
  803TIP3   OH224043   2.913   4.846   2.018 -0.3106 -0.7253  0.1624
  803TIP3    H124044   2.901   4.922   2.074 -2.9704  0.4162 -1.7488
  803TIP3    H224045   2.844   4.785   2.046 -0.3997 -0.9728 -0.5914
  804TIP3   OH224046   5.901   3.502   1.546  0.1524  0.3053 -0.3903
  804TIP3    H124047   5.902   3.479   1.453  2.3921 -0.8978 -0.1336
  804TIP3    H224048   5.895   3.417   1.591  1.3489  0.6862  0.5498
  805TIP3   OH224049   6.338   2.999   1.525  0.0573  0.0215  0.0596
  805TIP3    H124050   6.292   2.970   1.604 -1.9190  1.0851 -0.6262
  805TIP3    H224051   6.291   3.079   1.498  2.3488  1.2109 -0.7001
  806TIP3   OH224052   6.283   4.321   1.730 -0.2143 -0.2965  0.1344
  806TIP3    H124053   6.321   4.325   1.643 -0.3845  0.0143  0.0730
  806TIP3    H224054   6.192   4.295   1.715 -0.1176 -0.7217  0.2570
  807TIP3   OH224055   3.975   2.580   1.227 -0.1762 -0.7300  0.1955
  807TIP3    H124056   4.012   2.642   1.290 -0.4435 -0.1948 -0.1668
  807TIP3    H224057   3.907   2.629   1.182  0.6269 -0.8113 -1.1703
  808TIP3   OH224058   3.743   0.310   1.182 -0.0946 -0.2867  0.0958
  808TIP3    H124059   3.681   0.245   1.148 -0.4292 -0.0928  0.3187
  808TIP3    H224060   3.787   0.265   1.254  0.6898 -0.7323 -0.6476
  809TIP3   OH224061   0.243   4.209   2.294  0.2336 -0.2108  0.3329
  809TIP3    H124062   0.188   4.161   2.232  2.1443 -0.3435 -1.3490
  809TIP3    H224063   0.296   4.142   2.337 -0.5695 -0.0438  1.6526
  810TIP3   OH224064   1.746   2.208   2.036  0.2947  0.5311 -0.5076
  810TIP3    H124065   1.694   2.224   1.958 -0.2017 -1.2474 -0.5819
  810TIP3    H224066   1.828   2.170   2.003  0.1745 -0.0133 -0.1875
  811TIP3   OH224067   0.486   4.579   1.804  0.3016  0.0046 -0.2516
  811TIP3    H124068   0.428   4.508   1.777  0.4525 -0.8511  1.5202
  811TIP3    H224069   0.433   4.658   1.797 -0.1772 -0.3895 -1.3069
  812TIP3   OH224070   2.693   3.264   0.244 -0.5157 -0.7255  0.4209
  812TIP3    H124071   2.639   3.337   0.275  1.8006  1.5476 -0.5801
  812TIP3    H224072   2.772   3.269   0.297  0.9680 -0.5254 -1.6991
  813TIP3   OH224073   5.372   1.579   8.009 -0.4471 -0.2719 -0.3881
  813TIP3    H124074   5.381   1.547   7.919 -1.3645 -0.2183 -0.5150
  813TIP3    H224075   5.360   1.673   8.000  0.7895 -0.0816 -0.1128
  814TIP3   OH224076   0.961   0.903   1.957 -0.0980  0.4726  0.3274
  814TIP3    H124077   1.021   0.976   1.972  1.5766 -0.7784 -0.0795
  814TIP3    H224078   0.988   0.866   1.873 -0.7673 -0.7724  0.6374
  815TIP3   OH224079   1.518   4.878   0.432 -0.2571 -0.4675  0.5972
  815TIP3    H124080   1.573   4.801   0.442  0.9563  0.5352  1.9258
  815TIP3    H224081   1.579   4.952   0.433 -1.5085  0.5974  0.7047
  816TIP3   OH224082   0.478   1.964   1.245 -0.4439 -0.7137  0.0278
  816TIP3    H124083   0.430   1.903   1.190 -0.3419  1.7106 -3.0216
  816TIP3    H224084   0.563   1.921   1.261 -0.3913 -1.4205 -1.9641
  817TIP3   OH224085   5.142   6.170   8.082 -0.1361  0.4206 -0.2518
  817TIP3    H124086   5.206   6.218   8.029 -1.1548  1.4437 -0.5979
  817TIP3    H224087   5.189   6.092   8.112  1.0518  0.7993 -1.0625
  818TIP3   OH224088   5.345   5.465   8.820 -0.2315 -0.1148 -0.9303
  818TIP3    H124089   5.435   5.496   8.816 -0.1979 -0.2801 -1.4772
  818TIP3    H224090   5.322   5.446   8.729 -0.6930 -0.4207 -0.7512
  819TIP3   OH224091   3.951   1.103   2.383  0.6833  0.5344 -0.1560
  819TIP3    H124092   3.977   1.024   2.431 -0.8168  0.9753  1.4646
  819TIP3    H224093   3.942   1.074   2.292  4.2399 -0.1808 -0.4373
  820TIP3   OH224094   1.817   5.476   1.700 -0.0968  0.0753 -0.1910
  820TIP3    H124095   1.763   5.543   1.658  2.5041  2.2095 -0.4178
  820TIP3    H224096   1.821   5.502   1.792 -0.7129 -0.9929  0.1549
  821TIP3   OH224097   0.214   5.496   0.744 -0.1277 -0.1672  0.2977
  821TIP3    H124098   0.165   5.545   0.811  2.1968 -0.8150  2.6468
  821TIP3    H224099   0.200   5.404   0.767  0.3982 -0.4149 -0.3452
  822TIP3   OH224100   0.959   1.081   8.190 -0.1995  0.0846 -0.4511
  822TIP3    H124101   1.030   1.031   8.150 -0.8073  1.2114 -3.1692
  822TIP3    H224102   0.938   1.033   8.271  1.5527 -1.9877 -1.1270
  823TIP3   OH224103   1.068   3.098   7.940 -0.5518 -0.4618 -0.7349
  823TIP3    H124104   1.147   3.099   7.885 -0.6532 -0.0137 -0.8741
  823TIP3    H224105   1.078   3.020   7.994 -0.7329 -1.2379 -1.7886
  824TIP3   OH224106   6.103   0.609   0.136  0.4037  0.1627  0.1324
  824TIP3    H124107   6.172   0.638   0.196  1.1609 -0.8933 -0.1946
  824TIP3    H224108   6.082   0.687   0.085  2.3709  0.1848 -0.7190
  825TIP3   OH224109   5.160   5.051   2.172  0.1796 -0.2014  0.0206
  825TIP3    H124110   5.232   5.028   2.113  1.5159 -0.8369  1.8068
  825TIP3    H224111   5.134   5.139   2.146  0.4597 -0.6165 -1.7492
  826TIP3   OH224112   1.111   6.054   0.626  0.3852  0.5829 -0.3105
  826TIP3    H124113   1.017   6.071   0.616  0.7293  2.2795 -0.8990
  826TIP3    H224114   1.124   6.054   0.721 -0.5168 -1.7816 -0.1016
  827TIP3   OH224115   1.275   1.065   2.167 -0.7606  0.5937  0.7063
  827TIP3    H124116   1.202   1.004   2.176 -0.4541 -0.2426 -1.7155
  827TIP3    H224117   1.244   1.129   2.103 -0.4605  2.0821  1.9731
  828TIP3   OH224118   6.033   4.680   0.682 -0.1442  0.2836 -0.1854
  828TIP3    H124119   6.043   4.677   0.587  0.9602  2.6700 -0.2025
  828TIP3    H224120   6.095   4.615   0.715 -0.1503 -0.1827 -1.0669
  829TIP3   OH224121   5.044   2.941   0.864  0.8384  0.1764  0.3453
  829TIP3    H124122   5.069   3.029   0.892  2.6327 -0.9370  2.6060
  829TIP3    H224123   5.006   2.901   0.942  0.7037 -1.2917 -0.4411
  830TIP3   OH224124   5.574   5.633   3.084  0.8284  0.2792  0.3936
  830TIP3    H124125   5.480   5.632   3.098  0.5186  1.1810 -1.2891
  830TIP3    H224126   5.611   5.671   3.164 -0.2001 -0.3233  1.1693
  831TIP3   OH224127   3.151   2.072   6.584  0.0390 -0.3054 -0.3781
  831TIP3    H124128   3.075   2.055   6.529 -1.0283  0.6068  0.7663
  831TIP3    H224129   3.204   2.134   6.533  0.1430 -1.1206 -1.2786
  832TIP3   OH224130   1.832   3.115   0.486  0.2450  0.3117  0.1227
  832TIP3    H124131   1.855   3.204   0.513 -0.1265  1.1406 -2.1270
  832TIP3    H224132   1.746   3.099   0.527  0.6089  0.7012  1.0733
  833TIP3   OH224133   1.933   1.647   0.173  0.2140  0.3999  0.0043
  833TIP3    H124134   1.886   1.619   0.094 -0.8550  1.2392  0.3175
  833TIP3    H224135   1.887   1.603   0.244 -1.4526  2.7302  0.5011
  834TIP3   OH224136   3.818   1.079   1.420 -0.1979 -0.5540 -0.0549
  834TIP3    H124137   3.729   1.092   1.451 -0.1584 -1.8717  0.6899
  834TIP3    H224138   3.816   1.106   1.328 -1.1488  0.2008  0.1759
  835TIP3   OH224139   4.804   1.071   0.776  0.0571  0.0675  0.7799
  835TIP3    H124140   4.762   1.021   0.845 -0.8279  0.8642  0.8430
  835TIP3    H224141   4.757   1.045   0.696  0.2709  0.0442  0.6614
  836TIP3   OH224142   5.766   5.445   2.410  0.2129 -0.3106  0.0482
  836TIP3    H124143   5.854   5.434   2.374 -0.4337 -1.5599 -1.2975
  836TIP3    H224144   5.747   5.538   2.399  0.6555 -0.3724 -1.4496
  837TIP3   OH224145   5.328   5.845   7.796  0.8724 -0.4615  0.2469
  837TIP3    H124146   5.411   5.804   7.820  0.8777 -0.7718 -0.2787
  837TIP3    H224147   5.348   5.897   7.718  0.5049 -0.8094 -0.0849
  838TIP3   OH224148   6.755   5.559   8.818  0.1817 -0.3394  0.4587
  838TIP3    H124149   6.843   5.559   8.781  0.4323 -0.5826  1.0466
  838TIP3    H224150   6.764   5.515   8.902 -0.0114  1.8959  1.7176
  839TIP3   OH224151   6.353   4.967   8.551  0.4183 -0.5941  0.0271
  839TIP3    H124152   6.414   4.944   8.481  0.6863 -0.2486  0.1424
  839TIP3    H224153   6.352   4.891   8.608 -1.2306 -1.6485 -1.3139
  840TIP3   OH224154   5.677   3.336   8.325  0.7430 -0.6877 -0.2911
  840TIP3    H124155   5.717   3.274   8.265  0.2146  0.2631 -1.6781
  840TIP3    H224156   5.746   3.356   8.389  1.9077 -0.4568 -1.5735
  841TIP3   OH224157   3.856   3.207   8.772  0.0084 -0.1924  0.7002
  841TIP3    H124158   3.838   3.297   8.746 -1.1613 -0.4096  0.6907
  841TIP3    H224159   3.948   3.207   8.797  0.0156  1.0104  0.7291
  842TIP3   OH224160   6.244   4.565   1.907  0.5359 -0.8518 -0.3658
  842TIP3    H124161   6.206   4.644   1.867 -2.3075 -1.9777 -0.1352
  842TIP3    H224162   6.238   4.498   1.839  0.6890 -1.4643  0.2118
  843TIP3   OH224163   4.520   4.099   2.807 -0.1118 -0.2111 -0.3909
  843TIP3    H124164   4.522   4.195   2.811 -1.9509 -0.0657 -1.7817
  843TIP3    H224165   4.498   4.072   2.896 -0.7582  0.7207 -0.2515
  844TIP3   OH224166   0.003   4.704   1.402 -0.7734  0.5902 -0.3305
  844TIP3    H124167  -0.023   4.636   1.339 -2.0766  0.2658  0.5190
  844TIP3    H224168   0.055   4.766   1.350 -0.2902 -0.5912 -1.3190
  845TIP3   OH224169   5.746   6.801   8.304 -0.1712  0.0330  0.0309
  845TIP3    H124170   5.726   6.873   8.243 -2.1247 -0.3651  0.1359
  845TIP3    H224171   5.662   6.779   8.343  0.9745  0.0596  2.6969
  846TIP3   OH224172   0.742   1.244   1.444  0.2931 -0.1016  0.5016
  846TIP3    H124173   0.761   1.156   1.411  0.5235  0.5032 -1.0592
  846TIP3    H224174   0.652   1.238   1.476 -0.3357 -0.4972 -1.2048
  847TIP3   OH224175   0.275   5.996   3.029  0.3698  0.0880  0.2203
  847TIP3    H124176   0.329   5.920   3.052 -0.8867 -0.4881  1.4317
  847TIP3    H224177   0.232   6.020   3.111  0.6741  2.0912 -0.1508
  848TIP3   OH224178   0.960   0.683   8.069  0.2080  0.4233  0.4677
  848TIP3    H124179   0.879   0.733   8.075 -0.6979 -0.8514 -0.4399
  848TIP3    H224180   0.971   0.644   8.155 -0.8062 -0.3244  0.2771
  849TIP3   OH224181   5.738   4.148   0.526 -0.1684  0.2242  0.6706
  849TIP3    H124182   5.796   4.222   0.543 -1.1650  1.5642 -1.3254
  849TIP3    H224183   5.796   4.078   0.495  0.4665  1.4753 -1.1090
  850TIP3   OH224184   2.296   2.870   1.941  0.2444  0.0875 -0.3569
  850TIP3    H124185   2.369   2.900   1.887 -0.1069  0.8788 -0.4029
  850TIP3    H224186   2.333   2.800   1.995  0.7936 -0.1718 -1.0585
  851TIP3   OH224187   2.923   0.206   2.127  0.2468  0.6153 -0.2268
  851TIP3    H124188   2.935   0.200   2.221  0.3409 -0.3041 -0.2926
  851TIP3    H224189   2.969   0.130   2.092 -0.9693  0.1712 -0.9148
  852TIP3   OH224190   6.751   2.759   7.211 -0.8132  0.3384 -0.1495
  852TIP3    H124191   6.778   2.695   7.276  1.2808  1.1476 -0.1523
  852TIP3    H224192   6.797   2.734   7.131  2.7191  3.5188  0.6200
  853TIP3   OH224193   1.180   0.555   1.394  0.0938 -0.4614  0.3595
  853TIP3    H124194   1.091   0.548   1.429 -0.5618  0.7784 -1.0052
  853TIP3    H224195   1.230   0.596   1.465 -0.7592  0.2249  0.5773
  854TIP3   OH224196   2.101   5.428   1.665 -0.3513  0.2807 -0.5690
  854TIP3    H124197   2.019   5.468   1.635 -1.6623 -1.8034  0.0601
  854TIP3    H224198   2.154   5.420   1.586 -1.8947 -0.8902 -1.5372
  855TIP3   OH224199   4.228   4.057   2.811 -0.0795 -0.0613 -0.0889
  855TIP3    H124200   4.201   4.100   2.893  0.3441 -1.6409  0.9252
  855TIP3    H224201   4.323   4.064   2.812 -0.0531 -0.4111 -0.2604
  856TIP3   OH224202   0.459   1.674   7.550  0.3694 -0.5633  0.3659
  856TIP3    H124203   0.393   1.724   7.598 -1.0475  0.6109 -2.5444
  856TIP3    H224204   0.539   1.726   7.557  0.4101 -0.8000  1.9789
  857TIP3   OH224205   4.309   3.715   7.886 -0.5220 -0.7418 -0.1770
  857TIP3    H124206   4.385   3.661   7.908 -0.1427 -0.2942 -0.3757
  857TIP3    H224207   4.332   3.757   7.803 -0.7399 -0.1449  0.0586
  858TIP3   OH224208   3.705   3.857   3.325  0.3042  0.0900 -0.4083
  858TIP3    H124209   3.709   3.882   3.232 -1.9913 -0.1872 -0.6258
  858TIP3    H224210   3.615   3.873   3.350  0.7253 -0.5142  1.6222
  859TIP3   OH224211   0.512   3.695   1.971 -0.4359 -0.1208  0.5537
  859TIP3    H124212   0.510   3.621   1.910 -0.2396 -0.2035  0.6469
  859TIP3    H224213   0.529   3.771   1.916 -0.4423 -0.1715  0.4818
  860TIP3   OH224214   3.625   2.110   8.137 -0.3023  0.3427 -0.2189
  860TIP3    H124215   3.610   2.039   8.200 -0.2653  1.1045  0.6711
  860TIP3    H224216   3.708   2.148   8.164 -0.3308  0.7394 -0.6846
  861TIP3   OH224217   0.223   1.622   1.198 -0.3262  0.1188  0.1802
  861TIP3    H124218   0.255   1.679   1.128  0.1791 -0.6929 -0.2677
  861TIP3    H224219   0.208   1.681   1.272  1.6269  0.6559  0.2059
  862TIP3   OH224220   1.728   4.353   0.432 -0.7838  0.3187  0.0842
  862TIP3    H124221   1.655   4.318   0.484 -1.8439 -0.6717 -1.9683
  862TIP3    H224222   1.766   4.275   0.391  1.2389  0.8679  0.8163
  863TIP3   OH224223   0.426   5.078   8.195  0.3729 -0.0781  0.6246
  863TIP3    H124224   0.455   4.992   8.165  1.3289  0.2560  0.5587
  863TIP3    H224225   0.506   5.121   8.224  0.2054  1.4847 -1.0732
  864TIP3   OH224226   1.942   3.208   8.389 -0.2843 -0.4946  0.0433
  864TIP3    H124227   2.030   3.235   8.416 -0.1376 -0.7213 -0.2004
  864TIP3    H224228   1.946   3.112   8.388 -0.9234 -0.5497  1.3115
  865TIP3   OH224229   0.297   5.566   2.340 -0.3752  0.7187  0.0839
  865TIP3    H124230   0.353   5.508   2.391 -1.9596 -0.6658  0.3517
  865TIP3    H224231   0.357   5.617   2.286  1.2957  1.4445  2.4950
  866TIP3   OH224232   3.544   2.385   8.408 -0.1917 -0.2056  0.3463
  866TIP3    H124233   3.581   2.447   8.345  0.3495 -0.7406  0.1302
  866TIP3    H224234   3.618   2.357   8.461 -0.7655  0.7857  1.7183
  867TIP3   OH224235   0.264   3.240   2.449  0.3482 -0.1271 -0.0700
  867TIP3    H124236   0.322   3.179   2.405  1.1686  0.4367  0.1935
  867TIP3    H224237   0.319   3.317   2.466 -0.1605 -0.0116  1.1913
  868TIP3   OH224238   0.550   0.261   8.651  0.0756 -0.5698  0.1244
  868TIP3    H124239   0.628   0.240   8.598  0.5544 -2.7004  1.5331
  868TIP3    H224240   0.585   0.295   8.733 -0.5310 -0.3769  0.3070
  869TIP3   OH224241   1.866   1.694   2.377  0.0222 -0.8226 -0.5975
  869TIP3    H124242   1.858   1.767   2.439  0.6962 -0.8577 -0.4636
  869TIP3    H224243   1.822   1.726   2.298 -1.4103 -1.0159  0.0751
  870TIP3   OH224244   1.475   1.379   3.219  0.6009 -0.8323  0.3393
  870TIP3    H124245   1.390   1.413   3.249  0.7879 -0.0377  0.0012
  870TIP3    H224246   1.539   1.424   3.274  0.9851  0.9989 -1.4826
  871TIP3   OH224247   2.611   0.352   7.382 -0.0700 -0.6872  0.1821
  871TIP3    H124248   2.534   0.406   7.404  0.7051 -0.0976  1.5805
  871TIP3    H224249   2.669   0.361   7.457  1.8867 -0.2135 -1.2970
  872TIP3   OH224250   4.291   2.835   0.350 -0.0902  0.2446  0.4128
  872TIP3    H124251   4.373   2.807   0.391  1.4882 -1.3892 -3.3737
  872TIP3    H224252   4.305   2.928   0.331  1.0413 -0.0764 -0.4251
  873TIP3   OH224253   4.771   4.160   0.911 -0.0853  0.1676  0.3295
  873TIP3    H124254   4.783   4.127   0.822 -0.0286 -1.1289  0.7863
  873TIP3    H224255   4.727   4.088   0.957  1.3115  0.1742  1.7527
  874TIP3   OH224256   4.791   1.385   0.705 -0.3530 -0.2202 -0.2038
  874TIP3    H124257   4.762   1.459   0.758 -1.7633  0.8788 -2.3597
  874TIP3    H224258   4.843   1.424   0.635  0.8181 -1.5450 -0.1261
  875TIP3   OH224259   2.817   4.615   1.470 -0.5021  0.1189 -0.2560
  875TIP3    H124260   2.900   4.603   1.516  0.4064  0.4215 -1.7478
  875TIP3    H224261   2.816   4.707   1.444 -1.3966  0.1635 -0.1088
  876TIP3   OH224262   0.100   4.872   0.269 -0.0379 -0.5016 -0.3846
  876TIP3    H124263   0.095   4.803   0.336  0.1539  1.3182  1.6346
  876TIP3    H224264   0.032   4.935   0.294  2.4500  2.0856  0.4324
  877TIP3   OH224265   3.295   4.577   8.390 -0.6915  0.6624 -0.1913
  877TIP3    H124266   3.343   4.566   8.308 -0.0404  0.3165  0.2305
  877TIP3    H224267   3.276   4.671   8.394 -1.7745  0.5236 -1.3053
  878TIP3   OH224268   5.617   2.374   7.889 -0.1971 -0.0073 -0.4519
  878TIP3    H124269   5.653   2.315   7.823  1.6264  1.4639 -0.8258
  878TIP3    H224270   5.693   2.408   7.936 -1.3124  0.8549  0.8106
  879TIP3   OH224271   0.217   4.007   3.147  0.2783  0.1164 -0.1234
  879TIP3    H124272   0.142   3.963   3.188  0.5350 -0.9285 -0.7368
  879TIP3    H224273   0.209   4.099   3.175 -0.2138 -0.3225  1.2772
  880TIP3   OH224274   5.754   3.322   0.623 -0.5076  0.4597  0.0138
  880TIP3    H124275   5.833   3.322   0.569  0.5313  1.9779  1.4133
  880TIP3    H224276   5.772   3.259   0.692 -0.4292  0.9242  0.4261
  881TIP3   OH224277   0.716   0.567   3.262  0.6915 -0.1568  0.2378
  881TIP3    H124278   0.726   0.513   3.341  1.3879  2.3116  1.9533
  881TIP3    H224279   0.622   0.584   3.257  0.5686 -0.8370  0.1664
  882TIP3   OH224280   4.140   5.553   2.244 -0.6718 -0.0944  0.5099
  882TIP3    H124281   4.215   5.602   2.277 -1.0316  0.1159  1.0331
  882TIP3    H224282   4.161   5.461   2.264  0.8367 -0.4028 -2.1107
  883TIP3   OH224283   2.976   4.111   2.534  0.6360 -0.5213  0.0199
  883TIP3    H124284   2.943   4.024   2.512 -1.9234  0.7107 -1.4403
  883TIP3    H224285   2.977   4.159   2.451 -1.2313  1.7888  1.1894
  884TIP3   OH224286   4.359   0.729   8.730 -0.1742 -0.2750  0.1052
  884TIP3    H124287   4.443   0.689   8.711  0.0530 -0.0421  0.6140
  884TIP3    H224288   4.347   0.719   8.824 -0.3629  0.3604  0.1566
  885TIP3   OH224289   5.265   5.674   0.154  0.3818  0.2147 -0.4321
  885TIP3    H124290   5.197   5.722   0.108  1.7272  1.4956 -1.1677
  885TIP3    H224291   5.273   5.591   0.106 -1.1992 -0.3422  0.1885
  886TIP3   OH224292   5.365   2.756   0.123 -0.0805  0.2749 -0.4498
  886TIP3    H124293   5.307   2.680   0.123 -0.3187  0.4347  0.7783
  886TIP3    H224294   5.336   2.809   0.197  1.0037  0.8477 -0.4013
  887TIP3   OH224295   2.467   0.178   2.463  0.1468 -0.1595  0.2142
  887TIP3    H124296   2.505   0.127   2.535  1.1291  1.4465  0.8926
  887TIP3    H224297   2.375   0.188   2.487  0.5725  0.8247  1.5835
  888TIP3   OH224298   3.208   3.689   7.248  0.7313  0.4080  0.3516
  888TIP3    H124299   3.262   3.710   7.171  0.0876 -0.3530 -0.3210
  888TIP3    H224300   3.217   3.766   7.304  2.5638  0.2899  0.2911
  889TIP3   OH224301   0.124   0.181   3.261  0.1047  0.3820 -0.7812
  889TIP3    H124302   0.085   0.264   3.233  0.0863  0.3313 -0.9075
  889TIP3    H224303   0.053   0.133   3.303 -0.2138 -0.0945 -1.8267
  890TIP3   OH224304   5.213   6.473   0.311  0.2605 -0.5000  0.0423
  890TIP3    H124305   5.232   6.417   0.386  2.2996 -0.1400 -0.1544
  890TIP3    H224306   5.218   6.562   0.345 -1.2963 -0.3537 -0.0193
  891TIP3   OH224307   5.800   4.704   1.242 -0.1510 -0.4558 -0.1142
  891TIP3    H124308   5.779   4.784   1.290 -2.7551 -1.2450  0.2230
  891TIP3    H224309   5.754   4.713   1.158  0.9300 -0.8901 -0.7775
  892TIP3   OH224310   3.816   1.586   1.902  0.3782  0.0349 -0.4661
  892TIP3    H124311   3.880   1.622   1.841  0.2342 -1.1535 -1.3506
  892TIP3    H224312   3.806   1.495   1.875 -1.9113  0.2563 -0.5310
  893TIP3   OH224313   5.900   5.192   0.435  0.4704  0.0195 -0.1790
  893TIP3    H124314   5.912   5.101   0.461 -0.0431  0.5787  2.2162
  893TIP3    H224315   5.806   5.203   0.425  0.5053  0.3642 -0.1581
  894TIP3   OH224316   1.598   0.322   1.786  0.0375  0.9753 -0.0442
  894TIP3    H124317   1.608   0.390   1.852  0.4796  1.4874 -0.6247
  894TIP3    H224318   1.669   0.339   1.724 -0.1097  0.2411 -0.4181
  895TIP3   OH224319   4.711   3.253   7.855  0.3587  0.4094 -0.6708
  895TIP3    H124320   4.727   3.161   7.877 -0.2638  1.0237  2.8965
  895TIP3    H224321   4.758   3.266   7.773  1.7193 -2.6974 -0.5427
  896TIP3   OH224322   1.337   0.859   0.789  0.8648 -0.1369  0.5356
  896TIP3    H124323   1.270   0.811   0.838  0.0899  0.8429  0.4710
  896TIP3    H224324   1.419   0.834   0.831  0.5045 -1.5860  0.4307
  897TIP3   OH224325   2.164   4.281   8.279  0.6734  0.1952  0.0939
  897TIP3    H124326   2.095   4.233   8.234 -0.8290  0.1542  2.2774
  897TIP3    H224327   2.160   4.370   8.243  0.1583 -0.0650 -0.5050
  898TIP3   OH224328   5.797   2.621   2.966 -0.2614  0.1077 -0.3091
  898TIP3    H124329   5.870   2.632   3.027  0.3710  0.1757 -1.0666
  898TIP3    H224330   5.818   2.542   2.917 -0.7346  0.0919 -0.4925
  899TIP3   OH224331   0.234   1.382   0.156 -0.0537 -0.1932 -0.4544
  899TIP3    H124332   0.220   1.390   0.251  1.0163  0.5878 -0.3394
  899TIP3    H224333   0.328   1.366   0.147 -0.3557 -1.6387 -1.3331
  900TIP3   OH224334   4.992   1.978   2.390 -0.7763 -0.0494  0.1615
  900TIP3    H124335   5.077   2.006   2.358 -0.8718  1.8608  1.4236
  900TIP3    H224336   5.008   1.953   2.481 -1.5909  0.5739  0.4904
  901TIP3   OH224337   1.982   2.537   0.524  0.3630 -0.0481  0.6193
  901TIP3    H124338   1.932   2.517   0.604  1.3149 -2.1671  0.7600
  901TIP3    H224339   2.047   2.602   0.552  0.7753 -0.8647  1.6408
  902TIP3   OH224340   3.070   6.129   0.466 -0.1174  0.3544 -0.0485
  902TIP3    H124341   3.031   6.130   0.554 -1.7593  3.2481 -0.6688
  902TIP3    H224342   3.152   6.176   0.476 -0.1422  0.3854  0.0144
  903TIP3   OH224343   3.983   0.659   0.019 -0.3732 -0.0167  0.0331
  903TIP3    H124344   3.983   0.748   0.055 -0.3446 -0.0598  0.1410
  903TIP3    H224345   4.023   0.668  -0.067 -0.1383  0.0353  0.1462
  904TIP3   OH224346   1.634   2.818   1.151 -0.1410 -0.4552  0.7431
  904TIP3    H124347   1.544   2.821   1.118 -0.6001 -1.8928  1.7822
  904TIP3    H224348   1.656   2.910   1.170 -0.9105  0.0564 -0.7013
  905TIP3   OH224349   4.934   2.431   1.515 -0.1312  0.2188  0.4130
  905TIP3    H124350   4.890   2.509   1.481  1.9069  1.4079  0.3378
  905TIP3    H224351   4.963   2.384   1.436  0.5048  0.5279  0.4540
  906TIP3   OH224352   0.068   0.403   8.218  0.3455 -0.1085 -0.1673
  906TIP3    H124353   0.077   0.365   8.131  0.0728  0.7343 -0.5765
  906TIP3    H224354   0.002   0.349   8.262 -1.3411  0.9069 -1.3463
  907TIP3   OH224355   2.100   2.854   7.786  0.0952  0.2556  0.1908
  907TIP3    H124356   2.083   2.925   7.725 -1.2425  0.3494  0.6427
  907TIP3    H224357   2.193   2.833   7.773  0.9232  2.9759  0.9744
  908TIP3   OH224358   2.339   1.849   1.832  0.0753 -0.1799  0.3779
  908TIP3    H124359   2.419   1.818   1.874 -0.1904  0.2710  1.2231
  908TIP3    H224360   2.271   1.840   1.899 -0.7926 -1.4763 -0.6289
  909TIP3   OH224361   6.646   6.349   3.516  0.2604  0.0294 -0.6047
  909TIP3    H124362   6.582   6.291   3.559  1.8155 -1.2653  0.0737
  909TIP3    H224363   6.721   6.293   3.499  1.8676  1.8643  0.1191
  910TIP3   OH224364   0.390   1.048   1.722  0.1545 -0.4457  0.1540
  910TIP3    H124365   0.406   1.057   1.628 -1.4421 -0.8862 -0.1841
  910TIP3    H224366   0.451   1.110   1.762 -0.2856  0.9704 -1.2575
  911TIP3   OH224367   2.883   2.065   2.386  0.3478  0.2065  0.1152
  911TIP3    H124368   2.874   1.971   2.400  1.7622 -0.1101 -0.8682
  911TIP3    H224369   2.817   2.105   2.442 -1.3611 -1.4367 -0.6400
  912TIP3   OH224370   5.836   4.912   2.363 -0.3560  0.1597 -0.3694
  912TIP3    H124371   5.802   4.904   2.452  2.6843  0.3966  0.9163
  912TIP3    H224372   5.835   4.822   2.329 -1.7201  0.0951 -0.2417
  913TIP3   OH224373   4.679   1.692   0.575  0.6898  0.2309  0.0125
  913TIP3    H124374   4.771   1.701   0.602  0.9419 -0.9465 -0.3976
  913TIP3    H224375   4.671   1.752   0.500  1.2069  0.1082 -0.1478
  914TIP3   OH224376   1.410   2.366   1.297  0.0579 -0.2646 -0.0666
  914TIP3    H124377   1.405   2.326   1.384 -0.0120 -2.1547 -0.8849
  914TIP3    H224378   1.370   2.302   1.239  1.2487  0.3739 -1.6751
  915TIP3   OH224379   4.255   5.638   7.438  0.0902  0.1786 -0.3935
  915TIP3    H124380   4.294   5.597   7.360  1.7262  1.6888 -0.4407
  915TIP3    H224381   4.201   5.570   7.476  1.3209 -1.4577 -1.4100
  916TIP3   OH224382   0.033   1.105   8.373 -0.1505  0.4515 -0.1186
  916TIP3    H124383   0.125   1.078   8.372 -0.1489  0.4580 -0.2383
  916TIP3    H224384  -0.008   1.055   8.302 -0.2806  0.3091  0.0561
  917TIP3   OH224385   0.674   1.397   0.827  0.2035 -0.1305  0.3005
  917TIP3    H124386   0.619   1.341   0.881 -0.6412  1.3152  0.9886
  917TIP3    H224387   0.614   1.463   0.793  0.9487 -0.3143 -1.4725
  918TIP3   OH224388   3.112   4.030   8.703  0.8606 -0.2117  0.0261
  918TIP3    H124389   3.168   3.999   8.632  0.6393 -3.4807  1.0898
  918TIP3    H224390   3.092   3.951   8.754 -1.8432  1.3963  1.7277
  919TIP3   OH224391   2.941   1.164   0.030 -0.0892  0.0421  0.3320
  919TIP3    H124392   2.951   1.232  -0.037  0.9525  0.5823  1.0104
  919TIP3    H224393   2.921   1.212   0.110  0.3488 -0.4755  0.7555
  920TIP3   OH224394   5.508   3.043   0.312  0.0589  0.0682  0.0387
  920TIP3    H124395   5.584   2.997   0.347  0.3515  0.2975 -0.2835
  920TIP3    H224396   5.522   3.135   0.337  1.0452  0.5098 -1.9373
  921TIP3   OH224397   4.520   4.044   3.505 -0.3949  0.1951 -0.2226
  921TIP3    H124398   4.425   4.044   3.518 -0.3687  1.1568  0.0552
  921TIP3    H224399   4.535   4.109   3.437 -0.0592 -1.0911 -1.4229
  922TIP3   OH224400   4.246   1.117   8.193 -0.2940  0.6761 -0.8893
  922TIP3    H124401   4.166   1.083   8.235 -0.1316  1.2596 -0.0872
  922TIP3    H224402   4.314   1.104   8.259  0.1940  0.5844 -1.4064
  923TIP3   OH224403   4.548   0.490   0.978 -0.3794 -0.2429  0.2109
  923TIP3    H124404   4.549   0.586   0.986 -0.6126 -0.1972 -0.2741
  923TIP3    H224405   4.486   0.461   1.045 -0.3051 -0.0544  0.3623
  924TIP3   OH224406   3.276   2.271   8.584 -0.3019 -0.1203  0.6863
  924TIP3    H124407   3.288   2.206   8.514  0.9382 -0.7392  1.4454
  924TIP3    H224408   3.281   2.356   8.538 -0.3637 -0.5200 -0.0860
  925TIP3   OH224409   1.766   4.140   0.093 -0.0804  0.2840 -0.3774
  925TIP3    H124410   1.689   4.158   0.038  0.0443  0.1846 -0.5852
  925TIP3    H224411   1.791   4.225   0.127  0.5515  0.5279 -1.4139
  926TIP3   OH224412   5.587   1.892   8.156 -0.5614 -0.2594  0.8012
  926TIP3    H124413   5.507   1.868   8.109  0.5918 -1.5360 -0.6360
  926TIP3    H224414   5.658   1.863   8.098  1.1267  5.0519 -0.3240
  927TIP3   OH224415   2.510   2.521   8.518  0.2423 -0.2663 -0.4526
  927TIP3    H124416   2.482   2.433   8.546 -1.8643 -0.3376 -2.4518
  927TIP3    H224417   2.437   2.578   8.540  1.2502  0.8632  0.0713
  928TIP3   OH224418   2.094   3.941   2.685  0.1587  0.5361  0.6019
  928TIP3    H124419   2.030   3.972   2.749  1.4214 -0.6540  2.5921
  928TIP3    H224420   2.173   3.923   2.737  1.3413 -0.3011 -1.3440
  929TIP3   OH224421   1.530   3.917   3.664 -0.4101  0.1447 -0.2736
  929TIP3    H124422   1.452   3.895   3.716 -0.3887 -1.4690 -0.8749
  929TIP3    H224423   1.495   3.954   3.583 -0.4975  0.6711 -0.0025
  930TIP3   OH224424   4.524   4.382   2.878  0.0918  0.3666 -0.1266
  930TIP3    H124425   4.589   4.451   2.862  0.5675 -0.0338  0.0250
  930TIP3    H224426   4.522   4.373   2.974  0.1784  0.0408 -0.1525
  931TIP3   OH224427   3.008   1.576   7.106 -0.1370  0.2149  0.2084
  931TIP3    H124428   2.931   1.560   7.051 -1.4017 -0.9530  2.2317
  931TIP3    H224429   2.996   1.666   7.137 -0.0137  0.4778 -0.4879
  932TIP3   OH224430   5.322   3.280   2.578  0.5251  0.4391 -0.0473
  932TIP3    H124431   5.246   3.252   2.527  0.0788  0.3070  0.6749
  932TIP3    H224432   5.396   3.238   2.536  0.2999  1.2208 -1.2555
  933TIP3   OH224433   6.437   2.578   0.404  0.0652  0.0201 -0.5488
  933TIP3    H124434   6.470   2.537   0.324 -1.7513 -2.8544  0.0467
  933TIP3    H224435   6.440   2.509   0.470 -1.4436  1.3874  1.0554
  934TIP3   OH224436   4.165   4.627   8.189  0.0761  0.6246  0.5167
  934TIP3    H124437   4.202   4.551   8.143 -0.8943  0.5872 -0.2205
  934TIP3    H224438   4.216   4.701   8.157 -1.0960  0.7121 -1.2818
  935TIP3   OH224439   2.176   1.336   0.929 -0.2624  0.2416 -0.1155
  935TIP3    H124440   2.249   1.281   0.902 -0.6848  0.3438 -1.5215
  935TIP3    H224441   2.101   1.277   0.930 -0.2032  0.1631  1.2108
  936TIP3   OH224442   2.397   2.060   0.301  0.1532 -0.0938  0.3207
  936TIP3    H124443   2.441   2.050   0.216 -0.3280 -0.3698  0.0978
  936TIP3    H224444   2.453   2.013   0.362  1.1489  1.1210  0.3918
  937TIP3   OH224445   3.237   0.926   7.616  0.1233  0.0723  0.2156
  937TIP3    H124446   3.234   1.012   7.572  0.2477 -1.0366 -2.1310
  937TIP3    H224447   3.330   0.906   7.623  0.1723  0.8947  2.4749
  938TIP3   OH224448   0.959   4.953   8.093  0.2201 -0.2892  0.2378
  938TIP3    H124449   0.957   5.045   8.068 -0.3729  0.3600  2.4581
  938TIP3    H224450   1.052   4.935   8.110  0.2500  0.1029  0.4888
  939TIP3   OH224451   5.948   0.266   2.641  0.7699  0.0139  0.2063
  939TIP3    H124452   5.865   0.308   2.618  0.9209 -0.1641 -0.7236
  939TIP3    H224453   5.958   0.282   2.735 -0.8658 -0.9138  0.5902
  940TIP3   OH224454   5.406   4.704   0.670 -0.4314 -0.0204 -0.5467
  940TIP3    H124455   5.384   4.795   0.692 -0.3549 -0.0506 -0.3475
  940TIP3    H224456   5.501   4.702   0.670 -0.4020  0.2263 -1.8756
  941TIP3   OH224457   0.021   0.224   1.402  0.6235 -0.0074 -0.5176
  941TIP3    H124458  -0.058   0.243   1.453  1.5564  2.2334  0.2367
  941TIP3    H224459   0.072   0.166   1.459 -0.0017 -0.5970 -0.5503
  942TIP3   OH224460   4.106   5.660   8.136  0.1368  0.2858  0.1034
  942TIP3    H124461   4.174   5.727   8.139  1.7710 -1.2947  2.1409
  942TIP3    H224462   4.068   5.667   8.048  2.0896  2.0381 -0.6794
  943TIP3   OH224463   0.407   6.431   8.601 -1.0815  0.7802  0.1668
  943TIP3    H124464   0.474   6.370   8.632 -1.5056  0.8878  1.3447
  943TIP3    H224465   0.345   6.376   8.554 -0.9512  0.4449  0.3833
  944TIP3   OH224466   0.499   3.117   1.096 -0.0333  0.1659  0.2412
  944TIP3    H124467   0.501   3.070   1.179 -1.1563  0.2450  0.3307
  944TIP3    H224468   0.491   3.209   1.121  0.4477  0.2638  0.0481
  945TIP3   OH224469   3.599   6.599   2.163 -0.1174  0.4885 -0.0391
  945TIP3    H124470   3.586   6.689   2.192 -0.0599  0.9641 -1.4578
  945TIP3    H224471   3.693   6.593   2.143  0.2596 -0.4237  1.7387
  946TIP3   OH224472   4.072   5.220   2.304  0.2270 -0.4677  0.2135
  946TIP3    H124473   4.107   5.224   2.393 -1.3977  0.3077  0.8561
  946TIP3    H224474   3.977   5.218   2.315 -0.0858  1.3755 -1.5256
  947TIP3   OH224475   0.195   6.100   0.723  0.5154 -0.4204  0.2488
  947TIP3    H124476   0.189   6.021   0.670 -1.3688  1.3810 -2.5586
  947TIP3    H224477   0.105   6.116   0.752  0.8520  0.6579  0.7606
  948TIP3   OH224478   2.354   6.669   1.811  0.1300  0.0242  0.0440
  948TIP3    H124479   2.399   6.592   1.778 -2.6728 -1.4015 -0.7462
  948TIP3    H224480   2.279   6.681   1.753 -1.6150  1.0741  2.3177
  949TIP3   OH224481   1.245   2.424   2.187  0.0496 -0.2083  0.0474
  949TIP3    H124482   1.333   2.457   2.205 -0.5206  0.9574  0.8442
  949TIP3    H224483   1.203   2.419   2.273 -1.3194  1.2212 -0.4875
  950TIP3   OH224484   3.826   3.034   7.905 -0.2060  0.1166 -0.1497
  950TIP3    H124485   3.891   3.100   7.881 -0.5575 -0.2612 -2.2753
  950TIP3    H224486   3.819   3.041   8.000  0.2911  2.6339 -0.2396
  951TIP3   OH224487   2.863   3.577   7.550 -0.0429  0.0150  0.1626
  951TIP3    H124488   2.873   3.582   7.455 -2.1121 -0.1738 -0.1025
  951TIP3    H224489   2.901   3.493   7.574  0.4663  0.0502 -0.4929
  952TIP3   OH224490   2.595   3.382   2.297 -0.3958 -0.3178  0.1720
  952TIP3    H124491   2.563   3.470   2.317 -1.3189 -0.8484  1.1241
  952TIP3    H224492   2.641   3.391   2.214 -0.1406  1.1403  0.4466
  953TIP3   OH224493   2.788   2.478   8.590 -0.0308  0.1110 -0.5016
  953TIP3    H124494   2.827   2.557   8.553 -1.7077  1.7524  0.9927
  953TIP3    H224495   2.705   2.468   8.543 -0.0179 -0.5156 -0.3940
  954TIP3   OH224496   4.393   0.181   0.230 -0.0076  0.3575  0.4292
  954TIP3    H124497   4.442   0.208   0.308  1.3945 -1.7784  0.3900
  954TIP3    H224498   4.302   0.176   0.260 -0.0704  2.9941  0.9114
  955TIP3   OH224499   3.848   0.651   8.528 -0.5081  0.0775  0.1415
  955TIP3    H124500   3.938   0.679   8.543 -0.0172 -1.6347  0.5618
  955TIP3    H224501   3.843   0.563   8.565 -2.5112  0.3397  0.6208
  956TIP3   OH224502   0.509   2.144   0.170  0.0109 -0.1797  0.0942
  956TIP3    H124503   0.587   2.189   0.137 -0.5223 -0.1650 -1.2426
  956TIP3    H224504   0.536   2.053   0.181  0.1805 -0.2244 -0.5940
  957TIP3   OH224505   2.869   1.919   1.461  0.0196  0.3314  0.1019
  957TIP3    H124506   2.855   1.827   1.437 -0.9389  0.8330 -1.3464
  957TIP3    H224507   2.897   1.961   1.380  0.4394  1.3458  0.7532
  958TIP3   OH224508   3.146   6.250   1.138 -0.1578  0.0488  0.1236
  958TIP3    H124509   3.059   6.221   1.110 -0.6946  1.5012  0.1846
  958TIP3    H224510   3.135   6.343   1.156  1.2930  0.1345  0.6748
  959TIP3   OH224511   0.639   4.318   2.120 -0.2442 -0.0568 -0.3117
  959TIP3    H124512   0.720   4.266   2.127  0.0192  0.2910 -0.7085
  959TIP3    H224513   0.580   4.263   2.069 -0.6645 -0.7887  0.9259
  960TIP3   OH224514   6.237   5.465   1.381  0.0394 -0.3598  0.1860
  960TIP3    H124515   6.159   5.496   1.334  2.4353  2.1941 -2.5080
  960TIP3    H224516   6.205   5.446   1.469 -3.8888 -0.9593 -1.1442
  961TIP3   OH224517   0.082   5.046   2.745 -0.1092 -0.6121  0.4440
  961TIP3    H124518   0.136   5.005   2.678 -0.2217 -0.1657  0.0775
  961TIP3    H224519   0.127   5.128   2.765 -0.9542  0.0452 -0.2867
  962TIP3   OH224520   2.338   6.359   1.466  0.0787 -0.5918 -0.1925
  962TIP3    H124521   2.388   6.425   1.419  0.9352 -0.0607  1.3928
  962TIP3    H224522   2.280   6.321   1.400 -0.6707  1.9343 -1.1121
  963TIP3   OH224523   4.503   0.836   0.569 -0.1364  0.3315  0.2801
  963TIP3    H124524   4.487   0.859   0.660  0.2020 -1.1861  0.7541
  963TIP3    H224525   4.588   0.791   0.570 -0.4782 -0.3769 -0.6579
  964TIP3   OH224526   3.571   0.281   1.525 -0.1720 -0.4904  0.2715
  964TIP3    H124527   3.496   0.340   1.536 -1.8631 -2.3095 -0.8625
  964TIP3    H224528   3.604   0.267   1.614 -1.2534  0.2462  0.8085
  965TIP3   OH224529   6.812   2.098   2.275 -0.5255  0.6356 -0.2955
  965TIP3    H124530   6.787   2.007   2.291  0.1459  0.4426 -0.3123
  965TIP3    H224531   6.866   2.121   2.350  0.1360  0.6925 -0.7761
  966TIP3   OH224532   1.006   4.792   0.921 -0.4167  0.1081 -0.1462
  966TIP3    H124533   0.929   4.821   0.969  0.7011  0.1225  1.7483
  966TIP3    H224534   1.029   4.708   0.961  1.8883  1.1926  0.9967
  967TIP3   OH224535   0.535   4.070   8.338  0.0625 -0.0157 -0.9083
  967TIP3    H124536   0.545   4.095   8.247  1.4425 -1.7192 -1.2819
  967TIP3    H224537   0.450   4.026   8.342  0.5266 -1.0072 -1.6563
  968TIP3   OH224538   4.917   5.339   1.349 -0.3725  0.1220 -0.2526
  968TIP3    H124539   4.852   5.287   1.301 -1.1947  1.4624 -0.6574
  968TIP3    H224540   4.950   5.279   1.416  1.0363 -1.9280 -2.5962
  969TIP3   OH224541   6.795   1.299   8.030 -0.2277 -0.0675 -0.1574
  969TIP3    H124542   6.711   1.345   8.038 -0.3569 -0.3511  0.1717
  969TIP3    H224543   6.774   1.220   7.980 -0.6227 -1.2429  1.7605
  970TIP3   OH224544   1.470   3.053   3.501  0.3508  0.4071  0.3254
  970TIP3    H124545   1.558   3.015   3.499  0.6101  0.9389  1.2132
  970TIP3    H224546   1.443   3.055   3.409  1.2865  0.2738  0.0387
  971TIP3   OH224547   1.850   1.437   8.469  0.0174  0.6362  0.3279
  971TIP3    H124548   1.789   1.384   8.521  0.4196 -1.0395 -0.8276
  971TIP3    H224549   1.799   1.463   8.392  0.2159  0.8011  0.2513
  972TIP3   OH224550   6.436   1.055   1.854  0.4333 -0.1947 -0.9587
  972TIP3    H124551   6.525   1.080   1.829 -0.1905  3.8176  0.0211
  972TIP3    H224552   6.441   1.033   1.946  0.5963 -1.4086 -1.2454
  973TIP3   OH224553   2.846   5.927   0.902 -0.3997 -0.2562  0.6059
  973TIP3    H124554   2.828   5.927   0.996 -1.5167  0.3974  0.4024
  973TIP3    H224555   2.793   5.855   0.868  1.5990 -1.9042  0.7211
  974TIP3   OH224556   4.393   1.896   1.445 -0.3544  0.1201 -0.4148
  974TIP3    H124557   4.390   1.803   1.466  2.1622  0.3107  1.2605
  974TIP3    H224558   4.486   1.914   1.430 -0.7689  2.3652 -0.6580
  975TIP3   OH224559   5.561   6.806   8.656  0.0181 -0.0987 -0.1358
  975TIP3    H124560   5.478   6.849   8.635 -0.8971 -0.5476  2.2092
  975TIP3    H224561   5.603   6.864   8.719  0.5168 -0.8145  0.2119
  976TIP3   OH224562   0.320   6.660   0.402 -0.2578  0.4309 -0.2607
  976TIP3    H124563   0.269   6.719   0.457 -1.6662  0.0476 -1.1089
  976TIP3    H224564   0.410   6.667   0.436 -1.0225  0.3333  1.9328
  977TIP3   OH224565   2.884   0.952   2.113 -0.4323  0.3052 -0.4305
  977TIP3    H124566   2.910   1.011   2.183  0.3756  0.3789 -0.7831
  977TIP3    H224567   2.802   0.988   2.080  0.3470  1.6060 -1.0507
  978TIP3   OH224568   1.819   2.481   1.355 -0.1025  0.7458 -0.4354
  978TIP3    H124569   1.862   2.426   1.289 -0.0962  0.7520 -0.4363
  978TIP3    H224570   1.741   2.515   1.310 -0.1172  0.7215 -0.4284
  979TIP3   OH224571   6.756   6.223   1.563 -0.0135 -0.3375  0.5024
  979TIP3    H124572   6.734   6.143   1.513  0.7233  0.1530 -0.6551
  979TIP3    H224573   6.673   6.270   1.569 -0.6802 -1.6476  2.0911
  980TIP3   OH224574   1.410   1.827   2.596 -0.4071 -0.3920  0.2736
  980TIP3    H124575   1.353   1.893   2.636 -2.2532 -1.2585 -0.7823
  980TIP3    H224576   1.416   1.853   2.504 -0.9144 -1.5100 -0.0899
  981TIP3   OH224577   5.017   4.327   1.555 -0.1573  0.2669  0.0350
  981TIP3    H124578   5.076   4.274   1.607 -0.6721 -0.5162 -0.1681
  981TIP3    H224579   4.968   4.379   1.619  0.1883  0.3424  0.2414
  982TIP3   OH224580   0.755   3.716   3.004 -0.6144 -0.1011  0.5326
  982TIP3    H124581   0.726   3.796   2.959  0.6903 -0.6282 -1.4238
  982TIP3    H224582   0.678   3.660   3.007 -0.4190 -0.8707 -3.1369
  983TIP3   OH224583   6.646   5.454   1.587  0.5418 -0.9744 -0.0732
  983TIP3    H124584   6.629   5.365   1.557 -0.1007 -1.2221  0.9724
  983TIP3    H224585   6.707   5.442   1.660  1.9662 -0.4000 -1.1187
  984TIP3   OH224586   6.634   5.997   8.623  0.3280  0.6392  0.4392
  984TIP3    H124587   6.690   5.952   8.686  1.2643  1.3854  0.1816
  984TIP3    H224588   6.556   5.942   8.614  0.6898 -0.0359  1.3906
  985TIP3   OH224589   6.145   6.714   0.089 -0.4571  0.5781  0.3215
  985TIP3    H124590   6.211   6.773   0.124  1.2649  0.0413 -1.7649
  985TIP3    H224591   6.185   6.678   0.009 -3.1116 -0.1303 -0.8079
  986TIP3   OH224592   1.074   2.575   1.519  0.0686 -0.1761  0.0511
  986TIP3    H124593   1.058   2.599   1.428  2.2925 -1.5240 -0.7836
  986TIP3    H224594   1.001   2.516   1.542 -0.0248 -0.5427 -1.1597
  987TIP3   OH224595   4.084   3.678   2.462 -0.7569  0.3885 -0.3059
  987TIP3    H124596   4.161   3.640   2.420 -0.0188  0.4915  0.9076
  987TIP3    H224597   4.119   3.747   2.519 -1.3677 -1.6404  2.7125
  988TIP3   OH224598   5.961   2.268   2.150 -0.0697  0.1678 -0.4274
  988TIP3    H124599   5.919   2.202   2.204  0.5202  0.2718  0.1741
  988TIP3    H224600   5.892   2.300   2.093 -0.6245 -0.1737  0.0430
  989TIP3   OH224601   1.236   1.913   0.269  0.0092  0.0300  0.5433
  989TIP3    H124602   1.175   1.844   0.294  0.6468 -0.4576  0.7659
  989TIP3    H224603   1.320   1.869   0.261  0.5339  0.8743  1.2305
  990TIP3   OH224604   0.687   3.027   8.545 -0.0410  0.2899  0.1251
  990TIP3    H124605   0.640   2.947   8.567  1.1405 -0.5229 -0.1958
  990TIP3    H224606   0.646   3.095   8.598 -2.6938 -0.0101 -1.3708
  991TIP3   OH224607   0.996   6.091   1.266 -0.3172 -0.0584  0.6200
  991TIP3    H124608   1.077   6.137   1.244  0.5651 -1.4084  0.9195
  991TIP3    H224609   0.937   6.109   1.193  0.3493  0.6993  0.2573
  992TIP3   OH224610   2.675   1.066   0.579  0.1435 -0.0844 -0.5768
  992TIP3    H124611   2.771   1.057   0.582  0.1445 -0.2045 -0.9030
  992TIP3    H224612   2.648   1.008   0.507 -0.1536  0.1276 -0.6370
  993TIP3   OH224613   2.401   3.096   8.657  0.1245  0.1919 -0.4852
  993TIP3    H124614   2.410   3.118   8.750  0.9416  1.4707 -0.8452
  993TIP3    H224615   2.310   3.069   8.648  1.0504 -4.5735  1.5616
  994TIP3   OH224616   1.394   1.114   8.678  1.1200 -0.2866  0.6288
  994TIP3    H124617   1.326   1.050   8.697  1.1425 -0.4538  0.1475
  994TIP3    H224618   1.444   1.120   8.759  1.2230 -1.0060  0.6224
  995TIP3   OH224619   3.777   4.420   8.045  0.4489  0.1677 -0.2541
  995TIP3    H124620   3.682   4.420   8.037  0.4889 -1.0557 -0.8395
  995TIP3    H224621   3.798   4.510   8.073 -0.6500  1.2727 -2.7011
  996TIP3   OH224622   1.677   4.521   8.747 -0.4143  0.1978  0.7841
  996TIP3    H124623   1.706   4.511   8.656  1.3501  1.4577  1.1724
  996TIP3    H224624   1.585   4.493   8.745  0.1230 -1.6604 -0.9728
  997TIP3   OH224625   6.550   6.531   0.836 -1.1003 -0.2803 -0.1745
  997TIP3    H124626   6.510   6.446   0.851 -2.3899  0.3658  0.1785
  997TIP3    H224627   6.592   6.553   0.920 -3.5418  0.8358  0.8549
  998TIP3   OH224628   5.729   2.973   0.460 -0.0612  0.6877  0.0191
  998TIP3    H124629   5.786   3.050   0.457  1.5191 -0.3594  1.1302
  998TIP3    H224630   5.723   2.951   0.553 -1.1697 -0.0487 -0.2025
  999TIP3   OH224631   4.516   0.647   2.463  0.4623  0.3668  0.1564
  999TIP3    H124632   4.467   0.659   2.382 -0.4625 -0.9161  0.4973
  999TIP3    H224633   4.451   0.659   2.532  1.7963  4.6571  0.9714
 1000TIP3   OH224634   0.854   6.277   2.711 -0.0566 -0.0277  0.0547
 1000TIP3    H124635   0.870   6.337   2.783  1.1386 -0.2751  0.0063
 1000TIP3    H224636   0.917   6.206   2.724 -0.2104 -0.3566 -0.9141
 1001TIP3   OH224637   2.800   0.714   2.207  0.3969 -0.3613 -0.5252
 1001TIP3    H124638   2.848   0.791   2.177 -1.0001  0.2157 -1.3543
 1001TIP3    H224639   2.855   0.640   2.180  1.0905  0.2912 -0.9574
 1002TIP3   OH224640   4.919   5.491   7.795  1.2456 -0.1049 -0.2258
 1002TIP3    H124641   4.904   5.535   7.879  0.1214 -0.3114 -0.3101
 1002TIP3    H224642   4.884   5.552   7.729 -1.1787 -1.4496 -0.2912
 1003TIP3   OH224643   4.786   1.696   8.613  0.0184  0.1882  0.2765
 1003TIP3    H124644   4.764   1.603   8.600  0.6653 -0.1259  1.3451
 1003TIP3    H224645   4.873   1.695   8.653  0.2034  1.2820 -0.0684
 1004TIP3   OH224646   5.310   3.734   1.059 -0.3312 -0.1324  0.3874
 1004TIP3    H124647   5.226   3.762   1.096 -0.3612  0.7967 -0.3276
 1004TIP3    H224648   5.375   3.764   1.122 -0.4815 -0.0890  0.5239
 1005TIP3   OH224649   3.976   1.712   7.610  0.4964  0.0020  0.3979
 1005TIP3    H124650   3.985   1.643   7.677 -0.0548 -0.1895  0.2806
 1005TIP3    H224651   3.899   1.686   7.560  2.1416 -1.0499 -1.7223
 1006TIP3   OH224652   3.204   1.795   3.065  0.1910 -0.4674  0.0008
 1006TIP3    H124653   3.277   1.838   3.019 -0.3704 -0.8871 -1.3332
 1006TIP3    H224654   3.149   1.868   3.095  1.3604 -0.1206  1.4540
 1007TIP3   OH224655   2.576   0.033   7.719 -0.2412 -0.1557  0.0060
 1007TIP3    H124656   2.637   0.050   7.647 -1.9519 -0.5423 -1.6419
 1007TIP3    H224657   2.598  -0.055   7.749  0.3072 -0.1107 -0.2593
 1008TIP3   OH224658   3.289   6.498   0.865 -0.3516  0.0473 -0.2647
 1008TIP3    H124659   3.329   6.583   0.849 -2.3234  0.9829 -0.5450
 1008TIP3    H224660   3.196   6.518   0.879 -1.1138 -2.1839 -1.6846
 1009TIP3   OH224661   6.544   5.269   0.319  0.3843  0.2519 -0.1520
 1009TIP3    H124662   6.498   5.228   0.246  0.6131 -3.0375  1.3460
 1009TIP3    H224663   6.486   5.256   0.394  0.9624  1.8662  0.6108
 1010TIP3   OH224664   3.966   0.136   2.064 -0.1577 -0.1073  0.0334
 1010TIP3    H124665   3.931   0.150   1.976  1.5763  1.6824 -0.4460
 1010TIP3    H224666   4.019   0.056   2.056  3.2332  2.0953 -1.7448
 1011TIP3   OH224667   4.647   2.965   1.017  0.0383  0.2192 -0.2064
 1011TIP3    H124668   4.567   2.915   1.034 -1.3549  2.2364 -0.4441
 1011TIP3    H224669   4.685   2.981   1.103 -1.7457  2.1470  0.3212
 1012TIP3   OH224670   3.051   0.712   0.170 -0.0363 -0.4380 -0.3273
 1012TIP3    H124671   3.014   0.783   0.118 -1.4302 -0.1217  1.0173
 1012TIP3    H224672   3.111   0.666   0.110 -1.3776  0.0402 -2.1047
 1013TIP3   OH224673   3.885   3.424   3.185 -0.2551 -0.1801  0.6824
 1013TIP3    H124674   3.926   3.351   3.140 -0.4359 -0.1434  0.4559
 1013TIP3    H224675   3.798   3.391   3.209 -0.7726  0.3257 -0.4240
 1014TIP3   OH224676   3.386   4.739   1.053  0.2289  0.5201 -0.4332
 1014TIP3    H124677   3.440   4.767   1.126  1.2709 -0.2686 -0.8675
 1014TIP3    H224678   3.377   4.644   1.065 -1.4964  0.7093 -0.0985
 1015TIP3   OH224679   1.496   5.223   1.535 -0.1750  0.1067 -0.0496
 1015TIP3    H124680   1.590   5.220   1.553 -0.0690 -0.5988 -0.6508
 1015TIP3    H224681   1.485   5.295   1.474  0.0619 -0.1789 -0.4318
 1016TIP3   OH224682   6.346   2.370   0.029 -0.4706 -0.3356 -0.2305
 1016TIP3    H124683   6.308   2.453   0.058  0.5886  0.1898 -0.2943
 1016TIP3    H224684   6.398   2.393  -0.048  0.5421 -0.8981  0.2660
 1017TIP3   OH224685   5.718   5.285   1.116  0.0860  0.0533 -0.2483
 1017TIP3    H124686   5.681   5.297   1.204  0.7236  1.3577 -0.1391
 1017TIP3    H224687   5.649   5.241   1.067 -0.3610 -0.5099  0.8494
 1018TIP3   OH224688   5.573   0.930   3.159  0.0968  0.0201 -0.0509
 1018TIP3    H124689   5.627   0.853   3.140 -1.0845 -0.5117 -1.4198
 1018TIP3    H224690   5.630   1.005   3.141  0.8316 -0.5202 -0.0231
 1019TIP3   OH224691   4.597   3.924   7.810  0.9157 -0.4231 -0.6512
 1019TIP3    H124692   4.569   3.841   7.849  0.8460 -0.7633 -1.4041
 1019TIP3    H224693   4.671   3.901   7.755  1.1540  0.0864 -0.5462
 1020TIP3   OH224694   2.652   2.952   2.846 -0.1484  0.3302 -0.3357
 1020TIP3    H124695   2.711   3.027   2.840 -0.3861  0.5441 -0.0432
 1020TIP3    H224696   2.591   2.975   2.916  1.6258 -1.3734  1.9317
 1021TIP3   OH224697   3.693   3.535   6.847  0.2053 -0.1348  0.0233
 1021TIP3    H124698   3.700   3.630   6.854  0.8836 -0.1930  0.2697
 1021TIP3    H224699   3.657   3.507   6.932  0.3284 -0.1233  0.0800
 1022TIP3   OH224700   2.320   3.813   1.485 -0.2083 -0.2021  0.1604
 1022TIP3    H124701   2.382   3.884   1.494 -1.3316  0.7961  0.2915
 1022TIP3    H224702   2.368   3.744   1.439  0.1761  1.5887 -2.2744
 1023TIP3   OH224703   4.674   5.518   1.584 -0.7765  0.0719 -0.7263
 1023TIP3    H124704   4.647   5.449   1.646  0.0331  0.0722 -0.3624
 1023TIP3    H224705   4.733   5.573   1.635  0.7446 -0.5256 -1.7980
 1024TIP3   OH224706   5.068   3.302   7.321 -1.1633  0.1535  0.4639
 1024TIP3    H124707   5.063   3.208   7.339 -1.2934  0.0155 -0.2698
 1024TIP3    H224708   5.150   3.314   7.274 -1.6711  0.2369 -0.4150
 1025TIP3   OH224709   5.026   2.412   7.450  0.0343 -0.3293 -0.6141
 1025TIP3    H124710   5.080   2.491   7.460  1.1955 -1.2479  0.9113
 1025TIP3    H224711   5.089   2.341   7.440 -0.8847 -1.3536  0.5145
 1026TIP3   OH224712   2.373   5.937   7.766  0.1981 -0.4010  0.1982
 1026TIP3    H124713   2.299   5.877   7.767  0.4808 -0.7564  0.0863
 1026TIP3    H224714   2.334   6.024   7.767 -0.2307 -0.5081  3.4719
 1027TIP3   OH224715   5.497   1.030   7.880  0.3371  0.0423 -0.0108
 1027TIP3    H124716   5.437   1.056   7.811 -0.0240 -2.5200 -0.7943
 1027TIP3    H224717   5.575   0.998   7.834 -0.6089 -3.4650  0.4755
 1028TIP3   OH224718   4.679   1.367   3.257 -0.0846 -0.2477  0.4433
 1028TIP3    H124719   4.634   1.448   3.233  0.6417  0.2751  0.8172
 1028TIP3    H224720   4.771   1.391   3.260  0.4093 -1.6257 -1.6422
 1029TIP3   OH224721   5.172   0.536   1.363  0.0303  0.1785  0.1115
 1029TIP3    H124722   5.111   0.501   1.427 -0.6449  0.4643 -0.3600
 1029TIP3    H224723   5.116   0.573   1.294  0.7365  0.0791 -0.5312
 1030TIP3   OH224724   6.676   4.644   8.520  0.3975 -0.1165  0.3353
 1030TIP3    H124725   6.699   4.715   8.580 -1.1273 -0.5620  1.5141
 1030TIP3    H224726   6.741   4.576   8.536  0.2560 -0.0559  1.1957
 1031TIP3   OH224727   2.933   1.152   0.465  0.2402  0.0317 -0.7175
 1031TIP3    H124728   2.917   1.204   0.544 -0.2136 -1.4192  0.1749
 1031TIP3    H224729   2.879   1.194   0.398  1.1466  1.6990 -0.4910
 1032TIP3   OH224730   2.219   6.762   0.282 -0.4888  0.3991  0.2770
 1032TIP3    H124731   2.255   6.677   0.307 -2.1192 -0.8517 -1.3725
 1032TIP3    H224732   2.283   6.797   0.220 -1.3254 -1.1539 -1.5439
 1033TIP3   OH224733   4.035   1.893   8.696 -0.1289 -0.0414 -0.0411
 1033TIP3    H124734   3.980   1.899   8.773 -0.6071 -0.6805 -0.3257
 1033TIP3    H224735   3.979   1.855   8.629 -0.0424  1.4461 -1.0183
 1034TIP3   OH224736   2.491   2.215   3.155 -0.2003  0.0601 -0.4526
 1034TIP3    H124737   2.582   2.242   3.167  0.4205 -1.9429 -0.2647
 1034TIP3    H224738   2.441   2.276   3.209  0.9483  1.5126 -0.9484
 1035TIP3   OH224739   5.405   6.297   1.345 -0.6284 -0.7449 -0.0302
 1035TIP3    H124740   5.347   6.369   1.368  0.7720  1.3426 -2.4838
 1035TIP3    H224741   5.493   6.330   1.366  0.0204 -1.8200 -0.9430
 1036TIP3   OH224742   2.926   0.618   1.324  0.5288  0.0076 -0.6998
 1036TIP3    H124743   2.921   0.699   1.373  1.9049 -0.9445  1.1154
 1036TIP3    H224744   2.834   0.594   1.308  0.0733  0.8369  0.5465
 1037TIP3   OH224745   1.690   5.718   1.600 -0.4205  0.1152  0.0747
 1037TIP3    H124746   1.660   5.786   1.540 -0.1553 -0.2973 -0.5377
 1037TIP3    H224747   1.627   5.647   1.591 -0.4344  0.0865  0.3630
 1038TIP3   OH224748   0.758   2.282   8.674  0.6883 -0.3795  0.2106
 1038TIP3    H124749   0.668   2.250   8.684  0.4191  0.3045  0.0325
 1038TIP3    H224750   0.769   2.295   8.580  0.4334  1.0398  0.3636
 1039TIP3   OH224751   0.007   2.584   7.425 -0.1913  0.4256 -0.2311
 1039TIP3    H124752  -0.052   2.592   7.499 -0.4852 -0.5904 -0.3308
 1039TIP3    H224753   0.093   2.568   7.464 -0.2424  0.4754 -0.0990
 1040TIP3   OH224754   1.157   0.005   1.831 -0.3201  0.0811 -0.3470
 1040TIP3    H124755   1.176   0.077   1.891  0.8203 -0.3986 -0.1137
 1040TIP3    H224756   1.129   0.048   1.750  0.8075  0.8072 -0.3642
 1041TIP3   OH224757   6.683   6.696   2.959  0.2797  0.3347 -0.2806
 1041TIP3    H124758   6.612   6.650   2.915  1.2198  0.1407 -1.6634
 1041TIP3    H224759   6.652   6.708   3.049 -0.3485 -2.2068 -0.0790
 1042TIP3   OH224760   0.215   1.387   0.446  0.1241 -0.5645  0.2808
 1042TIP3    H124761   0.208   1.321   0.515  3.1815 -0.8511  0.4270
 1042TIP3    H224762   0.226   1.469   0.492 -3.3460  0.1737  0.0889
 1043TIP3   OH224763   1.311   4.877   7.950  0.0733  0.8203  0.1012
 1043TIP3    H124764   1.277   4.949   8.004 -1.4435 -1.4998  2.4835
 1043TIP3    H224765   1.385   4.842   8.001  1.3273  1.1343 -1.4274
 1044TIP3   OH224766   1.006   6.334   0.363  0.2113  0.0956  0.0460
 1044TIP3    H124767   1.013   6.354   0.456 -0.0046  0.8431 -0.0856
 1044TIP3    H224768   1.047   6.248   0.353 -0.6906 -0.4687  0.9889
 1045TIP3   OH224769   1.090   4.989   1.545 -0.7617  0.3094  0.2608
 1045TIP3    H124770   1.077   4.915   1.604 -1.4649  0.9263  0.8903
 1045TIP3    H224771   1.012   4.991   1.490 -0.7339  0.5673  0.2280
 1046TIP3   OH224772   6.680   5.182   2.872  0.6966  0.0200 -0.2094
 1046TIP3    H124773   6.719   5.119   2.812 -0.7687  0.4774 -1.6953
 1046TIP3    H224774   6.748   5.249   2.884  0.5762  0.6120 -2.4327
 1047TIP3   OH224775   2.541   5.835   2.957 -0.0824 -0.2296 -0.3841
 1047TIP3    H124776   2.464   5.887   2.936 -0.1723 -0.2699 -0.1561
 1047TIP3    H224777   2.611   5.899   2.968 -0.3761 -0.0803  0.7393
 1048TIP3   OH224778   3.989   4.199   7.597  0.4728 -0.1570 -0.0500
 1048TIP3    H124779   3.945   4.207   7.682  0.7372  0.2850  0.0493
 1048TIP3    H224780   3.964   4.278   7.549  0.7099 -0.1707 -0.1988
 1049TIP3   OH224781   4.529   1.022   1.552  0.7045 -0.3467 -0.0625
 1049TIP3    H124782   4.608   1.076   1.549  0.0823  0.6898  0.9391
 1049TIP3    H224783   4.559   0.936   1.580  1.2188  0.7829  3.3336
 1050TIP3   OH224784   0.616   0.374   0.306  0.2346 -0.1062 -0.0912
 1050TIP3    H124785   0.675   0.440   0.271 -0.4592  0.0895 -0.9536
 1050TIP3    H224786   0.541   0.375   0.246  0.0017 -1.3455  0.1467
 1051TIP3   OH224787   3.688   5.454   8.402  0.2754  0.0922 -0.3954
 1051TIP3    H124788   3.640   5.482   8.479  1.0924  1.6465 -0.4076
 1051TIP3    H224789   3.692   5.532   8.346 -0.5877 -1.0732 -2.1858
 1052TIP3   OH224790   0.859   0.651   1.164 -0.0980  0.3669 -0.6668
 1052TIP3    H124791   0.841   0.704   1.086 -0.2898 -0.3354 -1.1045
 1052TIP3    H224792   0.902   0.572   1.130 -1.2294 -0.4792 -0.2013
 1053TIP3   OH224793   5.236   6.618   3.082  0.0906  0.4712  0.2328
 1053TIP3    H124794   5.311   6.558   3.088  1.0939  1.6287 -0.1689
 1053TIP3    H224795   5.162   6.567   3.113  0.4099 -1.8058 -2.3521
 1054TIP3   OH224796   0.849   5.208   1.420  0.3124  0.0460 -0.5311
 1054TIP3    H124797   0.772   5.171   1.461  1.0376  0.0261  0.8630
 1054TIP3    H224798   0.840   5.303   1.431  1.1726 -0.0081  1.0123
 1055TIP3   OH224799   3.613   1.306   8.197 -0.3333  0.5947  0.1955
 1055TIP3    H124800   3.627   1.223   8.241 -0.5691  0.3005 -0.2755
 1055TIP3    H224801   3.564   1.284   8.118  0.1828  1.0977 -0.2781
 1056TIP3   OH224802   3.835   0.856   1.889 -0.5598  0.2946  0.2630
 1056TIP3    H124803   3.752   0.812   1.869 -0.2119 -0.2751  0.0557
 1056TIP3    H224804   3.889   0.788   1.929 -0.6847  1.0258  1.7319
 1057TIP3   OH224805   6.625   0.626   8.452 -0.4920 -0.3080  0.3681
 1057TIP3    H124806   6.547   0.661   8.494 -0.6678 -1.8790  1.4535
 1057TIP3    H224807   6.594   0.590   8.369 -0.6982  0.1452  0.2505
 1058TIP3   OH224808   6.789   1.058   0.617  0.5236 -0.2150  0.4145
 1058TIP3    H124809   6.742   1.129   0.575  0.0169 -1.4156 -1.1528
 1058TIP3    H224810   6.754   1.056   0.707 -3.4140 -1.7546 -0.9400
 1059TIP3   OH224811   6.538   4.867   8.382 -0.4313 -0.0961  0.3595
 1059TIP3    H124812   6.570   4.783   8.416 -1.2447  0.4121  2.5469
 1059TIP3    H224813   6.588   4.881   8.301 -0.6258 -2.8950 -0.3290
 1060TIP3   OH224814   1.888   3.906   0.916 -0.1231  0.2037  0.1407
 1060TIP3    H124815   1.869   3.940   0.828  1.2305 -1.1469 -0.7200
 1060TIP3    H224816   1.974   3.942   0.938  0.4429 -1.0465  0.0372
 1061TIP3   OH224817   3.024   4.995   7.873 -0.4022 -0.8449 -0.5458
 1061TIP3    H124818   2.961   4.938   7.830 -0.8677 -0.6066 -0.1895
 1061TIP3    H224819   2.984   5.082   7.870 -0.9630 -1.0095  1.3427
 1062TIP3   OH224820   3.317   0.514   0.518  0.3293  0.9853 -0.1890
 1062TIP3    H124821   3.285   0.424   0.520  0.6636  0.8724  0.5940
 1062TIP3    H224822   3.386   0.513   0.452  0.1602  0.7264 -0.3653
 1063TIP3   OH224823   1.212   5.497   2.034  0.1688 -0.0095  0.2625
 1063TIP3    H124824   1.259   5.490   2.116  1.5748  0.9498 -0.4339
 1063TIP3    H224825   1.215   5.409   1.997  0.6075 -0.1581  0.6479
 1064TIP3   OH224826   5.383   0.511   1.885  0.4661 -0.4498 -0.1797
 1064TIP3    H124827   5.292   0.484   1.872  0.2149  0.0487  0.4816
 1064TIP3    H224828   5.381   0.559   1.968  1.5748 -1.6558  0.5913
 1065TIP3   OH224829   1.403   3.843   7.730 -1.0462  0.2147 -0.1747
 1065TIP3    H124830   1.348   3.889   7.666 -0.1122  0.5787 -0.7386
 1065TIP3    H224831   1.346   3.832   7.806 -2.8016 -1.8685 -1.6627
 1066TIP3   OH224832   1.645   1.080   2.914 -0.3952  0.2701  0.1706
 1066TIP3    H124833   1.653   0.987   2.935 -0.2614  0.5779  1.5456
 1066TIP3    H224834   1.619   1.081   2.822 -2.0212 -1.1720  0.5525
 1067TIP3   OH224835   4.781   4.881   0.468  0.1839 -0.3869 -0.4000
 1067TIP3    H124836   4.737   4.798   0.449  0.2123  0.1524 -3.1271
 1067TIP3    H224837   4.870   4.869   0.436 -0.0941  1.0035 -1.8163
 1068TIP3   OH224838   5.971   5.627   8.538 -0.8265 -0.3046 -0.2776
 1068TIP3    H124839   5.910   5.692   8.571 -0.0277 -0.7821  2.4004
 1068TIP3    H224840   6.052   5.643   8.587 -0.3406 -2.7116 -0.1628
 1069TIP3   OH224841   4.477   6.137   3.721  0.3970 -0.0759  0.0509
 1069TIP3    H124842   4.392   6.106   3.689 -0.1314 -0.1374  1.4475
 1069TIP3    H224843   4.488   6.223   3.680  1.0185 -1.2320 -2.4006
 1070TIP3   OH224844   4.352   4.989   1.996 -0.0848 -0.5736 -0.2496
 1070TIP3    H124845   4.344   5.084   1.992 -0.9482 -0.6557 -0.7588
 1070TIP3    H224846   4.320   4.959   1.911 -0.7331 -1.3735  0.2591
 1071TIP3   OH224847   1.854   4.721   2.024 -0.0472  0.2635 -0.0411
 1071TIP3    H124848   1.873   4.800   2.076 -0.4749 -0.1112  0.7027
 1071TIP3    H224849   1.759   4.710   2.032  0.0661 -0.5569  0.1889
 1072TIP3   OH224850   5.111   4.184   3.452 -0.0042 -0.1267 -0.3172
 1072TIP3    H124851   5.067   4.204   3.534 -0.4238 -1.4143 -0.2096
 1072TIP3    H224852   5.204   4.186   3.473 -0.1343 -2.0941  0.6161
 1073TIP3   OH224853   2.782   2.435   8.069  0.4465  0.0029  0.7179
 1073TIP3    H124854   2.743   2.355   8.104  2.0480 -0.9347  0.4537
 1073TIP3    H224855   2.811   2.412   7.981 -0.2333  1.2727  0.1384
 1074TIP3   OH224856   3.113   3.268   0.687  0.4633 -0.4436 -0.0918
 1074TIP3    H124857   3.163   3.280   0.607 -0.4734 -0.7881 -0.7538
 1074TIP3    H224858   3.095   3.357   0.719  1.7841 -0.3193  0.3691
 1075TIP3   OH224859   3.470   2.724   8.190 -0.0190  0.3821 -0.6784
 1075TIP3    H124860   3.400   2.660   8.174 -0.5308  1.0735 -1.3044
 1075TIP3    H224861   3.548   2.671   8.207 -0.6322 -0.4024 -0.2524
 1076TIP3   OH224862   1.945   0.257   2.229 -0.3220 -0.2473 -0.0679
 1076TIP3    H124863   1.853   0.239   2.248 -0.9554  0.4198 -2.2430
 1076TIP3    H224864   1.978   0.175   2.191 -0.6533  0.1981 -1.3505
 1077TIP3   OH224865   3.226   3.605   1.224  0.2406  0.6412 -0.1114
 1077TIP3    H124866   3.222   3.666   1.297  0.1519  0.4162  0.0737
 1077TIP3    H224867   3.176   3.647   1.154 -0.0912  0.6358  0.1215
 1078TIP3   OH224868   3.849   2.546   2.077 -0.2645 -0.3893 -0.1290
 1078TIP3    H124869   3.788   2.473   2.062 -0.6300  0.0222 -0.6686
 1078TIP3    H224870   3.797   2.613   2.121 -0.1905 -0.0656 -0.5255
 1079TIP3   OH224871   5.148   1.366   2.237  0.3280 -0.6416  0.0597
 1079TIP3    H124872   5.128   1.429   2.167 -1.0855 -0.5594  0.4983
 1079TIP3    H224873   5.243   1.368   2.245  0.6351 -1.3844 -2.5270
 1080TIP3   OH224874   2.582   5.577   2.904 -0.3111  0.1724 -0.0611
 1080TIP3    H124875   2.612   5.529   2.981  1.1076 -0.7569 -1.1446
 1080TIP3    H224876   2.552   5.661   2.938  2.4511  0.7106  1.2609
 1081TIP3   OH224877   5.341   3.114   1.972  0.4038  0.1839 -0.1283
 1081TIP3    H124878   5.421   3.066   1.995 -0.4562 -1.0223  0.3969
 1081TIP3    H224879   5.342   3.190   2.031  1.7993  0.8937 -1.0031
 1082TIP3   OH224880   0.998   1.897   1.397  0.2438 -0.5728  0.2606
 1082TIP3    H124881   0.986   1.826   1.461 -0.8401 -0.4773  0.1703
 1082TIP3    H224882   1.046   1.856   1.325  1.6027 -0.6569  1.1582
 1083TIP3   OH224883   6.522   4.047   0.983  0.3987 -0.6060  0.0640
 1083TIP3    H124884   6.607   4.044   1.027 -0.0101 -2.3556  0.8126
 1083TIP3    H224885   6.541   4.029   0.891  0.8092 -1.5068  0.3115
 1084TIP3   OH224886   6.758   3.919   1.375 -0.3002 -0.4297 -0.3595
 1084TIP3    H124887   6.789   3.929   1.465 -1.8832 -0.8653  0.2534
 1084TIP3    H224888   6.685   3.980   1.368 -1.3881 -1.7440 -0.7571
 1085TIP3   OH224889   3.924   0.382   2.225 -0.3763 -0.0049  0.1583
 1085TIP3    H124890   3.847   0.437   2.208 -0.2920 -0.6663 -2.9562
 1085TIP3    H224891   3.916   0.309   2.162  2.2141 -0.6992  0.5153
 1086TIP3   OH224892   2.796   1.518   2.073  0.4448 -0.6364 -0.0622
 1086TIP3    H124893   2.881   1.494   2.112  0.7678 -0.0663 -0.4106
 1086TIP3    H224894   2.740   1.442   2.091  1.5679 -1.8791 -1.5116
 1087TIP3   OH224895   2.166   4.901   0.283 -0.4256 -0.1015  0.0352
 1087TIP3    H124896   2.156   4.994   0.264 -0.0508 -0.0612  0.0261
 1087TIP3    H224897   2.128   4.890   0.370 -3.1596 -0.4909 -1.1126
 1088TIP3   OH224898   6.524   1.305   1.232 -0.5938 -0.8836 -0.1063
 1088TIP3    H124899   6.596   1.367   1.246 -1.3133  0.0214 -0.2873
 1088TIP3    H224900   6.468   1.348   1.168 -0.9172 -1.9110 -0.5315
 1089TIP3   OH224901   2.472   3.999   1.155  0.1188 -0.0962  0.2063
 1089TIP3    H124902   2.559   4.002   1.115 -0.8496 -0.1027 -2.0692
 1089TIP3    H224903   2.488   3.977   1.246  2.4997 -0.0141 -0.1325
 1090TIP3   OH224904   1.529   2.337   0.332  0.5806  0.4132 -0.0755
 1090TIP3    H124905   1.501   2.293   0.252 -1.9095  2.9434 -0.7619
 1090TIP3    H224906   1.475   2.298   0.401  2.1605 -1.2097  0.2939
 1091TIP3   OH224907   5.467   3.501   2.822 -0.1775  0.0675 -0.2600
 1091TIP3    H124908   5.517   3.582   2.813  1.3315 -0.7380  0.4582
 1091TIP3    H224909   5.525   3.443   2.871 -0.6971 -1.8943 -1.8443
 1092TIP3   OH224910   2.177   6.621   0.591 -0.1162 -0.6196  0.0770
 1092TIP3    H124911   2.202   6.538   0.630 -1.0344 -0.7421  0.4397
 1092TIP3    H224912   2.244   6.683   0.621  2.4728 -1.7846 -2.8136
 1093TIP3   OH224913   3.056   4.240   2.279 -0.3733 -0.5442  0.1887
 1093TIP3    H124914   3.088   4.151   2.294 -0.3669 -0.6601 -0.5021
 1093TIP3    H224915   3.130   4.296   2.303 -1.1391 -0.5707  2.9861
 1094TIP3   OH224916   4.761   0.688   3.262 -0.5804  0.3291 -0.1732
 1094TIP3    H124917   4.678   0.643   3.245  0.5786 -1.8300 -0.3602
 1094TIP3    H224918   4.798   0.704   3.175 -0.5796  0.8983 -0.0738
 1095TIP3   OH224919   1.073   0.028   8.094 -0.3891  0.7962  0.1013
 1095TIP3    H124920   1.035  -0.042   8.147  0.2111  0.2694 -0.1495
 1095TIP3    H224921   1.054   0.003   8.004  1.7215 -0.2304 -0.1244
 1096TIP3   OH224922   4.568   4.716   0.620 -0.4117 -0.7919  0.4636
 1096TIP3    H124923   4.604   4.658   0.553 -0.4533 -0.9449  0.5729
 1096TIP3    H224924   4.479   4.682   0.636 -0.8709  0.0086 -0.3156
 1097TIP3   OH224925   5.061   2.965   3.461 -0.3079 -0.2247 -0.5563
 1097TIP3    H124926   5.126   2.894   3.457  0.5566  0.5222 -0.1030
 1097TIP3    H224927   5.110   3.043   3.437 -0.8684  0.4637  0.4898
 1098TIP3   OH224928   6.023   3.711   3.665 -0.3554  0.1973  0.1627
 1098TIP3    H124929   6.061   3.792   3.630 -0.0237  0.3140  0.7739
 1098TIP3    H224930   5.945   3.697   3.612 -1.3643  1.8419  1.1426
 1099TIP3   OH224931   3.111   0.768   1.550  0.0292  0.6287  0.0089
 1099TIP3    H124932   3.079   0.791   1.637  0.1413  1.3622 -0.1358
 1099TIP3    H224933   3.034   0.775   1.494  0.2521  1.5623 -0.1930
 1100TIP3   OH224934   0.820   3.260   1.191  0.0449  0.2750 -0.0381
 1100TIP3    H124935   0.894   3.270   1.131 -0.2647 -1.6013 -0.7936
 1100TIP3    H224936   0.743   3.279   1.137 -0.2244 -1.2252 -0.2233
 1101TIP3   OH224937   0.175   5.265   1.016 -0.0412 -0.0709  0.2121
 1101TIP3    H124938   0.213   5.265   0.928 -1.8727 -0.1876 -0.6286
 1101TIP3    H224939   0.171   5.173   1.041  1.0155 -0.0011  0.6882
 1102TIP3   OH224940   0.737   5.898   2.344  0.7615 -0.4668  0.5394
 1102TIP3    H124941   0.710   5.941   2.263 -0.5324 -0.9083  0.7206
 1102TIP3    H224942   0.819   5.854   2.322  0.5373 -0.3913 -0.4707
 1103TIP3   OH224943   2.253   5.955   2.907  0.1047 -0.6008 -0.1901
 1103TIP3    H124944   2.173   6.009   2.903  0.2553 -0.3734 -0.1442
 1103TIP3    H224945   2.284   5.965   2.997 -0.0530 -1.0405 -0.0801
 1104TIP3   OH224946   3.452   3.016   8.670 -0.5500 -0.1588  0.3697
 1104TIP3    H124947   3.424   2.975   8.588 -0.5795 -0.8536  0.7160
 1104TIP3    H224948   3.373   3.057   8.704 -0.3390  0.9224 -0.3866
 1105TIP3   OH224949   2.269   3.178   1.169  0.3427  0.3198  0.2275
 1105TIP3    H124950   2.287   3.268   1.141 -0.1990 -0.2105 -2.0065
 1105TIP3    H224951   2.176   3.167   1.151  0.6166 -0.9866 -0.4491
 1106TIP3   OH224952   5.959   1.429   2.330  0.1381  0.1067  0.8574
 1106TIP3    H124953   5.986   1.343   2.361  1.6351  0.8753  1.7993
 1106TIP3    H224954   5.929   1.474   2.409 -1.6409  0.1409  0.2174
 1107TIP3   OH224955   1.446   2.537   3.048  0.4877  0.1522 -0.1519
 1107TIP3    H124956   1.528   2.501   3.014  0.9837  0.3038  0.8175
 1107TIP3    H224957   1.400   2.462   3.085 -0.0875 -0.0260 -1.1886
 1108TIP3   OH224958   5.252   0.671   7.811 -0.1299 -0.6037  0.2555
 1108TIP3    H124959   5.191   0.639   7.745  0.7133  1.2352 -1.5293
 1108TIP3    H224960   5.203   0.665   7.893 -2.1868 -0.5514 -0.8818
 1109TIP3   OH224961   1.263   2.737   2.054 -0.8021  0.3092  0.0762
 1109TIP3    H124962   1.347   2.775   2.030 -0.6863  0.7704  1.1696
 1109TIP3    H224963   1.256   2.658   2.000 -0.2872  0.9704 -0.9886
 1110TIP3   OH224964   2.541   2.433   3.363  0.2053  0.0799 -0.1621
 1110TIP3    H124965   2.573   2.511   3.408 -0.0988  0.5275 -0.7111
 1110TIP3    H224966   2.619   2.395   3.323  0.1341  0.9204 -1.1211
 1111TIP3   OH224967   2.293   3.920   1.872  0.3610 -0.9155 -0.4239
 1111TIP3    H124968   2.288   3.994   1.811 -0.2364  0.3459  1.0945
 1111TIP3    H224969   2.252   3.848   1.825  0.9159 -0.2949 -1.9301
 1112TIP3   OH224970   3.324   3.860   0.992  0.1702  0.9824  0.0841
 1112TIP3    H124971   3.301   3.823   0.908  0.2782 -2.2361  1.3353
 1112TIP3    H224972   3.420   3.858   0.995  0.1538  0.6221  0.4667
 1113TIP3   OH224973   2.422   5.916   0.148 -0.1776 -0.4565 -0.0185
 1113TIP3    H124974   2.517   5.916   0.159  0.2258 -1.6818 -2.7450
 1113TIP3    H224975   2.408   5.947   0.059 -2.4503  0.8621  0.7235
 1114TIP3   OH224976   3.461   2.894   2.413  0.3721  0.2769  0.2946
 1114TIP3    H124977   3.439   2.986   2.428 -1.5634 -0.4192  2.2794
 1114TIP3    H224978   3.388   2.861   2.359  0.1429 -0.4740  1.0501
 1115TIP3   OH224979   0.514   2.046   2.716 -0.0277 -0.5180  0.8247
 1115TIP3    H124980   0.445   2.009   2.770  0.1969 -3.3081 -0.6040
 1115TIP3    H224981   0.469   2.082   2.640 -0.0161 -1.9352  0.1093
 1116TIP3   OH224982   1.683   4.156   2.082  0.6306 -0.0908 -0.3410
 1116TIP3    H124983   1.707   4.226   2.020 -0.0097  0.3218 -0.1310
 1116TIP3    H224984   1.735   4.175   2.160 -0.3969  0.8501  0.1422
 1117TIP3   OH224985   0.782   6.443   0.009  0.2066 -0.5284 -0.6505
 1117TIP3    H124986   0.792   6.383   0.082 -0.2834 -0.2192 -0.3260
 1117TIP3    H224987   0.753   6.525   0.049  0.3367 -0.2363 -1.1461
 1118TIP3   OH224988   4.508   3.159   3.283 -0.0234 -0.0452  0.2242
 1118TIP3    H124989   4.563   3.087   3.251  0.3736 -0.3832  1.5979
 1118TIP3    H224990   4.510   3.149   3.379 -1.0833  0.9744  0.3640
 1119TIP3   OH224991   1.099   0.211   8.825  0.2122  0.2403  0.6067
 1119TIP3    H124992   1.141   0.127   8.807 -0.9013 -0.6728  2.0253
 1119TIP3    H224993   1.133   0.270   8.758  1.0810 -1.3143 -0.3812
 1120TIP3   OH224994   2.805   6.270   7.908 -0.3052  0.0626 -0.2765
 1120TIP3    H124995   2.735   6.292   7.969 -0.0085  1.7201 -0.4597
 1120TIP3    H224996   2.797   6.336   7.839  2.3817  1.3941  0.5209
 1121TIP3   OH224997   3.656   0.074   7.898  0.0365  0.2906  0.1155
 1121TIP3    H124998   3.668   0.166   7.922 -0.6595  0.2044  0.8293
 1121TIP3    H224999   3.656   0.074   7.802  0.2116  1.0062  0.1100
 1122TIP3   OH225000   4.803   6.069   8.187  0.3388 -0.0675 -0.0310
 1122TIP3    H125001   4.767   6.006   8.125 -0.2455 -0.2689  0.5004
 1122TIP3    H225002   4.734   6.134   8.199  0.1803 -0.3946  0.9089
 1123TIP3   OH225003   2.283   4.949   8.558 -0.0962  0.5636  0.3807
 1123TIP3    H125004   2.308   4.857   8.564  2.7274  1.3299  2.6672
 1123TIP3    H225005   2.200   4.954   8.606 -0.0698 -0.7195  0.5909
 1124TIP3   OH225006   0.963   6.524   2.512  0.3936 -0.5388 -0.7602
 1124TIP3    H125007   0.980   6.572   2.431 -3.5832 -0.6782 -1.9026
 1124TIP3    H225008   0.948   6.434   2.483 -2.5841 -0.3126 -0.2327
 1125TIP3   OH225009   5.590   0.773   3.468 -0.0037  0.0517  0.3947
 1125TIP3    H125010   5.650   0.789   3.541  0.6216 -2.3510  0.4885
 1125TIP3    H225011   5.551   0.859   3.450  2.5950  1.4831  1.0701
 1126TIP3   OH225012   5.370   5.820   7.289 -0.1635 -0.4379  0.5317
 1126TIP3    H125013   5.352   5.913   7.279  0.2412 -0.2932  1.0857
 1126TIP3    H225014   5.436   5.816   7.358 -0.8249 -1.1843  1.1441
 1127TIP3   OH225015   1.517   3.994   1.359 -0.3575 -0.4211  0.1574
 1127TIP3    H125016   1.606   3.963   1.376 -0.2411 -1.1107 -1.4502
 1127TIP3    H225017   1.530   4.076   1.311 -0.6333  0.4930  1.6087
 1128TIP3   OH225018   0.730   1.404   7.492  0.3597 -0.0760  0.1578
 1128TIP3    H125019   0.717   1.380   7.401  1.8624  1.0369 -0.3967
 1128TIP3    H225020   0.699   1.329   7.542 -1.4218 -0.3109 -1.2112
 1129TIP3   OH225021   1.384   1.776   8.540 -0.5438 -0.0049 -0.2674
 1129TIP3    H125022   1.395   1.843   8.471 -2.0399  1.8018  1.1427
 1129TIP3    H225023   1.356   1.826   8.617  2.5895 -1.7254  2.1899
 1130TIP3   OH225024   1.674   6.365   1.665  0.1473  0.2230  0.4556
 1130TIP3    H125025   1.685   6.460   1.656 -0.9116  0.2798 -0.4014
 1130TIP3    H225026   1.586   6.354   1.701  0.2265 -0.4343  0.4611
 1131TIP3   OH225027   2.599   5.248   0.749 -0.0609  0.0869 -0.3889
 1131TIP3    H125028   2.577   5.157   0.730  1.2156 -0.3691  0.2066
 1131TIP3    H225029   2.516   5.288   0.776 -0.6266 -0.8976 -0.6179
 1132TIP3   OH225030   1.145   0.889   8.098  0.1505  0.3772 -0.3526
 1132TIP3    H125031   1.115   0.889   8.007 -0.5385  0.6360 -0.1300
 1132TIP3    H225032   1.103   0.812   8.137 -0.4983  0.9222  0.0457
 1133TIP3   OH225033   3.842   0.387   0.200  0.2612 -0.0841  0.2074
 1133TIP3    H125034   3.783   0.461   0.187  1.6917  1.3868  1.6466
 1133TIP3    H225035   3.885   0.374   0.116  0.6175  1.3262  0.1555
 1134TIP3   OH225036   6.695   5.082   1.055  0.5072 -0.1482 -0.6674
 1134TIP3    H125037   6.663   5.172   1.068  0.0433 -0.3061 -0.7170
 1134TIP3    H225038   6.696   5.070   0.961  0.5842 -0.1953 -0.6611
 1135TIP3   OH225039   4.628   6.080   8.477  0.5856  0.3978 -0.2694
 1135TIP3    H125040   4.602   6.168   8.505  1.9236  1.0146 -0.8909
 1135TIP3    H225041   4.546   6.030   8.475 -0.2485  1.7289 -0.2800
 1136TIP3   OH225042   2.668   2.973   8.419 -0.2322  0.5382  0.7967
 1136TIP3    H125043   2.701   3.038   8.358  0.6015 -0.3219  0.3183
 1136TIP3    H225044   2.592   2.935   8.375  0.4964 -0.2333  0.1780
 1137TIP3   OH225045   5.294   1.905   0.060 -0.1920 -0.0481 -0.2164
 1137TIP3    H125046   5.320   1.926   0.150  0.0360 -0.4312 -0.1913
 1137TIP3    H225047   5.209   1.863   0.069  0.9311 -2.3914  0.0577
 1138TIP3   OH225048   3.353   3.709   8.484 -0.7408 -0.0973 -0.8134
 1138TIP3    H125049   3.398   3.626   8.470  0.6140  0.1192  1.7064
 1138TIP3    H225050   3.415   3.776   8.454 -1.9118  0.0985 -3.0431
 1139TIP3   OH225051   0.782   6.133   1.494  0.0166 -0.6357 -0.3692
 1139TIP3    H125052   0.864   6.183   1.503  0.2744 -0.8967 -1.1290
 1139TIP3    H225053   0.718   6.199   1.467  0.2345 -0.6061 -0.8424
 1140TIP3   OH225054   4.790   2.621   0.619 -0.1484  0.0109 -0.0316
 1140TIP3    H125055   4.763   2.654   0.533  1.2328  1.0588 -0.0983
 1140TIP3    H225056   4.730   2.662   0.681 -1.1826 -0.7816 -0.4717
 1141TIP3   OH225057   0.944   6.607   8.175 -0.0566 -0.0089 -0.0994
 1141TIP3    H125058   0.920   6.576   8.087  1.0928 -0.0036 -0.4286
 1141TIP3    H225059   1.020   6.555   8.199 -0.2652  0.1085  0.8379
 1142TIP3   OH225060   2.423   1.511   1.428 -0.1510  0.6231  0.0714
 1142TIP3    H125061   2.401   1.604   1.425  0.3062  0.7208 -0.9900
 1142TIP3    H225062   2.494   1.501   1.363  1.6263  0.0003  1.9949
 1143TIP3   OH225063   0.193   6.096   1.393 -0.1155 -0.3240 -0.2938
 1143TIP3    H125064   0.183   6.064   1.304  1.8859 -0.5493 -0.4724
 1143TIP3    H225065   0.212   6.018   1.445  0.7772  0.0531 -0.0335
 1144TIP3   OH225066   2.251   3.365   0.250 -0.0825  0.0493  0.4846
 1144TIP3    H125067   2.203   3.283   0.257 -1.0283  0.5539  0.0162
 1144TIP3    H225068   2.280   3.369   0.159 -0.0538  0.2390  0.5015
 1145TIP3   OH225069   3.088   6.257   1.922  0.3782 -0.3412 -0.2185
 1145TIP3    H125070   3.051   6.282   2.007  0.1400 -0.5258 -0.2674
 1145TIP3    H225071   3.177   6.292   1.924  0.2525 -0.0204 -0.0409
 1146TIP3   OH225072   5.691   2.319   7.136 -0.1038  0.1553 -0.5203
 1146TIP3    H125073   5.702   2.289   7.227  0.6057 -0.8086 -0.9128
 1146TIP3    H225074   5.777   2.353   7.111 -0.2260  0.1647 -0.9322
 1147TIP3   OH225075   6.598   2.735   2.396 -0.6912 -0.5762 -0.0250
 1147TIP3    H125076   6.542   2.811   2.382 -0.0562 -0.4382 -2.1588
 1147TIP3    H225077   6.538   2.660   2.394 -1.0018 -0.3154 -0.6919
 1148TIP3   OH225078   2.121   1.741   2.281  0.0678  0.0762  0.1275
 1148TIP3    H125079   2.196   1.751   2.340 -0.4444  0.4608  0.7184
 1148TIP3    H225080   2.045   1.734   2.339 -0.6294  1.9554 -0.4771
 1149TIP3   OH225081   1.230   4.330   2.565 -0.3199  0.3904  0.2741
 1149TIP3    H125082   1.262   4.317   2.655  1.8046  0.2077 -0.4492
 1149TIP3    H225083   1.142   4.292   2.565 -0.4029  0.4657  2.2865
 1150TIP3   OH225084   0.417   0.807   1.839  0.3704  0.1988  0.0453
 1150TIP3    H125085   0.423   0.896   1.802  2.8209  0.1747  0.2222
 1150TIP3    H225086   0.323   0.792   1.849 -0.1242  3.0397  0.6638
 1151TIP3   OH225087   1.776   2.936   3.123 -0.5336 -0.1271 -0.5596
 1151TIP3    H125088   1.726   2.996   3.178  0.5187  0.5974 -0.3498
 1151TIP3    H225089   1.715   2.865   3.102 -0.7883 -0.7626  2.0551
 1152TIP3   OH225090   2.771   2.686   6.812 -0.2241 -0.3015  0.1725
 1152TIP3    H125091   2.828   2.610   6.820 -1.1498 -0.9772  0.5585
 1152TIP3    H225092   2.830   2.758   6.790  1.0978 -0.5237  2.6443
 1153TIP3   OH225093   5.299   5.484   7.915 -0.4634 -0.1647  0.2695
 1153TIP3    H125094   5.317   5.578   7.920 -1.7793  0.1071  0.3292
 1153TIP3    H225095   5.305   5.463   7.822 -0.9244  0.1481  0.1656
 1154TIP3   OH225096   0.112   6.691   8.789  0.7619  0.0826 -0.4972
 1154TIP3    H125097   0.051   6.636   8.837  0.8015 -0.5469 -1.1519
 1154TIP3    H225098   0.062   6.770   8.767  0.2518 -0.3311 -0.8281
 1155TIP3   OH225099   2.627   1.959   2.238 -0.2418 -0.3227 -0.4688
 1155TIP3    H125100   2.706   2.007   2.209 -0.3723  0.5883  0.6199
 1155TIP3    H225101   2.637   1.872   2.200  0.6807  0.1553 -1.3846
 1156TIP3   OH225102   2.404   2.354   0.347  0.0573  0.2668 -0.3750
 1156TIP3    H125103   2.330   2.386   0.400  0.6001 -0.6433  0.9832
 1156TIP3    H225104   2.373   2.271   0.311  0.0138  0.4483 -0.7624
 1157TIP3   OH225105   5.745   2.758   0.321 -0.1571  0.2374 -0.5573
 1157TIP3    H125106   5.664   2.723   0.360 -0.9323  1.5099 -0.9623
 1157TIP3    H225107   5.776   2.823   0.383  1.2602 -1.0585  0.1695
 1158TIP3   OH225108   5.007   4.514   0.431 -0.0701  0.0011  0.5259
 1158TIP3    H125109   4.918   4.517   0.395  0.0413  2.1355  0.2632
 1158TIP3    H225110   5.000   4.552   0.518  0.6175  0.4625  0.3934
 1159TIP3   OH225111   0.764   5.503   2.728 -0.2377  0.1752  0.7314
 1159TIP3    H125112   0.806   5.468   2.806  1.4862 -1.9393 -1.0096
 1159TIP3    H225113   0.828   5.564   2.691 -0.2348 -0.2569  0.0019
 1160TIP3   OH225114   1.745   2.298   7.802  0.5687 -0.3653 -0.0044
 1160TIP3    H125115   1.658   2.272   7.773  0.5699 -0.9160  0.4790
 1160TIP3    H225116   1.795   2.306   7.721 -0.0913  0.5907 -0.3341
 1161TIP3   OH225117   5.774   6.478   0.593 -0.3351 -0.1778 -0.8066
 1161TIP3    H125118   5.771   6.495   0.687 -1.0286 -1.6586 -0.5311
 1161TIP3    H225119   5.866   6.485   0.570  0.0563 -1.3367  0.3074
 1162TIP3   OH225120   3.211   0.198   1.623 -0.5320 -0.8428 -0.7835
 1162TIP3    H125121   3.178   0.112   1.650 -0.7864 -0.8080 -0.9785
 1162TIP3    H225122   3.194   0.255   1.698  2.0670 -1.5253  0.4458
 1163TIP3   OH225123   0.418   2.710   1.503 -0.0357  0.2292  0.0538
 1163TIP3    H125124   0.493   2.662   1.538 -0.8161 -0.9188  0.2270
 1163TIP3    H225125   0.362   2.727   1.579 -1.5457 -1.9172 -0.4780
 1164TIP3   OH225126   5.197   3.493   2.351  0.2015  0.0579 -0.4670
 1164TIP3    H125127   5.120   3.547   2.369  1.0154  0.8378  0.8149
 1164TIP3    H225128   5.189   3.419   2.412  1.6839  1.4149  1.4850
 1165TIP3   OH225129   2.942   3.307   0.979 -0.2853  0.6224  0.4489
 1165TIP3    H125130   2.973   3.358   0.904 -1.0837  1.5113  0.7023
 1165TIP3    H225131   3.018   3.300   1.037  0.8112 -1.3969 -1.0783
 1166TIP3   OH225132   2.934   1.791   7.243 -0.0634 -0.3963  0.0098
 1166TIP3    H125133   2.849   1.824   7.215 -0.3387 -0.9831  0.1459
 1166TIP3    H225134   2.950   1.833   7.327 -0.4746 -0.7022  0.2457
 1167TIP3   OH225135   6.223   6.039   8.057 -0.9620 -0.3955  0.0738
 1167TIP3    H125136   6.303   6.055   8.006 -0.9585 -0.8757 -0.0745
 1167TIP3    H225137   6.217   6.114   8.116  0.0409 -0.7558  0.6471
 1168TIP3   OH225138   2.793   6.592   1.404 -0.4824  0.6008  0.5588
 1168TIP3    H125139   2.875   6.625   1.441  0.3289 -0.5783 -0.1229
 1168TIP3    H225140   2.787   6.502   1.436 -2.4994  1.2184  2.1396
 1169TIP3   OH225141   6.571   4.537   2.127 -0.4218  0.1503 -0.1403
 1169TIP3    H125142   6.665   4.548   2.112 -0.1688  0.2605  1.3464
 1169TIP3    H225143   6.537   4.503   2.044  0.5856  1.9477 -1.3694
 1170TIP3   OH225144   4.217   3.799   0.782  0.0622  0.2329  0.2219
 1170TIP3    H125145   4.250   3.833   0.865  0.0617  3.9716 -1.1444
 1170TIP3    H225146   4.188   3.710   0.803  0.0212  0.9909  4.2170
 1171TIP3   OH225147   4.154   5.855   1.572  0.2339  0.2924 -0.2197
 1171TIP3    H125148   4.096   5.920   1.610 -2.0092 -1.1165 -1.0133
 1171TIP3    H225149   4.210   5.827   1.644 -0.6510  1.1208  0.8190
 1172TIP3   OH225150   2.191   3.762   7.956 -0.9416  0.4121  0.5896
 1172TIP3    H125151   2.145   3.687   7.995 -0.3576 -0.3520 -0.1777
 1172TIP3    H225152   2.151   3.773   7.870 -2.4633  2.3159  1.4412
 1173TIP3   OH225153   1.451   1.474   1.776 -0.7105  0.2316  0.0482
 1173TIP3    H125154   1.478   1.382   1.784 -1.8463 -0.2612 -1.2691
 1173TIP3    H225155   1.415   1.480   1.688  0.9967  2.4246 -0.5737
 1174TIP3   OH225156   1.919   4.050   2.889 -0.0785  0.4383 -0.3072
 1174TIP3    H125157   1.898   3.993   2.963  0.9652  0.7294  0.2373
 1174TIP3    H225158   1.891   4.137   2.917  0.5304  0.5888 -0.1430
 1175TIP3   OH225159   4.026   2.662   0.538  0.1205 -0.5171 -0.2505
 1175TIP3    H125160   3.978   2.721   0.480  0.5003 -0.4852 -0.5356
 1175TIP3    H225161   4.015   2.575   0.499  0.9114 -0.4124 -0.7467
 1176TIP3   OH225162   5.840   3.287   8.772 -0.0243 -0.1486 -0.0367
 1176TIP3    H125163   5.918   3.342   8.769  0.6286 -1.0655 -0.0891
 1176TIP3    H225164   5.774   3.343   8.813  0.5957  0.7033 -0.1629
 1177TIP3   OH225165   4.899   6.211   2.997  0.2871 -0.6780 -0.6239
 1177TIP3    H125166   4.968   6.193   3.060  0.9750  0.2166 -1.1017
 1177TIP3    H225167   4.857   6.291   3.029  0.1319 -0.6558 -0.8728
 1178TIP3   OH225168   0.212   5.205   0.736  0.3873  0.4257 -0.2527
 1178TIP3    H125169   0.141   5.199   0.672  0.5665 -1.3960 -0.3162
 1178TIP3    H225170   0.290   5.227   0.684 -0.1771  3.1897 -0.0990
 1179TIP3   OH225171   3.798   2.131   1.395 -0.0257 -0.2591  0.3120
 1179TIP3    H125172   3.815   2.059   1.334 -0.8460  0.0070 -0.2608
 1179TIP3    H225173   3.883   2.173   1.407  0.1865 -0.4205 -0.5321
 1180TIP3   OH225174   1.437   3.273   7.955 -0.3494  0.3378  0.0786
 1180TIP3    H125175   1.382   3.219   7.898  0.6377  0.1587 -0.7630
 1180TIP3    H225176   1.440   3.358   7.911 -0.3529  0.4911  0.3766
 1181TIP3   OH225177   6.238   0.896   2.982  0.3849 -0.0314  0.8189
 1181TIP3    H125178   6.235   0.816   3.036  0.5739 -0.7551 -0.2158
 1181TIP3    H225179   6.330   0.921   2.982  0.3348  0.1613  1.0909
 1182TIP3   OH225180   4.791   5.495   0.503  0.6300  0.4060  0.3493
 1182TIP3    H125181   4.765   5.578   0.543  1.1039  0.3803  0.7359
 1182TIP3    H225182   4.887   5.498   0.504  0.6493  0.5569 -1.1463
 1183TIP3   OH225183   4.586   2.078   8.043  0.1550 -0.1749 -0.5069
 1183TIP3    H125184   4.495   2.099   8.023 -0.4816 -1.4223  0.8503
 1183TIP3    H225185   4.612   2.015   7.976 -0.1782 -0.2431 -0.5717
 1184TIP3   OH225186   4.421   4.228   1.757  0.4035  0.0176  0.2872
 1184TIP3    H125187   4.439   4.248   1.665  0.1264 -1.8827 -0.2163
 1184TIP3    H225188   4.400   4.313   1.796  0.1324  0.8171 -1.4960
 1185TIP3   OH225189   5.759   2.370   1.967  0.1064  0.1976 -0.0863
 1185TIP3    H125190   5.665   2.389   1.972  0.2130  0.6332  0.3699
 1185TIP3    H225191   5.778   2.367   1.873 -0.5152 -0.7027 -0.1980
 1186TIP3   OH225192   3.246   1.242   2.623 -0.2171 -0.4108 -0.3058
 1186TIP3    H125193   3.155   1.271   2.609 -1.3200 -3.5261 -0.4135
 1186TIP3    H225194   3.267   1.271   2.711 -0.7786  1.5665 -0.7760
 1187TIP3   OH225195   0.857   2.149   2.546  0.3235  0.0174 -0.2298
 1187TIP3    H125196   0.815   2.116   2.466 -2.4629  2.0531  0.2456
 1187TIP3    H225197   0.878   2.240   2.526  0.0732  0.4047  1.1855
 1188TIP3   OH225198   0.502   6.575   2.285 -0.2525  0.3065  0.3243
 1188TIP3    H125199   0.562   6.625   2.230 -1.5985  1.5017 -0.1044
 1188TIP3    H225200   0.559   6.516   2.334  1.0802 -0.0111 -1.5077
 1189TIP3   OH225201   2.010   0.306   1.179  0.4353  0.3731  0.1210
 1189TIP3    H125202   1.945   0.237   1.166 -0.8757  1.6371 -0.1715
 1189TIP3    H225203   2.084   0.260   1.220 -0.7755 -1.0235  0.8547
 1190TIP3   OH225204   6.823   5.148   3.706  0.3326 -0.1600  0.2949
 1190TIP3    H125205   6.736   5.162   3.744 -0.3697  0.2216 -1.3673
 1190TIP3    H225206   6.852   5.064   3.742 -0.9312 -0.5379  0.4898
 1191TIP3   OH225207   2.361   1.795   7.121 -0.1942  0.0815 -0.0113
 1191TIP3    H125208   2.325   1.884   7.126 -1.0039 -0.0079 -2.6539
 1191TIP3    H225209   2.288   1.738   7.146  0.7634  0.0679  3.3016
 1192TIP3   OH225210   1.641   3.946   0.296  0.1025 -0.1446  0.0047
 1192TIP3    H125211   1.644   3.859   0.256 -3.1821 -0.3874  0.0627
 1192TIP3    H225212   1.568   3.989   0.253 -0.0167  1.6321  1.8807
 1193TIP3   OH225213   1.786   3.200   0.834  0.4481  0.6678 -0.9222
 1193TIP3    H125214   1.766   3.118   0.877 -0.0488  1.7892  1.0988
 1193TIP3    H225215   1.724   3.204   0.760 -1.2576  0.3399  0.4168
 1194TIP3   OH225216   6.203   5.153   0.999 -0.3608  0.4021  0.4511
 1194TIP3    H125217   6.172   5.239   0.968  1.7811  1.4708  1.1106
 1194TIP3    H225218   6.163   5.143   1.085 -2.7439 -0.5344 -0.6860
 1195TIP3   OH225219   5.244   2.412   0.880 -0.1175  0.3122 -0.7856
 1195TIP3    H125220   5.269   2.390   0.970  1.8450 -0.2393 -1.4341
 1195TIP3    H225221   5.188   2.490   0.890  0.0239  0.2440  0.8986
 1196TIP3   OH225222   5.294   5.129   3.191 -0.2708  0.5566  0.2276
 1196TIP3    H125223   5.359   5.198   3.202  0.8635 -0.2848 -0.8606
 1196TIP3    H225224   5.259   5.142   3.103 -0.8451  0.3950  0.4247
 1197TIP3   OH225225   6.089   2.084   1.151 -0.0678  0.2632  0.1712
 1197TIP3    H125226   6.012   2.049   1.196  0.9423 -1.6762  0.4767
 1197TIP3    H225227   6.058   2.167   1.114 -2.2335 -0.3226  0.4881
 1198TIP3   OH225228   3.972   3.331   1.026 -0.3566  0.4782 -0.1731
 1198TIP3    H125229   3.992   3.246   0.985  0.2487  0.1682  0.7250
 1198TIP3    H225230   3.894   3.362   0.981  0.6895  0.5168 -2.1025
 1199TIP3   OH225231   6.440   6.759   7.704 -0.1992  0.0431  0.0558
 1199TIP3    H125232   6.526   6.786   7.735 -0.4324 -1.2012  1.9655
 1199TIP3    H225233   6.397   6.841   7.679  0.6831  0.9676  1.3903
 1200TIP3   OH225234   4.906   4.556   1.690  0.4151 -0.2461  0.4603
 1200TIP3    H125235   4.882   4.648   1.698  3.4227  0.8910 -1.6170
 1200TIP3    H225236   4.953   4.536   1.771  1.9570  0.9151 -0.0930
 1201TIP3   OH225237   2.630   0.124   2.078  0.4379  0.5384 -0.3163
 1201TIP3    H125238   2.599   0.201   2.030  0.4684  1.2492  0.7675
 1201TIP3    H225239   2.712   0.153   2.119  1.1537 -0.4929 -0.9711
 1202TIP3   OH225240   3.230   4.018   7.862  0.1098  0.7862 -0.5200
 1202TIP3    H125241   3.185   3.940   7.892 -0.4249  1.4482  0.4465
 1202TIP3    H225242   3.160   4.080   7.840  0.5286  1.1145 -0.9784
 1203TIP3   OH225243   5.996   3.053   2.720  0.1639  0.5079  0.5051
 1203TIP3    H125244   5.959   2.965   2.727 -0.8089  0.4626 -3.1840
 1203TIP3    H225245   5.922   3.111   2.734  0.3024  0.6788  0.5311
 1204TIP3   OH225246   3.856   3.891   1.246 -0.3186 -0.3222  0.2592
 1204TIP3    H125247   3.853   3.968   1.302 -0.5140  0.5794 -0.9640
 1204TIP3    H225248   3.838   3.818   1.306 -0.7358  0.6166  1.3243
 1205TIP3   OH225249   4.437   0.857   0.257 -0.1747 -0.0999  0.6222
 1205TIP3    H125250   4.353   0.872   0.302 -0.9137  0.0988 -0.7595
 1205TIP3    H225251   4.445   0.762   0.253 -1.5908 -0.2001 -1.3734
 1206TIP3   OH225252   0.617   0.035   7.516  0.8582 -0.0498 -0.2528
 1206TIP3    H125253   0.654   0.123   7.508  0.2861  0.1245 -1.0306
 1206TIP3    H225254   0.555   0.042   7.589  0.6436  0.2499 -0.4634
 1207TIP3   OH225255   5.264   6.109   7.304 -0.0056 -0.1724  0.0524
 1207TIP3    H125256   5.218   6.029   7.328 -0.8605  0.0654 -0.7040
 1207TIP3    H225257   5.199   6.179   7.319  0.4681  0.2879 -0.0238
 1208TIP3   OH225258   5.816   5.473   8.377  0.5136 -0.3457  0.1416
 1208TIP3    H125259   5.851   5.469   8.288  0.1108 -0.6821 -0.0023
 1208TIP3    H225260   5.886   5.513   8.428  0.9289 -0.5810 -0.2333
 1209TIP3   OH225261   2.562   3.724   2.334 -0.1438  0.4778 -0.7712
 1209TIP3    H125262   2.515   3.722   2.417  0.6946 -1.3879 -0.2930
 1209TIP3    H225263   2.493   3.722   2.268 -0.8034  1.4205 -0.1443
 1210TIP3   OH225264   6.662   0.442   8.698 -0.7407 -0.2368  0.1962
 1210TIP3    H125265   6.650   0.519   8.642  0.0564 -0.7490 -0.7096
 1210TIP3    H225266   6.594   0.381   8.669 -0.5298 -0.3777 -0.0096
 1211TIP3   OH225267   1.307   5.800   7.830 -0.3495  0.4985  0.3987
 1211TIP3    H125268   1.239   5.760   7.775 -2.2679  1.7602  1.7085
 1211TIP3    H225269   1.269   5.884   7.856  1.0355  0.5193  2.5532
 1212TIP3   OH225270   5.670   1.465   2.277  0.0886 -0.2465 -0.9250
 1212TIP3    H125271   5.693   1.548   2.320  2.4444 -1.3702  0.1762
 1212TIP3    H225272   5.578   1.475   2.254 -0.8364  1.2062  2.7103
 1213TIP3   OH225273   3.689   2.509   8.199  0.0589  0.1293 -0.0840
 1213TIP3    H125274   3.743   2.471   8.130 -0.8176  0.1158 -0.7743
 1213TIP3    H225275   3.739   2.585   8.229  0.2359  0.4065 -1.0521
 1214TIP3   OH225276   6.531   3.592   2.681 -0.2225 -0.1150  0.1121
 1214TIP3    H125277   6.608   3.579   2.736  0.8669  1.1694 -1.0545
 1214TIP3    H225278   6.551   3.546   2.600 -0.3128  0.9198 -0.5149
 1215TIP3   OH225279   5.696   3.660   2.837 -0.1539 -0.5416 -0.6396
 1215TIP3    H125280   5.729   3.737   2.791  0.6380 -1.5340 -1.8048
 1215TIP3    H225281   5.643   3.695   2.908  0.4525  1.0728 -0.9449
 1216TIP3   OH225282   2.139   1.814   1.586  0.0069  0.5423 -0.6826
 1216TIP3    H125283   2.217   1.821   1.640 -0.7270  0.6381  0.3996
 1216TIP3    H225284   2.172   1.792   1.499  1.0978 -1.9498  0.2572
 1217TIP3   OH225285   4.949   0.537   8.604  0.0340  0.5770 -0.6841
 1217TIP3    H125286   4.857   0.560   8.595  0.1651  2.5268  1.7778
 1217TIP3    H225287   4.949   0.449   8.641 -0.8768  0.7225 -0.3094
 1218TIP3   OH225288   3.040   1.686   8.123  0.2817  0.4706  0.4798
 1218TIP3    H125289   2.954   1.669   8.084 -0.6167  3.0632  1.1078
 1218TIP3    H225290   3.063   1.604   8.168 -1.3720 -0.6180 -0.5440
 1219TIP3   OH225291   2.377   3.400   8.818  0.1626  0.4754 -0.0169
 1219TIP3    H125292   2.462   3.373   8.785 -0.0871  0.5895 -0.7635
 1219TIP3    H225293   2.330   3.434   8.741 -0.6261  0.2422  0.3457
 1220TIP3   OH225294   1.334   3.827   2.780  0.3283  0.0114 -0.0383
 1220TIP3    H125295   1.394   3.793   2.714  1.5215  2.5000 -0.3575
 1220TIP3    H225296   1.270   3.879   2.731 -2.3535 -2.7007  0.2785
 1221TIP3   OH225297   0.913   0.588   1.457 -0.4641 -0.5530  0.1413
 1221TIP3    H125298   0.916   0.674   1.414 -2.0980 -1.4687 -1.9893
 1221TIP3    H225299   0.849   0.598   1.527 -2.4993 -0.5787 -1.6219
 1222TIP3   OH225300   4.384   4.496   7.116  0.5620 -0.5701 -0.2009
 1222TIP3    H125301   4.370   4.412   7.072 -0.5526  0.4239 -1.9101
 1222TIP3    H225302   4.405   4.556   7.044  0.8834  0.6964  0.9216
 1223TIP3   OH225303   5.035   1.969   8.624 -0.0122 -0.8387 -0.4315
 1223TIP3    H125304   5.096   1.952   8.552  1.7147 -3.7918  1.4717
 1223TIP3    H225305   4.982   1.890   8.630 -0.5850 -0.3817  1.0583
 1224TIP3   OH225306   4.708   6.065   0.435  0.0576 -0.1663  0.2320
 1224TIP3    H125307   4.715   6.085   0.342 -0.7911 -1.1052 -0.0474
 1224TIP3    H225308   4.622   6.023   0.444  0.6176 -1.1283  1.2428
 1225TIP3   OH225309   1.021   0.982   0.710  0.1479 -0.0136  0.2747
 1225TIP3    H125310   1.071   1.025   0.641  0.8135 -0.4093  0.4955
 1225TIP3    H225311   1.020   0.890   0.686  1.5156 -0.3694  1.4291
 1226TIP3   OH225312   3.848   5.781   1.275  0.4871  0.0738  0.5856
 1226TIP3    H125313   3.818   5.840   1.344  1.4921  2.1451 -0.6840
 1226TIP3    H225314   3.901   5.835   1.217  2.4347 -2.3175 -0.0581
 1227TIP3   OH225315   4.978   6.374   1.968 -0.4228  0.1673 -0.0419
 1227TIP3    H125316   4.949   6.346   2.055 -1.5555  3.7622  0.8998
 1227TIP3    H225317   5.070   6.346   1.963 -1.0197 -2.3342  1.1703
 1228TIP3   OH225318   6.717   4.849   2.799 -0.5324  0.3490 -0.6011
 1228TIP3    H125319   6.747   4.774   2.747 -0.1993 -0.4498  0.6890
 1228TIP3    H225320   6.797   4.900   2.814  0.0696 -1.1149  1.7650
 1229TIP3   OH225321   6.210   6.443   3.369 -0.0327  0.8010 -0.6367
 1229TIP3    H125322   6.193   6.428   3.462  0.9729  1.3132 -0.3562
 1229TIP3    H225323   6.210   6.538   3.360 -1.5445  0.7345 -1.4480
 1230TIP3   OH225324   1.427   4.398   2.370 -0.4928 -0.3614  0.3849
 1230TIP3    H125325   1.450   4.314   2.329  0.9306  0.8269 -1.3718
 1230TIP3    H225326   1.339   4.383   2.405 -0.8828 -2.1653 -1.1708
 1231TIP3   OH225327   1.848   2.462   3.256 -0.0410  0.9099 -0.2343
 1231TIP3    H125328   1.882   2.478   3.168 -2.1469  1.0776 -1.0685
 1231TIP3    H225329   1.876   2.373   3.276 -0.1926  0.5773 -1.4114
 1232TIP3   OH225330   5.657   6.229   0.636  0.1974 -0.4796 -0.1165
 1232TIP3    H125331   5.705   6.301   0.595  1.7363 -0.8076  1.0169
 1232TIP3    H225332   5.580   6.272   0.675  0.2801  0.2889 -0.7605
 1233TIP3   OH225333   6.263   1.079   8.311 -0.4452  0.1281  0.1479
 1233TIP3    H125334   6.357   1.062   8.317 -0.0989  0.7614 -2.3647
 1233TIP3    H225335   6.254   1.173   8.327 -0.7660 -0.0805  1.2236
 1234TIP3   OH225336   4.230   0.774   1.587 -0.0583 -0.0324 -0.0646
 1234TIP3    H125337   4.245   0.764   1.682 -0.4494 -0.9826 -0.0887
 1234TIP3    H225338   4.139   0.800   1.580  0.2829  1.1844 -0.1369
 1235TIP3   OH225339   1.672   1.305   1.075  0.2413  0.3876  0.5038
 1235TIP3    H125340   1.745   1.256   1.111 -1.5512 -2.9026  0.0904
 1235TIP3    H225341   1.602   1.295   1.140 -0.0904  3.0727  0.6967
 1236TIP3   OH225342   5.629   5.285   0.756  0.0389 -0.1168  0.1264
 1236TIP3    H125343   5.565   5.334   0.808 -1.4747 -1.4647 -0.3823
 1236TIP3    H225344   5.694   5.350   0.730 -2.4728  1.9111 -1.5089
 1237TIP3   OH225345   3.332   3.926   1.914  0.0561 -0.1233  0.9992
 1237TIP3    H125346   3.295   3.920   1.826  1.3249 -1.6087  0.5310
 1237TIP3    H225347   3.341   4.020   1.930 -0.5535  0.1765 -0.2961
 1238TIP3   OH225348   0.982   4.292   0.340  0.1042 -0.6006  1.0032
 1238TIP3    H125349   0.894   4.316   0.314  0.4178 -1.1468 -0.6991
 1238TIP3    H225350   1.039   4.332   0.274  0.9564 -1.9643  0.8492
 1239TIP3   OH225351   1.888   4.296   0.781 -0.5784  0.3592 -0.0418
 1239TIP3    H125352   1.807   4.263   0.740 -0.7526 -0.0322  0.6066
 1239TIP3    H225353   1.881   4.268   0.872  0.2462  0.4180  0.0404
 1240TIP3   OH225354   3.529   5.032   7.380  0.0774 -0.3351  0.4374
 1240TIP3    H125355   3.599   4.988   7.331 -0.4071 -0.2966 -0.3006
 1240TIP3    H225356   3.569   5.114   7.409  0.9206 -1.1257  1.6322
 1241TIP3   OH225357   5.937   1.206   1.064  0.0129 -0.2128 -0.0295
 1241TIP3    H125358   5.995   1.176   0.995  0.3864  1.8909 -0.6977
 1241TIP3    H225359   5.859   1.151   1.055  0.6653 -1.0198 -1.0806
 1242TIP3   OH225360   5.884   2.332   0.164 -0.4281 -0.6089  0.2549
 1242TIP3    H125361   5.901   2.389   0.240 -1.4449  1.0750 -0.7230
 1242TIP3    H225362   5.917   2.382   0.089 -0.0085 -1.9750 -0.5047
 1243TIP3   OH225363   1.738   4.695   1.063  0.0016 -0.2258 -0.0534
 1243TIP3    H125364   1.829   4.723   1.054  0.3265 -1.3293 -0.4279
 1243TIP3    H225365   1.699   4.712   0.978 -0.6679  1.9195  0.6249
 1244TIP3   OH225366   0.170   4.907   2.125  0.3249 -0.3622  0.4075
 1244TIP3    H125367   0.243   4.865   2.078  0.5151 -0.8494  1.1290
 1244TIP3    H225368   0.184   4.884   2.216 -1.2668 -1.2798  0.4548
 1245TIP3   OH225369   2.593   2.106   8.636  0.4058 -0.2972  0.5277
 1245TIP3    H125370   2.672   2.133   8.589 -0.0676 -0.8699 -0.6364
 1245TIP3    H225371   2.528   2.172   8.613 -0.4296 -1.7063 -1.3988
 1246TIP3   OH225372   4.929   5.800   0.265  0.4630 -0.1814 -1.2316
 1246TIP3    H125373   5.002   5.813   0.325 -1.2815  2.9902  0.4095
 1246TIP3    H225374   4.863   5.755   0.317 -0.1956  0.4934 -1.4671
 1247TIP3   OH225375   3.662   1.291   7.570 -0.3156  0.0163 -0.1450
 1247TIP3    H125376   3.753   1.320   7.559 -0.7086  2.1235  1.5114
 1247TIP3    H225377   3.612   1.344   7.508 -0.7549  1.2580  1.2129
 1248TIP3   OH225378   3.966   6.081   8.515 -0.7964  0.5492  0.6023
 1248TIP3    H125379   3.997   6.037   8.436  1.9563 -0.1915  1.9659
 1248TIP3    H225380   3.945   6.170   8.486 -0.6765  0.0632 -1.0978
 1249TIP3   OH225381   0.445   5.449   7.526 -0.6073  0.9547 -0.0151
 1249TIP3    H125382   0.471   5.521   7.469  0.6375  0.2075 -0.4453
 1249TIP3    H225383   0.349   5.454   7.529 -0.7519  0.9257 -2.3220
 1250TIP3   OH225384   4.715   0.359   7.472 -0.1413 -0.8935 -0.2237
 1250TIP3    H125385   4.643   0.297   7.476  0.6867 -1.8218  1.6466
 1250TIP3    H225386   4.773   0.333   7.543  1.6248  0.3443 -1.1198
 1251TIP3   OH225387   4.777   4.436   0.259 -0.3578  0.1573  0.5185
 1251TIP3    H125388   4.805   4.345   0.263  0.1053  0.2704 -0.0634
 1251TIP3    H225389   4.815   4.470   0.178 -2.0238  0.3714 -0.2211
 1252TIP3   OH225390   2.247   2.661   7.155 -0.6206  0.0017  0.8058
 1252TIP3    H125391   2.324   2.604   7.161 -1.6412 -1.3216  2.1934
 1252TIP3    H225392   2.282   2.750   7.159  0.8563 -0.5595  1.0087
 1253TIP3   OH225393   4.286   5.775   7.656 -0.1345 -0.3926 -0.1803
 1253TIP3    H125394   4.257   5.862   7.630  0.6103 -0.1382 -0.1726
 1253TIP3    H225395   4.269   5.720   7.579 -0.5225 -0.2284 -0.2156
 1254TIP3   OH225396   3.178   4.100   0.846 -0.2358 -0.3253 -0.9967
 1254TIP3    H125397   3.194   4.027   0.786 -1.3037 -1.0561 -0.4313
 1254TIP3    H225398   3.129   4.061   0.918  1.0908  0.5030  0.4193
 1255TIP3   OH225399   2.039   5.271   1.092 -0.3960 -0.3204 -0.2920
 1255TIP3    H125400   2.009   5.282   1.002 -2.4191  1.7364  0.5006
 1255TIP3    H225401   2.083   5.186   1.094 -0.6188 -0.5752 -3.1008
 1256TIP3   OH225402   1.303   4.582   1.593  0.5531  0.0263  0.0379
 1256TIP3    H125403   1.263   4.540   1.669  0.2581  0.6344  0.2240
 1256TIP3    H225404   1.249   4.554   1.519  0.3112  0.1363  0.1709
 1257TIP3   OH225405   3.507   5.259   0.719  0.3538 -0.8293  0.0590
 1257TIP3    H125406   3.550   5.289   0.799  0.1729 -0.8502  0.1658
 1257TIP3    H225407   3.579   5.237   0.659  0.4891 -0.8216  0.2181
 1258TIP3   OH225408   3.617   6.551   0.784 -0.5923 -0.1114  0.1987
 1258TIP3    H125409   3.548   6.587   0.730 -0.2330  0.8945  0.4000
 1258TIP3    H225410   3.632   6.616   0.853  0.9629 -0.0164 -0.1864
 1259TIP3   OH225411   1.956   6.604   1.712  0.1464 -0.6561 -0.5011
 1259TIP3    H125412   2.021   6.673   1.701  0.1192 -0.4255  0.6535
 1259TIP3    H225413   1.967   6.548   1.635  1.1053 -0.1375 -0.7593
 1260TIP3   OH225414   3.456   3.890   8.074 -0.2349  0.6679  0.9622
 1260TIP3    H125415   3.495   3.977   8.090  0.6812 -0.0005  2.7650
 1260TIP3    H225416   3.371   3.894   8.117 -0.0187  0.5655  1.4113
 1261TIP3   OH225417   6.046   5.875   0.201 -0.2171 -0.4931 -0.2633
 1261TIP3    H125418   6.057   5.786   0.167 -1.2624  0.3467 -3.1085
 1261TIP3    H225419   5.953   5.894   0.190 -0.2917  0.4813  1.6665
 1262TIP3   OH225420   6.291   1.961   8.188  0.1774 -0.3156  0.4333
 1262TIP3    H125421   6.237   2.026   8.234 -0.3432 -1.0179  0.8284
 1262TIP3    H225422   6.381   1.986   8.208 -0.0240  0.0306  0.9427
 1263TIP3   OH225423   1.191   5.658   0.154  0.4213  0.1657  0.0331
 1263TIP3    H125424   1.141   5.651   0.235  1.3141 -2.9058  0.4557
 1263TIP3    H225425   1.262   5.719   0.175 -0.9337  1.6342  0.5812
 1264TIP3   OH225426   0.407   5.809   0.886 -0.1417  0.0245  0.3248
 1264TIP3    H125427   0.397   5.835   0.794  0.3437  1.9838  0.7882
 1264TIP3    H225428   0.318   5.795   0.917 -0.5965  2.6011  0.3960
 1265TIP3   OH225429   0.834   1.946   8.439 -0.5439  0.3146  0.3512
 1265TIP3    H125430   0.914   1.893   8.432  0.1844  1.3647  0.5806
 1265TIP3    H225431   0.800   1.925   8.526  0.7536  1.5680  1.2082
 1266TIP3   OH225432   3.515   6.347   2.543 -0.6088 -0.4512 -0.2506
 1266TIP3    H125433   3.599   6.301   2.532 -0.0672  0.0286  1.4235
 1266TIP3    H225434   3.540   6.435   2.572 -1.6900 -0.1365 -0.2356
 1267TIP3   OH225435   5.622   2.333   8.448  0.4155  0.5134  0.0966
 1267TIP3    H125436   5.569   2.269   8.401  0.5537 -0.2082  0.8932
 1267TIP3    H225437   5.712   2.315   8.421  0.3673  1.0450 -0.4469
 1268TIP3   OH225438   1.394   3.547   2.360  0.2431 -0.1600 -0.1643
 1268TIP3    H125439   1.308   3.586   2.370 -0.8767 -2.5694  0.2181
 1268TIP3    H225440   1.436   3.599   2.291 -0.9839  1.8434  0.5073
 1269TIP3   OH225441   6.332   5.256   0.513 -0.2923 -0.1167  0.1298
 1269TIP3    H125442   6.356   5.343   0.545 -1.9185 -0.0081  1.2188
 1269TIP3    H225443   6.378   5.196   0.571  1.5252 -0.0399 -1.1645
 1270TIP3   OH225444   6.777   3.874   0.471 -0.7353 -0.3924  0.4115
 1270TIP3    H125445   6.684   3.876   0.451 -0.2082  0.3825 -2.3873
 1270TIP3    H225446   6.801   3.965   0.488 -0.2153 -0.3435 -0.5104
 1271TIP3   OH225447   0.355   6.422   0.616 -0.2915  0.9522 -0.2163
 1271TIP3    H125448   0.436   6.413   0.565 -0.6374  1.5210 -0.8714
 1271TIP3    H225449   0.335   6.515   0.615 -2.1351  0.6116 -1.9423
 1272TIP3   OH225450   0.727   3.283   1.457 -0.1599 -0.0350  0.1476
 1272TIP3    H125451   0.745   3.198   1.498  2.2408  0.0303 -0.5888
 1272TIP3    H225452   0.768   3.277   1.371 -0.8352  1.5349 -0.3131
 1273TIP3   OH225453   6.758   6.693   8.273  0.2073 -0.5121 -0.2943
 1273TIP3    H125454   6.689   6.749   8.310 -1.2350 -1.9628 -0.6633
 1273TIP3    H225455   6.772   6.626   8.340  2.1983  0.4553  0.3168
 1274TIP3   OH225456   0.131   0.650   8.168  0.6479  0.0473 -0.1070
 1274TIP3    H125457   0.108   0.564   8.203 -1.4521  0.8518  0.6715
 1274TIP3    H225458   0.100   0.648   8.077  2.0025 -0.5180 -0.5698
 1275TIP3   OH225459   0.475   4.054   3.438 -0.2670 -0.1225  0.2064
 1275TIP3    H125460   0.424   3.973   3.443 -2.1745  0.9323 -0.8142
 1275TIP3    H225461   0.411   4.124   3.453  0.9993  1.2541 -0.4964
 1276TIP3   OH225462   6.006   4.445   0.075  0.3165 -0.0790 -0.0287
 1276TIP3    H125463   5.988   4.534   0.105  1.0623 -0.2177  0.8811
 1276TIP3    H225464   5.928   4.420   0.025 -0.4880  0.5882  0.8531
 1277TIP3   OH225465   3.546   3.110   1.505 -0.1739  1.0723 -0.1023
 1277TIP3    H125466   3.465   3.060   1.515  0.0952  0.5856 -0.2836
 1277TIP3    H225467   3.521   3.201   1.521 -0.2379  0.6630  2.7252
 1278TIP3   OH225468   1.658   5.137   2.662  0.2385  0.4611 -0.1936
 1278TIP3    H125469   1.606   5.069   2.618 -0.7161  0.0158  1.5394
 1278TIP3    H225470   1.602   5.214   2.662 -1.0600 -0.3544  2.7679
 1279TIP3   OH225471   6.104   2.798   0.878 -0.2191 -0.2447  0.4678
 1279TIP3    H125472   6.188   2.763   0.848 -1.2939 -2.6790  0.0414
 1279TIP3    H225473   6.055   2.814   0.797 -0.9588 -1.0232  0.7482
 1280TIP3   OH225474   6.321   1.419   8.663 -0.9589 -0.2099  0.2436
 1280TIP3    H125475   6.365   1.344   8.624 -0.4359  0.2401 -0.0380
 1280TIP3    H225476   6.374   1.443   8.739 -1.0169 -0.0124  0.2246
 1281TIP3   OH225477   4.566   0.462   2.852 -0.1640 -0.0430 -1.3841
 1281TIP3    H125478   4.658   0.471   2.827  0.1678 -1.2920 -0.7291
 1281TIP3    H225479   4.548   0.368   2.845 -1.0678  0.0338 -0.4294
 1282TIP3   OH225480   5.435   4.678   3.213  0.2690  0.3622  0.2952
 1282TIP3    H125481   5.432   4.597   3.263 -0.2379 -0.4025 -0.9472
 1282TIP3    H225482   5.497   4.733   3.261  0.6680 -0.7632  1.1149
 1283TIP3   OH225483   2.563   1.437   0.978  0.1805  0.7343  0.2063
 1283TIP3    H125484   2.592   1.362   0.925  1.5195  1.1761  0.2679
 1283TIP3    H225485   2.638   1.496   0.979 -0.8776  2.1391  0.0843
 1284TIP3   OH225486   3.661   4.253   1.951  0.5815 -0.3435  0.1389
 1284TIP3    H125487   3.736   4.258   1.891  0.2311 -1.1768 -0.3808
 1284TIP3    H225488   3.659   4.339   1.993  1.2359  0.0271 -0.5536
 1285TIP3   OH225489   0.066   2.461   2.091  0.4573  0.6101  0.0807
 1285TIP3    H125490   0.143   2.405   2.088  0.3088  0.4354 -0.5095
 1285TIP3    H225491   0.029   2.458   2.003  1.2341  2.7626 -0.3906
 1286TIP3   OH225492   1.659   6.311   0.867  0.1179  0.3544 -0.4013
 1286TIP3    H125493   1.676   6.400   0.898  1.0132  1.1172 -2.8827
 1286TIP3    H225494   1.580   6.284   0.914 -0.8430  2.8852 -0.4303
 1287TIP3   OH225495   6.803   3.530   1.836 -0.1258  0.0831 -0.6714
 1287TIP3    H125496   6.743   3.458   1.816 -1.4705  0.8805  0.2888
 1287TIP3    H225497   6.779   3.598   1.773  0.5649  0.0108 -1.0215
 1288TIP3   OH225498   0.874   5.374   0.883  0.1082 -0.2593 -0.0438
 1288TIP3    H125499   0.816   5.430   0.935 -0.3204  0.4332 -1.2200
 1288TIP3    H225500   0.846   5.285   0.904  1.4494 -0.1465  2.6080
 1289TIP3   OH225501   0.951   5.711   8.606 -0.4625 -0.0274  0.1093
 1289TIP3    H125502   0.867   5.734   8.567 -0.9511  1.2900  1.8078
 1289TIP3    H225503   1.003   5.791   8.600  0.5176 -0.6867 -0.4810
 1290TIP3   OH225504   0.382   4.822   2.750  0.0725 -0.6987  0.6309
 1290TIP3    H125505   0.320   4.869   2.695 -0.7097 -0.7591  1.4258
 1290TIP3    H225506   0.428   4.891   2.798  1.2435 -0.6113 -0.5724
 1291TIP3   OH225507   1.453   2.573   0.179  0.4549  0.1806 -0.4984
 1291TIP3    H125508   1.535   2.622   0.173  0.9612 -0.8106 -2.8986
 1291TIP3    H225509   1.479   2.488   0.214  0.2297  0.2928 -0.0549
 1292TIP3   OH225510   2.886   0.417   1.838 -0.5787  0.5256  0.4601
 1292TIP3    H125511   2.919   0.453   1.755  1.5498  0.9057  1.4077
 1292TIP3    H225512   2.860   0.328   1.816 -1.8462  1.2070 -1.0034
 1293TIP3   OH225513   1.554   6.465   8.426 -0.3195 -0.9943 -0.3973
 1293TIP3    H125514   1.493   6.519   8.475  0.8309  0.5347 -0.5680
 1293TIP3    H225515   1.599   6.413   8.492  0.0600 -0.1491  0.0313
 1294TIP3   OH225516   1.003   3.274   1.761 -0.4792  0.1391  0.1562
 1294TIP3    H125517   1.033   3.268   1.670  1.4995  2.0506  0.6041
 1294TIP3    H225518   0.979   3.366   1.772  0.2436  0.1560  1.8087
 1295TIP3   OH225519   3.366   1.033   8.182 -0.3281 -0.3576  0.4427
 1295TIP3    H125520   3.402   0.954   8.224 -2.7693 -2.1142 -0.5250
 1295TIP3    H225521   3.381   1.019   8.089  0.2140  0.9120  0.3204
 1296TIP3   OH225522   0.984   2.677   0.484 -0.8298 -0.0005  0.1321
 1296TIP3    H125523   0.986   2.674   0.388 -0.9985  1.4164  0.0642
 1296TIP3    H225524   1.037   2.753   0.507 -0.5614 -0.4853  1.1868
 1297TIP3   OH225525   5.498   0.798   8.260  0.2636  0.0739  0.2841
 1297TIP3    H125526   5.580   0.818   8.216  0.2404 -1.9089 -0.7296
 1297TIP3    H225527   5.466   0.718   8.219 -2.3908  0.9811  0.3765
 1298TIP3   OH225528   4.895   6.631   1.613  0.3087  0.0556 -0.4016
 1298TIP3    H125529   4.853   6.560   1.563  1.3804 -0.5846 -0.4322
 1298TIP3    H225530   4.948   6.677   1.548  1.0413 -0.2532 -0.0386
 1299TIP3   OH225531   4.839   1.876   3.179  0.1885 -0.5047 -0.2445
 1299TIP3    H125532   4.801   1.953   3.222  0.2779 -0.1523 -0.7867
 1299TIP3    H225533   4.763   1.822   3.157 -0.0964  0.5223 -1.9542
 1300TIP3   OH225534   5.596   0.900   1.312 -0.4654  0.9157  0.0232
 1300TIP3    H125535   5.558   0.812   1.312  2.0383 -0.2646  1.5411
 1300TIP3    H225536   5.545   0.948   1.378 -0.4748 -0.0856  0.7575
 1301TIP3   OH225537   4.837   4.889   1.002  0.1135  0.0762 -0.3097
 1301TIP3    H125538   4.805   4.892   0.912  0.4873  1.7467 -0.4186
 1301TIP3    H225539   4.888   4.808   1.007  0.4606  0.1883 -1.7318
 1302TIP3   OH225540   5.385   6.020   1.467  0.3564  0.2311 -0.3399
 1302TIP3    H125541   5.381   6.066   1.383  0.6362 -0.8833 -0.9698
 1302TIP3    H225542   5.474   6.037   1.499 -0.1725  1.8293  0.4444
 1303TIP3   OH225543   1.078   5.933   3.315 -0.4121 -0.5335  0.3208
 1303TIP3    H125544   1.106   5.899   3.400 -0.2902  1.6209  1.2023
 1303TIP3    H225545   1.012   5.999   3.336 -0.5643 -0.1382 -1.2877
 1304TIP3   OH225546   0.804   0.417   0.002 -0.0407 -0.1912  0.1577
 1304TIP3    H125547   0.730   0.459  -0.041  0.2666 -1.3776 -1.6112
 1304TIP3    H225548   0.881   0.450  -0.045  0.5935  0.8928  1.8533
 1305TIP3   OH225549   4.334   6.160   8.233 -0.4825 -0.3151  0.1851
 1305TIP3    H125550   4.424   6.190   8.243 -0.8887  1.3587 -0.8540
 1305TIP3    H225551   4.340   6.085   8.174  0.2674 -0.4876  0.4693
 1306TIP3   OH225552   6.262   6.348   3.103 -0.0549  0.0960 -0.2481
 1306TIP3    H125553   6.236   6.416   3.165  1.2883  0.2165  0.2219
 1306TIP3    H225554   6.249   6.266   3.151  0.6698  0.1732  0.1040
 1307TIP3   OH225555   1.261   4.705   2.179  0.5420  0.1242  0.5286
 1307TIP3    H125556   1.310   4.623   2.188  1.6412  0.5727 -0.9113
 1307TIP3    H225557   1.189   4.684   2.119 -1.0126 -0.4834  2.4863
 1308TIP3   OH225558   1.280   1.142   0.810  0.0738  0.1982 -0.1946
 1308TIP3    H125559   1.275   1.047   0.815  2.1351  0.1303  2.1593
 1308TIP3    H225560   1.200   1.167   0.762 -0.4536 -2.6663 -1.0199
 1309TIP3   OH225561   1.407   0.064   8.467  0.6224  0.6420 -0.7684
 1309TIP3    H125562   1.360   0.083   8.386 -0.6306  0.5954 -0.0800
 1309TIP3    H225563   1.342   0.020   8.523  2.0221 -1.1146 -0.4574
 1310TIP3   OH225564   3.950   4.006   1.001  0.5255 -0.5480 -0.1521
 1310TIP3    H125565   3.992   3.920   1.001 -2.4931 -2.2837 -3.6429
 1310TIP3    H225566   3.889   4.003   1.075  2.2226 -0.2780  1.3304
 1311TIP3   OH225567   3.777   6.570   1.206 -0.0408 -0.1075 -0.6255
 1311TIP3    H125568   3.758   6.621   1.128  0.2469  0.6851 -0.1915
 1311TIP3    H225569   3.862   6.602   1.235  0.4177 -1.2461 -0.6640
 1312TIP3   OH225570   5.399   0.012   1.875 -0.5041  0.0010 -0.2193
 1312TIP3    H125571   5.342   0.088   1.868  2.4754  2.6166  1.4122
 1312TIP3    H225572   5.369  -0.034   1.954 -1.4168  0.2967 -0.3867
 1313TIP3   OH225573   4.945   2.910   2.330  0.0799  0.0284 -0.2110
 1313TIP3    H125574   4.953   2.955   2.414 -1.6561 -1.9861  1.1746
 1313TIP3    H225575   4.934   2.818   2.354  1.0479 -0.8264 -2.7589
 1314TIP3   OH225576   3.985   6.104   3.249 -0.5049  0.1418  0.1900
 1314TIP3    H125577   3.983   6.185   3.199 -1.9517  0.2032  0.3080
 1314TIP3    H225578   3.943   6.125   3.332 -2.1958 -1.0170 -0.3031
 1315TIP3   OH225579   2.040   4.938   0.527 -0.0173 -0.3533 -0.0512
 1315TIP3    H125580   2.002   4.891   0.601 -0.6324 -0.5682 -0.5038
 1315TIP3    H225581   2.085   5.013   0.568 -1.9308  0.5997  0.4284
 1316TIP3   OH225582   1.074   6.110   2.699  0.1745 -0.1404  0.2561
 1316TIP3    H125583   1.140   6.071   2.758  1.1137 -0.7262 -1.1332
 1316TIP3    H225584   1.124   6.134   2.621 -0.8966  1.4346  0.0281
 1317TIP3   OH225585   0.531   2.863   2.825 -0.0343  0.0843 -0.3417
 1317TIP3    H125586   0.579   2.944   2.807  0.2213 -0.0050 -0.0663
 1317TIP3    H225587   0.512   2.867   2.919 -0.4155  0.0376 -0.4155
 1318TIP3   OH225588   0.401   5.375   1.121 -0.2759  0.0135 -0.0414
 1318TIP3    H125589   0.484   5.331   1.102  0.1041  0.0692  1.4153
 1318TIP3    H225590   0.334   5.315   1.088  0.3071 -0.4686 -0.3652
 1319TIP3   OH225591   0.450   1.061   0.483 -0.4717 -0.4228 -0.4371
 1319TIP3    H125592   0.475   1.073   0.391 -1.2840  0.1202 -0.5918
 1319TIP3    H225593   0.360   1.030   0.479 -0.0301 -1.8709  0.1364
 1320TIP3   OH225594   3.428   3.152   0.709 -0.2692 -0.1709  0.0493
 1320TIP3    H125595   3.489   3.219   0.679  0.4418 -1.1656 -0.7878
 1320TIP3    H225596   3.377   3.195   0.778 -0.8075  1.6564 -1.4256
 1321TIP3   OH225597   2.439   4.711   1.661 -0.0281  0.0814  0.3348
 1321TIP3    H125598   2.500   4.781   1.685  0.7855 -0.8537  1.0728
 1321TIP3    H225599   2.353   4.746   1.682  0.3827  0.7687  0.9288
 1322TIP3   OH225600   1.212   2.128   8.478  0.3921 -0.2526  0.5220
 1322TIP3    H125601   1.194   2.097   8.567  0.2097  2.8768  1.7023
 1322TIP3    H225602   1.146   2.196   8.463  0.0269 -1.0936 -2.3065
 1323TIP3   OH225603   0.225   0.737   2.710 -0.8606  0.0831  1.1180
 1323TIP3    H125604   0.290   0.744   2.780 -0.4742  1.6858  0.6550
 1323TIP3    H225605   0.145   0.772   2.748 -0.6292  1.0342  0.7711
 1324TIP3   OH225606   2.473   1.977   2.556 -0.0406 -0.1350 -0.6555
 1324TIP3    H125607   2.465   1.931   2.472 -0.9870  0.4051 -0.8744
 1324TIP3    H225608   2.545   2.039   2.543 -1.8407  1.8014 -1.9839
 1325TIP3   OH225609   1.129   4.576   0.400  0.2682  0.1143 -0.0766
 1325TIP3    H125610   1.181   4.655   0.385 -0.6145  0.5674 -0.9077
 1325TIP3    H225611   1.094   4.587   0.488 -0.2182  0.8925 -0.3531
 1326TIP3   OH225612   3.998   4.871   0.751 -0.1665 -0.1746 -0.2847
 1326TIP3    H125613   3.982   4.929   0.676  1.4182 -1.1450 -1.4476
 1326TIP3    H225614   3.961   4.787   0.724 -0.9571 -0.1413  0.6804
 1327TIP3   OH225615   6.048   0.313   8.763  0.3266  0.2222 -0.8214
 1327TIP3    H125616   6.005   0.228   8.763  0.3775  0.1029  1.8995
 1327TIP3    H225617   6.110   0.309   8.691  0.4361 -2.1277 -0.6537
 1328TIP3   OH225618   4.970   4.703   1.148 -0.0208  0.1263 -0.1483
 1328TIP3    H125619   5.051   4.661   1.120 -0.7988 -1.7353  0.2722
 1328TIP3    H225620   4.998   4.771   1.209  1.4253  1.7550 -2.4488
 1329TIP3   OH225621   2.022   0.001   0.517  0.5064 -0.0232 -0.1429
 1329TIP3    H125622   2.114  -0.026   0.518  0.5382 -0.0150 -1.2039
 1329TIP3    H225623   1.974  -0.077   0.490  0.3537  0.3157 -0.8872
 1330TIP3   OH225624   0.370   1.479   3.321  0.1016  0.5490 -0.1127
 1330TIP3    H125625   0.429   1.507   3.391 -0.4653  0.7912  0.2732
 1330TIP3    H225626   0.321   1.558   3.298 -0.9402  0.0628  0.4220
 1331TIP3   OH225627   1.586   5.744   2.312  0.1001 -0.2134  0.3444
 1331TIP3    H125628   1.665   5.714   2.268 -0.8552  0.8806 -2.3090
 1331TIP3    H225629   1.606   5.833   2.339 -0.2682  0.1150 -0.4607
 1332TIP3   OH225630   4.033   0.303   7.607 -0.3564 -0.8598  0.0728
 1332TIP3    H125631   3.965   0.370   7.619  1.4685  1.5668 -1.9457
 1332TIP3    H225632   3.990   0.233   7.559 -1.5200  0.4910 -0.9300
 1333TIP3   OH225633   1.498   6.573   2.775 -0.3610  0.0369 -0.3049
 1333TIP3    H125634   1.499   6.668   2.759  0.1061  0.5434  2.2703
 1333TIP3    H225635   1.589   6.547   2.767 -0.4157 -0.0978 -0.4881
 1334TIP3   OH225636   2.741   5.918   8.756 -0.3501 -0.0249 -0.2237
 1334TIP3    H125637   2.669   5.855   8.748  0.8142 -1.5543  0.7142
 1334TIP3    H225638   2.738   5.946   8.847  0.8155 -0.8918  0.1106
 1335TIP3   OH225639   1.079   0.680   3.187  0.2364 -0.0702  1.0465
 1335TIP3    H125640   1.008   0.639   3.138  2.7701 -1.7251 -1.5683
 1335TIP3    H225641   1.136   0.718   3.120  2.9454 -0.7213  2.7878
 1336TIP3   OH225642   2.236   0.558   7.231  0.2622  0.0383 -0.6159
 1336TIP3    H125643   2.257   0.611   7.154  1.9096 -2.3964 -1.9816
 1336TIP3    H225644   2.140   0.551   7.230  0.2803 -0.4459 -2.8410
 1337TIP3   OH225645   0.615   3.240   7.605  0.5761 -0.0702 -0.0631
 1337TIP3    H125646   0.621   3.297   7.529  1.9313  0.0885  0.1500
 1337TIP3    H225647   0.684   3.175   7.593  0.4762 -0.3544  0.7795
 1338TIP3   OH225648   4.266   6.792   8.567  0.1934 -0.1336  0.3278
 1338TIP3    H125649   4.205   6.727   8.531 -0.8200  0.7604  0.3724
 1338TIP3    H225650   4.271   6.860   8.499  0.5546  0.1520  0.6395
 1339TIP3   OH225651   2.950   4.176   1.934 -0.7627 -0.1831 -0.6579
 1339TIP3    H125652   2.925   4.243   1.872 -3.6124 -0.2279  0.3174
 1339TIP3    H225653   2.906   4.200   2.016  1.3968 -1.0946  0.8914
 1340TIP3   OH225654   3.997   6.450   1.965  0.2376  0.3160  0.3602
 1340TIP3    H125655   4.004   6.466   1.871 -1.5818  1.6584  0.3969
 1340TIP3    H225656   3.965   6.360   1.971 -1.8394  0.9475 -0.4448
 1341TIP3   OH225657   3.634   5.900   0.093 -0.1377  0.5783  0.7164
 1341TIP3    H125658   3.650   5.903  -0.001 -0.3461  0.5073  0.6776
 1341TIP3    H225659   3.586   5.981   0.112 -0.6369  0.3022  0.6560
 1342TIP3   OH225660   0.770   0.811   8.643 -0.4034 -0.9368  0.2129
 1342TIP3    H125661   0.807   0.856   8.567 -2.3971  0.6231  0.0787
 1342TIP3    H225662   0.797   0.864   8.718 -1.1860 -0.5370  0.2321
 1343TIP3   OH225663   4.793   4.829   2.436 -0.6454 -0.3566  0.2388
 1343TIP3    H125664   4.806   4.815   2.529  2.6115 -3.4892 -0.4838
 1343TIP3    H225665   4.741   4.755   2.407 -1.5183  0.5198 -0.5286
 1344TIP3   OH225666   0.458   4.018   2.378  0.1765  0.3808 -0.2381
 1344TIP3    H125667   0.385   3.982   2.427  0.5010  1.9171  1.4603
 1344TIP3    H225668   0.477   3.952   2.311 -0.6855 -1.5173  1.3002
 1345TIP3   OH225669   2.745   5.379   8.112 -0.1208  0.3843  0.1595
 1345TIP3    H125670   2.733   5.440   8.038  1.1318 -0.6809 -0.9715
 1345TIP3    H225671   2.657   5.343   8.126 -0.1201 -0.6124 -1.9506
 1346TIP3   OH225672   2.825   5.101   1.640 -0.4275  0.6639 -0.1518
 1346TIP3    H125673   2.919   5.096   1.660 -0.0655  1.2563 -1.5604
 1346TIP3    H225674   2.802   5.193   1.656 -1.1208  0.2471  1.4893
 1347TIP3   OH225675   1.142   2.958   8.690  0.5782  0.1006  0.6002
 1347TIP3    H125676   1.225   2.945   8.645  1.2525  2.1602  1.1472
 1347TIP3    H225677   1.164   2.961   8.782 -0.2068 -0.0175  0.8048
 1348TIP3   OH225678   4.460   0.540   0.715  0.1865  0.4307  0.1801
 1348TIP3    H125679   4.377   0.587   0.707 -1.2142 -1.8171  0.7035
 1348TIP3    H225680   4.471   0.525   0.808  1.0068  0.3709  0.0822
 1349TIP3   OH225681   4.571   5.545   7.547  0.0801 -0.0248 -0.0948
 1349TIP3    H125682   4.489   5.594   7.537  0.5275  0.8132  0.2864
 1349TIP3    H225683   4.543   5.453   7.554 -0.9534  0.3950  1.6490
 1350TIP3   OH225684   3.194   4.802   7.811 -0.2345  0.8678  0.0689
 1350TIP3    H125685   3.139   4.878   7.827 -0.2860  0.4031  2.3440
 1350TIP3    H225686   3.134   4.727   7.816 -0.1554  0.6019 -1.9713
 1351TIP3   OH225687   4.219   0.490   8.368  0.1411 -0.8065  0.2539
 1351TIP3    H125688   4.202   0.421   8.305 -1.3772 -1.0406  0.8732
 1351TIP3    H225689   4.314   0.490   8.380  0.0870 -3.8205  1.3835
 1352TIP3   OH225690   5.729   0.319   0.755  0.8163 -0.3634  0.7324
 1352TIP3    H125691   5.713   0.412   0.772 -0.5447 -0.6499  1.2088
 1352TIP3    H225692   5.794   0.318   0.685  2.7560  0.9101  2.4349
 1353TIP3   OH225693   1.277   6.726   7.310  0.2179 -0.0699 -0.6997
 1353TIP3    H125694   1.292   6.632   7.298  1.5598  0.0373 -0.0161
 1353TIP3    H225695   1.213   6.748   7.242 -1.1263 -1.7190 -0.0527
 1354TIP3   OH225696   6.490   3.704   1.599 -0.0630  0.5210 -0.2671
 1354TIP3    H125697   6.445   3.788   1.605 -1.5749 -0.3052  0.4543
 1354TIP3    H225698   6.495   3.673   1.689 -0.7025 -0.7421 -0.6453
 1355TIP3   OH225699   5.367   1.233   1.297  0.3233 -0.7800  0.0491
 1355TIP3    H125700   5.295   1.271   1.347 -2.5676 -2.6671 -2.3143
 1355TIP3    H225701   5.398   1.304   1.241 -1.1021 -0.4040 -0.2901
 1356TIP3   OH225702   1.335   1.402   1.543 -0.3250 -0.2428  0.2965
 1356TIP3    H125703   1.408   1.418   1.484 -0.3231  0.2296  0.4224
 1356TIP3    H225704   1.326   1.307   1.545  1.2043 -0.3872  1.4049
 1357TIP3   OH225705   2.036   5.866   8.146  0.1935  0.0235 -0.4123
 1357TIP3    H125706   1.945   5.893   8.133  0.1843  0.8206  1.1621
 1357TIP3    H225707   2.087   5.945   8.133  0.3695  0.3270  1.7651
 1358TIP3   OH225708   6.626   2.030   1.782 -0.3801  0.2198 -0.0466
 1358TIP3    H125709   6.542   1.999   1.816 -0.9939  1.3595 -0.4400
 1358TIP3    H225710   6.683   2.037   1.858 -0.2622 -1.6190  0.0856
 1359TIP3   OH225711   2.484   3.579   0.227  0.2186 -0.2658 -0.7287
 1359TIP3    H125712   2.413   3.643   0.236  0.6368  0.1937 -0.6965
 1359TIP3    H225713   2.459   3.528   0.150 -0.9900 -1.1951  0.2366
 1360TIP3   OH225714   1.544   6.264   2.376  0.3528  0.0119  0.1865
 1360TIP3    H125715   1.465   6.256   2.429  1.6474  2.2777  2.6613
 1360TIP3    H225716   1.602   6.195   2.408  1.0673  1.2681  1.6708
 1361TIP3   OH225717   1.626   5.564   3.006  0.0294  0.4120  0.6783
 1361TIP3    H125718   1.633   5.650   2.965  0.7755 -0.3958 -1.0070
 1361TIP3    H225719   1.532   5.546   3.005  0.0758 -0.2996 -2.4696
 1362TIP3   OH225720   3.390   2.222   2.683  0.1371 -0.4369  0.4010
 1362TIP3    H125721   3.301   2.236   2.651 -0.0162 -0.6239  0.7425
 1362TIP3    H225722   3.386   2.138   2.729 -0.1586  0.7638  2.7212
 1363TIP3   OH225723   6.638   6.440   2.408 -0.1432  0.2530  0.0239
 1363TIP3    H125724   6.605   6.451   2.319 -2.3576 -1.9305  0.4725
 1363TIP3    H225725   6.703   6.371   2.401 -0.0214  0.3638  0.0537
 1364TIP3   OH225726   6.156   1.707   1.913  0.6224  0.1022 -0.1617
 1364TIP3    H125727   6.246   1.675   1.926  1.1541  1.4629 -0.3386
 1364TIP3    H225728   6.139   1.761   1.990  1.3413  2.8069 -1.7532
 1365TIP3   OH225729   5.444   1.586   1.296 -0.0962  0.2456  0.1402
 1365TIP3    H125730   5.450   1.658   1.233 -0.0872  0.5843  0.5218
 1365TIP3    H225731   5.383   1.618   1.362  0.5441  0.2264  0.7435
 1366TIP3   OH225732   1.928   6.597   2.531 -0.0304 -0.4498  0.1693
 1366TIP3    H125733   1.973   6.672   2.490 -0.4347 -0.2274  0.1203
 1366TIP3    H225734   1.987   6.523   2.518  0.7529  0.0266  0.9464
 1367TIP3   OH225735   2.422   2.140   8.397 -0.1298 -0.8814  0.3923
 1367TIP3    H125736   2.507   2.174   8.370 -0.9788  0.6714 -0.4955
 1367TIP3    H225737   2.374   2.126   8.315 -2.1186  2.1726  0.8470
 1368TIP3   OH225738   3.804   1.558   8.779  0.1336  0.9593  0.0650
 1368TIP3    H125739   3.888   1.545   8.736 -0.0353 -1.8936  0.3714
 1368TIP3    H225740   3.779   1.471   8.809 -1.0671  2.2955  3.5043
 1369TIP3   OH225741   6.335   0.587   2.276 -0.8182 -0.2078 -0.1831
 1369TIP3    H125742   6.381   0.637   2.209 -0.6434  0.5599  0.4876
 1369TIP3    H225743   6.246   0.578   2.242 -1.2088  1.6839  0.2198
 1370TIP3   OH225744   5.050   3.389   2.029  0.2223  0.0721 -0.1689
 1370TIP3    H125745   5.122   3.412   1.969 -0.1620 -0.6199 -0.9159
 1370TIP3    H225746   5.089   3.325   2.089  0.6380  0.8461  0.3948
 1371TIP3   OH225747   4.915   6.005   2.120 -0.5249 -0.6543  0.2706
 1371TIP3    H125748   4.898   6.009   2.025  1.2815  1.7049 -0.0520
 1371TIP3    H225749   4.831   6.024   2.160 -0.4991  2.9700 -1.0493
 1372TIP3   OH225750   1.252   1.577   8.271  0.4555  0.1477  0.7955
 1372TIP3    H125751   1.237   1.665   8.306 -1.4485 -0.3759  1.3908
 1372TIP3    H225752   1.202   1.575   8.190  2.0544  0.1975 -0.2460
 1373TIP3   OH225753   2.647   0.863   1.031 -0.1970 -0.4097 -0.1665
 1373TIP3    H125754   2.694   0.941   1.061 -1.8603  1.1481 -1.4007
 1373TIP3    H225755   2.705   0.824   0.965  0.4654  0.0132  0.1528
 1374TIP3   OH225756   2.456   2.050   0.833 -0.4828  0.0529 -0.2909
 1374TIP3    H125757   2.408   2.132   0.824  1.9678  1.9144  1.8298
 1374TIP3    H225758   2.520   2.051   0.762  1.7549  1.8212  1.5652
 1375TIP3   OH225759   1.473   6.070   0.892 -0.1430  0.4471 -0.1027
 1375TIP3    H125760   1.464   5.981   0.926 -0.7191  0.6709  0.3493
 1375TIP3    H225761   1.383   6.097   0.874 -0.1758  1.6438  1.6019
 1376TIP3   OH225762   1.307   4.204   8.584 -0.6270  0.1887  0.6004
 1376TIP3    H125763   1.227   4.170   8.546  0.2762 -2.1694  0.6729
 1376TIP3    H225764   1.377   4.178   8.523  0.3048  0.5363  1.4801
 1377TIP3   OH225765   2.511   1.821   8.804  0.8933  0.3653 -0.0600
 1377TIP3    H125766   2.432   1.799   8.852  0.8660  0.2249 -0.1671
 1377TIP3    H225767   2.524   1.914   8.819  1.3707  0.1467  0.9370
 1378TIP3   OH225768   3.512   6.176   1.327 -0.0792 -0.6749 -0.5248
 1378TIP3    H125769   3.512   6.203   1.235 -0.9097 -0.0756 -0.3539
 1378TIP3    H225770   3.431   6.211   1.363  0.6750 -0.0883  0.6758
 1379TIP3   OH225771   3.062   4.320   0.218 -0.0624  0.1911 -0.1950
 1379TIP3    H125772   3.011   4.364   0.287 -0.6688  0.4245 -0.7787
 1379TIP3    H225773   3.065   4.384   0.147  1.6444  0.4572  0.0738
 1380TIP3   OH225774   2.038   0.856   0.524  0.0878  0.5986  0.3852
 1380TIP3    H125775   2.114   0.850   0.582  0.2914  1.3558  0.2005
 1380TIP3    H225776   1.993   0.936   0.550  0.4835  1.2447 -0.8590
 1381TIP3   OH225777   3.699   2.897   8.430  0.0432  0.2281  0.4130
 1381TIP3    H125778   3.768   2.916   8.367  0.6376 -0.7244  0.7503
 1381TIP3    H225779   3.738   2.918   8.515 -0.3479  0.3970  0.5548
 1382TIP3   OH225780   2.113   2.591   3.111  0.2120  0.0421  0.0519
 1382TIP3    H125781   2.166   2.569   3.188 -0.9135 -1.0423  0.5514
 1382TIP3    H225782   2.069   2.672   3.134  0.7419  0.3224  0.0949
 1383TIP3   OH225783   3.112   4.091   7.570  0.5944 -0.3093 -0.2962
 1383TIP3    H125784   3.044   4.128   7.514  0.7153  2.2418  1.1069
 1383TIP3    H225785   3.079   4.104   7.659  2.6874  0.6040  0.4012
 1384TIP3   OH225786   1.826   2.670   8.746 -0.0779  0.2477  0.1487
 1384TIP3    H125787   1.789   2.632   8.666 -1.3019 -0.3720  0.9869
 1384TIP3    H225788   1.911   2.628   8.755 -1.0611 -1.7401  0.6152
 1385TIP3   OH225789   5.870   2.513   8.345 -0.3005 -0.1104 -0.0317
 1385TIP3    H125790   5.789   2.536   8.389 -0.3233  0.0967 -0.1786
 1385TIP3    H225791   5.849   2.434   8.295 -0.3099 -0.2696  0.2225
 1386TIP3   OH225792   1.798   4.562   2.349  0.7419  0.3820 -0.3770
 1386TIP3    H125793   1.704   4.577   2.357  0.3507 -1.1983 -1.5548
 1386TIP3    H225794   1.810   4.470   2.371  2.1895  0.8093  0.8039
 1387TIP3   OH225795   6.172   1.721   0.952  0.0249 -0.2352  0.5448
 1387TIP3    H125796   6.108   1.665   0.996  0.2661 -0.3627  0.7372
 1387TIP3    H225797   6.214   1.770   1.023  0.2169 -0.2347  0.4327
 1388TIP3   OH225798   0.130   2.128   8.127  0.2864 -0.1063  0.3022
 1388TIP3    H125799   0.205   2.162   8.176  1.3294 -0.0747 -1.2568
 1388TIP3    H225800   0.105   2.048   8.174  2.7829 -1.3966 -0.4071
 1389TIP3   OH225801   5.602   3.943   1.012 -0.2777  0.1558 -0.2588
 1389TIP3    H125802   5.557   4.028   1.011  0.0226  0.3136 -0.9402
 1389TIP3    H225803   5.675   3.954   0.950  0.2347 -0.3445  0.2423
 1390TIP3   OH225804   5.388   1.464   0.586  0.1158  0.2737  0.3635
 1390TIP3    H125805   5.313   1.466   0.644  0.4995 -0.7891  0.9217
 1390TIP3    H225806   5.361   1.407   0.513 -0.3641  1.5989 -0.5354
 1391TIP3   OH225807   0.013   5.452   1.811  0.0549  0.2169 -0.1576
 1391TIP3    H125808   0.021   5.482   1.901 -0.5315  1.6134 -0.5314
 1391TIP3    H225809   0.101   5.422   1.788  0.7230  1.7449  0.2637
 1392TIP3   OH225810   2.185   6.166   1.203  0.1326  0.1291 -0.2611
 1392TIP3    H125811   2.221   6.083   1.232 -0.9381  0.4113  2.1082
 1392TIP3    H225812   2.153   6.149   1.114  1.7308 -1.3830 -0.5866
 1393TIP3   OH225813   0.006   0.415   3.277 -0.3562  0.1844  0.0369
 1393TIP3    H125814  -0.076   0.463   3.288 -1.0669 -1.0783  0.3401
 1393TIP3    H225815   0.044   0.410   3.365 -0.6022 -0.3588  0.1151
 1394TIP3   OH225816   0.094   5.877   8.301  0.1240 -0.3012 -0.2634
 1394TIP3    H125817   0.101   5.815   8.374 -0.5246  0.4866  0.4915
 1394TIP3    H225818   0.166   5.939   8.315 -0.1798  0.0251 -0.1087
 1395TIP3   OH225819   0.907   3.566   1.430  0.8200  0.0191  0.5028
 1395TIP3    H125820   0.820   3.576   1.468  0.3284  0.1026 -0.5968
 1395TIP3    H225821   0.965   3.558   1.505 -0.0821  0.3958  1.2671
 1396TIP3   OH225822   4.923   2.630   2.302 -0.1032  0.0434  0.0077
 1396TIP3    H125823   4.882   2.554   2.261  0.6568  0.6984 -2.0712
 1396TIP3    H225824   4.935   2.604   2.394 -0.5699 -2.0221 -0.4646
 1397TIP3   OH225825   1.545   4.320   3.010 -0.4042  0.6125 -0.0480
 1397TIP3    H125826   1.512   4.273   3.086 -0.7554 -2.5031 -1.9127
 1397TIP3    H225827   1.638   4.297   3.006 -0.1217  1.6933  0.0507
 1398TIP3   OH225828   6.800   2.054   1.992  0.0089 -0.2405 -0.3665
 1398TIP3    H125829   6.893   2.043   2.012  0.5661  0.3644 -2.4126
 1398TIP3    H225830   6.759   2.069   2.077  1.6270 -1.4550  0.6779
 1399TIP3   OH225831   3.663   0.943   0.083 -0.1815  0.5539 -0.5055
 1399TIP3    H125832   3.621   0.990   0.155 -1.1523  0.8597 -1.2441
 1399TIP3    H225833   3.756   0.944   0.104 -0.2429  2.2656 -0.1746
 1400TIP3   OH225834   4.028   6.674   1.279  0.4995  0.4683 -0.1351
 1400TIP3    H125835   4.093   6.725   1.327 -0.5630  0.0494  1.8727
 1400TIP3    H225836   4.073   6.593   1.257  0.5772 -0.0170  1.6538
 1401TIP3   OH225837   5.813   1.826   0.856  0.1715  0.2901  0.0400
 1401TIP3    H125838   5.897   1.860   0.823  0.6434 -1.3781 -0.5650
 1401TIP3    H225839   5.791   1.884   0.929  1.5534  1.1302 -0.1750
 1402TIP3   OH225840   5.222   1.587   1.098 -0.6484  0.8575 -0.0975
 1402TIP3    H125841   5.292   1.652   1.091 -1.7285  1.9559 -1.3275
 1402TIP3    H225842   5.198   1.587   1.191  0.5062  0.9656  0.2134
 1403TIP3   OH225843   1.018   2.970   1.681 -0.4535  0.3970  0.5474
 1403TIP3    H125844   1.103   2.991   1.719  0.2322  0.6194 -1.0461
 1403TIP3    H225845   0.981   2.904   1.740  0.9674  0.0339  1.0755
 1404TIP3   OH225846   4.578   2.141   7.336  0.6119  0.0525  0.2002
 1404TIP3    H125847   4.656   2.151   7.281  0.5670  0.0768  0.1408
 1404TIP3    H225848   4.608   2.089   7.411  0.4079 -0.9556 -0.4026
 1405TIP3   OH225849   5.775   1.560   1.485 -0.6284 -0.4966  0.0050
 1405TIP3    H125850   5.862   1.543   1.519 -0.7187 -1.2339 -0.1132
 1405TIP3    H225851   5.787   1.563   1.390 -0.5207  0.6912  0.0423
 1406TIP3   OH225852   6.508   5.371   2.296  0.2821  0.6275 -0.1941
 1406TIP3    H125853   6.482   5.384   2.205  2.1552  1.1666 -0.6971
 1406TIP3    H225854   6.426   5.372   2.345 -0.7297  0.7584 -1.8131
 1407TIP3   OH225855   3.920   2.642   7.409 -0.4374  0.2549  0.1284
 1407TIP3    H125856   4.009   2.647   7.444 -0.8000  1.2628  0.9642
 1407TIP3    H225857   3.877   2.573   7.460 -0.6170  0.9194  0.8910
 1408TIP3   OH225858   0.800   0.925   7.964 -0.6060  0.5106 -0.7311
 1408TIP3    H125859   0.737   0.919   7.892 -1.0937  0.1089 -0.2808
 1408TIP3    H225860   0.885   0.932   7.921 -0.9373  0.8269 -1.3491
 1409TIP3   OH225861   2.428   1.980   8.067  0.1252  0.8906 -0.0878
 1409TIP3    H125862   2.345   1.989   8.114 -0.1485 -1.6781  0.0714
 1409TIP3    H225863   2.406   2.000   7.976 -2.0291 -4.1651 -1.0258
 1410TIP3   OH225864   0.466   5.117   1.350 -0.1921  0.5214  0.1603
 1410TIP3    H125865   0.533   5.079   1.406  0.5147  0.3291 -0.7903
 1410TIP3    H225866   0.390   5.127   1.407  0.2826 -0.3216  0.9721
 1411TIP3   OH225867   6.711   2.573   1.866 -0.2542 -0.4217  0.1665
 1411TIP3    H125868   6.732   2.506   1.802  1.5836 -0.7198  1.0182
 1411TIP3    H225869   6.708   2.655   1.816  0.6097 -0.7256 -0.3966
 1412TIP3   OH225870   4.655   2.710   8.040  0.4550  0.1178  0.3497
 1412TIP3    H125871   4.599   2.658   7.983 -1.2514  1.8179  0.4011
 1412TIP3    H225872   4.734   2.656   8.051 -0.2370 -1.3753 -1.4863
 1413TIP3   OH225873   6.496   5.551   1.355  0.1626 -0.9325  0.3510
 1413TIP3    H125874   6.420   5.499   1.383 -0.1073 -0.1250  1.1952
 1413TIP3    H225875   6.572   5.501   1.385 -0.1015 -0.6760  1.5113
 1414TIP3   OH225876   2.420   0.119   2.860  0.0003 -0.3334 -0.0179
 1414TIP3    H125877   2.337   0.158   2.888  0.2474 -0.0344  0.3155
 1414TIP3    H225878   2.459   0.086   2.941 -1.1469 -3.1939 -0.5348
 1415TIP3   OH225879   3.647   2.417   3.284 -0.2288 -0.5564 -0.2184
 1415TIP3    H125880   3.618   2.409   3.374 -0.0983 -1.3700 -0.2435
 1415TIP3    H225881   3.723   2.475   3.288  1.9827 -3.3029  0.7013
 1416TIP3   OH225882   6.354   0.864   7.891 -0.3929 -0.1331  0.0594
 1416TIP3    H125883   6.314   0.784   7.857 -1.3695  0.5374 -0.4170
 1416TIP3    H225884   6.357   0.923   7.816  0.3224  0.2803  0.4045
 1417TIP3   OH225885   5.018   5.678   0.907 -0.2840 -0.4723 -0.3980
 1417TIP3    H125886   5.086   5.720   0.855  0.2691 -1.2202 -0.2963
 1417TIP3    H225887   5.056   5.670   0.995 -1.0287  0.3471  0.0171
 1418TIP3   OH225888   5.808   1.401   8.646  0.6538 -0.5446 -0.0919
 1418TIP3    H125889   5.736   1.404   8.708 -0.2858 -1.2786 -1.1158
 1418TIP3    H225890   5.873   1.461   8.682 -1.0073  1.1895  0.1629
 1419TIP3   OH225891   3.063   5.814   2.511  0.0601  0.3666 -0.2034
 1419TIP3    H125892   3.152   5.786   2.490  0.3441  1.7254 -0.9685
 1419TIP3    H225893   3.024   5.836   2.427 -0.5756  0.9617  0.2347
 1420TIP3   OH225894   6.674   1.625   2.007 -0.4836  0.0586 -0.3050
 1420TIP3    H125895   6.655   1.532   2.016  0.3397 -0.4327 -2.8728
 1420TIP3    H225896   6.768   1.629   1.991 -0.7428  1.1563 -1.7567
 1421TIP3   OH225897   3.563   0.249   8.201 -0.0175 -0.6680 -0.8129
 1421TIP3    H125898   3.612   0.193   8.262 -0.7568 -0.1713  0.2676
 1421TIP3    H225899   3.474   0.216   8.203 -1.1500  2.0568  1.9288
 1422TIP3   OH225900   4.125   1.499   0.838 -0.1575 -0.2397  0.1689
 1422TIP3    H125901   4.041   1.545   0.841  0.5395  1.1013 -0.0123
 1422TIP3    H225902   4.119   1.433   0.907 -0.2852  1.8033  2.2487
 1423TIP3   OH225903   5.102   6.767   1.436  0.0820  0.1021  0.1043
 1423TIP3    H125904   5.151   6.749   1.517 -0.6122 -1.9580  0.1205
 1423TIP3    H225905   5.167   6.762   1.367  0.5835  1.3417  0.4623
 1424TIP3   OH225906   4.249   2.335   7.998  0.5482  0.1370 -0.4256
 1424TIP3    H125907   4.284   2.249   7.977 -1.4861 -0.8955  0.1523
 1424TIP3    H225908   4.167   2.340   7.950  0.1048  1.3085  0.4114
 1425TIP3   OH225909   1.418   1.145   1.563  0.1615 -0.7583 -0.2000
 1425TIP3    H125910   1.418   1.134   1.658 -0.2232  1.9173  0.1983
 1425TIP3    H225911   1.341   1.097   1.534 -1.4090  0.7212  1.2641
 1426TIP3   OH225912   2.006   5.777   7.533 -0.1591 -0.8345 -0.3951
 1426TIP3    H125913   2.092   5.788   7.493 -0.1390  0.3752 -0.0606
 1426TIP3    H225914   1.945   5.810   7.467 -0.0765  1.9170  0.7509
 1427TIP3   OH225915   6.792   5.837   0.963  0.1468 -0.1606  0.4978
 1427TIP3    H125916   6.702   5.837   0.997  0.0599 -2.2178  0.4129
 1427TIP3    H225917   6.783   5.859   0.871 -0.0605  1.3286  0.8477
 1428TIP3   OH225918   0.769   0.029   1.178 -0.0794  0.0866  0.5700
 1428TIP3    H125919   0.749   0.104   1.122  0.6080 -1.7153 -2.3159
 1428TIP3    H225920   0.844   0.057   1.230  0.7963  1.1352 -1.1654
 1429TIP3   OH225921   2.107   2.342   0.376 -0.3220 -0.6019  0.2277
 1429TIP3    H125922   2.142   2.285   0.445 -1.0568  0.2132  1.3165
 1429TIP3    H225923   2.052   2.405   0.423 -0.6709  0.1171 -1.0952
 1430TIP3   OH225924   2.814   3.835   8.166 -0.6051  0.2726 -0.5021
 1430TIP3    H125925   2.782   3.869   8.082 -0.1744  2.4222  0.1731
 1430TIP3    H225926   2.778   3.894   8.232  1.7275  0.6085  0.5656
 1431TIP3   OH225927   1.303   3.736   7.972 -0.1391 -0.1292 -0.5984
 1431TIP3    H125928   1.370   3.761   8.035 -0.4265 -0.8868  0.0144
 1431TIP3    H225929   1.223   3.728   8.024 -0.8289  1.2320 -1.3868
 1432TIP3   OH225930   5.223   2.840   3.137  0.5323 -0.2599 -0.0480
 1432TIP3    H125931   5.270   2.920   3.160  2.2830 -1.2382 -0.0800
 1432TIP3    H225932   5.175   2.862   3.057  1.3383  0.6268 -0.3017
 1433TIP3   OH225933   4.852   3.215   8.080 -0.6822 -0.4701 -0.3070
 1433TIP3    H125934   4.943   3.214   8.050  0.0929  0.0939  1.8572
 1433TIP3    H225935   4.802   3.236   8.001  1.1926  0.8320 -1.2443
 1434TIP3   OH225936   4.346   2.096   7.898  0.0481 -0.2159 -0.3298
 1434TIP3    H125937   4.289   2.025   7.927 -1.3606  1.1473  0.4261
 1434TIP3    H225938   4.358   2.081   7.805 -2.9740  0.3427 -0.8853
 1435TIP3   OH225939   6.165   5.694   0.412 -0.1899  0.3800 -0.1442
 1435TIP3    H125940   6.118   5.767   0.371  1.5686  0.8414 -1.4604
 1435TIP3    H225941   6.115   5.616   0.387 -0.5720  0.9001 -1.0286
 1436TIP3   OH225942   2.574   0.962   7.041 -0.1019  0.1576  0.1290
 1436TIP3    H125943   2.564   0.958   7.136 -1.2297  0.9437  0.0618
 1436TIP3    H225944   2.619   0.880   7.018  0.0082 -0.1287  1.3130
 1437TIP3   OH225945   5.805   3.849   0.498  0.2441  1.1151 -0.0212
 1437TIP3    H125946   5.723   3.819   0.539  0.3410 -0.2743 -0.7681
 1437TIP3    H225947   5.867   3.778   0.516 -0.0245 -0.2430 -3.5449
 1438TIP3   OH225948   2.137   4.136   0.724  0.1250  0.3199  0.2425
 1438TIP3    H125949   2.058   4.186   0.748 -0.8317 -1.3834  0.7922
 1438TIP3    H225950   2.144   4.069   0.792  1.7384  0.0883 -0.1295
 1439TIP3   OH225951   3.224   1.972   2.792  0.0456 -0.2568 -0.2211
 1439TIP3    H125952   3.297   1.955   2.852 -0.7000 -0.1367  0.7463
 1439TIP3    H225953   3.172   2.039   2.836 -0.2963  0.1390 -1.2053
 1440TIP3   OH225954   5.484   2.379   0.282 -0.2563 -0.4729 -0.0697
 1440TIP3    H125955   5.439   2.303   0.246 -0.6087  0.3537 -1.4235
 1440TIP3    H225956   5.538   2.412   0.210  0.6878 -0.0303  0.8053
 1441TIP3   OH225957   2.565   1.082   2.548 -0.1548 -0.8421 -0.5504
 1441TIP3    H125958   2.520   1.125   2.622 -0.9061 -2.4564 -0.0317
 1441TIP3    H225959   2.608   1.007   2.587  0.5285 -0.9872 -1.5680
 1442TIP3   OH225960   1.879   4.123   1.831 -0.2294 -0.1628  0.4550
 1442TIP3    H125961   1.968   4.142   1.861  1.0890 -1.0174 -2.5357
 1442TIP3    H225962   1.872   4.171   1.748 -1.5591 -2.2478 -0.7079
 1443TIP3   OH225963   2.836   1.611   1.784  0.4786 -0.2635  0.0093
 1443TIP3    H125964   2.867   1.668   1.854 -1.3884 -0.9353  1.4683
 1443TIP3    H225965   2.870   1.524   1.805  0.3056 -0.3806 -0.1831
 1444TIP3   OH225966   0.297   6.605   2.762 -0.3670 -0.4654  0.5369
 1444TIP3    H125967   0.364   6.671   2.784 -2.0966  0.8143  2.3855
 1444TIP3    H225968   0.316   6.531   2.820  0.9906 -1.2555 -0.8492
 1445TIP3   OH225969   1.323   3.421   1.411 -0.1493  0.6042  0.4942
 1445TIP3    H125970   1.351   3.388   1.496 -0.8296 -0.4021  0.3451
 1445TIP3    H225971   1.357   3.510   1.408 -1.7121  1.3550  2.6149
 1446TIP3   OH225972   3.585   1.476   0.683  0.1872 -0.4624  0.0753
 1446TIP3    H125973   3.524   1.415   0.641 -0.2141 -0.0082 -0.0070
 1446TIP3    H225974   3.660   1.480   0.623  1.1049 -2.3540  0.9899
 1447TIP3   OH225975   3.659   5.491   0.287 -0.2713 -0.3887 -0.0111
 1447TIP3    H125976   3.749   5.460   0.277 -0.1727 -0.1192  0.0439
 1447TIP3    H225977   3.626   5.498   0.197  0.3504  1.2525 -0.1392
 1448TIP3   OH225978   4.666   2.052   2.427 -0.2519  0.0261 -0.1314
 1448TIP3    H125979   4.592   2.000   2.395  1.0636 -2.4101  0.5902
 1448TIP3    H225980   4.650   2.060   2.521 -0.2689  0.6777 -0.1837
 1449TIP3   OH225981   4.590   0.570   8.730 -0.6427 -0.1458 -0.4573
 1449TIP3    H125982   4.520   0.508   8.751 -2.3898  2.3156  1.6823
 1449TIP3    H225983   4.624   0.598   8.816 -0.1341  1.9988 -1.2936
 1450TIP3   OH225984   0.991   2.591   0.742  0.2457  0.1336 -0.0953
 1450TIP3    H125985   1.038   2.508   0.747 -0.1012 -0.1056 -0.6522
 1450TIP3    H225986   0.997   2.615   0.649  1.2348  1.2567  0.2352
 1451TIP3   OH225987   2.751   1.076   8.058  0.0690  0.5004 -0.8851
 1451TIP3    H125988   2.830   1.037   8.097 -0.4245 -1.2949 -1.5528
 1451TIP3    H225989   2.681   1.053   8.118 -0.1770  0.6911 -1.0995
 1452TIP3   OH225990   2.358   3.266   2.430  0.9185 -0.1204 -0.2984
 1452TIP3    H125991   2.427   3.317   2.387  2.1178 -0.2604  1.3615
 1452TIP3    H225992   2.288   3.262   2.365  1.2030  2.6722 -0.9143
 1453TIP3   OH225993   1.740   5.885   2.035  0.1741  0.1756 -0.4050
 1453TIP3    H125994   1.647   5.862   2.030  0.1215  0.1819  0.4085
 1453TIP3    H225995   1.750   5.960   1.977 -0.2961  0.0887 -0.6031
 1454TIP3   OH225996   2.472   2.855   1.697  0.3205  0.0648  0.2343
 1454TIP3    H125997   2.498   2.874   1.607 -2.0397  2.8051 -0.0533
 1454TIP3    H225998   2.413   2.780   1.689  1.1399 -0.5458 -0.2870
 1455TIP3   OH225999   0.358   0.365   1.544 -0.4188  0.7702  0.4087
 1455TIP3    H126000   0.406   0.315   1.478  1.2380  0.0591  2.0836
 1455TIP3    H226001   0.302   0.300   1.587 -0.7999  1.0517  0.3472
 1456TIP3   OH226002   1.708   5.296   1.091 -0.0999  0.2766  0.6775
 1456TIP3    H126003   1.766   5.313   1.166  0.5122  1.8941 -0.1137
 1456TIP3    H226004   1.764   5.308   1.015 -1.1395  0.4365 -0.0818
 1457TIP3   OH226005   5.183   6.420   1.455 -0.0189 -0.3702  0.0415
 1457TIP3    H126006   5.151   6.330   1.450  0.5481 -0.6300  0.7814
 1457TIP3    H226007   5.229   6.424   1.539 -0.1715  0.6595  0.0894
 1458TIP3   OH226008   2.610   6.334   0.672  0.5498  0.4298 -0.1706
 1458TIP3    H126009   2.650   6.281   0.741 -0.6651  1.0401  1.0540
 1458TIP3    H226010   2.639   6.423   0.690  0.6442  0.5198 -0.7660
 1459TIP3   OH226011   3.145   6.327   8.353  0.1470  0.0290  0.2614
 1459TIP3    H126012   3.142   6.404   8.296 -0.3629  1.0985  1.6757
 1459TIP3    H226013   3.053   6.304   8.368  0.2713 -0.2023  0.7016
 1460TIP3   OH226014   2.847   4.745   0.225  0.0578  0.4964 -0.4734
 1460TIP3    H126015   2.757   4.756   0.257  0.6839  2.7386  0.7301
 1460TIP3    H226016   2.869   4.830   0.188  1.7879  0.0730 -0.4706
 1461TIP3   OH226017   1.346   1.354   0.981 -0.4907 -0.2118 -0.6570
 1461TIP3    H126018   1.302   1.323   1.060  0.6406 -1.5572 -0.5089
 1461TIP3    H226019   1.365   1.274   0.931  2.6445  0.1283 -0.2278
 1462TIP3   OH226020   3.346   3.395   8.082  0.5262  0.2529 -0.2193
 1462TIP3    H126021   3.320   3.450   8.008  1.6789 -0.0496 -0.8622
 1462TIP3    H226022   3.352   3.307   8.045 -1.1008 -0.3125  0.7537
 1463TIP3   OH226023   3.799   3.772   2.046 -0.4011  0.6745  0.6801
 1463TIP3    H126024   3.750   3.733   1.973  1.3800  0.8047 -0.6547
 1463TIP3    H226025   3.843   3.699   2.088 -0.1530  0.7743  0.5999
 1464TIP3   OH226026   5.950   1.183   2.155 -0.1792 -0.3755 -0.0553
 1464TIP3    H126027   5.963   1.148   2.243  0.2431  1.1162  0.5122
 1464TIP3    H226028   6.030   1.161   2.108 -0.5440 -1.4703 -0.1823
 1465TIP3   OH226029   5.331   0.179   1.605 -0.2487  0.1725  0.6383
 1465TIP3    H126030   5.345   0.271   1.581 -0.3797  0.3152  1.1108
 1465TIP3    H226031   5.420   0.144   1.617 -0.2228  0.6432  1.9754
 1466TIP3   OH226032   4.207   2.675   2.086 -0.8432 -0.2515 -0.4667
 1466TIP3    H126033   4.149   2.680   2.162 -1.3426  0.4857 -0.8892
 1466TIP3    H226034   4.185   2.752   2.033  1.6082  0.9777  0.1299
 1467TIP3   OH226035   6.262   3.581   1.082  0.6976  0.0443 -0.2899
 1467TIP3    H126036   6.284   3.618   1.167  2.6082  1.0210 -1.1389
 1467TIP3    H226037   6.291   3.490   1.087  0.4237 -0.0145  0.2345
 1468TIP3   OH226038   6.712   0.239   2.512  0.2548 -0.0338 -0.0054
 1468TIP3    H126039   6.676   0.165   2.561  0.4535  0.8278  1.4889
 1468TIP3    H226040   6.636   0.293   2.490  0.1234 -0.5927 -0.9992
 1469TIP3   OH226041   0.251   6.284   0.915  0.3661  0.7535 -0.0397
 1469TIP3    H126042   0.238   6.243   0.829 -1.2436  0.2906  0.3922
 1469TIP3    H226043   0.167   6.327   0.934  0.9567  1.5057  0.9676
 1470TIP3   OH226044   4.807   1.899   1.786 -0.4108 -0.0199 -0.3868
 1470TIP3    H126045   4.811   1.990   1.814  1.4063 -0.1679 -0.0750
 1470TIP3    H226046   4.744   1.859   1.846 -2.0869  1.2173 -1.2288
 1471TIP3   OH226047   4.209   1.722   7.424  0.5314  0.0832 -0.2309
 1471TIP3    H126048   4.130   1.735   7.476  1.3761  1.0646  0.8688
 1471TIP3    H226049   4.190   1.764   7.340  0.3405  1.5228  0.5043
 1472TIP3   OH226050   4.083   4.183   0.315 -0.2586  0.2892  0.5148
 1472TIP3    H126051   4.083   4.247   0.244  1.7850  0.7688  0.8922
 1472TIP3    H226052   4.001   4.135   0.304  1.0266 -1.4751 -3.8390
 1473TIP3   OH226053   5.522   6.636   1.520  0.2165  0.1249 -0.2694
 1473TIP3    H126054   5.445   6.643   1.576  0.1863  2.1483 -0.4727
 1473TIP3    H226055   5.501   6.689   1.444  1.5360  0.1240 -0.6600
 1474TIP3   OH226056   5.667   3.827   8.169 -0.7616 -0.3888  0.3368
 1474TIP3    H126057   5.634   3.893   8.231  0.4907 -1.6497  2.4659
 1474TIP3    H226058   5.600   3.758   8.171 -0.5801 -0.5599  0.5166
 1475TIP3   OH226059   6.258   0.887   2.294 -0.1778 -0.3213  0.0858
 1475TIP3    H126060   6.171   0.850   2.306  0.3440 -1.2685  1.2826
 1475TIP3    H226061   6.292   0.897   2.384  0.3365  1.5549 -0.2797
 1476TIP3   OH226062   4.264   2.570   3.249  0.1841  0.1710  0.2983
 1476TIP3    H126063   4.219   2.494   3.213 -0.3826  0.4810  0.3348
 1476TIP3    H226064   4.236   2.643   3.194  1.0900  0.2815 -0.0235
 1477TIP3   OH226065   3.957   5.429   7.847 -0.2485 -0.1182  0.1683
 1477TIP3    H126066   3.961   5.378   7.928 -0.3277  0.3881  0.5002
 1477TIP3    H226067   3.865   5.427   7.821 -0.6284  1.4411  1.2405
 1478TIP3   OH226068   2.341   2.313   2.256 -0.4012  0.2535  0.3584
 1478TIP3    H126069   2.317   2.261   2.332 -1.1447 -0.6812 -0.4848
 1478TIP3    H226070   2.419   2.361   2.283 -0.0612 -0.8310  1.3683
 1479TIP3   OH226071   1.294   2.426   7.881  0.1656 -0.0686  0.6427
 1479TIP3    H126072   1.220   2.411   7.822  1.4058 -2.5283 -0.4238
 1479TIP3    H226073   1.255   2.425   7.968 -1.3898  1.3763  0.0338
 1480TIP3   OH226074   2.164   6.461   2.599 -0.3662  0.3299 -0.3499
 1480TIP3    H126075   2.089   6.416   2.638  0.0274  0.3157  0.4132
 1480TIP3    H226076   2.196   6.400   2.532 -0.8594  0.2170 -0.4901
 1481TIP3   OH226077   2.809   0.594   8.805  0.2553  0.3915 -0.1705
 1481TIP3    H126078   2.848   0.557   8.726  0.8269  1.6241 -0.4992
 1481TIP3    H226079   2.835   0.686   8.803  0.8314  0.3213  1.7930
 1482TIP3   OH226080   3.404   3.292   0.272 -0.1937 -0.0599 -0.3215
 1482TIP3    H126081   3.367   3.360   0.329  1.4841  0.3743  0.3079
 1482TIP3    H226082   3.472   3.337   0.222  1.4471 -1.3931  0.6091
 1483TIP3   OH226083   6.215   0.169   7.434 -0.0778 -0.1683 -0.2685
 1483TIP3    H126084   6.160   0.150   7.358  1.1555 -0.4667 -1.1091
 1483TIP3    H226085   6.180   0.113   7.504 -0.6380 -0.5732 -0.8637
 1484TIP3   OH226086   0.240   2.671   2.355  0.0712 -0.3324  0.5464
 1484TIP3    H126087   0.170   2.734   2.372 -0.0142 -0.0855 -0.6148
 1484TIP3    H226088   0.306   2.721   2.307  0.1044 -1.0559 -0.1877
 1485TIP3   OH226089   2.695   6.128   0.827 -0.4551 -0.1602 -0.0325
 1485TIP3    H126090   2.750   6.054   0.854  1.6025  0.6603 -1.6857
 1485TIP3    H226091   2.612   6.114   0.872  1.2238 -1.2173  3.0688
 1486TIP3   OH226092   0.356   2.016   7.674  0.2684 -0.2744  0.1765
 1486TIP3    H126093   0.296   1.942   7.672 -1.3957  1.0128 -1.6447
 1486TIP3    H226094   0.375   2.033   7.582  2.2888  0.3123  0.6473
 1487TIP3   OH226095   3.388   0.102   7.946 -0.3384 -0.7400  0.2402
 1487TIP3    H126096   3.355   0.157   7.875 -0.9493  0.5506  1.4707
 1487TIP3    H226097   3.481   0.092   7.927  0.0429  1.6584  0.5122
 1488TIP3   OH226098   0.452   0.211   2.903  0.0982  0.0227 -0.6841
 1488TIP3    H126099   0.460   0.116   2.913  0.8146 -0.1051 -2.1431
 1488TIP3    H226100   0.403   0.222   2.822  0.2804  0.8927 -0.6797
 1489TIP3   OH226101   6.407   5.447   2.045 -0.3918  0.0275  0.6183
 1489TIP3    H126102   6.438   5.457   1.955  0.1581 -1.6892  0.5635
 1489TIP3    H226103   6.334   5.385   2.038  1.4981 -2.5113  1.5655
 1490TIP3   OH226104   3.917   1.167   0.401  0.0894  0.0335  0.7564
 1490TIP3    H126105   3.999   1.214   0.416 -0.0068  0.8375 -1.0445
 1490TIP3    H226106   3.941   1.091   0.349 -0.5020  1.4353 -1.7345
 1491TIP3   OH226107   2.323   6.050   8.744 -0.2448 -0.4105  0.7216
 1491TIP3    H126108   2.311   6.139   8.778 -0.5358 -0.8436  1.8263
 1491TIP3    H226109   2.386   6.059   8.673 -1.7891  0.9565 -0.5336
 1492TIP3   OH226110   6.387   0.282   2.121  0.2133  0.4558  0.2634
 1492TIP3    H126111   6.302   0.240   2.104  0.5669  0.3131 -1.3212
 1492TIP3    H226112   6.408   0.257   2.211 -0.6378 -0.9142  0.1192
 1493TIP3   OH226113   3.939   2.737   0.175  0.2671 -0.5122 -0.4093
 1493TIP3    H126114   4.018   2.766   0.129 -0.3242  0.1019 -1.0593
 1493TIP3    H226115   3.922   2.806   0.239  0.0630 -0.4778 -0.5014
 1494TIP3   OH226116   2.352   2.336   7.519  0.5472 -0.0245  0.4761
 1494TIP3    H126117   2.279   2.291   7.561  1.0447 -0.8215  0.5190
 1494TIP3    H226118   2.348   2.307   7.427 -0.2267  1.3012  0.0675
 1495TIP3   OH226119   5.028   5.454   8.153 -0.4363 -0.3053 -0.2577
 1495TIP3    H126120   4.977   5.491   8.081  1.7841 -0.8863 -2.2368
 1495TIP3    H226121   5.082   5.386   8.113  1.5957 -0.0290  1.7614
 1496TIP3   OH226122   5.923   3.978   0.265  0.3274 -0.9008 -0.4972
 1496TIP3    H126123   6.002   4.025   0.238 -0.1356  1.0662  1.2705
 1496TIP3    H226124   5.930   3.972   0.360 -1.5480 -0.8735 -0.3165
 1497TIP3   OH226125   4.807   6.292   2.409  0.4251 -0.0981 -0.8161
 1497TIP3    H126126   4.776   6.256   2.492 -1.0400  0.7001 -0.9909
 1497TIP3    H226127   4.730   6.330   2.368  1.2605  0.1918 -2.2192
 1498TIP3   OH226128   6.480   6.565   2.854 -0.1899 -0.6096  0.7255
 1498TIP3    H126129   6.482   6.571   2.758 -0.9056  2.5449  0.7768
 1498TIP3    H226130   6.388   6.556   2.876 -0.2611  0.7063  1.0901
 1499TIP3   OH226131   4.110   4.878   7.955  0.6655 -0.3490  0.4701
 1499TIP3    H126132   4.124   4.967   7.925  0.0245 -0.3877  0.0332
 1499TIP3    H226133   4.174   4.865   8.025  1.4602  0.1047 -0.1593
 1500TIP3   OH226134   0.007   2.275   2.533  0.7358 -0.2862  0.7206
 1500TIP3    H126135  -0.088   2.282   2.523  0.8802  0.3324 -0.3942
 1500TIP3    H226136   0.029   2.346   2.594  0.6353  0.5657 -0.1977
 1501TIP3   OH226137   5.649   2.404   2.628  0.3034  0.1173  0.3443
 1501TIP3    H126138   5.683   2.372   2.544 -1.0296 -1.2754  0.2938
 1501TIP3    H226139   5.708   2.366   2.693 -1.1078 -2.4428  0.2680
 1502TIP3   OH226140   1.160   1.342   0.332  0.3052 -0.0756 -0.8158
 1502TIP3    H126141   1.065   1.350   0.324  0.4149  2.5489 -0.2790
 1502TIP3    H226142   1.189   1.313   0.246 -0.9516 -1.0320 -0.9556
 1503TIP3   OH226143   2.842   4.466   8.281  0.1820 -0.0751 -0.2552
 1503TIP3    H126144   2.898   4.488   8.355  0.8678  1.3123 -1.1330
 1503TIP3    H226145   2.898   4.480   8.204 -0.8905 -0.2412 -1.0902
 1504TIP3   OH226146   3.840   5.320   8.785 -0.1982  0.1536  0.6161
 1504TIP3    H126147   3.798   5.402   8.811  0.0734  0.2812  0.6533
 1504TIP3    H226148   3.823   5.260   8.858 -1.7467 -0.3086 -0.0864
 1505TIP3   OH226149   6.703   1.479   1.315  0.2175  0.0367  0.2071
 1505TIP3    H126150   6.698   1.526   1.232  0.2526 -0.7617 -0.2577
 1505TIP3    H226151   6.695   1.547   1.381 -1.1541  0.5427 -0.4500
 1506TIP3   OH226152   0.087   1.648   8.562 -0.5063 -0.7237  0.4821
 1506TIP3    H126153   0.040   1.725   8.594 -0.6464 -0.8514  0.5887
 1506TIP3    H226154   0.079   1.584   8.633  1.0318 -0.2670  1.0887
 1507TIP3   OH226155   6.255   1.983   2.395 -0.1678  0.4970  0.2108
 1507TIP3    H126156   6.318   2.018   2.458  0.5537 -1.1447  0.4328
 1507TIP3    H226157   6.288   2.010   2.309 -0.1075  1.0908  0.4168
 1508TIP3   OH226158   5.230   5.992   2.214 -0.0251  0.4353 -0.4661
 1508TIP3    H126159   5.142   5.957   2.200 -0.0487 -0.1733  0.9801
 1508TIP3    H226160   5.286   5.934   2.162 -0.2418 -0.7954  0.6077
 1509TIP3   OH226161   1.398   4.463   8.785 -0.3565  0.3157  0.4073
 1509TIP3    H126162   1.319   4.506   8.750  0.4993  2.2622  0.6982
 1509TIP3    H226163   1.418   4.512   8.865  0.8674 -0.4454  0.5882
 1510TIP3   OH226164   1.356   2.999   8.530 -0.0178  0.3610 -0.0920
 1510TIP3    H126165   1.324   3.022   8.442 -1.4753 -0.9125  0.0643
 1510TIP3    H226166   1.414   3.072   8.554  0.8071  0.5118 -2.2903
 1511TIP3   OH226167   1.130   1.414   2.819  0.1774 -0.5515  0.4996
 1511TIP3    H126168   1.121   1.509   2.811  1.9607 -0.3090  0.9396
 1511TIP3    H226169   1.142   1.398   2.912  1.5772 -1.0103  0.2638
 1512TIP3   OH226170   5.408   0.491   0.598  0.0079  0.1031  0.5748
 1512TIP3    H126171   5.422   0.473   0.691  1.2224 -0.3588  0.3213
 1512TIP3    H226172   5.322   0.453   0.580  0.4040 -1.1603  1.1823
 1513TIP3   OH226173   6.146   5.399   8.698 -0.2933 -0.3075 -0.1828
 1513TIP3    H126174   6.103   5.383   8.614  0.1814  0.2617 -0.5406
 1513TIP3    H226175   6.236   5.367   8.685 -0.0128  0.4479 -0.1340
 1514TIP3   OH226176   4.470   3.664   8.738 -0.5784  0.0596  0.4949
 1514TIP3    H126177   4.500   3.588   8.787  1.2196  0.4468  0.0854
 1514TIP3    H226178   4.472   3.636   8.646 -1.0798  0.2333  0.4290
 1515TIP3   OH226179   5.833   6.349   1.757  0.1277  0.3311  0.2905
 1515TIP3    H126180   5.881   6.426   1.788  0.3852  1.3519 -2.4170
 1515TIP3    H226181   5.867   6.333   1.669 -2.1482 -0.9831 -0.4360
 1516TIP3   OH226182   3.278   5.112   2.042  0.7303 -0.2947 -0.4321
 1516TIP3    H126183   3.371   5.115   2.065  1.0635 -2.6478 -1.2029
 1516TIP3    H226184   3.275   5.061   1.961 -1.0459  1.8274 -1.8319
 1517TIP3   OH226185   4.561   0.738   1.205  0.1100 -0.0125 -0.7101
 1517TIP3    H126186   4.524   0.771   1.286  1.9109  0.2842  0.0393
 1517TIP3    H226187   4.560   0.643   1.214 -3.4253 -0.2737 -2.1233
 1518TIP3   OH226188   5.047   2.088   1.345  0.3105 -0.7832 -0.0804
 1518TIP3    H126189   5.018   2.073   1.435 -0.3979 -0.5803 -0.2677
 1518TIP3    H226190   5.072   2.001   1.313  3.0781 -0.5339  1.1289
 1519TIP3   OH226191   2.591   4.445   8.377  0.2318 -0.5910 -0.2499
 1519TIP3    H126192   2.678   4.454   8.338 -0.1169  1.4177 -0.6896
 1519TIP3    H226193   2.605   4.456   8.471  0.6116 -1.7129 -0.1634
 1520TIP3   OH226194   2.129   5.021   1.096  0.1295  0.7523 -0.1577
 1520TIP3    H126195   2.218   4.987   1.104 -0.7495 -1.4835  0.7734
 1520TIP3    H226196   2.089   5.005   1.181 -1.0154  2.2970 -0.3517
 1521TIP3   OH226197   6.357   6.424   1.243  0.5869 -0.0914  0.5085
 1521TIP3    H126198   6.387   6.354   1.301 -0.1231 -1.4618 -0.7090
 1521TIP3    H226199   6.347   6.381   1.158 -1.3320  1.1376  0.0629
 1522TIP3   OH226200   0.646   3.387   0.563  0.3386  0.5712  0.3216
 1522TIP3    H126201   0.657   3.369   0.656  1.2810  3.6304  0.8911
 1522TIP3    H226202   0.690   3.313   0.519 -0.4149 -1.0947  2.2080
 1523TIP3   OH226203   2.180   3.708   1.718  0.4373  0.1447 -0.0933
 1523TIP3    H126204   2.153   3.620   1.694 -0.2035  0.1259  0.6516
 1523TIP3    H226205   2.259   3.724   1.666  1.6253 -1.5463  1.0913
 1524TIP3   OH226206   5.068   2.631   0.894  0.0980  0.2931 -0.0813
 1524TIP3    H126207   5.042   2.696   0.959 -0.7148  1.9143 -1.9237
 1524TIP3    H226208   5.134   2.674   0.840 -0.5096 -0.3589 -1.4014
 1525TIP3   OH226209   4.386   4.927   2.268 -0.4565  0.5496 -0.9337
 1525TIP3    H126210   4.424   5.015   2.274  0.5646  0.1381 -1.1475
 1525TIP3    H226211   4.358   4.920   2.177 -1.0138  0.8284 -0.7924
 1526TIP3   OH226212   1.947   6.318   1.839 -0.0193 -0.4858  0.1682
 1526TIP3    H126213   2.040   6.314   1.814  0.3939  0.6345  1.3520
 1526TIP3    H226214   1.905   6.366   1.768  1.2593  3.3167  1.6915
 1527TIP3   OH226215   4.856   2.648   8.597  0.0979 -0.1724  0.0442
 1527TIP3    H126216   4.931   2.677   8.545  0.2697 -0.6059  0.0416
 1527TIP3    H226217   4.806   2.592   8.538 -0.8257  0.9795 -0.3016
 1528TIP3   OH226218   5.120   5.610   1.149 -0.4017 -0.6099 -1.1659
 1528TIP3    H126219   5.184   5.664   1.196 -2.5065  1.9934 -1.0043
 1528TIP3    H226220   5.125   5.525   1.192  0.5252  0.5197  1.1738
 1529TIP3   OH226221   4.287   1.239   8.795 -0.0148 -0.4234  0.2043
 1529TIP3    H126222   4.302   1.305   8.863 -3.0049 -1.2941  1.8862
 1529TIP3    H226223   4.354   1.172   8.812  1.2640  0.7969  0.2294
 1530TIP3   OH226224   2.657   3.543   0.418  0.3512 -0.4019  0.0171
 1530TIP3    H126225   2.599   3.555   0.344  1.9609 -3.2705 -1.8800
 1530TIP3    H226226   2.727   3.608   0.404 -0.7684  0.9932  0.6649
 1531TIP3   OH226227   3.742   0.463   8.289  0.3580  0.1341 -0.0871
 1531TIP3    H126228   3.674   0.409   8.249  1.2299  0.3573 -1.9980
 1531TIP3    H226229   3.711   0.479   8.379 -2.0949  0.2391 -0.8709
 1532TIP3   OH226230   6.083   1.121   0.350  0.1567 -0.6905  0.1668
 1532TIP3    H126231   6.078   1.073   0.433 -0.3945 -0.2754  0.3833
 1532TIP3    H226232   6.009   1.087   0.300  0.8755 -1.4206 -0.4281
 1533TIP3   OH226233   6.237   3.994   3.171  0.0574  0.1658 -0.4530
 1533TIP3    H126234   6.219   4.039   3.088  1.6306  0.6341 -0.5809
 1533TIP3    H226235   6.308   3.933   3.149  0.1686 -0.0380  0.4468
 1534TIP3   OH226236   1.311   2.806   0.083  0.3444 -0.2186  0.3162
 1534TIP3    H126237   1.335   2.727   0.131  1.5088  0.8282  1.5393
 1534TIP3    H226238   1.230   2.835   0.124  1.5524  0.9081  2.0703
 1535TIP3   OH226239   5.036   0.673   2.692 -0.1684  0.1161 -0.6984
 1535TIP3    H126240   4.975   0.719   2.635 -0.3403 -0.6706 -1.1606
 1535TIP3    H226241   5.078   0.742   2.743 -0.5190  0.7680 -1.2800
 1536TIP3   OH226242   6.684   5.326   2.535  0.3697 -0.0529 -0.7057
 1536TIP3    H126243   6.727   5.371   2.608  0.4968 -1.1572 -0.0744
 1536TIP3    H226244   6.636   5.395   2.489 -1.2594  0.3761  1.5037
 1537TIP3   OH226245   5.982   4.973   3.173  0.5101 -0.3581  0.0306
 1537TIP3    H126246   6.004   4.891   3.216  1.7361  1.1575  2.4895
 1537TIP3    H226247   6.034   5.039   3.218 -1.2429  1.9463 -1.1142
 1538TIP3   OH226248   0.080   0.719   8.760  0.1554  0.3100 -0.0255
 1538TIP3    H126249   0.090   0.635   8.804 -1.1726  0.2661  0.2228
 1538TIP3    H226250   0.108   0.703   8.670  0.4407 -0.2543  0.1614
 1539TIP3   OH226251   5.154   5.212   0.893 -0.2959 -0.3744  0.6576
 1539TIP3    H126252   5.209   5.142   0.859  1.3350  0.5947  1.2008
 1539TIP3    H226253   5.156   5.200   0.988  0.3264  0.6139  0.7847
 1540TIP3   OH226254   3.292   4.716   0.800  0.6868  0.2125 -0.1345
 1540TIP3    H126255   3.290   4.734   0.894  1.4529  1.9643 -0.4132
 1540TIP3    H226256   3.232   4.780   0.762 -0.0519 -0.8518 -0.8063
 1541TIP3   OH226257   1.829   6.580   8.194 -0.4448  0.4788 -0.2307
 1541TIP3    H126258   1.852   6.657   8.142 -1.2242 -0.0555 -1.4152
 1541TIP3    H226259   1.839   6.609   8.285 -2.6533  2.6656 -0.5531
 1542TIP3   OH226260   4.130   4.006   7.739  0.0958  0.1362 -0.4523
 1542TIP3    H126261   4.101   4.061   7.667 -0.9284 -0.6835 -0.6747
 1542TIP3    H226262   4.095   3.919   7.720  1.7441 -0.6411 -0.1448
 1543TIP3   OH226263   5.339   1.599   3.401 -0.0533  0.1025 -0.2952
 1543TIP3    H126264   5.431   1.572   3.403 -0.0095  0.2814  0.5762
 1543TIP3    H226265   5.309   1.576   3.313  0.3814 -1.4402 -0.0682
 1544TIP3   OH226266   6.048   3.490   0.015  0.6997  0.5070 -0.0888
 1544TIP3    H126267   6.112   3.530  -0.045  0.4087  0.4168 -0.4642
 1544TIP3    H226268   5.998   3.564   0.049  0.8103  0.5517 -0.0237
 1545TIP3   OH226269   0.112   3.095   1.552 -0.3231 -0.0383 -0.1119
 1545TIP3    H126270   0.043   3.139   1.602 -1.6376 -1.4223 -0.6351
 1545TIP3    H226271   0.115   3.007   1.589 -1.0535 -0.9779 -2.1338
 1546TIP3   OH226272   6.377   1.802   7.908 -0.7093  0.1053  0.4458
 1546TIP3    H126273   6.295   1.814   7.956  0.3202  0.4015  2.2514
 1546TIP3    H226274   6.423   1.885   7.920 -0.0400 -0.1477 -0.3243
 1547TIP3   OH226275   3.620   5.841   1.609 -0.4927 -0.2856  0.9418
 1547TIP3    H126276   3.705   5.799   1.601 -1.8792 -2.9777 -2.4811
 1547TIP3    H226277   3.577   5.795   1.681  0.1419 -0.5197  1.1782
 1548TIP3   OH226278   6.595   3.107   1.745  0.0360  0.7441 -0.2825
 1548TIP3    H126279   6.644   3.086   1.824  1.6393  0.6971 -1.2540
 1548TIP3    H226280   6.548   3.026   1.724  1.0394  0.1675 -0.3718
 1549TIP3   OH226281   5.602   3.446   1.646 -0.0812  0.2810 -0.5457
 1549TIP3    H126282   5.664   3.392   1.597  1.3129  0.7679  0.6403
 1549TIP3    H226283   5.542   3.479   1.579  0.7633 -0.4164 -1.6843
 1550TIP3   OH226284   2.979   6.113   0.718 -0.3003 -0.1504 -0.1136
 1550TIP3    H126285   2.903   6.170   0.715  0.0452  0.4405  1.4329
 1550TIP3    H226286   2.949   6.035   0.765 -0.2507 -0.4367 -0.5425
 1551TIP3   OH226287   4.711   3.034   7.476  0.4534 -0.1908 -0.7775
 1551TIP3    H126288   4.620   3.021   7.500  0.3650 -2.7490 -2.1888
 1551TIP3    H226289   4.756   2.955   7.507  1.5313 -0.5276 -3.0107
 1552TIP3   OH226290   0.544   0.757   1.523  0.2021  0.1463  0.0738
 1552TIP3    H126291   0.583   0.724   1.441  3.3839  0.4323  1.3032
 1552TIP3    H226292   0.463   0.707   1.533  0.0774 -0.4489 -2.8223
 1553TIP3   OH226293   3.082   4.666   0.348  0.3950 -0.3977 -0.3923
 1553TIP3    H126294   3.054   4.575   0.358  2.8321 -1.6017 -2.9745
 1553TIP3    H226295   3.012   4.707   0.297 -1.0756 -0.5471  1.4056
 1554TIP3   OH226296   1.209   2.406   2.553 -0.7181 -0.1275 -1.0265
 1554TIP3    H126297   1.220   2.314   2.578  0.6766  0.8346  2.5318
 1554TIP3    H226298   1.277   2.452   2.602 -2.6506  3.0367 -1.0611
 1555TIP3   OH226299   1.620   3.875   0.706  0.1778 -0.6145 -0.1201
 1555TIP3    H126300   1.576   3.863   0.791 -1.5476 -0.3434 -0.9210
 1555TIP3    H226301   1.549   3.868   0.642  0.9676  1.8386 -1.3754
 1556TIP3   OH226302   1.418   3.185   0.368  0.2580 -0.8018  0.1972
 1556TIP3    H126303   1.330   3.163   0.397  0.3074 -2.7646 -0.9518
 1556TIP3    H226304   1.437   3.121   0.299  2.0657  0.4414 -0.5242
 1557TIP3   OH226305   5.781   1.587   0.162  0.1860 -0.2350  0.1047
 1557TIP3    H126306   5.871   1.603   0.191  0.3750  2.1681 -1.4405
 1557TIP3    H226307   5.728   1.593   0.241  1.3150 -1.2570  0.9721
 1558TIP3   OH226308   5.667   2.642   0.973 -0.2030 -0.2320 -0.3092
 1558TIP3    H126309   5.631   2.554   0.982  1.4007 -1.0830 -1.6575
 1558TIP3    H226310   5.741   2.632   0.912  0.6693  1.8648  0.3099
 1559TIP3   OH226311   6.346   0.606   1.765  0.3683 -0.4876  0.7572
 1559TIP3    H126312   6.346   0.512   1.782  1.3704 -0.6406 -0.0225
 1559TIP3    H226313   6.376   0.645   1.847 -0.5633 -0.7979  1.2572
 1560TIP3   OH226314   3.150   4.832   0.015  0.4205  0.6273  0.5268
 1560TIP3    H126315   3.225   4.890   0.027  0.4197  0.4427  1.5496
 1560TIP3    H226316   3.081   4.869   0.070 -0.3327  0.9283 -0.5892
 1561TIP3   OH226317   1.044   0.671   8.814 -0.6592 -0.0944  0.4241
 1561TIP3    H126318   1.063   0.600   8.875 -0.6447  0.5517  1.1892
 1561TIP3    H226319   1.126   0.686   8.768 -0.3238  0.2128  1.1025
 1562TIP3   OH226320   2.457   3.181   8.221 -0.9702  0.0615 -0.1036
 1562TIP3    H126321   2.381   3.157   8.168 -1.9269 -0.0370  1.2443
 1562TIP3    H226322   2.464   3.110   8.285 -0.9114  0.9905  0.9485
 1563TIP3   OH226323   6.253   6.573   0.861 -0.2142 -0.0274  0.0196
 1563TIP3    H126324   6.302   6.565   0.779 -0.0965 -1.5607  0.2033
 1563TIP3    H226325   6.306   6.526   0.926 -1.5643 -1.1706  0.3659
 1564TIP3   OH226326   5.712   4.152   8.490  0.0355  0.2592  0.4517
 1564TIP3    H126327   5.785   4.090   8.491  0.2133  0.4384 -0.8115
 1564TIP3    H226328   5.643   4.108   8.540  0.3276 -0.7417 -0.0082
 1565TIP3   OH226329   3.334   1.020   7.916 -0.3925 -0.4601  0.2403
 1565TIP3    H126330   3.245   1.051   7.901 -0.0652  0.8403  0.8707
 1565TIP3    H226331   3.388   1.070   7.856 -0.0707 -1.2317 -0.1291
 1566TIP3   OH226332   4.146   5.322   0.940  0.2360  0.1893 -0.5144
 1566TIP3    H126333   4.080   5.254   0.922  0.4087 -0.3308  0.6792
 1566TIP3    H226334   4.219   5.274   0.980 -0.6249  1.2950  2.7135
 1567TIP3   OH226335   4.899   0.725   8.812  0.0998 -0.5473 -0.6772
 1567TIP3    H126336   4.839   0.732   8.738 -0.7684 -3.3580 -0.3312
 1567TIP3    H226337   4.953   0.649   8.793  3.8899  1.9717 -1.0801
 1568TIP3   OH226338   0.427   3.876   3.075  0.1112 -0.9518 -0.9152
 1568TIP3    H126339   0.439   3.837   3.161  0.7957 -0.3637 -0.7407
 1568TIP3    H226340   0.351   3.934   3.085  0.3874 -0.6407 -0.6239
 1569TIP3   OH226341   5.188   3.191   0.051 -0.0664 -0.3445 -0.7108
 1569TIP3    H126342   5.126   3.239  -0.004 -0.3531 -0.8334 -0.8139
 1569TIP3    H226343   5.221   3.121  -0.005  0.4207 -0.2170 -0.5874
 1570TIP3   OH226344   6.646   6.268   1.074  0.8046 -0.1450  0.4207
 1570TIP3    H126345   6.652   6.206   1.147 -1.1797  0.2435  0.9844
 1570TIP3    H226346   6.688   6.347   1.108  0.8081 -0.2857  0.7567
 1571TIP3   OH226347   0.228   4.821   1.762 -0.9974  0.4129 -0.2049
 1571TIP3    H126348   0.160   4.889   1.761 -1.9686 -0.5199  0.3469
 1571TIP3    H226349   0.186   4.745   1.720  0.1286  0.1920 -0.9783
 1572TIP3   OH226350   3.852   2.410   7.976  0.1303 -0.5101  0.1264
 1572TIP3    H126351   3.860   2.327   7.929 -0.1201  0.2368 -1.2759
 1572TIP3    H226352   3.916   2.467   7.935 -0.7451  0.4439  0.0456
 1573TIP3   OH226353   6.750   3.603   0.388 -0.1132  0.3641  0.7929
 1573TIP3    H126354   6.801   3.620   0.309  0.9524 -0.0298  1.3828
 1573TIP3    H226355   6.765   3.679   0.444 -0.7242  0.5579  0.7105
 1574TIP3   OH226356   6.571   1.772   1.368 -0.3411  0.0426  0.1635
 1574TIP3    H126357   6.560   1.693   1.421  0.4412  0.2465  0.6461
 1574TIP3    H226358   6.587   1.841   1.433  1.8097  0.0974 -0.3645
 1575TIP3   OH226359   3.849   2.325   0.507  0.2298 -0.7177 -0.4122
 1575TIP3    H126360   3.859   2.382   0.583  0.9604 -1.5263  0.1051
 1575TIP3    H226361   3.839   2.386   0.433  3.4925  0.1765 -0.2461
 1576TIP3   OH226362   6.508   6.456   3.096  0.7389 -0.4025  0.2544
 1576TIP3    H126363   6.416   6.433   3.102  0.3595  0.8427 -0.5458
 1576TIP3    H226364   6.524   6.472   3.003  1.5919  0.0577  0.4634
 1577TIP3   OH226365   2.716   2.224   2.042  0.2134 -0.1974 -0.3637
 1577TIP3    H126366   2.774   2.149   2.052 -1.1393 -1.2980 -0.5157
 1577TIP3    H226367   2.647   2.194   1.982 -0.6244  1.0020 -0.0458
 1578TIP3   OH226368   2.591   3.342   0.991 -0.0581 -0.3121 -0.4129
 1578TIP3    H126369   2.609   3.275   1.057  1.2625  0.0155 -0.4128
 1578TIP3    H226370   2.615   3.301   0.908  2.6919  0.7818 -0.2271
 1579TIP3   OH226371   2.121   4.531   0.163  0.0505  0.0936 -0.2382
 1579TIP3    H126372   2.189   4.593   0.136 -0.4467  0.8723  0.2531
 1579TIP3    H226373   2.149   4.501   0.250  1.1055 -1.6085 -1.1027
 1580TIP3   OH226374   1.031   5.248   0.352 -0.2988  0.0789 -0.5704
 1580TIP3    H126375   1.087   5.302   0.296 -0.0708 -1.0017 -1.4300
 1580TIP3    H226376   0.951   5.299   0.362  0.6550  1.4575  0.3164
 1581TIP3   OH226377   1.053   6.019   2.030 -0.5148  0.2266  0.4189
 1581TIP3    H126378   0.998   6.064   2.094  0.1657  1.5460  0.1216
 1581TIP3    H226379   1.057   5.929   2.061 -0.8340  0.6609  1.8134
 1582TIP3   OH226380   6.604   2.101   0.390 -0.3526  0.7133 -0.1690
 1582TIP3    H126381   6.568   2.188   0.371 -0.0023  0.9440  0.1930
 1582TIP3    H226382   6.626   2.104   0.483 -0.6132  0.1289 -0.0854
 1583TIP3   OH226383   6.718   4.943   2.093 -1.2306 -0.1030  0.1978
 1583TIP3    H126384   6.719   5.016   2.155 -0.7647  0.6774 -0.7202
 1583TIP3    H226385   6.811   4.924   2.078 -1.3366 -1.1970  0.7681
 1584TIP3   OH226386   1.520   5.369   2.782  0.3736  0.2743  0.1827
 1584TIP3    H126387   1.490   5.451   2.820  0.9820  0.4106  0.3790
 1584TIP3    H226388   1.555   5.320   2.857  0.6940  0.1465 -0.0515
 1585TIP3   OH226389   5.626   4.003   2.709 -0.0512  0.1185  0.1042
 1585TIP3    H126390   5.656   4.084   2.667  0.1138  1.0821  2.0062
 1585TIP3    H226391   5.674   3.934   2.662  2.9168  1.3969  1.0086
 1586TIP3   OH226392   2.802   2.584   0.514 -0.1073 -0.0084  0.1413
 1586TIP3    H126393   2.816   2.676   0.490  0.1758  0.4593  1.9574
 1586TIP3    H226394   2.782   2.541   0.431 -0.7636  1.7763 -0.6898
 1587TIP3   OH226395   5.608   2.793   1.485 -0.0085 -0.5067 -0.3671
 1587TIP3    H126396   5.585   2.789   1.392  2.0199 -1.8819 -0.8839
 1587TIP3    H226397   5.622   2.702   1.510 -0.1799 -0.1266  1.2154
 1588TIP3   OH226398   6.118   0.017   2.321  0.4200  0.1027 -0.2715
 1588TIP3    H126399   6.172  -0.063   2.327  0.7685  0.4292  1.5384
 1588TIP3    H226400   6.125   0.057   2.408 -1.8027  0.7944 -0.3552
 1589TIP3   OH226401   3.503   3.220   2.704 -0.0924 -0.4189  0.4962
 1589TIP3    H126402   3.564   3.218   2.778  0.3789  0.1901  0.1327
 1589TIP3    H226403   3.431   3.276   2.734 -0.9216 -1.8612  1.2561
 1590TIP3   OH226404   4.320   5.134   0.755  0.2492  0.4396  0.0742
 1590TIP3    H126405   4.296   5.072   0.687  0.1772  1.0933 -0.5048
 1590TIP3    H226406   4.399   5.097   0.795  0.9330  0.5909 -1.0867
 1591TIP3   OH226407   3.588   2.696   7.897  0.6495  0.1894  0.4403
 1591TIP3    H126408   3.522   2.672   7.962  0.6613  2.2871  1.3088
 1591TIP3    H226409   3.581   2.791   7.891  2.1994  0.2468 -0.9959
 1592TIP3   OH226410   4.841   5.166   0.248  0.4197  0.4534 -0.3839
 1592TIP3    H126411   4.801   5.214   0.176  1.8557  1.4004 -0.5767
 1592TIP3    H226412   4.798   5.199   0.326  0.6371  1.2875 -0.6081
 1593TIP3   OH226413   2.933   0.107   1.273 -0.0377  0.4042  0.2123
 1593TIP3    H126414   3.021   0.145   1.267 -0.1284  1.2126  2.8314
 1593TIP3    H226415   2.929   0.069   1.361 -1.7906 -1.0627 -0.4328
 1594TIP3   OH226416   5.763   5.889   0.211 -0.3346  0.2102 -0.1184
 1594TIP3    H126417   5.692   5.826   0.197 -0.2785 -0.1095  0.9482
 1594TIP3    H226418   5.722   5.961   0.259 -0.8798  1.9963 -3.0386
 1595TIP3   OH226419   6.584   1.997   0.142 -0.4998 -0.0959  0.2989
 1595TIP3    H126420   6.501   1.961   0.174  0.3087 -0.0780  2.5639
 1595TIP3    H226421   6.625   2.035   0.220  2.3886 -1.5490 -0.4130
 1596TIP3   OH226422   4.511   1.350   8.425 -0.2999 -0.0875 -0.0736
 1596TIP3    H126423   4.465   1.269   8.448 -1.2226  0.2702 -0.5891
 1596TIP3    H226424   4.442   1.408   8.392  0.4066  0.7697 -0.0849
 1597TIP3   OH226425   5.155   2.925   2.002 -0.1824 -0.2896  0.1780
 1597TIP3    H126426   5.217   2.878   2.058  0.0979 -0.3113 -0.1501
 1597TIP3    H226427   5.210   2.976   1.942 -0.4763  1.2255  1.1541
 1598TIP3   OH226428   4.255   4.012   3.404 -0.7642 -0.1370 -0.0485
 1598TIP3    H126429   4.167   3.977   3.413 -0.8306 -0.0196 -0.2386
 1598TIP3    H226430   4.301   3.948   3.349 -0.7935 -0.0891 -0.1292
 1599TIP3   OH226431   0.659   2.728   7.449 -0.4832 -0.2516  0.0343
 1599TIP3    H126432   0.624   2.811   7.416 -0.9300 -0.1989  0.6223
 1599TIP3    H226433   0.598   2.702   7.518  0.1799 -0.5886  0.5028
 1600TIP3   OH226434   1.903   2.261   0.646 -0.2506  0.0495 -0.3244
 1600TIP3    H126435   1.931   2.339   0.693  0.5278 -1.1281  1.2664
 1600TIP3    H226436   1.818   2.239   0.685  0.2816 -0.7869  0.4085
 1601TIP3   OH226437   5.171   5.341   0.174 -0.1118 -0.5060 -0.4548
 1601TIP3    H126438   5.200   5.250   0.185  1.3454 -0.1828 -1.3409
 1601TIP3    H226439   5.244   5.384   0.130  0.2136  1.6776  2.0021
 1602TIP3   OH226440   3.687   6.759   0.995 -0.0713  0.0579  0.5811
 1602TIP3    H126441   3.610   6.813   1.016 -1.1476 -0.9405 -0.6378
 1602TIP3    H226442   3.755   6.823   0.972 -0.5397  0.9542  1.5797
 1603TIP3   OH226443   4.622   3.021   0.190 -0.1818  0.2418  0.0166
 1603TIP3    H126444   4.607   2.927   0.180 -0.6402  0.4905 -1.9062
 1603TIP3    H226445   4.710   3.027   0.226 -0.8731 -0.9478  2.0893
 1604TIP3   OH226446   2.866   1.211   1.691 -0.3812  0.2349  0.0189
 1604TIP3    H126447   2.881   1.173   1.778 -1.4191 -2.0747 -0.7173
 1604TIP3    H226448   2.949   1.252   1.667  0.1577  0.2420  1.7705
 1605TIP3   OH226449   5.150   3.837   8.731 -0.1938  0.8047 -0.0334
 1605TIP3    H126450   5.085   3.806   8.793  0.4136  1.9941  1.2644
 1605TIP3    H226451   5.220   3.874   8.786  1.3821 -0.0382 -1.3767
 1606TIP3   OH226452   5.884   1.219   1.557 -0.4526 -0.1166  0.6906
 1606TIP3    H126453   5.944   1.200   1.629  0.7026 -0.4921 -0.3332
 1606TIP3    H226454   5.797   1.196   1.591  0.0341 -0.0464  2.0312
 1607TIP3   OH226455   2.515   1.651   8.248  0.4488  0.0690 -0.0781
 1607TIP3    H126456   2.515   1.728   8.305 -2.0721  0.4872 -0.5163
 1607TIP3    H226457   2.594   1.662   8.194  0.6516  1.8718  0.4926
 1608TIP3   OH226458   6.398   1.254   2.184 -0.1090  0.2227 -0.4014
 1608TIP3    H126459   6.428   1.234   2.273  0.8983  2.4205 -0.1629
 1608TIP3    H226460   6.348   1.177   2.157  0.5160 -0.9715  1.6282
 1609TIP3   OH226461   4.433   4.805   0.904 -0.3974 -0.4528 -0.2793
 1609TIP3    H126462   4.484   4.882   0.929 -0.0575 -1.0123  0.8240
 1609TIP3    H226463   4.493   4.754   0.850 -0.1032 -0.6598  0.2378
 1610TIP3   OH226464   1.142   4.073   0.253 -0.3873 -0.5181 -0.4175
 1610TIP3    H126465   1.189   4.117   0.182  0.9431 -0.8317  0.2470
 1610TIP3    H226466   1.085   4.140   0.290  1.9274  0.8561  0.8827
 1611TIP3   OH226467   6.658   5.988   1.982 -0.1904 -0.4608 -0.2085
 1611TIP3    H126468   6.692   6.013   2.068  1.2183 -0.0337 -0.8609
 1611TIP3    H226469   6.714   6.034   1.919 -2.0120  0.2898 -1.3658
 1612TIP3   OH226470   5.197   5.990   1.804  0.0489 -0.7236 -0.2884
 1612TIP3    H126471   5.210   6.073   1.851 -0.4132 -0.0681 -1.2874
 1612TIP3    H226472   5.243   5.925   1.858  1.9393  0.4547 -0.3761
 1613TIP3   OH226473   2.480   1.482   7.019  0.1168 -0.5244  0.2564
 1613TIP3    H126474   2.412   1.483   7.086 -0.4179 -1.3972 -0.2523
 1613TIP3    H226475   2.494   1.389   7.001  0.0152 -0.3055 -1.0655
 1614TIP3   OH226476   6.627   1.071   0.838  0.5975 -0.4821  0.3721
 1614TIP3    H126477   6.563   1.136   0.809 -0.7347 -1.9518 -0.1133
 1614TIP3    H226478   6.599   1.048   0.926  0.4292 -1.1622  0.1439
 1615TIP3   OH226479   4.505   5.924   7.772 -0.4329  0.3844  0.3614
 1615TIP3    H126480   4.422   5.894   7.809 -0.2037 -0.0918  0.4953
 1615TIP3    H226481   4.511   5.881   7.687  1.8786 -3.5190  2.2265
 1616TIP3   OH226482   4.987   6.246   2.213 -0.1981  0.1601  0.0748
 1616TIP3    H126483   4.983   6.154   2.188 -0.2215  0.0954  0.3188
 1616TIP3    H226484   4.917   6.258   2.277  1.0647 -0.1420  1.5896
 1617TIP3   OH226485   2.550   0.814   0.274 -0.0122 -0.1913 -0.1622
 1617TIP3    H126486   2.637   0.785   0.300 -0.0153  0.3839  0.5105
 1617TIP3    H226487   2.546   0.906   0.302 -0.3765  0.1583 -1.3068
 1618TIP3   OH226488   0.880   3.699   3.593 -0.3551  0.2981  0.0019
 1618TIP3    H126489   0.830   3.636   3.540 -0.1993  0.2460 -0.0828
 1618TIP3    H226490   0.971   3.682   3.571 -0.2949  0.3460  0.2102
 1619TIP3   OH226491   0.348   0.975   7.743  0.2687  0.5352 -0.0458
 1619TIP3    H126492   0.320   0.883   7.738 -0.2704  0.6672  0.4832
 1619TIP3    H226493   0.444   0.970   7.747  0.2885  0.0340 -0.7853
 1620TIP3   OH226494   1.792   6.137   1.184  0.4562  0.3243 -0.7250
 1620TIP3    H126495   1.813   6.044   1.188  2.1374  0.7009  0.2449
 1620TIP3    H226496   1.827   6.166   1.100  0.2749  0.1702 -0.8556
 1621TIP3   OH226497   5.095   6.094   1.012 -0.2633 -0.2326  0.1527
 1621TIP3    H126498   5.027   6.027   1.019 -0.1252 -0.2822  1.1577
 1621TIP3    H226499   5.098   6.115   0.919  0.7198 -2.6480 -0.4136
 1622TIP3   OH226500   1.031   3.696   2.673  0.4130 -0.6253 -0.8524
 1622TIP3    H126501   1.014   3.789   2.690 -1.5667 -0.6668 -2.2347
 1622TIP3    H226502   1.073   3.665   2.753 -1.9152  0.7355  1.0537
 1623TIP3   OH226503   4.796   0.422   0.564  0.5297  0.5496  0.1093
 1623TIP3    H126504   4.708   0.386   0.560  0.7446 -0.0643  0.6688
 1623TIP3    H226505   4.784   0.516   0.549 -0.4014  0.7059  1.5778
 1624TIP3   OH226506   0.071   1.290   2.378  0.0427  0.3164  0.2583
 1624TIP3    H126507   0.119   1.265   2.457  0.0629  2.6941  1.0771
 1624TIP3    H226508   0.139   1.318   2.316 -0.0279 -0.7518 -0.3252
 1625TIP3   OH226509   2.651   6.781   8.355 -0.0508 -0.4251  0.0567
 1625TIP3    H126510   2.739   6.751   8.377 -0.2371 -0.1720  1.2261
 1625TIP3    H226511   2.609   6.797   8.440 -1.1530 -0.3369 -0.4814
 1626TIP3   OH226512   4.002   2.571   7.829  0.4021 -0.2471 -0.1241
 1626TIP3    H126513   4.073   2.618   7.786  0.8985 -2.2273 -1.6437
 1626TIP3    H226514   3.929   2.576   7.768 -0.9207  1.8630  1.4707
 1627TIP3   OH226515   3.972   2.508   2.604 -0.1102 -0.3009 -0.2019
 1627TIP3    H126516   4.026   2.429   2.601  1.2852  0.6592 -0.9050
 1627TIP3    H226517   3.946   2.523   2.513  2.6338  2.0106 -0.7415
 1628TIP3   OH226518   2.025   4.609   1.246 -0.2918  0.6283  0.0873
 1628TIP3    H126519   2.048   4.528   1.201 -1.9522  0.5044 -0.6226
 1628TIP3    H226520   2.035   4.677   1.178 -0.1083  0.8373  0.3224
 1629TIP3   OH226521   4.080   1.635   0.260  0.6817  0.1740 -0.2217
 1629TIP3    H126522   3.997   1.676   0.282  0.1844  0.0999 -1.8177
 1629TIP3    H226523   4.116   1.606   0.344 -0.4429  1.0416  0.5905
 1630TIP3   OH226524   5.932   3.095   2.377  0.2375  0.3349 -0.0401
 1630TIP3    H126525   5.887   3.118   2.296  0.1041 -0.5166 -0.2228
 1630TIP3    H226526   5.947   3.178   2.421 -0.1279  0.7641 -0.7096
 1631TIP3   OH226527   3.031   3.672   1.019  0.4790 -0.7054  0.6584
 1631TIP3    H126528   2.961   3.649   0.959 -0.2553 -0.4907  1.4066
 1631TIP3    H226529   3.029   3.768   1.023  1.0982 -0.6778  0.3571
 1632TIP3   OH226530   4.720   1.189   0.504 -0.2116 -0.3414  0.2378
 1632TIP3    H126531   4.703   1.265   0.448 -0.3156 -0.0827  0.6206
 1632TIP3    H226532   4.739   1.226   0.590  1.4919 -0.6381  0.0351
 1633TIP3   OH226533   4.260   6.695   1.829 -0.2040 -0.0762 -0.1075
 1633TIP3    H126534   4.243   6.737   1.914  2.0900 -0.0485  0.4314
 1633TIP3    H226535   4.207   6.615   1.830  0.4436 -0.5518  1.8042
 1634TIP3   OH226536   5.681   1.580   1.770 -0.1281 -0.3268 -0.3706
 1634TIP3    H126537   5.670   1.585   1.675 -2.3798  1.6058 -0.0946
 1634TIP3    H226538   5.750   1.644   1.790 -0.7343  0.3982 -0.5803
 1635TIP3   OH226539   0.507   2.933   0.402  0.1083 -0.7484 -0.2658
 1635TIP3    H126540   0.446   2.862   0.383  0.7448 -0.8598 -2.0863
 1635TIP3    H226541   0.507   2.940   0.498 -1.0713 -2.1965 -0.1236
 1636TIP3   OH226542   1.853   3.133   1.808  0.6323  0.0354  0.1843
 1636TIP3    H126543   1.941   3.110   1.778  1.0046  1.6878 -0.0617
 1636TIP3    H226544   1.866   3.210   1.863 -0.8252  1.2158 -1.0704
 1637TIP3   OH226545   6.584   2.440   2.718  0.3204  0.5471 -0.4740
 1637TIP3    H126546   6.538   2.501   2.776 -1.0335  0.2834 -1.2178
 1637TIP3    H226547   6.675   2.441   2.749 -0.3710  0.2590  1.7761
 1638TIP3   OH226548   3.995   4.552   1.920  0.4814  0.8836  0.3354
 1638TIP3    H126549   4.077   4.576   1.877  1.2687 -0.1610  1.1899
 1638TIP3    H226550   3.979   4.461   1.895 -0.3067  1.0088  0.3534
 1639TIP3   OH226551   6.552   0.620   1.067  0.0329  0.1979 -0.1691
 1639TIP3    H126552   6.568   0.634   1.160  3.4633 -1.4624 -0.3580
 1639TIP3    H226553   6.581   0.531   1.051 -1.8032 -0.0582 -2.6317
 1640TIP3   OH226554   0.441   3.223   1.778  0.1947  0.3525  0.5987
 1640TIP3    H126555   0.445   3.145   1.723 -0.2929  0.3993  0.4892
 1640TIP3    H226556   0.531   3.254   1.783  0.0569  1.1954 -1.3798
 1641TIP3   OH226557   6.302   2.586   1.049  0.4364 -0.2820 -0.2643
 1641TIP3    H126558   6.365   2.557   1.116 -0.8449  0.8558  1.5320
 1641TIP3    H226559   6.338   2.669   1.018 -1.1551  1.5995  2.4513
 1642TIP3   OH226560   5.906   5.070   1.475  0.0564 -0.1172 -0.0502
 1642TIP3    H126561   5.844   5.068   1.548  0.1032 -1.0231 -0.0142
 1642TIP3    H226562   5.976   5.010   1.502  0.5055  0.2042 -0.4724
 1643TIP3   OH226563   2.047   1.849   8.452  0.4838  0.2800  0.5974
 1643TIP3    H126564   2.096   1.926   8.423  2.4072 -0.0685  2.6540
 1643TIP3    H226565   2.115   1.784   8.473 -0.8944 -0.6447  2.4771
 1644TIP3   OH226566   5.447   1.465   0.310  0.2343 -0.0090  0.4872
 1644TIP3    H126567   5.533   1.465   0.353  0.1395  1.5603  0.7396
 1644TIP3    H226568   5.431   1.557   0.290 -1.5874 -0.2273  0.8173
 1645TIP3   OH226569   1.527   4.644   2.322 -0.0085 -0.0090 -0.9168
 1645TIP3    H126570   1.526   4.669   2.229 -1.2180 -0.1313 -0.9469
 1645TIP3    H226571   1.491   4.555   2.323 -0.5604  0.2187 -0.2771
 1646TIP3   OH226572   2.276   5.987   2.382 -0.4052  0.6393 -0.6366
 1646TIP3    H126573   2.312   5.991   2.471 -1.1631  0.5152 -0.3122
 1646TIP3    H226574   2.218   5.911   2.383  0.2428  0.1237 -1.5018
 1647TIP3   OH226575   3.788   0.346   2.590  0.1061  0.5688  0.2982
 1647TIP3    H126576   3.849   0.275   2.570  2.7429  2.8398 -0.3273
 1647TIP3    H226577   3.723   0.343   2.521  1.1117 -0.2676 -0.6344
 1648TIP3   OH226578   4.758   5.589   2.467  0.3140 -0.6764 -0.6738
 1648TIP3    H126579   4.835   5.638   2.497  0.1225 -0.4313 -0.5815
 1648TIP3    H226580   4.771   5.579   2.373  0.3345 -0.4090 -0.7006
 1649TIP3   OH226581   0.619   6.338   0.851 -0.7945 -0.3376  0.1899
 1649TIP3    H126582   0.592   6.428   0.870  0.7677  0.0352  0.8228
 1649TIP3    H226583   0.667   6.344   0.768 -0.0833 -0.4542  0.5849
 1650TIP3   OH226584   6.528   6.809   0.359 -0.1773  0.0701  0.1201
 1650TIP3    H126585   6.607   6.786   0.311  2.4407  1.8002  3.1844
 1650TIP3    H226586   6.525   6.745   0.431 -0.4201  1.1956  1.1389
 1651TIP3   OH226587   3.831   3.922   0.129  0.1669 -0.0619 -0.1255
 1651TIP3    H126588   3.784   3.994   0.087 -0.6754 -0.1626  0.6071
 1651TIP3    H226589   3.784   3.908   0.211  0.3137 -1.4465 -0.2539
 1652TIP3   OH226590   4.326   1.794   2.056  0.7776 -0.1578 -0.4148
 1652TIP3    H126591   4.390   1.729   2.086  1.4021  0.8460  0.4727
 1652TIP3    H226592   4.371   1.838   1.983  0.6423 -0.2277 -0.5401
 1653TIP3   OH226593   5.584   5.366   8.337 -0.3681 -0.0931 -0.6495
 1653TIP3    H126594   5.576   5.383   8.244  0.7903  1.5325 -0.4916
 1653TIP3    H226595   5.673   5.392   8.359 -0.3159 -1.2905  0.7639
 1654TIP3   OH226596   5.041   5.417   0.740  0.7876  0.4882 -0.4198
 1654TIP3    H126597   5.017   5.502   0.778 -0.2392 -0.1522  0.4338
 1654TIP3    H226598   5.087   5.372   0.811 -0.1273 -0.2898 -0.3124
 1655TIP3   OH226599   4.058   2.691   0.865  0.2055  0.4583  0.7522
 1655TIP3    H126600   4.097   2.627   0.806 -0.4087  0.6337  0.1380
 1655TIP3    H226601   3.982   2.725   0.817 -0.5349  0.3317  1.7925
 1656TIP3   OH226602   3.596   6.241   8.604 -0.0918 -0.1533 -0.5876
 1656TIP3    H126603   3.644   6.260   8.523  0.5853  0.4449 -0.0535
 1656TIP3    H226604   3.663   6.237   8.672 -0.4486 -2.2684 -0.2838
 1657TIP3   OH226605   3.445   3.168   7.951  0.0128  0.6758  0.1638
 1657TIP3    H126606   3.485   3.087   7.920 -0.0911  0.2597  1.0874
 1657TIP3    H226607   3.458   3.230   7.880  2.0536  0.4867  0.3269
 1658TIP3   OH226608   4.316   5.392   1.619  0.2808  0.7359  0.3450
 1658TIP3    H126609   4.260   5.460   1.581 -0.6098  0.6503  1.4551
 1658TIP3    H226610   4.348   5.430   1.701  2.1971  0.9294 -0.4374
 1659TIP3   OH226611   6.730   6.385   1.945  0.4289  0.5412 -0.1700
 1659TIP3    H126612   6.690   6.407   2.029 -0.1597 -0.2651 -0.2346
 1659TIP3    H226613   6.824   6.386   1.963  0.2974  0.0370  0.5919
 1660TIP3   OH226614   2.055   4.950   2.002 -0.2152  1.0791  0.0587
 1660TIP3    H126615   2.046   4.860   2.035  0.9243  0.7974 -0.3400
 1660TIP3    H226616   2.033   5.006   2.077  2.4748  0.4687  1.4661
 1661TIP3   OH226617   0.165   4.143   8.581  0.3809  0.8408  0.0124
 1661TIP3    H126618   0.219   4.154   8.659  0.6360  0.4452 -0.1037
 1661TIP3    H226619   0.104   4.073   8.603 -0.4597  1.6481  0.3349
 1662TIP3   OH226620   4.989   2.459   0.698 -0.1482  0.3758 -0.9200
 1662TIP3    H126621   5.032   2.501   0.772 -0.7976  0.0805 -0.3603
 1662TIP3    H226622   4.909   2.510   0.684 -2.0783 -1.8045  1.1504
 1663TIP3   OH226623   6.196   0.192   0.336  0.2527  0.1160 -1.1194
 1663TIP3    H126624   6.274   0.217   0.385  0.3399 -0.8004 -0.7622
 1663TIP3    H226625   6.226   0.124   0.276  0.0675  0.9630 -2.1953
 1664TIP3   OH226626   2.945   4.249   7.098  0.5771 -0.4719 -0.2686
 1664TIP3    H126627   2.961   4.326   7.043 -1.7848 -0.8451 -1.6120
 1664TIP3    H226628   2.898   4.283   7.174 -0.8493 -0.5497 -1.0633
 1665TIP3   OH226629   4.590   1.220   1.209  0.2057 -0.1154 -0.2871
 1665TIP3    H126630   4.633   1.156   1.266 -1.0402  1.2067  2.3064
 1665TIP3    H226631   4.662   1.274   1.175  0.9984 -1.0411 -0.1355
 1666TIP3   OH226632   3.216   4.454   3.435  0.1206  0.4199 -0.1405
 1666TIP3    H126633   3.188   4.511   3.364 -1.3969  0.3301  0.3579
 1666TIP3    H226634   3.305   4.483   3.456  0.3808  0.7936 -1.6896
 1667TIP3   OH226635   0.751   2.852   1.038 -0.3163  0.1904  0.1591
 1667TIP3    H126636   0.683   2.918   1.025 -0.9801 -0.9440 -3.1138
 1667TIP3    H226637   0.704   2.772   1.060  0.3401  0.2630  2.0426
 1668TIP3   OH226638   4.341   6.241   2.091 -0.1672 -0.3544 -0.0213
 1668TIP3    H126639   4.323   6.330   2.060 -0.6154 -0.7728 -1.0286
 1668TIP3    H226640   4.348   6.189   2.011  2.6612 -0.7956  0.4132
 1669TIP3   OH226641   6.237   5.317   7.989  0.1829 -0.0229  0.0289
 1669TIP3    H126642   6.224   5.284   7.901 -2.3215  1.4793 -0.2453
 1669TIP3    H226643   6.329   5.346   7.990  0.4135 -0.5706 -1.8778
 1670TIP3   OH226644   6.644   4.479   3.141  0.4610  0.0763  0.0450
 1670TIP3    H126645   6.565   4.493   3.090  0.6108  1.5555  0.1988
 1670TIP3    H226646   6.671   4.390   3.118 -1.9931 -1.0197  1.0288
 1671TIP3   OH226647   0.342   3.858   1.776 -0.3820  0.2407  0.3568
 1671TIP3    H126648   0.381   3.926   1.721 -0.0607 -0.6091 -0.4831
 1671TIP3    H226649   0.393   3.779   1.757 -0.0647 -0.0180  2.0960
 1672TIP3   OH226650   1.246   2.153   2.369  0.3662 -0.3785 -0.1796
 1672TIP3    H126651   1.284   2.066   2.357  1.1510 -0.0500 -0.1814
 1672TIP3    H226652   1.310   2.200   2.422 -0.2272  0.0834  0.1414
 1673TIP3   OH226653   1.739   1.288   2.407  0.0084  0.3518 -0.6301
 1673TIP3    H126654   1.788   1.330   2.337 -1.4224  1.4452 -1.0321
 1673TIP3    H226655   1.674   1.353   2.433 -0.8955 -0.8409  0.2183
 1674TIP3   OH226656   2.118   0.988   0.287 -0.4128  0.2123  0.1559
 1674TIP3    H126657   2.084   0.928   0.353 -0.3003  0.1158  0.1269
 1674TIP3    H226658   2.088   1.074   0.314 -0.6848  0.1258  0.1274
 1675TIP3   OH226659   2.732   6.303   8.787  0.2745 -0.2000 -0.6274
 1675TIP3    H126660   2.729   6.254   8.869  2.1558 -1.0585 -1.0199
 1675TIP3    H226661   2.740   6.394   8.813 -1.0467 -0.2639  0.1125
 1676TIP3   OH226662   6.410   6.097   2.095 -0.4188 -0.7142 -0.4737
 1676TIP3    H126663   6.481   6.051   2.050  2.7455  0.4779  2.8190
 1676TIP3    H226664   6.409   6.184   2.057  0.8442 -0.3360  0.3078
 1677TIP3   OH226665   2.370   1.150   7.933  0.3233  0.0738  0.1965
 1677TIP3    H126666   2.315   1.071   7.933  1.0135 -0.4166 -0.1442
 1677TIP3    H226667   2.355   1.188   7.846 -0.0288  0.3398  0.3699
 1678TIP3   OH226668   6.013   6.159   1.933 -0.7120 -0.1175 -0.1602
 1678TIP3    H126669   6.108   6.147   1.941 -0.4192  1.1354 -1.4111
 1678TIP3    H226670   6.002   6.204   1.849 -2.2827  1.2173  0.7160
 1679TIP3   OH226671   6.512   3.650   1.880  0.2423 -0.3840  0.0357
 1679TIP3    H126672   6.562   3.700   1.946 -1.3625 -0.3606  1.3064
 1679TIP3    H226673   6.546   3.561   1.887 -1.5496 -0.9796  2.7827
 1680TIP3   OH226674   6.247   5.636   1.096 -0.2973  0.8894 -0.0695
 1680TIP3    H126675   6.196   5.715   1.080 -1.6780  0.1450  0.4204
 1680TIP3    H226676   6.195   5.587   1.160  0.9198 -0.0391  0.2427
 1681TIP3   OH226677   1.660   4.155   0.719  0.0311  0.2551  0.5300
 1681TIP3    H126678   1.595   4.173   0.651  0.1473 -0.9167  0.0845
 1681TIP3    H226679   1.664   4.059   0.724 -1.4334  0.2375  3.5994
 1682TIP3   OH226680   1.902   6.596   0.990  0.1591  0.0188 -0.2446
 1682TIP3    H126681   1.959   6.659   0.947  0.0704  0.0726 -0.2838
 1682TIP3    H226682   1.946   6.512   0.977  1.7895  0.3773  2.2944
 1683TIP3   OH226683   2.050   2.055   7.960 -0.0521 -0.0572 -0.3651
 1683TIP3    H126684   2.041   2.142   7.921  0.8565  0.8428  1.3432
 1683TIP3    H226685   1.982   2.003   7.917 -1.2483  1.7343 -0.7704
 1684TIP3   OH226686   6.652   3.245   8.760  0.1340 -0.0239  0.2333
 1684TIP3    H126687   6.675   3.295   8.682 -0.8570  0.1582  0.0461
 1684TIP3    H226688   6.657   3.309   8.831  0.5585 -0.0745  0.2512
 1685TIP3   OH226689   1.845   3.132   8.783 -0.0316 -0.5738  0.5262
 1685TIP3    H126690   1.884   3.075   8.849 -0.0731 -0.3427  0.7503
 1685TIP3    H226691   1.809   3.071   8.717  1.4743 -0.7739 -0.1481
 1686TIP3   OH226692   6.506   0.051   2.657 -0.1539  0.3058  0.4296
 1686TIP3    H126693   6.544  -0.028   2.617  2.6511  0.3554  2.5959
 1686TIP3    H226694   6.428   0.019   2.702 -0.7510 -0.6005 -1.1623
 1687TIP3   OH226695   2.760   5.640   1.711  0.5902  0.2021  0.9081
 1687TIP3    H126696   2.833   5.647   1.773  2.4843 -1.2123 -1.0160
 1687TIP3    H226697   2.742   5.546   1.706  0.4053  0.2964 -0.5656
 1688TIP3   OH226698   2.102   4.587   8.263  0.1978 -0.2982  0.0395
 1688TIP3    H126699   2.181   4.607   8.212  0.3159  0.8233  0.6353
 1688TIP3    H226700   2.038   4.560   8.197  0.9141 -0.7052 -0.5071
 1689TIP3   OH226701   6.553   1.714   8.189  0.3954  0.4302 -0.2020
 1689TIP3    H126702   6.594   1.744   8.108  2.1563 -0.2286  0.3987
 1689TIP3    H226703   6.618   1.656   8.229 -0.2500  1.0478  1.8888
 1690TIP3   OH226704   2.231   5.733   1.153  0.6029 -0.4880  0.1412
 1690TIP3    H126705   2.185   5.734   1.237 -0.0910 -2.0993 -0.1800
 1690TIP3    H226706   2.162   5.714   1.089  1.0810  0.9713 -0.8386
 1691TIP3   OH226707   0.522   4.524   1.342  0.1129  0.3702 -0.3314
 1691TIP3    H126708   0.525   4.616   1.368  0.8491  0.4767 -0.7533
 1691TIP3    H226709   0.434   4.512   1.305 -0.0121  0.8819 -0.2033
 1692TIP3   OH226710   3.391   1.272   1.815 -0.0112  0.2561 -0.6682
 1692TIP3    H126711   3.448   1.298   1.743  2.2003  0.7718  1.1464
 1692TIP3    H226712   3.376   1.353   1.865  2.1771 -0.7219  1.8249
 1693TIP3   OH226713   2.043   0.792   8.010 -0.3992  0.1777  0.6532
 1693TIP3    H126714   2.051   0.887   8.001 -0.9719  0.3209  1.5186
 1693TIP3    H226715   2.000   0.764   7.929  2.8060  0.1642 -1.2254
 1694TIP3   OH226716   6.039   5.813   1.356  0.4631  0.0293  0.1097
 1694TIP3    H126717   6.015   5.737   1.408 -0.3787  0.1156 -0.1433
 1694TIP3    H226718   5.999   5.887   1.402 -0.6369  0.0627 -0.8523
 1695TIP3   OH226719   5.660   5.526   0.999  0.0140 -0.2153 -0.0565
 1695TIP3    H126720   5.605   5.583   1.052 -0.5908 -0.9967  0.1726
 1695TIP3    H226721   5.668   5.446   1.050  0.8862 -0.3343 -0.3577
 1696TIP3   OH226722   5.395   1.874   7.995 -0.5005 -0.3845 -0.0501
 1696TIP3    H126723   5.429   1.933   7.927  0.3271 -1.4289 -0.5878
 1696TIP3    H226724   5.300   1.880   7.986 -0.4141 -0.4973 -1.3254
 1697TIP3   OH226725   5.464   5.654   1.719 -0.2333 -0.3710  0.3327
 1697TIP3    H126726   5.457   5.664   1.624 -0.2673  0.1946  0.3864
 1697TIP3    H226727   5.380   5.686   1.753  0.5580  1.5304  0.6686
 1698TIP3   OH226728   3.481   5.995   0.554 -0.3269  0.6540 -0.8379
 1698TIP3    H126729   3.553   5.950   0.598 -0.5420  2.2304  1.3274
 1698TIP3    H226730   3.478   5.957   0.466  1.5031 -1.2110 -0.1688
 1699TIP3   OH226731   5.444   1.718   0.231 -0.3197 -0.3471 -0.1477
 1699TIP3    H126732   5.483   1.800   0.259  0.1269 -0.4698 -0.4063
 1699TIP3    H226733   5.430   1.728   0.137  1.4434 -1.2344 -0.5494
 1700TIP3   OH226734   1.095   5.951   8.626 -0.4092  0.1510 -0.4530
 1700TIP3    H126735   1.146   5.966   8.705 -2.1475 -0.5911  0.8832
 1700TIP3    H226736   1.034   6.025   8.623 -0.3627  0.1673 -1.0859
 1701TIP3   OH226737   2.250   1.580   0.531  0.5424  0.1798 -0.1142
 1701TIP3    H126738   2.237   1.618   0.617  5.9136 -0.5700  1.4057
 1701TIP3    H226739   2.317   1.635   0.490  2.2253 -2.5735 -1.3779
 1702TIP3   OH226740   4.104   3.987   0.655  0.0797  0.0699 -0.4037
 1702TIP3    H126741   4.156   3.918   0.696 -0.7180 -1.4606 -1.8518
 1702TIP3    H226742   4.166   4.033   0.598  0.8600  1.2930  1.3491
 1703TIP3   OH226743   4.484   1.812   2.893 -0.3061 -0.3162 -0.5130
 1703TIP3    H126744   4.392   1.815   2.919 -0.0261  2.3488  0.5602
 1703TIP3    H226745   4.531   1.834   2.973  1.2153 -0.9263 -1.2160
 1704TIP3   OH226746   3.254   4.666   8.073  0.0777 -0.0451 -0.5934
 1704TIP3    H126747   3.329   4.661   8.013  2.6454  0.2397  2.3114
 1704TIP3    H226748   3.231   4.759   8.075  0.4574  0.0525 -0.6297
 1705TIP3   OH226749   0.763   5.729   2.069  0.2007  0.3689  0.0809
 1705TIP3    H126750   0.706   5.686   2.005  0.1672 -1.8305  1.4782
 1705TIP3    H226751   0.845   5.681   2.065  1.1391  1.9172 -0.1369
 1706TIP3   OH226752   4.037   0.619   2.616  0.9736  0.3234  0.2703
 1706TIP3    H126753   4.011   0.559   2.546 -1.2186  2.4723 -0.9350
 1706TIP3    H226754   4.002   0.580   2.696 -0.3598 -0.1050 -0.4819
 1707TIP3   OH226755   5.900   5.403   1.732 -0.5451 -0.1677  0.1008
 1707TIP3    H126756   5.812   5.389   1.699 -1.1602 -0.5580  1.7873
 1707TIP3    H226757   5.889   5.411   1.827  1.1625  0.3733  0.2931
 1708TIP3   OH226758   4.411   5.596   1.792  0.0897 -0.0627 -0.6705
 1708TIP3    H126759   4.447   5.675   1.750 -0.8908  1.5898  1.3865
 1708TIP3    H226760   4.316   5.610   1.791 -0.1276 -1.4688 -0.7073
 1709TIP3   OH226761   3.152   1.960   7.839  0.2149 -0.2633 -0.3039
 1709TIP3    H126762   3.142   2.041   7.888  1.5659 -0.2999  0.0727
 1709TIP3    H226763   3.062   1.928   7.827 -0.2247  0.3074  1.1823
 1710TIP3   OH226764   4.046   5.872   2.416  0.0114 -0.5698  0.4443
 1710TIP3    H126765   3.955   5.875   2.387 -0.3913 -2.5267  1.3166
 1710TIP3    H226766   4.041   5.876   2.512  0.9686  0.7277  0.4746
 1711TIP3   OH226767   3.537   3.542   2.201 -0.1117 -0.3447  0.9792
 1711TIP3    H126768   3.484   3.614   2.165 -1.3781 -1.1280  1.2019
 1711TIP3    H226769   3.558   3.487   2.125  0.6008  0.0909  0.8548
 1712TIP3   OH226770   0.270   1.709   3.190  0.0400  0.6062 -0.2397
 1712TIP3    H126771   0.224   1.793   3.180 -0.4211  0.1664 -2.0669
 1712TIP3    H226772   0.362   1.730   3.176 -0.0556  0.8231 -0.5366
 1713TIP3   OH226773   2.065   5.911   7.834 -0.4185 -0.4672 -0.1736
 1713TIP3    H126774   2.090   5.994   7.794 -0.8033  0.6587  1.7710
 1713TIP3    H226775   2.055   5.931   7.927 -0.8847 -2.6251  0.3094
 1714TIP3   OH226776   2.438   3.635   0.557  0.1375 -0.1838  0.2404
 1714TIP3    H126777   2.383   3.562   0.585  1.7104 -1.7091 -0.4983
 1714TIP3    H226778   2.509   3.595   0.509  0.7132  1.9162 -0.7834
 1715TIP3   OH226779   0.526   4.970   1.118  0.2887  0.3289  0.2535
 1715TIP3    H126780   0.489   4.987   1.204  0.1578 -0.1321  0.2950
 1715TIP3    H226781   0.455   4.991   1.057 -0.2113 -0.9392  0.3537
 1716TIP3   OH226782   0.903   1.664   1.789  0.1201 -0.3300  0.7630
 1716TIP3    H126783   0.990   1.624   1.784 -0.4099 -1.4961  0.3983
 1716TIP3    H226784   0.870   1.639   1.876 -0.0975 -0.4443  0.6495
 1717TIP3   OH226785   5.473   6.443   2.058 -0.0942  1.1278 -0.6945
 1717TIP3    H126786   5.511   6.467   1.973 -1.4441  0.5423 -1.5103
 1717TIP3    H226787   5.424   6.520   2.085 -0.9140  0.8138 -1.2231
 1718TIP3   OH226788   2.005   1.541   8.273  0.0365  0.4619  0.0702
 1718TIP3    H126789   2.099   1.524   8.268  0.4380  2.3014  0.5779
 1718TIP3    H226790   1.983   1.527   8.365 -0.3652 -0.7138 -0.1920
 1719TIP3   OH226791   5.486   2.523   1.994 -0.5531  0.5146  0.4154
 1719TIP3    H126792   5.556   2.557   2.050  0.1285 -0.2787  0.0824
 1719TIP3    H226793   5.406   2.560   2.030 -0.1749 -0.2091  2.1043
 1720TIP3   OH226794   0.639   0.975   1.280 -0.0407 -0.4331  0.2763
 1720TIP3    H126795   0.555   0.938   1.252 -0.0998  0.3185 -0.5854
 1720TIP3    H226796   0.662   1.036   1.211  0.6789  0.1896  1.0529
 1721TIP3   OH226797   3.613   5.918   2.498  0.5040  0.6159  0.0730
 1721TIP3    H126798   3.564   5.843   2.532  1.8102 -0.1437  0.3508
 1721TIP3    H226799   3.569   5.995   2.535 -1.4011  0.0762 -0.9135
 1722TIP3   OH226800   2.033   0.773   7.427 -0.5572 -0.1971  0.1740
 1722TIP3    H126801   2.123   0.747   7.404 -1.0521 -1.8798  0.0467
 1722TIP3    H226802   2.023   0.746   7.518 -1.2316 -0.8637 -0.0914
 1723TIP3   OH226803   0.408   1.776   0.422  0.1687  0.3390  0.9890
 1723TIP3    H126804   0.378   1.698   0.469  2.5817 -0.3294  1.5457
 1723TIP3    H226805   0.443   1.833   0.491  2.4981 -0.0593  0.2194
 1724TIP3   OH226806   6.714   2.593   8.103 -0.0757  0.1605  0.2579
 1724TIP3    H126807   6.679   2.643   8.177  0.1575 -1.5165  1.5576
 1724TIP3    H226808   6.744   2.511   8.142  1.8928  0.0211 -1.3849
 1725TIP3   OH226809   4.011   4.251   2.168  0.4773  0.0886 -0.7792
 1725TIP3    H126810   4.088   4.217   2.123  0.6621 -0.4141 -0.1038
 1725TIP3    H226811   4.045   4.288   2.250  0.1887  1.2573 -1.1609
 1726TIP3   OH226812   0.782   1.042   0.870  0.1569  0.1769 -0.0191
 1726TIP3    H126813   0.854   1.035   0.806  0.5987 -0.0283  0.4957
 1726TIP3    H226814   0.704   1.055   0.816  0.6255  0.7692 -0.5797
 1727TIP3   OH226815   0.608   4.818   0.617 -0.0717 -0.2274 -0.0153
 1727TIP3    H126816   0.550   4.742   0.616 -0.7393  0.2607  0.1509
 1727TIP3    H226817   0.688   4.789   0.573  0.4696 -1.6153  1.7591
 1728TIP3   OH226818   6.651   0.741   2.196  0.2562  0.5956  0.4570
 1728TIP3    H126819   6.720   0.691   2.152  0.2537  0.4243  0.6481
 1728TIP3    H226820   6.693   0.776   2.275  0.1775  0.6528  0.4735
 1729TIP3   OH226821   5.933   0.889   1.245 -0.1319 -0.2583 -0.1504
 1729TIP3    H126822   5.852   0.935   1.227  0.5036  0.7921 -0.4077
 1729TIP3    H226823   5.990   0.911   1.171  1.4616  1.5727  1.4868
 1730TIP3   OH226824   0.007   3.288   2.216  0.0649 -0.0337 -0.3396
 1730TIP3    H126825   0.071   3.343   2.262 -0.5047  0.7694 -0.4824
 1730TIP3    H226826  -0.048   3.351   2.168 -0.7944 -0.7132 -0.2627
 1731TIP3   OH226827   3.684   2.108   1.949 -0.1939  0.1564 -0.4389
 1731TIP3    H126828   3.670   2.194   1.989  0.9120  0.4467 -0.6468
 1731TIP3    H226829   3.710   2.127   1.859 -3.5956 -0.5041 -1.7193
 1732TIP3   OH226830   4.748   1.924   7.845  0.2608  0.1535 -0.3303
 1732TIP3    H126831   4.745   1.863   7.771  0.9152  0.9516 -1.0390
 1732TIP3    H226832   4.830   1.904   7.889  0.7363  0.8626 -0.8775
 1733TIP3   OH226833   6.653   0.816   1.251 -0.0616  0.1227 -0.2409
 1733TIP3    H126834   6.575   0.846   1.297  0.7218 -0.0566  1.2989
 1733TIP3    H226835   6.725   0.865   1.291  0.8262 -1.1319 -0.2285
 1734TIP3   OH226836   0.183   1.752   2.464  0.5616  0.4378  0.5508
 1734TIP3    H126837   0.193   1.700   2.544  0.8443 -1.0165 -0.3853
 1734TIP3    H226838   0.251   1.719   2.405 -0.2244  0.8283 -0.6148
 1735TIP3   OH226839   1.171   4.996   8.821 -0.3467 -0.1112 -0.0259
 1735TIP3    H126840   1.169   4.971   8.913  0.4798 -1.2521 -0.2930
 1735TIP3    H226841   1.110   5.069   8.814  1.1683  1.4252  1.8349
 1736TIP3   OH226842   2.013   2.904   8.109 -0.5886  0.0995 -0.6633
 1736TIP3    H126843   1.948   2.927   8.043  0.0824  0.0922 -1.3407
 1736TIP3    H226844   1.983   2.819   8.143 -0.5390 -0.2567 -1.4910
 1737TIP3   OH226845   6.429   5.175   0.053  0.2953  0.4382 -0.0283
 1737TIP3    H126846   6.443   5.081   0.049 -0.9752  0.2700 -2.4518
 1737TIP3    H226847   6.356   5.186   0.115  0.8896 -0.0583  0.7872
 1738TIP3   OH226848   3.043   0.326   2.394  0.1153  0.4612  0.3933
 1738TIP3    H126849   3.053   0.379   2.473  0.2177 -3.3412  3.2151
 1738TIP3    H226850   3.132   0.307   2.365  0.1174  0.6157  0.2999
 1739TIP3   OH226851   5.630   2.742   0.055 -0.0768 -0.3118  0.1332
 1739TIP3    H126852   5.537   2.761   0.067 -0.7776 -3.1493 -0.0418
 1739TIP3    H226853   5.670   2.765   0.139 -1.3838 -1.2544  1.0502
 1740TIP3   OH226854   3.973   3.351   0.158  0.3776 -0.1787  0.3846
 1740TIP3    H126855   3.933   3.437   0.162  0.9119  0.0826  0.2218
 1740TIP3    H226856   4.030   3.347   0.235  1.5343  0.2233 -0.4253
 1741TIP3   OH226857   4.868   4.486   0.966 -0.3881 -0.4461  0.5844
 1741TIP3    H126858   4.946   4.485   0.911  0.1176 -1.4800  1.3026
 1741TIP3    H226859   4.899   4.521   1.050 -0.9944  0.4146  0.4596
 1742TIP3   OH226860   3.631   3.904   0.458  0.4655  0.3256 -0.0792
 1742TIP3    H126861   3.578   3.971   0.501  1.5792  1.5867 -0.5724
 1742TIP3    H226862   3.722   3.931   0.477  0.9383 -0.7135 -0.7958
 1743TIP3   OH226863   5.291   1.182   3.565  0.3840 -0.5168  0.4663
 1743TIP3    H126864   5.304   1.198   3.472 -0.5855 -1.8559  0.0703
 1743TIP3    H226865   5.244   1.259   3.596  1.1343  0.1650 -0.0187
 1744TIP3   OH226866   6.000   3.670   1.764  0.1172 -0.5958  0.0125
 1744TIP3    H126867   5.999   3.671   1.669 -0.0986  1.5233 -0.0145
 1744TIP3    H226868   6.090   3.691   1.788  0.0288 -0.4944  0.2690
 1745TIP3   OH226869   4.492   3.372   7.263 -0.0762  0.9504  0.2862
 1745TIP3    H126870   4.512   3.291   7.217 -2.0722  0.0154  0.9395
 1745TIP3    H226871   4.503   3.441   7.197 -0.7253 -0.1245 -0.9851
 1746TIP3   OH226872   3.061   2.203   7.956  0.3730  0.3105  0.5738
 1746TIP3    H126873   3.010   2.143   8.011  1.2339 -2.4398 -1.3776
 1746TIP3    H226874   2.996   2.261   7.917 -0.9773 -1.3094  0.2840
 1747TIP3   OH226875   4.077   5.520   7.620 -0.2048  0.0574 -0.1909
 1747TIP3    H126876   4.025   5.479   7.690 -0.4008  1.6221  0.6143
 1747TIP3    H226877   4.146   5.456   7.601  1.6604  0.6847  3.5051
 1748TIP3   OH226878   4.388   2.715   1.793 -0.1667  0.9218 -0.1605
 1748TIP3    H126879   4.463   2.755   1.837 -0.8736  0.7854  1.2235
 1748TIP3    H226880   4.389   2.624   1.823 -1.0703  1.0039  0.1488
 1749TIP3   OH226881   3.583   3.819   1.841  0.0476 -0.7318  0.0712
 1749TIP3    H126882   3.547   3.731   1.827  0.5202 -0.8818 -0.2269
 1749TIP3    H226883   3.506   3.875   1.848 -0.2622 -1.1706  0.2904
 1750TIP3   OH226884   4.906   6.578   8.713  0.2353  0.2551  0.6565
 1750TIP3    H126885   4.924   6.490   8.746  1.7104  0.2408 -0.1019
 1750TIP3    H226886   4.866   6.563   8.627  2.7259  0.2555 -0.6013
 1751TIP3   OH226887   5.242   2.770   3.424  0.2675 -0.1343 -0.1711
 1751TIP3    H126888   5.314   2.806   3.475 -0.3985  0.7686  0.1698
 1751TIP3    H226889   5.272   2.774   3.333 -0.4955  3.3182 -0.4231
 1752TIP3   OH226890   5.776   6.628   1.269 -0.1577  0.2528 -0.2435
 1752TIP3    H126891   5.827   6.612   1.189  0.2870  0.0731  0.0714
 1752TIP3    H226892   5.686   6.635   1.238 -0.2732 -1.8353 -0.5633
 1753TIP3   OH226893   5.819   6.183   2.368  0.4821 -0.0184 -0.0237
 1753TIP3    H126894   5.906   6.148   2.351  0.1945 -1.4068  1.1584
 1753TIP3    H226895   5.818   6.201   2.462 -0.4312  0.2304 -0.0663
 1754TIP3   OH226896   1.038   3.247   8.475 -0.2746 -0.1722 -0.1640
 1754TIP3    H126897   1.005   3.160   8.498  0.6693 -0.4207  0.3186
 1754TIP3    H226898   1.072   3.237   8.386  0.3275 -0.4609  0.0869
 1755TIP3   OH226899   2.140   0.526   1.860 -0.1108  0.8887  0.1834
 1755TIP3    H126900   2.148   0.620   1.876  1.9136  0.8862 -0.5942
 1755TIP3    H226901   2.203   0.508   1.790  0.5480 -1.2817  1.2608
 1756TIP3   OH226902   5.246   3.915   2.934 -0.0467  0.0776 -1.0701
 1756TIP3    H126903   5.263   4.007   2.915  0.7739  0.1600 -0.0088
 1756TIP3    H226904   5.152   3.903   2.917 -0.1670  1.1094 -1.1540
 1757TIP3   OH226905   3.801   2.989   1.631 -0.3279 -0.0842  0.4650
 1757TIP3    H126906   3.849   2.974   1.549  0.8428  1.0347  0.9147
 1757TIP3    H226907   3.734   3.052   1.609 -0.1376  0.0695  0.3244
 1758TIP3   OH226908   0.663   4.719   8.457 -0.4753  0.2319 -0.2380
 1758TIP3    H126909   0.585   4.766   8.486 -2.4315 -1.1455 -2.7975
 1758TIP3    H226910   0.654   4.716   8.361  2.4393 -0.5323 -0.5756
 1759TIP3   OH226911   6.038   6.248   8.392  0.2607  0.3307 -0.3796
 1759TIP3    H126912   5.945   6.235   8.408  0.6931 -1.7709  0.7768
 1759TIP3    H226913   6.065   6.311   8.458 -0.1360  0.0759  0.0335
 1760TIP3   OH226914   5.061   3.983   7.875 -0.1937  0.1000  0.2479
 1760TIP3    H126915   5.053   3.888   7.883  0.2563  0.2545  3.9412
 1760TIP3    H226916   4.982   4.009   7.828 -0.2480 -2.0659 -1.0193
 1761TIP3   OH226917   0.380   4.882   0.260  0.3115  0.6014  0.4662
 1761TIP3    H126918   0.417   4.938   0.192 -0.1100  1.9507  1.3094
 1761TIP3    H226919   0.290   4.866   0.232  1.0680 -1.6927 -0.9751
 1762TIP3   OH226920   5.533   3.827   2.319 -0.4920 -0.3510  0.1606
 1762TIP3    H126921   5.531   3.864   2.231  2.1530 -1.8378 -0.6460
 1762TIP3    H226922   5.624   3.837   2.347 -0.6290 -2.3775  1.5788
 1763TIP3   OH226923   5.685   0.606   0.809  0.1498 -0.2744  0.3870
 1763TIP3    H126924   5.597   0.642   0.801  0.6143  0.5130 -2.3333
 1763TIP3    H226925   5.730   0.666   0.869  0.2807  2.6968 -2.3656
 1764TIP3   OH226926   1.102   1.574   8.651 -0.4816 -0.2838  0.2127
 1764TIP3    H126927   1.179   1.597   8.600 -1.0606 -1.3189 -1.1905
 1764TIP3    H226928   1.112   1.622   8.733  0.9969  0.6039 -0.4545
 1765TIP3   OH226929   5.160   5.217   2.968  0.1082  0.1614 -0.0201
 1765TIP3    H126930   5.192   5.305   2.952  0.0734  0.1030 -0.4342
 1765TIP3    H226931   5.075   5.230   3.011 -0.2953  0.3510 -0.8422
 1766TIP3   OH226932   5.554   3.547   1.344 -0.2771 -0.4040 -0.3868
 1766TIP3    H126933   5.557   3.641   1.327  0.0438 -0.5086 -0.9375
 1766TIP3    H226934   5.465   3.521   1.318 -0.2127 -0.3329 -0.6806
 1767TIP3   OH226935   2.395   6.605   2.429  0.5166  0.1096  0.1565
 1767TIP3    H126936   2.307   6.603   2.390  0.0869  3.2657  0.6982
 1767TIP3    H226937   2.386   6.662   2.506  3.2192  1.4706 -0.4096
 1768TIP3   OH226938   1.193   6.326   1.196  0.5003 -0.1473  0.2648
 1768TIP3    H126939   1.228   6.327   1.285  1.5983 -2.0010 -0.0962
 1768TIP3    H226940   1.270   6.325   1.140 -0.1562  2.4279 -0.8238
 1769TIP3   OH226941   4.315   2.047   1.781  0.2580 -0.2169  0.4277
 1769TIP3    H126942   4.297   2.061   1.688  0.7569 -0.5351  0.2766
 1769TIP3    H226943   4.401   2.004   1.782 -0.1871 -1.1172  0.9832
 1770TIP3   OH226944   2.515   5.206   1.842 -0.8711 -0.2397  0.4731
 1770TIP3    H126945   2.499   5.212   1.748 -0.1703  0.7948  0.3883
 1770TIP3    H226946   2.429   5.212   1.882 -1.1950 -0.9160 -0.1069
 1771TIP3   OH226947   1.147   6.488   0.193 -0.0171 -0.3122  0.3063
 1771TIP3    H126948   1.093   6.443   0.258  0.3548  0.2117  0.9975
 1771TIP3    H226949   1.220   6.524   0.243  0.7983 -0.7166 -0.5596
 1772TIP3   OH226950   6.242   5.179   0.258  0.1270  0.1205  0.1384
 1772TIP3    H126951   6.147   5.186   0.244 -0.1955 -0.2189  1.9626
 1772TIP3    H226952   6.255   5.207   0.348  1.9197  1.1591 -0.3986
 1773TIP3   OH226953   5.775   0.843   2.984  0.3233 -0.4735  0.7120
 1773TIP3    H126954   5.835   0.796   2.927  1.2870 -0.2015  1.4583
 1773TIP3    H226955   5.829   0.870   3.059 -1.1325 -1.8542  2.3581
 1774TIP3   OH226956   4.837   4.165   8.143  0.3421 -0.1042 -0.1614
 1774TIP3    H126957   4.910   4.196   8.089  0.7146  0.4826  0.6608
 1774TIP3    H226958   4.877   4.138   8.225 -0.3519  0.2115  0.2946
 1775TIP3   OH226959   0.736   4.430   0.275  0.0775  0.7879 -0.1363
 1775TIP3    H126960   0.767   4.473   0.195  1.9082 -1.2542 -0.6063
 1775TIP3    H226961   0.642   4.419   0.261  0.5304 -0.6742 -2.6833
 1776TIP3   OH226962   4.376   1.879   0.548 -0.1126 -0.1180  0.0686
 1776TIP3    H126963   4.370   1.834   0.632 -0.7778  1.4751  0.9235
 1776TIP3    H226964   4.286   1.879   0.514 -0.2033  0.8985  0.2852
 1777TIP3   OH226965   3.103   5.140   7.115  0.2066 -0.0453  0.3187
 1777TIP3    H126966   3.162   5.201   7.071 -1.1138  2.4703  1.8179
 1777TIP3    H226967   3.112   5.160   7.208 -0.9933 -1.5043  0.8018
 1778TIP3   OH226968   3.736   3.277   1.671 -1.0422 -1.0037  0.4253
 1778TIP3    H126969   3.670   3.301   1.606 -2.1870 -0.1703  1.8186
 1778TIP3    H226970   3.688   3.228   1.738 -0.2795 -0.3091  1.5244
 1779TIP3   OH226971   0.993   2.220   2.286 -0.0749  0.2808  0.3080
 1779TIP3    H126972   0.969   2.305   2.323  0.4579 -0.5612  2.7137
 1779TIP3    H226973   1.074   2.196   2.330  0.7788 -0.7197 -1.6558
 1780TIP3   OH226974   4.107   6.163   2.947  0.1624  0.5040 -0.0524
 1780TIP3    H126975   4.080   6.072   2.955 -0.8233  0.7866  0.0293
 1780TIP3    H226976   4.046   6.211   3.003  1.2585  1.1144  0.6515
 1781TIP3   OH226977   1.854   1.747   0.746 -0.3409 -0.3974 -0.0449
 1781TIP3    H126978   1.862   1.664   0.698 -0.8361 -0.4351 -0.0657
 1781TIP3    H226979   1.850   1.722   0.838  0.7589 -0.3160  0.0362
 1782TIP3   OH226980   0.705   6.715   2.494  0.0461 -0.3498 -0.6199
 1782TIP3    H126981   0.710   6.772   2.571  1.0638 -0.7725 -0.3647
 1782TIP3    H226982   0.794   6.684   2.481 -0.4172 -1.6047 -0.9660
 1783TIP3   OH226983   3.409   1.618   3.184 -0.0897  0.6894 -0.1094
 1783TIP3    H126984   3.346   1.663   3.128 -1.7285 -2.9079 -1.4586
 1783TIP3    H226985   3.356   1.575   3.250  1.0643 -1.1603 -0.3119
 1784TIP3   OH226986   2.446   1.057   3.251  0.1805 -0.4556 -0.0611
 1784TIP3    H126987   2.410   1.141   3.278  2.7757  0.7000  0.0929
 1784TIP3    H226988   2.404   0.993   3.308 -0.3532  0.9806  1.1996
 1785TIP3   OH226989   4.676   1.469   7.495  0.3093  0.1012 -0.2850
 1785TIP3    H126990   4.618   1.457   7.569 -0.8748 -0.9875 -1.3309
 1785TIP3    H226991   4.684   1.564   7.485 -0.6051  0.2583  0.4021
 1786TIP3   OH226992   3.601   5.308   0.962  0.0113 -0.1242 -0.1628
 1786TIP3    H126993   3.556   5.310   1.046 -0.0651  1.6236 -0.2115
 1786TIP3    H226994   3.673   5.245   0.974  0.2449  0.4028  1.3419
 1787TIP3   OH226995   2.201   4.507   7.501 -0.1161  1.0170  0.3136
 1787TIP3    H126996   2.157   4.591   7.488 -0.3358  1.1551  1.7886
 1787TIP3    H226997   2.130   4.442   7.497 -0.2331  1.0893  1.0469
 1788TIP3   OH226998   4.698   0.147   0.337  0.4109 -0.2655  0.0858
 1788TIP3    H126999   4.622   0.090   0.349 -0.9375  1.7073  1.5890
 1788TIP3    H227000   4.768   0.105   0.387  0.1725 -1.7883 -0.8056
 1789TIP3   OH227001   6.378   3.044   0.300 -0.5056 -0.7260  0.8308
 1789TIP3    H127002   6.352   3.093   0.378 -0.8162 -0.1088  0.3414
 1789TIP3    H227003   6.411   2.961   0.335  0.8551  0.1414  1.7441
 1790TIP3   OH227004   2.443   4.547   1.192  0.3111 -0.0262 -0.0059
 1790TIP3    H127005   2.385   4.476   1.221  0.7272  0.0876  1.1704
 1790TIP3    H227006   2.422   4.619   1.251  3.0451 -0.6091  1.8200
 1791TIP3   OH227007   4.975   1.441   7.937 -0.1489 -0.2122 -0.4977
 1791TIP3    H127008   4.956   1.404   7.850 -0.4731 -0.1140 -0.4704
 1791TIP3    H227009   4.898   1.493   7.958  0.4889  0.8793 -0.7451
 1792TIP3   OH227010   6.286   2.250   0.434  0.4633  0.3777 -0.2727
 1792TIP3    H127011   6.287   2.222   0.525 -0.8769  1.5519  0.1404
 1792TIP3    H227012   6.216   2.200   0.393  0.0582  0.9380 -0.2747
 1793TIP3   OH227013   4.889   0.992   0.004  0.0579 -0.0277  0.7637
 1793TIP3    H127014   4.892   0.906   0.045  0.4710 -0.3755  0.0228
 1793TIP3    H227015   4.799   1.022   0.018  0.3156  0.0892  2.3377
 1794TIP3   OH227016   1.679   0.876   2.064  0.3897  0.2133 -0.4737
 1794TIP3    H127017   1.683   0.883   1.969 -0.2019 -1.1669 -0.6239
 1794TIP3    H227018   1.765   0.842   2.089  1.0183  1.8002 -0.3556
 1795TIP3   OH227019   2.165   0.340   8.519 -0.0974  0.5394  0.2338
 1795TIP3    H127020   2.259   0.325   8.522 -0.2619 -0.6840 -0.1194
 1795TIP3    H227021   2.153   0.429   8.551  1.2780  1.1259 -0.7997
 1796TIP3   OH227022   4.567   0.536   3.136  0.2223 -0.3755  0.1343
 1796TIP3    H127023   4.567   0.488   3.053 -2.2394 -1.1020  0.4821
 1796TIP3    H227024   4.479   0.573   3.142  0.5516  0.1894  2.1271
 1797TIP3   OH227025   5.085   3.804   0.857  0.2433  0.2933 -0.1750
 1797TIP3    H127026   5.171   3.815   0.897 -0.4521  0.9258  1.2149
 1797TIP3    H227027   5.076   3.879   0.798  2.3243 -1.9351 -3.7410
 1798TIP3   OH227028   3.964   4.840   0.301 -0.3049  0.2713 -0.5191
 1798TIP3    H127029   3.942   4.888   0.381 -1.1756 -2.6931  1.1866
 1798TIP3    H227030   3.894   4.862   0.240 -0.1220  1.8919 -0.1964
 1799TIP3   OH227031   4.750   4.664   8.489 -0.3612 -0.1209 -0.2435
 1799TIP3    H127032   4.748   4.570   8.472 -1.1223 -0.2154  0.3572
 1799TIP3    H227033   4.666   4.696   8.457 -2.4406 -0.4842  4.1910
 1800TIP3   OH227034   5.040   4.747   0.668 -0.4299  0.9041  0.2228
 1800TIP3    H127035   4.948   4.731   0.648  0.4680 -1.1765 -2.9772
 1800TIP3    H227036   5.074   4.663   0.698  0.5743  1.4835  0.7790
 1801TIP3   OH227037   3.240   3.540   2.402 -0.2356 -0.4345 -0.7393
 1801TIP3    H127038   3.168   3.486   2.434  1.6561 -2.3365  0.5190
 1801TIP3    H227039   3.307   3.534   2.470  1.6160  0.2584 -2.3997
 1802TIP3   OH227040   1.331   3.940   1.592  0.0892  0.2157 -0.0262
 1802TIP3    H127041   1.289   4.002   1.532  0.2565  2.1766  1.7700
 1802TIP3    H227042   1.423   3.964   1.591 -0.0556  1.0017  1.7499
 1803TIP3   OH227043   2.808   4.075   7.791 -0.0481  0.0953 -0.0252
 1803TIP3    H127044   2.861   4.151   7.815  0.3310  0.1702 -1.0654
 1803TIP3    H227045   2.718   4.106   7.795  0.0361  0.2624  0.7223
 1804TIP3   OH227046   4.505   6.769   0.365 -0.0250 -0.2826  0.4689
 1804TIP3    H127047   4.450   6.733   0.296  0.6362  0.5358 -0.5222
 1804TIP3    H227048   4.518   6.697   0.426  0.5910 -1.5075 -1.0222
 1805TIP3   OH227049   4.208   6.473   2.261  0.0977  0.4473  0.4476
 1805TIP3    H127050   4.174   6.387   2.286 -0.1384  0.3680 -0.1286
 1805TIP3    H227051   4.235   6.462   2.170 -0.3463  1.0990  0.2276
 1806TIP3   OH227052   5.790   2.350   1.708  0.6953 -0.2303 -0.1844
 1806TIP3    H127053   5.871   2.307   1.681  0.7872  0.9735 -1.9587
 1806TIP3    H227054   5.723   2.317   1.648  0.3657  0.5660 -0.2701
 1807TIP3   OH227055   4.132   1.336   2.484  0.2652  0.1688  0.2924
 1807TIP3    H127056   4.080   1.260   2.457  2.0266 -1.5764  1.5473
 1807TIP3    H227057   4.110   1.349   2.576  1.4136 -0.0684  0.6095
 1808TIP3   OH227058   3.935   2.775   1.929  0.2638 -0.8781 -0.5299
 1808TIP3    H127059   3.976   2.814   2.006  3.3486  0.2785 -2.5556
 1808TIP3    H227060   3.920   2.684   1.953  0.6634 -0.4369  1.5673
 1809TIP3   OH227061   6.731   1.448   2.547  0.4530 -0.2004  0.3610
 1809TIP3    H127062   6.800   1.390   2.513 -0.7463 -1.0416 -0.7575
 1809TIP3    H227063   6.778   1.519   2.590  2.0109 -1.7820  1.4479
 1810TIP3   OH227064   1.285   6.562   8.497 -0.3455 -0.3787 -0.1664
 1810TIP3    H127065   1.234   6.501   8.550  0.1277 -1.1852 -0.6294
 1810TIP3    H227066   1.220   6.625   8.464 -1.2588 -2.0146 -1.6524
 1811TIP3   OH227067   1.678   4.342   1.872 -0.1073 -0.3092 -0.0863
 1811TIP3    H127068   1.711   4.301   1.792  2.0934 -0.1568  0.6652
 1811TIP3    H227069   1.657   4.432   1.845 -0.7349 -0.6534 -0.7813
 1812TIP3   OH227070   2.839   2.922   2.633 -0.8959 -0.5158  0.1350
 1812TIP3    H127071   2.917   2.978   2.631 -0.9374 -0.4717 -0.4537
 1812TIP3    H227072   2.816   2.916   2.726 -0.9130  0.4837  0.2110
 1813TIP3   OH227073   0.196   1.095   1.273  0.0602  0.0874 -0.4265
 1813TIP3    H127074   0.177   1.184   1.243 -0.0403  0.4657  0.6988
 1813TIP3    H227075   0.115   1.067   1.317  1.3349  1.0473  2.8737
 1814TIP3   OH227076   5.050   3.155   2.193  0.3202  0.4995  0.3286
 1814TIP3    H127077   4.964   3.113   2.197  0.3951  0.4121  1.1094
 1814TIP3    H227078   5.110   3.085   2.167  0.5008  0.0206  1.9773
 1815TIP3   OH227079   0.869   1.540   2.041  0.3699  0.7809  0.1243
 1815TIP3    H127080   0.796   1.590   2.078 -0.7510 -1.8235  1.7258
 1815TIP3    H227081   0.931   1.530   2.113 -0.3690 -1.6846  0.5156
 1816TIP3   OH227082   0.115   5.943   1.797  0.4518 -0.1763 -0.6622
 1816TIP3    H127083   0.046   5.910   1.739 -0.7216 -0.7446  0.9858
 1816TIP3    H227084   0.093   6.035   1.811  0.5654 -0.1160 -0.8809
 1817TIP3   OH227085   0.881   2.123   2.040 -0.2692  0.4389 -0.3844
 1817TIP3    H127086   0.918   2.164   2.118  0.6762  1.3873 -1.2978
 1817TIP3    H227087   0.790   2.105   2.063 -0.3726  1.9267  0.4757
 1818TIP3   OH227088   0.983   5.772   2.402  0.2102  0.3115  0.5405
 1818TIP3    H127089   0.970   5.767   2.496 -0.5411 -0.7368  0.3994
 1818TIP3    H227090   0.954   5.687   2.369  0.8679  0.5052 -0.5939
 1819TIP3   OH227091   6.788   0.810   2.676  0.0952  0.2591  0.3130
 1819TIP3    H127092   6.779   0.824   2.770  1.1008 -0.2103  0.4864
 1819TIP3    H227093   6.730   0.736   2.657 -1.4745  1.4530  0.2316
 1820TIP3   OH227094   5.468   4.298   2.600  0.4321 -0.2809 -0.3777
 1820TIP3    H127095   5.537   4.364   2.603 -1.3579  1.6740  0.5323
 1820TIP3    H227096   5.486   4.247   2.520  1.4265  1.8411 -1.5771
 1821TIP3   OH227097   3.200   1.022   1.220 -0.1662 -0.2415 -0.0138
 1821TIP3    H127098   3.172   1.025   1.311  0.8736 -2.0319  0.4012
 1821TIP3    H227099   3.182   0.933   1.191  0.3120  0.0472 -1.2905
 1822TIP3   OH227100   2.542   3.402   1.624  0.5867 -0.1380  0.2879
 1822TIP3    H127101   2.557   3.328   1.565 -0.8271  0.0921 -0.3905
 1822TIP3    H227102   2.523   3.476   1.566  0.3819  0.3851  1.0046
 1823TIP3   OH227103   6.075   0.007   8.415 -0.1078 -0.2148  0.4373
 1823TIP3    H127104   6.140   0.074   8.391  0.8454 -1.2761 -0.0679
 1823TIP3    H227105   5.993   0.055   8.422  0.4519  0.9318 -0.4130
 1824TIP3   OH227106   5.419   5.401   1.910  1.1239 -0.2499 -0.1164
 1824TIP3    H127107   5.461   5.344   1.975 -0.4021 -1.2681  0.0332
 1824TIP3    H227108   5.433   5.490   1.944  1.9899 -0.6380  0.5972
 1825TIP3   OH227109   4.215   0.125   0.690 -0.0135 -0.3638  0.0650
 1825TIP3    H127110   4.208   0.198   0.751  0.5981 -0.7426  0.5966
 1825TIP3    H227111   4.225   0.048   0.745  1.2125 -0.6387 -0.5124
 1826TIP3   OH227112   5.564   0.120   2.466 -0.0995 -0.3933  0.4857
 1826TIP3    H127113   5.540   0.189   2.404  2.8903  0.2656 -0.1136
 1826TIP3    H227114   5.549   0.039   2.419  2.3878  0.0963 -1.4016
 1827TIP3   OH227115   1.394   5.414   1.342  0.3713  0.0221 -0.2014
 1827TIP3    H127116   1.411   5.458   1.259 -0.5136  2.3435  0.7467
 1827TIP3    H227117   1.298   5.416   1.351  0.4249 -0.6852  0.6336
 1828TIP3   OH227118   2.828   5.967   7.830  0.0375 -0.3342  0.0132
 1828TIP3    H127119   2.744   5.922   7.823  0.5156 -1.1096 -0.9310
 1828TIP3    H227120   2.805   6.060   7.839 -0.9174 -0.5854  0.2499
 1829TIP3   OH227121   6.159   0.517   0.788  0.6121  0.3389  0.0023
 1829TIP3    H127122   6.237   0.563   0.758  2.3520 -0.1849  3.2657
 1829TIP3    H227123   6.104   0.509   0.710  3.9508  0.4054 -2.5786
 1830TIP3   OH227124   3.117   2.783   1.189  0.2851 -0.0203 -0.3437
 1830TIP3    H127125   3.037   2.740   1.157 -0.7597 -0.1028  2.1947
 1830TIP3    H227126   3.186   2.719   1.172 -0.9208 -1.9527  1.4493
 1831TIP3   OH227127   5.337   0.333   7.895  0.0696  0.2321  0.1760
 1831TIP3    H127128   5.342   0.265   7.828  2.5698 -0.1992  0.7211
 1831TIP3    H227129   5.248   0.326   7.929 -0.0570 -2.1245 -0.4653
 1832TIP3   OH227130   4.653   3.682   1.662 -0.1532 -0.3660  0.2429
 1832TIP3    H127131   4.635   3.646   1.575 -0.1545  0.2511 -0.0159
 1832TIP3    H227132   4.748   3.671   1.673  0.0186  0.4992 -0.2760
 1833TIP3   OH227133   0.581   0.283   0.802 -0.5361 -0.3443  0.4455
 1833TIP3    H127134   0.508   0.342   0.782 -0.8152 -0.7050  0.3892
 1833TIP3    H227135   0.623   0.269   0.718 -0.9242 -0.8222  0.3269
 1834TIP3   OH227136   3.551   5.120   1.799  0.0820  0.4617  0.3060
 1834TIP3    H127137   3.608   5.123   1.722 -0.8404  0.2239 -0.3962
 1834TIP3    H227138   3.575   5.198   1.849  0.8319  0.5121 -0.1182
 1835TIP3   OH227139   3.498   5.683   1.917  0.1887  0.2692  0.3682
 1835TIP3    H127140   3.477   5.706   2.007  0.4944 -0.4195  0.6238
 1835TIP3    H227141   3.580   5.635   1.923  0.5226  0.7225 -0.3449
 1836TIP3   OH227142   4.440   3.757   7.643 -0.1431 -0.2896  0.5441
 1836TIP3    H127143   4.535   3.757   7.631 -0.2308 -1.5539 -0.3491
 1836TIP3    H227144   4.406   3.786   7.558 -0.5843 -1.1413  0.4277
 1837TIP3   OH227145   0.812   6.800   8.656 -0.6367 -0.1237  0.0642
 1837TIP3    H127146   0.856   6.861   8.715  0.7139 -1.1762  0.1991
 1837TIP3    H227147   0.736   6.769   8.705 -1.1440  1.1591  0.1242
 1838TIP3   OH227148   2.848   3.700   2.297  0.0309 -0.3774  0.2564
 1838TIP3    H127149   2.755   3.711   2.275 -0.1986 -0.7274  1.0178
 1838TIP3    H227150   2.856   3.731   2.387  0.7332 -0.0019  0.0727
 1839TIP3   OH227151   4.830   4.855   0.171 -0.0895 -0.4026 -0.5353
 1839TIP3    H127152   4.771   4.916   0.215 -0.8329 -0.3819 -1.5382
 1839TIP3    H227153   4.773   4.801   0.116  0.7638 -0.7644 -1.0925
 1840TIP3   OH227154   0.074   3.028   2.586 -0.4987  0.1806  0.8382
 1840TIP3    H127155   0.143   2.962   2.596  0.1730  0.7571  0.1231
 1840TIP3    H227156   0.121   3.111   2.579 -1.2971  0.6512  0.9196
 1841TIP3   OH227157   5.617   2.296   1.498  0.0913 -0.2225 -0.1944
 1841TIP3    H127158   5.573   2.223   1.454  1.1494  0.3487 -2.3714
 1841TIP3    H227159   5.578   2.374   1.457 -1.5478  0.5763  2.5796
 1842TIP3   OH227160   3.298   0.972   2.301 -0.6191  0.6669 -0.0611
 1842TIP3    H127161   3.285   1.066   2.314  0.2574  0.6390  1.2305
 1842TIP3    H227162   3.238   0.931   2.363 -1.0965  0.3630 -0.7152
 1843TIP3   OH227163   5.280   2.665   1.179 -0.1325 -0.4119 -0.0491
 1843TIP3    H127164   5.204   2.683   1.235  0.2284 -0.4074  0.4524
 1843TIP3    H227165   5.349   2.643   1.241  0.5318  0.5045 -0.4541
 1844TIP3   OH227166   3.890   3.452   2.432  0.0092  0.0569 -0.7173
 1844TIP3    H127167   3.798   3.427   2.424  0.1924 -0.1925 -2.2243
 1844TIP3    H227168   3.911   3.493   2.349  0.9597  1.1879  0.0505
 1845TIP3   OH227169   1.147   6.031   2.374  0.0640  0.1691 -0.2309
 1845TIP3    H127170   1.221   5.990   2.329 -0.6747 -0.6990 -0.6766
 1845TIP3    H227171   1.091   5.958   2.400 -0.6268  0.8144  0.1324
 1846TIP3   OH227172   3.669   2.528   2.309  0.2639  0.0281 -0.1746
 1846TIP3    H127173   3.733   2.491   2.369  1.5017  1.8930 -0.2631
 1846TIP3    H227174   3.613   2.583   2.364 -0.2318 -0.2912 -0.3517
 1847TIP3   OH227175   1.824   4.300   2.965 -0.3302  0.0829 -0.1529
 1847TIP3    H127176   1.811   4.328   3.056 -0.0168 -0.3069  0.0113
 1847TIP3    H227177   1.851   4.379   2.920 -3.0169  0.9292 -0.4727
 1848TIP3   OH227178   6.245   3.731   1.915 -0.1926  0.1973  0.3151
 1848TIP3    H127179   6.339   3.721   1.902  0.0150  0.3606  1.5724
 1848TIP3    H227180   6.231   3.826   1.912 -0.1926  0.2179  0.8752
 1849TIP3   OH227181   5.312   5.459   3.082  0.0963  0.2889 -0.0446
 1849TIP3    H127182   5.240   5.461   3.145  1.2326 -0.2724  1.3509
 1849TIP3    H227183   5.382   5.411   3.128  1.7513  1.7660 -0.8876
 1850TIP3   OH227184   3.273   1.974   2.330 -0.2928 -0.8858  0.6367
 1850TIP3    H127185   3.361   1.966   2.366 -0.9955 -0.1120  2.6844
 1850TIP3    H227186   3.231   2.041   2.385 -1.6308 -0.0028 -1.3578
 1851TIP3   OH227187   3.954   3.906   8.139  0.0138  0.5042 -0.1648
 1851TIP3    H127188   3.868   3.874   8.112 -0.0992  1.7446 -1.3556
 1851TIP3    H227189   3.935   3.977   8.200  0.1711  0.9840 -0.6650
 1852TIP3   OH227190   1.816   3.040   1.524 -0.3065 -0.4974 -0.1185
 1852TIP3    H127191   1.720   3.047   1.527 -0.2180  0.5324  1.3831
 1852TIP3    H227192   1.837   2.978   1.594  0.0676 -1.7102 -1.2833
 1853TIP3   OH227193   3.432   5.004   7.798  0.7332 -0.4213 -0.2016
 1853TIP3    H127194   3.369   5.071   7.775  0.5037 -0.2286  0.9306
 1853TIP3    H227195   3.430   4.942   7.725 -2.4717 -1.6668  0.7959
 1854TIP3   OH227196   5.768   1.792   7.977  0.3219 -0.3542 -0.2075
 1854TIP3    H127197   5.860   1.816   7.964  1.3676 -2.0584  3.0998
 1854TIP3    H227198   5.760   1.705   7.938 -0.4738  0.5390 -2.1595
 1855TIP3   OH227199   2.156   4.712   1.449  0.1229 -0.2552 -0.1329
 1855TIP3    H127200   2.125   4.675   1.366 -0.2099  0.1726 -0.2075
 1855TIP3    H227201   2.079   4.757   1.484 -0.1936 -1.7413  1.1810
 1856TIP3   OH227202   3.487   3.622   7.183 -0.8261 -0.2864 -0.5717
 1856TIP3    H127203   3.479   3.544   7.128  0.5786  0.2434 -1.6075
 1856TIP3    H227204   3.442   3.691   7.134 -1.6980 -0.3331  0.1379
 1857TIP3   OH227205   1.860   6.656   8.462  0.0355  0.5850  0.1981
 1857TIP3    H127206   1.932   6.719   8.469 -0.0387  0.8106 -0.8887
 1857TIP3    H227207   1.808   6.671   8.541  0.7290  0.9780  0.5976
 1858TIP3   OH227208   2.866   0.077   7.753  0.0510  0.2890 -0.1356
 1858TIP3    H127209   2.830   0.052   7.668 -0.8591  0.3466  0.2176
 1858TIP3    H227210   2.936   0.140   7.732  0.0071  0.1073 -0.8471
 1859TIP3   OH227211   1.631   3.331   0.294  0.7531 -0.6946 -0.0684
 1859TIP3    H127212   1.545   3.304   0.326 -0.2964 -0.7580 -2.7357
 1859TIP3    H227213   1.689   3.259   0.318  0.0759 -0.7116  1.6511
 1860TIP3   OH227214   3.948   1.560   8.352 -0.0418  0.2608  0.3952
 1860TIP3    H127215   3.999   1.619   8.297  1.5941 -0.3370  1.2011
 1860TIP3    H227216   3.965   1.473   8.316 -1.4339  0.1236 -0.0147
 1861TIP3   OH227217   3.044   3.008   7.956 -0.6244 -0.1945 -0.3722
 1861TIP3    H127218   3.098   2.976   7.884  0.0846  0.5773 -0.2009
 1861TIP3    H227219   3.106   3.029   8.025 -1.2558 -0.4563  0.2915
 1862TIP3   OH227220   1.633   2.963   1.839  0.1430  0.3373 -1.0233
 1862TIP3    H127221   1.568   3.015   1.791  1.1647  2.9501  0.1944
 1862TIP3    H227222   1.707   3.023   1.851  1.4196 -1.4362  0.5308
 1863TIP3   OH227223   5.075   4.423   2.838  0.0000  0.1332 -0.5252
 1863TIP3    H127224   5.007   4.357   2.823 -1.4561  1.0656  1.4374
 1863TIP3    H227225   5.033   4.506   2.815  0.1327  0.8079  1.4144
 1864TIP3   OH227226   1.034   1.823   2.559 -0.5101 -0.5294 -0.0405
 1864TIP3    H127227   0.950   1.804   2.600 -0.6084 -0.9344 -0.4241
 1864TIP3    H227228   1.087   1.861   2.629 -1.0325 -0.2051  0.1853
 1865TIP3   OH227229   6.465   5.299   1.128  0.6154  0.2542  0.0799
 1865TIP3    H127230   6.415   5.371   1.090  1.8984  0.4451 -1.3782
 1865TIP3    H227231   6.557   5.326   1.119  1.0374  0.2950  3.4077
 1866TIP3   OH227232   2.855   3.042   0.919  0.7756 -0.4305 -0.1742
 1866TIP3    H127233   2.890   2.956   0.942  0.3468 -0.8566 -1.0503
 1866TIP3    H227234   2.914   3.104   0.960  0.7197 -1.1468  1.0265
 1867TIP3   OH227235   5.306   0.934   2.327  0.8258  0.0449 -0.4738
 1867TIP3    H127236   5.245   1.005   2.305  2.4158  0.9991 -2.1709
 1867TIP3    H227237   5.312   0.935   2.422 -0.4592  1.0773 -0.3834
 1868TIP3   OH227238   1.356   5.816   0.312  0.1859 -0.4257  0.6865
 1868TIP3    H127239   1.335   5.761   0.388  1.5848  0.8891  2.0934
 1868TIP3    H227240   1.452   5.815   0.309  0.1611  0.2152 -0.5805
 1869TIP3   OH227241   5.757   6.737   7.955 -0.5650  0.7432  0.3679
 1869TIP3    H127242   5.672   6.781   7.954 -1.1552 -0.3558  0.3657
 1869TIP3    H227243   5.797   6.760   7.871 -1.5195  0.0747 -0.3033
 1870TIP3   OH227244   5.261   6.350   2.292  0.1745  0.0252 -0.1351
 1870TIP3    H127245   5.175   6.322   2.259  0.0907  0.3140 -0.1710
 1870TIP3    H227246   5.246   6.439   2.324  0.0670 -0.5425  1.4572
 1871TIP3   OH227247   4.913   1.439   2.330  0.1164 -0.4824  0.4767
 1871TIP3    H127248   4.874   1.483   2.255 -1.0599  0.6351  1.6911
 1871TIP3    H227249   4.999   1.410   2.299  1.6543  3.9454 -0.0764
 1872TIP3   OH227250   1.269   3.343   3.481  0.9591  0.0509 -0.0590
 1872TIP3    H127251   1.278   3.265   3.426 -1.2027 -1.8801  2.1121
 1872TIP3    H227252   1.355   3.354   3.521  1.5562 -0.6404 -1.0975
 1873TIP3   OH227253   2.427   0.755   8.061 -0.3229 -0.3490 -0.4865
 1873TIP3    H127254   2.368   0.692   8.019 -0.2351 -0.1466 -0.9198
 1873TIP3    H227255   2.469   0.705   8.131 -0.5582 -0.6634 -0.5672
 1874TIP3   OH227256   4.402   6.820   7.220 -0.3193  0.9040  0.0737
 1874TIP3    H127257   4.423   6.729   7.240 -0.5513  1.2461  1.9892
 1874TIP3    H227258   4.313   6.817   7.185 -0.1670  0.3656 -0.2860
 1875TIP3   OH227259   2.869   1.773   2.411 -0.0820 -0.1705 -0.0256
 1875TIP3    H127260   2.874   1.677   2.408  0.8328 -0.1320  0.0057
 1875TIP3    H227261   2.930   1.797   2.481  0.7773  0.5046 -0.9740
 1876TIP3   OH227262   0.552   5.335   1.681  0.1579 -0.4394 -0.0465
 1876TIP3    H127263   0.626   5.283   1.713  0.4351 -0.3413 -0.5251
 1876TIP3    H227264   0.510   5.368   1.761  0.6420 -0.4825  0.2294
 1877TIP3   OH227265   1.360   6.615   0.958 -0.5051  0.4217 -0.1125
 1877TIP3    H127266   1.385   6.660   1.038 -0.6478  0.5730 -0.1534
 1877TIP3    H227267   1.375   6.522   0.977 -0.9178  0.4195  0.2270
 1878TIP3   OH227268   0.124   6.058   1.092 -0.2910  0.6600 -0.2958
 1878TIP3    H127269   0.074   5.986   1.053  2.2702 -1.1799 -0.4686
 1878TIP3    H227270   0.117   6.129   1.028 -0.2475 -0.5829 -1.7500
 1879TIP3   OH227271   0.632   2.256   1.030 -0.4008  0.1091  0.0458
 1879TIP3    H127272   0.725   2.275   1.021 -0.9312  2.2249 -1.8602
 1879TIP3    H227273   0.625   2.162   1.014  1.2187  0.2784 -2.1896
 1880TIP3   OH227274   4.023   2.460   0.993 -0.0039 -0.0113 -0.0655
 1880TIP3    H127275   3.978   2.479   1.076  0.5258 -2.3102  0.8232
 1880TIP3    H227276   4.024   2.544   0.947  1.4760  1.8948  3.0918
 1881TIP3   OH227277   0.576   5.473   3.434 -0.6364  0.1287 -0.1072
 1881TIP3    H127278   0.634   5.541   3.400 -1.8203  1.5377  0.5366
 1881TIP3    H227279   0.634   5.411   3.478  0.4991  0.6317 -0.8609
 1882TIP3   OH227280   6.663   2.157   0.698  0.4922 -0.0793  0.1610
 1882TIP3    H127281   6.695   2.193   0.781 -1.1108 -0.4592  0.9947
 1882TIP3    H227282   6.740   2.120   0.656  1.4229  0.5414  1.2700
 1883TIP3   OH227283   4.117   3.052   7.598  0.1112 -0.1542  0.3075
 1883TIP3    H127284   4.171   2.974   7.591  0.5394  0.1797 -0.2083
 1883TIP3    H227285   4.027   3.020   7.595  0.2570 -0.7804  1.8673
 1884TIP3   OH227286   2.401   5.492   0.083 -0.2623 -0.3799 -0.3195
 1884TIP3    H127287   2.415   5.408   0.126  0.9264 -0.6972 -1.2478
 1884TIP3    H227288   2.310   5.489   0.054 -0.0441 -1.6709 -0.9606
 1885TIP3   OH227289   0.487   5.875   0.624  0.8967  0.1916  0.2267
 1885TIP3    H127290   0.516   5.814   0.555  1.4748 -0.3316  0.9169
 1885TIP3    H227291   0.493   5.961   0.583  0.9696 -0.1294 -0.4694
 1886TIP3   OH227292   6.816   0.906   8.184  0.2501 -0.4998  0.3801
 1886TIP3    H127293   6.865   0.928   8.104  0.1632  0.9120  0.7069
 1886TIP3    H227294   6.830   0.811   8.194  0.2850 -0.7086 -1.2843
 1887TIP3   OH227295   5.416   1.585   7.709 -0.8775  1.2020 -0.0708
 1887TIP3    H127296   5.402   1.540   7.626 -1.1340  0.9191  0.1255
 1887TIP3    H227297   5.361   1.663   7.703 -1.4488  0.8159  0.1249
 1888TIP3   OH227298   2.886   0.448   0.880 -0.5868  0.4574  0.5614
 1888TIP3    H127299   2.924   0.432   0.794 -0.1178 -0.8221  0.9836
 1888TIP3    H227300   2.920   0.377   0.935 -1.3598  0.9017  1.6524
 1889TIP3   OH227301   6.477   4.803   2.045  0.0561  0.6102 -0.4209
 1889TIP3    H127302   6.555   4.858   2.055  0.4156  0.0574 -0.1828
 1889TIP3    H227303   6.502   4.718   2.079 -1.1190  0.8369  1.1508
 1890TIP3   OH227304   4.954   4.614   2.715 -0.7116  0.7091  0.0123
 1890TIP3    H127305   5.032   4.665   2.692  0.3809 -0.1353  1.6828
 1890TIP3    H227306   4.929   4.571   2.633 -1.2637  3.3015 -1.2933
 1891TIP3   OH227307   5.738   5.116   2.185 -0.0732 -0.1503  0.0802
 1891TIP3    H127308   5.676   5.167   2.238  0.6286  0.4494  0.3432
 1891TIP3    H227309   5.775   5.052   2.246  0.9674  0.7445  0.4237
 1892TIP3   OH227310   3.703   6.593   3.007 -0.3992  1.0564 -0.3168
 1892TIP3    H127311   3.638   6.523   3.016  0.5821  0.1947  0.2818
 1892TIP3    H227312   3.763   6.580   3.081  0.9187  1.3168 -1.3056
 1893TIP3   OH227313   0.768   6.520   1.758 -0.0304  0.4538 -0.1607
 1893TIP3    H127314   0.735   6.490   1.843  0.5823 -1.0195 -0.4145
 1893TIP3    H227315   0.761   6.615   1.762 -1.6164  0.3259  0.8689
 1894TIP3   OH227316   2.138   5.127   2.741 -0.0955  0.1380 -0.0499
 1894TIP3    H127317   2.193   5.052   2.763  0.0681  0.2922  0.0693
 1894TIP3    H227318   2.195   5.203   2.753  0.8711  0.1450 -3.5842
 1895TIP3   OH227319   6.451   3.017   2.403  0.1536 -0.1073 -0.0561
 1895TIP3    H127320   6.435   2.982   2.490  0.8007 -1.2948 -0.3941
 1895TIP3    H227321   6.371   3.065   2.381 -0.7922 -1.3991  0.4257
 1896TIP3   OH227322   4.684   6.452   7.496 -0.1290 -0.2839  0.3370
 1896TIP3    H127323   4.609   6.458   7.555 -1.1557 -0.6108 -0.8893
 1896TIP3    H227324   4.728   6.537   7.504 -0.3915 -0.2395  1.3770
 1897TIP3   OH227325   5.970   6.591   0.259  0.4907  0.3495  0.8200
 1897TIP3    H127326   5.991   6.500   0.239 -0.2707  0.4285 -0.4387
 1897TIP3    H227327   6.033   6.642   0.208 -0.7745  0.5407 -0.6165
 1898TIP3   OH227328   2.737   1.621   8.740 -0.5064  0.1811 -0.0991
 1898TIP3    H127329   2.652   1.665   8.749 -0.9327 -0.6272 -0.1033
 1898TIP3    H227330   2.798   1.691   8.717 -0.9146  0.9815  1.1953
 1899TIP3   OH227331   2.065   3.996   2.087  0.3739  0.1640 -0.0999
 1899TIP3    H127332   2.156   4.011   2.061  0.1258  1.5269 -0.2851
 1899TIP3    H227333   2.070   3.948   2.169  1.2274 -1.2844 -0.9756
 1900TIP3   OH227334   3.175   2.740   2.741 -0.2388 -0.2939  0.3223
 1900TIP3    H127335   3.136   2.741   2.829 -0.9697 -3.6985  0.1890
 1900TIP3    H227336   3.151   2.825   2.703 -1.5498  0.5110  2.7312
 1901TIP3   OH227337   3.047   2.256   1.734 -0.1690  0.0453  0.4654
 1901TIP3    H127338   2.986   2.184   1.721  2.2589 -2.4607  1.8213
 1901TIP3    H227339   3.115   2.243   1.667  1.4161 -0.2854  2.0635
 1902TIP3   OH227340   4.774   5.960   1.867 -0.0096  0.6499 -0.0881
 1902TIP3    H127341   4.772   6.055   1.867  0.8884  0.6717 -0.2098
 1902TIP3    H227342   4.788   5.935   1.776  1.7139  0.4686  0.1902
 1903TIP3   OH227343   1.631   3.802   7.969  0.2503  0.0191  0.1802
 1903TIP3    H127344   1.560   3.823   7.908  1.0793  0.4263 -0.6784
 1903TIP3    H227345   1.710   3.834   7.925  1.3279 -2.7512 -0.1077
 1904TIP3   OH227346   1.096   1.998   1.920 -0.4094 -0.1584 -0.0176
 1904TIP3    H127347   1.135   1.957   1.997  0.9806  2.5536  0.8483
 1904TIP3    H227348   1.025   2.053   1.955  0.1356  0.9885 -0.6431
 1905TIP3   OH227349   6.459   0.344   2.568 -0.0561 -0.6510 -0.8501
 1905TIP3    H127350   6.440   0.272   2.507 -2.9084 -1.7096  1.0540
 1905TIP3    H227351   6.388   0.406   2.555  1.9357  1.5759 -1.8827
 1906TIP3   OH227352   0.442   3.105   0.169  0.2846  0.1929  0.1205
 1906TIP3    H127353   0.383   3.065   0.105 -0.3701  0.4720  0.5330
 1906TIP3    H227354   0.452   3.037   0.237  0.6117  0.0680 -0.0497
 1907TIP3   OH227355   3.405   4.148   1.007  0.1332  0.5589  0.6093
 1907TIP3    H127356   3.338   4.167   0.942 -0.4401  0.3498  1.1332
 1907TIP3    H227357   3.395   4.055   1.026 -0.2847  0.7981  1.6313
 1908TIP3   OH227358   0.530   4.795   8.120  0.7138 -0.1413 -0.4226
 1908TIP3    H127359   0.493   4.707   8.130  1.2403 -0.3327 -0.0492
 1908TIP3    H227360   0.614   4.790   8.166  1.1586  0.3025 -1.1692
 1909TIP3   OH227361   2.024   3.660   0.965 -0.0494  0.3695  0.0936
 1909TIP3    H127362   1.950   3.717   0.945 -1.1221 -0.6696  0.9739
 1909TIP3    H227363   1.991   3.571   0.951  1.1371 -0.1091  0.1677
 1910TIP3   OH227364   1.012   6.615   2.773 -0.5123 -0.1302 -0.0233
 1910TIP3    H127365   0.992   6.579   2.687 -1.2133 -1.1864  0.5525
 1910TIP3    H227366   1.057   6.697   2.755  0.0894 -0.7279 -1.3910
 1911TIP3   OH227367   4.452   1.593   1.173  0.1832  0.1462 -0.4393
 1911TIP3    H127368   4.524   1.543   1.133 -0.7238 -2.2462  0.7026
 1911TIP3    H227369   4.440   1.554   1.259 -1.5247  1.4645 -0.0098
 1912TIP3   OH227370   0.367   0.455   0.094  0.0398 -0.2883  0.2789
 1912TIP3    H127371   0.321   0.381   0.132 -1.4832  0.3620 -0.2251
 1912TIP3    H227372   0.322   0.472   0.011 -0.4310  1.9371  0.9373
 1913TIP3   OH227373   2.283   1.520   8.264 -0.8695  0.4159 -0.5525
 1913TIP3    H127374   2.313   1.430   8.279  0.4395  0.4228 -2.7528
 1913TIP3    H227375   2.362   1.573   8.270 -0.9920  0.9381 -2.7211
 1914TIP3   OH227376   4.212   1.028   7.602  0.4233 -0.0406  1.0513
 1914TIP3    H127377   4.226   1.008   7.509 -1.0614 -0.6465  0.9343
 1914TIP3    H227378   4.291   1.075   7.628  0.4399  1.0585 -0.7800
 1915TIP3   OH227379   6.500   1.689   8.679 -0.0156 -0.1989  0.6533
 1915TIP3    H127380   6.425   1.676   8.620  0.3973 -0.7611  0.2320
 1915TIP3    H227381   6.498   1.613   8.737  0.4870 -0.4624  0.3379
 1916TIP3   OH227382   5.149   3.619   2.875  0.7835 -0.4578  0.1589
 1916TIP3    H127383   5.111   3.705   2.893  2.6125  0.1536  1.4270
 1916TIP3    H227384   5.129   3.567   2.953 -0.9057 -1.4412 -0.8874
 1917TIP3   OH227385   4.159   4.847   3.082 -0.1137 -0.8501 -0.0117
 1917TIP3    H127386   4.203   4.883   3.159  1.0812 -1.4777 -0.3794
 1917TIP3    H227387   4.137   4.757   3.107 -0.4029 -0.8186 -0.1482
 1918TIP3   OH227388   1.588   2.833   2.461  0.7509 -0.5300 -0.2630
 1918TIP3    H127389   1.601   2.772   2.388  1.4421 -0.1352 -0.4748
 1918TIP3    H227390   1.663   2.820   2.518  0.5105 -0.4188  0.0848
 1919TIP3   OH227391   1.137   0.747   0.972  0.0476 -0.0198 -0.4934
 1919TIP3    H127392   1.105   0.661   0.944  0.7532 -0.0236 -1.3573
 1919TIP3    H227393   1.060   0.803   0.969 -0.2612 -0.4470 -0.7047
 1920TIP3   OH227394   3.959   4.136   8.262  0.5291  0.4287  0.4051
 1920TIP3    H127395   4.034   4.194   8.275 -0.0347  0.9250  1.5351
 1920TIP3    H227396   3.884   4.186   8.293  0.0279 -0.9125  1.4485
 1921TIP3   OH227397   2.472   5.559   1.033 -0.5033 -0.0512 -0.1277
 1921TIP3    H127398   2.489   5.642   1.078 -1.3249  0.1748 -0.2172
 1921TIP3    H227399   2.403   5.518   1.085 -0.1611 -0.6488 -0.1355
 1922TIP3   OH227400   5.535   5.993   2.404 -0.0386 -0.2809 -0.2851
 1922TIP3    H127401   5.530   5.898   2.395  0.8415 -0.3761  0.1265
 1922TIP3    H227402   5.626   6.015   2.382  0.3360  0.2214  1.5965
 1923TIP3   OH227403   3.690   3.382   7.411  0.2652  0.0691 -0.1009
 1923TIP3    H127404   3.595   3.384   7.402  0.1147 -2.5586  0.1365
 1923TIP3    H227405   3.717   3.473   7.396 -2.3176  1.0618  0.6865
 1924TIP3   OH227406   0.893   3.836   0.449  0.2348 -0.7024 -0.0733
 1924TIP3    H127407   0.983   3.820   0.419  0.3575 -0.8819  0.3743
 1924TIP3    H227408   0.858   3.749   0.464 -0.2013 -0.6511 -0.7665
 1925TIP3   OH227409   0.909   4.133   2.927  0.0163 -0.4714  0.0995
 1925TIP3    H127410   0.835   4.072   2.925  0.2493 -0.7747  0.6204
 1925TIP3    H227411   0.871   4.216   2.954 -0.6626  0.1515 -2.4514
 1926TIP3   OH227412   5.858   2.078   2.316 -0.7470  0.1638 -0.1306
 1926TIP3    H127413   5.893   1.995   2.348 -2.3995 -1.7316 -2.8350
 1926TIP3    H227414   5.802   2.109   2.386  0.8105 -0.3244  1.4048
 1927TIP3   OH227415   0.243   0.253   0.230  0.2547 -0.0093  0.1550
 1927TIP3    H127416   0.274   0.173   0.187 -2.0331 -0.3440 -1.0218
 1927TIP3    H227417   0.283   0.250   0.317 -0.3575 -2.8536  0.4365
 1928TIP3   OH227418   4.898   5.190   2.647 -0.2949 -0.4139 -0.2201
 1928TIP3    H127419   4.992   5.173   2.648 -0.4572 -1.3748 -0.2133
 1928TIP3    H227420   4.866   5.149   2.727 -0.6134  0.5984  0.1817
 1929TIP3   OH227421   1.359   0.952   7.340  0.2238  0.3546  0.3771
 1929TIP3    H127422   1.322   0.951   7.429  0.3890 -0.8836  0.4444
 1929TIP3    H227423   1.326   1.033   7.302 -1.8661 -0.2805  0.7339
 1930TIP3   OH227424   2.851   6.341   3.453  0.4525  0.0075 -0.9145
 1930TIP3    H127425   2.932   6.340   3.504  0.4100  1.6183 -0.7377
 1930TIP3    H227426   2.878   6.317   3.364  0.5771 -2.5017 -0.2714
 1931TIP3   OH227427   5.962   4.131   3.653  0.4166 -0.0632 -0.5830
 1931TIP3    H127428   6.045   4.156   3.692 -0.6722 -0.1966  2.0360
 1931TIP3    H227429   5.929   4.061   3.710 -2.0554  0.8697 -0.7517
 1932TIP3   OH227430   3.945   4.277   1.865  0.1185 -0.0552 -0.0010
 1932TIP3    H127431   3.997   4.238   1.794  1.2404  0.4392  0.5169
 1932TIP3    H227432   3.971   4.229   1.943  0.7211  0.9895  0.4649
 1933TIP3   OH227433   2.890   0.941   2.685 -0.1575  0.8027  0.2397
 1933TIP3    H127434   2.956   0.898   2.739  0.1452  2.1524  0.9932
 1933TIP3    H227435   2.807   0.906   2.718  0.0942  0.4570  0.5255
 1934TIP3   OH227436   1.159   3.749   0.822 -0.2297 -0.1473  0.1138
 1934TIP3    H127437   1.245   3.739   0.782 -0.6986  0.6370 -1.1270
 1934TIP3    H227438   1.162   3.835   0.864 -0.3002 -0.2691  0.3716
 1935TIP3   OH227439   3.565   4.697   1.581  0.0647  0.2328 -0.2568
 1935TIP3    H127440   3.516   4.626   1.623  2.3596 -1.1819  0.2095
 1935TIP3    H227441   3.581   4.760   1.651 -0.9089  0.6300 -0.3773
 1936TIP3   OH227442   6.174   3.408   7.377  0.2167 -0.3628  0.3127
 1936TIP3    H127443   6.245   3.355   7.341  0.2538  0.2431 -0.5538
 1936TIP3    H227444   6.130   3.350   7.439  0.5660 -1.2366 -0.2326
 1937TIP3   OH227445   2.326   5.428   1.449 -0.4019  0.3562  0.1735
 1937TIP3    H127446   2.297   5.440   1.358  0.1287  0.8654  0.0669
 1937TIP3    H227447   2.367   5.512   1.472 -0.6971  0.2936  0.9445
 1938TIP3   OH227448   2.050   0.886   8.655  0.3621 -0.0241  0.1193
 1938TIP3    H127449   2.101   0.888   8.574 -0.6357 -0.3214 -0.5371
 1938TIP3    H227450   2.025   0.978   8.669 -1.3631 -0.2450 -1.1830
 1939TIP3   OH227451   3.875   4.872   3.040  0.4413 -0.4825  0.9968
 1939TIP3    H127452   3.850   4.899   3.128 -0.1923  1.2752  0.3207
 1939TIP3    H227453   3.971   4.875   3.040  0.4633 -0.8396  1.7013
 1940TIP3   OH227454   1.233   3.598   1.782  0.1061 -0.0613  0.5575
 1940TIP3    H127455   1.220   3.692   1.789 -1.2499 -0.1135 -0.7283
 1940TIP3    H227456   1.145   3.562   1.771  0.5187 -1.5785  1.8996
 1941TIP3   OH227457   1.190   1.026   1.521  0.3693 -0.0073  0.4580
 1941TIP3    H127458   1.137   0.960   1.566  0.0196  0.2669  0.4569
 1941TIP3    H227459   1.126   1.081   1.475  0.7397 -0.6577 -0.8978
 1942TIP3   OH227460   2.360   5.805   1.839 -0.2658  0.4502  0.4548
 1942TIP3    H127461   2.295   5.736   1.852  0.6822 -0.4509  0.5054
 1942TIP3    H227462   2.332   5.876   1.897 -1.3872  0.2129  0.2188
 1943TIP3   OH227463   4.489   0.448   8.391  0.3540  0.7351  0.2478
 1943TIP3    H127464   4.554   0.409   8.449  0.6251  1.4085  0.4011
 1943TIP3    H227465   4.539   0.507   8.334 -0.0120  0.6497 -0.1671
 1944TIP3   OH227466   4.076   0.965   8.366  0.2920  0.2802 -0.2184
 1944TIP3    H127467   4.011   0.977   8.435  0.7083  1.7304 -0.0436
 1944TIP3    H227468   4.153   0.930   8.410 -0.0112 -0.4308 -0.2475
 1945TIP3   OH227469   5.034   3.688   0.102  0.0015  0.5751 -0.2130
 1945TIP3    H127470   5.081   3.622   0.151  0.3829 -0.3294 -1.7311
 1945TIP3    H227471   4.984   3.638   0.037 -1.1587  1.6680 -0.2021
 1946TIP3   OH227472   6.683   4.973   0.771 -0.3011 -0.1837 -0.7455
 1946TIP3    H127473   6.594   4.946   0.794  0.0881 -0.5526  0.3920
 1946TIP3    H227474   6.723   4.894   0.734 -0.3867 -0.0726 -1.0741
 1947TIP3   OH227475   1.451   0.736   1.832  1.1986  0.0368 -0.5330
 1947TIP3    H127476   1.400   0.697   1.903  0.6997 -0.1045 -0.9676
 1947TIP3    H227477   1.542   0.719   1.856  1.0009 -1.6716 -0.8409
 1948TIP3   OH227478   0.102   6.343   1.320  0.4182  0.6982 -0.1113
 1948TIP3    H127479   0.135   6.268   1.270 -0.6440 -0.7307  1.2538
 1948TIP3    H227480   0.089   6.309   1.408 -4.2962  1.1738 -0.3910
 1949TIP3   OH227481   2.819   4.508   3.283 -0.5518 -0.0297  0.2599
 1949TIP3    H127482   2.873   4.586   3.271 -2.0358  0.8514 -1.0598
 1949TIP3    H227483   2.881   4.440   3.311  1.0169  1.2325 -0.0153
 1950TIP3   OH227484   3.566   1.010   1.441  1.0566 -0.0765  0.1209
 1950TIP3    H127485   3.557   0.982   1.532  0.7023  1.1989  0.5074
 1950TIP3    H227486   3.539   0.934   1.389 -0.2266 -0.3239  1.1122
 1951TIP3   OH227487   5.471   5.827   2.102 -0.4224  0.1319  0.1261
 1951TIP3    H127488   5.528   5.903   2.110 -0.8129  0.3423  1.1299
 1951TIP3    H227489   5.526   5.759   2.063  0.1598  0.6878 -0.0318
 1952TIP3   OH227490   6.419   2.775   0.859 -0.1859 -0.4621  0.4255
 1952TIP3    H127491   6.474   2.710   0.815 -1.1567 -0.3436 -1.0447
 1952TIP3    H227492   6.480   2.825   0.914  0.6694 -2.1944  1.1253
 1953TIP3   OH227493   1.773   0.221   8.204  0.1900  0.7382  0.2695
 1953TIP3    H127494   1.782   0.307   8.245 -0.8628  0.2546  1.5961
 1953TIP3    H227495   1.862   0.186   8.201  0.5721  1.7000  0.0870
 1954TIP3   OH227496   5.676   5.763   2.611 -0.0353  0.2373  1.1551
 1954TIP3    H127497   5.747   5.719   2.657 -0.3302 -0.4151  1.0000
 1954TIP3    H227498   5.718   5.837   2.567  0.1839  1.1622  2.8282
 1955TIP3   OH227499   0.699   3.557   2.155 -0.4125  0.4450  0.9583
 1955TIP3    H127500   0.691   3.510   2.071 -0.4155 -0.2724  1.3549
 1955TIP3    H227501   0.777   3.520   2.196  0.7572  2.1913  0.4143
 1956TIP3   OH227502   4.306   2.794   2.818 -0.4044 -0.8115  0.2862
 1956TIP3    H127503   4.269   2.706   2.825 -0.0461 -0.9344  0.6618
 1956TIP3    H227504   4.315   2.824   2.909 -4.1173  1.1536  0.2230
 1957TIP3   OH227505   2.163   2.762   0.310  0.0848  0.5510  0.3826
 1957TIP3    H127506   2.203   2.695   0.255 -0.6286 -0.7367  1.3668
 1957TIP3    H227507   2.229   2.783   0.375  0.1282  0.4304  0.3769
 1958TIP3   OH227508   1.394   0.318   2.722  0.3168 -0.3277  0.6421
 1958TIP3    H127509   1.366   0.387   2.782 -0.7973 -0.3456  0.1598
 1958TIP3    H227510   1.488   0.310   2.737  0.5365  1.5392  0.4508
 1959TIP3   OH227511   2.234   2.079   8.806 -0.2399  0.0052 -0.3904
 1959TIP3    H127512   2.317   2.034   8.821 -0.8696 -0.5027  1.8599
 1959TIP3    H227513   2.168   2.020   8.842 -1.2659  1.8552  0.8788
 1960TIP3   OH227514   3.836   4.755   2.781  0.1301 -0.2421 -0.1603
 1960TIP3    H127515   3.834   4.791   2.870  2.6986 -2.3737  0.8750
 1960TIP3    H227516   3.926   4.769   2.751  0.4571 -3.0617 -0.7917
 1961TIP3   OH227517   2.873   3.999   2.842 -0.7341 -0.4066  0.2427
 1961TIP3    H127518   2.870   3.984   2.937 -1.2127 -1.3344  0.0973
 1961TIP3    H227519   2.786   3.975   2.812 -0.8319  0.6567 -0.3356
 1962TIP3   OH227520   3.652   1.108   2.479 -0.0555  0.1126 -0.2326
 1962TIP3    H127521   3.619   1.195   2.455 -1.3205  0.0943  1.2514
 1962TIP3    H227522   3.748   1.117   2.477 -0.1473  1.8440  0.7940
 1963TIP3   OH227523   1.332   5.163   2.741 -0.0052 -0.3431 -0.6263
 1963TIP3    H127524   1.350   5.080   2.785  2.1866  0.1665 -0.4651
 1963TIP3    H227525   1.400   5.223   2.772 -0.8151  1.1861 -1.6529
 1964TIP3   OH227526   6.606   2.626   0.686 -0.8230  0.1023  0.0012
 1964TIP3    H127527   6.550   2.548   0.681 -1.8081  0.7833  0.0680
 1964TIP3    H227528   6.691   2.593   0.715 -1.5046 -0.8129  1.0385
 1965TIP3   OH227529   4.970   6.136   0.550  0.8357 -0.5138 -0.0650
 1965TIP3    H127530   4.973   6.077   0.626  0.9916  0.6566  0.8721
 1965TIP3    H227531   4.889   6.112   0.504  0.3099 -0.7025  0.9340
 1966TIP3   OH227532   5.449   1.472   2.128 -0.1016 -0.1571 -0.0290
 1966TIP3    H127533   5.388   1.545   2.115  0.1314  0.0404 -0.0243
 1966TIP3    H227534   5.448   1.425   2.045  1.1099  0.8918 -0.6788
 1967TIP3   OH227535   6.014   2.595   3.152 -0.5992  0.2320  0.3430
 1967TIP3    H127536   6.102   2.556   3.159 -0.2334  0.2791 -2.5529
 1967TIP3    H227537   6.019   2.674   3.205  1.5474  0.8267 -0.5855
 1968TIP3   OH227538   4.580   0.536   1.575  0.3628  0.3143 -0.5402
 1968TIP3    H127539   4.604   0.616   1.622 -0.1448 -0.2365  0.6742
 1968TIP3    H227540   4.659   0.482   1.579 -0.0376 -0.2076  0.7205
 1969TIP3   OH227541   1.531   1.120   2.129 -0.2607 -0.1380 -0.4191
 1969TIP3    H127542   1.439   1.127   2.155 -0.7412  1.2052 -2.3181
 1969TIP3    H227543   1.550   1.026   2.135 -2.0321 -0.5623 -0.8974
 1970TIP3   OH227544   5.625   2.679   2.675  0.6712 -0.0183 -0.4178
 1970TIP3    H127545   5.533   2.705   2.663  1.2781  2.1819 -0.6835
 1970TIP3    H227546   5.622   2.584   2.680 -1.5437 -0.0525 -1.2299
 1971TIP3   OH227547   6.401   2.892   1.840 -0.5761 -0.0278 -0.0473
 1971TIP3    H127548   6.350   2.969   1.868  0.8944  0.6501  0.8830
 1971TIP3    H227549   6.343   2.818   1.858 -1.4166  0.7377  0.5355
 1972TIP3   OH227550   4.454   2.980   0.670 -0.7642  0.5157 -0.5388
 1972TIP3    H127551   4.480   2.911   0.609 -0.6702  1.4106 -1.5433
 1972TIP3    H227552   4.415   2.933   0.744 -1.0684 -0.5944 -1.3734
 1973TIP3   OH227553   4.305   5.766   3.173 -0.3575 -0.1723 -0.6106
 1973TIP3    H127554   4.362   5.774   3.250  1.2741 -0.5710 -1.7265
 1973TIP3    H227555   4.310   5.673   3.150  0.5391  0.2309 -2.1680
 1974TIP3   OH227556   1.653   2.038   8.498 -0.1997 -0.0180  0.1560
 1974TIP3    H127557   1.695   2.106   8.446 -0.7900 -0.4710 -0.9405
 1974TIP3    H227558   1.566   2.028   8.459  0.2215 -2.0964 -0.3336
 1975TIP3   OH227559   0.976   5.064   2.528 -0.0053 -0.0446  0.3847
 1975TIP3    H127560   0.896   5.077   2.478  0.6450 -0.7865 -0.9140
 1975TIP3    H227561   1.007   4.977   2.501  0.1901 -0.6403  2.3726
 1976TIP3   OH227562   0.350   5.515   8.448  0.1871  0.3092  0.2932
 1976TIP3    H127563   0.365   5.450   8.516 -0.2940 -0.4371 -0.2946
 1976TIP3    H227564   0.270   5.560   8.474 -1.0628 -1.2498 -0.7045
 1977TIP3   OH227565   2.613   5.984   2.555 -0.5302  0.1537  0.5471
 1977TIP3    H127566   2.658   5.951   2.633 -1.1014 -1.0228  0.3870
 1977TIP3    H227567   2.684   6.018   2.500 -0.0787  0.6161  1.3739
 1978TIP3   OH227568   1.987   1.916   0.085  0.2296 -0.2200 -0.2349
 1978TIP3    H127569   1.954   1.826   0.092  0.5233 -0.3884 -0.9509
 1978TIP3    H227570   1.925   1.958   0.025  0.2866 -0.0370 -0.1624
 1979TIP3   OH227571   3.836   1.785   0.378 -0.3288 -0.3511  1.0793
 1979TIP3    H127572   3.814   1.876   0.396 -3.7305 -0.7210 -0.3775
 1979TIP3    H227573   3.846   1.745   0.464  0.8593  1.2827  1.7487
 1980TIP3   OH227574   5.985   1.858   2.413  0.2431  0.4067  0.5663
 1980TIP3    H127575   6.060   1.917   2.406 -1.0379  1.9858 -0.4767
 1980TIP3    H227576   5.973   1.847   2.508  1.0387  1.1324  0.7693
 1981TIP3   OH227577   5.937   5.477   0.396 -0.3809  0.2300 -0.3112
 1981TIP3    H127578   5.863   5.498   0.454 -1.2753 -0.2588 -1.2372
 1981TIP3    H227579   5.958   5.386   0.417 -0.6455  0.0819 -0.6841
 1982TIP3   OH227580   1.336   5.081   8.478 -0.0851  0.1265  0.4450
 1982TIP3    H127581   1.243   5.059   8.478 -0.3916  1.3402 -0.2593
 1982TIP3    H227582   1.365   5.063   8.567 -0.7363 -1.2520  0.4068
 1983TIP3   OH227583   4.361   3.520   0.316  0.3283 -0.3441  0.3628
 1983TIP3    H127584   4.296   3.531   0.247 -1.2265  3.2459  2.1775
 1983TIP3    H227585   4.430   3.582   0.295 -0.4241  1.2000  2.2124
 1984TIP3   OH227586   0.362   4.568   2.686 -0.6687  0.1449 -0.6311
 1984TIP3    H127587   0.388   4.645   2.737  1.5623 -0.6839 -0.4019
 1984TIP3    H227588   0.290   4.530   2.737  2.7434 -1.8205  3.3571
 1985TIP3   OH227589   0.200   6.783   1.333  0.4157 -0.2912 -0.4827
 1985TIP3    H127590   0.239   6.698   1.353  0.5948 -0.1813 -0.3608
 1985TIP3    H227591   0.108   6.773   1.358  0.7631  0.0413  1.0161
 1986TIP3   OH227592   2.150   2.033   0.951 -0.3137 -0.2167  0.2439
 1986TIP3    H127593   2.162   2.010   1.043  0.2149 -0.1760  0.1920
 1986TIP3    H227594   2.240   2.045   0.918 -0.5129  0.1673 -0.1708
 1987TIP3   OH227595   3.916   2.198   0.198  0.2752 -0.1175 -0.0271
 1987TIP3    H127596   3.946   2.264   0.137 -2.0323  0.3100 -0.8210
 1987TIP3    H227597   3.979   2.201   0.270  2.5637 -0.0124 -1.9196
 1988TIP3   OH227598   0.201   6.294   8.484 -0.2312  0.6654 -0.0820
 1988TIP3    H127599   0.182   6.244   8.563  0.8261  2.0679  1.1200
 1988TIP3    H227600   0.201   6.229   8.414 -1.1101 -0.6302  1.0693
 1989TIP3   OH227601   4.493   2.661   8.639  0.2239 -0.3309  0.0618
 1989TIP3    H127602   4.558   2.716   8.595  1.1679 -0.6665  0.9922
 1989TIP3    H227603   4.545   2.596   8.686 -0.7923 -0.6146  0.8227
 1990TIP3   OH227604   2.593   5.688   8.767 -0.0973 -0.0882  0.1390
 1990TIP3    H127605   2.548   5.617   8.814 -0.2974 -0.2569 -0.3066
 1990TIP3    H227606   2.548   5.694   8.684 -0.8066  1.3178  0.6050
 1991TIP3   OH227607   6.600   3.242   1.495  0.0497 -0.5196  0.1834
 1991TIP3    H127608   6.599   3.185   1.571  1.4288 -1.1720 -0.2717
 1991TIP3    H227609   6.526   3.302   1.509 -1.5895 -2.5360  0.5519
 1992TIP3   OH227610   0.319   2.411   8.311 -0.2940  0.4090  0.1299
 1992TIP3    H127611   0.284   2.449   8.231 -1.5552 -0.3255  0.3174
 1992TIP3    H227612   0.300   2.476   8.379  2.4945  1.9508 -0.3945
 1993TIP3   OH227613   1.797   6.002   8.079  0.4838  0.4287  0.2144
 1993TIP3    H127614   1.758   6.086   8.053  0.7828  0.8451  1.0990
 1993TIP3    H227615   1.729   5.938   8.058  0.7884  0.6846 -1.8507
 1994TIP3   OH227616   2.836   1.520   0.755 -0.1115 -0.2453  0.3368
 1994TIP3    H127617   2.844   1.578   0.830  0.9076  0.4874 -0.3214
 1994TIP3    H227618   2.781   1.567   0.694  1.6880  0.6232 -0.7028
 1995TIP3   OH227619   1.573   0.409   0.026 -0.3474 -0.3598  0.2231
 1995TIP3    H127620   1.537   0.356  -0.045 -0.9589  0.6384 -0.2452
 1995TIP3    H227621   1.522   0.384   0.103 -0.4363 -0.6543  0.0697
 1996TIP3   OH227622   1.314   4.797   7.470 -0.7424  0.4297  0.3278
 1996TIP3    H127623   1.359   4.763   7.393 -0.7418  0.9540  0.0940
 1996TIP3    H227624   1.371   4.867   7.502 -1.1071  0.7104  0.3701
 1997TIP3   OH227625   4.646   5.892   8.786  0.3960 -0.2685  0.0902
 1997TIP3    H127626   4.555   5.913   8.807  0.4565 -1.3551  1.6386
 1997TIP3    H227627   4.644   5.865   8.694 -0.5168  1.3723 -0.4106
 1998TIP3   OH227628   4.056   5.542   1.937 -0.1510 -0.1184 -0.1819
 1998TIP3    H127629   4.055   5.468   1.997 -1.9423  0.6767  0.8619
 1998TIP3    H227630   4.063   5.619   1.993  1.9604  0.5594 -1.2584
 1999TIP3   OH227631   0.524   1.374   0.115  0.6188 -0.1682  0.6778
 1999TIP3    H127632   0.606   1.423   0.110 -0.3759  1.4458 -0.3838
 1999TIP3    H227633   0.490   1.374   0.026 -1.3746  0.6805  1.3904
 2000TIP3   OH227634   1.060   3.969   2.748  0.3706 -0.3998  0.2566
 2000TIP3    H127635   1.036   4.025   2.674  2.6836 -1.0350 -1.0649
 2000TIP3    H227636   1.036   4.020   2.826 -1.3157  0.6592 -0.8955
 2001TIP3   OH227637   3.020   3.208   2.124  0.8404 -0.3472 -0.2655
 2001TIP3    H127638   3.113   3.202   2.143  0.9745  1.7385  0.0138
 2001TIP3    H227639   2.977   3.154   2.191  1.7578  0.0207  0.6359
 2002TIP3   OH227640   2.793   1.657   1.001 -0.6575 -0.4636  0.2214
 2002TIP3    H127641   2.844   1.582   1.031 -0.9078 -0.2431  1.2335
 2002TIP3    H227642   2.811   1.726   1.064 -1.0698  0.0718 -0.2325
 2003TIP3   OH227643   2.950   2.260   1.437  0.1025 -0.2645  0.6704
 2003TIP3    H127644   2.904   2.242   1.518  0.0767 -2.7353  0.1691
 2003TIP3    H227645   2.983   2.175   1.408  2.5217  0.9530 -0.4893
 2004TIP3   OH227646   4.161   5.835   0.318 -0.0420  0.1410  0.4173
 2004TIP3    H127647   4.121   5.766   0.266  1.6960 -0.0554 -0.7407
 2004TIP3    H227648   4.118   5.829   0.404 -1.0736 -1.2776 -0.1629
 2005TIP3   OH227649   4.488   2.738   0.541  0.6083  0.2413  0.8529
 2005TIP3    H127650   4.541   2.684   0.482  1.0671  0.0793  1.4052
 2005TIP3    H227651   4.468   2.680   0.615 -1.0337  0.0374  0.2876
 2006TIP3   OH227652   3.363   2.223   1.643  0.1973 -0.3380 -0.0137
 2006TIP3    H127653   3.398   2.153   1.589  0.6293  0.8509 -1.3191
 2006TIP3    H227654   3.394   2.303   1.602 -0.3529  0.6405  1.3949
 2007TIP3   OH227655   2.050   1.283   0.053 -0.1849 -0.1358 -0.4192
 2007TIP3    H127656   1.986   1.254  -0.012  1.1320 -2.3538 -0.8472
 2007TIP3    H227657   1.999   1.298   0.132 -1.1900 -3.1576 -0.3420
 2008TIP3   OH227658   2.076   0.046   2.141  0.1770 -0.5304  0.1075
 2008TIP3    H127659   2.150   0.070   2.085 -1.2409  2.1237 -0.8518
 2008TIP3    H227660   2.043  -0.036   2.104  0.5206  0.1122 -1.7205
 2009TIP3   OH227661   2.320   4.168   8.601 -0.4625 -0.4433 -0.1388
 2009TIP3    H127662   2.253   4.208   8.545 -0.6340 -1.8896 -1.0335
 2009TIP3    H227663   2.373   4.117   8.540  1.2382  0.3750  0.6163
 2010TIP3   OH227664   0.277   2.814   1.290 -0.3576  0.2545  0.0570
 2010TIP3    H127665   0.326   2.887   1.252 -1.6331  1.1833  0.1300
 2010TIP3    H227666   0.327   2.790   1.368  0.2944  0.7688 -0.1894
 2011TIP3   OH227667   5.620   5.113   8.574 -0.2412  0.3984 -0.5077
 2011TIP3    H127668   5.575   5.127   8.490 -1.8715 -3.2019 -0.3895
 2011TIP3    H227669   5.704   5.074   8.550 -0.2743  0.3046 -0.4674
 2012TIP3   OH227670   0.732   2.574   7.754 -0.0372 -0.1001 -0.1944
 2012TIP3    H127671   0.659   2.519   7.726  0.0549 -0.0128 -0.6093
 2012TIP3    H227672   0.807   2.540   7.706  0.0461  0.3079 -0.3538
 2013TIP3   OH227673   1.311   0.648   0.321  0.0370 -0.2931  0.2137
 2013TIP3    H127674   1.274   0.725   0.277  0.5432  0.5094  1.1369
 2013TIP3    H227675   1.405   0.662   0.318  0.0838 -0.2381  1.4806
 2014TIP3   OH227676   5.901   6.502   2.298 -0.3526 -0.4395 -0.6220
 2014TIP3    H127677   5.891   6.594   2.273 -0.0948 -0.2021  0.1196
 2014TIP3    H227678   5.972   6.470   2.242 -1.4429 -0.6119 -1.9513
 2015TIP3   OH227679   4.985   5.993   0.058 -0.3385  0.2906 -0.4998
 2015TIP3    H127680   4.952   5.937   0.129  1.5634 -0.3431 -0.0463
 2015TIP3    H227681   4.985   5.936  -0.019 -0.1921  0.2432 -0.4656
 2016TIP3   OH227682   4.156   1.381   7.588  0.4146  0.2819 -0.1843
 2016TIP3    H127683   4.234   1.340   7.625  0.9322  0.4030 -1.1171
 2016TIP3    H227684   4.181   1.405   7.499 -0.4656  0.9586 -0.2655
 2017TIP3   OH227685   2.489   1.873   8.449  0.7776 -0.0925 -0.0373
 2017TIP3    H127686   2.521   1.889   8.538 -0.2089  0.3880  0.2499
 2017TIP3    H227687   2.456   1.958   8.420 -1.7137 -0.8703  0.3154
 2018TIP3   OH227688   3.646   0.675   7.017 -0.3486 -0.0619 -0.2522
 2018TIP3    H127689   3.710   0.654   7.085 -0.5320  1.0605  0.2973
 2018TIP3    H227690   3.569   0.707   7.065 -1.5206 -1.7568 -0.8721
 2019TIP3   OH227691   4.344   4.271   0.770  0.3629  0.4366 -0.1798
 2019TIP3    H127692   4.288   4.225   0.832  1.2007 -0.2654  0.0815
 2019TIP3    H227693   4.313   4.242   0.684 -0.9040  1.5385 -0.1281
 2020TIP3   OH227694   6.416   5.808   8.691 -0.6228 -0.3642  0.6292
 2020TIP3    H127695   6.418   5.802   8.786  1.4394  0.9443  0.7292
 2020TIP3    H227696   6.459   5.727   8.662  1.9893  0.7982  0.9959
 2021TIP3   OH227697   4.876   1.732   1.214 -0.5604 -0.1709  0.0844
 2021TIP3    H127698   4.883   1.733   1.118 -1.6463 -2.4946 -0.0976
 2021TIP3    H227699   4.791   1.773   1.232 -0.3315  0.3162  0.0554
 2022TIP3   OH227700   0.029   6.737   0.905 -0.4383  0.0833 -0.5530
 2022TIP3    H127701  -0.028   6.786   0.965  1.7533  1.0681  0.8541
 2022TIP3    H227702   0.075   6.805   0.857  0.5366 -0.6573 -0.6796
 2023TIP3   OH227703   2.129   0.616   8.552 -0.1573 -0.0597 -0.0689
 2023TIP3    H127704   2.209   0.659   8.522 -0.4637  0.6983  0.1779
 2023TIP3    H227705   2.059   0.659   8.503 -0.6495  1.0362  1.4930
 2024TIP3   OH227706   6.573   0.543   0.123  0.0530 -0.1364  0.1581
 2024TIP3    H127707   6.601   0.522   0.034  0.1906 -0.5714  0.3022
 2024TIP3    H227708   6.553   0.637   0.120 -0.5359 -0.2737 -0.4853
 2025TIP3   OH227709   3.426   0.035   2.296 -0.5859 -0.0278 -0.7246
 2025TIP3    H127710   3.384   0.121   2.298 -0.8902 -0.1853 -0.0438
 2025TIP3    H227711   3.424   0.005   2.387  0.5443 -0.2684 -0.7630
 2026TIP3   OH227712   0.713   3.131   1.762 -0.3963 -0.1191  0.4828
 2026TIP3    H127713   0.728   3.092   1.675 -1.7422  4.0332 -1.9212
 2026TIP3    H227714   0.793   3.114   1.810  0.6553 -2.1513 -1.7311
 2027TIP3   OH227715   3.322   2.165   0.557 -0.3457  0.2013 -0.1952
 2027TIP3    H127716   3.414   2.142   0.549  0.6619  2.8144  2.1643
 2027TIP3    H227717   3.293   2.121   0.638 -0.5586  0.9911  0.1679
 2028TIP3   OH227718   4.479   2.570   0.766  0.7410  0.2000  0.5473
 2028TIP3    H127719   4.553   2.517   0.795  1.2487  1.5925  1.9860
 2028TIP3    H227720   4.458   2.625   0.842 -1.1257  0.5608 -0.1662
 2029TIP3   OH227721   3.442   1.760   0.569 -0.0761  0.0161  0.2473
 2029TIP3    H127722   3.465   1.667   0.569  0.4346  0.0852 -2.1469
 2029TIP3    H227723   3.385   1.771   0.493 -1.3579  1.4288  1.3326
 2030TIP3   OH227724   5.254   2.080   2.585  0.2243 -0.1894  0.6073
 2030TIP3    H127725   5.334   2.028   2.595  0.7366  0.4888  0.1210
 2030TIP3    H227726   5.231   2.072   2.492  0.4204  0.5933  0.4791
 2031TIP3   OH227727   6.312   0.649   3.126  0.7507  0.5124  0.4254
 2031TIP3    H127728   6.372   0.676   3.057 -0.5136  0.9255 -0.5568
 2031TIP3    H227729   6.294   0.557   3.108  0.2968  0.6611  0.0797
 2032TIP3   OH227730   0.540   0.671   1.003 -1.1361  0.3400 -0.2482
 2032TIP3    H127731   0.565   0.762   0.989 -0.6395  0.2434  0.0066
 2032TIP3    H227732   0.445   0.671   0.993 -1.0721  0.7664 -0.8987
 2033TIP3   OH227733   5.234   5.851   1.272  0.3023 -0.4106 -0.1656
 2033TIP3    H127734   5.246   5.945   1.261 -1.6393 -0.2707 -1.5720
 2033TIP3    H227735   5.140   5.839   1.286  0.2544 -2.2291 -1.5426
 2034TIP3   OH227736   0.083   4.445   0.211  0.3914  0.2252 -0.3034
 2034TIP3    H127737  -0.004   4.470   0.181  1.0393  2.4603 -0.4767
 2034TIP3    H227738   0.108   4.515   0.272  1.6519 -0.9269  0.5489
 2035TIP3   OH227739   3.830   3.551   1.869  1.0060  0.3395 -0.2812
 2035TIP3    H127740   3.890   3.477   1.863  1.2409  0.5416 -0.4120
 2035TIP3    H227741   3.865   3.616   1.809  0.7597  0.5305 -0.2203
 2036TIP3   OH227742   4.755   3.499   7.515 -0.6082 -0.4048 -0.1119
 2036TIP3    H127743   4.760   3.512   7.420 -1.1583 -1.0175 -0.2367
 2036TIP3    H227744   4.777   3.584   7.552  1.5828 -0.6375 -0.7372
 2037TIP3   OH227745   2.178   0.251   2.853  0.1035 -0.1402  0.2765
 2037TIP3    H127746   2.109   0.185   2.852  0.2833 -0.3615 -1.3688
 2037TIP3    H227747   2.150   0.315   2.918 -0.4761 -1.4089  1.3195
 2038TIP3   OH227748   4.983   3.915   2.921  0.7553  0.8599 -0.6342
 2038TIP3    H127749   4.898   3.898   2.961  0.9095  0.0575 -0.6413
 2038TIP3    H227750   4.964   3.928   2.828  0.8188 -1.0063 -0.9341
 2039TIP3   OH227751   5.871   1.105   7.602  0.4669 -0.2592 -0.1911
 2039TIP3    H127752   5.960   1.072   7.612  0.5586 -1.8403 -4.0409
 2039TIP3    H227753   5.876   1.165   7.527 -1.5205  0.3842  0.1390
 2040TIP3   OH227754   2.470   0.184   7.905 -0.1112 -0.2684 -0.5284
 2040TIP3    H127755   2.512   0.111   7.860  1.2423 -0.6596  1.2442
 2040TIP3    H227756   2.457   0.250   7.837 -0.4589 -1.7576 -1.9698
 2041TIP3   OH227757   1.854   6.172   8.484  0.6688  0.2601 -0.2496
 2041TIP3    H127758   1.801   6.227   8.542 -0.4647  0.8162 -1.7307
 2041TIP3    H227759   1.831   6.203   8.396  2.1576 -0.6996 -0.9989
 2042TIP3   OH227760   3.778   1.235   2.044  0.6101  0.8257  0.2563
 2042TIP3    H127761   3.786   1.147   2.079  2.5304  0.6723 -0.4455
 2042TIP3    H227762   3.718   1.227   1.969 -0.4249  0.4388  1.1076
 2043TIP3   OH227763   0.078   2.334   1.784 -0.7224  0.0469  0.7489
 2043TIP3    H127764   0.172   2.350   1.776 -0.6127 -0.2768  1.3671
 2043TIP3    H227765   0.068   2.241   1.762 -0.8535 -0.0072  1.0395
 2044TIP3   OH227766   1.099   2.126   0.179  0.0242 -0.0768  0.9472
 2044TIP3    H127767   1.153   2.064   0.228 -0.1672  0.7020  2.1885
 2044TIP3    H227768   1.058   2.074   0.110  2.1041 -0.7550  0.1331
 2045TIP3   OH227769   1.975   5.321   0.176  0.2669  0.0966 -0.0210
 2045TIP3    H127770   1.905   5.377   0.209 -0.7800 -0.5755 -1.0306
 2045TIP3    H227771   1.933   5.236   0.160  0.6658  0.3454 -2.9777
 2046TIP3   OH227772   2.732   1.576   7.079 -0.8415 -0.0421  0.1953
 2046TIP3    H127773   2.655   1.547   7.030 -1.0973  0.1339  0.4881
 2046TIP3    H227774   2.717   1.669   7.093 -1.4764 -0.3585  1.8445
 2047TIP3   OH227775   4.093   0.215   0.273  0.4217  0.9514  0.2347
 2047TIP3    H127776   4.130   0.136   0.310 -1.2560 -0.0232 -0.0610
 2047TIP3    H227777   4.032   0.184   0.206 -1.9168  2.3256  1.5620
 2048TIP3   OH227778   1.266   2.190   1.736 -0.3237 -0.3402 -0.0932
 2048TIP3    H127779   1.260   2.157   1.646  1.4595 -0.6417 -0.1243
 2048TIP3    H227780   1.224   2.123   1.789  0.6535 -1.2642 -0.4706
 2049TIP3   OH227781   0.308   4.679   3.760  0.0483  0.2663  0.3222
 2049TIP3    H127782   0.249   4.725   3.701  0.9726 -0.4110 -1.1987
 2049TIP3    H227783   0.385   4.735   3.765  0.0089  0.2803  0.8479
 2050TIP3   OH227784   1.484   6.152   1.234  0.1915 -0.2770 -0.3971
 2050TIP3    H127785   1.440   6.070   1.254 -0.2172  0.2337  0.9158
 2050TIP3    H227786   1.575   6.139   1.260 -0.1389  0.0753  0.9938
 2051TIP3   OH227787   2.233   5.933   1.393 -0.0630 -0.2027  0.9566
 2051TIP3    H127788   2.176   5.857   1.379 -0.3172  0.0151  0.8083
 2051TIP3    H227789   2.206   5.969   1.477 -0.2977  0.0334  0.7819
 2052TIP3   OH227790   3.989   0.264   8.385 -0.7640  0.1628  0.6570
 2052TIP3    H127791   4.061   0.318   8.353 -0.9822  0.4295  0.6161
 2052TIP3    H227792   3.911   0.303   8.347 -0.8277 -0.8911 -0.3521
 2053TIP3   OH227793   1.720   3.600   1.055 -0.0819 -0.6823 -0.0336
 2053TIP3    H127794   1.643   3.656   1.049  0.5096  0.0686 -1.0817
 2053TIP3    H227795   1.720   3.551   0.972  1.1921  0.2041 -0.5947
 2054TIP3   OH227796   1.180   6.037   1.765  0.2177  0.3183 -0.0929
 2054TIP3    H127797   1.104   5.978   1.762  1.7238 -1.9831  2.2476
 2054TIP3    H227798   1.203   6.041   1.857  2.4221  1.6746 -0.6344
 2055TIP3   OH227799   0.426   3.478   2.500  0.0251 -0.0408 -0.2313
 2055TIP3    H127800   0.520   3.459   2.500  0.3746  1.5377 -0.4586
 2055TIP3    H227801   0.421   3.572   2.517 -1.6595 -0.5890  2.9482
 2056TIP3   OH227802   5.044   3.227   3.079 -0.2215  0.1016  0.6833
 2056TIP3    H127803   4.950   3.221   3.062 -0.0303  0.8443 -0.8214
 2056TIP3    H227804   5.051   3.227   3.174 -1.7956  0.6429  0.8369
 2057TIP3   OH227805   3.156   3.086   7.060  0.0880  0.0039  0.2320
 2057TIP3    H127806   3.078   3.094   7.116  0.0997 -0.4493  0.3231
 2057TIP3    H227807   3.228   3.072   7.122  0.4620  1.7329  0.2283
 2058TIP3   OH227808   0.767   3.368   7.360  0.3167  0.1478 -0.0443
 2058TIP3    H127809   0.827   3.435   7.392 -0.1059  1.4057 -1.7631
 2058TIP3    H227810   0.709   3.414   7.299 -0.8745 -1.5076 -0.2364
 2059TIP3   OH227811   5.481   6.207   7.776  0.2371  0.3092  0.1815
 2059TIP3    H127812   5.491   6.127   7.828 -1.5347  0.3035  0.5877
 2059TIP3    H227813   5.570   6.232   7.754  1.1192  0.3414  3.3088
 2060TIP3   OH227814   4.664   2.935   7.098  0.1837 -0.4029 -0.4712
 2060TIP3    H127815   4.692   2.868   7.160  1.1274  0.2363 -0.1890
 2060TIP3    H227816   4.573   2.913   7.079  0.6031 -2.0570 -0.7609
 2061TIP3   OH227817   6.208   4.757   2.732 -0.1453 -0.2166  0.1231
 2061TIP3    H127818   6.294   4.795   2.745 -0.3797  0.5377 -0.4995
 2061TIP3    H227819   6.176   4.740   2.821  0.4781 -0.1432  0.3657
 2062TIP3   OH227820   0.542   5.659   2.272  0.3380  0.0882  0.0598
 2062TIP3    H127821   0.618   5.714   2.254 -0.5907  1.6371  0.7208
 2062TIP3    H227822   0.575   5.593   2.334  1.4195 -0.0108 -0.5972
 2063TIP3   OH227823   5.087   0.741   8.036  0.3086  0.1761  0.0072
 2063TIP3    H127824   5.008   0.726   7.983 -0.7547 -0.3471  1.6467
 2063TIP3    H227825   5.106   0.655   8.074  0.6296  0.6730  0.9947
 2064TIP3   OH227826   1.406   1.479   8.508  0.0319  0.1217 -0.3922
 2064TIP3    H127827   1.439   1.556   8.554  0.9319  0.9637 -2.3071
 2064TIP3    H227828   1.339   1.513   8.449 -0.1404 -0.6874 -0.6839
 2065TIP3   OH227829   1.870   6.653   7.900 -0.0433  0.0065 -0.0386
 2065TIP3    H127830   1.880   6.748   7.900  0.4269  0.0390 -2.8568
 2065TIP3    H227831   1.777   6.639   7.880 -0.5512 -0.2115  2.1678
 2066TIP3   OH227832   4.354   1.507   8.687 -0.0044 -0.3872  0.3101
 2066TIP3    H127833   4.342   1.441   8.618 -1.6046  1.6276 -1.4833
 2066TIP3    H227834   4.310   1.585   8.653  3.0642  2.1373  1.6388
 2067TIP3   OH227835   1.584   6.582   2.083  0.6822  0.0970 -0.2735
 2067TIP3    H127836   1.659   6.638   2.066 -0.8129  2.7929  1.3250
 2067TIP3    H227837   1.513   6.643   2.103 -2.0913 -2.2659 -2.0540
 2068TIP3   OH227838   2.658   5.002   2.354 -0.0522 -0.2499 -0.0568
 2068TIP3    H127839   2.607   5.072   2.313 -0.1477 -0.6106 -0.5709
 2068TIP3    H227840   2.623   4.996   2.443 -0.0651  0.3304 -0.0163
 2069TIP3   OH227841   1.410   4.553   3.600  0.2804  0.0930 -0.1195
 2069TIP3    H127842   1.392   4.481   3.660 -0.6669  1.3626  1.1773
 2069TIP3    H227843   1.379   4.631   3.645  0.2877  1.2095 -1.9263
 2070TIP3   OH227844   2.809   5.685   2.352 -0.0839  0.0858 -0.4260
 2070TIP3    H127845   2.717   5.708   2.365  0.4143  0.5641  3.0468
 2070TIP3    H227846   2.856   5.768   2.356  0.6475 -0.3107 -0.4966
 2071TIP3   OH227847   2.994   5.767   3.319  0.0438  0.0365 -0.1726
 2071TIP3    H127848   3.080   5.796   3.287 -0.9108  0.2437 -2.8370
 2071TIP3    H227849   2.934   5.836   3.291 -1.0499 -0.2347  1.4293
 2072TIP3   OH227850   5.487   1.017   3.487 -0.0376 -0.2448  0.5723
 2072TIP3    H127851   5.418   1.076   3.517  1.0795  1.5509 -0.1844
 2072TIP3    H227852   5.564   1.074   3.478  0.9124 -1.6838 -0.9095
 2073TIP3   OH227853   4.513   0.212   7.364  0.1633 -0.2774  0.3162
 2073TIP3    H127854   4.509   0.139   7.303 -1.5694 -0.4315  0.5700
 2073TIP3    H227855   4.434   0.264   7.346  0.5899  0.7133  1.1397
 2074TIP3   OH227856   3.171   0.636   0.926 -0.0388  0.1967 -0.2084
 2074TIP3    H127857   3.103   0.569   0.929 -0.0601  0.1785 -0.9019
 2074TIP3    H227858   3.204   0.632   0.836  1.5036 -0.4142  0.3639
 2075TIP3   OH227859   4.920   2.619   8.038 -0.3995 -0.5240 -0.4891
 2075TIP3    H127860   4.876   2.596   7.956 -1.3382 -0.1654 -0.0977
 2075TIP3    H227861   5.014   2.617   8.016 -0.6320 -0.4392 -1.5613
 2076TIP3   OH227862   4.097   2.151   8.342  0.7193 -0.3722 -0.5356
 2076TIP3    H127863   4.067   2.138   8.252  1.5393  0.1295 -0.8966
 2076TIP3    H227864   4.024   2.193   8.387  0.0105 -1.3408 -0.7548
 2077TIP3   OH227865   3.488   5.895   8.260  0.4101  0.1132 -0.3222
 2077TIP3    H127866   3.568   5.948   8.261  0.4362  0.0752  0.7168
 2077TIP3    H227867   3.418   5.958   8.244  0.2534  0.8040  2.5606
 2078TIP3   OH227868   0.214   1.566   2.694  0.0791  0.0026  0.0789
 2078TIP3    H127869   0.261   1.568   2.777  1.3545  2.2735 -0.6175
 2078TIP3    H227870   0.123   1.585   2.718  0.3896  0.4313  0.9726
 2079TIP3   OH227871   0.340   1.586   2.312  0.2409  0.2889  0.3142
 2079TIP3    H127872   0.433   1.601   2.296 -0.1367  1.2201 -1.2211
 2079TIP3    H227873   0.309   1.545   2.232 -0.9540  1.3101  0.2254
 2080TIP3   OH227874   2.108   2.039   0.323  0.2079  0.1779 -0.3505
 2080TIP3    H127875   2.087   2.000   0.238 -0.1222 -1.8082  0.5917
 2080TIP3    H227876   2.203   2.051   0.320  0.3573 -0.9383 -0.5967
 2081TIP3   OH227877   1.893   4.710   8.742  0.0999  0.5296 -0.4089
 2081TIP3    H127878   1.820   4.648   8.740 -0.0140  0.6099  0.5144
 2081TIP3    H227879   1.962   4.669   8.691 -1.3973  1.5414 -3.5329
 2082TIP3   OH227880   2.434   5.432   7.796  0.1394  0.2122  0.2407
 2082TIP3    H127881   2.476   5.417   7.711  0.2258 -1.7500  0.5841
 2082TIP3    H227882   2.403   5.345   7.823  0.9719  0.5905  2.6640
 2083TIP3   OH227883   0.777   1.277   8.236  0.2908  0.4747 -0.2701
 2083TIP3    H127884   0.837   1.202   8.233 -1.3613 -1.1328  2.4617
 2083TIP3    H227885   0.702   1.250   8.183  0.1278  0.6259 -0.1188
 2084TIP3   OH227886   5.116   5.882   7.375 -0.1624  0.6504 -0.0582
 2084TIP3    H127887   5.192   5.825   7.366 -0.3305  0.5462 -0.9177
 2084TIP3    H227888   5.061   5.861   7.300 -0.8969  0.9446  0.3859
 2085TIP3   OH227889   6.642   0.238   1.593  0.2651  0.7111 -0.2628
 2085TIP3    H127890   6.673   0.191   1.671  1.5030  1.6776 -0.1588
 2085TIP3    H227891   6.571   0.183   1.560  0.8234 -0.5772  0.5860
 2086TIP3   OH227892   4.428   0.961   0.808 -0.9261  0.1051  0.4354
 2086TIP3    H127893   4.346   0.923   0.839 -0.8753  0.6354  1.2669
 2086TIP3    H227894   4.406   1.051   0.785 -0.5057  0.3753  1.0510
 2087TIP3   OH227895   0.321   0.729   2.442 -0.1067 -0.1233 -0.1865
 2087TIP3    H127896   0.323   0.741   2.537 -0.8895  2.4940 -0.4174
 2087TIP3    H227897   0.229   0.711   2.421 -0.3597  1.5116 -0.6070
 2088TIP3   OH227898   6.359   6.038   0.027 -0.2544 -1.0954  0.0913
 2088TIP3    H127899   6.368   5.957   0.076  1.8753 -1.3643 -0.6382
 2088TIP3    H227900   6.431   6.037  -0.035 -0.4208  1.1568 -0.2405
 2089TIP3   OH227901   5.825   0.618   1.992  0.3188 -0.1531 -0.4212
 2089TIP3    H127902   5.744   0.591   1.948  0.4780  1.2085 -1.6364
 2089TIP3    H227903   5.802   0.700   2.036  0.6925 -0.4809  0.4113
 2090TIP3   OH227904   5.378   1.096   0.037 -0.0017 -0.1369  0.1470
 2090TIP3    H127905   5.325   1.166   0.000 -0.4316 -0.5149  0.0406
 2090TIP3    H227906   5.341   1.016   0.001  0.4923 -0.4214  0.2595
 2091TIP3   OH227907   2.519   5.706   8.508 -0.1848 -0.4384  0.4318
 2091TIP3    H127908   2.446   5.757   8.474  1.7440  2.7148  0.6278
 2091TIP3    H227909   2.567   5.677   8.430 -0.8354 -1.3369  0.3451
 2092TIP3   OH227910   1.867   2.868   3.569 -0.0620  0.3492 -0.1187
 2092TIP3    H127911   1.816   2.789   3.553  0.8214 -0.6316  1.5891
 2092TIP3    H227912   1.813   2.939   3.533 -1.7781 -0.8116  0.0244
 2093TIP3   OH227913   2.644   3.349   8.777 -0.1022  0.2028 -0.2902
 2093TIP3    H127914   2.713   3.312   8.832  0.1338  2.0447  0.7362
 2093TIP3    H227915   2.657   3.309   8.691  1.9396  0.1342  0.0029
 2094TIP3   OH227916   1.312   0.553   0.045  0.0507  0.1814  0.3553
 2094TIP3    H127917   1.294   0.483  -0.018  1.2845 -0.5413  0.7767
 2094TIP3    H227918   1.275   0.521   0.128  0.0747  0.2896  0.4078
 2095TIP3   OH227919   5.728   1.929   8.721 -0.2064 -1.0463 -0.7242
 2095TIP3    H127920   5.645   1.950   8.677 -0.6650  0.6501  0.8159
 2095TIP3    H227921   5.785   2.003   8.699 -0.0595 -0.7708  0.5317
 2096TIP3   OH227922   1.651   0.186   3.500 -0.9470  0.0207 -0.2899
 2096TIP3    H127923   1.745   0.167   3.497 -1.1403 -0.8020 -2.0126
 2096TIP3    H227924   1.647   0.279   3.525  0.2681 -0.1765  0.7467
 2097TIP3   OH227925   4.932   4.340   2.193  0.1375 -0.0726  0.3874
 2097TIP3    H127926   5.022   4.316   2.214  0.2790  1.0279  1.1323
 2097TIP3    H227927   4.937   4.386   2.110  0.3237  0.3588  0.6364
 2098TIP3   OH227928   6.207   5.517   2.434  0.2511  0.1716  0.0090
 2098TIP3    H127929   6.275   5.579   2.460 -0.6025  0.9775  0.3808
 2098TIP3    H227930   6.179   5.475   2.515 -0.8901  1.1100  0.1343
 2099TIP3   OH227931   6.749   4.402   7.773 -0.1924 -0.0236  0.0868
 2099TIP3    H127932   6.693   4.446   7.709  0.2918  0.7490  0.1777
 2099TIP3    H227933   6.795   4.473   7.818  2.1505 -0.6445 -1.1395
 2100TIP3   OH227934   1.217   2.492   0.082  0.0574 -0.3464  0.0650
 2100TIP3    H127935   1.198   2.449   0.165 -0.9663 -0.4972 -0.2232
 2100TIP3    H227936   1.306   2.525   0.091  0.1621 -0.8529  1.0056
 2101TIP3   OH227937   3.403   4.027   7.206  0.0224 -0.1652 -0.1992
 2101TIP3    H127938   3.321   3.988   7.238 -0.3363  0.3203 -0.5183
 2101TIP3    H227939   3.387   4.121   7.207  1.5667  0.1779  2.5374
 2102TIP3   OH227940   3.195   6.442   8.798 -0.0952  0.3221  0.3691
 2102TIP3    H127941   3.277   6.439   8.749 -0.1642  1.3253  0.1651
 2102TIP3    H227942   3.127   6.433   8.731 -0.1846 -2.2526  0.6930
 2103TIP3   OH227943   6.567   2.797   2.087  0.0885  0.2765 -0.4915
 2103TIP3    H127944   6.505   2.767   2.153 -0.0094  1.8460  0.1736
 2103TIP3    H227945   6.516   2.798   2.006  0.5228 -2.7855 -0.9226
 2104TIP3   OH227946   3.201   4.543   0.063  0.2371  0.2283 -0.2822
 2104TIP3    H127947   3.248   4.563   0.144  1.6532 -0.8311 -0.8148
 2104TIP3    H227948   3.156   4.625   0.042  0.8814  0.9215  0.8806
 2105TIP3   OH227949   4.782   6.715   0.075  0.1721  0.3529 -0.7171
 2105TIP3    H127950   4.859   6.682   0.029  0.0103 -0.5524 -0.3644
 2105TIP3    H227951   4.807   6.714   0.167  0.0417  0.9030 -0.6727
 2106TIP3   OH227952   1.579   0.579   2.164  0.3694  0.2179 -0.1235
 2106TIP3    H127953   1.623   0.659   2.194  2.0978 -0.1314 -1.5812
 2106TIP3    H227954   1.598   0.575   2.071  0.1675 -1.8234 -0.1097
 2107TIP3   OH227955   2.506   1.015   2.993 -0.1233  0.0463 -0.6717
 2107TIP3    H127956   2.529   1.012   3.085 -0.5184 -1.3418 -0.6032
 2107TIP3    H227957   2.445   1.089   2.986 -0.3827 -0.0779  0.2376
 2108TIP3   OH227958   5.588   2.504   1.317  0.9198 -0.6529  0.2756
 2108TIP3    H127959   5.589   2.592   1.280 -0.7920 -0.3419  0.8670
 2108TIP3    H227960   5.609   2.447   1.244  0.8475  0.1703 -0.4070
 2109TIP3   OH227961   5.057   3.124   8.571 -0.0129  0.0084  0.6622
 2109TIP3    H127962   4.982   3.155   8.520 -0.8547 -0.0981  1.7991
 2109TIP3    H227963   5.115   3.200   8.576 -0.3217  0.2768  0.2976
 2110TIP3   OH227964   1.352   4.934   2.899 -0.3131  0.3789 -0.3839
 2110TIP3    H127965   1.417   4.950   2.968 -0.2000 -1.4073 -0.0171
 2110TIP3    H227966   1.352   4.839   2.888 -0.1222  0.5942 -3.0537
 2111TIP3   OH227967   0.504   2.868   8.659 -0.3222 -0.8001  0.1920
 2111TIP3    H127968   0.506   2.810   8.735 -0.5198 -0.3739  0.5308
 2111TIP3    H227969   0.473   2.952   8.694  0.8469 -0.2199 -0.1092
 2112TIP3   OH227970   6.208   6.253   2.818  0.6593 -0.3756  0.3601
 2112TIP3    H127971   6.210   6.343   2.851  2.1640 -0.5782  0.8842
 2112TIP3    H227972   6.164   6.203   2.886 -0.2396 -0.0375  0.0390
 2113TIP3   OH227973   4.130   1.392   2.744 -0.1950  0.2229  0.4191
 2113TIP3    H127974   4.107   1.325   2.808  2.3484 -1.9872 -0.7764
 2113TIP3    H227975   4.224   1.402   2.752 -0.2902  2.5692 -0.5544
 2114TIP3   OH227976   4.673   6.798   1.823 -0.0109 -0.3997  0.5520
 2114TIP3    H127977   4.632   6.833   1.902  1.8101  0.6048  1.1005
 2114TIP3    H227978   4.765   6.787   1.846  1.1119  2.1031 -2.0425
 2115TIP3   OH227979   6.517   0.792   0.036 -0.2766 -0.7344  0.2425
 2115TIP3    H127980   6.438   0.789  -0.017  1.7106 -0.1547 -3.0080
 2115TIP3    H227981   6.531   0.885   0.054  0.0802 -0.7576  0.1051
 2116TIP3   OH227982   5.133   2.571   0.203  0.0311 -0.1732  0.5280
 2116TIP3    H127983   5.196   2.555   0.273  0.0363  0.8026  0.7627
 2116TIP3    H227984   5.080   2.644   0.235  0.0508  0.3024 -0.4838
 2117TIP3   OH227985   4.086   4.624   3.211 -0.1461 -0.2570 -0.3748
 2117TIP3    H127986   4.110   4.565   3.282  4.3510  0.4971 -0.9972
 2117TIP3    H227987   4.069   4.708   3.255 -2.7125 -0.9408  0.1299
 2118TIP3   OH227988   5.995   1.895   8.238  0.0258  0.5565  0.0671
 2118TIP3    H127989   6.051   1.965   8.273 -1.2866  1.1196  1.1310
 2118TIP3    H227990   5.907   1.918   8.268 -0.6856 -0.6563 -1.0204
 2119TIP3   OH227991   1.768   3.225   2.107 -0.1258 -0.7808  0.1341
 2119TIP3    H127992   1.832   3.283   2.067  0.7412 -0.6909  1.5862
 2119TIP3    H227993   1.803   3.137   2.094 -0.4505 -0.8441 -0.3406
 2120TIP3   OH227994   3.863   5.916   2.637 -0.2592 -0.5899 -0.5763
 2120TIP3    H127995   3.788   5.900   2.580  0.2723 -0.7509 -1.2440
 2120TIP3    H227996   3.864   6.010   2.652 -0.6297 -0.5968 -0.5080
 2121TIP3   OH227997   6.213   1.863   1.693 -0.0808  0.9048  0.1133
 2121TIP3    H127998   6.163   1.799   1.745  0.9223 -0.2592 -0.2947
 2121TIP3    H227999   6.282   1.892   1.752 -0.2873  1.3195  0.1567
 2122TIP3   OH228000   6.542   4.590   1.470 -0.3356  0.0731  0.0733
 2122TIP3    H128001   6.517   4.590   1.562 -0.4861  1.3069  0.0506
 2122TIP3    H228002   6.636   4.613   1.471  1.1765 -4.9705  0.1984
 2123TIP3   OH228003   1.105   6.758   3.021  0.2943 -0.1524 -0.0439
 2123TIP3    H128004   1.045   6.772   3.094  0.7671  1.0502  0.1447
 2123TIP3    H228005   1.070   6.682   2.975  0.8614 -1.9587  2.2950
 2124TIP3   OH228006   4.312   4.970   1.393  0.1114 -0.5845 -0.3919
 2124TIP3    H128007   4.359   5.046   1.426 -2.0161  0.6530 -0.0173
 2124TIP3    H228008   4.338   4.963   1.302  1.6615 -0.5104  0.0145
 2125TIP3   OH228009   1.562   1.919   0.349 -0.1987  0.3109 -0.1123
 2125TIP3    H128010   1.565   1.837   0.298  1.5256 -0.6598  1.4210
 2125TIP3    H228011   1.650   1.927   0.385 -0.5096  2.5838  0.2498
 2126TIP3   OH228012   0.272   4.647   2.448 -0.3870  0.0116  0.1057
 2126TIP3    H128013   0.193   4.598   2.426  0.2165 -1.4432  1.0792
 2126TIP3    H228014   0.301   4.611   2.531  1.5830  0.1551 -0.4666
 2127TIP3   OH228015   2.093   3.730   1.221 -0.2766 -0.1177 -0.4103
 2127TIP3    H128016   2.070   3.734   1.128 -0.0594 -0.4650 -0.4796
 2127TIP3    H228017   2.053   3.649   1.252  0.7512 -0.6753 -0.5074
 2128TIP3   OH228018   5.990   2.381   2.441  0.4407 -0.1471  0.2686
 2128TIP3    H128019   5.989   2.368   2.346 -0.2339 -2.2331  0.5208
 2128TIP3    H228020   6.049   2.456   2.454  0.5835  0.1628 -1.7685
 2129TIP3   OH228021   6.523   0.171   0.729 -0.3203  0.4198 -0.0405
 2129TIP3    H128022   6.590   0.126   0.676 -2.2052 -2.7230 -0.0298
 2129TIP3    H228023   6.453   0.106   0.738 -2.6988  2.9848  1.2937
 2130TIP3   OH228024   4.732   0.737   8.597 -0.5091  0.3181 -0.9791
 2130TIP3    H128025   4.678   0.777   8.529 -1.3262 -0.5212 -0.8492
 2130TIP3    H228026   4.680   0.663   8.628  0.8764 -0.7329 -1.0925
 2131TIP3   OH228027   3.502   2.707   2.048  0.3858 -0.1559  0.4469
 2131TIP3    H128028   3.468   2.623   2.079  1.6358 -1.2869 -1.0912
 2131TIP3    H228029   3.430   2.768   2.059 -0.9723 -1.7016  0.4540
 2132TIP3   OH228030   5.334   5.561   7.354 -0.3433  0.0506 -0.1450
 2132TIP3    H128031   5.427   5.541   7.354 -0.7321 -2.0671 -1.4356
 2132TIP3    H228032   5.323   5.624   7.283 -0.1865 -1.4835 -1.5703
 2133TIP3   OH228033   5.349   2.917   1.063 -0.4039 -0.3266 -0.3096
 2133TIP3    H128034   5.312   2.831   1.085 -0.5363  0.0250  0.9226
 2133TIP3    H228035   5.375   2.909   0.971 -0.4868 -1.6573 -0.2408
 2134TIP3   OH228036   0.965   5.252   8.617 -0.2639 -0.1388 -0.1057
 2134TIP3    H128037   1.028   5.304   8.568 -0.1362 -0.8908 -0.7573
 2134TIP3    H228038   0.933   5.187   8.554 -0.3351 -0.9217  0.7178
 2135TIP3   OH228039   4.041   1.443   1.533 -0.3180  0.7494 -0.2621
 2135TIP3    H128040   4.127   1.401   1.539 -0.8845 -1.0588 -2.9322
 2135TIP3    H228041   4.044   1.491   1.451 -2.2854 -0.5825 -1.1789
 2136TIP3   OH228042   0.048   1.149   8.655  0.3753 -0.2994 -0.0679
 2136TIP3    H128043  -0.004   1.086   8.706  0.6931 -1.2683 -0.9118
 2136TIP3    H228044   0.010   1.147   8.568  0.8481  0.1581 -0.2872
 2137TIP3   OH228045   2.720   4.518   2.354 -0.6645  0.2354 -0.0593
 2137TIP3    H128046   2.672   4.592   2.318  0.5843  0.8977 -0.4004
 2137TIP3    H228047   2.690   4.512   2.445 -0.1961  1.6846  0.2202
 2138TIP3   OH228048   4.496   4.279   2.384 -0.1878  0.4270  0.1619
 2138TIP3    H128049   4.545   4.197   2.396 -0.9318 -0.1343 -0.5062
 2138TIP3    H228050   4.433   4.280   2.455  0.1597  0.6852  0.4718
 2139TIP3   OH228051   2.603   5.645   8.242  0.2996  0.0159  0.1881
 2139TIP3    H128052   2.649   5.613   8.164  2.0494  1.6922  0.4496
 2139TIP3    H228053   2.555   5.722   8.211 -1.9813 -1.3458  0.0629
 2140TIP3   OH228054   4.641   0.793   1.680 -0.2720  0.4536 -0.2832
 2140TIP3    H128055   4.725   0.839   1.680  0.5068 -0.8929 -0.2064
 2140TIP3    H228056   4.646   0.734   1.756 -0.1960 -1.4611 -1.6963
 2141TIP3   OH228057   4.771   6.624   2.704 -0.7112  0.2042 -0.2961
 2141TIP3    H128058   4.812   6.584   2.781 -2.6675 -0.0524  0.6707
 2141TIP3    H228059   4.746   6.712   2.733 -0.5703  0.4595 -0.9485
 2142TIP3   OH228060   3.621   4.089   8.771 -0.4828 -0.2311 -0.6591
 2142TIP3    H128061   3.535   4.083   8.811  0.1945 -0.8604  0.8057
 2142TIP3    H228062   3.644   4.182   8.777 -1.8282  0.3113 -2.8848
 2143TIP3   OH228063   1.512   0.681   1.395  0.9781 -0.4837  0.4546
 2143TIP3    H128064   1.602   0.711   1.391  1.1666 -1.0723  0.1694
 2143TIP3    H228065   1.516   0.590   1.367  0.2275 -0.3640 -0.0718
 2144TIP3   OH228066   6.498   4.783   0.859  0.7752 -0.6678 -0.0957
 2144TIP3    H128067   6.456   4.761   0.942 -0.6823 -1.5641 -1.0281
 2144TIP3    H228068   6.453   4.729   0.794 -0.1325  2.0693 -1.9208
 2145TIP3   OH228069   0.173   1.726   0.790  0.1113 -0.1202  0.1020
 2145TIP3    H128070   0.134   1.793   0.733 -0.4416 -1.3897 -1.0765
 2145TIP3    H228071   0.110   1.713   0.860 -1.4769 -1.8004 -1.5220
 2146TIP3   OH228072   3.116   5.269   2.185  0.4993  0.3402 -0.2890
 2146TIP3    H128073   3.189   5.230   2.137  0.3670  1.3229 -1.3312
 2146TIP3    H228074   3.142   5.360   2.198  0.3641  0.1974  1.2215
 2147TIP3   OH228075   3.307   4.571   2.484  0.0237 -0.1443  0.6542
 2147TIP3    H128076   3.382   4.512   2.495 -0.0269 -0.7010 -1.5583
 2147TIP3    H228077   3.346   4.657   2.468  0.3550 -0.7825 -2.5353
 2148TIP3   OH228078   4.988   2.078   0.870 -0.2841  0.4841  0.2805
 2148TIP3    H128079   5.055   2.019   0.906  1.7885  3.4327  1.6649
 2148TIP3    H228080   4.907   2.026   0.872  1.5355 -2.6364  0.3152
 2149TIP3   OH228081   3.462   0.261   0.715 -0.5876  0.1000  0.4114
 2149TIP3    H128082   3.534   0.234   0.659 -0.6632  1.6516 -0.4723
 2149TIP3    H228083   3.503   0.311   0.786 -0.6775 -0.1786  0.6633
 2150TIP3   OH228084   3.958   4.484   1.428 -0.9381  0.6981  0.1300
 2150TIP3    H128085   3.891   4.548   1.403  0.3643  2.6752  1.3628
 2150TIP3    H228086   4.021   4.535   1.480  1.1957 -1.1930 -0.4532
 2151TIP3   OH228087   2.543   0.797   7.818  0.0174  0.5413 -0.4913
 2151TIP3    H128088   2.503   0.794   7.905  0.2613  0.4315 -0.3816
 2151TIP3    H228089   2.531   0.887   7.789 -1.0400  0.3051 -0.8048
 2152TIP3   OH228090   1.408   3.421   0.675 -0.0690 -0.2079  0.3017
 2152TIP3    H128091   1.439   3.467   0.597  0.0566  1.7747  1.4591
 2152TIP3    H228092   1.313   3.426   0.671 -0.0630  1.9222  1.3368
 2153TIP3   OH228093   6.009   4.288   8.532  0.6052  0.1722 -0.1802
 2153TIP3    H128094   5.953   4.259   8.604  3.0279  0.5675  2.0211
 2153TIP3    H228095   6.037   4.208   8.488 -0.7720 -0.0851 -0.6231
 2154TIP3   OH228096   5.682   1.068   8.475 -0.1875  0.2066  0.3932
 2154TIP3    H128097   5.735   1.143   8.449 -0.0799  0.0625  0.1883
 2154TIP3    H228098   5.668   1.080   8.569  0.0041  0.3731  0.4025
 2155TIP3   OH228099   1.426   6.316   1.787 -0.5605 -0.1413  0.5096
 2155TIP3    H128100   1.428   6.229   1.827  1.3098  0.2613  1.3846
 2155TIP3    H228101   1.333   6.331   1.768 -0.8708 -2.4987 -0.1197
 2156TIP3   OH228102   2.664   0.774   2.455  0.5621 -0.0165  0.8326
 2156TIP3    H128103   2.578   0.747   2.421  0.1069  1.2031  0.9602
 2156TIP3    H228104   2.714   0.800   2.378  0.9501 -1.0339  0.7245
 2157TIP3   OH228105   6.793   0.829   2.390 -0.4711  0.4454 -0.5842
 2157TIP3    H128106   6.823   0.919   2.374 -0.9619  0.7454  0.0778
 2157TIP3    H228107   6.792   0.822   2.486  0.2471 -0.5165 -0.6387
 2158TIP3   OH228108   1.556   5.183   2.990  0.6215 -0.4453 -0.0571
 2158TIP3    H128109   1.577   5.096   3.024  0.2592 -0.2027  0.8425
 2158TIP3    H228110   1.475   5.206   3.036 -0.4696 -0.5167 -1.8751
 2159TIP3   OH228111   1.378   5.957   3.132 -0.0313 -0.3390  0.4121
 2159TIP3    H128112   1.425   6.016   3.190 -1.4472  0.3834  0.8899
 2159TIP3    H228113   1.405   5.869   3.159  0.0908  0.0198  1.4961
 2160TIP3   OH228114   5.559   1.413   8.100 -0.2755 -0.0655  0.2260
 2160TIP3    H128115   5.504   1.489   8.084  0.0974  0.1530 -0.0233
 2160TIP3    H228116   5.528   1.348   8.036 -1.3729 -0.5383  1.2054
 2161TIP3   OH228117   5.608   0.735   1.625  0.2340  1.1978  0.1950
 2161TIP3    H128118   5.605   0.829   1.644  1.0523  1.8142 -2.3341
 2161TIP3    H228119   5.530   0.720   1.571 -1.0691 -0.0909  2.2937
 2162TIP3   OH228120   2.679   5.573   0.416 -0.4053 -0.3956  0.1005
 2162TIP3    H128121   2.659   5.481   0.399  0.1893 -0.7335  1.1450
 2162TIP3    H228122   2.745   5.596   0.351 -2.1577 -0.0185 -1.6634
 2163TIP3   OH228123   4.560   3.475   6.948  0.1158 -0.0282 -0.3904
 2163TIP3    H128124   4.612   3.407   6.906 -1.0212 -0.8345 -0.5238
 2163TIP3    H228125   4.475   3.472   6.904 -0.2024  0.9787  0.1078
 2164TIP3   OH228126   2.374   5.675   0.337  0.3091  0.2341 -0.3205
 2164TIP3    H128127   2.395   5.606   0.274  0.1350 -0.8912  0.8096
 2164TIP3    H228128   2.408   5.756   0.297  2.2729 -0.7701 -0.8169
 2165TIP3   OH228129   5.451   5.187   1.611 -0.2320 -0.2663 -0.1225
 2165TIP3    H128130   5.528   5.242   1.624 -0.2817  0.4093 -2.3607
 2165TIP3    H228131   5.377   5.246   1.625 -0.3021 -0.2409 -0.5830
 2166TIP3   OH228132   0.232   6.483   2.332 -0.2126 -0.0251 -1.1340
 2166TIP3    H128133   0.203   6.430   2.257  1.1059  1.3830 -2.7377
 2166TIP3    H228134   0.327   6.481   2.327 -0.1181  1.5806 -0.5973
 2167TIP3   OH228135   4.377   1.917   2.618 -0.5488 -0.1410  0.4307
 2167TIP3    H128136   4.364   1.844   2.678  0.2828  0.6569  1.6239
 2167TIP3    H228137   4.323   1.987   2.654  0.1968  0.4388  0.4407
 2168TIP3   OH228138   5.534   0.085   7.947  0.9733  0.2389 -0.1979
 2168TIP3    H128139   5.453   0.040   7.971  0.9569 -0.1551 -0.9702
 2168TIP3    H228140   5.519   0.117   7.858  1.1176  1.4672  0.2067
 2169TIP3   OH228141   4.180   1.488   1.264  0.3765 -0.0572  0.4826
 2169TIP3    H128142   4.257   1.441   1.295  1.1654  0.8934  0.0011
 2169TIP3    H228143   4.140   1.430   1.200  1.2278 -0.1774  0.0440
 2170TIP3   OH228144   0.761   4.713   2.607  0.8522 -0.0929 -0.6769
 2170TIP3    H128145   0.833   4.750   2.556  0.4664 -0.2277 -1.3267
 2170TIP3    H228146   0.697   4.683   2.542 -0.1280  0.6750 -0.1069
 2171TIP3   OH228147   2.721   1.656   1.458 -0.3207  0.1030  0.2652
 2171TIP3    H128148   2.636   1.696   1.477 -0.5460  0.4262 -1.2466
 2171TIP3    H228149   2.699   1.577   1.408  0.2602  0.0621  0.0673
 2172TIP3   OH228150   6.175   2.568   0.099 -0.1071  0.0601  0.0094
 2172TIP3    H128151   6.150   2.653   0.137 -0.0533  0.6274 -1.1893
 2172TIP3    H228152   6.121   2.560   0.021  0.8026 -0.4105 -0.5919
 2173TIP3   OH228153   3.506   0.689   1.497 -0.2218 -0.2894  0.6418
 2173TIP3    H128154   3.456   0.725   1.570  1.1834 -0.2196  1.6074
 2173TIP3    H228155   3.486   0.596   1.497 -3.0865  0.1993 -1.2351
 2174TIP3   OH228156   0.717   6.778   8.004  0.0484  0.8142 -0.3741
 2174TIP3    H128157   0.690   6.783   8.095  1.8945  1.4189  0.1712
 2174TIP3    H228158   0.788   6.714   8.003 -0.5800  0.0887 -1.5714
 2175TIP3   OH228159   3.499   3.411   0.615  0.0423 -0.1786  0.2143
 2175TIP3    H128160   3.427   3.399   0.553  0.7294 -1.2915 -0.4120
 2175TIP3    H228161   3.574   3.432   0.560  0.4172 -0.0418  0.7733
 2176TIP3   OH228162   2.477   0.876   0.028 -0.3494  0.0382  0.1646
 2176TIP3    H128163   2.498   0.854   0.118  0.4830  0.2984  0.0501
 2176TIP3    H228164   2.481   0.972   0.025 -1.2577  0.0827  0.0501
 2177TIP3   OH228165   3.431   3.477   8.339  0.6851  0.3829 -0.1974
 2177TIP3    H128166   3.402   3.475   8.247 -0.2129 -0.0221  0.0853
 2177TIP3    H228167   3.372   3.416   8.384  0.7156  1.0397  0.7612
 2178TIP3   OH228168   4.854   3.298   2.846  0.2527 -0.1523 -0.4343
 2178TIP3    H128169   4.881   3.229   2.906  1.0017  0.0322 -0.5410
 2178TIP3    H228170   4.934   3.349   2.831 -0.1427  0.3620 -0.8458
 2179TIP3   OH228171   6.039   5.135   2.949 -0.3178 -0.3551  0.2510
 2179TIP3    H128172   6.038   5.073   2.876  1.6884 -1.1069  0.7845
 2179TIP3    H228173   6.079   5.086   3.021 -2.0189  0.4415  1.8077
 2180TIP3   OH228174   6.123   3.712   1.508 -0.1467 -0.0456 -0.8082
 2180TIP3    H128175   6.177   3.700   1.430 -1.9057  1.1702 -2.2814
 2180TIP3    H228176   6.036   3.733   1.475 -1.3388 -1.0064  1.4955
 2181TIP3   OH228177   3.947   4.925   8.237 -0.2345  0.2300  0.7360
 2181TIP3    H128178   3.954   5.011   8.197 -2.5663  1.3835  2.5304
 2181TIP3    H228179   4.013   4.926   8.307 -1.7000  1.5105  2.1789
 2182TIP3   OH228180   3.403   5.973   7.392  0.0127  0.3982 -0.2750
 2182TIP3    H128181   3.426   6.041   7.328  0.6873  1.0651  0.6529
 2182TIP3    H228182   3.445   5.893   7.359  2.0454  1.1573  0.3365
 2183TIP3   OH228183   3.487   4.853   7.582 -0.3306 -0.8686 -0.0362
 2183TIP3    H128184   3.565   4.801   7.563 -0.8859 -2.6173  2.0537
 2183TIP3    H228185   3.480   4.913   7.508  1.3572 -2.5732 -1.7096
 2184TIP3   OH228186   2.148   6.146   0.536  0.6524  0.2493  0.5209
 2184TIP3    H128187   2.192   6.080   0.482  0.4882 -0.7309  1.5349
 2184TIP3    H228188   2.170   6.122   0.626  2.1602  2.7246  0.9030
 2185TIP3   OH228189   2.383   0.808   8.576 -0.3706 -1.1934  0.7216
 2185TIP3    H128190   2.364   0.799   8.670 -2.4311 -0.3774  0.4359
 2185TIP3    H228191   2.478   0.812   8.572 -0.2264 -0.9072  2.8212
 2186TIP3   OH228192   3.320   1.102   0.147  0.8450  0.4996  0.5146
 2186TIP3    H128193   3.344   1.158   0.073  2.8233  1.4031  1.7674
 2186TIP3    H228194   3.256   1.154   0.196  0.4600  0.4041  0.1266
 2187TIP3   OH228195   0.517   1.458   8.257 -0.2648  0.2521 -0.0226
 2187TIP3    H128196   0.443   1.493   8.305  0.9507 -0.2905  2.3848
 2187TIP3    H228197   0.566   1.536   8.229 -1.4110  0.5937 -1.1820
 2188TIP3   OH228198   5.920   4.704   7.488  0.5325 -0.0407 -0.2988
 2188TIP3    H128199   5.989   4.671   7.546  0.8203  0.2599 -0.4738
 2188TIP3    H228200   5.933   4.657   7.406  0.7171  0.2411 -0.4304
 2189TIP3   OH228201   2.939   4.658   0.763  0.1885  0.1513  0.0730
 2189TIP3    H128202   2.994   4.720   0.810  0.1284  0.7320 -0.5971
 2189TIP3    H228203   2.924   4.699   0.678  0.2436 -0.8458 -0.4311
 2190TIP3   OH228204   4.530   4.079   0.292 -0.0835 -0.3424 -0.4561
 2190TIP3    H128205   4.555   4.162   0.251 -2.2230  0.2688 -0.6509
 2190TIP3    H228206   4.609   4.050   0.339  0.9147  1.4307 -0.9549
 2191TIP3   OH228207   0.325   1.290   3.100  0.4311 -0.7131 -0.1256
 2191TIP3    H128208   0.312   1.349   3.174  1.6496 -0.2567 -0.2522
 2191TIP3    H228209   0.245   1.299   3.048  1.4862  2.7232 -1.4480
 2192TIP3   OH228210   3.888   1.777   0.657  0.0551 -0.2346 -0.2941
 2192TIP3    H128211   3.873   1.726   0.736  1.2532 -0.7405 -0.3630
 2192TIP3    H228212   3.819   1.843   0.657 -0.7930 -1.0984  0.4318
 2193TIP3   OH228213   6.076   5.911   2.739  0.6067 -0.1562 -0.3271
 2193TIP3    H128214   6.047   5.959   2.817  0.1773  0.3309 -0.7770
 2193TIP3    H228215   6.158   5.869   2.766 -0.2073 -1.0893  0.7929
 2194TIP3   OH228216   3.454   3.404   7.809 -0.6141 -0.0355 -0.2429
 2194TIP3    H128217   3.382   3.454   7.771 -1.0189 -0.0159  0.5290
 2194TIP3    H228218   3.531   3.459   7.796 -0.9037  0.3853 -0.1850
 2195TIP3   OH228219   1.955   1.228   1.195  0.3466  0.0070 -0.1170
 2195TIP3    H128220   1.902   1.218   1.275 -0.0565 -0.4421 -0.4391
 2195TIP3    H228221   2.025   1.288   1.221  0.2116 -0.1219  0.5740
 2196TIP3   OH228222   5.558   5.641   0.428  0.4955 -0.8090  0.2547
 2196TIP3    H128223   5.551   5.684   0.343 -3.0890  0.6786  1.1449
 2196TIP3    H228224   5.473   5.599   0.441  0.8562 -0.8447  3.1698
 2197TIP3   OH228225   6.066   0.980   8.553  0.5079  0.0814  0.3245
 2197TIP3    H128226   6.040   1.072   8.553 -1.2990 -0.3947  1.2852
 2197TIP3    H228227   6.011   0.939   8.487  0.6064 -0.4916  0.5891
 2198TIP3   OH228228   1.395   2.345   8.255 -0.0988 -0.6720 -0.6059
 2198TIP3    H128229   1.318   2.295   8.231 -1.1418  0.2508  0.6700
 2198TIP3    H228230   1.374   2.382   8.341  1.0240  1.0707 -1.0272
 2199TIP3   OH228231   5.437   4.080   8.616 -0.1682 -0.0641 -0.0047
 2199TIP3    H128232   5.425   4.151   8.679  1.2815 -1.3561  1.8154
 2199TIP3    H228233   5.444   4.001   8.669  0.4008 -1.3198 -1.8495
 2200TIP3   OH228234   5.491   3.255   0.665 -0.8055  0.1896 -0.0554
 2200TIP3    H128235   5.468   3.337   0.708 -0.7027  1.5371 -2.3885
 2200TIP3    H228236   5.573   3.275   0.619 -0.2589 -1.5400  0.1097
 2201TIP3   OH228237   3.970   1.516   7.816 -0.0294 -0.0526 -0.4101
 2201TIP3    H128238   4.037   1.456   7.785  1.1270 -0.9406  3.2788
 2201TIP3    H228239   3.909   1.461   7.866 -1.1547  1.3163 -0.1981
 2202TIP3   OH228240   1.189   6.404   1.691 -0.0257  0.5547 -0.6833
 2202TIP3    H128241   1.100   6.386   1.659  0.2912  0.9031 -1.8105
 2202TIP3    H228242   1.192   6.499   1.701  0.0705  0.4977 -0.1854
 2203TIP3   OH228243   1.873   4.806   0.199  0.0709 -0.7722 -0.4308
 2203TIP3    H128244   1.903   4.738   0.140  0.3940 -2.2113  1.3111
 2203TIP3    H228245   1.933   4.802   0.273 -0.9436  0.2378  0.4929
 2204TIP3   OH228246   6.002   2.403   0.673  0.0231 -0.0344  0.3513
 2204TIP3    H128247   5.928   2.456   0.700 -0.1873  1.0846 -2.1213
 2204TIP3    H228248   6.051   2.459   0.613  2.0577 -1.2688  0.7542
 2205TIP3   OH228249   2.617   0.218   8.123 -0.2927 -0.6127 -0.1987
 2205TIP3    H128250   2.661   0.138   8.098  2.2695  1.3333 -2.5333
 2205TIP3    H228251   2.548   0.230   8.058 -0.1321 -0.5228 -0.3536
 2206TIP3   OH228252   2.108   3.745   2.245  0.1941 -0.4259 -0.2278
 2206TIP3    H128253   2.139   3.677   2.305  0.4257 -0.2643 -0.1669
 2206TIP3    H228254   2.187   3.777   2.202 -0.1187 -2.0084 -2.1822
 2207TIP3   OH228255   1.240   5.057   0.871  0.4414  0.5445 -0.4962
 2207TIP3    H128256   1.269   5.142   0.838 -0.0447 -0.1446 -2.9009
 2207TIP3    H228257   1.199   5.015   0.795  0.3270 -1.6850  0.7260
 2208TIP3   OH228258   1.632   3.957   3.028 -0.0826  0.0544  0.8571
 2208TIP3    H128259   1.585   3.938   3.109 -1.9966  2.0711  0.3044
 2208TIP3    H228260   1.712   4.000   3.057 -0.9874  1.2304  1.7063
 2209TIP3   OH228261   3.970   3.520   6.896 -0.7542  0.3867  0.0660
 2209TIP3    H128262   3.961   3.590   6.961  1.3341  1.0588 -0.2780
 2209TIP3    H228263   3.887   3.521   6.849 -1.5808  1.1901  1.4627
 2210TIP3   OH228264   3.962   2.720   3.414 -0.3468  0.1661  0.3947
 2210TIP3    H128265   4.047   2.749   3.447 -0.3584  0.3935  0.2268
 2210TIP3    H228266   3.906   2.798   3.419 -0.1614  0.4022 -0.7999
 2211TIP3   OH228267   0.242   5.596   1.232  0.2157  0.3552  0.3354
 2211TIP3    H128268   0.290   5.606   1.314  0.2517  0.0673  0.3493
 2211TIP3    H228269   0.298   5.541   1.178  0.2821  0.7078  0.0445
 2212TIP3   OH228270   5.545   2.621   0.693  0.6204  0.3898 -0.3500
 2212TIP3    H128271   5.526   2.540   0.740  0.2905  1.0733  0.7409
 2212TIP3    H228272   5.492   2.617   0.614 -0.4591  0.1492  0.3727
 2213TIP3   OH228273   5.575   2.775   1.212 -0.0808 -0.2477  0.1644
 2213TIP3    H128274   5.544   2.865   1.205  0.2438 -0.0943  0.6463
 2213TIP3    H228275   5.604   2.752   1.124  0.9061  0.5136  0.2789
 2214TIP3   OH228276   6.211   4.916   0.597  0.2079  0.3685 -0.3685
 2214TIP3    H128277   6.170   4.830   0.594  1.6695 -0.3319 -0.9839
 2214TIP3    H228278   6.179   4.960   0.518 -1.0573  0.6533  0.2843
 2215TIP3   OH228279   5.774   2.330   8.668  0.1790 -0.3143  0.3585
 2215TIP3    H128280   5.715   2.327   8.592  0.6954 -1.2104 -0.0241
 2215TIP3    H228281   5.841   2.266   8.648  1.7552  1.2538  0.4191
 2216TIP3   OH228282   6.165   2.559   0.526 -0.0597  0.4749  0.0313
 2216TIP3    H128283   6.134   2.621   0.461 -2.1458  0.9396  1.3634
 2216TIP3    H228284   6.242   2.518   0.486 -0.5355  1.5933 -2.1732
 2217TIP3   OH228285   5.160   2.049   8.225 -0.4448 -0.0069  0.3746
 2217TIP3    H128286   5.146   2.006   8.140  1.8896  1.6315 -0.9580
 2217TIP3    H228287   5.072   2.069   8.256 -1.4118  0.5486 -2.3808
 2218TIP3   OH228288   6.116   4.114   1.525  0.4139 -0.3600 -0.2019
 2218TIP3    H128289   6.044   4.127   1.463 -0.6334 -0.9722  0.8374
 2218TIP3    H228290   6.180   4.182   1.503 -0.7959  0.6457 -0.7136
 2219TIP3   OH228291   3.133   0.774   1.175 -0.9568 -0.5008 -0.2126
 2219TIP3    H128292   3.070   0.717   1.220 -1.1787 -0.5384 -0.5671
 2219TIP3    H228293   3.113   0.763   1.082 -1.3740  0.5858 -0.2673
 2220TIP3   OH228294   1.491   5.510   0.708  0.4089  0.5154  0.2478
 2220TIP3    H128295   1.580   5.542   0.721  1.1352 -1.4024  0.2634
 2220TIP3    H228296   1.464   5.479   0.795  0.6876 -1.1792 -0.2488
 2221TIP3   OH228297   3.416   4.038   0.632  0.0929 -0.4995  0.1155
 2221TIP3    H128298   3.431   4.124   0.593 -0.2451 -0.1680  0.6908
 2221TIP3    H228299   3.485   4.029   0.697 -0.4337 -0.2433  0.7200
 2222TIP3   OH228300   0.479   2.994   1.977 -0.6542 -0.2914  0.1439
 2222TIP3    H128301   0.477   3.043   1.894  1.7944  0.8878  0.6805
 2222TIP3    H228302   0.519   3.055   2.040 -1.8547 -1.3794  2.0533
 2223TIP3   OH228303   0.424   2.573   3.025  0.2185 -0.6599 -0.1337
 2223TIP3    H128304   0.367   2.631   3.076 -0.9846 -1.3196 -0.6715
 2223TIP3    H228305   0.503   2.564   3.077 -1.2441 -1.9432  2.0489
 2224TIP3   OH228306   5.924   0.708   2.616  0.3803  0.5412 -0.0851
 2224TIP3    H128307   5.866   0.633   2.600 -1.5410  2.1263 -0.8782
 2224TIP3    H228308   5.961   0.691   2.702 -4.4170  1.2801  2.4697
 2225TIP3   OH228309   0.373   6.333   2.884  0.0011  0.1047  0.0469
 2225TIP3    H128310   0.438   6.322   2.953 -0.1548 -0.9761  0.0401
 2225TIP3    H228311   0.289   6.319   2.927 -0.0355 -1.7239 -0.5611
 2226TIP3   OH228312   3.361   2.520   0.068  0.5107  0.0343 -0.3454
 2226TIP3    H128313   3.362   2.615   0.055  0.9124  0.0446 -0.2427
 2226TIP3    H228314   3.371   2.483  -0.020  1.7993  0.0981 -0.2438
 2227TIP3   OH228315   1.611   6.293   2.102 -0.5277 -0.9770 -0.1791
 2227TIP3    H128316   1.595   6.279   2.195  0.7462 -1.3089  0.0033
 2227TIP3    H228317   1.587   6.385   2.087 -0.0685 -0.7244  0.6247
 2228TIP3   OH228318   6.389   2.566   8.508 -0.5220  0.4651 -0.3166
 2228TIP3    H128319   6.295   2.560   8.496 -0.6188  1.3472 -0.0804
 2228TIP3    H228320   6.403   2.652   8.548  0.4300  0.5722 -0.8409
 2229TIP3   OH228321   5.866   6.417   2.859  0.6653  0.0064  0.0721
 2229TIP3    H128322   5.927   6.471   2.909 -0.9159  1.5556  0.4063
 2229TIP3    H228323   5.800   6.389   2.922 -0.3704  0.4933 -0.7664
 2230TIP3   OH228324   0.580   5.677   1.895 -0.6304  0.0527 -0.1049
 2230TIP3    H128325   0.551   5.768   1.889  2.2963  1.0063 -2.1514
 2230TIP3    H228326   0.590   5.650   1.804 -2.0393 -2.6298  0.4409
 2231TIP3   OH228327   1.890   0.002   0.799 -0.4535  0.4123 -0.1672
 2231TIP3    H128328   1.880  -0.083   0.756 -0.9500  0.3113  0.1393
 2231TIP3    H228329   1.964   0.043   0.754 -1.7570  0.8571 -1.9924
 2232TIP3   OH228330   3.873   0.489   2.794 -0.3169  0.1913  0.0464
 2232TIP3    H128331   3.810   0.453   2.731 -0.3464 -0.5107  0.4647
 2232TIP3    H228332   3.839   0.461   2.879  0.0558  0.6146  0.3378
 2233TIP3   OH228333   0.610   4.648   0.898 -0.1567  0.0569  0.2653
 2233TIP3    H128334   0.631   4.555   0.897 -1.2427 -0.3495  3.6090
 2233TIP3    H228335   0.535   4.656   0.839 -2.2670 -1.9499  2.4412
 2234TIP3   OH228336   0.177   2.536   8.067 -0.8294  0.2389  0.0364
 2234TIP3    H128337   0.166   2.577   7.981 -1.5744  0.7162  0.3496
 2234TIP3    H228338   0.088   2.519   8.097 -0.7773  2.9123  2.0592
 2235TIP3   OH228339   1.225   6.674   2.392  0.0084  0.1121 -0.2290
 2235TIP3    H128340   1.301   6.650   2.338 -0.3588 -0.6435 -0.4279
 2235TIP3    H228341   1.253   6.751   2.440  1.5858 -1.2276  1.1236
 2236TIP3   OH228342   4.850   3.999   1.647 -0.4900  0.1823  0.1904
 2236TIP3    H128343   4.766   4.029   1.682 -0.6134  0.7324 -0.5527
 2236TIP3    H228344   4.831   3.978   1.556  0.3264  0.9772 -0.1774
 2237TIP3   OH228345   6.314   2.663   2.749 -0.5370 -0.2154  0.0560
 2237TIP3    H128346   6.347   2.589   2.801 -1.2080 -0.5638 -0.0080
 2237TIP3    H228347   6.239   2.696   2.797 -0.4573  0.2061 -0.0997
 2238TIP3   OH228348   4.033   0.156   2.588  0.4306  0.2920 -0.2172
 2238TIP3    H128349   4.068   0.086   2.644  0.1236  0.1434 -0.2091
 2238TIP3    H228350   3.988   0.109   2.518  0.7633  0.4771 -0.5587
 2239TIP3   OH228351   4.317   2.487   2.499 -0.0530  0.8390  0.2469
 2239TIP3    H128352   4.302   2.451   2.586 -2.5720 -0.4681 -0.6082
 2239TIP3    H228353   4.360   2.417   2.451 -1.6419  0.2561 -0.4041
 2240TIP3   OH228354   4.962   0.410   0.167 -0.2379  0.0659 -0.1459
 2240TIP3    H128355   4.887   0.359   0.136 -0.4462  0.2919 -0.0046
 2240TIP3    H228356   4.956   0.407   0.262  0.0756 -0.1298 -0.1301
 2241TIP3   OH228357   1.246   0.656   7.849  0.2675  0.1098 -0.5276
 2241TIP3    H128358   1.329   0.703   7.861  1.0159 -0.7796 -1.9025
 2241TIP3    H228359   1.201   0.706   7.781  0.0676  0.0973 -0.4037
 2242TIP3   OH228360   2.082   2.353   2.147 -0.3268  0.2946  0.1773
 2242TIP3    H128361   2.027   2.286   2.188  1.1220 -2.0436 -1.4711
 2242TIP3    H228362   2.160   2.358   2.202 -0.4183  0.6435  0.2804
 2243TIP3   OH228363   6.264   1.099   1.051 -0.3974  0.0505  0.1128
 2243TIP3    H128364   6.350   1.062   1.070 -0.0283 -0.1044 -1.6744
 2243TIP3    H228365   6.270   1.191   1.078  0.6414  0.2683 -0.8076
 2244TIP3   OH228366   3.757   0.413   8.628 -0.2554  0.3903  0.5203
 2244TIP3    H128367   3.730   0.351   8.560 -0.3960  1.5009 -0.4652
 2244TIP3    H228368   3.833   0.372   8.668 -0.2812 -0.3792 -0.1782
 2245TIP3   OH228369   3.833   4.695   2.098  0.5812 -0.1364 -0.6183
 2245TIP3    H128370   3.878   4.746   2.166 -1.8456 -0.1948  1.1409
 2245TIP3    H228371   3.902   4.674   2.035  2.5352  1.6387  0.7851
 2246TIP3   OH228372   5.454   6.756   0.461 -0.1905 -0.0187  0.2754
 2246TIP3    H128373   5.459   6.794   0.373 -0.5213 -3.3021 -1.2976
 2246TIP3    H228374   5.477   6.664   0.449 -0.4080 -0.6400  3.6446
 2247TIP3   OH228375   5.791   6.756   0.907  0.0021 -0.0247  0.1127
 2247TIP3    H128376   5.826   6.845   0.919 -1.5819  0.5116  1.0717
 2247TIP3    H228377   5.757   6.756   0.817  0.4936  0.1554 -0.0780
 2248TIP3   OH228378   5.673   1.093   8.755  0.2999  0.0197  0.5570
 2248TIP3    H128379   5.659   1.178   8.796 -1.3411  0.4217 -0.7074
 2248TIP3    H228380   5.604   1.037   8.790 -1.5497  0.5530 -1.9579
 2249TIP3   OH228381   5.463   3.546   2.334  0.5824 -0.3122 -0.1310
 2249TIP3    H128382   5.368   3.533   2.334  0.6340 -0.8053 -0.9623
 2249TIP3    H228383   5.475   3.640   2.346  0.0457 -0.4270  1.5473
 2250TIP3   OH228384   1.400   2.076   7.941 -0.2261  0.5677 -0.0287
 2250TIP3    H128385   1.463   2.101   7.873 -0.6509  1.4342 -0.1140
 2250TIP3    H228386   1.444   2.099   8.023 -0.0526  0.2949 -0.0428
 2251TIP3   OH228387   3.288   6.034   0.161 -0.3933  0.3211 -0.1156
 2251TIP3    H128388   3.197   6.025   0.192 -0.2361 -2.9454 -0.2554
 2251TIP3    H228389   3.290   5.986   0.078  1.4954  0.2056 -0.0364
 2252TIP3   OH228390   5.119   4.945   2.913  0.4321 -0.1765 -0.3981
 2252TIP3    H128391   5.139   4.899   2.831  0.3881  2.5629 -2.0836
 2252TIP3    H228392   5.156   5.032   2.900 -2.1704  1.2930  1.3046
 2253TIP3   OH228393   5.512   2.626   0.403 -0.4767 -0.2906  0.2339
 2253TIP3    H128394   5.446   2.693   0.385 -0.5318  0.1052  1.7330
 2253TIP3    H228395   5.484   2.550   0.353 -0.9382  0.5125 -0.7535
 2254TIP3   OH228396   1.358   2.127   2.062  0.1107 -0.3308 -0.3698
 2254TIP3    H128397   1.349   2.083   2.147  0.0640  1.0427  0.3535
 2254TIP3    H228398   1.316   2.212   2.074 -2.1116 -0.9901 -2.5027
 2255TIP3   OH228399   4.777   4.041   2.714  0.2762 -0.0704 -0.4302
 2255TIP3    H128400   4.682   4.035   2.731  0.3663  1.3580  0.8063
 2255TIP3    H228401   4.790   4.131   2.684  1.6210  0.8999  2.6437
 2256TIP3   OH228402   1.706   3.227   7.964  0.4737  0.1546 -0.1354
 2256TIP3    H128403   1.709   3.235   7.869 -0.4919  0.8562 -0.1210
 2256TIP3    H228404   1.613   3.231   7.986  0.6722 -0.2065  0.8260
 2257TIP3   OH228405   4.051   6.024   1.860 -0.3955  0.0163  0.3997
 2257TIP3    H128406   4.008   6.040   1.944 -2.1770  0.5357 -0.5586
 2257TIP3    H228407   4.093   6.107   1.837 -1.5447  0.4739 -0.1033
 2258TIP3   OH228408   3.010   4.608   7.795  0.2669 -0.4361 -0.4143
 2258TIP3    H128409   2.934   4.664   7.777  0.3433 -0.0530  0.3893
 2258TIP3    H228410   2.990   4.526   7.750 -0.6375 -0.3430 -0.2074
 2259TIP3   OH228411   3.981   3.775   8.809 -0.8823  0.1484 -0.2913
 2259TIP3    H128412   3.923   3.835   8.856 -0.0683  0.0684  0.8578
 2259TIP3    H228413   3.948   3.776   8.719 -2.1115  0.7758  0.1375
 2260TIP3   OH228414   1.972   3.525   1.426  1.4515  0.7914  0.5411
 2260TIP3    H128415   1.950   3.447   1.375  1.7132  1.4399 -0.6014
 2260TIP3    H228416   1.979   3.493   1.516  1.7235 -0.5331  0.0796
 2261TIP3   OH228417   4.173   5.524   8.798  0.5228 -0.0894  0.3623
 2261TIP3    H128418   4.179   5.433   8.770 -0.7059  0.1450 -0.7616
 2261TIP3    H228419   4.150   5.519   8.891 -1.3287 -0.9773 -0.0978
 2262TIP3   OH228420   2.183   0.179   0.079 -0.4583 -0.5626  0.0313
 2262TIP3    H128421   2.140   0.182   0.164 -0.7411  0.7951 -0.1366
 2262TIP3    H228422   2.207   0.087   0.067 -0.9788 -0.8766  1.2870
 2263TIP3   OH228423   3.550   3.200   7.662  0.2830 -0.4832 -0.3558
 2263TIP3    H128424   3.507   3.275   7.703  2.5556  1.4066 -1.1309
 2263TIP3    H228425   3.513   3.196   7.574 -1.0120 -1.3422  0.2140
 2264TIP3   OH228426   3.958   3.016   1.168  0.0833 -0.1612  0.2896
 2264TIP3    H128427   3.889   3.073   1.204 -2.1774 -1.1688 -2.1334
 2264TIP3    H228428   3.974   3.050   1.080  0.1270 -2.0280 -0.4747
 2265TIP3   OH228429   2.786   1.488   8.513  0.0922  0.1920  0.3060
 2265TIP3    H128430   2.722   1.471   8.445  0.5152 -1.2649  0.2268
 2265TIP3    H228431   2.744   1.550   8.572 -0.0678  1.9463 -1.5593
 2266TIP3   OH228432   5.697   1.476   0.413 -0.1742 -0.4853  0.1242
 2266TIP3    H128433   5.743   1.392   0.406  0.6300 -0.1567  1.1386
 2266TIP3    H228434   5.746   1.524   0.480 -0.0256  1.1848 -1.1143
 2267TIP3   OH228435   5.304   3.073   7.246  0.4681 -0.4946  0.1197
 2267TIP3    H128436   5.258   3.014   7.305 -1.6881 -0.5799 -1.5286
 2267TIP3    H228437   5.275   3.047   7.158  3.0030  0.0761 -0.9631
 2268TIP3   OH228438   1.390   5.838   1.300 -0.3309  0.5715 -0.3919
 2268TIP3    H128439   1.309   5.835   1.351 -0.2833 -2.5223 -0.3011
 2268TIP3    H228440   1.369   5.792   1.219  1.0951  0.5819 -0.7877
 2269TIP3   OH228441   0.101   5.598   0.965 -0.0671  0.3701 -1.0458
 2269TIP3    H128442   0.057   5.682   0.981 -0.3806  0.4113 -2.0965
 2269TIP3    H228443   0.125   5.567   1.053 -1.7120  0.5973 -0.4913
 2270TIP3   OH228444   0.904   3.478   8.430  0.0485  0.5174 -0.0251
 2270TIP3    H128445   0.949   3.395   8.448 -0.5241  0.1258 -0.3715
 2270TIP3    H228446   0.902   3.523   8.515 -1.1062 -0.5652  0.5537
 2271TIP3   OH228447   1.527   4.687   1.509  0.2389 -0.4488 -0.2689
 2271TIP3    H128448   1.435   4.670   1.532  0.0798  0.1309 -0.4852
 2271TIP3    H228449   1.523   4.728   1.423  0.7102 -0.5235 -0.3250
 2272TIP3   OH228450   3.937   3.073   1.882 -0.1525  0.6323 -0.3571
 2272TIP3    H128451   3.900   3.055   1.796  0.7875 -2.2385 -0.2666
 2272TIP3    H228452   3.981   2.992   1.906 -0.1509  1.4335  2.7279
 2273TIP3   OH228453   5.037   4.126   8.632 -0.0074  0.0738 -0.2448
 2273TIP3    H128454   5.099   4.182   8.584 -0.1556  0.9815  0.5864
 2273TIP3    H228455   5.093   4.066   8.680  0.2310  0.6325  0.1919
 2274TIP3   OH228456   3.878   2.059   2.166  0.1592  0.1012 -0.7721
 2274TIP3    H128457   3.787   2.033   2.151 -0.1304  1.0832 -0.7908
 2274TIP3    H228458   3.930   1.988   2.128 -0.5966 -0.5566 -0.5989
 2275TIP3   OH228459   1.079   3.216   2.364  0.1428 -0.1784  0.7148
 2275TIP3    H128460   1.053   3.230   2.455  0.2750 -2.4052  1.1479
 2275TIP3    H228461   1.137   3.140   2.367  1.0010  0.3561 -1.1170
 2276TIP3   OH228462   1.927   3.261   8.116  0.6136  0.1340  0.2388
 2276TIP3    H128463   1.898   3.260   8.207  3.4892  1.4508  1.2769
 2276TIP3    H228464   1.862   3.207   8.070 -0.7523 -0.8509  3.0729
 2277TIP3   OH228465   6.327   6.654   2.377  0.7946  0.2814 -0.6258
 2277TIP3    H128466   6.375   6.653   2.460  0.3938  0.1753 -0.3930
 2277TIP3    H228467   6.310   6.562   2.358 -0.7424  0.3848  0.1304
 2278TIP3   OH228468   2.825   3.749   1.755 -0.7869 -0.5032  0.6009
 2278TIP3    H128469   2.909   3.788   1.781 -0.2545 -0.7766 -0.6273
 2278TIP3    H228470   2.780   3.732   1.837  1.7581 -3.4600  1.5557
 2279TIP3   OH228471   4.026   0.974   0.633 -0.0597  0.5646  0.5142
 2279TIP3    H128472   3.933   0.995   0.626  0.1999  1.4234 -0.6508
 2279TIP3    H228473   4.033   0.925   0.715 -1.7734 -0.8427 -0.1121
 2280TIP3   OH228474   5.085   2.299   2.734 -0.1970 -0.4501 -0.4486
 2280TIP3    H128475   5.160   2.303   2.674  0.5154  0.6235  0.4961
 2280TIP3    H228476   5.123   2.277   2.819 -1.1455 -1.4147 -0.2465
 2281TIP3   OH228477   0.445   1.144   2.478  0.4511  0.6760  0.0336
 2281TIP3    H128478   0.377   1.185   2.531 -0.7736  0.6367 -1.4269
 2281TIP3    H228479   0.398   1.108   2.402  1.8214 -1.3123  0.0588
 2282TIP3   OH228480   5.923   2.990   0.947  0.6131  0.4444 -0.3853
 2282TIP3    H128481   5.868   2.959   1.019 -0.2036  2.1695 -0.2090
 2282TIP3    H228482   6.010   2.957   0.967  0.0597 -0.5681  0.4515
 2283TIP3   OH228483   3.580   2.193   0.727  0.0253  0.2319 -0.2001
 2283TIP3    H128484   3.654   2.149   0.685 -1.5971 -2.7767 -0.2374
 2283TIP3    H228485   3.573   2.150   0.813 -2.5099 -0.7417 -0.7849
 2284TIP3   OH228486   2.937   2.208   1.024 -0.1740  0.0994 -0.1954
 2284TIP3    H128487   2.939   2.141   0.955  0.5001  1.0293 -1.0945
 2284TIP3    H228488   2.973   2.164   1.101 -1.5828 -1.1702 -0.2101
 2285TIP3   OH228489   0.084   3.959   8.801  0.5812 -0.6185 -0.1000
 2285TIP3    H128490   0.146   3.985   8.868  1.4062  0.7029 -1.3281
 2285TIP3    H228491  -0.000   3.952   8.846  0.8044  1.7884  0.7890
 2286TIP3   OH228492   3.025   6.198   1.464 -0.1825  0.1648 -0.4677
 2286TIP3    H128493   2.943   6.245   1.447 -0.2007  0.6516  0.8426
 2286TIP3    H228494   2.997   6.110   1.490 -0.2277 -0.0353 -1.1756
 2287TIP3   OH228495   3.062   2.180   7.646 -0.1558 -0.0287  0.6911
 2287TIP3    H128496   3.075   2.150   7.736  0.1623 -0.5604  0.4751
 2287TIP3    H228497   2.970   2.204   7.641 -0.5760 -1.5163  0.7268
 2288TIP3   OH228498   1.404   1.399   2.294  1.0047  0.3073  0.3720
 2288TIP3    H128499   1.458   1.361   2.363  1.0503 -3.0441 -1.3420
 2288TIP3    H228500   1.320   1.353   2.302 -0.9774  3.7358  1.4796
 2289TIP3   OH228501   6.728   4.927   8.175 -0.0636  0.5361 -0.6329
 2289TIP3    H128502   6.706   4.974   8.095  0.5628 -3.4654 -3.4700
 2289TIP3    H228503   6.810   4.881   8.154 -1.4093 -3.0311  1.0806
 2290TIP3   OH228504   1.290   1.086   7.640 -0.0096 -0.5084 -0.1766
 2290TIP3    H128505   1.385   1.082   7.632  0.5110 -1.0333  4.0635
 2290TIP3    H228506   1.260   0.997   7.625  0.3269 -0.6061 -0.2674
 2291TIP3   OH228507   1.243   2.638   8.684  0.4542 -0.3632 -0.0870
 2291TIP3    H128508   1.272   2.717   8.730  0.0506 -0.4093  0.2579
 2291TIP3    H228509   1.231   2.574   8.754  1.5960 -0.9982 -0.4373
 2292TIP3   OH228510   2.393   1.389   2.524  0.4559 -0.7619 -0.3636
 2292TIP3    H128511   2.387   1.306   2.478  0.4041 -0.6285 -0.6014
 2292TIP3    H228512   2.463   1.377   2.588  0.6143 -0.9080 -0.5647
 2293TIP3   OH228513   2.500   6.517   3.261  0.3659  0.0037  0.3106
 2293TIP3    H128514   2.575   6.519   3.202 -0.7476 -2.4112 -1.3327
 2293TIP3    H228515   2.450   6.596   3.238 -0.1529 -0.9836 -2.2390
 2294TIP3   OH228516   3.402   2.324   8.160 -0.2902  0.3587  0.4214
 2294TIP3    H128517   3.451   2.266   8.102 -0.2495  0.2659  0.5453
 2294TIP3    H228518   3.441   2.309   8.246  1.1507  2.1510  0.1232
 2295TIP3   OH228519   2.628   5.440   3.151  0.2404 -0.8485  0.2669
 2295TIP3    H128520   2.536   5.426   3.175  0.2744  0.5817  1.3515
 2295TIP3    H228521   2.667   5.353   3.155 -0.9894 -1.4353  0.0871
 2296TIP3   OH228522   3.731   0.895   7.765  0.0560  0.3876  0.2254
 2296TIP3    H128523   3.664   0.870   7.702  0.8851  0.8097 -0.8508
 2296TIP3    H228524   3.801   0.832   7.752  0.3334  0.6211  0.5593
 2297TIP3   OH228525   4.514   2.075   7.632 -0.2829  0.5892  0.0554
 2297TIP3    H128526   4.591   2.034   7.594 -0.0615  1.1011 -0.0658
 2297TIP3    H228527   4.443   2.013   7.618 -0.0175  0.3895 -0.3977
 2298TIP3   OH228528   5.373   2.842   8.294 -0.3514 -0.5541  0.6336
 2298TIP3    H128529   5.454   2.810   8.333 -0.9528 -2.7083  0.2500
 2298TIP3    H228530   5.386   2.936   8.285  2.2304 -0.8903  0.2420
 2299TIP3   OH228531   3.532   5.984   2.098  0.0315 -0.0983  0.5580
 2299TIP3    H128532   3.596   5.940   2.042 -1.6319 -0.4748 -1.1819
 2299TIP3    H228533   3.516   6.068   2.053 -0.3042  0.2092  1.2442
 2300TIP3   OH228534   4.460   6.032   2.542 -0.1439  0.2515  0.0454
 2300TIP3    H128535   4.380   6.038   2.594  0.2568  3.0430  0.4523
 2300TIP3    H228536   4.525   6.083   2.590  1.7741 -1.4532 -0.5710
 2301TIP3   OH228537   4.693   1.878   0.340 -0.2993 -0.1779  0.6661
 2301TIP3    H128538   4.699   1.958   0.392 -0.5031  0.0438  0.3541
 2301TIP3    H228539   4.605   1.880   0.303  0.0557 -0.0103 -0.1912
 2302TIP3   OH228540   3.343   4.625   0.285  0.1550 -0.1740  0.0241
 2302TIP3    H128541   3.265   4.657   0.331  0.1070 -1.5887  0.9915
 2302TIP3    H228542   3.414   4.681   0.317 -0.7824  3.2232 -3.1543
 2303TIP3   OH228543   5.647   4.847   3.618  0.3238 -0.1602 -0.0477
 2303TIP3    H128544   5.669   4.934   3.651 -1.5060  0.4843 -0.4321
 2303TIP3    H228545   5.655   4.855   3.523  2.6513 -1.1800 -0.0084
 2304TIP3   OH228546   3.274   3.300   8.496 -0.3256 -0.0929  0.4968
 2304TIP3    H128547   3.197   3.327   8.546 -2.0475 -2.2385 -0.8343
 2304TIP3    H228548   3.259   3.208   8.476  2.2946 -0.4112 -0.4271
 2305TIP3   OH228549   3.884   3.222   8.152 -0.1396  0.1876  0.2759
 2305TIP3    H128550   3.793   3.246   8.169 -0.1397  1.0831 -0.8337
 2305TIP3    H228551   3.896   3.139   8.197 -0.1298  2.2036  4.5866
 2306TIP3   OH228552   0.309   5.226   2.805  0.0733  0.3915  0.4380
 2306TIP3    H128553   0.374   5.279   2.852  0.6534 -0.7763  0.9891
 2306TIP3    H228554   0.359   5.182   2.736 -0.3415  0.3261  0.1759
 2307TIP3   OH228555   2.150   4.404   1.017  0.0927 -0.5650  0.3740
 2307TIP3    H128556   2.183   4.342   1.081  0.0039  2.0191  3.1320
 2307TIP3    H228557   2.054   4.396   1.023  0.0636 -1.5848 -0.8781
 2308TIP3   OH228558   6.665   3.863   0.150  0.4301 -0.5928  0.2997
 2308TIP3    H128559   6.577   3.854   0.112  0.7049  2.1365 -1.2887
 2308TIP3    H228560   6.659   3.940   0.206  1.7324 -0.5327  0.3881
 2309TIP3   OH228561   3.078   1.911   0.947  0.3320  0.0745  0.0623
 2309TIP3    H128562   3.135   1.981   0.916  2.4505 -1.1585  0.9787
 2309TIP3    H228563   3.051   1.865   0.868  1.0362  0.3623 -0.3500
 2310TIP3   OH228564   4.214   1.123   0.945 -0.0373 -0.4630 -0.7260
 2310TIP3    H128565   4.277   1.178   0.899  0.1197  0.2835  0.3607
 2310TIP3    H228566   4.265   1.079   1.013 -0.4949 -0.6587 -0.5022
 2311TIP3   OH228567   6.610   2.276   2.309  0.9122  0.1930 -0.1456
 2311TIP3    H128568   6.662   2.355   2.326  2.1658 -0.7949  0.8391
 2311TIP3    H228569   6.675   2.207   2.300 -0.1180 -0.6060 -1.9368
 2312TIP3   OH228570   0.877   1.549   1.004 -0.3893 -0.2416  0.8790
 2312TIP3    H128571   0.846   1.470   0.960 -0.0111 -0.8798  1.7351
 2312TIP3    H228572   0.956   1.575   0.956 -0.5087 -0.3811  0.6049
 2313TIP3   OH228573   5.376   6.447   2.759  0.4319  0.2227  0.7801
 2313TIP3    H128574   5.392   6.468   2.851 -0.2257  1.9377  0.5460
 2313TIP3    H228575   5.416   6.519   2.710  0.2747 -0.3627 -0.2536
 2314TIP3   OH228576   6.016   3.072   0.226 -0.0598  0.0431 -0.1407
 2314TIP3    H128577   5.950   3.047   0.161  0.2766 -2.0086  0.2308
 2314TIP3    H228578   6.074   3.132   0.179 -0.2158 -0.8572 -1.5630
 2315TIP3   OH228579   3.869   2.702   8.089  0.5020  0.1658 -0.1394
 2315TIP3    H128580   3.962   2.679   8.101  1.2383  1.7182 -2.2505
 2315TIP3    H228581   3.849   2.675   7.999 -0.5666  1.3900 -0.3048
 2316TIP3   OH228582   2.007   0.197   0.304  0.1045  0.2835  0.3952
 2316TIP3    H128583   1.925   0.245   0.315 -1.7169 -1.5947 -3.3065
 2316TIP3    H228584   2.007   0.134   0.377 -1.7579  0.3253  0.4845
 2317TIP3   OH228585   6.545   4.615   2.502 -0.0448 -0.7359  0.2183
 2317TIP3    H128586   6.640   4.624   2.509 -0.0459 -1.3794  1.2383
 2317TIP3    H228587   6.532   4.541   2.442  0.0996 -0.7814  0.2429
 2318TIP3   OH228588   4.565   1.671   2.162 -0.2762  0.1110 -0.2376
 2318TIP3    H128589   4.581   1.581   2.136 -0.0915 -0.0717  0.4924
 2318TIP3    H228590   4.566   1.669   2.257 -0.0097  0.9323 -0.2157
 2319TIP3   OH228591   2.576   2.966   1.482  0.6042  0.0053  0.6889
 2319TIP3    H128592   2.645   2.935   1.423 -0.6221  0.0296 -0.8147
 2319TIP3    H228593   2.579   3.061   1.475 -0.9537 -0.0104 -1.1290
 2320TIP3   OH228594   0.001   4.157   0.510 -0.0400  0.0251  0.4790
 2320TIP3    H128595  -0.062   4.217   0.551  0.1456  1.0650 -0.7073
 2320TIP3    H228596   0.086   4.187   0.542  0.3245  2.2254 -2.1447
 2321TIP3   OH228597   4.703   2.751   2.954 -0.0503 -0.0042 -0.2368
 2321TIP3    H128598   4.648   2.709   2.888 -0.4370 -0.7100  0.5182
 2321TIP3    H228599   4.718   2.683   3.020  1.6369  0.1965 -0.3578
 2322TIP3   OH228600   5.764   1.672   0.631 -0.5495  0.2866  0.5914
 2322TIP3    H128601   5.671   1.679   0.609 -1.0151 -1.4067  1.7724
 2322TIP3    H228602   5.779   1.743   0.694 -1.1503  0.3398  0.6838
 2323TIP3   OH228603   5.025   5.524   0.308  0.0224  0.6322 -0.2724
 2323TIP3    H128604   5.013   5.593   0.241 -0.1231  1.8582  0.9729
 2323TIP3    H228605   5.047   5.446   0.257  0.8097  1.7223 -1.7116
 2324TIP3   OH228606   4.854   1.521   2.080 -0.1349  0.1103  0.4583
 2324TIP3    H128607   4.894   1.514   1.993 -2.5462  0.9444 -0.7975
 2324TIP3    H228608   4.843   1.615   2.094 -0.2831 -0.0415  1.4282
 2325TIP3   OH228609   4.125   2.289   8.672  0.0389  0.2577  0.0458
 2325TIP3    H128610   4.058   2.226   8.645  1.1493 -0.5788 -0.8825
 2325TIP3    H228611   4.163   2.319   8.589  0.2155  1.3795  0.5255
 2326TIP3   OH228612   4.341   2.457   1.990 -0.1079 -0.3828 -0.1731
 2326TIP3    H128613   4.260   2.419   1.955  0.5248  0.0176 -2.1459
 2326TIP3    H228614   4.313   2.538   2.033 -0.8362 -0.6360 -0.1520
 2327TIP3   OH228615   6.309   4.626   1.316  0.6916 -0.4121  0.2322
 2327TIP3    H128616   6.216   4.634   1.338  0.2136 -0.7939 -1.5000
 2327TIP3    H228617   6.350   4.599   1.398 -0.6777 -0.0056  1.0988
 2328TIP3   OH228618   5.730   1.652   8.490 -0.5779 -0.7175 -0.5412
 2328TIP3    H128619   5.650   1.614   8.454  0.5606 -1.6948 -2.2020
 2328TIP3    H228620   5.738   1.612   8.577 -1.7152 -0.8257 -0.4647
 2329TIP3   OH228621   0.032   2.200   8.551 -0.0457 -0.5559 -0.0238
 2329TIP3    H128622  -0.039   2.146   8.586 -0.5612  0.4648  0.5679
 2329TIP3    H228623   0.082   2.141   8.495 -1.6465 -1.1913 -0.8496
 2330TIP3   OH228624   0.611   2.182   8.218  0.0285  0.1560  0.2579
 2330TIP3    H128625   0.632   2.088   8.220  2.0053  0.5013 -1.4061
 2330TIP3    H228626   0.641   2.212   8.132 -1.7250  2.0943  0.2398
 2331TIP3   OH228627   0.773   5.651   0.715 -0.3044  0.0094 -0.0829
 2331TIP3    H128628   0.784   5.657   0.810 -0.1036  0.5467 -0.1357
 2331TIP3    H228629   0.697   5.594   0.703  1.5243 -2.6690  0.3314
 2332TIP3   OH228630   0.203   6.307   1.601  0.2990 -0.4318 -0.1396
 2332TIP3    H128631   0.119   6.284   1.642  0.0595 -0.0757 -0.4245
 2332TIP3    H228632   0.220   6.235   1.540 -0.0866 -0.2194 -0.4997
 2333TIP3   OH228633   5.057   2.200   1.768 -0.3396  0.2312  0.2640
 2333TIP3    H128634   4.991   2.154   1.717  0.8008 -1.4583  0.2506
 2333TIP3    H228635   5.054   2.290   1.735 -1.4344 -0.2108 -0.9247
 2334TIP3   OH228636   1.517   1.180   1.281  0.3205  0.1672 -0.0188
 2334TIP3    H128637   1.471   1.179   1.365 -0.0912  0.2780 -0.2422
 2334TIP3    H228638   1.517   1.089   1.252  0.5876  0.1060  0.1650
 2335TIP3   OH228639   1.754   1.015   2.370  0.3790  0.5738 -0.4885
 2335TIP3    H128640   1.749   1.100   2.414 -0.1818 -0.4193  1.5106
 2335TIP3    H228641   1.845   1.007   2.343  0.5310  1.6239 -0.3266
 2336TIP3   OH228642   2.987   5.228   8.492 -0.1882  0.2319 -0.0710
 2336TIP3    H128643   2.903   5.263   8.461 -0.6123  0.3865  1.2187
 2336TIP3    H228644   3.028   5.300   8.539 -0.7140 -0.7130  1.9192
 2337TIP3   OH228645   5.966   0.623   8.113  0.7171  0.1078  0.0045
 2337TIP3    H128646   5.872   0.629   8.097  0.7961  1.5499  0.0120
 2337TIP3    H228647   6.001   0.581   8.034 -0.0578 -1.6260  0.5255
 2338TIP3   OH228648   3.129   0.701   0.638 -0.0280 -0.1188  0.1783
 2338TIP3    H128649   3.211   0.668   0.602  0.4224  0.9246  0.2170
 2338TIP3    H228650   3.088   0.748   0.566 -0.5709 -0.5634  0.1835
 2339TIP3   OH228651   5.141   3.702   1.897  0.6816  0.4868  0.9256
 2339TIP3    H128652   5.141   3.731   1.989 -1.3634  2.6401  0.3532
 2339TIP3    H228653   5.135   3.784   1.847 -0.1416 -0.7338 -1.0673
 2340TIP3   OH228654   2.629   4.941   1.094 -0.4735 -0.2916  0.5426
 2340TIP3    H128655   2.655   4.868   1.151 -0.5868 -0.7548  0.0104
 2340TIP3    H228656   2.540   4.919   1.067 -0.0877 -0.5532 -0.5599
 2341TIP3   OH228657   4.144   2.898   0.060 -0.9658  0.4582 -0.5988
 2341TIP3    H128658   4.221   2.946   0.029  0.8069  1.0746  4.0196
 2341TIP3    H228659   4.108   2.952   0.130 -1.3487 -2.9530  2.1090
 2342TIP3   OH228660   6.305   6.076   1.754  0.0970 -0.1372 -0.5358
 2342TIP3    H128661   6.379   6.104   1.808 -0.0344  0.5730 -0.7124
 2342TIP3    H228662   6.257   6.156   1.737 -2.1238 -0.8918  1.6212
 2343TIP3   OH228663   6.130   4.905   8.044 -0.4786  0.4244  0.1731
 2343TIP3    H128664   6.155   4.819   8.010 -1.2617  0.2569  0.0018
 2343TIP3    H228665   6.138   4.897   8.139 -1.3655 -0.1160  0.2172
 2344TIP3   OH228666   4.195   2.513   0.712 -0.3070  0.2309 -0.0340
 2344TIP3    H128667   4.202   2.564   0.631 -0.8390 -0.2113 -0.3672
 2344TIP3    H228668   4.285   2.508   0.745 -0.0260  0.1024 -0.7975
 2345TIP3   OH228669   2.552   4.482   0.695  0.1118  0.1792 -0.0842
 2345TIP3    H128670   2.632   4.450   0.738 -0.4256 -0.7062  0.2920
 2345TIP3    H228671   2.486   4.481   0.765 -0.1714  1.1655 -0.3225
 2346TIP3   OH228672   4.130   6.004   7.909 -0.3843 -0.4690 -0.0711
 2346TIP3    H128673   4.166   5.929   7.956 -1.3372 -1.2861 -0.6129
 2346TIP3    H228674   4.048   6.024   7.955 -0.0786  0.3290  0.1481
 2347TIP3   OH228675   4.005   5.958   0.096 -0.0702  0.1533 -0.3786
 2347TIP3    H128676   3.992   6.053   0.087 -0.9474 -0.0414 -1.2540
 2347TIP3    H228677   3.960   5.936   0.178 -0.1454  0.4289 -0.3447
 2348TIP3   OH228678   3.635   5.048   8.700 -0.1096  0.4213 -0.0362
 2348TIP3    H128679   3.549   5.090   8.703 -0.2026  0.2057  0.3432
 2348TIP3    H228680   3.672   5.063   8.788 -0.5944 -1.2317  0.4926
 2349TIP3   OH228681   2.925   4.894   8.583  0.3149  0.2856 -0.4088
 2349TIP3    H128682   2.932   4.960   8.514 -0.5945  0.4890 -0.3218
 2349TIP3    H228683   3.012   4.854   8.587  0.5166  0.6015 -1.3363
 2350TIP3   OH228684   6.069   2.833   1.370 -0.6018 -0.1301  0.0313
 2350TIP3    H128685   6.033   2.896   1.308 -0.0955  1.7205  1.5423
 2350TIP3    H228686   6.004   2.829   1.440  0.2518  0.1776  0.8532
 2351TIP3   OH228687   5.593   3.317   0.062 -0.2597  0.1439  0.9868
 2351TIP3    H128688   5.513   3.362   0.090 -0.2230  0.0486  1.2473
 2351TIP3    H228689   5.635   3.290   0.144 -1.1720 -1.9319  0.8211
 2352TIP3   OH228690   2.472   5.238   0.188  0.1028  0.1817  0.1396
 2352TIP3    H128691   2.514   5.153   0.170 -0.3642  0.3020 -1.8258
 2352TIP3    H228692   2.382   5.216   0.212 -0.1521  0.0993 -0.8283
 2353TIP3   OH228693   5.159   3.555   0.765  0.6211 -0.0322 -0.5744
 2353TIP3    H128694   5.096   3.509   0.709  0.2607  0.8120 -0.8631
 2353TIP3    H228695   5.106   3.606   0.825  1.0234  0.6125 -0.7574
 2354TIP3   OH228696   6.025   3.052   8.119  0.2702 -0.4622 -0.3105
 2354TIP3    H128697   6.018   2.972   8.170 -1.8872 -0.0100  0.2344
 2354TIP3    H228698   6.080   3.110   8.171  1.2193 -1.3181 -0.3510
 2355TIP3   OH228699   1.337   5.017   2.510  0.4510  0.0786  0.6367
 2355TIP3    H128700   1.353   5.083   2.577  1.0234 -0.7675  1.3622
 2355TIP3    H228701   1.423   4.981   2.491  0.0439 -1.1109  0.9557
 2356TIP3   OH228702   1.226   5.650   2.305  0.0066  0.0299  0.4590
 2356TIP3    H128703   1.286   5.721   2.283 -0.0776  0.0835  0.4061
 2356TIP3    H228704   1.162   5.689   2.365 -0.3355  0.1279  0.0372
 2357TIP3   OH228705   4.944   0.351   7.985  0.3703  0.2068  0.0718
 2357TIP3    H128706   4.952   0.258   8.007  1.5904  0.5468  1.2108
 2357TIP3    H228707   4.949   0.354   7.890 -2.1758 -1.0877 -0.1972
 2358TIP3   OH228708   3.253   4.689   2.081 -0.2008  0.1581 -0.0606
 2358TIP3    H128709   3.346   4.701   2.101 -0.0058 -1.9888  0.5545
 2358TIP3    H228710   3.208   4.752   2.137  0.7679 -0.5333  1.5619
 2359TIP3   OH228711   5.058   1.181   0.148 -0.5492  0.7486  0.0927
 2359TIP3    H128712   4.981   1.183   0.091 -0.3224  1.9269 -0.2002
 2359TIP3    H228713   5.050   1.098   0.196 -1.8607  0.7341 -0.1059
 2360TIP3   OH228714   5.603   3.966   2.055  0.5410  0.3259  0.3925
 2360TIP3    H128715   5.684   4.016   2.067  0.9557  0.6636 -2.9528
 2360TIP3    H228716   5.629   3.892   1.999 -1.0623 -0.8856  1.1538
 2361TIP3   OH228717   1.584   4.673   2.044 -0.3062 -0.5086  0.0401
 2361TIP3    H128718   1.510   4.733   2.054  1.0719  1.2053  0.1943
 2361TIP3    H228719   1.581   4.647   1.952  0.0802  1.1895 -0.4897
 2362TIP3   OH228720   3.208   5.439   2.646 -0.5235  0.1369 -0.0686
 2362TIP3    H128721   3.204   5.355   2.694  2.1155 -0.8883 -1.4373
 2362TIP3    H228722   3.161   5.422   2.565 -0.9864  0.3843  0.1429
 2363TIP3   OH228723   3.730   5.841   2.009 -0.0894 -0.0458  0.2199
 2363TIP3    H128724   3.740   5.799   1.923  0.4112 -1.7557  1.0794
 2363TIP3    H228725   3.799   5.802   2.063 -1.1368  0.1416  1.7394
 2364TIP3   OH228726   4.104   0.839   0.934  0.4773  0.8999 -0.4081
 2364TIP3    H128727   4.122   0.926   0.970  0.2557  0.5696  0.5228
 2364TIP3    H228728   4.016   0.818   0.965 -0.4994  1.3539 -2.6536
 2365TIP3   OH228729   3.057   2.745   8.698  0.0174  0.1049  0.0242
 2365TIP3    H128730   3.085   2.833   8.672 -4.3205  1.6072 -0.4275
 2365TIP3    H228731   3.055   2.696   8.617  0.5246  0.1928 -0.0461
 2366TIP3   OH228732   6.812   2.862   1.277 -0.7371 -0.0751 -0.1998
 2366TIP3    H128733   6.907   2.852   1.280 -0.7486  0.0464  0.9916
 2366TIP3    H228734   6.799   2.956   1.263 -0.6458  0.5140  2.9751
 2367TIP3   OH228735   2.418   5.511   7.291 -0.3447  0.3883  0.2793
 2367TIP3    H128736   2.470   5.591   7.305  1.3936 -0.7439  0.5819
 2367TIP3    H228737   2.479   5.451   7.248 -2.1804 -0.1543 -1.7274
 2368TIP3   OH228738   6.346   2.856   1.253 -0.5240  0.4284 -0.5761
 2368TIP3    H128739   6.331   2.774   1.299  1.3364  0.0261 -0.6213
 2368TIP3    H228740   6.259   2.897   1.248 -1.0475 -0.2135  1.8851
 2369TIP3   OH228741   1.995   1.179   2.473 -0.4366  0.1703 -0.3874
 2369TIP3    H128742   1.941   1.255   2.452 -0.6097  0.5363  1.2681
 2369TIP3    H228743   2.030   1.197   2.560  0.0565 -1.3485 -0.2316
 2370TIP3   OH228744   5.504   6.418   0.822 -0.6063  0.3957  0.4576
 2370TIP3    H128745   5.593   6.425   0.857 -0.2822  1.7374 -0.5575
 2370TIP3    H228746   5.448   6.449   0.893 -0.2575 -0.1615  0.9907
 2371TIP3   OH228747   4.943   5.966   2.453 -0.0046  0.0299 -0.6633
 2371TIP3    H128748   4.970   5.881   2.419 -0.8912  0.3517 -2.2747
 2371TIP3    H228749   4.866   5.948   2.506 -0.4646 -0.1550 -1.3706
 2372TIP3   OH228750   4.691   3.600   0.358 -0.6378  0.1032  0.0341
 2372TIP3    H128751   4.665   3.519   0.315 -0.7954 -0.4022  1.0437
 2372TIP3    H228752   4.643   3.668   0.312  1.0432 -0.1033 -2.1686
 2373TIP3   OH228753   3.488   1.903   1.992 -0.5648 -0.7694  0.0345
 2373TIP3    H128754   3.523   1.825   2.034 -1.1914 -2.1478 -1.8835
 2373TIP3    H228755   3.563   1.963   1.988 -0.1208 -1.1613  1.6782
 2374TIP3   OH228756   3.392   5.002   0.370 -0.1105 -0.4562 -0.4775
 2374TIP3    H128757   3.441   4.920   0.381  1.3621  0.6126  1.4475
 2374TIP3    H228758   3.459   5.067   0.352 -1.0493  0.7186  0.1977
 2375TIP3   OH228759   5.539   0.970   0.926  0.4249  0.3391  0.4380
 2375TIP3    H128760   5.469   0.979   0.991 -0.0787 -0.8699  0.0920
 2375TIP3    H228761   5.546   0.876   0.911  2.6205  0.3814  0.9636
 2376TIP3   OH228762   1.589   4.799   0.083  0.0609  0.6037  0.2345
 2376TIP3    H128763   1.639   4.823   0.161  1.3810  0.5099 -0.5443
 2376TIP3    H228764   1.656   4.779   0.017 -0.9992  1.7538 -1.2735
 2377TIP3   OH228765   4.459   1.115   0.531 -0.1344 -0.6751 -0.8598
 2377TIP3    H128766   4.439   1.027   0.499  0.2545 -1.2161  0.3287
 2377TIP3    H228767   4.553   1.125   0.516  0.0738 -0.9791  0.1840
 2378TIP3   OH228768   0.144   3.217   0.104  0.5358  0.3932  0.3190
 2378TIP3    H128769   0.068   3.187   0.154  0.1865  0.0672 -0.4048
 2378TIP3    H228770   0.188   3.137   0.076  0.6503  0.5745 -0.0213
 2379TIP3   OH228771   6.267   5.920   1.250 -0.2402 -0.5857 -0.1055
 2379TIP3    H128772   6.345   5.888   1.297 -0.8033 -1.8444 -0.0059
 2379TIP3    H228773   6.194   5.872   1.290 -1.1065  0.7343 -0.0540
 2380TIP3   OH228774   5.301   4.090   7.737 -0.5008 -0.2794 -1.1118
 2380TIP3    H128775   5.352   4.118   7.660  0.1515  0.3695 -0.4582
 2380TIP3    H228776   5.229   4.152   7.741  0.6436  1.0417  0.0180
 2381TIP3   OH228777   1.690   3.923   1.095 -0.1756 -0.3181 -0.2486
 2381TIP3    H128778   1.737   3.900   1.176 -0.2984  0.2238 -0.0185
 2381TIP3    H228779   1.759   3.929   1.029  0.2230  1.3933  0.2832
 2382TIP3   OH228780   4.394   0.205   1.285  0.1886  0.0470 -0.5222
 2382TIP3    H128781   4.315   0.160   1.316  1.0206 -0.5001  0.8857
 2382TIP3    H228782   4.466   0.155   1.322  1.2062  0.5811 -1.7390
 2383TIP3   OH228783   2.028   5.298   1.898  0.4233 -0.3774  0.2245
 2383TIP3    H128784   2.106   5.244   1.913  0.7575 -0.8521 -2.6147
 2383TIP3    H228785   2.036   5.326   1.807 -0.0797  3.9854  1.2984
 2384TIP3   OH228786   2.657   0.338   8.374  0.4960 -0.1536 -0.2435
 2384TIP3    H128787   2.596   0.315   8.445  0.1873  2.2201  0.3501
 2384TIP3    H228788   2.635   0.278   8.303  0.3495 -2.1703  1.3965
 2385TIP3   OH228789   0.188   3.105   2.054  0.0445 -0.5666  0.0636
 2385TIP3    H128790   0.171   3.140   2.141 -0.7219 -0.4405 -0.1270
 2385TIP3    H228791   0.178   3.180   1.995 -0.4577 -0.8614 -0.2324
 2386TIP3   OH228792   0.998   0.438   2.838 -0.2126  0.3669 -0.1670
 2386TIP3    H128793   0.981   0.502   2.907  0.3070 -0.9256  1.2213
 2386TIP3    H228794   1.092   0.443   2.823 -0.2597  0.3448 -0.4767
 2387TIP3   OH228795   0.750   5.504   2.430 -0.2265 -0.4465 -0.4937
 2387TIP3    H128796   0.841   5.481   2.410  0.3712  1.1521  0.2376
 2387TIP3    H228797   0.744   5.495   2.525 -0.6058  0.1945 -0.4518
 2388TIP3   OH228798   1.694   6.761   1.740 -0.3605  0.2881 -0.0676
 2388TIP3    H128799   1.674   6.720   1.656 -0.5781  1.3778 -0.5760
 2388TIP3    H228800   1.769   6.713   1.774 -0.4986 -0.3958 -0.7181
 2389TIP3   OH228801   0.293   1.346   1.448 -0.2600  0.5672  0.9204
 2389TIP3    H128802   0.318   1.255   1.468  0.6904  0.5303 -0.3077
 2389TIP3    H228803   0.204   1.339   1.413  0.4740 -0.1889 -0.9779
 2390TIP3   OH228804   5.611   1.046   0.203 -0.0657 -0.3022 -0.1677
 2390TIP3    H128805   5.594   0.970   0.257  2.4367  0.5915  2.1258
 2390TIP3    H228806   5.525   1.084   0.185 -1.0842 -1.0173  2.7149
 2391TIP3   OH228807   2.934   5.984   8.101  0.3590 -0.1274  0.1164
 2391TIP3    H128808   2.897   5.980   8.012  0.5643  0.6079 -0.0117
 2391TIP3    H228809   2.994   6.059   8.098 -0.1830  0.3542  1.0816
 2392TIP3   OH228810   3.437   3.593   1.722  0.0788  0.0155  0.3489
 2392TIP3    H128811   3.361   3.610   1.667  0.6307 -0.8626 -0.7319
 2392TIP3    H228812   3.413   3.516   1.773  0.0399  0.0748  0.4210
 2393TIP3   OH228813   5.666   5.341   2.969  0.0476 -0.3646  0.4386
 2393TIP3    H128814   5.661   5.370   2.878  1.0205  1.6005  0.9456
 2393TIP3    H228815   5.613   5.405   3.017  2.3562  0.7847  1.6335
 2394TIP3   OH228816   2.531   5.750   2.437  0.1387  0.1224 -0.0160
 2394TIP3    H128817   2.516   5.834   2.480  0.8174 -0.7294  2.0188
 2394TIP3    H228818   2.495   5.685   2.498  0.6825 -1.1461 -0.9853
 2395TIP3   OH228819   6.565   6.652   8.694  0.1128 -0.3574 -0.2669
 2395TIP3    H128820   6.520   6.607   8.765  0.7940 -1.1573 -0.3310
 2395TIP3    H228821   6.505   6.722   8.668 -0.6922 -0.8461  0.2417
 2396TIP3   OH228822   0.537   4.074   8.042  0.4102  0.5426 -0.2956
 2396TIP3    H128823   0.481   4.024   7.982  0.5182 -1.1672  0.9672
 2396TIP3    H228824   0.610   4.103   7.988  0.2879 -0.5813 -1.0990
 2397TIP3   OH228825   2.983   3.877   1.952  0.6487 -0.2163 -0.1187
 2397TIP3    H128826   3.078   3.867   1.941  0.7077 -0.0531  0.2410
 2397TIP3    H228827   2.966   3.968   1.926  0.5365 -0.3543 -0.5356
 2398TIP3   OH228828   1.587   5.501   8.600 -0.6931  0.1664  0.6562
 2398TIP3    H128829   1.562   5.494   8.507 -0.1039  2.0134  0.3098
 2398TIP3    H228830   1.645   5.578   8.603  2.8628 -2.2970  1.8430
 2399TIP3   OH228831   4.875   0.089   1.400 -0.0015  0.6058  0.4382
 2399TIP3    H128832   4.938   0.023   1.428 -0.3771 -0.0260 -0.1810
 2399TIP3    H228833   4.902   0.114   1.312  0.0293  1.1472  0.5959
 2400TIP3   OH228834   2.290   6.495   2.045 -0.7666 -0.4647 -0.3753
 2400TIP3    H128835   2.343   6.573   2.029  0.6294 -1.2947 -0.0054
 2400TIP3    H228836   2.265   6.502   2.138 -4.7540  1.8972 -1.3871
 2401TIP3   OH228837   4.871   0.708   0.264 -0.0267 -0.0963  0.1502
 2401TIP3    H128838   4.943   0.762   0.297  0.7260  0.9029 -2.8026
 2401TIP3    H228839   4.886   0.704   0.170 -2.5208 -1.9154 -0.2602
 2402TIP3   OH228840   6.236   0.395   8.074 -0.2917 -0.1499  0.5454
 2402TIP3    H128841   6.161   0.404   8.015  1.3019 -0.4340 -1.6596
 2402TIP3    H228842   6.248   0.483   8.111 -1.5330 -0.0501  0.7464
 2403TIP3   OH228843   6.195   2.142   0.687  0.3691  0.2450 -0.0405
 2403TIP3    H128844   6.119   2.196   0.664  0.8232  0.3987 -1.2442
 2403TIP3    H228845   6.225   2.178   0.771 -1.3898 -0.3813  0.9091
 2404TIP3   OH228846   4.795   5.085   2.063  0.8110  0.7647 -0.1299
 2404TIP3    H128847   4.772   5.148   2.132  0.9464 -0.4654  1.0714
 2404TIP3    H228848   4.890   5.079   2.066  0.6823 -1.6792  1.8361
 2405TIP3   OH228849   1.848   2.774   2.844 -0.0117 -0.1286 -0.1316
 2405TIP3    H128850   1.757   2.804   2.841  0.0693  0.0334 -2.2262
 2405TIP3    H228851   1.841   2.680   2.863 -0.6252 -0.1284 -0.3402
 2406TIP3   OH228852   4.453   5.832   1.969  0.3222  0.1963  0.0776
 2406TIP3    H128853   4.533   5.813   1.921  0.0011  2.2022 -1.3895
 2406TIP3    H228854   4.475   5.818   2.061  1.8655 -0.8133 -0.4252
 2407TIP3   OH228855   3.689   3.595   3.055  0.3626 -0.5082  0.3657
 2407TIP3    H128856   3.717   3.536   3.125  0.0487  0.9057  1.7753
 2407TIP3    H228857   3.708   3.548   2.974 -2.9782 -3.9892  1.3307
 2408TIP3   OH228858   2.629   4.493   1.661 -0.2975  0.6095 -0.5996
 2408TIP3    H128859   2.669   4.562   1.608 -2.0742  2.7590  0.6185
 2408TIP3    H228860   2.538   4.523   1.673 -0.3258 -0.3311  2.5563
 2409TIP3   OH228861   3.081   3.681   0.522  0.5747 -0.4522 -0.2096
 2409TIP3    H128862   3.005   3.716   0.568  0.6379 -0.4120 -0.1358
 2409TIP3    H228863   3.044   3.635   0.447  0.4955 -0.1728 -0.3443
 2410TIP3   OH228864   2.066   3.156   0.286 -0.3569  0.2588 -0.0805
 2410TIP3    H128865   2.024   3.173   0.370 -0.9444  1.5271 -0.6035
 2410TIP3    H228866   2.008   3.093   0.243 -2.5950  2.9724 -1.3432
 2411TIP3   OH228867   2.549   1.112   2.262  0.0727  0.0463  0.1606
 2411TIP3    H128868   2.551   1.098   2.357  1.4885  0.3073  0.1904
 2411TIP3    H228869   2.463   1.150   2.245 -0.3290 -0.3117  1.2892
 2412TIP3   OH228870   3.208   0.383   1.831 -0.2004  0.0168 -0.4345
 2412TIP3    H128871   3.253   0.467   1.825 -0.2380  0.0253 -0.5919
 2412TIP3    H228872   3.120   0.405   1.861  0.1554 -0.0748  0.7434
 2413TIP3   OH228873   4.867   0.982   1.620  0.2556  0.5717  0.2453
 2413TIP3    H128874   4.944   1.011   1.669  0.1728  0.3415  0.5140
 2413TIP3    H228875   4.817   1.062   1.604 -0.4130  0.4789  1.7498
 2414TIP3   OH228876   0.581   1.970   0.530  0.3510  0.0552 -0.5297
 2414TIP3    H128877   0.536   2.047   0.495 -0.3170 -0.0266  0.1169
 2414TIP3    H228878   0.643   1.945   0.462  0.7433  1.3009 -0.6627
 2415TIP3   OH228879   2.914   5.252   1.036  0.4244 -0.2399 -0.2100
 2415TIP3    H128880   2.944   5.274   1.124  0.4263  1.4011 -0.5847
 2415TIP3    H228881   2.842   5.192   1.049 -0.1240  0.6397  0.9707
 2416TIP3   OH228882   2.189   6.617   1.555  0.3467 -0.2981 -0.0821
 2416TIP3    H128883   2.254   6.605   1.486 -0.7601  0.4340 -1.3213
 2416TIP3    H228884   2.157   6.529   1.574 -0.8626 -0.3510 -2.1086
 2417TIP3   OH228885   0.066   1.932   2.993  0.1191 -0.3310  0.3823
 2417TIP3    H128886   0.094   1.987   3.066 -1.5058 -0.2748  1.0217
 2417TIP3    H228887   0.029   1.993   2.930  1.8166 -0.3481 -0.6744
 2418TIP3   OH228888   3.616   1.989   8.523 -0.4048 -0.1017  0.3676
 2418TIP3    H128889   3.605   1.922   8.590 -0.9538  0.4278  0.8221
 2418TIP3    H228890   3.646   2.066   8.572  0.2255 -0.0063 -0.1458
 2419TIP3   OH228891   0.536   3.216   8.701 -0.0377  0.0228 -0.2407
 2419TIP3    H128892   0.555   3.285   8.764  0.2230 -0.4131  0.1623
 2419TIP3    H228893   0.451   3.241   8.664  0.4295  0.9900 -0.7024
 2420TIP3   OH228894   4.730   1.093   8.239  0.3373 -0.0822 -0.2472
 2420TIP3    H128895   4.710   1.184   8.219 -2.2552 -0.0951  1.7054
 2420TIP3    H228896   4.819   1.094   8.274  0.0297  1.8705  0.5779
 2421TIP3   OH228897   6.819   2.377   1.209  0.2417  0.1829 -0.6446
 2421TIP3    H128898   6.772   2.460   1.220 -0.7215 -0.6296  2.9359
 2421TIP3    H228899   6.752   2.310   1.227  1.5436 -1.2463 -0.9733
 2422TIP3   OH228900   5.569   5.439   8.079  0.0106 -0.0367  0.2562
 2422TIP3    H128901   5.536   5.351   8.066 -0.4712 -0.3475  2.9118
 2422TIP3    H228902   5.569   5.479   7.992 -3.2170 -1.4600 -0.5409
 2423TIP3   OH228903   5.925   4.132   2.592  0.3367  0.4894 -0.4373
 2423TIP3    H128904   5.948   4.223   2.570  0.1330  0.0993 -2.5239
 2423TIP3    H228905   6.008   4.085   2.584  0.1212  0.2168 -1.1835
 2424TIP3   OH228906   4.856   5.487   8.355 -0.1673  0.3978  0.0032
 2424TIP3    H128907   4.866   5.581   8.339 -0.6332  0.3899 -0.3826
 2424TIP3    H228908   4.918   5.445   8.295  0.2136  0.4699  0.3501
 2425TIP3   OH228909   3.616   4.910   2.346  0.9015 -0.4585  0.2897
 2425TIP3    H128910   3.661   4.987   2.380  0.4991  0.3296 -0.8969
 2425TIP3    H228911   3.581   4.867   2.423  2.7670 -0.5235  1.1472
 2426TIP3   OH228912   6.756   5.018   1.356  0.3874 -0.1677  0.5311
 2426TIP3    H128913   6.759   5.042   1.264  1.7087 -0.4324  0.4896
 2426TIP3    H228914   6.693   4.945   1.360 -2.0131  1.7735  0.3389
 2427TIP3   OH228915   4.535   4.323   7.943 -0.1188  0.2292  0.0770
 2427TIP3    H128916   4.508   4.231   7.943 -0.2383  0.2098 -2.4553
 2427TIP3    H228917   4.613   4.326   7.888 -0.5439  1.7338 -0.4935
 2428TIP3   OH228918   0.450   3.634   8.175 -0.4697 -0.3490 -0.1103
 2428TIP3    H128919   0.478   3.675   8.093 -1.6359  0.6879 -0.0279
 2428TIP3    H228920   0.469   3.699   8.242 -2.3731  0.1300  0.0199
 2429TIP3   OH228921   2.854   6.362   0.994  0.3701 -0.0443  0.2262
 2429TIP3    H128922   2.905   6.424   0.942  1.2450 -0.6817  0.2933
 2429TIP3    H228923   2.790   6.325   0.932 -0.6888  1.4608  0.3690
 2430TIP3   OH228924   5.451   6.640   2.570  0.2082  0.0728 -0.3168
 2430TIP3    H128925   5.503   6.634   2.490 -0.5912  1.8642 -1.0193
 2430TIP3    H228926   5.399   6.720   2.560  1.2353  1.2701  2.6781
 2431TIP3   OH228927   4.576   6.752   1.158  0.1271  0.4363  0.0539
 2431TIP3    H128928   4.622   6.787   1.235  0.5783  0.3370 -0.1693
 2431TIP3    H228929   4.632   6.775   1.084  0.0723 -0.1405 -0.1660
 2432TIP3   OH228930   3.172   3.047   8.464  0.5438  0.4892  0.2144
 2432TIP3    H128931   3.239   2.998   8.418  0.1993  1.2846 -1.2007
 2432TIP3    H228932   3.092   3.031   8.415 -0.4434 -0.7775  2.1042
 2433TIP3   OH228933   5.159   2.968   1.623 -0.0638  0.3621  0.1539
 2433TIP3    H128934   5.249   3.001   1.629  0.0940 -0.3368  2.3812
 2433TIP3    H228935   5.168   2.874   1.611 -0.4812  0.1828  1.1721
 2434TIP3   OH228936   0.118   0.538   0.350 -0.2327  0.6648  0.0314
 2434TIP3    H128937   0.126   0.458   0.299  1.4891  0.4629  0.5854
 2434TIP3    H228938   0.027   0.538   0.381 -0.1812 -1.1775  0.2325
 2435TIP3   OH228939   0.851   6.427   3.298  0.1001 -0.2480  0.2781
 2435TIP3    H128940   0.818   6.484   3.367  0.9767  0.7670 -0.1160
 2435TIP3    H228941   0.772   6.387   3.260 -0.4980  0.3839  0.8281
 2436TIP3   OH228942   4.701   3.997   7.358  0.2401 -0.3788  0.1259
 2436TIP3    H128943   4.711   3.935   7.431  1.4832 -0.0193  0.2889
 2436TIP3    H228944   4.751   4.074   7.386 -1.0028  0.5733 -0.2238
 2437TIP3   OH228945   0.601   1.720   1.353  0.0586  0.1752  0.0583
 2437TIP3    H128946   0.676   1.711   1.294  0.5739 -1.2272  0.8780
 2437TIP3    H228947   0.546   1.645   1.333 -1.2417  1.2748 -0.6396
 2438TIP3   OH228948   4.089   1.089   7.836  0.0898 -0.1757 -1.0117
 2438TIP3    H128949   4.108   1.054   7.749  0.2979 -1.1680 -0.5815
 2438TIP3    H228950   4.158   1.053   7.892 -0.6373 -0.3881 -0.2380
 2439TIP3   OH228951   3.060   1.785   2.592 -0.3452  0.2538  0.9811
 2439TIP3    H128952   3.090   1.852   2.653 -0.1476  0.4947  0.6229
 2439TIP3    H228953   3.021   1.717   2.648 -0.7252  0.7540  1.3307
 2440TIP3   OH228954   0.952   0.798   7.233 -0.1755 -0.1439  0.0174
 2440TIP3    H128955   0.897   0.866   7.195  0.2195 -0.5057 -1.2531
 2440TIP3    H228956   1.004   0.765   7.160  0.1696 -1.3052  0.7480
 2441TIP3   OH228957   4.007   0.648   2.022 -0.1770  0.3846 -0.4525
 2441TIP3    H128958   4.088   0.695   2.002  0.2318 -0.1277 -0.0466
 2441TIP3    H228959   3.999   0.655   2.117  0.4587 -1.2352 -0.2460
 2442TIP3   OH228960   1.563   3.605   8.306 -0.4273 -0.3999  0.4750
 2442TIP3    H128961   1.637   3.561   8.265  0.6534  0.2327  1.6491
 2442TIP3    H228962   1.567   3.694   8.271 -0.8267 -0.4527  0.2994
 2443TIP3   OH228963   2.532   5.035   2.618  0.2191 -0.0945 -0.0045
 2443TIP3    H128964   2.613   5.006   2.660  0.1793 -2.2033 -1.2358
 2443TIP3    H228965   2.483   5.079   2.688  1.3194 -1.0473  1.4215
 2444TIP3   OH228966   0.181   2.851   1.952 -0.2639  0.3236  0.8147
 2444TIP3    H128967   0.099   2.839   2.001 -1.8265  0.2942 -1.6169
 2444TIP3    H228968   0.213   2.937   1.980 -1.2369  0.4379  1.6502
 2445TIP3   OH228969   2.511   6.512   1.288 -0.1913 -0.0467 -0.2583
 2445TIP3    H128970   2.607   6.510   1.296 -0.1970 -2.4094 -0.0426
 2445TIP3    H228971   2.485   6.588   1.339  1.5281  0.1454  0.4277
 2446TIP3   OH228972   4.640   1.364   8.156 -0.2100  0.1985 -0.2380
 2446TIP3    H128973   4.563   1.341   8.104 -0.0491 -0.9999  0.0303
 2446TIP3    H228974   4.610   1.360   8.246  0.8047 -3.3010  0.1073
 2447TIP3   OH228975   2.581   4.270   8.001  0.0788  0.4574 -0.2016
 2447TIP3    H128976   2.585   4.239   7.911  1.8551 -0.6403  0.2190
 2447TIP3    H228977   2.495   4.242   8.032 -0.1784  0.0240 -1.2522
 2448TIP3   OH228978   1.432   1.967   8.345 -0.2777  0.6583 -0.3185
 2448TIP3    H128979   1.352   2.013   8.370 -0.5699 -0.3501  0.6621
 2448TIP3    H228980   1.470   2.022   8.276 -2.0774  0.8799 -1.1975
 2449TIP3   OH228981   3.078   1.634   1.295 -0.8832 -0.1588  0.2787
 2449TIP3    H128982   3.158   1.583   1.313 -0.1340  1.1378  0.7536
 2449TIP3    H228983   3.033   1.638   1.379 -1.4142 -0.7872  0.0369
 2450TIP3   OH228984   6.416   5.097   7.712  0.8934  0.7080  0.0733
 2450TIP3    H128985   6.330   5.125   7.745  1.1571  0.2086  1.2473
 2450TIP3    H228986   6.468   5.177   7.710  0.4151  1.0160 -0.6475
 2451TIP3   OH228987   5.978   1.648   0.420 -0.1161 -0.4678  0.3204
 2451TIP3    H128988   6.014   1.736   0.411  2.9995 -1.2086  3.3501
 2451TIP3    H228989   5.917   1.654   0.493 -1.3460 -0.4944 -0.6868
 2452TIP3   OH228990   4.067   1.350   1.829 -0.0660  0.3378 -0.6744
 2452TIP3    H128991   4.012   1.388   1.760 -1.3287 -1.9312 -1.0199
 2452TIP3    H228992   4.088   1.262   1.798  1.2380  0.0561  0.8500
 2453TIP3   OH228993   2.916   2.030   2.121  0.4020  0.7087  0.0659
 2453TIP3    H128994   2.900   2.046   2.214  0.8553  1.5136  0.0190
 2453TIP3    H228995   3.012   2.034   2.112  0.4709 -0.7628 -0.2027
 2454TIP3   OH228996   4.133   2.277   0.616 -0.2994  0.6311 -0.4642
 2454TIP3    H128997   4.152   2.357   0.664 -0.3272  0.8398 -0.8045
 2454TIP3    H228998   4.050   2.294   0.572  0.6021  1.0824 -2.0258
 2455TIP3   OH228999   5.437   4.702   2.659  0.5435  0.5775 -0.1643
 2455TIP3    H129000   5.521   4.662   2.636  0.1951  0.6480 -1.6715
 2455TIP3    H229001   5.408   4.655   2.736  1.5734 -0.0247 -0.1324
 2456TIP3   OH229002   5.112   3.840   2.155  0.4923 -0.4684  0.1973
 2456TIP3    H129003   5.032   3.857   2.105  0.3570 -1.4268  0.0554
 2456TIP3    H229004   5.168   3.915   2.137 -0.3428  0.1768  0.2295
 2457TIP3   OH229005   0.805   1.679   7.867  0.3092 -0.2355  0.0739
 2457TIP3    H129006   0.840   1.619   7.802  1.5881 -2.1234  2.3250
 2457TIP3    H229007   0.848   1.762   7.850  2.0724 -1.1949 -0.3406
 2458TIP3   OH229008   3.874   6.033   8.027  0.3314 -0.3730 -0.7080
 2458TIP3    H129009   3.832   6.021   8.112  0.8917 -0.2609 -0.4078
 2458TIP3    H229010   3.804   6.020   7.963  0.2989 -2.4625 -0.3282
 2459TIP3   OH229011   3.428   0.730   7.827  0.5721  0.4136 -0.4795
 2459TIP3    H129012   3.461   0.749   7.739  0.9102  2.0557 -0.0485
 2459TIP3    H229013   3.385   0.812   7.854 -0.4561 -0.4129  0.4721
 2460TIP3   OH229014   4.044   4.761   8.789 -0.0035  0.2337 -0.4724
 2460TIP3    H129015   3.992   4.801   8.859  0.6464  0.1003  0.0976
 2460TIP3    H229016   4.065   4.833   8.730  2.2566  1.0766  1.2056
 2461TIP3   OH229017   4.193   0.306   0.905  0.4436  0.4515 -0.5307
 2461TIP3    H129018   4.128   0.323   0.972 -0.0278  0.7537 -1.0606
 2461TIP3    H229019   4.246   0.385   0.901 -0.3123  0.9265 -1.3851
 2462TIP3   OH229020   1.023   3.610   8.654  0.0273  0.2938 -0.0778
 2462TIP3    H129021   1.092   3.543   8.658  2.3215  2.4573 -0.5220
 2462TIP3    H229022   0.998   3.623   8.746  0.4826 -0.2944  0.1393
 2463TIP3   OH229023   5.471   2.201   2.805 -0.0653 -0.0131 -0.5080
 2463TIP3    H129024   5.482   2.122   2.753  0.7113  0.5279 -1.1902
 2463TIP3    H229025   5.376   2.218   2.804 -0.3188 -1.2934  0.2176
 2464TIP3   OH229026   2.419   2.838   0.378 -0.0055 -0.3310 -0.1352
 2464TIP3    H129027   2.475   2.902   0.334 -0.3346  0.2635  0.2894
 2464TIP3    H229028   2.429   2.858   0.471  1.0405 -1.8660  0.1116
 2465TIP3   OH229029   0.113   6.167   7.399 -0.5676 -0.1101 -0.2113
 2465TIP3    H129030   0.018   6.172   7.411 -0.4019  0.0504  1.2640
 2465TIP3    H229031   0.147   6.147   7.487  0.6890 -1.2717 -0.9260
 2466TIP3   OH229032   5.651   5.900   1.817 -0.9216 -0.1840 -0.2711
 2466TIP3    H129033   5.586   5.832   1.799  0.6528 -1.5035 -1.2443
 2466TIP3    H229034   5.735   5.858   1.799  0.1500  1.8423 -0.2551
 2467TIP3   OH229035   4.708   4.634   2.036  0.4961 -0.3907 -0.4000
 2467TIP3    H129036   4.625   4.592   2.061  0.7441  0.1094  1.4486
 2467TIP3    H229037   4.682   4.720   2.003  0.2860 -0.0643  0.5893
 2468TIP3   OH229038   3.844   1.971   1.741  0.1456  0.3764  0.5628
 2468TIP3    H129039   3.886   1.893   1.704  0.6996  0.4420  1.0419
 2468TIP3    H229040   3.917   2.023   1.775 -0.3255  0.4551  1.4785
 2469TIP3   OH229041   0.373   0.060   7.694  0.0596 -0.2941 -0.4143
 2469TIP3    H129042   0.350   0.014   7.775 -0.9791 -1.5387 -1.3833
 2469TIP3    H229043   0.289   0.091   7.659  0.7322  2.8295  0.4154
 2470TIP3   OH229044   4.882   4.088   7.695  0.8986  0.3118 -0.2058
 2470TIP3    H129045   4.854   4.010   7.647  0.8274 -0.2674  0.7340
 2470TIP3    H229046   4.957   4.121   7.646  0.7282 -0.1605 -0.8019
 2471TIP3   OH229047   0.517   1.184   8.171  0.0386  0.2635 -0.5953
 2471TIP3    H129048   0.513   1.279   8.185  0.1307  0.0882  0.7517
 2471TIP3    H229049   0.426   1.157   8.162 -0.1083  0.2981  0.5394
 2472TIP3   OH229050   0.958   5.707   2.704 -0.1139  0.0034 -0.1181
 2472TIP3    H129051   1.042   5.673   2.733 -0.2677 -0.3905 -0.1242
 2472TIP3    H229052   0.935   5.774   2.768  0.4053  0.4107 -0.3566
 2473TIP3   OH229053   0.710   3.950   7.713  0.5942  0.3165  0.0109
 2473TIP3    H129054   0.739   3.859   7.717 -0.1045  0.1092  0.4305
 2473TIP3    H229055   0.617   3.947   7.734  0.0908  0.8993 -1.9312
 2474TIP3   OH229056   5.307   1.313   8.727  0.3674  0.1316 -0.0385
 2474TIP3    H129057   5.339   1.394   8.687  1.0047  0.1107  0.4265
 2474TIP3    H229058   5.230   1.290   8.674 -0.7985  1.8874  0.7615
 2475TIP3   OH229059   0.841   4.115   7.899  0.2870  0.6115  0.1089
 2475TIP3    H129060   0.910   4.133   7.835  1.4189  0.1587  1.1513
 2475TIP3    H229061   0.792   4.043   7.861  0.8855  0.4077 -0.3021
 2476TIP3   OH229062   4.563   4.869   7.068  0.1280 -0.1823 -0.2361
 2476TIP3    H129063   4.605   4.949   7.036  0.5921 -0.0015  0.7916
 2476TIP3    H229064   4.486   4.900   7.115  0.7895 -0.2547  0.9341
 2477TIP3   OH229065   4.578   0.256   0.735 -0.3476 -0.1675  0.1907
 2477TIP3    H129066   4.521   0.206   0.793  0.4493 -1.6153 -0.2087
 2477TIP3    H229067   4.561   0.347   0.758 -1.8489 -0.5964  0.9689
 2478TIP3   OH229068   2.105   3.438   1.665  0.1919 -0.3857 -0.3874
 2478TIP3    H129069   2.103   3.351   1.704 -0.7056 -0.5337 -0.7466
 2478TIP3    H229070   2.151   3.426   1.582  2.2072 -0.0495  0.6164
 2479TIP3   OH229071   5.190   4.820   1.929 -0.0791  0.6703 -0.2579
 2479TIP3    H129072   5.198   4.814   1.834  0.1593  1.0229 -0.2653
 2479TIP3    H229073   5.265   4.770   1.962 -0.1707  0.5348 -0.2556
 2480TIP3   OH229074   5.460   6.825   8.357 -0.3117  0.6734  0.3937
 2480TIP3    H129075   5.427   6.912   8.335  1.9166  1.7212  0.9174
 2480TIP3    H229076   5.462   6.823   8.452 -0.1904  0.0982  0.3838
 2481TIP3   OH229077   1.434   1.940   2.359  0.4055  0.3586  0.4294
 2481TIP3    H129078   1.516   1.955   2.312 -0.1013  1.1091 -0.2521
 2481TIP3    H229079   1.396   1.862   2.318  0.2295  0.6906 -0.0511
 2482TIP3   OH229080   1.566   5.030   8.739  0.4994  0.8083 -0.2273
 2482TIP3    H129081   1.605   4.949   8.705 -3.3692 -0.5834 -1.8356
 2482TIP3    H229082   1.595   5.098   8.677 -0.4163 -0.3641 -2.0341
 2483TIP3   OH229083   5.719   1.079   1.158 -0.1120  0.2813 -0.4872
 2483TIP3    H129084   5.738   1.154   1.215 -0.9461 -0.2752  0.5354
 2483TIP3    H229085   5.669   1.018   1.212  2.1344 -1.9071 -0.6883
 2484TIP3   OH229086   1.989   1.815   3.038 -0.5897  0.3258  0.0141
 2484TIP3    H129087   2.032   1.733   3.013 -0.1523  0.2561  0.9641
 2484TIP3    H229088   2.061   1.873   3.064 -0.7645  1.4883 -1.8859
 2485TIP3   OH229089   6.203   3.618   8.679 -0.5553  0.1473  0.4185
 2485TIP3    H129090   6.256   3.687   8.718 -1.0423  0.5660  0.3550
 2485TIP3    H229091   6.263   3.572   8.620 -0.0468  0.0671  0.9904
 2486TIP3   OH229092   1.501   2.794   3.063 -0.1258 -0.1424 -0.1023
 2486TIP3    H129093   1.423   2.849   3.057 -0.0391 -0.0846 -0.8897
 2486TIP3    H229094   1.467   2.705   3.071 -0.3038 -0.2035 -1.2599
 2487TIP3   OH229095   3.513   4.173   8.475 -0.3259  0.2893  0.1299
 2487TIP3    H129096   3.461   4.094   8.463 -0.1445  0.3211 -0.9811
 2487TIP3    H229097   3.566   4.155   8.553  0.9219 -1.3789 -1.0378
 2488TIP3   OH229098   3.608   6.121   7.580 -0.1147 -0.0533 -0.1476
 2488TIP3    H129099   3.646   6.034   7.568 -1.2520 -0.6791  0.6223
 2488TIP3    H229100   3.552   6.134   7.503  0.0528  0.0096 -0.2612
 2489TIP3   OH229101   5.248   2.135   0.811  0.4123  0.2935 -0.1346
 2489TIP3    H129102   5.157   2.130   0.839  1.0799 -1.0505  1.9908
 2489TIP3    H229103   5.267   2.228   0.806 -0.2264  0.6562  2.5882
 2490TIP3   OH229104   0.819   3.460   0.215  0.0916  0.0225 -0.6621
 2490TIP3    H129105   0.758   3.449   0.142  0.9401 -0.0763 -1.3795
 2490TIP3    H229106   0.868   3.378   0.218 -0.2012 -0.1292  0.2866
 2491TIP3   OH229107   4.805   3.542   8.093 -0.2086 -1.0106 -0.0590
 2491TIP3    H129108   4.871   3.541   8.162  0.0988  2.2972 -0.1503
 2491TIP3    H229109   4.856   3.543   8.012 -0.4591 -1.1573 -0.2194
 2492TIP3   OH229110   0.585   1.349   3.116 -0.2511  0.4483  0.6084
 2492TIP3    H129111   0.599   1.427   3.062  0.5687 -0.5893 -0.7471
 2492TIP3    H229112   0.490   1.348   3.130 -0.2334  1.9116  1.0333
 2493TIP3   OH229113   5.812   3.445   1.269 -0.3836  0.0832  0.0839
 2493TIP3    H129114   5.721   3.464   1.295 -0.4863  0.2083 -0.3615
 2493TIP3    H229115   5.822   3.487   1.184  0.7827  1.9444  1.0950
 2494TIP3   OH229116   4.363   2.424   8.239 -0.1075  0.3547 -0.3768
 2494TIP3    H129117   4.310   2.387   8.168  0.8652 -0.7938 -0.5399
 2494TIP3    H229118   4.419   2.351   8.267  0.4400  1.1648  0.6899
 2495TIP3   OH229119   0.419   2.875   2.216  0.6787  0.0681 -0.0979
 2495TIP3    H129120   0.328   2.897   2.232  0.8223  0.8965 -0.3427
 2495TIP3    H229121   0.439   2.916   2.131  1.0058 -0.9218 -0.5101
 2496TIP3   OH229122   3.086   5.585   2.169 -0.1959  0.0125 -0.0396
 2496TIP3    H129123   3.007   5.565   2.220  0.6061 -2.3568  0.3640
 2496TIP3    H229124   3.079   5.679   2.150 -0.6230  1.0473  4.2970
 2497TIP3   OH229125   1.437   3.419   1.677  0.3438 -0.2348  0.0135
 2497TIP3    H129126   1.497   3.490   1.699  1.0798 -0.7891 -0.1660
 2497TIP3    H229127   1.360   3.435   1.731 -0.3010  1.7866 -1.4340
 2498TIP3   OH229128   4.953   3.712   7.867 -0.0724 -0.4397  0.6395
 2498TIP3    H129129   4.869   3.732   7.826  0.6785  1.7046  0.0090
 2498TIP3    H229130   4.997   3.655   7.805  0.4153  1.5050 -0.9179
 2499TIP3   OH229131   4.342   3.105   0.272 -0.5114  0.1950 -0.7030
 2499TIP3    H129132   4.313   3.139   0.188  0.3764 -0.2412 -1.2054
 2499TIP3    H229133   4.437   3.119   0.273 -0.4620 -0.1051  0.0818
 2500TIP3   OH229134   1.776   2.926   8.636  0.0676  0.0341 -0.5058
 2500TIP3    H129135   1.778   2.832   8.654 -0.9788 -0.1340 -1.2424
 2500TIP3    H229136   1.768   2.932   8.541 -0.0987  0.8754 -0.4414
 2501TIP3   OH229137   4.729   5.216   0.505 -0.0366 -0.3847  0.7212
 2501TIP3    H129138   4.723   5.312   0.506  0.8683 -0.3095  0.0669
 2501TIP3    H229139   4.794   5.195   0.571  0.8739 -0.4396 -0.1692
 2502TIP3   OH229140   3.759   3.662   7.455  0.4360  0.3125  0.7527
 2502TIP3    H129141   3.729   3.739   7.502  1.3548  0.8700  0.4541
 2502TIP3    H229142   3.840   3.690   7.412  0.7950 -0.8243  0.6537
 2503TIP3   OH229143   0.717   4.790   1.573 -0.5779  0.4102  0.2161
 2503TIP3    H129144   0.747   4.699   1.577  0.6544  0.8045  0.5117
 2503TIP3    H229145   0.634   4.786   1.525 -0.3550 -0.8237 -0.1075
 2504TIP3   OH229146   3.029   0.920   0.788 -0.6044  0.3250 -0.2809
 2504TIP3    H129147   3.070   0.874   0.714 -1.5207 -0.5030 -0.3019
 2504TIP3    H229148   3.010   0.851   0.851  1.6684  1.2096  1.5301
 2505TIP3   OH229149   0.552   2.790   8.200  0.3359  1.0043  0.6200
 2505TIP3    H129150   0.608   2.740   8.141 -0.5506 -1.3901  1.6670
 2505TIP3    H229151   0.471   2.804   8.150  0.2832  0.6431  0.6001
 2506TIP3   OH229152   2.699   3.813   1.000  0.2471 -0.1835  0.0248
 2506TIP3    H129153   2.634   3.793   0.933 -0.0030 -1.6307  0.6589
 2506TIP3    H229154   2.706   3.733   1.051  1.2064  0.5469  1.0900
 2507TIP3   OH229155   4.846   3.179   3.796 -0.0057  0.3888  0.2869
 2507TIP3    H129156   4.774   3.234   3.826 -0.8120 -0.0504 -0.7826
 2507TIP3    H229157   4.910   3.183   3.867 -1.2269  0.5214  1.4231
 2508TIP3   OH229158   1.789   6.086   7.738  0.2390 -0.2725  0.1306
 2508TIP3    H129159   1.819   6.004   7.777 -0.6610 -0.0549  1.3619
 2508TIP3    H229160   1.866   6.142   7.738  0.6417 -0.8211  0.1034
 2509TIP3   OH229161   5.854   5.042   8.484  0.5324  0.3103  0.0323
 2509TIP3    H129162   5.835   4.982   8.412  0.7994  0.0026  0.2189
 2509TIP3    H229163   5.922   4.998   8.535  0.9206  0.8833  0.0192
 2510TIP3   OH229164   1.424   4.028   1.033  0.0521 -0.2109 -0.6368
 2510TIP3    H129165   1.505   4.022   1.084 -0.1118 -0.9138 -0.4580
 2510TIP3    H229166   1.360   4.065   1.093 -0.4935 -2.2578  0.1093
 2511TIP3   OH229167   3.791   1.167   1.149  0.1185 -0.1792 -0.5714
 2511TIP3    H129168   3.718   1.109   1.127  0.0792  0.5148 -2.3750
 2511TIP3    H229169   3.749   1.246   1.183  0.1717 -1.0733  1.8385
 2512TIP3   OH229170   4.365   3.975   1.809 -0.4801 -0.1066 -0.2388
 2512TIP3    H129171   4.302   3.960   1.739  1.4351 -1.1706 -1.8699
 2512TIP3    H229172   4.414   4.053   1.781  1.0204 -1.1711 -0.7333
 2513TIP3   OH229173   3.256   2.619   7.723  0.4180 -0.0148  0.2387
 2513TIP3    H129174   3.288   2.612   7.813  1.7750 -0.3600 -0.2547
 2513TIP3    H229175   3.265   2.531   7.687 -0.1756  0.1075 -0.2303
 2514TIP3   OH229176   0.648   5.974   0.836  0.1639  0.0768  0.2407
 2514TIP3    H129177   0.607   5.895   0.799  0.6675 -0.0663 -0.0274
 2514TIP3    H229178   0.575   6.027   0.866 -0.1900 -0.4416  0.3138
 2515TIP3   OH229179   0.407   5.909   2.401 -0.0660  0.2681 -0.1711
 2515TIP3    H129180   0.379   5.914   2.493  2.2246  4.0883  0.5644
 2515TIP3    H229181   0.476   5.843   2.401 -1.9557 -1.8129  0.1478
 2516TIP3   OH229182   2.919   5.251   1.979 -0.3908 -0.0463 -0.5147
 2516TIP3    H129183   2.879   5.173   2.017  0.0197  0.0707  0.1838
 2516TIP3    H229184   3.003   5.259   2.024  0.9335 -0.8945 -2.6665
 2517TIP3   OH229185   0.037   1.190   0.219 -0.0928  0.2613 -0.2634
 2517TIP3    H129186   0.105   1.218   0.158  0.6267  0.7659  0.7236
 2517TIP3    H229187  -0.001   1.112   0.180  2.4900 -1.2914  0.1060
 2518TIP3   OH229188   4.873   2.570   7.790 -0.6079  0.2053  0.3587
 2518TIP3    H129189   4.795   2.575   7.735 -1.2809 -0.0774  1.2601
 2518TIP3    H229190   4.938   2.624   7.745 -1.3781  0.5996 -0.3097
 2519TIP3   OH229191   2.232   4.206   0.474  0.0763  0.0665  0.1995
 2519TIP3    H129192   2.178   4.156   0.413 -0.6874  0.2878  0.6687
 2519TIP3    H229193   2.197   4.184   0.560  1.8765 -1.1416  0.6744
 2520TIP3   OH229194   3.231   5.139   7.655 -0.2373  0.1487 -0.0008
 2520TIP3    H129195   3.241   5.233   7.638 -0.8146  0.2316  0.1100
 2520TIP3    H229196   3.217   5.101   7.569  0.8006  0.0503 -0.1436
 2521TIP3   OH229197   0.223   3.465   0.160 -0.1221 -0.0243 -0.8234
 2521TIP3    H129198   0.208   3.380   0.120 -0.1474 -0.6126  0.4139
 2521TIP3    H229199   0.151   3.519   0.128 -0.8637 -0.8414 -0.5523
 2522TIP3   OH229200   4.662   3.186   2.291  0.0528 -0.0971  0.4223
 2522TIP3    H129201   4.596   3.134   2.337 -0.3168 -0.0852 -0.0773
 2522TIP3    H229202   4.619   3.271   2.276  0.3536  0.0716  0.5108
 2523TIP3   OH229203   1.340   6.345   1.438 -0.3150  0.4191 -1.1601
 2523TIP3    H129204   1.390   6.264   1.452  0.3097  0.9039 -0.4704
 2523TIP3    H229205   1.290   6.356   1.519 -1.2002  0.1807 -1.6670
 2524TIP3   OH229206   1.370   0.748   7.149  0.2820  0.0291 -0.4049
 2524TIP3    H129207   1.463   0.729   7.158 -0.4794 -3.8476  1.4840
 2524TIP3    H229208   1.357   0.827   7.202  1.9985 -1.5512  2.6806
 2525TIP3   OH229209   5.379   4.397   7.615  0.0613  0.5412  0.6168
 2525TIP3    H129210   5.397   4.315   7.568  1.1119  0.4928  1.0795
 2525TIP3    H229211   5.370   4.463   7.546  0.0785  0.1958  0.2803
 2526TIP3   OH229212   0.558   4.666   0.286  0.6166 -0.8609 -0.3626
 2526TIP3    H129213   0.478   4.719   0.279  0.7462 -0.8668 -2.5648
 2526TIP3    H229214   0.527   4.579   0.310 -0.3049 -1.3097 -2.8699
 2527TIP3   OH229215   4.505   0.323   2.231  0.1388  0.3067 -0.5796
 2527TIP3    H129216   4.567   0.251   2.229 -1.0567 -0.7688 -2.3123
 2527TIP3    H229217   4.501   0.354   2.140 -0.9095  1.1713 -0.2671
 2528TIP3   OH229218   1.486   0.273   3.265  0.1331 -0.4008 -0.0556
 2528TIP3    H129219   1.393   0.262   3.287  0.0492  0.5704  0.0969
 2528TIP3    H229220   1.532   0.255   3.346 -0.0452  1.0119  0.3767
 2529TIP3   OH229221   4.021   0.856   1.277 -1.0007 -0.2844  0.1679
 2529TIP3    H129222   4.064   0.930   1.319 -0.0845 -0.9280  0.3992
 2529TIP3    H229223   3.955   0.895   1.220 -0.5165  0.6982  0.2653
 2530TIP3   OH229224   6.001   3.695   2.162  0.2429  0.5896 -0.3264
 2530TIP3    H129225   6.090   3.715   2.133  1.4542 -1.8682  1.3964
 2530TIP3    H229226   6.006   3.693   2.257 -0.9011 -2.3999 -0.2296
 2531TIP3   OH229227   2.405   5.409   0.819 -0.2237  0.7256  0.1123
 2531TIP3    H129228   2.378   5.470   0.751 -2.1148  0.5643  0.6384
 2531TIP3    H229229   2.423   5.463   0.895 -2.3560  0.6890  0.7195
 2532TIP3   OH229230   2.302   5.413   1.998  0.0177  0.1682 -0.2621
 2532TIP3    H129231   2.268   5.327   2.023  0.4736  0.2597  0.7226
 2532TIP3    H229232   2.384   5.422   2.046  0.9032  0.4184 -1.7549
 2533TIP3   OH229233   5.254   4.825   0.937 -0.5597 -0.3172  0.5525
 2533TIP3    H129234   5.277   4.861   0.851  0.2282 -0.3546  0.7320
 2533TIP3    H229235   5.239   4.902   0.992 -1.1777 -0.2942  0.3563
 2534TIP3   OH229236   0.460   0.364   1.821 -0.4143 -0.1666  0.1544
 2534TIP3    H129237   0.444   0.410   1.903  1.3063  0.5939  0.1200
 2534TIP3    H229238   0.396   0.399   1.760  1.5503  3.2383 -0.2178
 2535TIP3   OH229239   6.433   3.085   8.487  0.3192  0.6574 -0.6926
 2535TIP3    H129240   6.450   3.163   8.540  1.1936 -1.0778  1.7955
 2535TIP3    H229241   6.520   3.056   8.460  0.2420 -0.5823  0.2629
 2536TIP3   OH229242   4.315   4.970   0.118  0.0245  0.0962  0.4520
 2536TIP3    H129243   4.350   4.934   0.199 -1.0157 -2.6235 -0.1958
 2536TIP3    H229244   4.220   4.973   0.132 -0.1851 -0.5867 -0.7101
 2537TIP3   OH229245   1.818   2.229   8.344 -0.0158 -0.0721  0.0897
 2537TIP3    H129246   1.823   2.184   8.260 -1.1636 -0.5457  0.2708
 2537TIP3    H229247   1.802   2.321   8.321  0.4649 -0.0636 -0.2242
 2538TIP3   OH229248   0.500   2.600   2.731  0.3520 -0.2950 -0.2795
 2538TIP3    H129249   0.522   2.677   2.784 -0.4121  0.5541 -1.1611
 2538TIP3    H229250   0.408   2.583   2.752  0.4311 -0.7832 -0.3257
 2539TIP3   OH229251   4.331   0.594   0.180 -0.0459 -0.3617  0.3371
 2539TIP3    H129252   4.345   0.516   0.125  0.8408 -0.4363  0.6684
 2539TIP3    H229253   4.397   0.588   0.249 -1.0140 -0.1580  1.3082
 2540TIP3   OH229254   6.720   0.784   0.887  0.0757  0.3399  0.5617
 2540TIP3    H129255   6.648   0.764   0.947 -3.4805  0.9146 -3.0961
 2540TIP3    H229256   6.699   0.871   0.853  2.2621  0.3154 -1.0273
 2541TIP3   OH229257   5.844   2.900   1.555  0.0940 -0.3140  0.7420
 2541TIP3    H129258   5.840   2.925   1.647  0.5965  0.6987  0.5006
 2541TIP3    H229259   5.758   2.862   1.537  0.1889 -1.0559  1.7658
 2542TIP3   OH229260   6.579   0.594   0.596  0.5708 -0.0924 -0.5487
 2542TIP3    H129261   6.612   0.585   0.506  0.0191  1.0574 -0.8913
 2542TIP3    H229262   6.595   0.686   0.618  1.2173 -0.5029  0.7521
 2543TIP3   OH229263   3.917   1.867   3.345  0.0494  0.7720 -0.1685
 2543TIP3    H129264   3.958   1.791   3.384 -1.7969 -0.3391 -0.2641
 2543TIP3    H229265   3.832   1.875   3.390  0.6974  3.6000  0.8008
 2544TIP3   OH229266   4.181   5.257   8.699 -0.1483  0.6664 -0.5395
 2544TIP3    H129267   4.104   5.280   8.647 -0.1656 -0.4743 -1.0435
 2544TIP3    H229268   4.226   5.191   8.647 -0.8664 -1.5436  1.4792
 2545TIP3   OH229269   1.787   4.311   3.235  0.4092  0.5062 -0.3847
 2545TIP3    H129270   1.853   4.347   3.295  0.7664  0.2668 -0.6295
 2545TIP3    H229271   1.738   4.249   3.289  0.9096  0.0861 -0.4043
 2546TIP3   OH229272   0.746   0.780   2.755 -0.1300 -0.4487 -0.4582
 2546TIP3    H129273   0.797   0.811   2.829 -1.0686  1.8287 -0.6949
 2546TIP3    H229274   0.670   0.737   2.795 -0.9027  1.2341 -0.0266
 2547TIP3   OH229275   3.209   2.411   0.604 -0.1688 -0.3387 -0.4844
 2547TIP3    H129276   3.114   2.407   0.593 -0.1485  1.1958 -1.5824
 2547TIP3    H229277   3.240   2.325   0.576 -1.2475 -0.9760  0.2034
 2548TIP3   OH229278   3.477   4.361   8.264  0.3703 -0.2048  0.0643
 2548TIP3    H129279   3.499   4.430   8.326  1.5474 -0.0020 -0.5402
 2548TIP3    H229280   3.496   4.280   8.311  0.6116 -0.0712  0.2018
 2549TIP3   OH229281   4.308   3.147   2.023  0.7695 -0.6696 -0.2237
 2549TIP3    H129282   4.296   3.148   2.118 -3.0803  1.0045 -0.5316
 2549TIP3    H229283   4.339   3.236   2.003  2.1559 -1.2005 -0.5763
 2550TIP3   OH229284   6.370   4.771   3.251  0.3990  0.0642  0.1856
 2550TIP3    H129285   6.330   4.822   3.181  0.1263  0.0154  0.3022
 2550TIP3    H229286   6.431   4.831   3.293 -1.1384  0.8491  1.4051
 2551TIP3   OH229287   6.064   4.175   0.038  0.3674 -0.3613  0.3565
 2551TIP3    H129288   6.030   4.265   0.033  0.5249 -0.2680  0.8842
 2551TIP3    H229289   6.129   4.178   0.108  2.5415 -0.2112 -1.5811
 2552TIP3   OH229290   3.340   5.788   1.243  0.2302  0.2806  0.2140
 2552TIP3    H129291   3.256   5.831   1.230  0.0288 -0.2057 -0.1117
 2552TIP3    H229292   3.397   5.857   1.276  0.3697  1.2122 -1.8347
 2553TIP3   OH229293   5.781   1.620   2.037 -0.2044 -0.1879 -0.0779
 2553TIP3    H129294   5.691   1.648   2.055  0.3921  1.2418  0.8814
 2553TIP3    H229295   5.835   1.692   2.070  1.2855 -0.8478 -0.9795
 2554TIP3   OH229296   4.593   1.040   8.604 -0.8250  0.0660 -0.0006
 2554TIP3    H129297   4.650   1.113   8.630 -0.1482 -0.7942  0.9957
 2554TIP3    H229298   4.588   0.985   8.682 -0.9090 -1.2228 -0.8910
 2555TIP3   OH229299   6.126   0.010   7.629 -0.0983  0.1275  0.2072
 2555TIP3    H129300   6.154   0.025   7.719 -2.6234  0.5753  0.9943
 2555TIP3    H229301   6.044  -0.039   7.637 -1.3467  1.7513 -1.7459
 2556TIP3   OH229302   6.557   4.114   1.366 -0.2116  0.0851 -0.5187
 2556TIP3    H129303   6.604   4.183   1.319 -0.6491  0.8552  0.1431
 2556TIP3    H229304   6.465   4.136   1.355 -0.6031 -2.3128 -3.2120
 2557TIP3   OH229305   2.633   1.109   8.577 -0.4013 -0.5264 -0.3871
 2557TIP3    H129306   2.690   1.163   8.522 -1.6174  2.0638  0.7327
 2557TIP3    H229307   2.549   1.109   8.531 -0.2079 -2.3585 -0.8363
 2558TIP3   OH229308   0.466   2.678   7.630  0.0155  0.2836 -0.6963
 2558TIP3    H129309   0.491   2.593   7.666  0.4999  0.7177  0.0427
 2558TIP3    H229310   0.381   2.664   7.589 -1.3371  0.0892  1.9916
 2559TIP3   OH229311   0.737   5.460   0.360  0.4214  0.1718  0.4119
 2559TIP3    H129312   0.665   5.512   0.395  1.0772  0.6117  1.1448
 2559TIP3    H229313   0.695   5.394   0.304 -0.4869  0.8292  0.3124
 2560TIP3   OH229314   5.894   3.122   7.244  0.1854  0.1920 -0.3429
 2560TIP3    H129315   5.802   3.148   7.238 -0.2524 -1.1627  0.1997
 2560TIP3    H229316   5.900   3.041   7.193  1.2707  0.7098 -1.0719
 2561TIP3   OH229317   4.446   5.284   2.145  0.3217  0.3983 -0.8271
 2561TIP3    H129318   4.361   5.270   2.104  1.4409  0.0471 -3.2289
 2561TIP3    H229319   4.495   5.335   2.081  1.6538  1.3680  0.8824
 2562TIP3   OH229320   0.737   3.160   0.465 -0.1157  0.1353 -0.0363
 2562TIP3    H129321   0.669   3.147   0.398 -0.3511 -1.7249  0.4855
 2562TIP3    H229322   0.748   3.073   0.504  1.2500  0.8099  1.1687
 2563TIP3   OH229323   5.317   4.140   1.240 -0.3604 -0.2662  0.3328
 2563TIP3    H129324   5.335   4.158   1.148  2.6371 -1.7220  0.5025
 2563TIP3    H229325   5.383   4.191   1.288  2.0675 -3.9091  1.2428
 2564TIP3   OH229326   0.470   5.749   8.368 -0.2175 -0.0651 -0.2440
 2564TIP3    H129327   0.444   5.660   8.392  0.8567 -0.2921  0.1475
 2564TIP3    H229328   0.480   5.747   8.273 -0.4510 -0.2816 -0.2665
 2565TIP3   OH229329   2.031   2.640   2.114  0.2045 -0.2380 -0.3683
 2565TIP3    H129330   2.029   2.547   2.135  0.5520  0.0189  0.8845
 2565TIP3    H229331   2.121   2.667   2.134 -0.2566  0.6388  0.6254
 2566TIP3   OH229332   3.157   3.010   0.729  0.1839 -0.1623  0.2297
 2566TIP3    H129333   3.127   3.100   0.720  1.3206  0.4314  2.0218
 2566TIP3    H229334   3.077   2.960   0.744 -0.4146  0.5684 -0.4181
 2567TIP3   OH229335   5.355   2.728   2.612 -0.2525 -0.3903 -0.2507
 2567TIP3    H129336   5.293   2.706   2.682  1.4267 -0.2925  1.3466
 2567TIP3    H229337   5.372   2.821   2.624 -0.1370 -0.3169 -0.9683
 2568TIP3   OH229338   1.700   4.782   7.472  0.0732  0.0580 -0.6386
 2568TIP3    H129339   1.739   4.700   7.503 -0.4411  0.1297  0.2544
 2568TIP3    H229340   1.624   4.755   7.420 -0.4547 -0.0411  0.1599
 2569TIP3   OH229341   5.141   1.319   1.486  0.3177  0.7916 -0.5173
 2569TIP3    H129342   5.182   1.300   1.570  1.6491 -1.1932 -1.5355
 2569TIP3    H229343   5.077   1.249   1.474 -1.3477  2.1996 -0.3004
 2570TIP3   OH229344   6.398   4.956   1.090  0.2660 -0.1916  0.2174
 2570TIP3    H129345   6.488   4.990   1.098  0.5154 -0.9170  0.5338
 2570TIP3    H229346   6.345   5.034   1.075  1.0259  0.1835 -0.5985
 2571TIP3   OH229347   4.268   4.444   3.091  0.0392  0.1723  0.6959
 2571TIP3    H129348   4.266   4.364   3.144 -2.4747 -1.9308 -2.2168
 2571TIP3    H229349   4.193   4.495   3.121 -0.1732 -0.0514  0.5544
 2572TIP3   OH229350   4.927   3.733   0.610 -0.2327 -0.0055 -0.0857
 2572TIP3    H129351   4.887   3.647   0.602 -0.2103  0.0704 -1.0993
 2572TIP3    H229352   5.009   3.717   0.658 -0.6378 -0.4061  0.4918
 2573TIP3   OH229353   3.225   0.192   0.849 -0.6657  0.0574  0.2525
 2573TIP3    H129354   3.306   0.231   0.816  0.4274 -2.3999 -0.1993
 2573TIP3    H229355   3.218   0.222   0.939 -1.6972  3.8659 -0.8965
 2574TIP3   OH229356   5.621   2.360   1.077 -0.1513 -0.3349 -0.2398
 2574TIP3    H129357   5.707   2.320   1.081 -0.1283 -0.2664  0.0311
 2574TIP3    H229358   5.560   2.291   1.105 -0.6491 -1.6006 -3.9489
 2575TIP3   OH229359   3.741   0.079   0.242 -0.2057 -0.2356 -0.0843
 2575TIP3    H129360   3.751   0.173   0.256 -1.9344 -0.1613  1.0312
 2575TIP3    H229361   3.681   0.071   0.168  2.0212 -0.5444 -1.9468
 2576TIP3   OH229362   0.339   0.161   8.518  0.1066 -0.6603  0.2749
 2576TIP3    H129363   0.402   0.194   8.581 -0.8987 -0.6760  1.3119
 2576TIP3    H229364   0.272   0.229   8.511 -0.3167 -1.0926 -0.0074
 2577TIP3   OH229365   3.739   1.003   0.602 -0.2564 -0.5037  1.0500
 2577TIP3    H129366   3.777   1.071   0.546  0.8395 -0.6368  1.6178
 2577TIP3    H229367   3.661   1.044   0.640 -1.1895 -0.4930 -0.7594
 2578TIP3   OH229368   6.739   3.453   2.777  0.5695 -0.1396  0.0795
 2578TIP3    H129369   6.808   3.411   2.725 -1.4515 -0.6348 -2.4271
 2578TIP3    H229370   6.681   3.380   2.801 -0.2223  0.5504  0.2758
 2579TIP3   OH229371   4.666   4.483   8.802  0.2509 -0.2505 -0.2615
 2579TIP3    H129372   4.597   4.534   8.759  1.0392  0.5053 -0.6701
 2579TIP3    H229373   4.746   4.533   8.786  0.7526 -0.5876  1.0573
 2580TIP3   OH229374   2.928   6.635   2.918  0.7297  0.1692 -0.4356
 2580TIP3    H129375   2.986   6.708   2.940 -0.8065  1.3767 -0.1927
 2580TIP3    H229376   2.967   6.596   2.840  1.5860  1.2626 -0.5765
 2581TIP3   OH229377   4.550   2.468   2.858 -0.1584 -0.0855  0.0166
 2581TIP3    H129378   4.543   2.460   2.953  1.4809  0.0832  0.1731
 2581TIP3    H229379   4.463   2.443   2.826 -0.3900 -1.3115  1.4726
 2582TIP3   OH229380   6.306   5.174   2.228 -0.4276  0.5393  0.2916
 2582TIP3    H129381   6.366   5.183   2.154  2.5425  0.8802  2.5660
 2582TIP3    H229382   6.281   5.081   2.226  1.5941 -0.0646  0.2009
 2583TIP3   OH229383   3.507   4.754   0.457  0.3943 -0.4108  0.3755
 2583TIP3    H129384   3.586   4.704   0.434 -0.8715 -2.2255 -0.2740
 2583TIP3    H229385   3.512   4.764   0.552  1.0583 -1.1673  0.4308
 2584TIP3   OH229386   6.583   2.844   7.569  0.1440 -0.1681  0.0877
 2584TIP3    H129387   6.535   2.906   7.625  0.1758 -1.0962  1.1842
 2584TIP3    H229388   6.671   2.842   7.607  0.0052 -1.2381  0.3795
 2585TIP3   OH229389   4.542   2.141   8.809  0.3000  0.6613 -0.2987
 2585TIP3    H129390   4.580   2.063   8.770 -1.1339  0.1287 -0.6944
 2585TIP3    H229391   4.613   2.179   8.861  0.8120 -1.3119  0.5362
 2586TIP3   OH229392   0.263   5.308   8.711  0.2834 -0.1118  0.3451
 2586TIP3    H129393   0.175   5.302   8.675  0.6533  1.9407 -1.1387
 2586TIP3    H229394   0.318   5.259   8.650  0.4785  0.6844 -0.1340
 2587TIP3   OH229395   3.580   0.946   1.157 -0.2584  0.7236 -0.0177
 2587TIP3    H129396   3.563   0.947   1.063 -2.2400  2.8771  0.2697
 2587TIP3    H229397   3.514   0.887   1.193  0.2151  0.2433  0.0681
 2588TIP3   OH229398   6.046   5.681   7.559 -0.7691 -0.4938 -0.1912
 2588TIP3    H129399   5.960   5.685   7.517 -0.7877  0.8200 -0.0698
 2588TIP3    H229400   6.095   5.755   7.522  0.6202 -1.6937 -0.8843
 2589TIP3   OH229401   3.799   5.670   3.108  0.1874  0.3219  0.2590
 2589TIP3    H129402   3.732   5.736   3.089  0.5191  0.5674 -0.0627
 2589TIP3    H229403   3.857   5.672   3.032 -0.0998 -0.7186  0.0047
 2590TIP3   OH229404   5.210   0.448   2.285 -0.0003  0.0090  0.3384
 2590TIP3    H129405   5.148   0.416   2.220  0.2152 -2.6793  1.3440
 2590TIP3    H229406   5.162   0.445   2.368  0.3835  1.3862  0.6446
 2591TIP3   OH229407   3.093   2.588   7.226  0.6769  0.3460 -0.6001
 2591TIP3    H129408   3.057   2.675   7.245 -1.3143 -0.6633  0.5182
 2591TIP3    H229409   3.134   2.598   7.140  1.5003  2.6489 -0.0295
 2592TIP3   OH229410   3.785   3.785   6.920 -0.6276  0.5177  0.1685
 2592TIP3    H129411   3.855   3.771   6.984 -0.4093  0.6314 -0.0437
 2592TIP3    H229412   3.734   3.857   6.956 -0.4501  0.6442  0.1693
 2593TIP3   OH229413   1.335   5.057   1.673  0.1119  0.0108 -0.1140
 2593TIP3    H129414   1.376   5.114   1.607 -0.6000  1.2476  0.4616
 2593TIP3    H229415   1.255   5.025   1.630 -1.7957  2.9389  0.9014
 2594TIP3   OH229416   3.564   4.473   8.500 -0.0000 -0.0269 -0.2296
 2594TIP3    H129417   3.513   4.489   8.580  1.3028  0.7904  0.4870
 2594TIP3    H229418   3.613   4.555   8.488  1.8255 -1.1014 -0.3409
 2595TIP3   OH229419   2.923   3.510   2.107  0.0388 -0.1866  0.5100
 2595TIP3    H129420   2.880   3.567   2.172 -2.7453 -0.6902 -0.7189
 2595TIP3    H229421   2.910   3.421   2.141 -1.1759 -0.4302 -0.5395
 2596TIP3   OH229422   2.685   2.816   8.072 -0.2169 -0.3704  0.4454
 2596TIP3    H129423   2.617   2.874   8.038 -0.7534  0.1393  2.3075
 2596TIP3    H229424   2.637   2.743   8.111  0.2399  0.1108  1.9914
 2597TIP3   OH229425   4.401   2.900   1.150  0.0115  0.1290  0.3828
 2597TIP3    H129426   4.443   2.866   1.229 -0.2158  1.8030  1.2721
 2597TIP3    H229427   4.308   2.886   1.164 -0.0088  0.1322  0.2546
 2598TIP3   OH229428   1.599   5.619   0.247  0.7436 -0.1485  0.3603
 2598TIP3    H129429   1.535   5.550   0.266  0.4881  0.2171  0.8564
 2598TIP3    H229430   1.573   5.654   0.162  0.5781 -0.3332  0.3348
 2599TIP3   OH229431   6.710   0.224   2.228  0.0048  0.3086 -0.0555
 2599TIP3    H129432   6.662   0.307   2.229  2.5118  1.8570  0.0195
 2599TIP3    H229433   6.734   0.209   2.319 -1.4333 -1.1696  0.1113
 2600TIP3   OH229434   5.762   4.275   0.889 -0.0608  0.6856 -0.2552
 2600TIP3    H129435   5.847   4.231   0.888 -0.0182  0.6619  1.5967
 2600TIP3    H229436   5.780   4.361   0.926 -0.3729  1.8681 -2.6250
 2601TIP3   OH229437   6.011   0.420   2.343  0.1418  0.1721  0.3043
 2601TIP3    H129438   5.933   0.444   2.393  0.5170 -3.2262  2.9092
 2601TIP3    H229439   6.071   0.385   2.409  3.1366  0.8422 -1.8658
 2602TIP3   OH229440   4.880   0.490   8.240  0.6288 -0.8850 -0.4080
 2602TIP3    H129441   4.926   0.522   8.162 -1.2491 -0.9405 -1.5994
 2602TIP3    H229442   4.870   0.396   8.226  0.5316 -0.9480  0.0587
 2603TIP3   OH229443   1.331   1.494   7.311 -0.0341 -0.3705  0.2344
 2603TIP3    H129444   1.339   1.561   7.378 -2.2428  0.1269  0.0844
 2603TIP3    H229445   1.241   1.502   7.280  0.7496 -0.9000 -2.4597
 2604TIP3   OH229446   4.075   3.788   8.424  0.9082 -0.0813  0.1623
 2604TIP3    H129447   4.133   3.718   8.452  1.6053  0.4781  0.1561
 2604TIP3    H229448   4.048   3.764   8.336  1.6509 -0.0328 -0.0850
 2605TIP3   OH229449   6.106   4.060   0.510  0.4573  0.1836  0.2030
 2605TIP3    H129450   6.175   4.061   0.444 -1.1455  0.2318 -1.5416
 2605TIP3    H229451   6.131   3.988   0.568  1.3497 -0.6035 -1.0894
 2606TIP3   OH229452   1.388   4.567   7.622 -0.1565  0.1124  0.4242
 2606TIP3    H129453   1.311   4.522   7.656 -0.5127  0.4709  0.1092
 2606TIP3    H229454   1.353   4.644   7.577  0.3038 -0.2791 -0.6473
 2607TIP3   OH229455   5.834   3.760   1.965  0.2438 -0.1960 -0.3777
 2607TIP3    H129456   5.895   3.747   2.037 -1.3319  0.5819  1.2033
 2607TIP3    H229457   5.883   3.739   1.886  2.3971  0.0581  0.8367
 2608TIP3   OH229458   1.723   5.659   0.563  0.4317  0.3590  0.2184
 2608TIP3    H129459   1.751   5.582   0.513 -1.2714 -0.3045  0.1992
 2608TIP3    H229460   1.651   5.696   0.511  0.7430  1.5612  0.5966
 2609TIP3   OH229461   3.998   4.777   2.306 -1.0264 -0.0860 -0.4827
 2609TIP3    H129462   4.041   4.847   2.356 -1.6986  1.1779 -1.6081
 2609TIP3    H229463   3.951   4.726   2.372 -0.3388  0.3668  0.3927
 2610TIP3   OH229464   3.855   2.259   8.207  0.5370 -0.0852  0.0309
 2610TIP3    H129465   3.902   2.265   8.291  1.2093 -1.3116 -0.2334
 2610TIP3    H229466   3.853   2.349   8.175 -2.6351  1.0986  2.8415
 2611TIP3   OH229467   2.977   0.271   2.783  0.2128 -0.1781  0.0444
 2611TIP3    H129468   2.944   0.198   2.731  1.0608  0.6552 -1.7528
 2611TIP3    H229469   3.058   0.238   2.822 -0.7530 -1.0145  1.3877
 2612TIP3   OH229470   4.044   0.888   2.940  1.0211 -0.4051 -0.4145
 2612TIP3    H129471   4.015   0.878   3.031 -0.2138 -2.1459 -0.9533
 2612TIP3    H229472   4.075   0.801   2.915 -0.7348 -0.5604 -2.3241
 2613TIP3   OH229473   0.038   5.684   2.367 -0.2006  0.6837 -0.0524
 2613TIP3    H129474   0.133   5.692   2.356  0.4007 -3.2651  0.7327
 2613TIP3    H229475   0.026   5.671   2.461 -1.1465 -1.3265 -0.3955
 2614TIP3   OH229476   3.598   3.230   1.017  0.5957 -0.5086  0.5105
 2614TIP3    H129477   3.508   3.243   0.987  0.7572  0.3574  0.3564
 2614TIP3    H229478   3.652   3.252   0.941  0.9412 -0.7516  0.6838
 2615TIP3   OH229479   0.855   4.297   0.732  0.3100 -0.1377 -0.3627
 2615TIP3    H129480   0.861   4.205   0.706 -1.4296 -0.0442 -1.2425
 2615TIP3    H229481   0.832   4.344   0.652  0.9431  1.0499  0.1194
 2616TIP3   OH229482   6.185   6.188   8.690  0.4007  0.2686 -0.0900
 2616TIP3    H129483   6.246   6.153   8.755  0.4358  0.5234  0.0160
 2616TIP3    H229484   6.237   6.251   8.640 -0.2737  2.0409  1.3249
 2617TIP3   OH229485   0.088   0.620   8.506  0.8017 -0.2620  0.0228
 2617TIP3    H129486   0.147   0.692   8.483  1.8365 -1.2964 -0.6933
 2617TIP3    H229487   0.007   0.639   8.460  0.1060  1.7601  1.8614
 2618TIP3   OH229488   3.183   4.008   2.330  0.3988 -0.3919  0.7743
 2618TIP3    H129489   3.221   4.000   2.417 -0.1440 -1.5853  0.9188
 2618TIP3    H229490   3.175   3.918   2.298 -0.2033 -0.0315 -0.1587
 2619TIP3   OH229491   0.433   2.434   1.569  0.1842 -0.2520  0.0002
 2619TIP3    H129492   0.341   2.424   1.542  0.3941 -1.7656 -0.2900
 2619TIP3    H229493   0.480   2.371   1.514  1.2313 -0.2907  0.9172
 2620TIP3   OH229494   0.115   1.370   1.188  0.3767 -0.0320  0.4742
 2620TIP3    H129495   0.027   1.393   1.215  0.4788  0.2901  0.5267
 2620TIP3    H229496   0.161   1.453   1.178  0.7420 -0.2033  0.6715
 2621TIP3   OH229497   1.525   2.149   1.867  0.4379  0.1695  0.4742
 2621TIP3    H129498   1.453   2.163   1.806 -0.1918 -0.6565  1.0099
 2621TIP3    H229499   1.482   2.123   1.949  1.2866  0.7601  1.1293
 2622TIP3   OH229500   3.389   4.216   1.483 -0.4684 -0.5545  0.5885
 2622TIP3    H129501   3.382   4.204   1.577 -0.1836 -1.6022  0.4872
 2622TIP3    H229502   3.329   4.288   1.463  0.0252  0.1691  1.6619
 2623TIP3   OH229503   6.812   3.663   0.032  0.0007 -0.3817  0.0753
 2623TIP3    H129504   6.761   3.671  -0.049 -0.1579  2.7307  0.3831
 2623TIP3    H229505   6.786   3.738   0.084  2.8247 -0.2673  1.4831
 2624TIP3   OH229506   1.252   4.411   8.256 -0.0880  0.0724 -0.1548
 2624TIP3    H129507   1.202   4.449   8.184 -1.0815 -1.4374 -0.3103
 2624TIP3    H229508   1.342   4.435   8.238 -0.2143 -0.8150 -2.2994
 2625TIP3   OH229509   1.681   5.939   8.397  0.8042  0.6926 -0.1211
 2625TIP3    H129510   1.751   5.875   8.400 -0.3810 -0.6075  1.3190
 2625TIP3    H229511   1.726   6.024   8.397  2.3671 -0.0986 -0.6076
 2626TIP3   OH229512   5.689   5.720   7.442  0.0228  0.3108 -0.6596
 2626TIP3    H129513   5.640   5.638   7.451  2.4020 -1.0371  0.9274
 2626TIP3    H229514   5.717   5.741   7.531  0.1646  2.4574 -1.1523
 2627TIP3   OH229515   2.877   5.615   1.132  0.3348 -0.0912 -0.6507
 2627TIP3    H129516   2.935   5.676   1.178 -0.2108  0.4198 -0.6352
 2627TIP3    H229517   2.863   5.544   1.194  0.2289  0.2162 -0.3192
 2628TIP3   OH229518   5.802   4.936   2.663  0.2650  0.0534 -0.4546
 2628TIP3    H129519   5.770   4.916   2.751 -2.2945  0.3920 -1.2122
 2628TIP3    H229520   5.778   5.028   2.649 -2.3180 -0.8059 -2.5668
 2629TIP3   OH229521   5.360   3.050   3.278  0.8036  0.2121 -0.1356
 2629TIP3    H129522   5.379   3.004   3.359 -0.5397  0.3908  0.3021
 2629TIP3    H229523   5.292   3.113   3.301  1.0616  0.9154 -1.2013
 2630TIP3   OH229524   3.692   6.742   1.709  0.4762  0.6367 -0.4833
 2630TIP3    H129525   3.657   6.654   1.721  0.5570  0.5041 -1.1801
 2630TIP3    H229526   3.715   6.747   1.616 -1.1615  1.9982 -0.8618
 2631TIP3   OH229527   6.770   3.883   0.901  0.1352 -0.0404 -0.4411
 2631TIP3    H129528   6.715   3.903   0.826  0.7541 -0.9544 -1.1589
 2631TIP3    H229529   6.742   3.795   0.929  1.8666 -0.9776 -1.4568
 2632TIP3   OH229530   6.155   4.647   0.397  0.3783  0.4670  0.8364
 2632TIP3    H129531   6.175   4.716   0.334  2.5747  1.0693  2.0933
 2632TIP3    H229532   6.198   4.569   0.362  1.0181  0.6408  1.2119
 2633TIP3   OH229533   3.948   6.377   7.890 -0.1423  0.0841 -0.2837
 2633TIP3    H129534   3.886   6.368   7.817 -0.2410  0.5988 -0.2676
 2633TIP3    H229535   4.019   6.316   7.869  1.8344  2.9304 -2.9040
 2634TIP3   OH229536   4.381   3.271   0.566 -1.0017  0.7860 -0.1303
 2634TIP3    H129537   4.373   3.186   0.609 -1.9625  0.8047 -0.2350
 2634TIP3    H229538   4.296   3.283   0.522 -1.0507  1.9837  0.2524
 2635TIP3   OH229539   0.857   0.629   3.034 -0.5787  0.5940 -0.4049
 2635TIP3    H129540   0.809   0.621   3.116 -0.2174  0.3705 -0.2097
 2635TIP3    H229541   0.860   0.723   3.015  0.3083  0.7487  0.4277
 2636TIP3   OH229542   2.296   0.140   0.432 -0.3948 -0.3558 -0.2150
 2636TIP3    H129543   2.373   0.166   0.381 -1.3419  0.2694 -1.3617
 2636TIP3    H229544   2.259   0.066   0.385  0.5341 -1.9084  1.3734
 2637TIP3   OH229545   4.908   0.205   2.575  0.5360 -0.2387  0.3292
 2637TIP3    H129546   4.900   0.184   2.668  2.5699 -2.4777  0.0844
 2637TIP3    H229547   4.989   0.256   2.569 -0.9062  2.1685  0.0281
 2638TIP3   OH229548   4.974   2.397   2.032 -0.4684  0.3677 -0.6411
 2638TIP3    H129549   5.062   2.363   2.015 -0.3100 -0.0466  0.9226
 2638TIP3    H229550   4.987   2.491   2.046 -0.0999  0.1242  0.7282
 2639TIP3   OH229551   1.515   4.148   0.467 -0.0896  0.0328 -0.2371
 2639TIP3    H129552   1.502   4.213   0.398  0.6533 -1.0660 -1.4689
 2639TIP3    H229553   1.541   4.068   0.420  1.4716 -0.4733  1.3833
 2640TIP3   OH229554   3.826   0.518   0.500  0.4445 -0.1307  1.4162
 2640TIP3    H129555   3.772   0.559   0.568  1.2097 -0.5314  2.2858
 2640TIP3    H229556   3.856   0.591   0.446 -0.4715  0.1541  1.2814
 2641TIP3   OH229557   6.001   6.525   8.627  0.0161  0.8457 -0.8648
 2641TIP3    H129558   5.936   6.577   8.580  0.7455  2.1565 -0.4737
 2641TIP3    H229559   5.965   6.517   8.716  0.8851  2.5575 -0.3263
 2642TIP3   OH229560   2.737   5.993   2.069 -0.5190  0.1300 -0.3673
 2642TIP3    H129561   2.703   5.986   1.980 -2.7344  0.4087  0.4038
 2642TIP3    H229562   2.662   6.018   2.123 -0.0609 -3.1006  2.1245
 2643TIP3   OH229563   5.767   5.994   2.174 -0.5357  0.0495  0.0133
 2643TIP3    H129564   5.750   6.036   2.090 -1.5716 -1.2879 -0.4802
 2643TIP3    H229565   5.787   6.067   2.233  1.4486  0.9322 -1.6139
 2644TIP3   OH229566   6.278   3.695   0.364  0.2936  0.5104 -0.0044
 2644TIP3    H129567   6.322   3.652   0.291  2.0816 -0.3346  1.5062
 2644TIP3    H229568   6.238   3.773   0.325  2.5083  0.9456 -1.6083
 2645TIP3   OH229569   3.610   1.320   3.263  0.5272  0.1818  0.1605
 2645TIP3    H129570   3.525   1.299   3.223  1.0628 -3.0882  0.4890
 2645TIP3    H229571   3.630   1.407   3.230 -3.3132  1.4986  0.7493
 2646TIP3   OH229572   0.738   3.708   8.576 -0.3162  0.1319  0.4142
 2646TIP3    H129573   0.753   3.634   8.634  0.2536 -0.3832 -0.3647
 2646TIP3    H229574   0.789   3.779   8.613  2.0793 -0.8610 -0.7542
 2647TIP3   OH229575   1.483   2.122   1.484 -0.2047 -0.1819  1.2648
 2647TIP3    H129576   1.398   2.080   1.469  0.3433 -1.0878  0.5427
 2647TIP3    H229577   1.536   2.054   1.525  0.5180 -0.0197  0.6294
 2648TIP3   OH229578   6.689   4.378   0.592  0.0280 -0.0981  0.2739
 2648TIP3    H129579   6.677   4.449   0.529  1.3644 -0.2143 -0.1455
 2648TIP3    H229580   6.600   4.349   0.613 -0.4691  0.2364 -1.2263
 2649TIP3   OH229581   4.079   5.629   1.251  0.1466  0.0244  0.3338
 2649TIP3    H129582   3.985   5.625   1.268  0.1678  1.1830  0.8370
 2649TIP3    H229583   4.094   5.564   1.183 -0.7478 -1.3421  1.3999
 2650TIP3   OH229584   0.885   6.397   2.965  0.5760  0.0435  0.6914
 2650TIP3    H129585   0.911   6.470   2.909  0.2016 -0.6608 -0.4461
 2650TIP3    H229586   0.814   6.431   3.019  0.5986  0.6016  0.3717
 2651TIP3   OH229587   5.632   1.068   2.868 -0.9374  0.1069 -0.1770
 2651TIP3    H129588   5.696   1.027   2.926  0.0715  1.4026 -0.3051
 2651TIP3    H229589   5.685   1.100   2.794 -1.8640  0.4596 -0.7044
 2652TIP3   OH229590   2.482   4.849   2.974 -0.2105  0.0017 -0.6370
 2652TIP3    H129591   2.426   4.876   3.047  0.0651  0.0080 -0.4288
 2652TIP3    H229592   2.549   4.794   3.014  1.2555  1.7769 -0.5126
 2653TIP3   OH229593   3.129   0.688   2.414  0.0322  0.0805 -0.5266
 2653TIP3    H129594   3.136   0.609   2.468  0.5363 -0.2381 -1.0487
 2653TIP3    H229595   3.066   0.743   2.460  1.1425  0.2225  0.8969
 2654TIP3   OH229596   3.372   4.464   1.058  0.2662 -0.0340  0.0664
 2654TIP3    H129597   3.278   4.459   1.039  0.1374  0.1197  0.6531
 2654TIP3    H229598   3.405   4.376   1.039 -0.0895 -0.2305  0.3520
 2655TIP3   OH229599   5.304   1.523   3.654 -0.5257  0.2344 -0.2807
 2655TIP3    H129600   5.210   1.506   3.665 -0.7863  1.4814 -0.4847
 2655TIP3    H229601   5.311   1.561   3.567  0.0650  0.9142  0.0554
 2656TIP3   OH229602   1.886   0.159   2.665 -0.3188  0.0175  0.3416
 2656TIP3    H129603   1.945   0.088   2.639  2.2073  1.8987  0.6382
 2656TIP3    H229604   1.893   0.162   2.761 -2.1271 -0.6715  0.5413
 2657TIP3   OH229605   4.933   1.490   0.481  0.6182 -0.1542  0.1096
 2657TIP3    H129606   4.918   1.584   0.475  0.3794 -0.0841  1.4818
 2657TIP3    H229607   5.016   1.476   0.435  1.5808  1.0138  1.3840
 2658TIP3   OH229608   5.742   0.780   0.993  0.5272 -0.0994 -0.2231
 2658TIP3    H129609   5.760   0.725   1.069 -1.8316 -2.2900 -1.1115
 2658TIP3    H229610   5.681   0.846   1.025 -0.3079 -0.8970 -0.1204
 2659TIP3   OH229611   2.070   5.423   8.358 -0.1876 -0.3294  0.7837
 2659TIP3    H129612   2.095   5.510   8.327  0.0291 -0.1124  1.5328
 2659TIP3    H229613   2.027   5.381   8.283 -0.5585  0.5289  0.5097
 2660TIP3   OH229614   2.693   3.407   3.250 -0.3061 -0.0737 -0.0321
 2660TIP3    H129615   2.765   3.431   3.308 -1.4132  3.9061 -0.0213
 2660TIP3    H229616   2.713   3.450   3.167 -0.5333 -2.7001 -1.5456
 2661TIP3   OH229617   0.354   5.118   2.393  0.0637  0.0225  0.0140
 2661TIP3    H129618   0.341   5.039   2.446  0.3675 -1.5726 -2.1613
 2661TIP3    H229619   0.275   5.170   2.408 -1.5293 -2.0611 -0.7301
 2662TIP3   OH229620   4.784   2.170   7.187  0.3662 -0.5620  0.4209
 2662TIP3    H129621   4.864   2.122   7.209 -0.0220 -0.9214  1.0755
 2662TIP3    H229622   4.755   2.132   7.104  1.6670  0.5854 -0.6375
 2663TIP3   OH229623   2.233   5.127   1.898 -0.2439 -0.2259  0.4395
 2663TIP3    H129624   2.274   5.084   1.823  1.6326 -0.3075  1.4605
 2663TIP3    H229625   2.180   5.059   1.938 -0.7227 -0.3659 -0.4090
 2664TIP3   OH229626   6.134   6.191   7.714  0.8155 -0.4369  0.2139
 2664TIP3    H129627   6.096   6.136   7.646  0.7748  0.1898 -0.2745
 2664TIP3    H229628   6.100   6.155   7.796 -2.2478  1.1000 -0.2254
 2665TIP3   OH229629   0.548   1.357   2.258  0.4230 -0.6284  0.0410
 2665TIP3    H129630   0.587   1.436   2.297  0.4791 -0.3397 -0.5839
 2665TIP3    H229631   0.535   1.298   2.331  1.6964 -0.5814  0.3341
 2666TIP3   OH229632   6.431   5.172   8.253 -0.3138  0.5904 -0.9806
 2666TIP3    H129633   6.426   5.129   8.167 -1.1712  1.6211 -1.4728
 2666TIP3    H229634   6.490   5.246   8.239  0.8484 -0.1795 -0.2420
 2667TIP3   OH229635   2.149   2.862   2.656 -0.7141 -0.7881 -0.5850
 2667TIP3    H129636   2.211   2.927   2.623  1.3692 -1.9586  0.7977
 2667TIP3    H229637   2.159   2.866   2.751  0.9922 -4.3813 -0.4426
 2668TIP3   OH229638   0.815   5.719   8.198  0.7300 -0.0855 -0.3911
 2668TIP3    H129639   0.901   5.688   8.169  0.6641 -0.0496 -0.6266
 2668TIP3    H229640   0.791   5.786   8.133  0.0527 -0.8492 -0.9455
 2669TIP3   OH229641   5.653   4.417   8.415  0.3940  0.3516  0.0248
 2669TIP3    H129642   5.682   4.328   8.436  2.0055  0.7447 -0.3909
 2669TIP3    H229643   5.672   4.468   8.494  0.5432  0.5529 -0.1396
 2670TIP3   OH229644   2.344   2.218   2.524 -0.4201  0.0759 -0.4119
 2670TIP3    H129645   2.369   2.126   2.530  0.5774  0.3821  0.6578
 2670TIP3    H229646   2.330   2.245   2.615  0.5102  1.2785 -0.5861
 2671TIP3   OH229647   3.211   1.847   0.100  0.4282  0.4068 -0.0367
 2671TIP3    H129648   3.261   1.928   0.107 -0.8554  1.1080  1.8780
 2671TIP3    H229649   3.230   1.814   0.012  2.2298  1.9308 -0.2726
 2672TIP3   OH229650   4.041   5.051   0.986 -0.3375  0.4813 -0.2685
 2672TIP3    H129651   4.119   5.041   1.041  0.0654  0.1318 -0.8954
 2672TIP3    H229652   4.046   4.979   0.923 -0.8836  0.7717 -0.6539
 2673TIP3   OH229653   1.176   4.213   1.652  0.4826 -0.1634 -0.3009
 2673TIP3    H129654   1.195   4.305   1.670 -1.9421  0.4051 -0.2410
 2673TIP3    H229655   1.205   4.166   1.731  0.8069  0.6898  0.0957
 2674TIP3   OH229656   3.024   6.239   8.060  0.1636 -0.3616  0.5639
 2674TIP3    H129657   3.006   6.277   8.146  1.2916 -2.4056  1.7981
 2674TIP3    H229658   2.944   6.254   8.010  0.0185  2.1735  1.4382
 2675TIP3   OH229659   6.178   3.940   3.524  0.3123  0.1827 -0.0440
 2675TIP3    H129660   6.187   4.030   3.493 -2.8969  1.6869  2.6553
 2675TIP3    H229661   6.107   3.904   3.472  0.3045 -0.1119  0.1694
 2676TIP3   OH229662   2.996   4.114   8.164  0.3161  0.5604  0.3517
 2676TIP3    H129663   2.998   4.020   8.143  0.3756  1.0159 -1.8734
 2676TIP3    H229664   3.084   4.145   8.144 -0.3454  1.5208 -1.1954
 2677TIP3   OH229665   4.735   0.257   0.979  0.2224  0.0024 -0.6696
 2677TIP3    H129666   4.707   0.185   0.923  0.4167  0.4928 -1.4054
 2677TIP3    H229667   4.658   0.314   0.985  0.2420  0.0154 -0.5397
 2678TIP3   OH229668   4.651   0.236   1.747  0.4403  0.0053  0.0117
 2678TIP3    H129669   4.716   0.280   1.692  0.8530  0.8322  1.1406
 2678TIP3    H229670   4.680   0.144   1.749  1.2628  0.2568  0.0466
 2679TIP3   OH229671   0.197   6.440   0.012 -0.1087  0.0617  0.1390
 2679TIP3    H129672   0.221   6.532   0.003 -3.1368  1.0351  0.8282
 2679TIP3    H229673   0.231   6.399  -0.067 -0.9834  2.3564 -1.5481
 2680TIP3   OH229674   4.294   1.501   1.974  0.3112  0.5206  0.8757
 2680TIP3    H129675   4.208   1.463   1.956 -0.0019  1.4991  0.1735
 2680TIP3    H229676   4.327   1.452   2.049  1.0100 -2.8022 -1.3754
 2681TIP3   OH229677   3.234   5.671   0.904 -0.7200 -0.5070  0.1475
 2681TIP3    H129678   3.291   5.746   0.914 -1.2279 -0.1340  0.3106
 2681TIP3    H229679   3.229   5.632   0.992 -0.2398 -0.8980  0.0062
 2682TIP3   OH229680   5.348   3.672   3.507 -0.8200  0.7465  0.5712
 2682TIP3    H129681   5.305   3.613   3.444  2.1142 -3.4221  1.9939
 2682TIP3    H229682   5.319   3.641   3.592  0.1219  2.0339  1.3908
 2683TIP3   OH229683   3.482   4.221   0.257  0.1725 -0.4395 -0.4755
 2683TIP3    H129684   3.438   4.237   0.341  0.7183 -1.9291  0.1285
 2683TIP3    H229685   3.412   4.191   0.199  0.0543 -0.9584 -0.0745
 2684TIP3   OH229686   5.178   5.162   2.645 -0.4011 -0.1807 -0.2635
 2684TIP3    H129687   5.181   5.258   2.647 -0.8507 -0.0796 -2.1401
 2684TIP3    H229688   5.246   5.135   2.706 -2.0807  1.2602  2.4701
 2685TIP3   OH229689   3.709   3.151   0.452 -0.0378 -0.3859 -0.4103
 2685TIP3    H129690   3.715   3.140   0.357 -3.2280  1.1679 -0.9250
 2685TIP3    H229691   3.780   3.212   0.474  1.4953 -1.6823 -1.5330
 2686TIP3   OH229692   3.666   6.436   1.662  0.0082 -0.3045  0.4805
 2686TIP3    H129693   3.726   6.368   1.694  0.5804  0.3002  0.7064
 2686TIP3    H229694   3.677   6.434   1.567  1.4043  0.7114  0.5992
 2687TIP3   OH229695   5.415   1.314   2.825  0.2121  0.5758 -0.0935
 2687TIP3    H129696   5.432   1.376   2.754 -0.7618  0.1437 -0.7260
 2687TIP3    H229697   5.493   1.257   2.826  0.2863  0.6588 -0.7458
 2688TIP3   OH229698   0.645   2.611   1.162  0.2726 -0.0530 -0.5388
 2688TIP3    H129699   0.563   2.562   1.165  0.1984  0.1092  0.3914
 2688TIP3    H229700   0.707   2.551   1.121  0.7958 -1.9493  2.6139
 2689TIP3   OH229701   0.384   1.541   2.903  0.8589 -0.2382 -0.0214
 2689TIP3    H129702   0.462   1.498   2.868  0.8668 -0.7490  0.6042
 2689TIP3    H229703   0.418   1.612   2.958  0.8510  0.3721 -0.7825
 2690TIP3   OH229704   3.905   4.628   2.520 -0.0317  0.2177 -0.1887
 2690TIP3    H129705   3.922   4.693   2.589 -1.7243  1.2259 -0.6793
 2690TIP3    H229706   3.823   4.586   2.546 -0.0595 -0.2318 -0.9857
 2691TIP3   OH229707   3.374   6.150   8.714 -0.4079 -0.2152  0.2275
 2691TIP3    H129708   3.456   6.175   8.673 -0.9125  0.1986 -0.5496
 2691TIP3    H229709   3.383   6.178   8.805  1.0021 -1.7769  0.6288
 2692TIP3   OH229710   1.546   5.757   7.675 -0.0658 -0.5254 -0.6233
 2692TIP3    H129711   1.536   5.775   7.581  1.2910 -0.6005 -0.8042
 2692TIP3    H229712   1.473   5.803   7.716 -0.7827 -0.6319 -1.7267
 2693TIP3   OH229713   2.035   5.854   0.836 -0.2280  0.5768 -0.0602
 2693TIP3    H129714   2.004   5.829   0.923  1.6478 -0.6110  0.3340
 2693TIP3    H229715   2.090   5.931   0.852  0.6856 -0.0546 -0.0462
 2694TIP3   OH229716   5.201   6.139   8.705 -0.4849  0.4109 -0.0360
 2694TIP3    H129717   5.235   6.083   8.775  0.9081  0.1330 -0.8840
 2694TIP3    H229718   5.132   6.190   8.746 -1.4033 -1.4859  0.9223
 2695TIP3   OH229719   5.726   0.325   8.722  0.5189  0.1153 -0.2090
 2695TIP3    H129720   5.798   0.345   8.781  0.4570 -0.7622  0.1867
 2695TIP3    H229721   5.662   0.281   8.778 -0.5434  1.2983 -0.4418
 2696TIP3   OH229722   1.347   4.661   1.094  0.5184  0.1544 -0.1862
 2696TIP3    H129723   1.406   4.722   1.049  0.0461 -0.7237 -2.0959
 2696TIP3    H229724   1.313   4.711   1.168  1.7003  1.5097 -0.5041
 2697TIP3   OH229725   3.844   6.232   1.584 -0.2604 -1.0438 -0.0510
 2697TIP3    H129726   3.932   6.195   1.571 -0.1490 -0.0570 -2.8400
 2697TIP3    H229727   3.827   6.280   1.503 -3.0164 -0.4118  0.8215
 2698TIP3   OH229728   6.809   5.671   0.408  0.1684 -0.5966 -0.2192
 2698TIP3    H129729   6.786   5.719   0.329  0.0599 -2.4523 -1.3922
 2698TIP3    H229730   6.771   5.721   0.480 -0.9173  0.4158 -1.4620
 2699TIP3   OH229731   4.240   6.689   3.370 -0.2584 -0.5585 -0.0691
 2699TIP3    H129732   4.229   6.729   3.283 -1.1739 -1.9921 -0.6581
 2699TIP3    H229733   4.272   6.760   3.425  3.1953 -0.2578 -2.1964
 2700TIP3   OH229734   5.371   3.546   7.614 -0.2351  0.4833 -0.0382
 2700TIP3    H129735   5.348   3.491   7.688  2.7623  0.7482  1.2217
 2700TIP3    H229736   5.377   3.634   7.650 -0.3544  0.9080 -1.0039
 2701TIP3   OH229737   2.082   2.256   8.675 -1.1447 -0.4400  0.4760
 2701TIP3    H129738   2.137   2.197   8.727 -0.5881  1.2111  1.8923
 2701TIP3    H229739   1.992   2.228   8.693 -1.0268  0.5790  3.1256
 2702TIP3   OH229740   1.935   5.527   1.988 -0.1106 -0.4874  0.3756
 2702TIP3    H129741   1.972   5.596   1.934  2.1559 -3.0866 -1.7319
 2702TIP3    H229742   1.977   5.447   1.957 -0.8823 -2.6061  4.0774
 2703TIP3   OH229743   3.237   1.087   7.389 -0.3747 -0.2219  0.2390
 2703TIP3    H129744   3.323   1.050   7.370 -0.0488  0.5936  0.1049
 2703TIP3    H229745   3.180   1.051   7.321 -0.2457 -1.1075  0.5827
 2704TIP3   OH229746   2.043   3.544   2.067  0.2925 -0.1375  1.0907
 2704TIP3    H129747   2.130   3.503   2.067  0.8418  0.9740  0.3413
 2704TIP3    H229748   2.045   3.605   2.141  1.3675  2.2513 -0.7851
 2705TIP3   OH229749   1.213   5.022   8.171  0.4070  0.4602  0.1696
 2705TIP3    H129750   1.217   5.117   8.160  1.3948  0.4342  0.2390
 2705TIP3    H229751   1.279   5.003   8.238 -0.5073 -0.1645  0.9198
 2706TIP3   OH229752   5.428   1.058   2.121  0.0854  0.3176 -0.2560
 2706TIP3    H129753   5.480   1.134   2.146 -1.2627  1.3174 -0.4009
 2706TIP3    H229754   5.420   1.008   2.202  1.5655 -0.0636 -0.3153
 2707TIP3   OH229755   6.380   3.765   2.866  0.0907 -0.5343  0.0394
 2707TIP3    H129756   6.437   3.691   2.845  1.0087 -0.2739  1.4440
 2707TIP3    H229757   6.427   3.812   2.935 -0.8571  0.9005 -0.2465
 2708TIP3   OH229758   5.480   6.494   3.031 -0.4339  1.1554  0.6873
 2708TIP3    H129759   5.507   6.572   3.080 -0.5361  1.2715  0.5592
 2708TIP3    H229760   5.556   6.436   3.035  0.4675  2.1326 -1.0336
 2709TIP3   OH229761   0.324   5.991   8.411 -0.3092  0.8792  0.2587
 2709TIP3    H129762   0.403   5.940   8.396 -0.7611  0.5542 -1.1378
 2709TIP3    H229763   0.355   6.072   8.452  0.9119  1.2672 -1.3141
 2710TIP3   OH229764   3.290   2.563   1.720 -0.4867  0.0803 -0.9958
 2710TIP3    H129765   3.242   2.537   1.799  1.9885 -1.7876  0.0469
 2710TIP3    H229766   3.228   2.548   1.648 -1.7246 -1.5208  0.3114
 2711TIP3   OH229767   5.731   1.312   1.327  0.0328 -0.6090  0.4108
 2711TIP3    H129768   5.760   1.314   1.418  1.4741  0.2026 -0.0455
 2711TIP3    H229769   5.748   1.400   1.294 -2.5399 -0.2004 -0.0633
 2712TIP3   OH229770   0.349   4.271   8.383  0.4901  0.4036 -0.0379
 2712TIP3    H129771   0.277   4.239   8.438  0.2463  0.8115 -0.1152
 2712TIP3    H229772   0.421   4.210   8.400 -0.2340 -0.7013 -0.8566
 2713TIP3   OH229773   2.920   3.784   1.312 -0.0973 -0.5334 -0.0875
 2713TIP3    H129774   2.931   3.697   1.350 -1.0699 -0.5045  0.3063
 2713TIP3    H229775   2.966   3.781   1.229  0.2815 -1.2743  0.1437
 2714TIP3   OH229776   4.685   3.171   7.234  0.4015  0.0175  0.2656
 2714TIP3    H129777   4.697   3.132   7.321  0.9582  0.9956  0.6382
 2714TIP3    H229778   4.689   3.096   7.174  0.3827 -0.6228  1.0459
 2715TIP3   OH229779   0.452   2.215   0.662  0.2374  0.5838 -0.0469
 2715TIP3    H129780   0.404   2.194   0.582  1.0183  1.1279 -0.6711
 2715TIP3    H229781   0.543   2.192   0.643  0.4830  1.0012  0.5680
 2716TIP3   OH229782   4.209   0.417   3.119 -0.2137  0.1257 -0.3062
 2716TIP3    H129783   4.238   0.378   3.201 -1.6891 -2.8467 -1.0386
 2716TIP3    H229784   4.180   0.342   3.066  0.2887  1.9255 -3.3988
 2717TIP3   OH229785   1.862   1.356   0.251 -0.3657  0.9128  0.0758
 2717TIP3    H129786   1.833   1.272   0.288  0.8277  0.3561 -0.1948
 2717TIP3    H229787   1.782   1.396   0.217 -1.0685  0.2102  0.8531
 2718TIP3   OH229788   5.061   0.294   2.070 -0.2241  0.3193 -0.0829
 2718TIP3    H129789   5.042   0.338   1.987 -0.2329 -2.2062 -1.5175
 2718TIP3    H229790   4.976   0.283   2.111 -0.5097 -0.4317 -0.8475
 2719TIP3   OH229791   1.815   0.662   1.664  0.3718 -0.0310  0.0113
 2719TIP3    H129792   1.850   0.720   1.598 -1.3362  0.1811 -0.7702
 2719TIP3    H229793   1.836   0.574   1.633  0.9560  0.1085  0.0114
 2720TIP3   OH229794   1.517   1.872   0.764 -0.1655 -0.5378  0.1586
 2720TIP3    H129795   1.610   1.853   0.750  0.8943  2.3126  2.3126
 2720TIP3    H229796   1.484   1.796   0.813  1.0979 -1.4211 -0.3027
 2721TIP3   OH229797   0.805   6.769   0.816  0.0521 -0.3342  0.0422
 2721TIP3    H129798   0.897   6.783   0.797 -0.1722  0.3182 -0.6119
 2721TIP3    H229799   0.764   6.757   0.731 -0.7848  1.4745  0.1233
 2722TIP3   OH229800   4.594   5.475   1.965  0.3989 -0.8984  0.2957
 2722TIP3    H129801   4.682   5.512   1.959  0.2991 -0.1935  2.4002
 2722TIP3    H229802   4.542   5.528   1.905  1.2229 -0.7631 -0.3146
 2723TIP3   OH229803   3.366   5.489   0.051 -0.0527  0.2414  0.4606
 2723TIP3    H129804   3.365   5.584   0.057  0.5280  0.2265  0.8107
 2723TIP3    H229805   3.273   5.465   0.046 -0.1969  0.8287  0.2205
 2724TIP3   OH229806   0.775   4.541   1.569 -0.0199  0.0348 -0.3317
 2724TIP3    H129807   0.813   4.486   1.501 -0.1932 -1.1227  0.4797
 2724TIP3    H229808   0.817   4.511   1.650 -1.8808 -0.6073  0.4552
 2725TIP3   OH229809   3.953   5.716   8.790 -0.0636 -0.1601 -0.4052
 2725TIP3    H129810   4.032   5.662   8.793 -0.0033 -0.3740 -3.1413
 2725TIP3    H229811   3.978   5.799   8.831  0.7802 -1.0728  1.0075
 2726TIP3   OH229812   1.239   3.602   8.220  0.0608  0.1079  0.2349
 2726TIP3    H129813   1.257   3.634   8.308  0.8403 -0.0891  0.1577
 2726TIP3    H229814   1.272   3.512   8.220 -0.6143 -0.1500 -0.0396
 2727TIP3   OH229815   4.520   5.760   3.348 -0.2819  0.5275 -0.5775
 2727TIP3    H129816   4.494   5.668   3.349 -1.2630  0.7971 -0.1861
 2727TIP3    H229817   4.578   5.769   3.424  1.3842 -0.1693 -1.6974
 2728TIP3   OH229818   3.360   1.108   0.494  0.4186 -0.5560  0.4742
 2728TIP3    H129819   3.392   1.020   0.474  0.1127 -0.6292  0.3143
 2728TIP3    H229820   3.382   1.120   0.587  2.7464  0.1657 -0.0923
 2729TIP3   OH229821   0.942   2.306   1.825 -0.3296  0.1724  0.1955
 2729TIP3    H129822   0.972   2.368   1.891 -2.2490  1.0165  0.3331
 2729TIP3    H229823   0.933   2.223   1.873  1.7217 -0.1507  0.1273
 2730TIP3   OH229824   1.158   3.606   2.874 -0.1292  0.7501  0.0144
 2730TIP3    H129825   1.230   3.547   2.852  0.2435  0.9700  0.6057
 2730TIP3    H229826   1.200   3.689   2.895 -0.4546  0.6046  1.3470
 2731TIP3   OH229827   6.028   2.102   7.624 -0.5700 -0.8403 -0.5659
 2731TIP3    H129828   6.059   2.137   7.707 -0.6011 -2.9489  0.4000
 2731TIP3    H229829   6.107   2.086   7.573 -0.5330  0.1989 -0.8474
 2732TIP3   OH229830   4.754   0.041   0.655  0.1917 -0.2005  0.5345
 2732TIP3    H129831   4.717  -0.023   0.715  0.4174 -0.5047  0.3515
 2732TIP3    H229832   4.687   0.109   0.648 -0.2053 -0.5976  0.4326
 2733TIP3   OH229833   4.741   5.606   0.048 -0.3994 -0.0558  0.7905
 2733TIP3    H129834   4.778   5.590  -0.039  0.9782 -2.1295  1.6687
 2733TIP3    H229835   4.732   5.701   0.054  2.6247  0.4162 -0.4006
 2734TIP3   OH229836   1.695   0.556   1.896 -0.2674 -0.2277 -0.5865
 2734TIP3    H129837   1.769   0.539   1.955 -0.3206  1.3352 -0.0216
 2734TIP3    H229838   1.737   0.585   1.814 -0.2286  0.2416 -0.4061
 2735TIP3   OH229839   2.730   4.984   2.876  0.7519 -0.1987 -0.6630
 2735TIP3    H129840   2.787   4.908   2.893  0.4502 -0.0282  1.4301
 2735TIP3    H229841   2.645   4.957   2.910  0.4656  0.8138 -0.5681
 2736TIP3   OH229842   2.528   0.227   0.285 -0.1540 -0.0808  0.0531
 2736TIP3    H129843   2.615   0.246   0.320  0.2854 -0.9590 -0.5297
 2736TIP3    H229844   2.526   0.132   0.277 -1.6862 -0.2045  1.3780
 2737TIP3   OH229845   3.539   1.883   1.734  0.3679  0.1096 -0.2339
 2737TIP3    H129846   3.633   1.894   1.746  0.3987 -1.5908  1.6516
 2737TIP3    H229847   3.499   1.940   1.799  0.1519 -0.2700 -0.0286
 2738TIP3   OH229848   4.858   1.466   2.588  0.5329 -0.3913  0.1403
 2738TIP3    H129849   4.864   1.453   2.494  0.2279  1.3684 -0.1476
 2738TIP3    H229850   4.904   1.548   2.605 -0.6343  0.0630  1.3195
 2739TIP3   OH229851   6.526   6.757   8.020 -0.3201  0.5152  0.0368
 2739TIP3    H129852   6.609   6.734   7.979 -0.3095  0.8088 -0.1063
 2739TIP3    H229853   6.509   6.847   7.993 -1.4865 -0.0642 -1.2669
 2740TIP3   OH229854   4.510   3.338   2.499 -0.0728 -0.3796  0.3635
 2740TIP3    H129855   4.561   3.386   2.565  1.5386 -0.5790 -0.6938
 2740TIP3    H229856   4.439   3.297   2.549 -1.0896  2.4078  1.4475
 2741TIP3   OH229857   5.627   3.164   1.803  0.1612  0.1013  0.2475
 2741TIP3    H129858   5.708   3.115   1.814  0.3391  0.4171  0.3739
 2741TIP3    H229859   5.645   3.249   1.843  0.0671  0.4894 -0.5090
 2742TIP3   OH229860   0.908   0.883   0.328  0.1797  0.3417 -0.0951
 2742TIP3    H129861   0.825   0.878   0.374 -0.2553  0.4267 -0.8460
 2742TIP3    H229862   0.932   0.975   0.332 -1.9529  1.2574 -3.5159
 2743TIP3   OH229863   2.055   0.803   0.077 -0.1779  0.1366 -0.1416
 2743TIP3    H129864   2.124   0.850   0.126  1.0747  1.4124 -2.9353
 2743TIP3    H229865   2.047   0.851  -0.005 -1.9823 -2.0773 -1.3501
 2744TIP3   OH229866   2.210   2.823   1.490  0.2364 -0.2818 -0.3963
 2744TIP3    H129867   2.235   2.771   1.567 -0.9882  0.2719  0.4010
 2744TIP3    H229868   2.160   2.763   1.436 -0.4237 -0.1888  0.1027
 2745TIP3   OH229869   6.062   5.849   0.643 -0.5615 -0.0919 -0.2081
 2745TIP3    H129870   6.013   5.880   0.567  0.4710  0.8196 -0.5260
 2745TIP3    H229871   6.088   5.760   0.620  0.1649  0.3519 -1.1492
 2746TIP3   OH229872   4.875   3.770   8.574  0.1412 -0.2158  0.0149
 2746TIP3    H129873   4.938   3.830   8.532  1.3920 -1.4144  0.1042
 2746TIP3    H229874   4.906   3.683   8.550 -0.7381 -0.8608  1.1524
 2747TIP3   OH229875   0.546   6.657   1.237 -0.5040 -0.1641 -0.2580
 2747TIP3    H129876   0.555   6.733   1.294 -2.6108  1.0740 -1.4317
 2747TIP3    H229877   0.470   6.609   1.273 -0.2962 -0.7392 -0.5667
 2748TIP3   OH229878   6.697   3.514   2.443 -0.4516 -0.2458 -0.2024
 2748TIP3    H129879   6.679   3.557   2.360 -0.4433 -1.3420 -0.7915
 2748TIP3    H229880   6.778   3.555   2.474 -0.9328  0.8026 -0.2664
 2749TIP3   OH229881   2.118   3.131   1.652 -0.4904 -0.0881 -0.0526
 2749TIP3    H129882   2.198   3.118   1.601 -0.3607  0.4577  0.0050
 2749TIP3    H229883   2.113   3.054   1.709 -0.1193 -0.2298 -0.2101
 2750TIP3   OH229884   5.443   2.935   3.523 -0.4438 -0.7624  0.8587
 2750TIP3    H129885   5.536   2.913   3.517  0.0138  1.1851 -0.0341
 2750TIP3    H229886   5.433   2.977   3.609 -0.3580 -0.4132  0.6998
 2751TIP3   OH229887   4.418   3.551   1.536  0.1749  0.0768 -1.1552
 2751TIP3    H129888   4.458   3.600   1.463 -0.3994  0.2569 -1.3550
 2751TIP3    H229889   4.401   3.618   1.602  0.3686 -0.0315 -0.9933
 2752TIP3   OH229890   3.655   6.103   1.725  0.2681 -0.6169  0.0443
 2752TIP3    H129891   3.646   6.020   1.678  0.5878 -0.5569 -0.1232
 2752TIP3    H229892   3.698   6.162   1.663 -1.3651  0.1501 -0.4091
 2753TIP3   OH229893   5.630   0.488   1.809 -0.6449  0.8251 -0.3765
 2753TIP3    H129894   5.642   0.576   1.773 -1.8860  0.5859 -1.4513
 2753TIP3    H229895   5.545   0.491   1.853  0.7011  1.0198  2.4369
 2754TIP3   OH229896   0.623   5.284   0.210  0.2073 -0.2639 -0.3868
 2754TIP3    H129897   0.590   5.200   0.239 -0.6655  0.2366  0.1087
 2754TIP3    H229898   0.635   5.274   0.116 -0.5877 -0.7156 -0.4486
 2755TIP3   OH229899   2.648   3.253   1.410  0.6528 -0.5827  0.5953
 2755TIP3    H129900   2.680   3.343   1.401  1.7713 -0.9261  1.0002
 2755TIP3    H229901   2.635   3.224   1.320 -0.4303  0.2242  0.4786
 2756TIP3   OH229902   0.941   6.266   8.316  0.5321 -0.3335  0.4778
 2756TIP3    H129903   0.905   6.189   8.360 -0.7356 -0.0088  0.0701
 2756TIP3    H229904   0.934   6.245   8.223 -1.0787  0.7575  0.3005
 2757TIP3   OH229905   6.783   0.951   0.076  0.6551  0.2840  0.0146
 2757TIP3    H129906   6.812   0.871   0.032  0.7174 -0.1448  0.8110
 2757TIP3    H229907   6.691   0.960   0.051  0.7408  0.1523 -0.3521
 2758TIP3   OH229908   5.548   5.862   0.602  0.4497 -0.4265 -0.0388
 2758TIP3    H129909   5.559   5.804   0.527 -0.8782 -0.4486 -0.2324
 2758TIP3    H229910   5.613   5.831   0.665  1.5861 -0.4060 -1.1563
 2759TIP3   OH229911   2.875   5.328   0.037  0.4057 -0.1248 -1.1426
 2759TIP3    H129912   2.958   5.281   0.029 -0.7134 -2.3305 -0.5152
 2759TIP3    H229913   2.885   5.404  -0.021  3.6449  0.9411  0.5874
 2760TIP3   OH229914   5.873   0.400   8.249  0.2607  0.6693  0.3278
 2760TIP3    H129915   5.913   0.468   8.194 -1.1473  1.5639  0.3755
 2760TIP3    H229916   5.845   0.332   8.187 -0.1638  1.0802  0.0675
 2761TIP3   OH229917   3.510   5.423   7.968  0.4431 -0.6676 -0.0677
 2761TIP3    H129918   3.513   5.391   8.058 -0.1342 -0.8353 -0.1078
 2761TIP3    H229919   3.424   5.398   7.936  0.0320  0.7783 -0.1588
 2762TIP3   OH229920   3.285   5.527   1.360  0.3935 -0.0911  0.2244
 2762TIP3    H129921   3.340   5.546   1.436 -0.2791 -1.8209  1.2059
 2762TIP3    H229922   3.250   5.612   1.334  0.0575  0.4735  2.3304
 2763TIP3   OH229923   1.852   2.853   2.568 -0.0242  0.4588 -0.3255
 2763TIP3    H129924   1.915   2.787   2.538 -2.0047 -2.2550  1.0278
 2763TIP3    H229925   1.860   2.852   2.663 -1.4159  0.7307 -0.1851
 2764TIP3   OH229926   2.647   3.816   7.804 -0.2682  0.5669 -0.5320
 2764TIP3    H129927   2.721   3.874   7.785  1.4487 -0.9797  1.0408
 2764TIP3    H229928   2.570   3.871   7.790  1.0824  2.0141 -3.0209
 2765TIP3   OH229929   4.010   3.718   1.062 -0.1345  0.1010 -0.3453
 2765TIP3    H129930   3.916   3.714   1.078  0.1057 -0.6675  0.9379
 2765TIP3    H229931   4.029   3.642   1.007 -0.5123  1.2445 -2.1707
 2766TIP3   OH229932   6.692   6.780   0.685 -0.0458  0.0353  0.8551
 2766TIP3    H129933   6.690   6.757   0.778  1.1623 -1.8586  0.4661
 2766TIP3    H229934   6.629   6.721   0.644  0.3205  0.0175  0.3109
 2767TIP3   OH229935   5.418   3.500   0.748  0.0518 -0.1442 -0.2925
 2767TIP3    H129936   5.462   3.584   0.762  0.1713 -0.5897  2.3459
 2767TIP3    H229937   5.325   3.523   0.741 -0.0382  0.1635  1.4871
 2768TIP3   OH229938   1.570   3.317   3.512 -0.0075 -0.5877  0.1409
 2768TIP3    H129939   1.571   3.323   3.608  0.7498 -2.0560  0.2545
 2768TIP3    H229940   1.571   3.223   3.494  1.0209 -0.3367 -1.3108
 2769TIP3   OH229941   4.191   4.155   0.951  0.1622 -0.4435  0.3623
 2769TIP3    H129942   4.242   4.077   0.973  0.8080 -0.6090 -1.4766
 2769TIP3    H229943   4.101   4.132   0.971  0.1485 -2.2572 -1.4213
 2770TIP3   OH229944   1.905   0.545   8.077  0.1494  0.1711 -0.2846
 2770TIP3    H129945   1.884   0.575   7.988 -0.5071  0.9020  0.1091
 2770TIP3    H229946   1.821   0.544   8.122  0.6270  0.8358  0.6399
 2771TIP3   OH229947   6.311   4.102   1.926 -0.4864 -0.4953 -0.4252
 2771TIP3    H129948   6.284   4.193   1.909 -0.3956  0.3212  2.9917
 2771TIP3    H229949   6.234   4.050   1.906 -1.3893  0.6745 -0.1242
 2772TIP3   OH229950   6.788   2.360   8.202 -0.0564  0.1053 -0.3895
 2772TIP3    H129951   6.840   2.283   8.180 -0.5038 -0.0017 -1.0993
 2772TIP3    H229952   6.744   2.338   8.284  1.8435  0.6067  0.8254
 2773TIP3   OH229953   2.750   5.934   1.165  0.0996 -0.1280  0.4307
 2773TIP3    H129954   2.658   5.908   1.163  0.0665 -0.1023  1.3347
 2773TIP3    H229955   2.790   5.874   1.228  0.3429  0.9897  1.3753
 2774TIP3   OH229956   4.895   3.731   3.250 -0.3626  0.3282  0.2448
 2774TIP3    H129957   4.834   3.787   3.202  1.4148  1.0016 -1.3493
 2774TIP3    H229958   4.952   3.793   3.297  0.5625 -0.1764 -0.1852
 2775TIP3   OH229959   3.582   3.865   8.615  0.3930 -0.1170 -0.5529
 2775TIP3    H129960   3.594   3.929   8.685  1.4185 -2.2798  1.3565
 2775TIP3    H229961   3.660   3.875   8.560 -0.3323  1.4572 -1.3930
 2776TIP3   OH229962   2.845   4.784   0.534  0.4440 -0.2551  0.2040
 2776TIP3    H129963   2.919   4.774   0.474 -0.0179  3.1759 -1.1732
 2776TIP3    H229964   2.771   4.806   0.478 -1.1053 -1.2747  1.7536
 2777TIP3   OH229965   2.387   4.977   2.141  0.3503  0.1931  0.0377
 2777TIP3    H129966   2.308   5.024   2.168 -0.3073 -0.6165 -0.4438
 2777TIP3    H229967   2.455   5.044   2.141 -0.8583  1.5566 -2.1635
 2778TIP3   OH229968   3.281   0.066   2.633 -0.1680 -0.1383 -0.1083
 2778TIP3    H129969   3.354   0.016   2.596  0.1213 -0.4977  0.9119
 2778TIP3    H229970   3.321   0.123   2.698 -0.5864  0.9582 -0.7912
 2779TIP3   OH229971   5.443   3.611   8.718  0.2280 -0.3329  0.3293
 2779TIP3    H129972   5.408   3.541   8.774 -1.0763  0.0188 -0.0034
 2779TIP3    H229973   5.461   3.683   8.778 -1.2733  0.0817  0.3110
 2780TIP3   OH229974   0.154   2.009   0.326  0.3307  0.5507 -0.2475
 2780TIP3    H129975   0.187   1.919   0.329 -2.0761 -0.3770  0.1367
 2780TIP3    H229976   0.137   2.026   0.234 -0.7923 -0.0355 -0.1647
 2781TIP3   OH229977   6.371   4.301   2.692  0.2524  0.5995 -0.2290
 2781TIP3    H129978   6.384   4.391   2.721  1.2793 -0.0261  1.3878
 2781TIP3    H229979   6.452   4.279   2.644  0.0041  0.5245 -0.6217
 2782TIP3   OH229980   4.068   5.547   0.719  0.2481  0.0757  0.6660
 2782TIP3    H129981   4.033   5.631   0.748  3.5864  1.4862  1.1035
 2782TIP3    H229982   4.104   5.507   0.798  0.5717 -0.7615  0.1152
 2783TIP3   OH229983   3.441   4.537   8.721  0.2630 -0.2597  0.4096
 2783TIP3    H129984   3.351   4.522   8.751 -0.2660  1.4609 -0.2283
 2783TIP3    H229985   3.485   4.577   8.795 -0.5398  2.2825 -0.4049
 2784TIP3   OH229986   0.740   2.188   7.944  0.0598 -0.3688  0.0647
 2784TIP3    H129987   0.823   2.194   7.897 -0.6728 -0.9521 -1.3673
 2784TIP3    H229988   0.696   2.112   7.905 -0.9127 -0.4161  1.1851
 2785TIP3   OH229989   2.028   3.141   3.153 -0.0331  0.7348 -0.1226
 2785TIP3    H129990   1.937   3.112   3.152  0.4419 -0.8350 -1.7552
 2785TIP3    H229991   2.059   3.121   3.241 -1.0272  0.5192  0.1898
 2786TIP3   OH229992   4.533   2.748   0.109  0.2215  0.3623  0.3393
 2786TIP3    H129993   4.618   2.705   0.098 -0.0723 -0.0059 -0.6052
 2786TIP3    H229994   4.471   2.676   0.120 -0.1431  0.5661 -0.2964
 2787TIP3   OH229995   1.631   1.489   0.092 -0.4093  0.0205  0.1536
 2787TIP3    H129996   1.661   1.547   0.022  2.3038 -0.0921  1.0977
 2787TIP3    H229997   1.592   1.415   0.046 -0.8085  0.9890 -1.1529
 2788TIP3   OH229998   4.562   0.029   0.015  0.3681  0.0943 -0.3184
 2788TIP3    H129999   4.545   0.072   0.099 -1.1735  1.0018 -1.0603
 2788TIP3    H230000   4.649  -0.009   0.026  0.8899  1.5524  1.1362
 2789TIP3   OH230001   4.299   4.962   8.664  0.4257 -0.1723 -0.4083
 2789TIP3    H130002   4.328   4.952   8.755  1.0094  1.4170 -0.3875
 2789TIP3    H230003   4.375   4.935   8.612  0.6732  0.4674 -0.3909
 2790TIP3   OH230004   1.533   1.530   0.577  0.1510 -0.0745  0.0558
 2790TIP3    H130005   1.546   1.435   0.568  1.2614 -0.1155  1.6215
 2790TIP3    H230006   1.450   1.547   0.534 -1.0266 -2.0690  1.3788
 2791TIP3   OH230007   5.343   3.432   0.061  0.7502 -0.0121 -0.2513
 2791TIP3    H130008   5.299   3.347   0.058  0.1717  0.2446  0.6640
 2791TIP3    H230009   5.300   3.479   0.132  1.0500  1.0675 -0.7682
 2792TIP3   OH230010   3.695   4.760   7.444 -0.1912  0.6800 -0.9133
 2792TIP3    H130011   3.730   4.673   7.424  0.3684  0.7943 -0.4509
 2792TIP3    H230012   3.748   4.820   7.391  0.8914  0.9273  0.3925
 2793TIP3   OH230013   6.085   3.213   7.552  0.2392 -0.2495 -0.3082
 2793TIP3    H130014   6.119   3.199   7.641  1.9251  1.7842 -0.5356
 2793TIP3    H230015   6.004   3.162   7.549  1.7580 -3.0038  1.2879
 2794TIP3   OH230016   3.207   5.093   2.402  0.1842 -0.5238 -0.2017
 2794TIP3    H130017   3.187   5.012   2.354  0.6810  0.3538 -1.9781
 2794TIP3    H230018   3.163   5.161   2.352 -0.8838  0.2693  1.7124
 2795TIP3   OH230019   3.170   1.936   7.192  0.3337 -0.4499 -0.0928
 2795TIP3    H130020   3.122   1.855   7.212 -0.8624  0.3203  0.2348
 2795TIP3    H230021   3.130   2.002   7.247  1.1149  0.4390 -0.5658
 2796TIP3   OH230022   3.795   3.675   1.387  0.6295  0.1507  0.4928
 2796TIP3    H130023   3.711   3.634   1.365  0.0422  1.9382 -0.8341
 2796TIP3    H230024   3.861   3.618   1.348 -0.2241  1.1274 -2.6462
 2797TIP3   OH230025   3.507   6.489   7.225 -0.4276  0.0283 -0.6716
 2797TIP3    H130026   3.529   6.552   7.156  1.6716  0.9488  0.7506
 2797TIP3    H230027   3.482   6.544   7.300 -1.1154 -0.9269 -0.1823
 2798TIP3   OH230028   5.166   5.818   0.713  0.2123  0.4337 -0.0906
 2798TIP3    H130029   5.152   5.844   0.622 -0.1889  1.7970  0.3354
 2798TIP3    H230030   5.261   5.817   0.723  0.2893 -0.6524 -0.7587
 2799TIP3   OH230031   4.540   2.826   7.751 -0.3117 -0.1962  0.4849
 2799TIP3    H130032   4.599   2.755   7.725  0.9940  1.2363 -0.6418
 2799TIP3    H230033   4.464   2.815   7.694  0.2212 -0.2379 -0.2390
 2800TIP3   OH230034   0.569   3.736   7.952  0.3716  0.3701  0.3886
 2800TIP3    H130035   0.524   3.798   7.895 -1.4161 -1.2248 -0.0421
 2800TIP3    H230036   0.647   3.709   7.902  1.0597  2.0316  0.4975
 2801TIP3   OH230037   2.918   5.191   2.810  0.0327 -0.0049  0.0830
 2801TIP3    H130038   2.966   5.122   2.854  0.5745 -1.2334 -2.2824
 2801TIP3    H230039   2.826   5.169   2.824  0.0939  0.9765  2.5170
 2802TIP3   OH230040   2.323   0.514   2.332 -0.0698  0.2142 -0.0324
 2802TIP3    H130041   2.405   0.505   2.284  0.3599 -2.0665  0.9788
 2802TIP3    H230042   2.320   0.606   2.358  1.4633  0.6506 -1.2652
 2803TIP3   OH230043   5.318   2.162   1.354 -0.4745  0.2661 -0.3898
 2803TIP3    H130044   5.228   2.142   1.327 -0.3340  0.5209 -1.0616
 2803TIP3    H230045   5.309   2.213   1.434 -0.8885 -1.0129  0.4176
 2804TIP3   OH230046   3.371   0.102   0.077 -0.1725  0.2874  0.0754
 2804TIP3    H130047   3.384   0.047   0.155 -0.2965  1.2032  0.7519
 2804TIP3    H230048   3.402   0.048   0.005 -0.2566 -0.6654  0.7311
 2805TIP3   OH230049   2.808   5.174   0.618 -0.2380  0.2435  0.3208
 2805TIP3    H130050   2.724   5.217   0.636 -0.1023  0.4795  0.3945
 2805TIP3    H230051   2.873   5.227   0.665 -0.1371 -0.3873  0.9098
 2806TIP3   OH230052   0.169   0.854   1.607 -0.3226 -0.2975  0.4416
 2806TIP3    H130053   0.196   0.770   1.569 -0.7415 -0.7702  1.1741
 2806TIP3    H230054   0.251   0.903   1.617 -0.4000  1.1037 -3.8509
 2807TIP3   OH230055   3.319   6.190   0.931  0.4963 -0.0250  0.2738
 2807TIP3    H130056   3.322   6.273   0.882  0.6278 -0.2036 -0.0252
 2807TIP3    H230057   3.263   6.209   1.006 -3.5944 -0.8891 -2.2160
 2808TIP3   OH230058   3.794   0.739   0.743  0.0328 -0.1615 -0.5588
 2808TIP3    H130059   3.777   0.831   0.722 -0.5390  0.3392  1.7214
 2808TIP3    H230060   3.713   0.694   0.721 -1.6332  0.8324  2.8268
 2809TIP3   OH230061   3.469   2.409   0.303  0.1567 -0.6523  0.0097
 2809TIP3    H130062   3.444   2.481   0.245  0.8285  0.6324  1.2484
 2809TIP3    H230063   3.430   2.432   0.387  2.4344 -0.4330  1.0736
 2810TIP3   OH230064   0.037   1.526   3.188  0.1837  0.1762 -0.5064
 2810TIP3    H130065  -0.006   1.523   3.103  0.1091  2.6294 -0.6070
 2810TIP3    H230066   0.114   1.581   3.174 -0.0641  0.9770  1.1124
 2811TIP3   OH230067   4.270   4.108   0.471 -0.5791 -0.5418 -0.2967
 2811TIP3    H130068   4.191   4.135   0.424 -0.1716  0.1923 -0.5733
 2811TIP3    H230069   4.342   4.136   0.415 -0.1165 -1.4005 -0.1529
 2812TIP3   OH230070   3.461   3.497   0.882  0.3439  0.4683  0.5856
 2812TIP3    H130071   3.378   3.458   0.858 -0.1817  0.4493  2.2610
 2812TIP3    H230072   3.510   3.505   0.800 -0.4082 -1.6219 -0.1243
 2813TIP3   OH230073   6.370   0.016   8.540  0.2976  0.6402  0.1711
 2813TIP3    H130074   6.411   0.017   8.454 -1.1284  1.7769 -0.5557
 2813TIP3    H230075   6.386   0.104   8.575 -1.1339  1.0030  0.0072
 2814TIP3   OH230076   2.968   1.474   1.090  0.0032 -0.1556 -0.5067
 2814TIP3    H130077   3.011   1.390   1.106 -0.4759 -0.3143 -0.0461
 2814TIP3    H230078   2.996   1.530   1.163  0.2795  0.0787 -0.7834
 2815TIP3   OH230079   2.637   3.122   0.782  0.3108  0.5737  0.0690
 2815TIP3    H130080   2.722   3.094   0.816 -0.3844 -0.1555  1.2640
 2815TIP3    H230081   2.644   3.109   0.687  0.8897 -1.2920  0.3361
 2816TIP3   OH230082   0.759   3.178   7.843 -0.4432  0.0948 -0.0392
 2816TIP3    H130083   0.736   3.113   7.909 -1.9050 -0.4729 -1.0416
 2816TIP3    H230084   0.675   3.203   7.804  0.2424  1.4820 -0.6886
 2817TIP3   OH230085   5.344   6.568   8.014 -0.7404 -0.3709 -0.0835
 2817TIP3    H130086   5.342   6.557   8.109 -1.7079  1.0097  0.0905
 2817TIP3    H230087   5.437   6.569   7.992 -0.4617  0.4820  1.0296
 2818TIP3   OH230088   4.973   0.690   0.659  0.0806  0.0498 -0.4621
 2818TIP3    H130089   5.013   0.606   0.680  1.6028  1.4855  3.4406
 2818TIP3    H230090   5.042   0.739   0.615  0.3371  0.2772  0.1764
 2819TIP3   OH230091   1.431   5.488   1.085  0.2619 -0.1633 -0.1511
 2819TIP3    H130092   1.450   5.412   1.030 -0.3305 -0.2717 -0.2104
 2819TIP3    H230093   1.338   5.505   1.071 -0.2824 -1.0933  1.9366
 2820TIP3   OH230094   4.996   0.038   0.233  0.1534 -0.4773 -0.1733
 2820TIP3    H130095   5.085   0.012   0.259 -0.0810 -0.0364  1.0972
 2820TIP3    H230096   5.005   0.129   0.207  0.2253 -0.6779 -0.8737
 2821TIP3   OH230097   1.841   3.510   2.513  0.0487 -0.3035  0.3002
 2821TIP3    H130098   1.879   3.574   2.574 -1.3022  0.2949  0.5617
 2821TIP3    H230099   1.757   3.549   2.488 -0.0274 -1.1948 -0.8759
 2822TIP3   OH230100   1.508   0.139   1.048  0.4418 -0.0367  0.4228
 2822TIP3    H130101   1.486   0.216   1.101  0.1974 -0.2774  0.6704
 2822TIP3    H230102   1.567   0.088   1.103 -1.3664 -1.2966  1.2976
 2823TIP3   OH230103   3.655   1.624   1.627 -0.4270 -0.0307 -0.0240
 2823TIP3    H130104   3.614   1.672   1.699  0.6509 -0.7687  1.1216
 2823TIP3    H230105   3.720   1.567   1.669 -0.0142 -0.7574 -1.5470
 2824TIP3   OH230106   3.175   0.591   7.717 -0.4701  0.0571  0.1173
 2824TIP3    H130107   3.249   0.626   7.767 -0.1866  0.4934 -0.5941
 2824TIP3    H230108   3.209   0.511   7.678 -0.6271 -0.1730  0.4509
 2825TIP3   OH230109   0.151   0.790   1.867  0.1877 -0.6205  0.2198
 2825TIP3    H130110   0.099   0.710   1.857  0.6378 -0.9629  0.5750
 2825TIP3    H230111   0.144   0.833   1.782 -0.3607 -0.8503  0.1396
 2826TIP3   OH230112   4.463   2.343   2.339 -0.3836  0.8738  0.1426
 2826TIP3    H130113   4.423   2.292   2.268 -0.5404  1.2491 -0.0418
 2826TIP3    H230114   4.528   2.398   2.295  2.0598 -1.3500  0.6636
 2827TIP3   OH230115   2.798   2.769   7.554  0.4561 -0.5886  0.0286
 2827TIP3    H130116   2.859   2.714   7.603  2.3382  0.0442 -1.4758
 2827TIP3    H230117   2.839   2.855   7.551 -0.0014 -0.3779 -1.8745
 2828TIP3   OH230118   0.167   5.337   2.214 -0.3005  0.4553  0.0410
 2828TIP3    H130119   0.210   5.411   2.255 -0.9157  0.3006  0.9985
 2828TIP3    H230120   0.108   5.303   2.281 -2.3594  1.0113 -1.3874
 2829TIP3   OH230121   1.742   3.086   3.478 -0.1754  0.2253 -0.1207
 2829TIP3    H130122   1.803   3.144   3.523 -0.9864  1.1264 -0.1557
 2829TIP3    H230123   1.730   3.126   3.391  1.1571 -1.3351 -1.0770
 2830TIP3   OH230124   1.321   2.311   3.169 -0.4424 -0.8117 -0.1112
 2830TIP3    H130125   1.307   2.218   3.149 -0.0908 -0.8700 -0.0863
 2830TIP3    H230126   1.238   2.339   3.208 -0.3112 -1.2915  0.5224
 2831TIP3   OH230127   4.181   4.889   2.490  0.0348 -0.3121  0.2899
 2831TIP3    H130128   4.273   4.915   2.490 -0.5874  2.1399  0.3694
 2831TIP3    H230129   4.174   4.823   2.560  1.5730  0.1223  0.8807
 2832TIP3   OH230130   4.544   2.223   8.282  0.4031 -0.0620 -0.1103
 2832TIP3    H130131   4.586   2.182   8.206  1.6247  2.5220 -0.9337
 2832TIP3    H230132   4.610   2.217   8.351  0.5982  0.5341 -0.2441
 2833TIP3   OH230133   0.206   1.968   3.255  0.3399 -0.4587  0.1582
 2833TIP3    H130134   0.301   1.980   3.251  0.2440 -0.0614 -1.1992
 2833TIP3    H230135   0.177   2.028   3.325  1.0011 -0.0196  0.0630
 2834TIP3   OH230136   4.634   0.963   7.965 -0.0678 -0.1128 -0.0550
 2834TIP3    H130137   4.681   0.988   8.044 -0.3847 -0.9357  0.4090
 2834TIP3    H230138   4.646   1.037   7.906  1.3269 -0.0704  0.2492
 2835TIP3   OH230139   0.224   0.454   2.649  0.0167 -0.3894  0.6037
 2835TIP3    H130140   0.317   0.466   2.669  0.0635 -0.1125  0.2383
 2835TIP3    H230141   0.179   0.499   2.720  0.1870  0.8215 -0.0219
 2836TIP3   OH230142   1.855   1.130   8.271 -0.7161  0.0110  0.7065
 2836TIP3    H130143   1.782   1.177   8.232 -1.4413 -0.1295  1.8698
 2836TIP3    H230144   1.913   1.111   8.197 -0.5757  2.3617  0.1494
 2837TIP3   OH230145   6.364   4.999   3.432  0.6468 -0.0512  0.0223
 2837TIP3    H130146   6.305   4.927   3.454 -0.6828  0.4694 -1.6435
 2837TIP3    H230147   6.372   5.049   3.513  0.2445 -1.1279  0.7486
 2838TIP3   OH230148   0.538   6.302   1.485  0.3121  0.9089 -0.2572
 2838TIP3    H130149   0.515   6.231   1.425 -1.2609  1.2487 -0.0867
 2838TIP3    H230150   0.552   6.378   1.429  1.5563  0.5976 -0.4005
 2839TIP3   OH230151   2.627   1.468   1.265  0.3577 -0.4894  0.1931
 2839TIP3    H130152   2.605   1.465   1.172  3.0890  0.2806 -0.5774
 2839TIP3    H230153   2.627   1.377   1.293  0.0212 -0.7735 -0.6986
 2840TIP3   OH230154   1.960   2.026   1.958  0.1476 -0.5513  0.2634
 2840TIP3    H130155   1.942   2.009   1.866 -2.0428 -0.0260  0.5531
 2840TIP3    H230156   2.045   1.984   1.974  0.6701 -0.4629 -2.0136
 2841TIP3   OH230157   2.081   2.549   8.710 -0.0059 -0.1920 -0.1332
 2841TIP3    H130158   2.120   2.487   8.648 -2.5849 -0.6604 -1.3852
 2841TIP3    H230159   2.121   2.526   8.794  2.4587 -0.5254 -1.3032
 2842TIP3   OH230160   2.815   4.899   1.423  0.6649  0.1133 -0.0156
 2842TIP3    H130161   2.903   4.927   1.397  0.5605  0.8463  0.4007
 2842TIP3    H230162   2.800   4.942   1.507  1.7818 -3.7095  2.4113
 2843TIP3   OH230163   5.036   5.667   2.425 -0.0933 -0.0239 -0.3821
 2843TIP3    H130164   5.075   5.585   2.394 -2.2302 -2.3610  2.5973
 2843TIP3    H230165   5.111   5.723   2.445  1.5261 -2.0137 -0.5983
 2844TIP3   OH230166   2.468   0.959   7.615  0.3620  0.6287 -0.0813
 2844TIP3    H130167   2.443   1.018   7.543 -1.3667 -1.9284 -1.7349
 2844TIP3    H230168   2.545   0.913   7.582  0.0348  0.0019  0.0294
 2845TIP3   OH230169   3.590   1.578   8.279  0.2225 -0.2305  0.4227
 2845TIP3    H130170   3.563   1.498   8.233  0.9820 -0.4722  0.3820
 2845TIP3    H230171   3.685   1.570   8.286  0.2154  0.2740  1.1687
 2846TIP3   OH230172   1.097   3.992   2.450 -0.2842 -0.4635  0.4824
 2846TIP3    H130173   1.112   4.021   2.360  2.7183 -0.9956  0.7214
 2846TIP3    H230174   1.024   3.931   2.444 -0.5162 -0.0450 -1.4892
 2847TIP3   OH230175   1.137   1.247   0.616 -0.5884 -0.1274 -0.2587
 2847TIP3    H130176   1.057   1.294   0.639 -1.3431 -0.5535 -1.8988
 2847TIP3    H230177   1.121   1.212   0.528  0.7859 -1.5825  0.0092
 2848TIP3   OH230178   5.117   3.814   0.443 -0.4987  0.0044 -0.1055
 2848TIP3    H130179   5.119   3.908   0.461 -1.7431 -0.0365  0.3313
 2848TIP3    H230180   5.032   3.785   0.476 -0.5462 -1.1023 -1.1296
 2849TIP3   OH230181   2.514   2.850   8.687  0.1614 -0.0423 -0.3729
 2849TIP3    H130182   2.483   2.813   8.604  0.2247 -0.0328 -0.4011
 2849TIP3    H230183   2.488   2.942   8.684 -3.6167 -0.8736  1.4469
 2850TIP3   OH230184   6.053   0.946   0.605 -0.1525 -0.0981  0.3894
 2850TIP3    H130185   5.971   0.928   0.652 -0.1875 -0.9815  0.0240
 2850TIP3    H230186   6.119   0.953   0.673 -0.7618  2.3246  0.8403
 2851TIP3   OH230187   5.321   0.774   7.494 -0.4465 -0.2715  0.0531
 2851TIP3    H130188   5.302   0.717   7.420 -0.2705  0.4020 -0.5240
 2851TIP3    H230189   5.266   0.741   7.565  1.1124 -2.3919  0.3573
 2852TIP3   OH230190   0.883   2.513   2.921  0.0087  0.7029 -0.5828
 2852TIP3    H130191   0.890   2.538   3.013 -1.4730  2.3393 -0.8689
 2852TIP3    H230192   0.837   2.429   2.922  2.3938 -0.7052  0.2400
 2853TIP3   OH230193   5.059   2.766   7.813 -0.2082  0.0450  0.0808
 2853TIP3    H130194   5.021   2.847   7.778 -0.5366  0.0837  0.5109
 2853TIP3    H230195   5.134   2.795   7.863  0.0099  0.0289 -0.2332
 2854TIP3   OH230196   1.867   5.881   0.616  0.0973 -0.3626 -0.1760
 2854TIP3    H130197   1.823   5.797   0.604 -1.4674  0.0559  1.9451
 2854TIP3    H230198   1.884   5.886   0.710  2.3806  0.6873 -0.5731
 2855TIP3   OH230199   2.740   1.592   8.032 -0.5255 -0.1648  0.0960
 2855TIP3    H130200   2.729   1.685   8.015  0.7487 -0.2079 -1.1685
 2855TIP3    H230201   2.730   1.550   7.947 -1.0857 -1.1935  0.6470
 2856TIP3   OH230202   3.276   4.675   6.875 -0.0543 -0.0824  0.5966
 2856TIP3    H130203   3.284   4.629   6.959  1.6666  0.3065  0.6892
 2856TIP3    H230204   3.330   4.625   6.815 -2.5523 -1.2992 -0.7827
 2857TIP3   OH230205   3.142   0.648   8.607 -0.5581  0.1770 -0.1033
 2857TIP3    H130206   3.179   0.563   8.629  0.7485  1.0047  1.0668
 2857TIP3    H230207   3.157   0.701   8.685 -1.3066  1.5084 -0.8296
 2858TIP3   OH230208   1.551   1.868   1.229 -0.1951  0.1909  0.4508
 2858TIP3    H130209   1.621   1.811   1.263  0.9222  1.2797  0.0582
 2858TIP3    H230210   1.584   1.956   1.242 -0.2726  0.6988 -2.2697
 2859TIP3   OH230211   0.051   5.367   2.846 -0.4449  0.3904 -0.3017
 2859TIP3    H130212   0.062   5.453   2.888 -0.8418  0.4809 -0.3805
 2859TIP3    H230213   0.141   5.339   2.825 -0.3622  1.2697 -1.2383
 2860TIP3   OH230214   6.253   4.464   0.223 -0.3007  0.0322  0.3860
 2860TIP3    H130215   6.185   4.450   0.157 -0.4840  1.3413  0.2646
 2860TIP3    H230216   6.335   4.442   0.178 -0.4306  0.8270 -0.2656
 2861TIP3   OH230217   0.676   6.680   0.077  0.1094  0.4511 -0.3790
 2861TIP3    H130218   0.594   6.712   0.038 -0.1096 -0.3347 -0.5728
 2861TIP3    H230219   0.713   6.757   0.121 -2.1694  0.1915  2.2351
 2862TIP3   OH230220   5.871   5.938   2.540 -0.2436  0.1095  0.2700
 2862TIP3    H130221   5.934   5.925   2.470 -1.5855  2.3351 -1.4741
 2862TIP3    H230222   5.924   5.948   2.619  1.3092 -2.1999 -0.3919
 2863TIP3   OH230223   0.143   4.812   8.369  0.3775  0.4169  0.3363
 2863TIP3    H130224   0.190   4.735   8.400 -0.6054  0.4433  1.9918
 2863TIP3    H230225   0.144   4.804   8.274  3.9026  0.5417  0.2428
 2864TIP3   OH230226   3.414   0.536   2.358 -0.1215 -0.3621 -0.1074
 2864TIP3    H130227   3.343   0.598   2.373  0.2981  0.1102 -0.0475
 2864TIP3    H230228   3.449   0.518   2.445  1.5099  1.4195 -0.3330
 2865TIP3   OH230229   0.234   6.739   8.414 -0.7743 -0.2312  0.1931
 2865TIP3    H130230   0.215   6.808   8.478  1.6246 -0.2949  1.0529
 2865TIP3    H230231   0.246   6.785   8.332  0.5371  0.3884  0.7073
 2866TIP3   OH230232   3.391   6.783   1.691 -0.1381 -0.0645 -0.2135
 2866TIP3    H130233   3.394   6.878   1.707 -1.9105 -0.1172  0.6237
 2866TIP3    H230234   3.435   6.745   1.766  0.9996  0.0865 -0.7806
 2867TIP3   OH230235   3.761   5.328   2.772 -0.6089  0.4728 -0.5230
 2867TIP3    H130236   3.729   5.410   2.735 -1.5005 -0.4182 -1.8165
 2867TIP3    H230237   3.700   5.308   2.843 -0.5143  0.8254 -0.3427
 2868TIP3   OH230238   2.453   5.682   2.188  0.9240  0.2420 -0.2402
 2868TIP3    H130239   2.357   5.680   2.187  0.9121 -0.6799  0.4065
 2868TIP3    H230240   2.475   5.726   2.270  1.0232 -0.8583  0.3488
 2869TIP3   OH230241   2.264   1.921   0.539 -0.7595  0.0231  0.5072
 2869TIP3    H130242   2.191   1.956   0.489 -1.3608 -0.9943  0.6606
 2869TIP3    H230243   2.313   1.868   0.476 -1.0954 -0.6546  0.8200
 2870TIP3   OH230244   6.626   5.088   2.343  0.5862  0.1753  0.2871
 2870TIP3    H130245   6.540   5.073   2.382  0.4222  0.1277 -0.0851
 2870TIP3    H230246   6.627   5.182   2.324  0.8089  0.2653  0.7399
 2871TIP3   OH230247   2.145   2.178   7.394  0.5521 -0.3365 -0.2681
 2871TIP3    H130248   2.107   2.230   7.323 -1.2194 -2.1380 -0.7613
 2871TIP3    H230249   2.212   2.124   7.352  0.4490 -0.4255 -0.3205
 2872TIP3   OH230250   4.748   2.243   7.731 -0.2937 -0.7465  0.9848
 2872TIP3    H130251   4.670   2.259   7.678  0.1396 -3.2236 -0.5373
 2872TIP3    H230252   4.745   2.150   7.750  1.6752 -0.6503  1.9870
 2873TIP3   OH230253   2.714   4.345   3.085  0.4928  0.2063  0.0978
 2873TIP3    H130254   2.783   4.384   3.139 -0.8065  0.6928  1.4633
 2873TIP3    H230255   2.660   4.297   3.147  0.2377 -1.1348 -1.1224
 2874TIP3   OH230256   4.581   3.376   8.238  0.2165 -0.0182 -0.2525
 2874TIP3    H130257   4.611   3.427   8.163 -2.4060  2.1787  0.0544
 2874TIP3    H230258   4.661   3.339   8.275  1.8220  0.6108 -2.8156
 2875TIP3   OH230259   1.764   4.795   0.637 -0.2276 -0.1410  0.1031
 2875TIP3    H130260   1.687   4.813   0.691 -0.7265  0.2042 -0.7011
 2875TIP3    H230261   1.739   4.720   0.583 -0.1008  0.1388 -0.3528
 2876TIP3   OH230262   1.960   3.986   8.071 -0.2601 -0.2532  0.1957
 2876TIP3    H130263   1.938   3.921   8.004  1.8044  0.9826 -1.8429
 2876TIP3    H230264   2.054   3.973   8.087 -0.4906  0.1785  2.1105
 2877TIP3   OH230265   4.921   1.780   2.048 -0.4907 -0.3409 -0.2696
 2877TIP3    H130266   4.902   1.865   2.008 -1.3960 -0.0066  0.8315
 2877TIP3    H230267   4.873   1.781   2.130 -0.1868 -1.7748 -0.0555
 2878TIP3   OH230268   4.189   0.317   8.185  0.1562  0.1388  0.1554
 2878TIP3    H130269   4.274   0.307   8.142  0.2854 -0.3490  0.5113
 2878TIP3    H230270   4.125   0.293   8.118  0.2940  0.5705 -0.1338
 2879TIP3   OH230271   1.597   1.357   8.639  0.2478 -0.0377  0.3273
 2879TIP3    H130272   1.543   1.394   8.569  0.6513  1.4844  0.7825
 2879TIP3    H230273   1.544   1.285   8.674 -0.9708  0.6599 -0.0226
 2880TIP3   OH230274   1.832   2.704   1.942  0.1273  0.7189  0.2901
 2880TIP3    H130275   1.897   2.703   2.012 -2.0133 -1.1720  2.4521
 2880TIP3    H230276   1.824   2.613   1.915 -1.2742  0.9724 -0.2226
 2881TIP3   OH230277   1.310   1.246   8.382  0.3804  0.0738  0.2915
 2881TIP3    H130278   1.288   1.337   8.398 -2.8350 -0.4181 -0.6259
 2881TIP3    H230279   1.345   1.215   8.465 -0.6239  1.5995  1.3412
 2882TIP3   OH230280   4.224   6.736   0.861  0.2537 -0.6119 -0.4314
 2882TIP3    H130281   4.168   6.660   0.875  1.6710 -1.6814 -0.3564
 2882TIP3    H230282   4.260   6.757   0.948  0.7559 -0.5748 -0.6429
 2883TIP3   OH230283   4.850   4.260   1.339  0.5107 -0.0416  0.2014
 2883TIP3    H130284   4.856   4.165   1.350 -0.4986 -0.1684 -0.2046
 2883TIP3    H230285   4.907   4.296   1.407  0.3365 -0.9183  0.8312
 2884TIP3   OH230286   6.290   6.593   8.693  0.2687 -0.0526  0.1139
 2884TIP3    H130287   6.205   6.556   8.669  0.5543 -0.4361 -0.3303
 2884TIP3    H230288   6.299   6.670   8.636  0.1273  0.1069  0.3073
 2885TIP3   OH230289   5.271   1.265   3.290 -0.0486 -0.1472  0.8117
 2885TIP3    H130290   5.338   1.271   3.221 -0.3325 -1.7747  0.3627
 2885TIP3    H230291   5.188   1.275   3.243 -0.1696  1.5157  1.3206
 2886TIP3   OH230292   2.953   1.613   0.277  0.1472  0.2642  0.3933
 2886TIP3    H130293   2.860   1.605   0.297 -0.2746  2.3397 -0.4391
 2886TIP3    H230294   2.972   1.539   0.219 -2.1311  2.0308 -2.9907
 2887TIP3   OH230295   5.738   5.183   2.511  0.1410 -0.2353 -0.0005
 2887TIP3    H130296   5.747   5.270   2.472 -1.0566  1.4322  3.0225
 2887TIP3    H230297   5.827   5.155   2.530  0.7571 -1.0906 -3.5546
 2888TIP3   OH230298   3.216   3.640   0.129 -0.2519  0.2989 -0.5671
 2888TIP3    H130299   3.226   3.683   0.044  0.6491  0.3095 -0.4709
 2888TIP3    H230300   3.280   3.569   0.128 -0.5575  0.0081 -0.0743
 2889TIP3   OH230301   4.394   1.411   0.388 -0.6380 -0.6451  0.3310
 2889TIP3    H130302   4.483   1.382   0.369  0.3535  1.4104  1.4865
 2889TIP3    H230303   4.355   1.425   0.301  0.3371 -1.0719 -0.1951
 2890TIP3   OH230304   4.667   2.849   8.507 -0.5077 -0.0575  0.3230
 2890TIP3    H130305   4.661   2.926   8.449 -0.7254 -1.1516 -1.1644
 2890TIP3    H230306   4.733   2.873   8.572 -0.8652  1.5421  0.1385
 2891TIP3   OH230307   2.307   3.795   8.461 -0.5002 -0.0531  0.0791
 2891TIP3    H130308   2.307   3.809   8.367  1.1038  1.4353  0.2303
 2891TIP3    H230309   2.400   3.797   8.485 -0.9074  0.2867  1.7660
 2892TIP3   OH230310   2.823   3.189   8.309 -0.3737 -0.1059  0.0639
 2892TIP3    H130311   2.902   3.243   8.302  0.7668 -1.6712  0.1370
 2892TIP3    H230312   2.791   3.180   8.220  1.7453 -2.4917 -0.5750
 2893TIP3   OH230313   3.392   4.031   1.282  0.7129 -0.4384  0.0412
 2893TIP3    H130314   3.440   4.073   1.353  0.7651  1.3630 -0.9805
 2893TIP3    H230315   3.456   4.025   1.211 -0.3365  1.5686 -1.1794
 2894TIP3   OH230316   5.721   6.333   8.766 -0.2989  0.0200 -0.2770
 2894TIP3    H130317   5.792   6.269   8.771 -0.3843 -0.0999 -0.5815
 2894TIP3    H230318   5.642   6.283   8.787 -0.3973 -0.0345 -0.7574
 2895TIP3   OH230319   3.579   5.922   8.617  0.2287 -0.0265  0.1530
 2895TIP3    H130320   3.657   5.899   8.568  0.4296 -0.3569  0.6236
 2895TIP3    H230321   3.577   6.018   8.615 -0.2388 -0.0404 -1.2200
 2896TIP3   OH230322   0.970   5.514   1.236  0.4350 -0.5866  0.0185
 2896TIP3    H130323   1.038   5.496   1.172 -1.0924 -0.9451 -1.5831
 2896TIP3    H230324   0.981   5.606   1.259  3.4321 -1.3763  2.3125
 2897TIP3   OH230325   6.378   0.984   0.333  0.2521 -0.0066 -0.3560
 2897TIP3    H130326   6.389   0.892   0.310 -0.2539 -0.2752  0.4340
 2897TIP3    H230327   6.295   1.009   0.292  0.9158  0.4116 -1.4816
 2898TIP3   OH230328   2.418   5.399   8.293 -0.1296 -0.0633  0.5178
 2898TIP3    H130329   2.463   5.461   8.350 -0.2938  0.3188  0.2382
 2898TIP3    H230330   2.385   5.331   8.352 -1.2020  0.8600  1.0108
 2899TIP3   OH230331   0.490   3.761   8.443 -0.4667 -0.2064 -0.4381
 2899TIP3    H130332   0.562   3.739   8.501 -1.0651 -2.0916 -0.3331
 2899TIP3    H230333   0.431   3.814   8.497 -1.2003 -2.2468  0.8726
 2900TIP3   OH230334   4.392   2.285   1.373  0.1984 -0.1062 -0.0206
 2900TIP3    H130335   4.306   2.257   1.405 -0.2913  0.7450 -0.5380
 2900TIP3    H230336   4.372   2.359   1.316  1.3656  0.7234  0.6280
 2901TIP3   OH230337   4.685   6.618   2.083  0.1811  0.3926  0.0710
 2901TIP3    H130338   4.767   6.645   2.125 -0.2206  2.4584 -0.3521
 2901TIP3    H230339   4.711   6.589   1.996  0.6026 -0.3339  0.4315
 2902TIP3   OH230340   1.396   3.370   8.243  0.0635 -0.5481  0.4027
 2902TIP3    H130341   1.430   3.362   8.154 -0.1777  2.0361 -0.0192
 2902TIP3    H230342   1.454   3.435   8.284 -0.6946 -0.6328  1.6618
 2903TIP3   OH230343   4.599   5.589   7.866  0.0213  0.2516 -0.2927
 2903TIP3    H130344   4.504   5.601   7.861  0.0100 -0.1445 -1.1189
 2903TIP3    H230345   4.633   5.641   7.793  0.3841 -0.2034 -0.4488
 2904TIP3   OH230346   4.795   3.131   3.134  0.3049  0.0262  0.6529
 2904TIP3    H130347   4.766   3.075   3.206  0.4387 -0.0285  0.6649
 2904TIP3    H230348   4.779   3.079   3.055  0.6539 -0.1259  0.6807
 2905TIP3   OH230349   0.925   3.459   2.279  0.1810 -0.3522 -0.1360
 2905TIP3    H130350   0.976   3.504   2.212  1.2207  0.4791  1.1774
 2905TIP3    H230351   0.977   3.382   2.300 -0.6681 -1.2049 -1.0018
 2906TIP3   OH230352   3.313   3.463   8.770  0.2609  0.9382 -0.1177
 2906TIP3    H130353   3.369   3.522   8.719  1.0445 -0.5208 -1.0379
 2906TIP3    H230354   3.237   3.448   8.714  1.8937 -2.0308 -1.8348
 2907TIP3   OH230355   5.911   1.718   1.772 -0.6899  0.3450 -0.3881
 2907TIP3    H130356   5.949   1.660   1.706  1.7677  0.3771  0.8675
 2907TIP3    H230357   5.959   1.697   1.852 -2.8646  1.0241  1.1754
 2908TIP3   OH230358   0.369   2.122   8.324  0.2616 -0.7836  0.1603
 2908TIP3    H130359   0.442   2.107   8.264 -0.9088  1.0357 -1.8781
 2908TIP3    H230360   0.365   2.217   8.332 -1.4182 -0.8876  0.8249
 2909TIP3   OH230361   1.392   6.575   0.310 -0.6151  0.4283 -0.0768
 2909TIP3    H130362   1.397   6.664   0.277 -2.4637  0.3529 -0.6805
 2909TIP3    H230363   1.444   6.523   0.248  0.8795  1.1138  0.5527
 2910TIP3   OH230364   3.150   5.717   1.560 -0.1455 -0.4814  0.4231
 2910TIP3    H130365   3.230   5.677   1.592  0.9628  0.3905 -1.1312
 2910TIP3    H230366   3.179   5.785   1.500 -2.0458 -0.4565 -0.5548
 2911TIP3   OH230367   0.361   2.476   8.770 -0.1383 -0.1340  0.5338
 2911TIP3    H130368   0.348   2.556   8.719  0.1306  0.7994  1.8676
 2911TIP3    H230369   0.455   2.474   8.787  0.2050 -1.8822 -1.2203
 2912TIP3   OH230370   4.399   4.623   2.512 -0.0020 -0.4291 -0.2767
 2912TIP3    H130371   4.400   4.606   2.418 -3.4734  0.3691 -0.6251
 2912TIP3    H230372   4.449   4.704   2.522 -0.5006  0.0852 -1.6344
 2913TIP3   OH230373   0.706   6.452   8.207 -0.0770 -0.2399  0.9881
 2913TIP3    H130374   0.757   6.485   8.281  0.9800  1.8659 -0.5672
 2913TIP3    H230375   0.755   6.480   8.129 -1.1408 -2.3430 -0.5514
 2914TIP3   OH230376   6.209   5.227   1.903 -0.2277  0.7315 -0.2139
 2914TIP3    H130377   6.272   5.162   1.935 -1.3426  0.1287  0.8715
 2914TIP3    H230378   6.194   5.202   1.812 -1.3215 -1.1721  0.4290
 2915TIP3   OH230379   0.465   6.088   0.183  0.1881 -0.6285 -0.3992
 2915TIP3    H130380   0.448   6.011   0.238 -0.4859 -0.4627 -0.3752
 2915TIP3    H230381   0.433   6.063   0.097 -0.2605 -0.2887 -0.3345
 2916TIP3   OH230382   0.494   1.454   1.250 -0.0022 -0.2786 -0.2869
 2916TIP3    H130383   0.460   1.397   1.319  0.8298 -1.0822 -0.5221
 2916TIP3    H230384   0.417   1.499   1.216 -0.4113  0.2602  1.2667
 2917TIP3   OH230385   1.681   2.730   1.398 -0.0584  0.2374  0.2419
 2917TIP3    H130386   1.668   2.749   1.305  0.8939  0.3301  0.1188
 2917TIP3    H230387   1.597   2.695   1.427 -0.3334  0.1046 -0.6807
 2918TIP3   OH230388   3.758   3.161   2.071  0.0888  0.3391 -0.2139
 2918TIP3    H130389   3.719   3.079   2.102 -0.9117  0.0911 -2.0360
 2918TIP3    H230390   3.832   3.133   2.017 -0.7286  0.5887 -1.4838
 2919TIP3   OH230391   6.658   0.384   0.944 -0.1429 -0.5735  0.4239
 2919TIP3    H130392   6.734   0.399   0.888 -1.6628  1.1625 -1.3195
 2919TIP3    H230393   6.596   0.337   0.888 -0.9095 -0.6600  1.3260
 2920TIP3   OH230394   3.052   2.034   8.622 -0.2741 -0.0239  0.7547
 2920TIP3    H130395   3.131   1.982   8.641 -1.0900 -1.2265  0.9606
 2920TIP3    H230396   3.061   2.112   8.678 -0.6243 -1.5475  3.0847
 2921TIP3   OH230397   4.093   6.428   1.714 -0.3112  0.1824 -0.3002
 2921TIP3    H130398   4.039   6.468   1.645 -2.1107 -1.3634  0.1133
 2921TIP3    H230399   4.096   6.335   1.691 -0.6732 -0.3121  1.4836
 2922TIP3   OH230400   3.391   6.413   0.514  0.8316  0.3702  0.2724
 2922TIP3    H130401   3.350   6.338   0.556  0.4920  0.3556 -0.0880
 2922TIP3    H230402   3.375   6.401   0.421 -0.6033  1.7006  0.3161
 2923TIP3   OH230403   2.073   3.548   8.130  0.2724 -0.2523 -0.3418
 2923TIP3    H130404   2.019   3.475   8.100  2.1266 -1.1184 -1.8170
 2923TIP3    H230405   2.144   3.506   8.179  0.5049  0.7063  0.1601
 2924TIP3   OH230406   0.546   3.564   3.122 -0.1758  0.3475  0.3296
 2924TIP3    H130407   0.613   3.504   3.152 -0.6492 -1.0642 -1.2355
 2924TIP3    H230408   0.542   3.632   3.188  1.5146 -0.5006  1.3550
 2925TIP3   OH230409   3.868   6.330   2.838 -0.3847 -0.1947 -0.5112
 2925TIP3    H130410   3.782   6.292   2.858 -0.5850  0.0194 -0.9737
 2925TIP3    H230411   3.895   6.371   2.920 -0.0401 -1.5613  0.1003
 2926TIP3   OH230412   5.128   0.868   8.515  0.1206  0.7212  0.5572
 2926TIP3    H130413   5.219   0.861   8.545 -0.3610 -0.7845  1.8607
 2926TIP3    H230414   5.120   0.801   8.447 -0.0822  0.6213  0.6769
 2927TIP3   OH230415   5.076   3.807   1.504 -0.3929 -0.3731 -0.1929
 2927TIP3    H130416   4.993   3.830   1.463 -0.2784  1.6044  0.5933
 2927TIP3    H230417   5.053   3.745   1.573 -1.4658  1.4392  1.1345
 2928TIP3   OH230418   3.991   2.524   2.329  0.1555 -0.1216 -0.1920
 2928TIP3    H130419   4.005   2.429   2.326 -2.1769 -0.5349 -0.0081
 2928TIP3    H230420   3.940   2.543   2.250 -2.0006  0.4221  1.2322
 2929TIP3   OH230421   1.759   1.612   0.405  0.0103 -0.0719 -0.3299
 2929TIP3    H130422   1.664   1.622   0.403  0.1363  1.2419 -0.3831
 2929TIP3    H230423   1.775   1.544   0.470 -0.9608 -0.3173 -0.3335
 2930TIP3   OH230424   5.025   0.643   1.164 -0.0562  0.3247 -0.5370
 2930TIP3    H130425   4.960   0.671   1.228  2.2888 -0.4676  2.4321
 2930TIP3    H230426   4.979   0.581   1.108 -2.2250  0.9751  0.4064
 2931TIP3   OH230427   3.973   4.303   0.084 -0.0590  0.1280  0.2995
 2931TIP3    H130428   3.944   4.376   0.031 -0.8738 -0.4603 -0.0801
 2931TIP3    H230429   3.893   4.266   0.120  0.3833 -0.2792  0.8842
 2932TIP3   OH230430   5.748   1.990   7.478  0.0778 -0.2776 -0.2260
 2932TIP3    H130431   5.670   1.959   7.525 -0.7352 -0.3972 -1.6024
 2932TIP3    H230432   5.811   2.012   7.548 -0.9123 -0.8656  0.8925
 2933TIP3   OH230433   0.018   5.788   2.626 -0.2348  0.7717 -0.0014
 2933TIP3    H130434   0.113   5.780   2.636 -0.4034 -0.6653  0.7458
 2933TIP3    H230435   0.004   5.880   2.605  1.4842  0.5898 -2.3369
 2934TIP3   OH230436   3.499   2.451   3.060 -0.0601  0.4833  0.3923
 2934TIP3    H130437   3.510   2.540   3.025  1.9352  0.6307  1.2372
 2934TIP3    H230438   3.525   2.459   3.152  0.0120 -0.9526  0.5108
 2935TIP3   OH230439   2.028   5.747   8.817  0.2262  0.2766 -0.1519
 2935TIP3    H130440   2.073   5.773   8.736  0.5728  0.3275  0.0569
 2935TIP3    H230441   2.071   5.666   8.844  0.8463  0.8390  0.5752
 2936TIP3   OH230442   4.382   6.659   1.453  0.0239  0.1524  0.0361
 2936TIP3    H130443   4.367   6.574   1.412 -0.5292  0.1037  0.3294
 2936TIP3    H230444   4.395   6.639   1.546 -0.0127  0.3807  0.0906
 2937TIP3   OH230445   2.665   2.182   8.272 -0.6038 -0.1074 -0.8644
 2937TIP3    H130446   2.716   2.110   8.308 -2.5991 -0.8528  0.6241
 2937TIP3    H230447   2.677   2.175   8.177  1.2934 -0.7562 -0.6299
 2938TIP3   OH230448   4.454   3.094   7.575  0.8408 -0.0317  0.2341
 2938TIP3    H130449   4.401   3.092   7.655  0.7796  1.4677  0.2604
 2938TIP3    H230450   4.470   3.187   7.559 -1.4652 -0.0075 -3.0205
 2939TIP3   OH230451   6.740   4.910   7.658 -0.0841  0.0967 -0.6229
 2939TIP3    H130452   6.705   4.988   7.614 -0.8460  0.0287 -0.1561
 2939TIP3    H230453   6.797   4.870   7.593  1.0104  1.5068 -0.5872
 2940TIP3   OH230454   1.692   0.807   2.652 -0.0959 -0.1779 -0.1882
 2940TIP3    H130455   1.767   0.866   2.657  0.2062 -0.6264  3.4165
 2940TIP3    H230456   1.631   0.840   2.718 -0.3245 -3.2141  1.3232
 2941TIP3   OH230457   1.216   0.962   1.136  0.3743 -0.0420 -0.0495
 2941TIP3    H130458   1.182   0.873   1.125  1.1270 -0.4352  0.6413
 2941TIP3    H230459   1.190   1.008   1.056 -0.4862 -0.7303 -0.1811
 2942TIP3   OH230460   1.163   0.473   7.325 -0.6151  0.4676 -0.3118
 2942TIP3    H130461   1.069   0.460   7.315 -0.4318  0.5831 -2.8666
 2942TIP3    H230462   1.172   0.564   7.353 -1.2926 -0.0528  1.7106
 2943TIP3   OH230463   3.520   3.391   1.511 -0.1154 -0.2763  0.2311
 2943TIP3    H130464   3.515   3.445   1.589 -1.5411 -1.5814  1.1001
 2943TIP3    H230465   3.502   3.451   1.439 -0.7494  0.5743  1.0811
 2944TIP3   OH230466   5.341   4.291   2.085  0.2464  0.0934 -0.5930
 2944TIP3    H130467   5.293   4.344   2.148  0.5432 -0.8845  0.4979
 2944TIP3    H230468   5.415   4.345   2.059  0.1237  0.5066 -0.0914
 2945TIP3   OH230469   1.237   1.296   7.811 -0.1489 -0.1409 -0.2068
 2945TIP3    H130470   1.157   1.316   7.763 -0.5692  0.3540  0.6788
 2945TIP3    H230471   1.274   1.220   7.766 -1.3077 -0.6049 -0.3956
 2946TIP3   OH230472   5.966   0.366   3.629 -0.3155 -0.4522 -0.5230
 2946TIP3    H130473   5.906   0.312   3.681 -0.1970 -0.7908 -0.7376
 2946TIP3    H230474   6.053   0.339   3.658 -0.2587  0.5004  0.2639
 2947TIP3   OH230475   4.030   5.143   1.671 -0.5113  0.2067  0.1420
 2947TIP3    H130476   4.039   5.228   1.713  0.6290  0.2734 -0.1892
 2947TIP3    H230477   3.939   5.119   1.683 -0.4323  0.6630  1.7995
 2948TIP3   OH230478   1.345   3.811   0.582 -0.4651 -0.3629 -0.0066
 2948TIP3    H130479   1.289   3.767   0.518 -2.4425  2.2268 -0.2207
 2948TIP3    H230480   1.313   3.902   0.584  2.3622  0.7400  1.4924
 2949TIP3   OH230481   4.693   6.171   7.082 -0.1066  0.3744  0.5297
 2949TIP3    H130482   4.598   6.158   7.082 -0.3220  1.7094 -0.5669
 2949TIP3    H230483   4.720   6.149   7.171 -0.9701 -2.9377  0.1104
 2950TIP3   OH230484   4.105   0.622   8.596 -0.5811  0.3266 -0.0763
 2950TIP3    H130485   4.129   0.558   8.529 -0.3988 -0.4814  0.7354
 2950TIP3    H230486   4.188   0.664   8.619 -0.2219 -1.0142  1.2520
 2951TIP3   OH230487   5.719   3.016   0.741 -0.2401  0.2052  0.1863
 2951TIP3    H130488   5.776   3.021   0.817  1.3832  1.5579 -1.0625
 2951TIP3    H230489   5.639   2.974   0.774  0.4793  0.5669  2.5596
 2952TIP3   OH230490   0.008   2.748   2.171 -0.0070  0.0906 -0.2500
 2952TIP3    H130491   0.008   2.661   2.132  0.0863 -1.6663  3.2508
 2952TIP3    H230492  -0.084   2.777   2.166 -0.4766 -1.2023  0.4238
 2953TIP3   OH230493   4.626   0.628   0.162  0.1021  0.0174 -0.0569
 2953TIP3    H130494   4.709   0.647   0.206  0.7705 -0.6314 -0.9705
 2953TIP3    H230495   4.594   0.548   0.204  0.1993 -0.0004 -0.0153
 2954TIP3   OH230496   3.023   1.836   0.420  0.0691  0.1217 -0.4520
 2954TIP3    H130497   2.992   1.765   0.363 -0.2359 -0.6001  0.5743
 2954TIP3    H230498   3.119   1.828   0.418  0.0455 -0.1625 -0.5476
 2955TIP3   OH230499   1.987   3.380   7.858 -0.5151  0.1212  0.6550
 2955TIP3    H130500   2.016   3.321   7.789 -2.2526 -0.3888  0.3117
 2955TIP3    H230501   1.973   3.323   7.934 -1.4819  0.1845  0.5386
 2956TIP3   OH230502   0.973   2.140   8.281 -0.4128  0.2883 -0.0073
 2956TIP3    H130503   0.919   2.063   8.301  0.3771  0.0446  1.2670
 2956TIP3    H230504   0.940   2.209   8.338 -1.2523  0.9839 -1.2922
 2957TIP3   OH230505   5.953   3.288   1.914  0.3823 -0.1865 -0.8181
 2957TIP3    H130506   5.877   3.339   1.886 -0.0407 -1.2237 -1.6466
 2957TIP3    H230507   6.021   3.354   1.932 -0.3821  0.6958 -1.0746
 2958TIP3   OH230508   1.204   2.985   0.808 -0.5929 -0.1975  0.3051
 2958TIP3    H130509   1.235   3.034   0.884 -0.4360  1.3610 -0.7129
 2958TIP3    H230510   1.207   2.893   0.835  1.5687  0.1549  1.4207
 2959TIP3   OH230511   5.216   6.760   6.903  0.4534 -0.0827 -0.5378
 2959TIP3    H130512   5.265   6.715   6.835  2.6082  0.9080  0.2678
 2959TIP3    H230513   5.282   6.786   6.967 -1.4509 -0.8946  1.9347
 2960TIP3   OH230514   4.784   2.854   0.781 -0.0667  0.4670  0.2142
 2960TIP3    H130515   4.743   2.898   0.856 -0.5333  0.3195  0.0461
 2960TIP3    H230516   4.878   2.869   0.794 -0.1968  1.2539  0.3211
 2961TIP3   OH230517   0.834   2.422   1.443 -0.5640  0.2305  0.3873
 2961TIP3    H130518   0.746   2.401   1.411  0.0199 -1.6824 -0.1064
 2961TIP3    H230519   0.890   2.413   1.366  0.3151 -0.5494  1.0902
 2962TIP3   OH230520   1.448   3.168   2.708  0.4157  0.3759  0.1063
 2962TIP3    H130521   1.477   3.182   2.617  0.1560  0.5253  0.0452
 2962TIP3    H230522   1.396   3.087   2.704  0.1717  0.5309  0.0660
 2963TIP3   OH230523   4.082   0.388   2.448  0.2825  0.1260 -0.1271
 2963TIP3    H130524   4.073   0.310   2.503 -1.0115  0.3611  0.0365
 2963TIP3    H230525   4.015   0.378   2.380 -1.9822  2.4333  1.5836
 2964TIP3   OH230526   3.954   1.801   3.061  0.0800  0.1058 -0.4852
 2964TIP3    H130527   3.919   1.791   3.149 -1.6351  1.5789 -0.9287
 2964TIP3    H230528   3.899   1.868   3.021  0.8086 -0.5117 -2.6820
 2965TIP3   OH230529   4.651   3.408   2.992 -0.1379  0.3716 -0.4720
 2965TIP3    H130530   4.718   3.354   2.949 -1.6942 -0.4344 -2.0378
 2965TIP3    H230531   4.588   3.344   3.025 -0.8337  1.1621 -0.2635
 2966TIP3   OH230532   1.558   2.720   2.010  0.3498 -0.3800  0.6746
 2966TIP3    H130533   1.554   2.637   2.057  3.2771 -0.6714  0.5600
 2966TIP3    H230534   1.613   2.776   2.065 -0.5102  1.0702  0.1188
 2967TIP3   OH230535   3.254   1.483   7.794 -0.6045 -0.3549 -0.0719
 2967TIP3    H130536   3.304   1.433   7.859  0.4030 -1.7529 -1.8046
 2967TIP3    H230537   3.295   1.461   7.711  0.7543  4.3286 -0.9728
 2968TIP3   OH230538   5.094   2.933   2.897 -0.0368  0.0137 -0.0566
 2968TIP3    H130539   5.003   2.963   2.897 -0.1101 -0.1641  1.0557
 2968TIP3    H230540   5.141   2.997   2.843 -0.8156  0.0878 -0.6661
 2969TIP3   OH230541   3.464   0.458   7.103  0.4192 -0.5366  0.1266
 2969TIP3    H130542   3.373   0.468   7.077  0.2835  1.4635  1.1598
 2969TIP3    H230543   3.511   0.523   7.050  0.7904  0.4685  1.6505
 2970TIP3   OH230544   1.318   1.347   0.077  0.1022 -0.7011 -0.5070
 2970TIP3    H130545   1.330   1.421   0.018 -1.2756  0.5782  0.7197
 2970TIP3    H230546   1.245   1.298   0.039 -0.7962  0.1307  0.0746
 2971TIP3   OH230547   3.540   3.796   2.553  0.2466  0.3646  0.0877
 2971TIP3    H130548   3.580   3.823   2.470 -2.0825  0.9486 -0.9141
 2971TIP3    H230549   3.453   3.837   2.552 -0.9613 -1.9984  1.4840
 2972TIP3   OH230550   5.067   4.996   0.239  0.1462 -0.2751 -0.0838
 2972TIP3    H130551   5.006   4.951   0.181 -1.2339  0.6900  0.5554
 2972TIP3    H230552   5.012   5.057   0.288  1.2085 -1.1381  2.3328
 2973TIP3   OH230553   3.518   0.094   1.131 -0.6295 -0.2472 -0.2717
 2973TIP3    H130554   3.481   0.014   1.169 -0.4977 -0.5042 -0.6814
 2973TIP3    H230555   3.441   0.149   1.115 -0.7633 -0.4686 -0.4014
 2974TIP3   OH230556   3.906   5.697   2.171  0.1550 -0.3789 -0.3837
 2974TIP3    H130557   3.834   5.635   2.156 -0.6925  0.5526 -0.2918
 2974TIP3    H230558   3.977   5.643   2.204 -0.5558 -1.3146 -0.3258
 2975TIP3   OH230559   1.098   1.748   1.169 -0.1424  0.2329 -0.5887
 2975TIP3    H130560   1.064   1.669   1.129  0.6960 -0.6012  0.2721
 2975TIP3    H230561   1.190   1.750   1.144  0.1531  0.2257  0.4324
 2976TIP3   OH230562   6.302   6.698   3.115  0.8895  0.1297 -0.0646
 2976TIP3    H130563   6.225   6.645   3.137  2.1165 -1.5808  0.2745
 2976TIP3    H230564   6.269   6.788   3.115 -0.9811 -0.4977  0.6545
 2977TIP3   OH230565   0.341   2.235   1.068 -0.1945 -0.2344  0.6466
 2977TIP3    H130566   0.297   2.318   1.049  0.9980  0.8382  2.3789
 2977TIP3    H230567   0.433   2.257   1.075  0.0983 -1.6149  1.6277
 2978TIP3   OH230568   0.866   0.947   2.545  0.5387  0.1147  0.2342
 2978TIP3    H130569   0.851   0.886   2.473 -1.0333  1.1776 -0.4171
 2978TIP3    H230570   0.803   0.922   2.612  0.3401  0.5871  0.2333
 2979TIP3   OH230571   5.105   3.837   1.216 -0.5361  0.6785  0.2276
 2979TIP3    H130572   5.009   3.829   1.220 -0.5411  0.6118 -0.0094
 2979TIP3    H230573   5.130   3.864   1.305 -0.8398  1.3863  0.1076
 2980TIP3   OH230574   2.570   6.374   3.480 -0.1152  0.6431  0.8465
 2980TIP3    H130575   2.537   6.430   3.409 -0.5977 -1.0838 -0.3382
 2980TIP3    H230576   2.665   6.375   3.468 -0.1390  0.9976  0.6702
 2981TIP3   OH230577   0.300   6.676   0.744 -0.0349 -0.5668  0.6028
 2981TIP3    H130578   0.296   6.767   0.716 -0.3080 -0.6324  0.4194
 2981TIP3    H230579   0.261   6.675   0.832 -0.5793 -0.5949  0.3697
 2982TIP3   OH230580   5.299   1.296   0.924  0.4196 -0.1810 -0.6629
 2982TIP3    H130581   5.288   1.206   0.955 -3.3735  0.5565  0.6810
 2982TIP3    H230582   5.380   1.326   0.965  0.1566 -2.0261  1.3868
 2983TIP3   OH230583   2.311   3.791   0.341 -0.3343 -0.2135  0.4411
 2983TIP3    H130584   2.280   3.819   0.427  0.0201  2.9543 -0.3183
 2983TIP3    H230585   2.404   3.816   0.340 -0.2612 -0.4778 -0.7714
 2984TIP3   OH230586   6.278   0.629   1.231  0.2928 -0.1640 -0.1705
 2984TIP3    H130587   6.317   0.682   1.301  1.5084 -1.1517 -0.0624
 2984TIP3    H230588   6.334   0.644   1.155 -0.8378  0.6546 -0.8795
 2985TIP3   OH230589   3.137   2.342   7.383  0.7409 -0.3970 -0.2285
 2985TIP3    H130590   3.159   2.351   7.476  1.9954  0.0143 -0.5384
 2985TIP3    H230591   3.058   2.394   7.372  0.9107  0.0311  0.5006
 2986TIP3   OH230592   3.703   1.415   1.189  0.1699 -0.7491  0.0679
 2986TIP3    H130593   3.748   1.476   1.249  1.5714 -0.6343 -1.0625
 2986TIP3    H230594   3.684   1.468   1.112  1.0859 -1.6393 -0.7865
 2987TIP3   OH230595   6.062   5.697   2.235 -0.4229  0.0010 -0.5575
 2987TIP3    H130596   6.112   5.774   2.207 -1.8606  1.0240 -0.4233
 2987TIP3    H230597   6.129   5.634   2.261  0.8176  1.5751  0.3321
 2988TIP3   OH230598   6.284   3.410   0.795  0.2314  0.4264  0.2165
 2988TIP3    H130599   6.371   3.372   0.809  0.6808  1.4855  0.3485
 2988TIP3    H230600   6.292   3.460   0.714 -0.3372  0.3148  0.0846
 2989TIP3   OH230601   2.160   5.507   0.448 -0.4258  0.0297 -0.4225
 2989TIP3    H130602   2.231   5.445   0.468 -0.6311  0.2227  1.0295
 2989TIP3    H230603   2.205   5.588   0.425 -0.1653 -0.4104 -1.5103
 2990TIP3   OH230604   1.939   1.661   1.838 -0.3631  0.3678  0.2594
 2990TIP3    H130605   1.936   1.756   1.826  1.6517  0.9158  3.0624
 2990TIP3    H230606   1.848   1.634   1.847 -0.8874  2.5991  2.6101
 2991TIP3   OH230607   2.640   0.472   0.960 -0.6603  0.0875  0.1025
 2991TIP3    H130608   2.623   0.484   1.054 -0.0355 -0.5566  0.3078
 2991TIP3    H230609   2.734   0.454   0.955 -0.7797 -0.3588 -0.6006
 2992TIP3   OH230610   6.709   1.046   1.807 -0.1377 -0.3189  0.0014
 2992TIP3    H130611   6.789   1.098   1.820  0.0000 -0.0829 -1.5643
 2992TIP3    H230612   6.740   0.966   1.762 -0.8881  0.3077 -1.7154
 2993TIP3   OH230613   5.265   6.208   8.438  0.9800 -0.5876 -0.2937
 2993TIP3    H130614   5.268   6.196   8.533  1.9256 -0.6791 -0.3232
 2993TIP3    H230615   5.197   6.148   8.408  1.0172 -0.9209  0.2744
 2994TIP3   OH230616   0.069   4.272   1.668  0.3348  0.3606  0.2948
 2994TIP3    H130617   0.032   4.312   1.747 -0.1060 -1.5552  1.1078
 2994TIP3    H230618   0.026   4.317   1.596 -0.5769  0.9285  1.1713
 2995TIP3   OH230619   0.829   4.935   0.056 -0.0294  0.1257  0.4257
 2995TIP3    H130620   0.913   4.979   0.073 -1.0212  2.1615  0.3311
 2995TIP3    H230621   0.802   4.901   0.141  1.7035 -2.1630  0.1433
 2996TIP3   OH230622   6.671   0.109   7.478 -0.0098  0.1067 -0.1231
 2996TIP3    H130623   6.717   0.077   7.556  1.5156  0.5565 -0.8034
 2996TIP3    H230624   6.687   0.042   7.411  1.8711  1.4481 -1.0998
 2997TIP3   OH230625   1.218   5.125   2.280 -0.4906 -0.1565  0.2084
 2997TIP3    H130626   1.205   5.216   2.306  0.3619  0.6213 -1.9168
 2997TIP3    H230627   1.259   5.084   2.356  2.3361  2.0909  0.0402
 2998TIP3   OH230628   1.939   5.667   7.975 -0.1301  0.6051 -0.4316
 2998TIP3    H130629   1.859   5.637   8.017  1.2416 -2.0114  0.5505
 2998TIP3    H230630   1.998   5.689   8.047  0.0682  2.6945 -1.1376
 2999TIP3   OH230631   5.589   3.675   7.194  0.0228  0.4596  0.4562
 2999TIP3    H130632   5.676   3.671   7.155  0.3143  1.1312  1.0418
 2999TIP3    H230633   5.584   3.761   7.235 -0.7825  0.2852  0.7436
 3000TIP3   OH230634   5.843   3.077   7.632  0.7123  0.1828  0.3888
 3000TIP3    H130635   5.867   2.992   7.669  0.2783 -0.4457 -0.7529
 3000TIP3    H230636   5.784   3.057   7.560 -1.2533  1.5551  1.5065
 3001TIP3   OH230637   4.239   3.860   2.605 -0.3621 -0.2090  0.4715
 3001TIP3    H130638   4.239   3.936   2.664  0.8769 -0.4189  0.7640
 3001TIP3    H230639   4.331   3.835   2.598 -0.5074 -0.3423 -1.3871
 3002TIP3   OH230640   6.822   4.668   3.036 -0.0892  0.6271  0.3267
 3002TIP3    H130641   6.774   4.623   3.106  1.0290  0.2765  0.8974
 3002TIP3    H230642   6.758   4.726   2.996 -1.7437 -1.7961 -0.7519
 3003TIP3   OH230643   5.665   1.305   8.318  0.1955  0.8202  0.6748
 3003TIP3    H130644   5.609   1.342   8.249 -1.9828  0.3936  2.1131
 3003TIP3    H230645   5.604   1.283   8.389  2.2381  0.3956  2.3886
 3004TIP3   OH230646   3.528   4.739   2.152 -0.2353 -0.1209  0.1493
 3004TIP3    H130647   3.614   4.704   2.130  0.2547  2.3954 -2.6117
 3004TIP3    H230648   3.545   4.799   2.225  0.2737 -0.0385 -0.0309
 3005TIP3   OH230649   3.755   1.617   2.656 -0.3301  0.0651 -0.4148
 3005TIP3    H130650   3.826   1.571   2.700 -0.9610  0.5847  1.2241
 3005TIP3    H230651   3.771   1.709   2.676 -0.7873  0.2868 -1.0565
 3006TIP3   OH230652   1.115   3.873   8.622  0.2075 -0.5160 -0.4965
 3006TIP3    H130653   1.069   3.925   8.687  0.3446  0.1155 -0.8929
 3006TIP3    H230654   1.085   3.783   8.636  1.6201 -0.7222  1.6658
 3007TIP3   OH230655   1.265   2.702   2.326 -0.0320  0.1924  0.6728
 3007TIP3    H130656   1.335   2.643   2.351 -0.5751 -1.8707 -2.1490
 3007TIP3    H230657   1.268   2.703   2.230 -0.8668  3.8362  0.5332
 3008TIP3   OH230658   2.190   0.566   8.022  0.3536  0.5700 -0.4903
 3008TIP3    H130659   2.180   0.508   8.097  1.7426 -0.6058 -1.1687
 3008TIP3    H230660   2.124   0.634   8.035  1.4615  1.2293  2.5359
 3009TIP3   OH230661   1.644   6.744   0.312 -0.2663  0.4879  0.0835
 3009TIP3    H130662   1.641   6.782   0.400 -1.2486  0.7014 -0.0382
 3009TIP3    H230663   1.710   6.675   0.319 -1.6203 -0.7487  1.5075
 3010TIP3   OH230664   5.412   0.718   0.971 -0.2393 -0.4264  0.4459
 3010TIP3    H130665   5.407   0.625   0.947 -1.0457 -0.3292  0.2113
 3010TIP3    H230666   5.321   0.746   0.978 -0.0022  0.3275  0.6170
 3011TIP3   OH230667   0.950   6.171   3.320  0.0005 -0.3086  0.5250
 3011TIP3    H130668   0.906   6.144   3.239  3.1077  0.4973 -1.5996
 3011TIP3    H230669   0.973   6.263   3.306  1.2714 -0.3569  2.0031
 3012TIP3   OH230670   2.281   4.419   1.420 -0.2216  0.2023  0.4381
 3012TIP3    H130671   2.232   4.337   1.433  0.4805 -0.6477 -1.7205
 3012TIP3    H230672   2.213   4.486   1.415 -1.5425 -1.0898 -3.6703
 3013TIP3   OH230673   5.298   3.739   8.529  0.5267  0.4653 -0.3952
 3013TIP3    H130674   5.362   3.680   8.568 -0.6893 -0.7812 -0.2294
 3013TIP3    H230675   5.237   3.757   8.600  0.3850  1.2170 -0.7033
 3014TIP3   OH230676   4.544   4.642   8.057  0.6746 -0.0322  0.0942
 3014TIP3    H130677   4.614   4.677   8.001  0.5682  1.9079  1.0976
 3014TIP3    H230678   4.533   4.551   8.027  2.0244  0.3119 -1.6194
 3015TIP3   OH230679   2.200   4.117   7.925 -0.4049  0.3979  0.0263
 3015TIP3    H130680   2.279   4.117   7.980 -0.4561  2.5115  0.1897
 3015TIP3    H230681   2.147   4.188   7.960 -0.3413  2.0011 -2.8418
 3016TIP3   OH230682   0.796   1.729   2.236  0.3704 -0.3297  0.4947
 3016TIP3    H130683   0.874   1.785   2.240  1.4721 -1.5595 -1.6811
 3016TIP3    H230684   0.816   1.657   2.295 -0.5049  0.8458  2.3125
 3017TIP3   OH230685   6.380   6.154   1.444 -0.2210 -0.3169 -0.2957
 3017TIP3    H130686   6.298   6.201   1.453  0.4231  0.7862 -0.0471
 3017TIP3    H230687   6.358   6.063   1.463 -1.2863  0.0452  0.2491
 3018TIP3   OH230688   2.992   2.878   0.459 -0.1461  0.3061 -0.8109
 3018TIP3    H130689   2.941   2.899   0.382  0.0145 -1.8588 -1.5544
 3018TIP3    H230690   3.082   2.867   0.427  0.1048  0.3295 -0.1519
 3019TIP3   OH230691   4.551   6.515   0.447 -0.7695  0.0510  0.4501
 3019TIP3    H130692   4.476   6.457   0.430 -1.0537  0.9429 -1.6579
 3019TIP3    H230693   4.625   6.469   0.406 -0.7303  0.4957  0.0153
 3020TIP3   OH230694   0.915   2.226   0.945  0.4581  0.4287 -0.1331
 3020TIP3    H130695   0.951   2.163   0.882  2.3775  1.7815 -0.4632
 3020TIP3    H230696   0.939   2.190   1.030 -0.0658 -0.1958 -0.2399
 3021TIP3   OH230697   5.702   0.608   1.206 -0.1260  0.6153  0.6262
 3021TIP3    H130698   5.686   0.514   1.195 -0.5120  0.7965 -0.5115
 3021TIP3    H230699   5.737   0.617   1.294 -1.7549 -0.4053  1.4262
 3022TIP3   OH230700   0.972   1.399   1.509 -0.2942 -0.6791 -0.1366
 3022TIP3    H130701   0.892   1.347   1.497 -0.6038 -0.1700 -0.3333
 3022TIP3    H230702   1.001   1.419   1.420  0.8686 -2.0628 -0.1007
 3023TIP3   OH230703   5.580   0.608   0.406 -0.0047 -0.6433 -0.2546
 3023TIP3    H130704   5.619   0.521   0.397 -1.4813 -1.2377 -1.5163
 3023TIP3    H230705   5.537   0.607   0.492  0.3738 -1.0024 -0.0678
 3024TIP3   OH230706   2.314   3.090   1.432  0.4175 -0.1438  0.3051
 3024TIP3    H130707   2.298   3.094   1.337 -1.3135  2.1264  0.6064
 3024TIP3    H230708   2.376   3.018   1.442 -1.8739 -2.7448 -2.1946
 3025TIP3   OH230709   2.516   0.337   1.680  0.4883  0.0464  0.1462
 3025TIP3    H130710   2.502   0.253   1.723  0.5627  0.2679  0.6172
 3025TIP3    H230711   2.608   0.357   1.696  0.5527  0.0631 -0.2435
 3026TIP3   OH230712   3.557   4.761   0.740  0.6453  0.4642  0.2010
 3026TIP3    H130713   3.470   4.771   0.780  0.3769  2.2517 -0.7180
 3026TIP3    H230714   3.588   4.676   0.770 -0.4821  0.7568  2.3575
 3027TIP3   OH230715   4.678   1.242   2.450 -0.5116  1.2388  0.3131
 3027TIP3    H130716   4.600   1.253   2.506 -0.5999  3.9337 -0.2003
 3027TIP3    H230717   4.743   1.302   2.488  1.2265 -0.6654  0.4796
 3028TIP3   OH230718   1.283   3.281   3.045 -0.1959  0.4261 -0.0625
 3028TIP3    H130719   1.372   3.268   3.078 -1.1824  0.6708  3.0390
 3028TIP3    H230720   1.260   3.198   3.005  1.3595  0.3382 -0.8607
 3029TIP3   OH230721   3.370   3.394   1.906  0.4264  0.0790 -0.5252
 3029TIP3    H130722   3.317   3.439   1.973  1.1055  2.7623 -1.6357
 3029TIP3    H230723   3.456   3.383   1.946  0.8697  1.7998 -0.9272
 3030TIP3   OH230724   5.786   5.808   8.663 -0.0642  0.2810 -0.6829
 3030TIP3    H130725   5.771   5.802   8.758  1.4686 -1.8642 -0.5126
 3030TIP3    H230726   5.828   5.893   8.652 -2.6141  1.7635  0.1398
 3031TIP3   OH230727   0.753   4.484   0.559 -0.0540 -0.6514  0.0178
 3031TIP3    H130728   0.762   4.456   0.468  1.5022  0.8795 -0.3456
 3031TIP3    H230729   0.767   4.579   0.557 -0.0549 -0.5691  1.8494
 3032TIP3   OH230730   2.388   0.661   7.611  1.2379 -0.6889  0.1781
 3032TIP3    H130731   2.429   0.738   7.651  1.4753 -1.1499  0.8405
 3032TIP3    H230732   2.360   0.691   7.525  2.9217 -0.3315 -0.2887
 3033TIP3   OH230733   6.432   0.269   8.624  0.0419  0.0058 -0.1651
 3033TIP3    H130734   6.410   0.296   8.714 -1.5447 -1.5812 -0.0071
 3033TIP3    H230735   6.365   0.311   8.570  0.6091  0.4347 -0.5406
 3034TIP3   OH230736   6.353   5.216   8.631  0.3511  0.2400  0.3104
 3034TIP3    H130737   6.350   5.134   8.582  1.4540  0.7851 -0.7033
 3034TIP3    H230738   6.403   5.196   8.710  0.6343 -0.0504  0.0543
 3035TIP3   OH230739   4.356   6.660   0.128  0.6398 -0.0676  0.1588
 3035TIP3    H130740   4.414   6.706   0.068 -0.3823 -0.0380 -0.8398
 3035TIP3    H230741   4.326   6.583   0.079 -1.7304  0.9533 -0.1667
 3036TIP3   OH230742   2.608   4.425   8.669  0.0270 -0.0511  0.7644
 3036TIP3    H130743   2.688   4.428   8.721 -0.8291  0.5097  2.0914
 3036TIP3    H230744   2.569   4.340   8.690  0.9803 -0.9703 -1.0148
 3037TIP3   OH230745   3.665   1.106   7.933 -0.2895  0.2909  0.4119
 3037TIP3    H130746   3.676   1.088   8.026  0.4670 -0.9538  0.0964
 3037TIP3    H230747   3.701   1.029   7.889 -1.1509  0.6114 -0.9012
 3038TIP3   OH230748   4.726   5.840   3.506  0.0421 -0.2417  0.4415
 3038TIP3    H130749   4.783   5.764   3.520  0.7678 -0.0483 -1.3060
 3038TIP3    H230750   4.781   5.905   3.463 -1.4942 -0.1294 -1.5315
 3039TIP3   OH230751   5.400   0.701   2.715 -0.4975 -0.1866  0.8666
 3039TIP3    H130752   5.448   0.694   2.797 -0.6668 -0.7323  0.9196
 3039TIP3    H230753   5.312   0.729   2.740 -0.9075 -1.5230  0.9908
 3040TIP3   OH230754   5.184   0.033   7.802  0.3523  0.3412  0.5420
 3040TIP3    H130755   5.270   0.037   7.761  0.8700 -0.5288  1.5018
 3040TIP3    H230756   5.122   0.028   7.729  1.1812 -0.0535 -0.1426
 3041TIP3   OH230757   0.875   0.884   1.394  0.6438  0.2752 -0.7591
 3041TIP3    H130758   0.923   0.871   1.312  0.6081 -0.1970 -0.7062
 3041TIP3    H230759   0.792   0.924   1.368  0.1234 -0.9838 -1.0796
 3042TIP3   OH230760   0.078   6.777   2.778 -0.3096  0.1085 -0.2251
 3042TIP3    H130761   0.004   6.716   2.768  0.1667 -0.4225 -0.5670
 3042TIP3    H230762   0.156   6.723   2.763  0.1236  0.8008 -0.5112
 3043TIP3   OH230763   0.747   2.643   8.021 -0.5805  0.1620  0.4050
 3043TIP3    H130764   0.814   2.575   8.033 -1.0893 -0.1904  1.3558
 3043TIP3    H230765   0.729   2.644   7.927 -0.5315 -0.9753  0.3804
 3044TIP3   OH230766   6.797   4.727   0.057 -0.8181 -0.1178  0.3251
 3044TIP3    H130767   6.829   4.789   0.123  1.6441 -0.2539 -0.6347
 3044TIP3    H230768   6.774   4.781  -0.018 -0.0728 -0.2427  0.0036
 3045TIP3   OH230769   2.427   0.867   1.481 -0.1658 -0.0391 -0.4069
 3045TIP3    H130770   2.345   0.845   1.526  0.2354 -1.3449 -0.2993
 3045TIP3    H230771   2.478   0.914   1.547 -0.5827  0.2655 -0.2920
 3046TIP3   OH230772   4.295   4.938   1.091 -0.0092 -0.2430  0.1817
 3046TIP3    H130773   4.311   4.871   1.024  0.4380 -1.8971  1.8552
 3046TIP3    H230774   4.209   4.916   1.127 -0.2642  0.6532  0.1451
 3047TIP3   OH230775   4.977   6.003   8.375 -0.1854 -0.3691 -0.2231
 3047TIP3    H130776   4.928   6.050   8.308  0.3409 -1.5263 -1.4477
 3047TIP3    H230777   5.057   5.973   8.332  0.4507 -0.6318  1.0738
 3048TIP3   OH230778   0.452   4.894   8.524 -0.3919 -0.0589  0.5626
 3048TIP3    H130779   0.396   4.865   8.451 -0.0227 -0.5041  0.4490
 3048TIP3    H230780   0.438   4.988   8.529 -0.7592 -0.0885  0.1991
 3049TIP3   OH230781   6.079   5.834   0.926  0.6831  0.3635  0.3791
 3049TIP3    H130782   6.008   5.771   0.937 -0.9694  2.0655  0.0660
 3049TIP3    H230783   6.099   5.831   0.832  1.6065 -0.6705  0.5906
 3050TIP3   OH230784   5.877   0.805   1.723  0.3175  0.2958  0.6377
 3050TIP3    H130785   5.958   0.753   1.725  0.0549 -0.1769 -0.3458
 3050TIP3    H230786   5.811   0.745   1.690 -0.1066  1.1092 -0.0201
 3051TIP3   OH230787   4.377   1.055   1.140  0.0913  0.2815 -0.0766
 3051TIP3    H130788   4.459   1.095   1.169 -0.1451 -1.1351  2.9184
 3051TIP3    H230789   4.363   0.982   1.201 -1.2726 -2.2207 -3.0784
 3052TIP3   OH230790   1.281   6.785   0.736  0.2869  0.2129 -0.0298
 3052TIP3    H130791   1.295   6.737   0.817  1.2511 -0.9887 -0.8624
 3052TIP3    H230792   1.341   6.859   0.741 -0.9031  1.1534  1.0756
 3053TIP3   OH230793   5.406   5.652   1.014  0.7143 -0.1930  0.2248
 3053TIP3    H130794   5.399   5.627   0.922 -3.0239 -0.2165  0.3701
 3053TIP3    H230795   5.390   5.746   1.015  1.5994 -0.0290  0.8336
 3054TIP3   OH230796   2.587   2.300   1.719 -0.1954 -0.6936  0.4002
 3054TIP3    H130797   2.562   2.386   1.686  0.7205  0.0210  1.5098
 3054TIP3    H230798   2.521   2.279   1.784  0.9059  0.3371  1.9413
 3055TIP3   OH230799   5.503   6.530   8.605  0.3088  0.1211  0.0931
 3055TIP3    H130800   5.518   6.598   8.671 -0.5792  1.5752 -1.1156
 3055TIP3    H230801   5.409   6.513   8.609 -0.0488  1.2945 -1.6767
 3056TIP3   OH230802   0.236   4.995   1.006 -0.0529  0.3467 -0.6610
 3056TIP3    H130803   0.155   4.944   0.997  0.9733 -1.3034 -0.8189
 3056TIP3    H230804   0.273   4.997   0.918 -0.8111  2.7138 -0.9920
 3057TIP3   OH230805   3.847   1.641   1.301  1.1155  0.5555  0.1690
 3057TIP3    H130806   3.911   1.693   1.252  2.0078  0.5828  1.3395
 3057TIP3    H230807   3.826   1.695   1.377  1.4512 -0.4488  0.9865
 3058TIP3   OH230808   3.281   3.053   1.554  0.1487 -0.2236 -0.1650
 3058TIP3    H130809   3.244   3.130   1.596 -0.4671 -0.5698 -0.0681
 3058TIP3    H230810   3.286   2.988   1.623  1.7485  0.0794  0.0365
 3059TIP3   OH230811   4.990   3.663   2.374 -0.2025  0.1255  0.4903
 3059TIP3    H130812   4.977   3.697   2.463 -1.6135  0.7467  0.0896
 3059TIP3    H230813   5.054   3.722   2.335 -0.1860  0.3465  0.8452
 3060TIP3   OH230814   1.255   1.967   0.949 -0.7691  0.2561 -0.9656
 3060TIP3    H130815   1.292   1.886   0.986  0.5874  0.9120 -0.8655
 3060TIP3    H230816   1.307   1.985   0.871 -0.8362  1.2231 -0.7996
 3061TIP3   OH230817   3.494   0.528   8.614  0.4330 -0.0217  0.1184
 3061TIP3    H130818   3.416   0.478   8.590  0.4130 -0.7145  1.5494
 3061TIP3    H230819   3.539   0.473   8.679 -0.1721  2.2511  2.6443
 3062TIP3   OH230820   2.160   5.306   8.579  0.4117  0.8050  0.0100
 3062TIP3    H130821   2.241   5.263   8.551  0.1534 -0.2075  0.7743
 3062TIP3    H230822   2.115   5.328   8.497  0.4195 -0.6336 -0.4124
 3063TIP3   OH230823   3.931   3.591   7.840  0.3534 -0.2718  0.6623
 3063TIP3    H130824   3.958   3.605   7.931  1.2675  0.7152  0.2639
 3063TIP3    H230825   3.947   3.675   7.798 -0.2828 -0.6560 -0.3630
 3064TIP3   OH230826   3.975   4.794   7.722 -0.1622  0.1370  0.5025
 3064TIP3    H130827   3.916   4.721   7.740 -0.1788  0.4956  2.0592
 3064TIP3    H230828   3.951   4.860   7.787  1.5589  0.5003  0.8170
 3065TIP3   OH230829   5.187   0.899   2.769 -0.0215 -0.0310  1.1294
 3065TIP3    H130830   5.246   0.975   2.773 -1.1498  0.9013  0.8713
 3065TIP3    H230831   5.109   0.933   2.724 -0.1829 -1.6076  0.1605
 3066TIP3   OH230832   5.174   3.537   0.293  0.1858 -0.0732  0.0485
 3066TIP3    H130833   5.145   3.614   0.341 -0.0108  0.1411 -0.4011
 3066TIP3    H230834   5.103   3.473   0.303 -0.7883  0.6786 -1.5829
 3067TIP3   OH230835   6.299   0.555   2.548  0.0664  0.5456 -0.3866
 3067TIP3    H130836   6.333   0.586   2.464  1.1378 -1.0787 -0.5970
 3067TIP3    H230837   6.336   0.616   2.612 -0.1736  1.3708 -1.0142
 3068TIP3   OH230838   1.791   0.746   8.671 -0.2912 -0.5867 -0.8353
 3068TIP3    H130839   1.825   0.663   8.704  0.2408  0.1897  0.6884
 3068TIP3    H230840   1.857   0.811   8.698 -1.5444  0.5541 -0.4357
 3069TIP3   OH230841   5.400   5.616   2.873 -0.1422  0.5240 -0.0026
 3069TIP3    H130842   5.492   5.608   2.896  0.3286  0.6422 -1.6791
 3069TIP3    H230843   5.353   5.569   2.942  1.2203 -0.1988  0.4607
 3070TIP3   OH230844   0.758   3.051   0.028 -0.1098 -0.1058  0.1120
 3070TIP3    H130845   0.746   2.971   0.079  0.0951  0.2184  0.6759
 3070TIP3    H230846   0.669   3.087   0.019 -0.3090 -0.7954 -0.8154
 3071TIP3   OH230847   5.838   2.350   1.333 -0.2729  0.0480 -0.2396
 3071TIP3    H130848   5.746   2.342   1.357 -0.3714 -0.1030 -0.6646
 3071TIP3    H230849   5.860   2.442   1.350 -0.8271  0.3782 -1.2895
 3072TIP3   OH230850   6.521   1.469   0.026 -0.4377  0.0824 -0.0202
 3072TIP3    H130851   6.485   1.491   0.112 -1.6181 -1.3402 -0.1062
 3072TIP3    H230852   6.614   1.452   0.042 -0.9397 -1.7520  1.3331
 3073TIP3   OH230853   4.519   5.763   8.303  0.4425 -0.0623  0.1586
 3073TIP3    H130854   4.510   5.815   8.383  0.5351 -0.1373  0.2175
 3073TIP3    H230855   4.448   5.793   8.247  0.5455  0.1872  0.1605
 3074TIP3   OH230856   0.905   3.296   8.821  0.1762 -0.4043 -0.5085
 3074TIP3    H130857   0.993   3.268   8.846  0.1777 -0.2535 -0.3398
 3074TIP3    H230858   0.851   3.219   8.834  0.2387 -0.4250 -0.3661
 3075TIP3   OH230859   4.149   2.941   8.158  0.1395  0.4538 -0.3398
 3075TIP3    H130860   4.234   2.904   8.182 -0.8729 -1.7735  0.0244
 3075TIP3    H230861   4.126   2.897   8.076 -0.0938  2.0211 -1.1475
 3076TIP3   OH230862   1.718   2.534   7.967  0.1451 -0.6199 -0.1313
 3076TIP3    H130863   1.799   2.570   7.931  1.4836 -2.5666  0.7733
 3076TIP3    H230864   1.695   2.463   7.907 -2.2470  1.3130 -1.6834
 3077TIP3   OH230865   1.251   1.966   8.709 -0.0610  0.2546  0.0380
 3077TIP3    H130866   1.174   1.971   8.766  0.7447  0.4492  1.1530
 3077TIP3    H230867   1.325   1.967   8.770  0.8100 -0.5647 -0.9833
 3078TIP3   OH230868   4.099   4.480   2.408 -0.1878 -0.0961  0.1267
 3078TIP3    H130869   4.139   4.518   2.330  1.1996 -0.0717  0.8136
 3078TIP3    H230870   4.037   4.547   2.438  1.5867  1.3384  0.8202
 3079TIP3   OH230871   2.545   5.736   7.404 -0.4417  0.5346 -0.3834
 3079TIP3    H130872   2.602   5.695   7.469  1.1888 -0.3198 -2.2582
 3079TIP3    H230873   2.597   5.808   7.368 -0.9047  0.3647 -1.4355
 3080TIP3   OH230874   4.354   6.426   3.306  0.0903  0.0695 -0.1257
 3080TIP3    H130875   4.273   6.477   3.308  0.6283  0.9561 -0.3378
 3080TIP3    H230876   4.398   6.453   3.225  0.5371 -0.4944 -0.0793
 3081TIP3   OH230877   5.150   4.543   0.216 -0.4431  0.2963  0.0037
 3081TIP3    H130878   5.240   4.563   0.243 -0.5666  1.5445 -0.4260
 3081TIP3    H230879   5.108   4.511   0.295  0.7484 -1.7544 -0.1103
 3082TIP3   OH230880   1.978   0.468   1.392 -0.6513 -0.0169  0.8056
 3082TIP3    H130881   1.991   0.398   1.328 -1.4610  0.7056 -0.1770
 3082TIP3    H230882   1.965   0.547   1.340  0.1004  0.8533  1.8990
 3083TIP3   OH230883   5.445   6.289   2.512  0.0772 -0.5605 -0.5551
 3083TIP3    H130884   5.407   6.345   2.581  0.1235  0.7547 -1.5464
 3083TIP3    H230885   5.496   6.350   2.459 -0.8055 -1.3459 -2.3549
 3084TIP3   OH230886   6.272   2.689   3.279 -0.8585 -0.5558  0.2088
 3084TIP3    H130887   6.291   2.625   3.210  0.9958 -0.0978  0.2271
 3084TIP3    H230888   6.358   2.706   3.319 -1.2150  2.1931 -0.0255
 3085TIP3   OH230889   4.700   1.457   2.823  0.3193 -0.0443 -0.1918
 3085TIP3    H130890   4.743   1.449   2.738  0.2477  0.3981 -0.2753
 3085TIP3    H230891   4.771   1.447   2.887  0.2541 -1.1494 -0.2785
 3086TIP3   OH230892   5.561   6.700   3.201 -0.2340  0.4352  0.1849
 3086TIP3    H130893   5.656   6.706   3.190  0.1797  0.4523  2.9297
 3086TIP3    H230894   5.550   6.663   3.289 -2.7995 -0.9903 -0.6450
 3087TIP3   OH230895   5.724   3.302   2.252  0.2403  0.2108 -0.6755
 3087TIP3    H130896   5.696   3.359   2.180  0.4319 -1.6862 -2.3220
 3087TIP3    H230897   5.820   3.309   2.252  0.2235  0.4498 -0.3931
 3088TIP3   OH230898   6.041   6.577   1.845  0.0390 -0.9773 -0.0598
 3088TIP3    H130899   6.011   6.667   1.857 -2.7017 -1.6567 -1.0605
 3088TIP3    H230900   6.118   6.584   1.789 -0.4377  0.7050 -0.5555
 3089TIP3   OH230901   5.636   3.566   0.577  0.5724  0.4396  0.0510
 3089TIP3    H130902   5.670   3.478   0.565  1.8270  0.8276  0.6484
 3089TIP3    H230903   5.541   3.555   0.581  0.6833 -0.8018 -0.4791
 3090TIP3   OH230904   1.448   2.725   1.693 -0.0109 -0.4594  0.1271
 3090TIP3    H130905   1.408   2.801   1.650 -0.2126  0.7305  2.2508
 3090TIP3    H230906   1.377   2.661   1.699 -0.7690  0.4126  1.0266
 3091TIP3   OH230907   6.568   3.100   1.248 -0.1055  0.6471 -0.1434
 3091TIP3    H130908   6.572   3.159   1.323  1.2377  0.5006 -0.0803
 3091TIP3    H230909   6.514   3.027   1.277 -0.5809  1.1578  0.2711
 3092TIP3   OH230910   3.538   1.945   2.459 -0.4781 -0.2594 -0.4537
 3092TIP3    H130911   3.528   1.922   2.551 -2.6665  1.5769 -0.1430
 3092TIP3    H230912   3.628   1.975   2.451 -0.0837 -1.0162  0.9294
 3093TIP3   OH230913   3.968   1.409   2.088 -0.1092  0.2217  0.3129
 3093TIP3    H130914   3.904   1.342   2.113  2.8263 -2.3577  1.5728
 3093TIP3    H230915   3.990   1.388   1.997 -0.4543  0.6202  0.1334
 3094TIP3   OH230916   3.376   4.504   1.643 -0.7636  0.0124  0.4735
 3094TIP3    H130917   3.405   4.419   1.678 -1.5976 -0.2264  0.6184
 3094TIP3    H230918   3.316   4.537   1.710 -1.3454  0.1700 -0.1178
 3095TIP3   OH230919   5.308   4.002   2.396  0.2596  0.3133 -0.3736
 3095TIP3    H130920   5.399   4.027   2.410  0.8871 -1.0161 -1.8289
 3095TIP3    H230921   5.299   3.991   2.302 -1.0588 -0.8174 -0.1634
 3096TIP3   OH230922   0.194   3.526   1.654  0.6419 -0.0687  0.0779
 3096TIP3    H130923   0.153   3.583   1.719  0.4711 -0.7039  0.5339
 3096TIP3    H230924   0.120   3.484   1.610  0.6749 -3.3865  2.7928
 3097TIP3   OH230925   2.546   0.396   2.012  0.2557 -0.2181  0.2928
 3097TIP3    H130926   2.581   0.453   2.081  2.1497 -0.1045 -0.6840
 3097TIP3    H230927   2.471   0.352   2.052  0.1790  1.2101  1.8127
 3098TIP3   OH230928   0.664   0.912   1.702 -0.7478 -0.0142 -0.1945
 3098TIP3    H130929   0.667   0.861   1.784 -0.4918 -1.0363 -0.8215
 3098TIP3    H230930   0.620   0.855   1.640  1.8875 -0.6095 -1.6483
 3099TIP3   OH230931   5.875   4.493   0.367  0.2770  0.4451  0.2502
 3099TIP3    H130932   5.934   4.519   0.296 -0.5069 -0.1765 -0.6434
 3099TIP3    H230933   5.920   4.422   0.412 -0.2586 -0.8118 -1.1408
 3100TIP3   OH230934   4.410   1.786   0.265 -0.2286 -0.1226 -0.4264
 3100TIP3    H130935   4.337   1.800   0.205  0.0092 -0.6199 -0.8403
 3100TIP3    H230936   4.368   1.754   0.345 -0.4647 -0.5628 -0.7146
 3101TIP3   OH230937   3.450   6.741   8.697  0.5561  0.0714  0.3185
 3101TIP3    H130938   3.437   6.772   8.607 -2.9926  0.9965  1.0107
 3101TIP3    H230939   3.416   6.652   8.696 -0.8667  0.5798  0.9952
 3102TIP3   OH230940   5.392   5.651   0.719  0.5754 -0.4259 -0.5205
 3102TIP3    H130941   5.344   5.643   0.637 -1.2484  0.8793  0.3449
 3102TIP3    H230942   5.484   5.655   0.694  0.0934 -0.6108 -2.4386
 3103TIP3   OH230943   5.388   1.660   1.706 -0.2600  0.3522 -0.0401
 3103TIP3    H130944   5.423   1.571   1.714 -0.5519 -0.0699 -2.4546
 3103TIP3    H230945   5.451   1.715   1.751  0.5081 -0.9578  0.5573
 3104TIP3   OH230946   3.575   4.681   2.770 -0.5876 -0.1357 -0.2773
 3104TIP3    H130947   3.595   4.607   2.827 -1.1011 -1.6552 -1.9641
 3104TIP3    H230948   3.655   4.734   2.769 -0.4862 -0.1748  1.5994
 3105TIP3   OH230949   1.879   4.282   1.077 -0.2792 -0.1979 -0.1435
 3105TIP3    H130950   1.877   4.225   1.154  0.1390  2.0093  1.6336
 3105TIP3    H230951   1.793   4.324   1.076 -0.3965 -0.4496 -1.0914
 3106TIP3   OH230952   1.553   6.121   7.600 -0.2575  0.2346 -0.3962
 3106TIP3    H130953   1.630   6.104   7.655 -1.2271 -1.1971  0.6236
 3106TIP3    H230954   1.585   6.176   7.529  1.3812  0.9080  0.7967
 3107TIP3   OH230955   3.626   3.426   2.414  0.0667 -0.1795  0.2956
 3107TIP3    H130956   3.589   3.475   2.341  0.2890  0.9360  0.9051
 3107TIP3    H230957   3.610   3.481   2.491  0.5674 -0.9399  0.9663
 3108TIP3   OH230958   2.530   1.003   8.275 -0.1104 -0.4742 -0.0419
 3108TIP3    H130959   2.610   0.951   8.264  0.7684  0.8370 -0.0830
 3108TIP3    H230960   2.465   0.959   8.220  1.1033 -0.5017 -1.5191
 3109TIP3   OH230961   4.053   4.505   7.581 -0.1002 -0.0365 -0.2892
 3109TIP3    H130962   4.075   4.582   7.635  1.9071  0.8562 -2.2336
 3109TIP3    H230963   3.987   4.536   7.520 -1.5618 -0.7579  0.8520
 3110TIP3   OH230964   1.607   5.816   7.971 -0.2032  0.1075 -0.1186
 3110TIP3    H130965   1.535   5.816   7.908 -0.8020 -0.5863  0.5523
 3110TIP3    H230966   1.572   5.864   8.047  0.3236  0.4592 -0.0885
 3111TIP3   OH230967   0.993   2.201   1.348  0.0364  0.3659 -0.1586
 3111TIP3    H130968   1.010   2.135   1.281  1.2316 -2.6449  2.8281
 3111TIP3    H230969   0.928   2.161   1.405  0.5232  1.9331  1.5824
 3112TIP3   OH230970   2.572   4.022   2.099  0.2607 -0.4764 -0.2207
 3112TIP3    H130971   2.556   4.053   2.010 -1.8075 -1.3080 -0.1738
 3112TIP3    H230972   2.566   4.101   2.153 -2.0460 -0.4261 -0.4496
 3113TIP3   OH230973   4.110   1.758   2.523  0.0366  0.3371  0.1575
 3113TIP3    H130974   4.186   1.711   2.556 -0.3822 -0.7346 -0.3517
 3113TIP3    H230975   4.038   1.728   2.578 -0.5373 -0.9189 -1.2139
 3114TIP3   OH230976   4.832   2.232   0.409 -0.5663  0.1380  0.3573
 3114TIP3    H130977   4.909   2.190   0.448 -1.2201 -0.2004  1.3071
 3114TIP3    H230978   4.771   2.243   0.481 -1.6243 -0.0708 -0.4798
 3115TIP3   OH230979   0.051   4.558   8.686 -0.5076  0.1225  0.1210
 3115TIP3    H130980   0.131   4.582   8.732 -0.5567  1.3093 -0.3753
 3115TIP3    H230981  -0.020   4.588   8.744 -0.5998 -0.4215  0.3006
 3116TIP3   OH230982   0.833   1.630   1.255  0.3095  0.3857 -0.0736
 3116TIP3    H130983   0.811   1.610   1.164  1.0935  0.1251 -0.2071
 3116TIP3    H230984   0.927   1.613   1.262  0.1705 -0.0513  0.9062
 3117TIP3   OH230985   2.690   6.621   0.624  0.0026  0.0619  1.0255
 3117TIP3    H130986   2.729   6.703   0.655 -1.1853 -0.2360  3.5925
 3117TIP3    H230987   2.735   6.603   0.541  0.2384  3.3139  0.3082
 3118TIP3   OH230988   3.047   5.856   0.010  0.4910 -0.3847 -0.4751
 3118TIP3    H130989   2.960   5.872  -0.027  0.0498 -0.5229  0.4923
 3118TIP3    H230990   3.040   5.885   0.101  1.5420 -0.1314 -0.4665
 3119TIP3   OH230991   6.049   6.394   2.076 -0.1355  0.6078 -0.1609
 3119TIP3    H130992   5.998   6.315   2.053 -0.9403  0.7178  1.1485
 3119TIP3    H230993   6.033   6.454   2.003 -2.0145  0.6815  0.2631
 3120TIP3   OH230994   2.628   1.398   2.670 -0.5738  0.5985  0.4999
 3120TIP3    H130995   2.661   1.487   2.682 -0.9263  0.9666 -0.9982
 3120TIP3    H230996   2.691   1.343   2.715 -0.8969  1.6650  2.3433
 3121TIP3   OH230997   5.724   3.987   7.761 -0.4366  0.3888  0.6660
 3121TIP3    H130998   5.753   4.023   7.678  0.0228 -0.6898  0.3362
 3121TIP3    H230999   5.696   3.898   7.741  1.9392 -0.7762  1.9918
 3122TIP3   OH231000   0.573   2.931   0.688 -0.4168 -0.2343  0.3174
 3122TIP3    H131001   0.534   2.861   0.740 -0.2511 -1.3736 -1.0389
 3122TIP3    H231002   0.527   3.010   0.716 -2.0638 -1.1920  0.4075
 3123TIP3   OH231003   6.600   2.500   0.945 -0.4761  0.1005  0.3492
 3123TIP3    H131004   6.614   2.529   1.035 -0.4786  2.1296 -0.2578
 3123TIP3    H231005   6.622   2.407   0.947  1.7152  0.5635  1.9592
 3124TIP3   OH231006   6.357   5.784   3.418 -0.0547 -0.6843 -0.3854
 3124TIP3    H131007   6.398   5.790   3.504  1.9546 -1.4120 -1.2456
 3124TIP3    H231008   6.313   5.699   3.418 -2.9668  0.6708  1.0462
 3125TIP3   OH231009   2.656   1.840   8.015 -0.5473  0.2354 -0.2789
 3125TIP3    H131010   2.567   1.871   8.034 -0.4205  2.9348 -3.2121
 3125TIP3    H231011   2.690   1.902   7.950  2.9737 -1.5542 -0.4109
 3126TIP3   OH231012   3.129   2.889   7.472  0.5657 -0.8614 -0.4386
 3126TIP3    H131013   3.188   2.925   7.406 -0.3978 -0.8108 -1.2950
 3126TIP3    H231014   3.057   2.851   7.422  0.8776 -2.8089  0.4959
 3127TIP3   OH231015   2.612   2.055   0.605  0.2385 -0.2710 -0.4175
 3127TIP3    H131016   2.697   2.046   0.562  0.1978 -0.7559 -0.4001
 3127TIP3    H231017   2.596   2.150   0.606  0.7320 -0.1831 -0.5056
 3128TIP3   OH231018   1.698   0.151   2.331  0.0049 -0.7193  0.3848
 3128TIP3    H131019   1.721   0.082   2.393  1.4653 -1.4081 -0.8333
 3128TIP3    H231020   1.604   0.144   2.319 -0.1614 -1.1441  1.8316
 3129TIP3   OH231021   2.435   4.774   1.947 -0.3577  0.8307  0.5301
 3129TIP3    H131022   2.360   4.723   1.917  0.3679  0.3066 -0.4427
 3129TIP3    H231023   2.399   4.831   2.015 -1.6020  0.4984  0.1807
 3130TIP3   OH231024   3.859   6.740   0.695 -0.0576  0.6289 -0.1077
 3130TIP3    H131025   3.883   6.648   0.689  2.1995  1.2790 -2.6439
 3130TIP3    H231026   3.794   6.753   0.626 -1.0193  0.7901  0.8054
 3131TIP3   OH231027   5.423   3.411   7.884 -0.0644 -0.7927  0.0856
 3131TIP3    H131028   5.455   3.498   7.909 -1.7991  0.3039 -1.2615
 3131TIP3    H231029   5.450   3.354   7.956  2.0733  0.6161  0.5016
 3132TIP3   OH231030   0.268   0.975   0.090 -0.1972 -0.0354  0.0132
 3132TIP3    H131031   0.316   0.893   0.098  0.5367  0.5184  1.6680
 3132TIP3    H231032   0.193   0.954   0.034 -0.3842 -2.0027  0.9413
 3133TIP3   OH231033   5.711   4.541   2.323 -0.3466  0.0139  0.0110
 3133TIP3    H131034   5.803   4.565   2.337 -0.3495 -0.2639  0.5439
 3133TIP3    H231035   5.715   4.463   2.267 -0.2537 -0.0054  0.0441
 3134TIP3   OH231036   2.424   4.971   0.233  0.0301 -0.0088 -0.0709
 3134TIP3    H131037   2.335   4.957   0.265 -0.1392 -1.5694 -1.1587
 3134TIP3    H231038   2.413   4.997   0.141  0.6491  1.1890  0.1747
 3135TIP3   OH231039   5.435   2.525   8.015 -0.0924  0.3027 -0.2519
 3135TIP3    H131040   5.494   2.552   8.086  0.3109  1.7310 -1.0873
 3135TIP3    H231041   5.485   2.462   7.964 -0.2247 -0.3953  0.4557
 3136TIP3   OH231042   6.459   6.596   0.116 -0.6160 -0.1526  0.0331
 3136TIP3    H131043   6.414   6.522   0.157 -1.1557  0.9869  1.6144
 3136TIP3    H231044   6.441   6.670   0.174  1.6767  0.7851 -0.3346
 3137TIP3   OH231045   4.953   2.822   1.089 -0.6261 -0.0154 -0.1578
 3137TIP3    H131046   5.012   2.815   1.164 -0.8348 -1.1721 -0.0843
 3137TIP3    H231047   4.890   2.890   1.114  1.1275  1.8329 -0.5807
 3138TIP3   OH231048   4.127   4.165   8.746  0.0717 -0.1824  0.0756
 3138TIP3    H131049   4.090   4.203   8.825  1.4371  1.2153  0.0823
 3138TIP3    H231050   4.053   4.161   8.685 -0.2029  2.3732  0.1363
 3139TIP3   OH231051   5.210   1.208   1.744 -0.3445 -0.3437  0.6213
 3139TIP3    H131052   5.281   1.230   1.805 -1.1149  1.2243  0.9876
 3139TIP3    H231053   5.200   1.113   1.754  0.5475 -0.3427  1.8471
 3140TIP3   OH231054   2.367   4.176   8.127  0.6588 -0.2839  0.8347
 3140TIP3    H131055   2.358   4.089   8.167 -0.2197 -0.1704  0.8966
 3140TIP3    H231056   2.324   4.235   8.188  1.2886  0.2056  0.8077
 3141TIP3   OH231057   5.831   1.049   3.370  0.0752  0.5104  0.3695
 3141TIP3    H131058   5.814   0.975   3.427  1.4397 -0.2896 -0.2068
 3141TIP3    H231059   5.767   1.115   3.396 -0.5100 -0.4959  1.5734
 3142TIP3   OH231060   1.153   4.177   8.355 -0.3032  0.2204  0.6872
 3142TIP3    H131061   1.187   4.264   8.335  1.5793 -0.6230  0.0220
 3142TIP3    H231062   1.169   4.125   8.276 -1.9631 -0.6084  0.8403
 3143TIP3   OH231063   5.743   3.582   0.027 -0.1227 -0.1452 -0.5849
 3143TIP3    H131064   5.751   3.676   0.041  0.5607 -0.0170 -1.7451
 3143TIP3    H231065   5.654   3.561   0.057  0.8043  0.2306  2.9364
 3144TIP3   OH231066   5.412   3.402   3.155  0.0593  0.4515 -0.2632
 3144TIP3    H131067   5.354   3.442   3.220 -2.1573 -1.6424 -0.8059
 3144TIP3    H231068   5.354   3.376   3.084  2.0619  0.3732 -1.9681
 3145TIP3   OH231069   1.313   4.845   1.291  0.3933 -0.4561 -0.2706
 3145TIP3    H131070   1.311   4.938   1.268  2.4072 -0.2827  0.1013
 3145TIP3    H231071   1.246   4.836   1.359 -0.7157  0.4270 -1.1985
 3146TIP3   OH231072   0.519   4.413   3.097 -0.0300  0.5266  0.0007
 3146TIP3    H131073   0.529   4.469   3.020  0.9223 -1.2072 -1.1820
 3146TIP3    H231074   0.433   4.372   3.086  0.1185  0.2565 -0.1709
 3147TIP3   OH231075   2.773   0.645   0.649  0.7898  0.0227  0.8023
 3147TIP3    H131076   2.818   0.562   0.634  1.5254  0.3342  1.2368
 3147TIP3    H231077   2.783   0.693   0.567 -0.2960 -0.6073  0.2818
 3148TIP3   OH231078   5.728   0.923   7.784  0.6721  0.3207 -0.0610
 3148TIP3    H131079   5.761   1.002   7.742  0.0446 -0.0303 -1.2852
 3148TIP3    H231080   5.805   0.883   7.824  1.5962  0.0324 -1.9907
 3149TIP3   OH231081   4.180   3.530   7.633 -0.0828 -0.1256 -0.2890
 3149TIP3    H131082   4.148   3.463   7.693  1.0642  0.0194  0.5115
 3149TIP3    H231083   4.268   3.503   7.611 -1.1446 -1.3092 -3.6470
 3150TIP3   OH231084   2.531   4.277   1.449  1.1846 -0.6578  0.4279
 3150TIP3    H131085   2.465   4.335   1.412  0.4559 -2.2546 -0.9159
 3150TIP3    H231086   2.575   4.330   1.516 -0.8104  0.7396  0.7141
 3151TIP3   OH231087   6.172   2.214   7.862  0.2075 -0.2837 -0.6142
 3151TIP3    H131088   6.157   2.242   7.952 -0.5057  0.4634 -0.9533
 3151TIP3    H231089   6.265   2.232   7.846  0.8720 -2.3217  0.6098
 3152TIP3   OH231090   6.579   3.401   0.441 -0.1272  0.2383  0.2231
 3152TIP3    H131091   6.611   3.330   0.497 -0.7902  0.4152  0.8414
 3152TIP3    H231092   6.641   3.472   0.456 -1.0173  0.7281  1.7469
 3153TIP3   OH231093   5.628   4.179   0.039 -0.2424  0.1733  1.0771
 3153TIP3    H131094   5.614   4.267   0.074 -2.8910  0.0420  0.5134
 3153TIP3    H231095   5.619   4.121   0.114  0.4104  0.2859  1.2511
 3154TIP3   OH231096   3.257   1.741   1.926 -0.5956 -0.9184  0.7396
 3154TIP3    H131097   3.343   1.782   1.913  0.5920 -2.5780  2.6488
 3154TIP3    H231098   3.200   1.813   1.951  0.8894 -0.0957  1.9328
 3155TIP3   OH231099   0.673   1.006   8.407  0.1508  0.4559 -0.4015
 3155TIP3    H131100   0.639   1.084   8.364  0.3007  0.2223 -0.9534
 3155TIP3    H231101   0.685   0.943   8.336 -0.3240 -0.1952  0.0873
 3156TIP3   OH231102   6.224   4.031   0.981 -0.1179 -0.0737  0.5065
 3156TIP3    H131103   6.313   4.063   0.996 -0.3325  0.4554  0.6995
 3156TIP3    H231104   6.228   3.938   1.000  0.3915 -0.0518  0.5241
 3157TIP3   OH231105   1.062   4.980   8.470  0.2678 -0.3667  0.1217
 3157TIP3    H131106   0.973   4.973   8.505  0.2775  0.5025  0.3485
 3157TIP3    H231107   1.049   5.005   8.378  0.2707  0.3216  0.2990
 3158TIP3   OH231108   3.046   1.276   7.121 -0.8664 -0.0758  0.0486
 3158TIP3    H131109   3.102   1.276   7.042 -0.0551 -0.5258  0.6076
 3158TIP3    H231110   3.018   1.367   7.130 -0.1775  0.1705 -0.2224
 3159TIP3   OH231111   3.129   4.779   1.198 -0.2475 -0.8004  0.6076
 3159TIP3    H131112   3.169   4.729   1.269  0.4667 -0.7800  0.2307
 3159TIP3    H231113   3.115   4.866   1.236  3.2513  0.2750 -0.1927
 3160TIP3   OH231114   0.644   2.438   3.139  0.5874  0.2095  0.4823
 3160TIP3    H131115   0.711   2.496   3.177  0.6005 -0.3209  1.2895
 3160TIP3    H231116   0.691   2.357   3.119  0.9777  1.0005 -2.2812
 3161TIP3   OH231117   1.118   3.186   0.123 -0.0978 -0.2866 -0.2734
 3161TIP3    H131118   1.189   3.244   0.097  0.1833 -0.2697  0.5085
 3161TIP3    H231119   1.112   3.195   0.218 -1.0917 -0.3542 -0.3110
 3162TIP3   OH231120   3.131   2.515   0.317  0.1955  0.1580 -0.1579
 3162TIP3    H131121   3.124   2.494   0.224 -1.3192  1.8746 -0.4842
 3162TIP3    H231122   3.070   2.455   0.360 -1.1809  1.1450 -0.6375
 3163TIP3   OH231123   4.954   4.227   3.239 -0.5893 -0.2012 -0.1456
 3163TIP3    H131124   4.911   4.292   3.295 -2.3348 -0.8331 -0.6935
 3163TIP3    H231125   5.031   4.200   3.289 -1.5220  0.0259  1.4837
 3164TIP3   OH231126   1.010   0.236   2.533 -0.2937 -0.3435  0.2202
 3164TIP3    H131127   0.943   0.265   2.594  1.1207  3.2876  0.2558
 3164TIP3    H231128   1.005   0.297   2.460  1.3552 -1.5023 -0.9542
 3165TIP3   OH231129   0.480   0.275   1.301 -0.6907 -0.0956 -0.3959
 3165TIP3    H131130   0.513   0.322   1.223 -0.9213 -1.1749 -1.1698
 3165TIP3    H231131   0.559   0.251   1.349 -0.5579  0.8377 -0.1313
 3166TIP3   OH231132   1.979   1.969   0.684 -0.0692  0.3302 -0.0631
 3166TIP3    H131133   2.033   2.007   0.753 -2.0958  1.1692  1.1667
 3166TIP3    H231134   1.937   1.893   0.725 -2.0471  1.3947  0.0128
 3167TIP3   OH231135   1.885   3.577   0.373 -0.3233  0.0044  0.1391
 3167TIP3    H131136   1.885   3.618   0.459  2.5264  3.1737 -1.1080
 3167TIP3    H231137   1.957   3.513   0.377 -0.8812 -0.6190  0.3755
 3168TIP3   OH231138   1.177   6.072   0.344  0.2573  0.1345 -0.3895
 3168TIP3    H131139   1.233   5.995   0.335 -0.7718 -0.5163 -1.5774
 3168TIP3    H231140   1.157   6.077   0.437 -0.5365 -1.7085 -0.4219
 3169TIP3   OH231141   0.549   3.996   2.020 -0.2117 -0.6971 -0.2771
 3169TIP3    H131142   0.524   3.910   2.055 -0.3209 -1.0290 -1.1409
 3169TIP3    H231143   0.466   4.039   2.000 -0.1437 -0.9503 -1.1439
 3170TIP3   OH231144   2.893   2.411   1.889  0.5807  0.4388 -0.0999
 3170TIP3    H131145   2.956   2.384   1.823 -0.1624  1.7214 -1.4013
 3170TIP3    H231146   2.812   2.368   1.864 -0.0789  2.0706 -0.9646
 3171TIP3   OH231147   4.048   0.290   1.503 -0.0118  0.1401 -0.3516
 3171TIP3    H131148   4.126   0.258   1.547  0.7461 -0.6704 -2.1907
 3171TIP3    H231149   4.078   0.363   1.449  0.0285 -1.5362 -2.7866
 3172TIP3   OH231150   3.425   6.797   0.321 -0.0623  0.4956  0.3670
 3172TIP3    H131151   3.366   6.722   0.326  0.8008 -0.1633  1.0003
 3172TIP3    H231152   3.502   6.770   0.372  1.9642  0.2435 -2.5894
 3173TIP3   OH231153   5.016   3.602   1.676  0.1670  0.3028 -0.6319
 3173TIP3    H131154   5.000   3.508   1.666 -2.9055  0.6393  0.0509
 3173TIP3    H231155   5.036   3.614   1.769  2.3657  0.1867 -1.0402
 3174TIP3   OH231156   1.324   5.872   8.477  0.4130 -0.3550  0.4563
 3174TIP3    H131157   1.328   5.804   8.544 -0.5328  2.1422  3.2970
 3174TIP3    H231158   1.231   5.897   8.474  1.0109  2.3403  1.3480
 3175TIP3   OH231159   3.262   6.255   1.388  0.2940  0.0831 -0.6313
 3175TIP3    H131160   3.243   6.257   1.294 -0.5381  1.4760 -0.4595
 3175TIP3    H231161   3.177   6.259   1.431  0.6321 -1.0652  0.2122
 3176TIP3   OH231162   0.507   5.085   2.640 -0.2857  0.1478  0.1633
 3176TIP3    H131163   0.553   5.055   2.718  0.2978 -0.7046 -0.5020
 3176TIP3    H231164   0.574   5.089   2.572 -1.0136 -0.2704 -0.5969
 3177TIP3   OH231165   4.195   0.020   1.393  0.4380  0.2548  0.2989
 3177TIP3    H131166   4.275  -0.028   1.416 -0.7997 -1.9335  0.2499
 3177TIP3    H231167   4.173   0.069   1.472  1.8146  0.8938  0.3107
 3178TIP3   OH231168   4.904   1.001   0.341 -0.1166 -0.1529  0.3027
 3178TIP3    H131169   4.969   0.978   0.407 -0.4439  1.6157  1.3222
 3178TIP3    H231170   4.844   1.060   0.387 -1.3150 -0.1979 -1.1451
 3179TIP3   OH231171   1.403   0.025   0.268  0.6447  0.0248  0.4123
 3179TIP3    H131172   1.423   0.118   0.276  1.9039 -0.2708  0.8712
 3179TIP3    H231173   1.483  -0.020   0.297  0.2174 -1.1943 -0.2194
 3180TIP3   OH231174   2.570   5.342   2.604  0.0949  0.6982  0.4447
 3180TIP3    H131175   2.543   5.433   2.600 -3.1987 -0.1715  0.3566
 3180TIP3    H231176   2.553   5.315   2.694 -2.3314 -0.6613 -0.3321
 3181TIP3   OH231177   0.552   3.003   1.354 -0.2782 -0.2380 -0.5222
 3181TIP3    H131178   0.544   3.025   1.447  1.0827 -0.2801 -0.3645
 3181TIP3    H231179   0.637   2.958   1.348 -1.0716 -1.6673 -1.5333
 3182TIP3   OH231180   6.184   5.829   8.576 -0.1345 -0.6772  0.4202
 3182TIP3    H131181   6.203   5.887   8.503 -0.7441 -1.6731 -0.5737
 3182TIP3    H231182   6.266   5.822   8.624  0.6818 -1.0894 -0.9801
 3183TIP3   OH231183   0.844   6.578   0.447  0.1118 -0.4461 -0.2331
 3183TIP3    H131184   0.933   6.585   0.482 -0.4632 -0.3602  1.2994
 3183TIP3    H231185   0.805   6.505   0.496 -0.7870 -0.2073 -0.5854
 3184TIP3   OH231186   4.929   2.991   1.815 -0.1668 -0.1475  0.3649
 3184TIP3    H131187   5.015   2.963   1.783 -0.2728  0.0646 -0.1140
 3184TIP3    H231188   4.935   2.982   1.910 -0.1602 -1.6777  0.2509
 3185TIP3   OH231189   0.075   5.197   2.430  0.4281 -0.4850 -0.0664
 3185TIP3    H131190  -0.007   5.229   2.467 -0.0910 -0.3301 -1.2868
 3185TIP3    H231191   0.057   5.107   2.405  0.6128 -0.4354 -0.3798
 3186TIP3   OH231192   3.764   1.979   7.724 -0.3862 -0.5144 -0.0961
 3186TIP3    H131193   3.761   1.937   7.638  1.0695 -0.6700 -0.0819
 3186TIP3    H231194   3.725   1.915   7.784  0.1366 -1.0913 -0.3663
 3187TIP3   OH231195   3.684   3.544   2.762 -0.2722 -0.5128 -0.1467
 3187TIP3    H131196   3.710   3.462   2.720 -0.5149 -0.3406 -0.6385
 3187TIP3    H231197   3.724   3.612   2.708 -1.3206 -0.2602 -0.6353
 3188TIP3   OH231198   1.093   5.667   8.047  0.1350  0.1565 -0.2266
 3188TIP3    H131199   1.112   5.613   7.970  1.2651  0.8350 -0.4549
 3188TIP3    H231200   1.067   5.751   8.011 -1.5027 -0.1656  0.1295
 3189TIP3   OH231201   3.341   1.370   0.555 -0.3106 -0.5040  0.2944
 3189TIP3    H131202   3.245   1.366   0.559 -0.4545 -0.7040 -1.8883
 3189TIP3    H231203   3.368   1.280   0.540  0.1017 -0.2636 -0.4500
 3190TIP3   OH231204   5.015   5.819   1.676  0.3620 -0.0803  0.4853
 3190TIP3    H131205   5.041   5.858   1.593  1.9886 -0.7156  0.6713
 3190TIP3    H231206   5.071   5.862   1.741  0.3894 -0.9116  1.0193
 3191TIP3   OH231207   5.690   5.386   2.705 -0.3531 -0.4099 -0.2349
 3191TIP3    H131208   5.657   5.319   2.645 -0.4328 -0.2227 -0.4046
 3191TIP3    H231209   5.737   5.447   2.649 -0.8818  0.0532 -0.1875
 3192TIP3   OH231210   4.771   6.292   7.896  0.1757  0.0884  0.0344
 3192TIP3    H131211   4.822   6.292   7.977  1.5538 -2.2728 -0.7506
 3192TIP3    H231212   4.832   6.323   7.829 -0.9026  1.8607 -0.1905
 3193TIP3   OH231213   1.131   2.598   8.192 -0.4116  0.0841 -0.4817
 3193TIP3    H131214   1.055   2.556   8.152 -2.2564  3.8781 -1.4749
 3193TIP3    H231215   1.101   2.627   8.278  1.3034 -1.8248  0.8537
 3194TIP3   OH231216   3.502   5.066   8.410  0.4440  0.2718  0.3904
 3194TIP3    H131217   3.528   5.000   8.475 -0.8631  0.1025  0.7655
 3194TIP3    H231218   3.489   5.145   8.462 -0.0826  0.2739  0.2499
 3195TIP3   OH231219   1.936   2.230   1.265  0.2137  0.6068  0.2354
 3195TIP3    H131220   1.999   2.206   1.332  0.2321  0.5070  0.1816
 3195TIP3    H231221   1.860   2.173   1.282  0.6791 -0.2890 -0.5798
 3196TIP3   OH231222   0.777   4.079   0.609  0.0692 -0.9940  0.6840
 3196TIP3    H131223   0.811   4.002   0.562  1.2886 -0.7955  1.2258
 3196TIP3    H231224   0.682   4.065   0.610  0.1525 -1.8274 -0.3851
 3197TIP3   OH231225   6.429   1.193   0.503 -0.0977 -0.5067 -0.0041
 3197TIP3    H131226   6.515   1.225   0.478 -0.4857 -1.2534 -2.5671
 3197TIP3    H231227   6.412   1.120   0.444 -3.2079  0.6949 -0.8201
 3198TIP3   OH231228   0.043   4.869   3.713  0.5283 -0.0847  0.5348
 3198TIP3    H131229   0.013   4.786   3.750  0.9263 -0.6481 -0.3664
 3198TIP3    H231230   0.023   4.862   3.620 -1.0419  1.5706  0.7093
 3199TIP3   OH231231   3.712   3.579   8.436 -0.1239  0.1858 -0.0550
 3199TIP3    H131232   3.634   3.573   8.381 -0.3878  3.7496 -0.3313
 3199TIP3    H231233   3.783   3.597   8.374  0.6204 -1.1016  0.3800
 3200TIP3   OH231234   3.090   2.159   2.957  0.3576  0.3854  0.0101
 3200TIP3    H131235   3.035   2.237   2.965  0.0401  0.2425 -0.7506
 3200TIP3    H231236   3.052   2.096   3.019 -0.6892  0.0935 -0.8972
 3201TIP3   OH231237   6.399   4.594   0.658  0.2992  0.1504 -0.0633
 3201TIP3    H131238   6.439   4.537   0.593 -2.1485  0.3909 -1.9264
 3201TIP3    H231239   6.322   4.546   0.688 -0.4707  1.4373  0.1267
 3202TIP3   OH231240   5.399   2.974   2.692  0.3886 -0.3993 -0.0368
 3202TIP3    H131241   5.478   2.994   2.744 -0.9023  0.2681  1.7814
 3202TIP3    H231242   5.334   3.037   2.723 -1.3025 -1.8888 -0.3943
 3203TIP3   OH231243   6.096   2.544   8.490  0.1775  0.4109 -0.3280
 3203TIP3    H131244   6.020   2.517   8.438 -0.5744  1.2405  0.3180
 3203TIP3    H231245   6.060   2.565   8.576  1.4157 -0.9928  0.5743
 3204TIP3   OH231246   2.285   4.191   1.165 -0.9121 -0.0331 -0.1021
 3204TIP3    H131247   2.248   4.161   1.249 -1.1985  1.7168  0.4363
 3204TIP3    H231248   2.357   4.130   1.148  0.0701  0.3924  2.1575
 3205TIP3   OH231249   3.415   5.287   8.592 -0.0986 -0.2593 -0.2433
 3205TIP3    H131250   3.457   5.303   8.676  2.1174 -3.2133 -0.6130
 3205TIP3    H231251   3.391   5.374   8.559 -1.0057  0.9968  3.3383
 3206TIP3   OH231252   5.243   5.284   8.097 -0.4047  0.0222 -0.4806
 3206TIP3    H131253   5.293   5.350   8.048 -0.6993  0.2178 -0.5149
 3206TIP3    H231254   5.310   5.237   8.147 -0.0273 -0.4967 -1.4328
 3207TIP3   OH231255   2.071   2.199   8.413  0.3114  0.3086 -0.0579
 3207TIP3    H131256   2.064   2.222   8.506  0.8274  1.0938 -0.2137
 3207TIP3    H231257   1.981   2.208   8.380  0.0532 -0.3442  0.4429
 3208TIP3   OH231258   5.194   0.570   3.221 -0.2744  0.5108 -0.3448
 3208TIP3    H131259   5.168   0.641   3.280 -1.4049 -1.0033  1.0338
 3208TIP3    H231260   5.282   0.595   3.193 -0.9443  2.8884 -0.6219
 3209TIP3   OH231261   5.464   5.544   8.523  0.0192  0.2353 -0.2845
 3209TIP3    H131262   5.508   5.473   8.476  1.7215  0.6121  0.6459
 3209TIP3    H231263   5.391   5.569   8.466 -0.0502 -1.5902 -1.0798
 3210TIP3   OH231264   5.731   1.970   2.857 -0.0214  0.2052 -0.2427
 3210TIP3    H131265   5.737   2.023   2.778 -1.4528 -1.0847 -1.2704
 3210TIP3    H231266   5.822   1.949   2.878  0.4008  0.7093 -1.4459
 3211TIP3   OH231267   5.013   2.572   2.575 -0.5828  0.4645  0.3789
 3211TIP3    H131268   5.033   2.495   2.628  1.2542 -0.2782 -1.2691
 3211TIP3    H231269   5.006   2.643   2.638  0.1682 -0.6112  1.7379
 3212TIP3   OH231270   0.972   5.487   2.287 -0.0998  0.0759 -0.2989
 3212TIP3    H131271   0.955   5.426   2.215  1.4563  0.2661 -0.8727
 3212TIP3    H231272   1.057   5.460   2.321  0.2170  1.3870  0.0070
 3213TIP3   OH231273   4.680   2.319   0.610 -0.2857  0.5144 -0.2053
 3213TIP3    H131274   4.598   2.323   0.660 -0.6226 -0.8405 -0.6074
 3213TIP3    H231275   4.731   2.394   0.641 -1.1961  0.7065  0.8911
 3214TIP3   OH231276   3.456   1.336   7.916 -0.1713  0.5014 -0.1971
 3214TIP3    H131277   3.462   1.262   7.856 -1.8903  1.7657 -2.0295
 3214TIP3    H231278   3.529   1.393   7.892  0.4127  0.0236  0.3914
 3215TIP3   OH231279   5.916   4.006   1.147  0.7317  0.0418 -0.3756
 3215TIP3    H131280   5.907   4.096   1.178 -0.9484 -0.0686 -0.4515
 3215TIP3    H231281   5.893   4.010   1.054  1.5122 -0.3329 -0.5940
 3216TIP3   OH231282   4.146   1.454   8.030 -0.5352 -0.3568  0.2842
 3216TIP3    H131283   4.059   1.416   8.017 -1.2863  1.7916 -1.8243
 3216TIP3    H231284   4.129   1.544   8.057  1.1081 -0.4849  1.8957
 3217TIP3   OH231285   5.629   0.340   0.461  0.0696 -0.0076  0.2216
 3217TIP3    H131286   5.560   0.352   0.525  0.7535  2.0508  0.6439
 3217TIP3    H231287   5.705   0.312   0.512 -0.3926 -2.3090 -0.2446
 3218TIP3   OH231288   2.318   1.501   1.702  0.6117 -0.1091 -0.0036
 3218TIP3    H131289   2.384   1.562   1.735 -1.6238  2.5092 -0.0546
 3218TIP3    H231290   2.342   1.487   1.610  0.9524  1.0390 -0.1069
 3219TIP3   OH231291   1.017   2.782   0.939 -0.0309  0.5395  0.1213
 3219TIP3    H131292   0.927   2.795   0.969 -0.5379 -0.3409 -0.9223
 3219TIP3    H231293   1.009   2.718   0.868  1.5974 -0.8514  1.1037
 3220TIP3   OH231294   0.888   0.558   8.595 -0.3435 -0.4726  0.5860
 3220TIP3    H131295   0.801   0.596   8.597 -0.5892 -1.0668  2.1196
 3220TIP3    H231296   0.942   0.618   8.646  0.1045 -0.2280 -0.1618
 3221TIP3   OH231297   4.523   4.860   2.587  0.0222 -0.3577 -0.0843
 3221TIP3    H131298   4.537   4.941   2.539 -1.0801 -0.4223 -0.5355
 3221TIP3    H231299   4.547   4.881   2.677 -0.5069  0.5438 -0.1446
 3222TIP3   OH231300   5.406   4.009   8.313 -0.4324  0.3098  0.1123
 3222TIP3    H131301   5.405   4.008   8.408 -2.2503  0.3760  0.1273
 3222TIP3    H231302   5.422   4.101   8.290 -3.3087  0.9770  0.4343
 3223TIP3   OH231303   3.277   3.087   2.576  0.2222  0.2205  0.4306
 3223TIP3    H131304   3.198   3.071   2.628  0.2805 -0.8564  0.2154
 3223TIP3    H231305   3.346   3.097   2.641  0.1674 -0.3750  0.5868
 3224TIP3   OH231306   3.473   0.495   8.165 -0.2716 -0.8716 -0.0455
 3224TIP3    H131307   3.401   0.493   8.228 -0.3123 -0.5327 -0.0837
 3224TIP3    H231308   3.507   0.405   8.165  0.6860 -0.5401  1.5585
 3225TIP3   OH231309   3.590   5.687   0.457  0.4175  0.0045  0.0313
 3225TIP3    H131310   3.636   5.622   0.404  0.6590  1.4868 -1.6812
 3225TIP3    H231311   3.544   5.742   0.393 -0.6604  0.8596  1.4814
 3226TIP3   OH231312   6.544   1.432   8.066  0.4240  0.2548  0.1776
 3226TIP3    H131313   6.455   1.402   8.050  0.2246 -0.2427  2.0127
 3226TIP3    H231314   6.535   1.526   8.083  0.1471  0.1171  0.8583
 3227TIP3   OH231315   5.702   0.467   8.487  0.8211 -0.2707 -0.2553
 3227TIP3    H131316   5.677   0.400   8.550  3.0849 -1.6064 -0.6747
 3227TIP3    H231317   5.723   0.544   8.540  0.3022 -0.5666  0.3952
 3228TIP3   OH231318   5.192   5.336   1.241 -0.3419 -0.1435 -0.0767
 3228TIP3    H131319   5.216   5.385   1.320  0.4927 -0.8254  0.1070
 3228TIP3    H231320   5.103   5.305   1.259 -0.5750  0.6105  0.1354
 3229TIP3   OH231321   5.418   0.464   8.353  0.3882  0.3015  0.4545
 3229TIP3    H131322   5.348   0.485   8.415 -0.0857  2.3401 -0.6858
 3229TIP3    H231323   5.386   0.387   8.306  0.7307 -1.2580  2.5888
 3230TIP3   OH231324   5.831   0.891   8.115  0.1585  0.1429 -0.7642
 3230TIP3    H131325   5.905   0.873   8.056 -0.3278 -1.3721 -0.9368
 3230TIP3    H231326   5.771   0.819   8.101 -0.4227  0.2624  0.8969
 3231TIP3   OH231327   3.433   1.434   0.251  0.0975 -0.1674 -0.0659
 3231TIP3    H131328   3.400   1.403   0.335  1.0020  1.6598  1.0322
 3231TIP3    H231329   3.491   1.507   0.273 -1.4864  1.9837 -2.3783
 3232TIP3   OH231330   5.597   0.062   1.352 -0.3457  0.2003  0.1094
 3232TIP3    H131331   5.569   0.131   1.413  0.5375  1.1438 -0.5205
 3232TIP3    H231332   5.692   0.070   1.350 -0.3598  0.2158 -1.4179
 3233TIP3   OH231333   0.715   3.284   0.824  0.0234  0.0039 -0.1454
 3233TIP3    H131334   0.775   3.210   0.812  2.3891  2.1750 -3.8395
 3233TIP3    H231335   0.765   3.346   0.878  0.6365  1.2501 -2.0633
 3234TIP3   OH231336   5.846   4.133   7.552 -0.3501  0.3071 -0.0010
 3234TIP3    H131337   5.930   4.124   7.597  0.2389  0.1027 -1.0998
 3234TIP3    H231338   5.813   4.218   7.581  0.0345  0.2079  0.7616
 3235TIP3   OH231339   2.896   4.974   8.312 -0.0480  0.2593 -0.3314
 3235TIP3    H131340   2.942   4.913   8.254 -2.0335 -1.3922 -0.2641
 3235TIP3    H231341   2.846   5.030   8.252  0.1247  0.4409 -0.3080
 3236TIP3   OH231342   6.415   5.551   0.866  0.2045  0.0943  0.6815
 3236TIP3    H131343   6.361   5.574   0.941 -1.0928  0.6087 -0.3624
 3236TIP3    H231344   6.352   5.540   0.794  1.2743 -1.6796 -0.0441
 3237TIP3   OH231345   5.557   4.839   8.146  0.5266  0.3996 -0.0244
 3237TIP3    H131346   5.577   4.746   8.132  1.1891 -0.0179  2.8967
 3237TIP3    H231347   5.626   4.886   8.100  0.4181 -0.5564 -1.2001
 3238TIP3   OH231348   0.666   2.537   0.345  0.4174  0.6183  0.2479
 3238TIP3    H131349   0.625   2.542   0.431  0.2778  1.2616  0.1471
 3238TIP3    H231350   0.699   2.626   0.329  0.8669  0.3828 -0.1512
 3239TIP3   OH231351   0.971   3.520   0.835 -0.1001 -0.2945  0.0403
 3239TIP3    H131352   0.998   3.612   0.842 -1.0734 -0.0809  1.4977
 3239TIP3    H231353   0.981   3.499   0.743  2.0772  0.6638 -0.0027
 3240TIP3   OH231354   0.699   5.429   1.113  0.3522 -0.1475 -0.3178
 3240TIP3    H131355   0.675   5.520   1.099  1.2071  0.0188 -0.7516
 3240TIP3    H231356   0.782   5.433   1.160 -0.4561 -0.7062  1.2224
 3241TIP3   OH231357   5.278   4.967   0.701  0.3166  0.0895 -0.2760
 3241TIP3    H131358   5.340   5.035   0.674  0.8870 -0.3174 -0.0176
 3241TIP3    H231359   5.254   4.923   0.620  1.6543 -0.8193 -0.2104
 3242TIP3   OH231360   0.106   4.445   8.450 -0.4298 -0.0301 -0.2050
 3242TIP3    H131361   0.100   4.482   8.538 -0.1590  0.0251 -0.2109
 3242TIP3    H231362   0.132   4.354   8.464 -2.5057 -0.6627 -0.0985
 3243TIP3   OH231363   1.640   2.787   0.504 -0.0622  0.0709  0.0429
 3243TIP3    H131364   1.589   2.727   0.558 -0.3700  2.5061  2.6567
 3243TIP3    H231365   1.575   2.835   0.453 -0.1044  0.6057  0.5950
 3244TIP3   OH231366   0.664   1.348   8.484 -0.0639  0.4674 -0.5566
 3244TIP3    H131367   0.601   1.388   8.424 -0.3759 -0.8878 -1.1709
 3244TIP3    H231368   0.737   1.321   8.428  0.1591  0.2251 -0.1584
 3245TIP3   OH231369   5.264   1.742   2.478 -0.0289  0.1493 -0.2318
 3245TIP3    H131370   5.357   1.757   2.498 -0.0523 -0.3766  0.2741
 3245TIP3    H231371   5.259   1.753   2.383  0.1733  2.1143 -0.0529
 3246TIP3   OH231372   6.542   4.845   1.295 -0.0685  0.4911  0.0990
 3246TIP3    H131373   6.566   4.768   1.347  0.0092 -0.5149 -1.3491
 3246TIP3    H231374   6.450   4.829   1.271 -0.1766  1.0635  0.1272
 3247TIP3   OH231375   1.136   3.150   1.273  0.0553  0.0968 -0.0039
 3247TIP3    H131376   1.172   3.215   1.213  2.5604 -1.1796 -0.0063
 3247TIP3    H231377   1.064   3.110   1.224 -1.7166  2.8950  0.0830
 3248TIP3   OH231378   2.441   4.743   1.388  0.1490 -0.4488  0.3682
 3248TIP3    H131379   2.401   4.830   1.388 -0.8446 -0.8938 -0.1771
 3248TIP3    H231380   2.434   4.715   1.480 -0.6935 -0.4712  0.3051
 3249TIP3   OH231381   4.741   1.571   8.020  0.0556 -0.0409 -0.0405
 3249TIP3    H131382   4.711   1.483   8.045  0.9714 -0.0130  1.2268
 3249TIP3    H231383   4.666   1.609   7.973 -0.2908 -1.5585 -0.8015
 3250TIP3   OH231384   4.715   1.445   8.616  0.6289 -0.9721 -0.1165
 3250TIP3    H131385   4.760   1.364   8.641 -2.7131 -2.2757  2.3116
 3250TIP3    H231386   4.631   1.416   8.581 -0.6938  1.4410  0.8380
 3251TIP3   OH231387   3.594   5.530   2.211 -0.2930 -0.2393 -0.5909
 3251TIP3    H131388   3.532   5.463   2.240  0.7412 -0.6512  0.7651
 3251TIP3    H231389   3.540   5.607   2.194 -1.2799 -0.8457 -0.2613
 3252TIP3   OH231390   6.537   1.072   8.363  0.6294 -0.2030  0.3893
 3252TIP3    H131391   6.582   1.023   8.431 -0.4607 -2.1405 -0.2101
 3252TIP3    H231392   6.563   1.029   8.281 -1.9109 -1.1230  0.0013
 3253TIP3   OH231393   5.507   1.296   2.499 -0.1755 -0.4786 -0.2291
 3253TIP3    H131394   5.431   1.353   2.514  0.5562  0.5825 -0.4110
 3253TIP3    H231395   5.544   1.327   2.417 -0.8930 -2.5597 -1.3901
 3254TIP3   OH231396   6.107   2.145   8.310 -0.0486  0.7511 -0.1040
 3254TIP3    H131397   6.163   2.178   8.380 -2.1360 -0.1235  2.0922
 3254TIP3    H231398   6.072   2.224   8.269 -1.7220  1.3666  2.3486
 3255TIP3   OH231399   5.489   6.764   0.185 -0.2141  0.0761  0.0584
 3255TIP3    H131400   5.561   6.804   0.137  0.3830 -0.7806  0.2032
 3255TIP3    H231401   5.481   6.676   0.147 -1.3634  0.2409 -0.1316
 3256TIP3   OH231402   5.050   1.834   1.614  0.0242  0.4752  0.6726
 3256TIP3    H131403   4.983   1.863   1.676  1.5705  2.0725  1.6956
 3256TIP3    H231404   5.112   1.906   1.610 -0.1538  0.6223 -3.0923
 3257TIP3   OH231405   6.138   4.772   1.759  0.6473  0.1034 -0.1307
 3257TIP3    H131406   6.132   4.867   1.750  1.7372  0.0322 -2.1091
 3257TIP3    H231407   6.066   4.738   1.705  1.4866 -0.2139 -1.0709
 3258TIP3   OH231408   2.828   3.537   0.870 -0.2117 -0.1043  0.4951
 3258TIP3    H131409   2.833   3.512   0.777 -0.8801 -0.0073  0.4275
 3258TIP3    H231410   2.796   3.458   0.914  0.1653 -0.1702  0.6552
 3259TIP3   OH231411   5.887   3.801   1.309  0.0701 -0.6066  0.0404
 3259TIP3    H131412   5.929   3.867   1.254 -0.8605 -0.0080  0.0362
 3259TIP3    H231413   5.861   3.732   1.248 -1.2887  0.2222 -0.3412
 3260TIP3   OH231414   4.610   3.300   0.726 -0.8464 -0.5020 -0.5921
 3260TIP3    H131415   4.534   3.299   0.668 -2.2302 -1.1026  1.0995
 3260TIP3    H231416   4.575   3.334   0.809  0.9461 -0.0216  0.0019
 3261TIP3   OH231417   4.994   1.468   0.997  0.4949  0.0081  0.7176
 3261TIP3    H131418   5.085   1.490   1.016 -0.0996  1.3808  2.1912
 3261TIP3    H231419   4.957   1.548   0.959  0.1756 -0.9288 -1.0596
 3262TIP3   OH231420   2.211   3.526   8.616  0.6695 -0.4214 -0.4551
 3262TIP3    H131421   2.237   3.611   8.582  0.0141 -0.3155 -0.7135
 3262TIP3    H231422   2.131   3.543   8.666  0.0435 -0.9952 -1.2158
 3263TIP3   OH231423   5.702   5.048   0.286  0.5678 -0.4051  0.5298
 3263TIP3    H131424   5.699   4.954   0.305 -0.8033 -1.4327 -3.7778
 3263TIP3    H231425   5.610   5.072   0.272  1.1112  0.9443 -0.8899
 3264TIP3   OH231426   1.966   3.399   0.875  0.1986  0.4407  0.5166
 3264TIP3    H131427   1.885   3.349   0.884 -0.2535  1.3732  2.0477
 3264TIP3    H231428   2.032   3.334   0.850 -0.7942 -0.5170  0.2996
 3265TIP3   OH231429   2.738   6.694   1.693 -1.0675 -0.9991 -0.0094
 3265TIP3    H131430   2.797   6.622   1.717 -0.1154 -0.1992  0.1172
 3265TIP3    H231431   2.674   6.654   1.634 -1.0878 -2.1394  0.7535
 3266TIP3   OH231432   1.088   0.169   1.632 -0.0522 -0.5582 -0.0341
 3266TIP3    H131433   1.139   0.239   1.672  0.1495 -1.6765  1.7573
 3266TIP3    H231434   1.001   0.206   1.621 -0.3676 -0.4501  2.3229
 3267TIP3   OH231435   5.918   3.832   2.732 -0.2589  0.3432 -0.3673
 3267TIP3    H131436   5.950   3.784   2.656 -0.8850 -3.4313  1.4999
 3267TIP3    H231437   5.994   3.879   2.764  0.2605  1.1993 -2.6752
 3268TIP3   OH231438   2.204   4.656   1.892  0.2410  0.6028  0.3724
 3268TIP3    H131439   2.151   4.602   1.951  0.3318 -0.8003 -0.7696
 3268TIP3    H231440   2.142   4.690   1.828  0.9061 -3.5194 -2.8283
 3269TIP3   OH231441   2.338   2.122   1.841  0.0382 -0.3839  0.2591
 3269TIP3    H131442   2.367   2.101   1.930 -0.7087  0.3708  0.6943
 3269TIP3    H231443   2.353   2.042   1.792  0.0306 -0.9700  1.1832
 3270TIP3   OH231444   0.782   2.481   7.360  0.1718 -0.3316  0.2984
 3270TIP3    H131445   0.725   2.552   7.389  0.1892 -0.5685  0.9168
 3270TIP3    H231446   0.850   2.475   7.427  1.6756  0.7659 -1.0523
 3271TIP3   OH231447   5.291   5.462   1.449  0.0588 -0.5390 -0.5063
 3271TIP3    H131448   5.268   5.436   1.538  0.8123 -1.3816 -0.5398
 3271TIP3    H231449   5.302   5.557   1.454 -1.1360 -0.4023  0.0001
 3272TIP3   OH231450   6.823   4.164   7.926 -0.1744 -0.8169  0.1207
 3272TIP3    H131451   6.761   4.126   7.988 -0.1399  0.1628  0.7771
 3272TIP3    H231452   6.772   4.227   7.875  0.1884 -0.2852  0.4009
 3273TIP3   OH231453   5.249   5.807   2.459 -0.3155  0.1286 -0.4021
 3273TIP3    H131454   5.340   5.779   2.452 -0.4385 -0.6015  0.7487
 3273TIP3    H231455   5.254   5.902   2.467  0.4274  0.0127  0.7131
 3274TIP3   OH231456   3.845   1.826   8.123  0.2490 -0.1906  0.3572
 3274TIP3    H131457   3.893   1.899   8.083  0.0881  0.0361  0.5773
 3274TIP3    H231458   3.757   1.832   8.084 -0.1448  0.5078  1.3305
 3275TIP3   OH231459   0.710   3.548   3.430 -0.3534  0.3148  0.0149
 3275TIP3    H131460   0.727   3.457   3.404 -0.6724 -0.2131  1.5690
 3275TIP3    H231461   0.615   3.554   3.437 -0.6793  1.7925 -3.4666
 3276TIP3   OH231462   3.128   4.867   2.245 -0.3862  0.2726  0.1703
 3276TIP3    H131463   3.085   4.934   2.192 -1.5697  1.0277  1.9791
 3276TIP3    H231464   3.057   4.827   2.295  0.6644 -0.3855  1.1852
 3277TIP3   OH231465   0.394   1.200   0.895  0.1966  0.1740 -0.0583
 3277TIP3    H131466   0.353   1.233   0.815  1.3097  1.6802 -0.0618
 3277TIP3    H231467   0.440   1.120   0.867 -0.6143 -0.1185 -0.5878
 3278TIP3   OH231468   3.866   0.509   1.824  0.0311 -0.8016 -0.4561
 3278TIP3    H131469   3.923   0.439   1.792  1.8035  0.5247 -0.3639
 3278TIP3    H231470   3.912   0.545   1.899 -0.0089  1.4659 -1.4375
 3279TIP3   OH231471   0.834   4.130   7.544 -0.1999 -0.1661 -0.0845
 3279TIP3    H131472   0.797   4.073   7.612 -1.7282  0.9729  0.0907
 3279TIP3    H231473   0.905   4.177   7.588 -0.4336 -0.2670  0.4057
 3280TIP3   OH231474   0.627   3.260   3.004 -0.1318 -0.5393  0.3657
 3280TIP3    H131475   0.715   3.278   3.038 -1.3677  0.6997  3.2683
 3280TIP3    H231476   0.620   3.165   3.005  0.7674 -0.6236  1.3593
 3281TIP3   OH231477   1.679   2.767   0.173 -0.0504 -0.2263  0.5486
 3281TIP3    H131478   1.752   2.758   0.234  1.6472  0.7246 -1.2179
 3281TIP3    H231479   1.717   2.749   0.087 -2.0759 -0.3565 -0.3840
 3282TIP3   OH231480   0.956   4.274   8.092 -0.0839  0.1050  0.1414
 3282TIP3    H131481   0.893   4.250   8.024 -0.1169  0.6180 -0.0083
 3282TIP3    H231482   1.032   4.219   8.073  0.2137  0.8144 -0.8009
 3283TIP3   OH231483   3.617   5.612   1.172 -0.3050  0.1329 -0.2384
 3283TIP3    H131484   3.529   5.610   1.209 -0.8081 -0.4401 -1.4026
 3283TIP3    H231485   3.650   5.700   1.192 -0.8022  0.0564  0.9578
 3284TIP3   OH231486   5.434   6.467   0.552  0.1218  0.1648 -0.6209
 3284TIP3    H131487   5.372   6.396   0.534  1.8222 -1.0029 -2.1480
 3284TIP3    H231488   5.443   6.466   0.647 -0.9545 -0.7102 -0.4958
 3285TIP3   OH231489   0.154   0.299   2.440 -0.2041 -0.3358  0.3595
 3285TIP3    H131490   0.168   0.381   2.486 -0.7514 -0.4702  0.7748
 3285TIP3    H231491   0.062   0.276   2.457 -0.5613 -0.1683 -1.1527
 3286TIP3   OH231492   3.907   2.186   7.833 -0.2464  0.2518  1.1906
 3286TIP3    H131493   3.825   2.150   7.798 -0.2532  0.5816  0.8581
 3286TIP3    H231494   3.972   2.166   7.766 -0.2364  0.7945  1.0341
 3287TIP3   OH231495   5.931   6.644   7.654 -0.0361  0.1047 -0.0451
 3287TIP3    H131496   5.927   6.616   7.562 -0.9803 -0.5522  0.1808
 3287TIP3    H231497   5.856   6.703   7.664  0.4407  0.6868  0.1476
 3288TIP3   OH231498   5.347   6.750   1.272 -0.3369 -0.6401  0.3015
 3288TIP3    H131499   5.430   6.794   1.289 -1.2697  0.6931  1.7486
 3288TIP3    H231500   5.351   6.725   1.180  1.1847  0.4391  0.0395
 3289TIP3   OH231501   2.298   1.491   1.115  0.2192  0.2578  0.4121
 3289TIP3    H131502   2.226   1.448   1.067  0.6071 -1.7537  1.5163
 3289TIP3    H231503   2.375   1.473   1.061  0.5095 -1.2142  1.2648
 3290TIP3   OH231504   3.169   6.170   3.028  0.2013 -0.1653  0.4540
 3290TIP3    H131505   3.082   6.140   3.001  0.5394 -2.7344  1.9152
 3290TIP3    H231506   3.227   6.146   2.956 -0.0224  0.0369  0.2028
 3291TIP3   OH231507   3.569   5.919   1.359  0.3892 -0.1016 -0.0878
 3291TIP3    H131508   3.558   5.890   1.450 -0.3463 -1.0757 -0.4686
 3291TIP3    H231509   3.551   6.013   1.361  0.3361 -0.1227  0.7640
 3292TIP3   OH231510   4.835   5.235   8.064 -0.1641 -0.2724  0.0631
 3292TIP3    H131511   4.775   5.278   8.125 -1.9864 -2.2864 -0.1682
 3292TIP3    H231512   4.880   5.169   8.118 -0.8086 -1.1598 -0.4510
 3293TIP3   OH231513   2.681   5.247   8.641  0.2230 -0.9249 -0.8285
 3293TIP3    H131514   2.692   5.288   8.556 -2.2606  0.6683 -0.4921
 3293TIP3    H231515   2.717   5.309   8.704  0.0637 -1.0719 -0.5852
 3294TIP3   OH231516   1.052   4.238   0.936 -0.1111  0.7232  0.1258
 3294TIP3    H131517   1.006   4.235   0.852  0.1266 -0.2448  0.0223
 3294TIP3    H231518   1.103   4.158   0.938 -0.9817  0.1597  1.6847
 3295TIP3   OH231519   3.148   0.609   2.149  0.2027  0.1913  0.7300
 3295TIP3    H131520   3.132   0.654   2.232  0.3694  0.2443  0.7328
 3295TIP3    H231521   3.061   0.577   2.123  0.4232 -1.4430  1.8331
 3296TIP3   OH231522   4.800   1.408   1.201 -0.5022  0.2560 -0.2574
 3296TIP3    H131523   4.838   1.484   1.158  0.0939  0.0604 -0.0809
 3296TIP3    H231524   4.795   1.433   1.294 -1.5257  0.5706 -0.3781
 3297TIP3   OH231525   6.066   5.345   8.434  0.1900  0.1032  0.2394
 3297TIP3    H131526   6.120   5.373   8.361  1.6946 -2.0124  0.4284
 3297TIP3    H231527   5.978   5.335   8.397  0.7645 -0.2054 -1.1144
 3298TIP3   OH231528   1.334   0.145   8.221 -0.3663 -0.5750  0.5409
 3298TIP3    H131529   1.262   0.119   8.163  0.7519 -0.8424 -0.7635
 3298TIP3    H231530   1.375   0.219   8.177 -0.2792  0.0730  1.6592
 3299TIP3   OH231531   3.744   5.236   1.617  0.7587 -0.3786 -0.1247
 3299TIP3    H131532   3.799   5.297   1.666  0.9306 -0.1099 -0.6358
 3299TIP3    H231533   3.750   5.267   1.526  0.0535 -0.5631 -0.2416
 3300TIP3   OH231534   5.382   3.082   3.004  0.3812 -0.8819 -0.2496
 3300TIP3    H131535   5.471   3.053   2.986  0.9227  0.2881  0.4033
 3300TIP3    H231536   5.378   3.090   3.099 -0.6411 -1.5422 -0.2183
 3301TIP3   OH231537   1.480   5.312   2.473 -0.2099 -0.0287  0.7076
 3301TIP3    H131538   1.431   5.385   2.513  0.7797  0.1343  1.6569
 3301TIP3    H231539   1.446   5.307   2.384 -0.1869  1.7209  0.5595
 3302TIP3   OH231540   2.457   6.080   1.008 -0.2571  1.1619  0.1108
 3302TIP3    H131541   2.480   6.171   1.026  0.4612  1.1246 -0.5807
 3302TIP3    H231542   2.365   6.083   0.983 -0.0388  1.7992 -0.6442
 3303TIP3   OH231543   0.637   3.368   8.479  0.9903 -0.3906  0.1160
 3303TIP3    H131544   0.638   3.337   8.570  0.1332 -0.3922  0.1331
 3303TIP3    H231545   0.722   3.411   8.468  1.6411 -1.5285  0.5101
 3304TIP3   OH231546   0.377   4.696   2.192  0.3235  0.3234  0.3520
 3304TIP3    H131547   0.368   4.611   2.149 -1.9208  1.6200 -2.0370
 3304TIP3    H231548   0.338   4.684   2.279  1.9090 -1.5449  0.8601
 3305TIP3   OH231549   3.913   5.311   0.319 -0.3842 -0.5733  0.1496
 3305TIP3    H131550   4.000   5.275   0.307  0.4630  0.7849  1.8056
 3305TIP3    H231551   3.853   5.242   0.291  1.2098 -1.3595 -1.4505
 3306TIP3   OH231552   0.503   1.754   8.510 -0.2731 -0.0571 -0.3168
 3306TIP3    H131553   0.444   1.693   8.465 -1.1927  0.7958 -0.3163
 3306TIP3    H231554   0.556   1.792   8.440 -1.6747  1.2378 -0.7393
 3307TIP3   OH231555   4.690   1.211   0.017 -0.0507 -0.6191 -0.2455
 3307TIP3    H131556   4.675   1.306   0.021  1.7014 -0.3490  2.3996
 3307TIP3    H231557   4.639   1.176   0.090 -3.0181 -2.2141 -2.8739
 3308TIP3   OH231558   5.413   0.711   1.380 -0.6056 -0.0078  0.7205
 3308TIP3    H131559   5.328   0.736   1.342  0.4465  0.5140 -1.4761
 3308TIP3    H231560   5.430   0.624   1.344  1.2601  1.2392 -1.7407
 3309TIP3   OH231561   4.765   1.938   0.836  0.5303 -0.1717  0.6006
 3309TIP3    H131562   4.715   1.955   0.757  0.5955  1.7786  0.9417
 3309TIP3    H231563   4.718   1.986   0.905  2.2584  0.8738  1.1120
 3310TIP3   OH231564   6.054   2.730   0.363 -0.1615 -0.0329 -0.2139
 3310TIP3    H131565   5.971   2.725   0.316  0.8907 -0.1123 -2.1203
 3310TIP3    H231566   6.112   2.780   0.306  1.6456 -1.5064  0.2177
 3311TIP3   OH231567   3.710   3.049   0.182  0.0825 -0.3694 -0.0278
 3311TIP3    H131568   3.637   2.988   0.176  0.6918 -1.0946 -0.2910
 3311TIP3    H231569   3.742   3.056   0.092  0.2436  0.0662  0.0600
 3312TIP3   OH231570   2.065   6.411   1.237 -0.0566 -0.3216  0.0253
 3312TIP3    H131571   2.097   6.322   1.251  1.2653 -0.1481 -1.5467
 3312TIP3    H231572   2.070   6.423   1.142  0.0747  1.5329  0.2306
 3313TIP3   OH231573   0.189   3.518   8.055 -0.3415  0.2846 -0.1496
 3313TIP3    H131574   0.278   3.519   8.091 -0.4136  0.5761  0.0222
 3313TIP3    H231575   0.142   3.455   8.109 -0.1656 -0.0921 -0.4263
 3314TIP3   OH231576   4.740   5.819   1.595 -0.1909  0.2076  0.1127
 3314TIP3    H131577   4.821   5.770   1.579 -1.6260 -2.2336 -0.1049
 3314TIP3    H231578   4.742   5.890   1.531  1.2905 -0.4158 -0.5802
 3315TIP3   OH231579   5.304   0.769   2.024  0.7684  0.0598 -0.9881
 3315TIP3    H131580   5.210   0.760   2.004  0.7616 -0.7314 -0.6599
 3315TIP3    H231581   5.310   0.849   2.076  0.5251  1.0898 -2.4798
 3316TIP3   OH231582   2.392   5.021   0.643 -0.6210  0.1204  0.3622
 3316TIP3    H131583   2.358   4.933   0.629  0.2363 -0.3157  0.9516
 3316TIP3    H231584   2.483   5.008   0.669 -0.6824  1.1465  1.1419
 3317TIP3   OH231585   1.484   0.753   8.804 -0.1034  0.4820 -0.2557
 3317TIP3    H131586   1.576   0.724   8.803 -0.1100  0.1604  2.2836
 3317TIP3    H231587   1.434   0.673   8.820 -0.8956  0.6249 -1.8102
 3318TIP3   OH231588   6.165   2.177   8.824 -0.0193  0.6264 -0.1545
 3318TIP3    H131589   6.230   2.244   8.848  0.9233 -1.0501  2.4631
 3318TIP3    H231590   6.201   2.096   8.860 -1.8119 -1.0508 -1.9682
 3319TIP3   OH231591   3.628   1.577   0.925 -0.7043  0.3864  0.0609
 3319TIP3    H131592   3.536   1.584   0.952 -1.2329  0.3499 -1.6420
 3319TIP3    H231593   3.625   1.530   0.843  0.9084 -0.0464  0.2309
 3320TIP3   OH231594   6.785   0.990   1.447 -0.8366  0.6378 -0.5218
 3320TIP3    H131595   6.772   1.076   1.486  0.7060  0.4803  0.4161
 3320TIP3    H231596   6.839   0.942   1.511 -0.5427 -0.5577 -1.6207
 3321TIP3   OH231597   1.657   4.800   1.300  0.4164 -0.1092 -0.2522
 3321TIP3    H131598   1.675   4.749   1.222  0.7678  0.1848 -0.3682
 3321TIP3    H231599   1.629   4.886   1.267 -2.1207 -0.7872 -0.1110
 3322TIP3   OH231600   3.899   1.665   0.938 -0.0275 -0.2531 -0.4440
 3322TIP3    H131601   3.889   1.736   1.001 -1.5665  0.1280 -1.0510
 3322TIP3    H231602   3.811   1.626   0.932  0.5098 -1.4328 -1.0212
 3323TIP3   OH231603   6.664   6.505   0.392 -0.1918 -0.0192  0.8219
 3323TIP3    H131604   6.670   6.514   0.297  0.4533  0.2043  0.8781
 3323TIP3    H231605   6.718   6.428   0.411  1.8140  1.4323  1.2556
 3324TIP3   OH231606   0.545   1.006   0.735 -0.1575 -0.4602  0.3057
 3324TIP3    H131607   0.488   1.025   0.661 -0.1357 -0.9991  0.1472
 3324TIP3    H231608   0.565   0.913   0.727  2.9350  0.2315 -1.1581
 3325TIP3   OH231609   4.802   6.374   0.386  0.0449 -0.1726 -0.1212
 3325TIP3    H131610   4.843   6.299   0.343 -0.0356 -0.7197  0.7404
 3325TIP3    H231611   4.855   6.449   0.359  2.4113 -0.9898  1.8511
 3326TIP3   OH231612   6.111   5.114   8.820  0.1115  0.1490  0.4369
 3326TIP3    H131613   6.189   5.151   8.779 -0.6024  0.6702 -0.5004
 3326TIP3    H231614   6.059   5.190   8.847  0.1996 -0.1919  1.5989
 3327TIP3   OH231615   3.948   6.819   8.518  0.2142  0.0321 -0.0435
 3327TIP3    H131616   3.992   6.904   8.517  1.7847 -0.7533  0.3152
 3327TIP3    H231617   3.991   6.769   8.450 -0.4337 -0.6233  0.0200
 3328TIP3   OH231618   5.033   2.575   3.176 -0.5390  0.2444  0.2340
 3328TIP3    H131619   5.098   2.511   3.147 -1.0124  0.2372 -0.8635
 3328TIP3    H231620   5.083   2.656   3.188 -0.1152 -0.0733  0.6362
 3329TIP3   OH231621   4.566   5.601   6.895 -0.1102  0.0399  0.4486
 3329TIP3    H131622   4.557   5.557   6.980 -1.2169  1.5762  1.1666
 3329TIP3    H231623   4.523   5.685   6.907  0.5996  0.7024 -1.3578
 3330TIP3   OH231624   1.475   4.293   7.632 -0.6297  0.0864 -0.0585
 3330TIP3    H131625   1.552   4.327   7.587  0.3181 -1.9280 -0.0870
 3330TIP3    H231626   1.420   4.370   7.648  1.7852  1.7363  0.8072
 3331TIP3   OH231627   6.640   1.076   7.969  0.0555  0.2278  0.1796
 3331TIP3    H131628   6.669   1.020   7.897 -0.0379 -0.9334  1.0219
 3331TIP3    H231629   6.610   1.015   8.037 -0.0139  1.2977  1.1424
 3332TIP3   OH231630   0.610   4.319   0.899 -0.5423  0.0671  0.3749
 3332TIP3    H131631   0.693   4.302   0.854 -1.2732 -0.8787 -0.6697
 3332TIP3    H231632   0.633   4.321   0.992  0.5906 -0.5701  0.1259
 3333TIP3   OH231633   0.027   1.888   0.583  0.3669  0.2078 -0.0278
 3333TIP3    H131634  -0.044   1.856   0.527 -0.1158  0.6953  0.3030
 3333TIP3    H231635   0.073   1.953   0.529  0.4082  0.0852 -0.1441
 3334TIP3   OH231636   0.903   6.805   1.950  0.8497  0.0123 -0.2999
 3334TIP3    H131637   0.983   6.754   1.935  0.9675  0.7333 -2.4107
 3334TIP3    H231638   0.857   6.804   1.866 -0.1215  1.6898  0.1617
 3335TIP3   OH231639   1.771   1.085   3.479 -0.4255  0.3687 -0.1703
 3335TIP3    H131640   1.753   1.021   3.410  1.8755 -1.0179  0.4293
 3335TIP3    H231641   1.767   1.170   3.433  1.7571 -0.5376 -2.2752
 3336TIP3   OH231642   4.086   6.700   2.423  0.3774 -0.0018  0.0030
 3336TIP3    H131643   4.104   6.675   2.514 -0.4977 -0.4099  0.0788
 3336TIP3    H231644   4.124   6.629   2.371 -0.9155 -0.8633  0.1635
 3337TIP3   OH231645   1.495   5.952   8.192  0.0384 -0.1709 -0.3048
 3337TIP3    H131646   1.566   5.927   8.251  0.4032  0.0782 -0.6343
 3337TIP3    H231647   1.430   5.993   8.249  0.9471  1.2279 -0.2434
 3338TIP3   OH231648   4.877   5.590   1.755 -0.3013  0.7727  0.8240
 3338TIP3    H131649   4.941   5.650   1.716  1.4774 -0.9042  1.0206
 3338TIP3    H231650   4.861   5.624   1.843  0.6636  0.9745  0.9245
 3339TIP3   OH231651   2.632   4.929   7.625  0.5541 -0.3792  0.4705
 3339TIP3    H131652   2.650   5.021   7.645 -0.0137  0.1528 -1.2690
 3339TIP3    H231653   2.540   4.917   7.645 -0.7274  0.8586 -3.7755
 3340TIP3   OH231654   5.015   2.198   0.610 -0.0608  0.4028  0.3896
 3340TIP3    H131655   4.994   2.145   0.687 -0.8336 -0.4262 -0.3622
 3340TIP3    H231656   4.995   2.288   0.636  0.3665  0.2137  1.3818
 3341TIP3   OH231657   3.174   4.615   1.837 -0.6100 -0.3840  0.0145
 3341TIP3    H131658   3.100   4.554   1.845 -0.4722 -0.3777  1.5390
 3341TIP3    H231659   3.190   4.646   1.926 -1.2156  2.5514 -0.7737
 3342TIP3   OH231660   1.264   6.209   0.821  0.7225  0.0363  0.5073
 3342TIP3    H131661   1.187   6.266   0.832 -0.6889 -1.7636  0.5115
 3342TIP3    H231662   1.284   6.214   0.728  0.9071  0.8944  0.5901
 3343TIP3   OH231663   4.206   1.808   0.060 -0.1333  0.2353 -0.5956
 3343TIP3    H131664   4.132   1.769   0.107  0.1494  0.3130 -0.0794
 3343TIP3    H231665   4.175   1.817  -0.030 -0.1671 -1.2800 -0.7475
 3344TIP3   OH231666   2.883   2.650   0.822 -0.9608 -0.2769 -0.0814
 3344TIP3    H131667   2.840   2.712   0.762 -0.6350 -0.6444 -0.6924
 3344TIP3    H231668   2.971   2.638   0.786 -1.3202 -1.8289 -0.5155
 3345TIP3   OH231669   4.099   3.664   0.427 -0.6984  0.4964 -0.4520
 3345TIP3    H131670   4.186   3.641   0.460 -0.8821 -0.6672 -0.7332
 3345TIP3    H231671   4.110   3.750   0.388 -0.0074  1.0136  0.8001
 3346TIP3   OH231672   0.980   0.034   1.387 -0.1000  0.2617 -0.1893
 3346TIP3    H131673   1.045   0.053   1.455 -0.0753  0.8334 -0.3628
 3346TIP3    H231674   1.011  -0.047   1.346 -1.3647 -1.4333  2.0009
 3347TIP3   OH231675   3.724   3.680   0.700  1.0219 -0.0458  0.3040
 3347TIP3    H131676   3.666   3.755   0.691 -0.8244 -1.5000 -0.5814
 3347TIP3    H231677   3.732   3.644   0.612  1.0155 -1.4854  0.8573
 3348TIP3   OH231678   4.313   4.369   2.553 -0.0199 -0.5143 -0.0455
 3348TIP3    H131679   4.224   4.384   2.521 -0.1374 -0.5540  0.2637
 3348TIP3    H231680   4.349   4.457   2.567 -1.0024 -0.4354  2.6029
 3349TIP3   OH231681   1.945   5.807   8.419  0.0082  0.1772 -0.1161
 3349TIP3    H131682   2.016   5.813   8.483 -0.2113 -2.5765  0.4868
 3349TIP3    H231683   1.989   5.819   8.334  1.0807 -0.6807  0.2904
 3350TIP3   OH231684   1.183   0.784   2.578  0.3167  0.1406  0.5311
 3350TIP3    H131685   1.128   0.709   2.556  0.0324  0.3783  0.4267
 3350TIP3    H231686   1.156   0.852   2.517  0.3489  0.4309  0.8379
 3351TIP3   OH231687   2.657   4.345   0.335  0.2202  0.1825 -0.4200
 3351TIP3    H131688   2.589   4.363   0.271  1.0691 -0.1285 -1.4455
 3351TIP3    H231689   2.610   4.316   0.413 -0.8729  1.2408 -0.6515
 3352TIP3   OH231690   0.398   2.689   1.804  0.0825 -0.0079  0.2710
 3352TIP3    H131691   0.477   2.741   1.787  0.0134 -0.4474 -1.6336
 3352TIP3    H231692   0.344   2.745   1.859  0.3329  1.6691 -1.0996
 3353TIP3   OH231693   1.203   0.202   3.353 -0.0938  0.4418  0.4103
 3353TIP3    H131694   1.130   0.143   3.369  0.5689 -0.1245  1.5057
 3353TIP3    H231695   1.273   0.170   3.411  0.9660  1.0550 -0.4845
 3354TIP3   OH231696   3.172   3.007   8.737  0.1854  0.2394  0.3542
 3354TIP3    H131697   3.142   3.039   8.652 -0.6978 -0.3461  0.4412
 3354TIP3    H231698   3.181   3.086   8.790 -0.7912  0.4666  0.1995
 3355TIP3   OH231699   0.299   4.501   0.040 -0.4517 -0.7599  0.0143
 3355TIP3    H131700   0.341   4.416   0.028  0.5500 -0.3265  0.3569
 3355TIP3    H231701   0.234   4.487   0.109  0.4426 -1.0114  0.8285
 3356TIP3   OH231702   0.334   4.147   0.292  0.2523 -0.2294  0.0342
 3356TIP3    H131703   0.245   4.138   0.259 -0.3237 -1.2682  1.7688
 3356TIP3    H231704   0.384   4.080   0.246  0.2873  0.6789 -1.3103
 3357TIP3   OH231705   3.933   3.536   8.237 -0.4933  0.6524  0.3092
 3357TIP3    H131706   4.003   3.584   8.192 -1.2541  0.7896 -0.7598
 3357TIP3    H231707   3.932   3.450   8.195 -0.2608  0.2661  1.0659
 3358TIP3   OH231708   6.729   5.217   0.633  0.8228 -0.1149  0.0045
 3358TIP3    H131709   6.700   5.291   0.687  0.9296  0.3086 -0.5073
 3358TIP3    H231710   6.730   5.143   0.693 -3.6987 -0.7495 -0.3584
 3359TIP3   OH231711   1.233   0.278   0.777  0.1792  0.1507  0.6984
 3359TIP3    H131712   1.315   0.231   0.761  0.2591  0.5734 -0.2185
 3359TIP3    H231713   1.218   0.328   0.696  0.2643  1.9540  1.7340
 3360TIP3   OH231714   2.342   4.446   1.742  0.2809 -0.2007 -0.0611
 3360TIP3    H131715   2.307   4.437   1.831  0.2498 -1.6663 -0.2071
 3360TIP3    H231716   2.339   4.541   1.725  0.1053  0.0832  1.4146
 3361TIP3   OH231717   0.582   3.447   7.801  0.5568  0.2193  0.2522
 3361TIP3    H131718   0.672   3.429   7.827  0.3410  0.1396  0.9464
 3361TIP3    H231719   0.587   3.458   7.706  0.7191 -3.4563 -0.3169
 3362TIP3   OH231720   4.269   6.571   3.613  0.0555  0.7726  0.0629
 3362TIP3    H131721   4.279   6.582   3.519  0.6185  1.3811  0.1879
 3362TIP3    H231722   4.197   6.630   3.636 -2.5557 -1.9475 -0.4898
 3363TIP3   OH231723   0.785   4.804   2.937  0.0197  0.7754 -0.2123
 3363TIP3    H131724   0.802   4.753   3.016 -1.6924 -0.2108 -0.4256
 3363TIP3    H231725   0.871   4.815   2.896  0.8516  0.8375  1.4867
 3364TIP3   OH231726   6.308   6.389   0.231 -0.5933  0.5652 -0.0523
 3364TIP3    H131727   6.327   6.359   0.320 -2.3234  1.3258  0.6035
 3364TIP3    H231728   6.235   6.335   0.202  1.1240 -0.9605 -1.7733
 3365TIP3   OH231729   3.423   6.331   2.271  0.6403 -0.0711  0.4996
 3365TIP3    H131730   3.479   6.325   2.349  0.2798 -1.2839  0.6925
 3365TIP3    H231731   3.357   6.397   2.293 -0.6008 -1.7155  2.0071
 3366TIP3   OH231732   1.661   3.092   1.130  0.0894  0.1013 -0.1628
 3366TIP3    H131733   1.677   3.185   1.118 -0.3120  0.5998  2.4270
 3366TIP3    H231734   1.573   3.088   1.167  0.7284 -1.1060  1.3529
 3367TIP3   OH231735   0.115   6.186   8.718 -0.2323  0.1353 -0.3861
 3367TIP3    H131736   0.103   6.263   8.774 -1.7510  0.3140 -0.9069
 3367TIP3    H231737   0.058   6.120   8.756  0.6868 -0.5939 -0.2401
 3368TIP3   OH231738   5.267   2.581   2.384 -0.1784  0.0454  0.1439
 3368TIP3    H131739   5.201   2.533   2.433 -0.0217  0.7858  1.1018
 3368TIP3    H231740   5.286   2.658   2.438  0.8164  0.2965 -0.5405
 3369TIP3   OH231741   6.566   4.022   2.455  0.5263  0.1454  0.2708
 3369TIP3    H131742   6.475   4.004   2.431  0.4279  1.5077 -0.4540
 3369TIP3    H231743   6.577   3.982   2.541 -0.7413 -0.0389  0.3590
 3370TIP3   OH231744   5.957   1.410   7.885  0.3159  0.3109  0.5383
 3370TIP3    H131745   6.017   1.389   7.814 -0.3697  3.3844 -1.1593
 3370TIP3    H231746   5.983   1.498   7.914 -2.8458  1.5614  0.0902
 3371TIP3   OH231747   0.293   2.052   2.574  0.8081  0.3502  0.3746
 3371TIP3    H131748   0.209   2.042   2.617  0.9306 -1.5540  0.2290
 3371TIP3    H231749   0.285   2.005   2.492  1.6216  1.2147 -0.2297
 3372TIP3   OH231750   5.153   3.573   7.140  0.7033 -0.1750  0.0760
 3372TIP3    H131751   5.226   3.619   7.099  0.7356 -0.3237 -0.0341
 3372TIP3    H231752   5.181   3.481   7.141 -0.6066 -0.6747 -2.4394
 3373TIP3   OH231753   3.905   1.619   2.263 -0.5690  0.2957 -0.2700
 3373TIP3    H131754   3.932   1.549   2.203  1.3155 -0.4586  1.3553
 3373TIP3    H231755   3.954   1.696   2.234  1.2334 -0.3497  0.9112
 3374TIP3   OH231756   1.736   3.894   8.539 -0.0277  0.0407 -0.1703
 3374TIP3    H131757   1.817   3.922   8.497  0.3756  0.0959  0.6160
 3374TIP3    H231758   1.762   3.873   8.629 -0.8657 -0.0376  0.0622
 3375TIP3   OH231759   4.095   6.170   0.637 -0.5613  0.1330  0.2437
 3375TIP3    H131760   4.157   6.097   0.632  0.9956  1.4594 -0.4233
 3375TIP3    H231761   4.091   6.191   0.731  0.2232  0.2104  0.2681
 3376TIP3   OH231762   5.680   5.899   3.572 -0.3717  0.5751  0.3166
 3376TIP3    H131763   5.605   5.954   3.594  0.1836  1.4495  0.0825
 3376TIP3    H231764   5.744   5.960   3.535  1.1229  0.1589  2.0615
 3377TIP3   OH231765   1.648   2.384   1.588 -0.0003 -0.1486  0.2785
 3377TIP3    H131766   1.571   2.330   1.573 -0.1270 -0.1627  0.9332
 3377TIP3    H231767   1.667   2.424   1.503  0.2228 -1.3887 -0.2736
 3378TIP3   OH231768   6.600   4.567   7.592 -0.3821 -0.2895 -0.2603
 3378TIP3    H131769   6.539   4.540   7.524 -0.0113  0.2399 -0.8137
 3378TIP3    H231770   6.572   4.656   7.615  0.6947  0.3128 -1.1560
 3379TIP3   OH231771   4.596   0.900   8.376 -0.6784  0.6753 -0.2058
 3379TIP3    H131772   4.642   0.955   8.313  0.2503  2.3815  1.8121
 3379TIP3    H231773   4.594   0.952   8.456 -0.9676 -1.7172  1.4663
 3380TIP3   OH231774   4.363   4.219   7.073 -0.0980 -0.0253  0.1195
 3380TIP3    H131775   4.384   4.241   6.982  1.1826 -1.0278  0.1302
 3380TIP3    H231776   4.443   4.177   7.106  0.4230  2.4864  2.4711
 3381TIP3   OH231777   0.076   3.764   7.996 -0.6849  0.0580  0.5774
 3381TIP3    H131778   0.114   3.683   8.028 -0.9017  0.3173  1.5376
 3381TIP3    H231779  -0.018   3.747   7.992 -0.7148  0.2005  0.6318
 3382TIP3   OH231780   4.369   1.323   7.999 -0.0026 -0.2543  0.0743
 3382TIP3    H131781   4.285   1.368   7.991  0.8633  1.5891  0.8020
 3382TIP3    H231782   4.348   1.242   8.046 -1.2623  0.5373  0.9384
 3383TIP3   OH231783   5.929   4.474   2.870  0.3172 -0.0741 -0.2039
 3383TIP3    H131784   5.901   4.559   2.902  1.1328  0.4395 -0.8376
 3383TIP3    H231785   6.013   4.458   2.913  0.5607 -0.1853 -0.7226
 3384TIP3   OH231786   4.270   0.312   3.353 -0.1715  0.2427 -0.6403
 3384TIP3    H131787   4.243   0.249   3.420  1.3780  1.0064  0.7548
 3384TIP3    H231788   4.365   0.303   3.348  0.0386  2.0944 -0.7743
 3385TIP3   OH231789   0.977   4.238   2.663 -0.2017  0.1135  0.2167
 3385TIP3    H131790   0.903   4.293   2.637  0.1890  0.0881 -1.0427
 3385TIP3    H231791   0.975   4.238   2.759 -1.3801  0.7129  0.2083
 3386TIP3   OH231792   5.700   4.757   2.094 -0.3091  0.4093  0.0351
 3386TIP3    H131793   5.715   4.682   2.036 -2.9405 -0.5036  0.3953
 3386TIP3    H231794   5.746   4.735   2.175  0.7142  0.1925 -0.5990
 3387TIP3   OH231795   0.865   1.633   8.549  0.4648 -0.2501  0.7833
 3387TIP3    H131796   0.865   1.605   8.457  0.3175 -0.1741  0.7604
 3387TIP3    H231797   0.958   1.631   8.574  0.4296 -1.0516  0.8672
 3388TIP3   OH231798   3.772   6.012   8.284  0.6108  0.7249 -0.0928
 3388TIP3    H131799   3.759   6.105   8.303 -0.8156  1.0999 -2.4782
 3388TIP3    H231800   3.857   5.991   8.323 -0.8971  1.8276  4.3361
 3389TIP3   OH231801   5.392   5.397   2.673 -0.2256 -0.3988  0.4608
 3389TIP3    H131802   5.423   5.476   2.718 -1.9577 -0.5383  2.0364
 3389TIP3    H231803   5.297   5.399   2.686 -0.5671 -1.5387 -1.5176
 3390TIP3   OH231804   0.391   4.969   0.784  0.3341 -0.1258  0.1694
 3390TIP3    H131805   0.485   4.981   0.771  0.5804 -1.3731  0.6145
 3390TIP3    H231806   0.355   4.957   0.696  0.7777 -0.7826  0.0743
 3391TIP3   OH231807   0.498   6.688   1.881  0.0548 -0.0869  0.1261
 3391TIP3    H131808   0.518   6.668   1.973 -0.4850  0.8292  0.4574
 3391TIP3    H231809   0.439   6.618   1.854 -1.3985  0.7061  1.1076
 3392TIP3   OH231810   2.227   6.333   0.330  0.3667 -0.0093  0.1608
 3392TIP3    H131811   2.203   6.279   0.406 -0.4387  0.9851  0.6346
 3392TIP3    H231812   2.144   6.351   0.286  0.4285  1.8235  0.7002
 3393TIP3   OH231813   4.949   6.535   2.504  0.6240 -0.4205  0.3359
 3393TIP3    H131814   4.889   6.564   2.573  1.1385  0.9197  0.2457
 3393TIP3    H231815   4.901   6.465   2.459 -1.9523  2.1089 -1.2307
 3394TIP3   OH231816   1.768   0.538   8.463  0.8077  0.0460 -0.6535
 3394TIP3    H131817   1.772   0.506   8.553 -1.0442  1.6444  0.0539
 3394TIP3    H231818   1.806   0.467   8.411  0.3070 -1.6616  1.1983
 3395TIP3   OH231819   2.857   2.946   8.815  0.1946 -0.0758  0.2690
 3395TIP3    H131820   2.942   2.910   8.792  0.0865 -0.3489  0.3012
 3395TIP3    H231821   2.796   2.873   8.806  0.4285 -0.8488  3.5702
 3396TIP3   OH231822   0.643   5.182   8.318 -0.1073 -0.2030  0.2906
 3396TIP3    H131823   0.733   5.176   8.351 -0.3686 -1.7663  0.7730
 3396TIP3    H231824   0.637   5.271   8.282  1.2039  0.4021  1.4802
 3397TIP3   OH231825   3.510   0.951   1.700 -0.3422 -0.1812  0.1993
 3397TIP3    H131826   3.507   0.900   1.781  1.8518 -0.5632  0.0973
 3397TIP3    H231827   3.511   1.042   1.729  0.4188 -0.3140  0.6167
 3398TIP3   OH231828   4.627   2.563   7.705 -0.1648  0.6463  0.6395
 3398TIP3    H131829   4.588   2.504   7.640  2.3998  0.2414 -0.6505
 3398TIP3    H231830   4.620   2.514   7.788  0.2645 -0.6893 -0.0843
 3399TIP3   OH231831   6.786   0.372   0.653  0.5299  0.2157 -0.1420
 3399TIP3    H131832   6.788   0.449   0.597 -2.3236  0.7632  0.3896
 3399TIP3    H231833   6.738   0.306   0.602 -0.7343  0.2100  1.0036
 3400TIP3   OH231834   4.716   4.763   1.708  0.0284  0.2782  0.1489
 3400TIP3    H131835   4.675   4.841   1.747 -2.9871 -1.0863 -0.0339
 3400TIP3    H231836   4.643   4.707   1.683  2.0570 -2.6010  0.1424
 3401TIP3   OH231837   4.255   4.455   8.663 -0.5279 -0.8417 -0.3149
 3401TIP3    H131838   4.160   4.466   8.665 -0.5300 -0.8593 -0.3102
 3401TIP3    H231839   4.269   4.377   8.609 -0.4280  0.2029 -1.8767
 3402TIP3   OH231840   6.518   5.950   0.849 -0.2298 -0.1225  0.0804
 3402TIP3    H131841   6.449   5.890   0.820 -1.5008  0.3463  1.9562
 3402TIP3    H231842   6.502   5.960   0.943  2.5969 -0.2209  0.6497
 3403TIP3   OH231843   3.708   1.774   6.931  0.2883 -0.3708  0.4380
 3403TIP3    H131844   3.658   1.837   6.982 -2.2313 -1.2590 -0.7620
 3403TIP3    H231845   3.771   1.737   6.993  0.4352  1.7874  1.6704
 3404TIP3   OH231846   4.196   6.199   7.448  0.1333 -0.3236 -0.1236
 3404TIP3    H131847   4.145   6.118   7.446 -0.1742 -0.1255 -0.3872
 3404TIP3    H231848   4.252   6.194   7.370  1.2434 -1.0027  0.7009
 3405TIP3   OH231849   4.052   1.307   1.063  0.0679  0.6717  0.0851
 3405TIP3    H131850   4.105   1.239   1.021 -0.2509  0.9271 -0.7565
 3405TIP3    H231851   3.975   1.262   1.096  0.3672  0.4513  0.4852
 3406TIP3   OH231852   6.613   1.614   0.869  0.1981  0.2542  0.3400
 3406TIP3    H131853   6.627   1.705   0.844  0.6875  0.9369  2.8374
 3406TIP3    H231854   6.518   1.607   0.880 -0.0339 -0.0687 -1.5142
 3407TIP3   OH231855   6.186   0.229   0.930  0.2175  0.0470  0.2542
 3407TIP3    H131856   6.233   0.160   0.882 -1.0833 -0.2057 -0.7195
 3407TIP3    H231857   6.182   0.302   0.868  0.0169  0.3484  0.6191
 3408TIP3   OH231858   2.706   2.494   2.576 -0.4023 -0.1912  0.0804
 3408TIP3    H131859   2.754   2.419   2.611 -0.0247 -1.5205 -2.9742
 3408TIP3    H231860   2.772   2.544   2.527 -1.2875  0.3686 -0.5766
 3409TIP3   OH231861   1.878   2.888   0.647 -0.1547  0.1794 -0.4954
 3409TIP3    H131862   1.864   2.972   0.602 -0.1567 -0.0741 -0.9818
 3409TIP3    H231863   1.814   2.829   0.606 -0.0606 -0.0910 -0.2498
 3410TIP3   OH231864   2.693   2.155   7.999 -0.1100  0.0462  0.2146
 3410TIP3    H131865   2.762   2.114   7.947 -0.4136  1.1002 -1.0799
 3410TIP3    H231866   2.621   2.170   7.937 -1.6834 -1.3559  1.6004
 3411TIP3   OH231867   6.176   3.063   1.170  0.3082 -0.6459 -0.1547
 3411TIP3    H131868   6.129   3.146   1.171  0.3390 -0.6169 -0.6768
 3411TIP3    H231869   6.200   3.050   1.078 -0.9820 -1.9484 -0.3360
 3412TIP3   OH231870   5.253   3.351   8.480 -0.4585  0.5696  0.0401
 3412TIP3    H131871   5.332   3.354   8.534 -1.1815  0.3620  1.1647
 3412TIP3    H231872   5.283   3.331   8.392  0.6176 -1.0313  0.7308
 3413TIP3   OH231873   0.021   1.945   8.335  0.2175  0.0939 -0.5687
 3413TIP3    H131874   0.037   1.858   8.297  0.5571 -0.9169  1.7272
 3413TIP3    H231875  -0.016   1.927   8.422  1.1549  2.2389  0.3432
 3414TIP3   OH231876   0.138   3.877   2.871  0.5975 -0.3850 -0.4945
 3414TIP3    H131877   0.189   3.841   2.944 -0.5785  0.0807  0.5823
 3414TIP3    H231878   0.047   3.860   2.894  0.1223  1.2451 -1.0632
 3415TIP3   OH231879   4.069   2.640   8.702 -0.7258 -0.2448  0.0488
 3415TIP3    H131880   4.065   2.734   8.688  0.1627 -0.1459  0.4001
 3415TIP3    H231881   4.108   2.606   8.621 -1.0522 -0.3126 -0.0807
 3416TIP3   OH231882   3.056   4.219   7.839  0.0552 -0.5918  0.3343
 3416TIP3    H131883   3.051   4.287   7.772  0.9269  0.1618  1.0009
 3416TIP3    H231884   3.078   4.267   7.919  1.6890 -1.7424  0.6284
 3417TIP3   OH231885   1.333   0.898   0.526  0.1148  0.4290 -0.3063
 3417TIP3    H131886   1.324   0.875   0.618 -0.0748 -1.7171 -0.7991
 3417TIP3    H231887   1.427   0.908   0.512  0.5793 -3.0576 -0.6044
 3418TIP3   OH231888   2.736   2.327   0.207  0.3984 -0.4959  0.4093
 3418TIP3    H131889   2.758   2.296   0.119 -0.9717  0.4738 -0.3227
 3418TIP3    H231890   2.651   2.371   0.196  0.3143 -0.1448  2.1774
 3419TIP3   OH231891   6.303   1.902   0.191  0.6649 -0.2884  0.4218
 3419TIP3    H131892   6.260   1.836   0.136  1.0140  1.3550 -1.9843
 3419TIP3    H231893   6.235   1.932   0.251 -0.8949  0.4309 -1.5971
 3420TIP3   OH231894   1.126   0.048   2.702  0.1844  0.1130  0.2146
 3420TIP3    H131895   1.078   0.106   2.644  0.4249  2.0147  1.8069
 3420TIP3    H231896   1.201   0.019   2.650  0.6248  2.0902 -0.3505
 3421TIP3   OH231897   1.311   3.308   8.808  0.1592  0.0646  0.8154
 3421TIP3    H131898   1.287   3.350   8.725  0.6769  1.3420  1.2901
 3421TIP3    H231899   1.406   3.296   8.802  0.1904  0.1065  1.1901
 3422TIP3   OH231900   4.046   5.083   1.418 -0.0281  0.2653 -0.2467
 3422TIP3    H131901   4.126   5.038   1.393 -0.3682 -1.2640  1.2552
 3422TIP3    H231902   4.061   5.110   1.508  0.5450  4.1926 -1.2997
 3423TIP3   OH231903   4.127   2.222   1.059  0.1939  0.6346  0.3834
 3423TIP3    H131904   4.128   2.313   1.029  1.8111  1.1823  1.8827
 3423TIP3    H231905   4.081   2.226   1.143  0.9572  0.2221  0.8299
 3424TIP3   OH231906   2.598   3.086   1.819 -0.0409 -0.2740  0.1638
 3424TIP3    H131907   2.553   3.011   1.778  0.6327 -0.0010 -1.1339
 3424TIP3    H231908   2.688   3.056   1.830  0.3786  0.5423 -0.9318
 3425TIP3   OH231909   1.278   5.684   8.717  0.0305 -0.0062  0.2318
 3425TIP3    H131910   1.371   5.674   8.740 -0.0192 -0.9581  0.0921
 3425TIP3    H231911   1.232   5.679   8.801  0.0862  0.0965  0.2677
 3426TIP3   OH231912   0.163   1.741   2.096 -0.0889 -0.4438  0.0381
 3426TIP3    H131913   0.235   1.733   2.159 -1.6250 -2.4873  1.6767
 3426TIP3    H231914   0.176   1.668   2.035  0.3013  0.3869 -0.9149
 3427TIP3   OH231915   4.945   0.530   2.990 -0.1313 -0.2850  0.2137
 3427TIP3    H131916   4.953   0.622   2.965  1.2059 -0.8206 -1.5815
 3427TIP3    H231917   5.010   0.517   3.059 -0.5958  0.1821  0.7475
 3428TIP3   OH231918   4.018   6.373   2.606 -0.0228 -0.2902  0.0404
 3428TIP3    H131919   4.111   6.364   2.587  0.6008  2.0812  1.5933
 3428TIP3    H231920   4.006   6.327   2.689  0.1795  0.8913  0.7459
 3429TIP3   OH231921   3.245   3.478   7.658 -0.5198 -0.4322  0.4321
 3429TIP3    H131922   3.224   3.387   7.636  0.0806 -0.1465 -1.4897
 3429TIP3    H231923   3.298   3.509   7.585 -2.5251  2.1447 -0.0582
 3430TIP3   OH231924   1.374   2.838   0.372  0.6333  0.2730 -0.0780
 3430TIP3    H131925   1.371   2.746   0.347 -2.0119  0.1592  0.4206
 3430TIP3    H231926   1.421   2.881   0.300  0.7487 -1.2690 -0.9534
 3431TIP3   OH231927   0.872   1.758   2.793 -0.1457  0.4505  0.0833
 3431TIP3    H131928   0.835   1.762   2.881  0.5468  2.3712  0.3287
 3431TIP3    H231929   0.955   1.710   2.805  0.8877  2.3429  0.8747
 3432TIP3   OH231930   6.072   6.245   1.156 -0.5281  0.2509  0.2854
 3432TIP3    H131931   6.006   6.176   1.144 -1.9717  1.3489  1.4784
 3432TIP3    H231932   6.065   6.298   1.077 -0.9988  0.2848  0.3436
 3433TIP3   OH231933   2.975   2.299   0.428  0.3079 -0.6396  0.4545
 3433TIP3    H131934   2.896   2.290   0.375  0.7305  0.0344 -0.3048
 3433TIP3    H231935   2.982   2.216   0.475 -1.3333 -0.3784  1.2256
 3434TIP3   OH231936   5.367   4.732   1.366  0.7757 -0.3738  0.4044
 3434TIP3    H131937   5.300   4.681   1.410  0.6643 -0.7303 -0.1696
 3434TIP3    H231938   5.370   4.697   1.277  3.1308 -1.7759  0.9465
 3435TIP3   OH231939   3.992   5.635   2.805  0.2932 -0.0800 -0.4824
 3435TIP3    H131940   3.909   5.614   2.763 -0.1852  0.5943  0.0910
 3435TIP3    H231941   4.052   5.653   2.732 -0.1533 -0.2448 -0.8974
 3436TIP3   OH231942   5.874   4.217   1.905 -0.5566 -0.4333  0.1119
 3436TIP3    H131943   5.961   4.235   1.943 -0.0778 -1.0427 -0.6689
 3436TIP3    H231944   5.889   4.144   1.845 -0.7849  1.7850 -2.9302
 3437TIP3   OH231945   1.932   1.104   0.644  0.3609 -0.6355 -0.5124
 3437TIP3    H131946   2.005   1.164   0.627  1.6088 -2.0723 -0.4297
 3437TIP3    H231947   1.924   1.101   0.739 -0.0276 -0.2422 -0.5286
 3438TIP3   OH231948   5.072   3.337   1.566  0.1631  0.6998 -0.2195
 3438TIP3    H131949   4.987   3.304   1.596 -1.1347  1.8225 -2.4346
 3438TIP3    H231950   5.132   3.316   1.638 -1.8056 -0.8131  1.0998
 3439TIP3   OH231951   2.365   2.824   7.447  0.0827 -0.3882 -0.5034
 3439TIP3    H131952   2.428   2.815   7.375  0.5415  0.6683 -0.2568
 3439TIP3    H231953   2.407   2.886   7.508 -1.4801  0.9029 -0.6779
 3440TIP3   OH231954   2.464   4.731   7.759 -0.7098 -0.1382 -0.2803
 3440TIP3    H131955   2.491   4.779   7.838 -0.7080 -1.0694  0.3013
 3440TIP3    H231956   2.368   4.741   7.757 -0.5307  1.8274 -1.4646
 3441TIP3   OH231957   5.441   2.134   2.007 -0.2045 -0.1072  0.0671
 3441TIP3    H131958   5.425   2.116   2.100  0.5164  2.7187  0.8249
 3441TIP3    H231959   5.526   2.092   1.990  0.3366  0.5046  1.0994
 3442TIP3   OH231960   2.581   2.917   2.543  0.6436 -0.0410 -0.5218
 3442TIP3    H131961   2.658   2.940   2.594  0.6913  3.3267 -1.8247
 3442TIP3    H231962   2.512   2.975   2.576 -0.8894 -1.7382 -0.5661
 3443TIP3   OH231963   0.666   2.576   8.436 -0.2904 -0.0113  0.6577
 3443TIP3    H131964   0.571   2.572   8.446 -0.1333 -0.2045  2.1837
 3443TIP3    H231965   0.683   2.664   8.402 -1.0842 -0.4001 -0.8481
 3444TIP3   OH231966   3.709   2.987   8.698 -0.4748 -0.7225  0.5520
 3444TIP3    H131967   3.751   3.073   8.707 -0.4529 -0.4905 -1.4623
 3444TIP3    H231968   3.615   3.006   8.707 -0.6234 -0.1519 -1.7232
 3445TIP3   OH231969   4.687   5.285   8.311  0.3294 -0.7690 -0.0532
 3445TIP3    H131970   4.739   5.357   8.348  1.2840  1.1000 -4.3402
 3445TIP3    H231971   4.606   5.327   8.283 -0.3382 -2.0455 -0.0760
 3446TIP3   OH231972   2.602   5.159   2.105 -0.0369  0.2204  0.0537
 3446TIP3    H131973   2.597   5.146   2.010  0.8366 -0.5865  0.1093
 3446TIP3    H231974   2.598   5.254   2.116  0.0402  0.3339 -0.8017
 3447TIP3   OH231975   3.683   4.007   0.734  0.3613 -0.1065  0.1870
 3447TIP3    H131976   3.682   4.073   0.804  0.0913  0.0469  0.0367
 3447TIP3    H231977   3.773   4.009   0.701  0.5236 -0.2657  0.6129
 3448TIP3   OH231978   4.623   6.305   8.277  0.0281 -0.1903 -0.4109
 3448TIP3    H131979   4.606   6.307   8.371 -0.0408  0.4639 -0.4345
 3448TIP3    H231980   4.681   6.379   8.261  0.0904 -0.3349 -0.8778
 3449TIP3   OH231981   0.550   6.238   8.214  0.2248  0.0476 -0.0218
 3449TIP3    H131982   0.601   6.181   8.156  0.8993 -0.3650  0.9354
 3449TIP3    H231983   0.590   6.324   8.203 -0.4802  0.2450 -1.1112
 3450TIP3   OH231984   6.322   3.929   0.690  0.6165 -0.0109  0.0041
 3450TIP3    H131985   6.329   4.022   0.711  0.0312  0.4951 -1.8460
 3450TIP3    H231986   6.330   3.885   0.774 -3.3217  1.8596  1.6216
 3451TIP3   OH231987   1.799   6.371   7.845  0.0699  0.4323 -0.2620
 3451TIP3    H131988   1.760   6.288   7.874  1.1265 -0.5482 -1.4995
 3451TIP3    H231989   1.887   6.347   7.816 -0.0414  1.7554 -1.8608
 3452TIP3   OH231990   4.274   4.353   1.449  0.1631  0.2538 -0.0153
 3452TIP3    H131991   4.359   4.313   1.433 -0.4131 -1.0506  0.0527
 3452TIP3    H231992   4.223   4.335   1.370 -1.0685 -1.8682  1.1387
 3453TIP3   OH231993   2.978   1.174   0.802 -0.1852  0.3151  0.4326
 3453TIP3    H131994   2.994   1.080   0.792 -1.4104  0.2569 -1.5570
 3453TIP3    H231995   2.996   1.192   0.894  0.2474 -1.8268  0.8205
 3454TIP3   OH231996   4.495   6.373   3.585  0.0938 -0.6131  0.1410
 3454TIP3    H131997   4.555   6.444   3.562  0.0424 -0.2147  1.1658
 3454TIP3    H231998   4.411   6.418   3.602 -0.2525 -1.0564 -0.3824
 3455TIP3   OH231999   4.288   4.092   2.052 -0.0406 -0.3055  0.0185
 3455TIP3    H132000   4.327   4.058   1.971  0.9129 -0.3457  0.4709
 3455TIP3    H232001   4.292   4.018   2.113 -0.4198 -0.1721  0.2082
 3456TIP3   OH232002   5.425   1.797   1.093 -0.1464 -0.4422  0.2211
 3456TIP3    H132003   5.430   1.891   1.074  1.3669 -0.1264  1.9758
 3456TIP3    H232004   5.489   1.758   1.034 -0.5522 -0.3604 -0.2875
 3457TIP3   OH232005   2.216   3.346   8.353 -0.2452 -0.2661  0.0590
 3457TIP3    H132006   2.298   3.342   8.303 -0.7831  0.3294 -0.8984
 3457TIP3    H232007   2.230   3.415   8.417  0.8359 -1.7321  1.4922
 3458TIP3   OH232008   2.331   6.384   0.702 -0.5420 -0.4180 -0.2905
 3458TIP3    H132009   2.300   6.296   0.725  1.8951 -0.9888  1.1548
 3458TIP3    H232010   2.426   6.374   0.694 -0.4386  1.5973 -2.6010
 3459TIP3   OH232011   6.703   3.513   2.094  0.1988 -0.4044  0.0784
 3459TIP3    H132012   6.778   3.546   2.144  0.1607  0.0263 -0.1404
 3459TIP3    H232013   6.725   3.532   2.003 -0.8429  1.1690  0.1064
 3460TIP3   OH232014   5.326   2.831   0.383  0.2485 -0.5046  0.1691
 3460TIP3    H132015   5.258   2.859   0.444  1.1356  1.0017  0.5286
 3460TIP3    H232016   5.376   2.911   0.364  2.1539 -1.6147  0.2138
 3461TIP3   OH232017   3.986   3.430   2.130  0.6522 -0.4166 -0.0761
 3461TIP3    H132018   4.014   3.450   2.040  0.6741 -1.7516 -0.3939
 3461TIP3    H232019   4.022   3.343   2.146  2.0059  0.4219  1.8162
 3462TIP3   OH232020   2.462   5.221   1.576  0.2996 -0.3262 -0.6505
 3462TIP3    H132021   2.419   5.304   1.558  0.4076 -0.0034  0.4905
 3462TIP3    H232022   2.405   5.155   1.537  0.3770  0.2936 -1.8447
 3463TIP3   OH232023   4.222   6.448   1.122 -0.1185  0.0644  0.4596
 3463TIP3    H132024   4.300   6.412   1.079  0.2287  0.5378  0.6740
 3463TIP3    H232025   4.175   6.492   1.052  0.2234  0.4617  0.4725
 3464TIP3   OH232026   6.285   0.991   8.689  0.5067  0.1650  0.1091
 3464TIP3    H132027   6.219   0.995   8.620 -0.0250  0.0844  0.6013
 3464TIP3    H232028   6.249   1.045   8.759 -0.2131 -1.8283  1.3506
 3465TIP3   OH232029   0.948   2.983   1.180 -0.2572  0.5656  0.6239
 3465TIP3    H132030   0.892   2.919   1.223  0.3204  0.1504  0.7680
 3465TIP3    H232031   0.898   3.010   1.102  0.6587 -2.2374 -1.0865
 3466TIP3   OH232032   3.102   5.996   7.794  0.4017 -0.5276 -0.0005
 3466TIP3    H132033   3.010   6.023   7.791  0.5982  0.2127  0.3766
 3466TIP3    H232034   3.136   6.017   7.707  0.4314  0.0386  0.1384
 3467TIP3   OH232035   4.652   6.034   0.907 -0.2296 -0.4196  0.8504
 3467TIP3    H132036   4.693   6.109   0.950  0.3754  0.6283 -1.4031
 3467TIP3    H232037   4.709   5.960   0.928 -0.6001 -0.2048  2.7590
 3468TIP3   OH232038   4.296   5.163   1.750 -0.1387 -0.4070 -0.3772
 3468TIP3    H132039   4.215   5.137   1.707 -0.3148 -0.6474  0.0931
 3468TIP3    H232040   4.329   5.236   1.698 -0.6072 -0.3726 -0.6263
 3469TIP3   OH232041   3.689   0.583   1.155  0.1958 -0.0812  0.4908
 3469TIP3    H132042   3.742   0.620   1.225  0.2212 -0.2049  0.5369
 3469TIP3    H232043   3.726   0.497   1.140  1.0141  0.4370 -0.5719
 3470TIP3   OH232044   1.221   0.416   0.528 -0.0841  0.0929 -0.9145
 3470TIP3    H132045   1.228   0.474   0.453 -2.6067  0.6254 -0.8157
 3470TIP3    H232046   1.152   0.353   0.504  0.6112 -1.1178  0.0987
 3471TIP3   OH232047   2.012   6.646   1.991  0.6013  0.2681  0.3431
 3471TIP3    H132048   2.024   6.555   2.018  1.8383  0.1568 -0.5252
 3471TIP3    H232049   2.005   6.643   1.896 -0.6837  0.9710  0.3838
 3472TIP3   OH232050   1.072   4.976   0.265 -0.1051 -0.1271  0.4093
 3472TIP3    H132051   1.126   4.934   0.333 -2.0961 -1.0055  1.5467
 3472TIP3    H232052   1.078   5.069   0.284  1.6901 -0.1188 -0.0469
 3473TIP3   OH232053   0.086   1.156   3.020  0.4803  0.1386  0.8414
 3473TIP3    H132054   0.054   1.146   3.109  0.5930 -0.2560  0.8374
 3473TIP3    H232055   0.111   1.068   2.993 -1.6795 -0.1890 -0.3875
 3474TIP3   OH232056   1.491   0.469   0.911  0.1074  0.4621 -0.0176
 3474TIP3    H132057   1.570   0.507   0.950  2.0000 -1.6941 -1.5299
 3474TIP3    H232058   1.419   0.502   0.966  2.1863  1.1267  2.4900
 3475TIP3   OH232059   2.478   5.220   2.869  0.1308  0.2082  0.0385
 3475TIP3    H132060   2.405   5.277   2.845  0.3934  0.8651  0.7676
 3475TIP3    H232061   2.483   5.226   2.965  0.2414 -0.9460  0.1219
 3476TIP3   OH232062   4.384   6.062   1.583  0.1723 -0.0566 -0.7183
 3476TIP3    H132063   4.428   6.064   1.498 -1.0019 -0.1135 -1.3514
 3476TIP3    H232064   4.368   5.969   1.600 -0.1669 -0.0063 -0.7492
 3477TIP3   OH232065   3.232   0.464   8.282  1.1984  0.3398 -0.7543
 3477TIP3    H132066   3.235   0.399   8.212  1.6173 -1.0311  0.4820
 3477TIP3    H232067   3.177   0.535   8.247 -0.4864 -1.3218 -1.6385
 3478TIP3   OH232068   1.462   1.337   7.514  0.0478  0.0072  0.4657
 3478TIP3    H132069   1.393   1.289   7.468  0.1374 -0.2651  0.6136
 3478TIP3    H232070   1.523   1.363   7.446 -0.1238  0.1157  0.3531
 3479TIP3   OH232071   5.953   1.229   8.502 -0.0672 -0.1243  0.2766
 3479TIP3    H132072   5.912   1.298   8.554 -0.1731  1.2132 -1.4786
 3479TIP3    H232073   6.037   1.266   8.475 -0.8090  0.0410 -2.0370
 3480TIP3   OH232074   4.045   4.581   0.224 -0.1837  0.0890  0.6892
 3480TIP3    H132075   4.063   4.672   0.246  0.3209 -0.0204  0.7307
 3480TIP3    H232076   3.966   4.584   0.170  0.1091  0.5939  0.2830
 3481TIP3   OH232077   1.221   2.982   2.386 -0.5229  0.3827  0.0148
 3481TIP3    H132078   1.273   2.960   2.463  0.3578  1.5284 -0.2259
 3481TIP3    H232079   1.223   2.903   2.332  0.9396  0.3725  0.0413
 3482TIP3   OH232080   1.478   4.287   0.221  0.4455 -0.0229  0.1449
 3482TIP3    H132081   1.446   4.279   0.131  2.3092  0.3343 -0.6060
 3482TIP3    H232082   1.483   4.381   0.236  2.0433 -0.0468 -0.1297
 3483TIP3   OH232083   3.663   4.527   2.541 -0.2527  0.6288 -0.9130
 3483TIP3    H132084   3.623   4.592   2.599 -1.8759 -1.0200 -0.1302
 3483TIP3    H232085   3.604   4.522   2.466 -0.0051  0.2214 -1.0825
 3484TIP3   OH232086   3.678   0.083   8.735  0.3782 -0.1629  0.0248
 3484TIP3    H132087   3.633  -0.001   8.726  0.3806 -0.1369 -0.2562
 3484TIP3    H232088   3.771   0.062   8.733  0.4117 -0.0304 -1.5690
 3485TIP3   OH232089   6.801   4.380   1.421  0.3194 -0.0297 -0.4222
 3485TIP3    H132090   6.892   4.382   1.391 -0.0312  1.9334 -1.5258
 3485TIP3    H232091   6.750   4.383   1.340 -0.7200  0.0768  0.2263
 3486TIP3   OH232092   1.293   0.632   2.030  0.2623  0.0745 -0.5428
 3486TIP3    H132093   1.287   0.691   2.104  0.0816 -0.4503 -0.1323
 3486TIP3    H232094   1.218   0.574   2.038 -0.0155  0.2953 -1.3944
 3487TIP3   OH232095   2.029   3.788   0.241  0.4113 -0.0694  0.3526
 3487TIP3    H132096   2.101   3.770   0.301  1.1287  0.7066 -0.2539
 3487TIP3    H232097   1.951   3.756   0.287  1.1400 -0.9650  0.9892
 3488TIP3   OH232098   0.148   6.752   3.073 -0.0448 -0.3867  0.0384
 3488TIP3    H132099   0.083   6.803   3.122 -1.1084 -1.0266 -0.6700
 3488TIP3    H232100   0.113   6.747   2.984 -0.6993 -3.4548  0.3474
 3489TIP3   OH232101   6.164   5.106   7.830 -0.3856  0.6939  0.5938
 3489TIP3    H132102   6.120   5.072   7.908 -1.7153 -0.4522 -0.5893
 3489TIP3    H232103   6.100   5.093   7.760  1.3224  0.3005 -0.9578
 3490TIP3   OH232104   4.707   2.182   8.490 -0.1317 -0.6526 -0.1308
 3490TIP3    H132105   4.692   2.092   8.522  0.8702 -0.3899  1.1711
 3490TIP3    H232106   4.735   2.230   8.568 -1.5714  1.0427 -0.6011
 3491TIP3   OH232107   6.536   1.075   8.815 -0.1065 -0.5670 -0.7365
 3491TIP3    H132108   6.461   1.122   8.851 -0.1762 -0.7182 -0.6852
 3491TIP3    H232109   6.535   1.096   8.722 -0.3730 -0.7902 -0.7844
 3492TIP3   OH232110   4.264   5.836   1.041  0.0918 -0.4614 -0.0171
 3492TIP3    H132111   4.216   5.843   1.124 -0.6995  0.5212 -0.5347
 3492TIP3    H232112   4.234   5.754   1.002  0.7293 -1.1093  0.8067
 3493TIP3   OH232113   4.660   5.610   7.175 -0.1446  0.2658  0.0936
 3493TIP3    H132114   4.584   5.601   7.232 -0.2538  0.7271  0.0225
 3493TIP3    H232115   4.673   5.704   7.167  0.3007  0.1923 -0.0728
 3494TIP3   OH232116   4.964   6.179   1.227 -0.2468 -0.0835  0.2706
 3494TIP3    H132117   5.051   6.154   1.196  0.3611 -0.8948  2.4616
 3494TIP3    H232118   4.975   6.193   1.321 -2.6093 -0.7345  0.6954
 3495TIP3   OH232119   1.175   0.376   3.133 -0.5149  0.2129 -0.2339
 3495TIP3    H132120   1.199   0.307   3.071 -2.6079 -0.9789  0.1819
 3495TIP3    H232121   1.177   0.334   3.218 -1.5154  0.7367  0.0665
 3496TIP3   OH232122   6.359   2.317   1.848  0.1937  0.2379  0.2602
 3496TIP3    H132123   6.389   2.358   1.928  0.7395  0.5144 -0.0837
 3496TIP3    H232124   6.286   2.371   1.819 -0.2807 -0.1051  0.7872
 3497TIP3   OH232125   0.151   6.014   3.306  0.0633  0.2500  0.3321
 3497TIP3    H132126   0.143   5.919   3.299 -0.8237  0.2905  0.6080
 3497TIP3    H232127   0.183   6.029   3.395  0.1306  0.2060  0.3148
 3498TIP3   OH232128   2.367   0.948   1.001  0.3525 -0.6120 -0.4743
 3498TIP3    H132129   2.403   1.035   1.017  0.6309 -0.2827 -2.5975
 3498TIP3    H232130   2.442   0.889   1.010  0.1579 -0.6697  0.9947
 3499TIP3   OH232131   4.515   1.594   3.240 -0.0866  1.2534 -0.2604
 3499TIP3    H132132   4.504   1.600   3.335  2.1971 -0.2756  0.2004
 3499TIP3    H232133   4.429   1.569   3.207 -0.1736 -1.6541  1.8368
 3500TIP3   OH232134   4.841   0.653   2.188 -0.5673  0.2396 -0.8206
 3500TIP3    H132135   4.766   0.625   2.240 -0.7829 -0.4860 -1.5135
 3500TIP3    H232136   4.905   0.681   2.253 -0.3720 -1.7812 -0.0464
 3501TIP3   OH232137   6.675   6.447   1.329 -0.1750  0.3324 -0.0354
 3501TIP3    H132138   6.629   6.421   1.409  1.1456  1.5213  1.1823
 3501TIP3    H232139   6.761   6.406   1.338 -0.0124  0.4879 -0.8498
 3502TIP3   OH232140   4.670   4.158   1.816  0.0935 -0.0659 -0.5065
 3502TIP3    H132141   4.586   4.199   1.798  1.6395  2.8391 -1.7661
 3502TIP3    H232142   4.675   4.155   1.912 -1.2801  0.0274 -0.4138
 3503TIP3   OH232143   5.486   2.836   1.826  0.1947 -0.2223  0.3463
 3503TIP3    H132144   5.530   2.764   1.781 -1.4292 -1.2666  0.3629
 3503TIP3    H232145   5.442   2.884   1.757 -1.0846 -0.9594  0.6217
 3504TIP3   OH232146   5.107   0.932   1.783  0.4157  0.1035 -0.1257
 3504TIP3    H132147   5.074   0.911   1.870 -2.7257  1.2559 -0.9072
 3504TIP3    H232148   5.154   0.853   1.755 -0.6369 -1.2058  1.6328
 3505TIP3   OH232149   5.168   0.098   2.778 -0.1017  0.0646  0.3596
 3505TIP3    H132150   5.218   0.076   2.856 -1.1776 -1.6214  0.6051
 3505TIP3    H232151   5.097   0.154   2.809 -0.1919 -0.1274  0.4954
 3506TIP3   OH232152   0.711   0.622   8.306  0.3588  0.7131 -0.1179
 3506TIP3    H132153   0.647   0.552   8.300  1.1085  0.1018 -1.6924
 3506TIP3    H232154   0.670   0.697   8.263  0.2830  0.6347 -0.1816
 3507TIP3   OH232155   6.476   2.812   8.660 -0.3130  0.6254  0.2055
 3507TIP3    H132156   6.537   2.886   8.669  1.9803 -0.8891 -1.4274
 3507TIP3    H232157   6.506   2.748   8.725 -0.2575 -0.0417 -0.4573
 3508TIP3   OH232158   0.563   2.446   0.795  0.0483  0.2047  0.6091
 3508TIP3    H132159   0.629   2.444   0.865  2.0371 -0.3167 -1.1891
 3508TIP3    H232160   0.534   2.355   0.787  2.5205 -0.4970 -1.5756
 3509TIP3   OH232161   3.562   2.971   7.816  0.0052 -0.4357 -0.2649
 3509TIP3    H132162   3.658   2.976   7.816  0.0335 -0.9220 -0.7990
 3509TIP3    H232163   3.536   3.003   7.730 -0.1377 -3.0594 -1.2825
 3510TIP3   OH232164   6.635   3.652   1.022 -0.2932 -1.0196  0.0005
 3510TIP3    H132165   6.655   3.672   1.114  0.3336 -1.2838 -0.0787
 3510TIP3    H232166   6.646   3.557   1.015 -0.9160 -1.0855 -0.2125
 3511TIP3   OH232167   0.094   1.516   8.066 -0.1576 -0.0613  0.0604
 3511TIP3    H132168   0.043   1.436   8.053 -0.6752  0.2423  0.1799
 3511TIP3    H232169   0.128   1.538   7.979  1.5963 -1.4527  0.3480
 3512TIP3   OH232170   0.474   3.585   1.735  0.5596 -0.5317  0.5531
 3512TIP3    H132171   0.397   3.534   1.707  0.4409 -0.7982  1.3351
 3512TIP3    H232172   0.543   3.560   1.673  0.0178 -0.2874 -0.1618
 3513TIP3   OH232173   5.603   5.595   8.779 -0.5494  0.8585  0.2410
 3513TIP3    H132174   5.574   5.605   8.688  0.0639  1.4528  0.1048
 3513TIP3    H232175   5.686   5.547   8.773  0.0599  1.8814  0.4046
 3514TIP3   OH232176   5.666   6.177   1.923 -0.3383  0.0811  0.2611
 3514TIP3    H132177   5.690   6.092   1.885 -0.1294 -0.1115  0.8104
 3514TIP3    H232178   5.743   6.232   1.907 -0.0536 -0.1438  0.8339
 3515TIP3   OH232179   0.156   0.023   8.170 -0.3200 -0.2554  0.4048
 3515TIP3    H132180   0.113   0.059   8.092  0.6010 -1.6718 -0.8201
 3515TIP3    H232181   0.091  -0.034   8.210 -0.6457  0.1151  0.3996
 3516TIP3   OH232182   5.984   1.055   1.775 -0.1044  0.5753  0.7357
 3516TIP3    H132183   6.050   1.038   1.842 -0.3213  0.4596  0.9228
 3516TIP3    H232184   5.939   0.971   1.764 -0.3951  0.7177  0.8064
 3517TIP3   OH232185   5.366   6.020   0.163 -0.3027  0.1913  0.0988
 3517TIP3    H132186   5.311   6.097   0.179 -0.0689  0.0765  1.6561
 3517TIP3    H232187   5.395   5.993   0.250  0.3003 -1.1690 -0.4923
 3518TIP3   OH232188   2.207   6.254   1.697  0.1450  0.8855 -0.5663
 3518TIP3    H132189   2.247   6.283   1.615  0.6946 -1.5043 -1.2231
 3518TIP3    H232190   2.165   6.170   1.675 -0.4992  0.6381  1.3880
 3519TIP3   OH232191   0.322   1.596   0.605 -0.4435 -0.4751  0.0135
 3519TIP3    H132192   0.409   1.584   0.643 -0.7531 -3.8172  0.0119
 3519TIP3    H232193   0.269   1.630   0.677  0.5645  0.4005  0.3727
 3520TIP3   OH232194   2.638   1.149   0.071 -0.1377  0.0623  0.4433
 3520TIP3    H132195   2.684   1.232   0.084  1.4269 -0.6781 -0.1368
 3520TIP3    H232196   2.638   1.136  -0.023 -1.5634  0.0293  0.4329
 3521TIP3   OH232197   6.537   5.208   3.367 -0.3959 -0.2534  0.3094
 3521TIP3    H132198   6.470   5.259   3.413 -0.5070 -0.9337  0.9405
 3521TIP3    H232199   6.508   5.117   3.378  0.0598 -0.4834 -0.3581
 3522TIP3   OH232200   2.718   4.084   0.801 -0.0575 -0.5389 -0.3276
 3522TIP3    H132201   2.762   4.149   0.855 -0.2898 -0.4248 -0.2738
 3522TIP3    H232202   2.628   4.116   0.793 -0.0469 -0.5989 -0.7131
 3523TIP3   OH232203   3.093   0.479   2.618  0.1596 -0.1710  0.7101
 3523TIP3    H132204   3.054   0.417   2.679  0.8438 -0.1734  1.1647
 3523TIP3    H232205   3.115   0.555   2.672  1.8565 -0.6319  0.7350
 3524TIP3   OH232206   1.823   4.140   1.324 -0.3657  0.9645 -0.3001
 3524TIP3    H132207   1.819   4.217   1.380 -1.2762  0.6485  0.0872
 3524TIP3    H232208   1.856   4.070   1.381  1.2942  1.2443 -0.8716
 3525TIP3   OH232209   6.785   0.256   0.151 -0.2398 -0.4616  0.1395
 3525TIP3    H132210   6.738   0.217   0.077 -0.4379  0.2532 -0.1219
 3525TIP3    H232211   6.874   0.221   0.143 -0.7677 -2.0179  0.7874
 3526TIP3   OH232212   0.504   4.060   1.685 -0.2596 -0.1457 -0.4950
 3526TIP3    H132213   0.595   4.058   1.716  0.1595  0.8829 -1.5626
 3526TIP3    H232214   0.503   4.131   1.620 -1.7278 -0.4397 -0.8207
 3527TIP3   OH232215   3.557   3.843   0.198  0.1939  0.3044  0.1224
 3527TIP3    H132216   3.556   3.868   0.290 -2.2300  0.3782  0.1389
 3527TIP3    H232217   3.472   3.870   0.165  0.3251 -1.3027 -1.7000
 3528TIP3   OH232218   3.799   1.391   2.986 -0.2124 -0.2518  0.2886
 3528TIP3    H132219   3.895   1.398   2.983 -0.3129  1.0481 -0.4995
 3528TIP3    H232220   3.774   1.442   3.063 -0.3738  1.0103 -0.5713
 3529TIP3   OH232221   3.758   1.363   0.299 -0.6618 -0.6267  0.4461
 3529TIP3    H132222   3.763   1.364   0.203  0.5200 -1.1449  0.4870
 3529TIP3    H232223   3.797   1.279   0.324 -0.8399 -0.4380  1.3932
 3530TIP3   OH232224   5.589   6.509   1.773  0.1262  0.2785 -0.1839
 3530TIP3    H132225   5.588   6.595   1.731  1.1647  1.9723  2.9263
 3530TIP3    H232226   5.676   6.474   1.753  0.6352  1.0892  0.5505
 3531TIP3   OH232227   4.379   3.910   2.264  0.1036  0.1430 -0.0158
 3531TIP3    H132228   4.327   3.830   2.255  0.6743 -0.1745 -0.5121
 3531TIP3    H232229   4.469   3.882   2.248  0.4410  0.6837  0.8673
 3532TIP3   OH232230   5.384   1.417   7.517 -0.3360 -0.2360  0.2345
 3532TIP3    H132231   5.439   1.343   7.492  2.2477  0.8958  2.0734
 3532TIP3    H232232   5.390   1.478   7.444 -0.3539 -0.7159 -0.1777
 3533TIP3   OH232233   5.217   0.332   0.102  0.4572 -0.1716  0.5296
 3533TIP3    H132234   5.124   0.350   0.114  0.1450 -2.1998  1.7290
 3533TIP3    H232235   5.261   0.379   0.173  0.2415  0.1193  0.4670
 3534TIP3   OH232236   0.162   5.757   3.278  0.3200 -0.1938 -0.1286
 3534TIP3    H132237   0.086   5.699   3.281  0.0034  0.2253  0.0339
 3534TIP3    H232238   0.236   5.699   3.260  0.1009 -0.7472  0.6962
 3535TIP3   OH232239   1.293   5.039   3.443 -0.3242 -0.0236  0.0623
 3535TIP3    H132240   1.328   4.962   3.398 -0.5087 -0.4493  0.6336
 3535TIP3    H232241   1.368   5.098   3.452  0.0359 -0.5259  0.4299
 3536TIP3   OH232242   3.537   0.513   0.346  0.0441  0.0513  0.2930
 3536TIP3    H132243   3.578   0.514   0.259 -1.6366 -0.1676 -0.5336
 3536TIP3    H232244   3.532   0.605   0.371 -2.7929  0.4995 -1.5338
 3537TIP3   OH232245   3.031   0.902   8.038 -0.0479 -0.0997 -0.3832
 3537TIP3    H132246   3.008   0.809   8.029  0.1132 -0.5267  2.5173
 3537TIP3    H232247   3.052   0.912   8.131 -0.3596  2.9390 -0.5468
 3538TIP3   OH232248   2.027   3.009   1.350 -0.0329  0.3515 -0.4676
 3538TIP3    H132249   1.943   3.031   1.391  0.1028  0.1159 -0.0600
 3538TIP3    H232250   2.082   2.982   1.422  0.6974  1.3966 -0.6099
 3539TIP3   OH232251   6.233   4.174   2.937  0.1616  0.4624 -0.3904
 3539TIP3    H132252   6.189   4.258   2.947 -0.1604  0.4231 -1.3696
 3539TIP3    H232253   6.315   4.195   2.894  0.1691  0.2950 -0.4574
 3540TIP3   OH232254   1.839   2.159   0.305 -0.4743 -0.1731 -0.4856
 3540TIP3    H132255   1.823   2.229   0.242  0.2908 -0.7827 -1.3931
 3540TIP3    H232256   1.754   2.117   0.316 -0.7330  0.2929 -0.6837
 3541TIP3   OH232257   1.047   1.566   8.091  0.2199 -0.7112 -0.4025
 3541TIP3    H132258   1.034   1.483   8.046  0.1055 -0.5882 -0.5948
 3541TIP3    H232259   0.973   1.573   8.152  0.3139 -0.8237 -0.2749
 3542TIP3   OH232260   3.372   2.575   2.691 -0.4672  0.5488 -0.5541
 3542TIP3    H132261   3.296   2.631   2.674 -1.1032  0.7288  2.2876
 3542TIP3    H232262   3.335   2.498   2.734  0.8860  0.3793  0.3729
 3543TIP3   OH232263   1.286   1.570   0.419  0.2981  0.4562 -0.1391
 3543TIP3    H132264   1.247   1.487   0.391  0.8298  1.0143 -2.8522
 3543TIP3    H232265   1.211   1.630   0.426  0.1677  0.3601 -0.6695
 3544TIP3   OH232266   2.466   1.653   2.598  0.1986  0.3054  0.4447
 3544TIP3    H132267   2.536   1.627   2.658 -0.5222  0.3238  1.3171
 3544TIP3    H232268   2.413   1.574   2.588 -0.8539  0.8340  1.5037
 3545TIP3   OH232269   4.821   2.438   8.232  0.6671 -0.3491 -0.3052
 3545TIP3    H132270   4.767   2.394   8.166  2.0215 -0.0356 -1.6705
 3545TIP3    H232271   4.855   2.515   8.187  0.7539  0.4663  1.1245
 3546TIP3   OH232272   3.198   2.915   7.731 -0.0245  0.5843 -0.0538
 3546TIP3    H132273   3.260   2.844   7.747  0.9595  1.1465 -1.1601
 3546TIP3    H232274   3.166   2.900   7.642 -2.1834 -0.1771  0.7879
 3547TIP3   OH232275   0.809   4.112   2.104 -0.2944  0.7163 -0.3782
 3547TIP3    H132276   0.794   4.126   2.010 -1.5557 -1.0553 -0.4882
 3547TIP3    H232277   0.755   4.036   2.126  1.9902 -0.5645  1.2153
 3548TIP3   OH232278   6.224   6.643   8.244 -0.5112 -0.2558 -0.7608
 3548TIP3    H132279   6.185   6.688   8.319  0.8593  0.8064 -0.6345
 3548TIP3    H232280   6.179   6.680   8.168  0.9060  1.7837 -0.6939
 3549TIP3   OH232281   0.662   0.613   1.798  0.2086  0.4590  0.3884
 3549TIP3    H132282   0.674   0.521   1.773 -1.0462 -0.0255  1.4375
 3549TIP3    H232283   0.570   0.619   1.822  0.7649  1.4018  2.5565
 3550TIP3   OH232284   6.224   1.047   8.050  0.1005 -0.1392  0.1073
 3550TIP3    H132285   6.227   1.032   8.145  0.0232  0.1958  0.1653
 3550TIP3    H232286   6.289   0.987   8.014 -0.8009 -1.2169  0.2399
 3551TIP3   OH232287   6.644   6.109   7.339  0.1609 -0.3664 -0.1906
 3551TIP3    H132288   6.592   6.064   7.405 -0.7947  1.2809  0.2409
 3551TIP3    H232289   6.587   6.112   7.262 -0.2033  0.9434  0.1025
 3552TIP3   OH232290   5.240   0.273   0.579 -0.2253 -0.2014 -0.4983
 3552TIP3    H132291   5.310   0.210   0.592 -0.5212 -0.8046 -1.6922
 3552TIP3    H232292   5.161   0.229   0.609 -0.2134  0.1892  0.1221
 3553TIP3   OH232293   0.494   2.320   2.318 -0.8653 -0.0780  0.2903
 3553TIP3    H132294   0.405   2.343   2.345 -0.3022  1.4887  0.9269
 3553TIP3    H232295   0.548   2.392   2.350  0.4487 -0.3215 -1.2683
 3554TIP3   OH232296   4.140   1.249   0.519  0.1232 -0.0088  0.6206
 3554TIP3    H132297   4.232   1.260   0.497 -0.1285  2.0075  0.4142
 3554TIP3    H232298   4.137   1.169   0.571  1.5249 -1.8096 -1.8813
 3555TIP3   OH232299   3.429   4.685   7.848 -0.3463  0.2868  0.7045
 3555TIP3    H132300   3.348   4.708   7.803  1.5562  0.0950 -3.3166
 3555TIP3    H232301   3.475   4.768   7.859  0.8590  0.0181 -1.5869
 3556TIP3   OH232302   4.903   6.695   2.254 -0.4076 -0.1277  0.9176
 3556TIP3    H132303   4.851   6.676   2.332  0.3695  2.6813  2.2443
 3556TIP3    H232304   4.994   6.689   2.284 -0.0826  0.3282  0.0637
 3557TIP3   OH232305   5.770   0.045   7.724 -0.0863 -0.1755  0.1475
 3557TIP3    H132306   5.709   0.076   7.657  0.5649 -0.9347 -0.8133
 3557TIP3    H232307   5.827   0.120   7.741  0.5494 -0.3763 -1.0792
 3558TIP3   OH232308   6.735   6.501   8.452 -0.3290  0.0214 -0.0372
 3558TIP3    H132309   6.698   6.413   8.463 -0.0595  0.1417  2.2901
 3558TIP3    H232310   6.727   6.542   8.538 -0.2132  2.2181 -0.9982
 3559TIP3   OH232311   3.991   5.041   0.518  0.0766 -0.0763 -0.8712
 3559TIP3    H132312   3.911   5.085   0.548  0.8743 -0.0794  1.4019
 3559TIP3    H232313   4.036   5.107   0.466 -0.3542  0.6803 -0.3098
 3560TIP3   OH232314   6.506   0.890   8.129  0.7708 -0.2334  0.2033
 3560TIP3    H132315   6.468   0.861   8.047 -0.1521 -0.2701  0.6357
 3560TIP3    H232316   6.540   0.810   8.169  1.2843 -0.2050 -0.1672
 3561TIP3   OH232317   6.273   0.012   2.787 -0.2782 -0.0315 -1.2522
 3561TIP3    H132318   6.244  -0.078   2.804  0.4086  0.0032  0.3260
 3561TIP3    H232319   6.267   0.055   2.872  1.0363  0.9329 -1.6161
 3562TIP3   OH232320   0.254   6.810   0.171 -0.1694  0.1521 -0.0627
 3562TIP3    H132321   0.211   6.770   0.096  0.3433 -1.2365  0.3652
 3562TIP3    H232322   0.289   6.737   0.222 -0.9491  1.0066  1.8134
 3563TIP3   OH232323   5.283   2.499   1.784 -0.3431 -0.3091  0.1189
 3563TIP3    H132324   5.236   2.451   1.852  1.1793 -2.0078  0.0587
 3563TIP3    H232325   5.376   2.481   1.802  0.4874  3.8855  0.9585
 3564TIP3   OH232326   3.265   2.857   1.753 -0.1330  0.2528  0.0924
 3564TIP3    H132327   3.208   2.784   1.729 -0.1108  0.1325  0.4066
 3564TIP3    H232328   3.255   2.866   1.847  1.3552 -0.6096  0.3622
 3565TIP3   OH232329   4.442   4.425   0.989  0.1331 -0.2062 -0.0721
 3565TIP3    H132330   4.505   4.375   1.040 -1.2579 -0.0452  1.9316
 3565TIP3    H232331   4.413   4.364   0.921 -1.4765 -2.2434  2.2645
 3566TIP3   OH232332   0.133   1.028   2.564  0.3279 -0.1935  0.3230
 3566TIP3    H132333   0.085   1.091   2.618  0.8159 -1.2871  2.0855
 3566TIP3    H232334   0.099   0.943   2.589 -1.3283 -0.6868 -3.0293
 3567TIP3   OH232335   4.928   3.852   3.534  0.4238  0.1598 -0.6311
 3567TIP3    H132336   4.896   3.940   3.552  2.6278  1.2047 -1.4902
 3567TIP3    H232337   4.850   3.796   3.542 -0.5525  1.7695  2.5073
 3568TIP3   OH232338   0.716   1.561   0.475  0.5705 -0.8658 -0.5674
 3568TIP3    H132339   0.749   1.591   0.390  0.9718  0.8334  0.1616
 3568TIP3    H232340   0.628   1.529   0.456  0.5363 -0.2289 -1.5697
 3569TIP3   OH232341   3.736   6.048   0.777 -0.2246 -0.3304  0.2431
 3569TIP3    H132342   3.689   5.974   0.816 -0.6450  0.1006  0.5487
 3569TIP3    H232343   3.776   6.011   0.698 -3.0793 -0.1651 -1.4090
 3570TIP3   OH232344   4.270   1.107   2.708  0.3822  0.0484 -0.8988
 3570TIP3    H132345   4.215   1.161   2.765  0.6535  1.2839 -1.7581
 3570TIP3    H232346   4.209   1.067   2.647  0.3706  1.4492 -1.8754
 3571TIP3   OH232347   1.839   2.072   8.736 -0.0897  0.6205 -0.3937
 3571TIP3    H132348   1.798   2.070   8.650  0.4123  2.7520 -0.7335
 3571TIP3    H232349   1.773   2.109   8.794 -0.1351 -0.0181 -0.0274
 3572TIP3   OH232350   1.144   6.639   1.346  0.8511  0.2430  0.1610
 3572TIP3    H132351   1.210   6.620   1.413  2.1135  1.1909 -0.7611
 3572TIP3    H232352   1.192   6.634   1.263 -0.0756  1.5404 -0.4934
 3573TIP3   OH232353   5.887   0.253   0.557 -0.5875  0.4022  0.3285
 3573TIP3    H132354   5.909   0.169   0.596 -0.7997  0.4191  0.4811
 3573TIP3    H232355   5.948   0.262   0.483 -1.3323 -0.4154 -0.4141
 3574TIP3   OH232356   1.616   6.657   1.497  0.2844 -0.0702  0.2581
 3574TIP3    H132357   1.523   6.669   1.477  0.5832  0.8609 -0.6881
 3574TIP3    H232358   1.654   6.625   1.415  0.9973  0.7529  0.2514
 3575TIP3   OH232359   2.257   0.063   1.934  0.5262 -0.0172  0.7192
 3575TIP3    H132360   2.330   0.001   1.929 -0.3908 -1.0916  0.4651
 3575TIP3    H232361   2.290   0.132   1.992  1.1812 -1.2903  1.9381
 3576TIP3   OH232362   6.176   5.056   1.681 -0.0686  0.3339 -0.2880
 3576TIP3    H132363   6.267   5.055   1.708 -0.9157  0.5036  3.0258
 3576TIP3    H232364   6.179   5.049   1.585  3.3659  0.6597 -0.3305
 3577TIP3   OH232365   3.675   3.774   2.320  0.4010 -0.5117 -0.1225
 3577TIP3    H132366   3.622   3.703   2.285  0.4691  0.2747 -1.9390
 3577TIP3    H232367   3.702   3.824   2.243  1.7388  0.5260  0.9610
 3578TIP3   OH232368   3.967   0.209   0.579  0.4217 -0.7052  0.5799
 3578TIP3    H132369   3.883   0.172   0.603 -0.6107  1.1783  0.0401
 3578TIP3    H232370   4.029   0.171   0.642 -1.1604 -0.5755  2.2969
 3579TIP3   OH232371   1.413   1.041   1.818 -0.2478 -0.5582  0.6929
 3579TIP3    H132372   1.349   1.099   1.860  1.3687  0.7309  1.4842
 3579TIP3    H232373   1.409   0.960   1.869  0.6200  0.4624  2.4830
 3580TIP3   OH232374   3.447   3.718   0.503 -0.6334  1.0493 -0.2199
 3580TIP3    H132375   3.387   3.772   0.452 -1.5485 -0.2121 -0.5258
 3580TIP3    H232376   3.533   3.758   0.489 -1.0863  1.6322 -1.4978
 3581TIP3   OH232377   4.901   0.808   3.039  0.7802 -0.0198  0.3269
 3581TIP3    H132378   4.936   0.884   3.084  0.5136  0.0322  0.4500
 3581TIP3    H232379   4.825   0.841   2.990  0.9417 -0.1145  0.0058
 3582TIP3   OH232380   5.825   3.957   0.845  0.1590 -1.0977  0.4579
 3582TIP3    H132381   5.875   4.028   0.807 -0.3852 -0.5230  0.8047
 3582TIP3    H232382   5.837   3.884   0.784  0.2478 -0.5391 -0.2020
 3583TIP3   OH232383   3.927   5.768   7.513 -0.0775 -0.0712  0.0570
 3583TIP3    H132384   3.976   5.692   7.547  0.8485 -0.6836 -2.4363
 3583TIP3    H232385   3.837   5.735   7.502  0.3443 -0.9075 -1.1332
 3584TIP3   OH232386   3.544   2.658   2.883 -0.1210 -0.6247 -0.4786
 3584TIP3    H132387   3.478   2.635   2.817  0.5528  1.2042 -1.8551
 3584TIP3    H232388   3.526   2.750   2.903  1.7463 -0.2177 -0.5724
 3585TIP3   OH232389   4.935   5.052   3.209  0.6613 -0.1315  0.0943
 3585TIP3    H132390   4.962   5.140   3.181  3.6973 -0.9322  0.2018
 3585TIP3    H232391   4.866   5.068   3.274 -0.1078  2.0701 -1.1396
 3586TIP3   OH232392   0.277   2.804   0.325  0.3958  0.1461 -0.3413
 3586TIP3    H132393   0.219   2.840   0.392  0.4808 -2.4026  1.2732
 3586TIP3    H232394   0.219   2.754   0.267  0.7786 -2.0977  1.0598
 3587TIP3   OH232395   5.218   2.794   0.713 -0.1407  0.5774 -0.3195
 3587TIP3    H132396   5.169   2.847   0.776  0.4788  1.1455 -0.3024
 3587TIP3    H232397   5.192   2.827   0.627 -1.2492 -0.4290 -0.3982
 3588TIP3   OH232398   4.850   5.694   8.008  0.2766  0.1806 -0.0350
 3588TIP3    H132399   4.763   5.699   7.970  0.1129  0.9595  0.4164
 3588TIP3    H232400   4.839   5.730   8.097  0.8168 -0.7933  0.4365
 3589TIP3   OH232401   0.426   5.154   8.502 -0.3328 -0.5268  0.3547
 3589TIP3    H132402   0.486   5.224   8.526 -1.6946  0.6520  0.4293
 3589TIP3    H232403   0.438   5.145   8.407 -0.1260 -0.2120  0.3480
 3590TIP3   OH232404   4.759   2.990   1.291 -0.2508 -0.7547 -0.0509
 3590TIP3    H132405   4.842   3.013   1.334 -0.5903 -0.4762  0.4568
 3590TIP3    H232406   4.709   2.944   1.358  0.0461 -2.1829 -0.7721
 3591TIP3   OH232407   0.867   1.372   3.100  0.1408 -0.1266  0.0398
 3591TIP3    H132408   0.797   1.310   3.120  0.2914 -0.9826 -1.8395
 3591TIP3    H232409   0.821   1.453   3.075 -0.2077 -0.6245 -0.9922
 3592TIP3   OH232410   2.883   0.867   1.440 -0.1385  0.0129  0.3086
 3592TIP3    H132411   2.843   0.907   1.517 -1.2364  2.0706 -1.2325
 3592TIP3    H232412   2.909   0.942   1.386  2.0186 -1.3472 -0.6587
 3593TIP3   OH232413   4.747   6.066   1.494 -0.1087  0.1576 -0.5109
 3593TIP3    H132414   4.729   6.120   1.571  0.4362 -0.3953  0.0153
 3593TIP3    H232415   4.670   6.078   1.438 -1.4469 -0.9175  0.9876
 3594TIP3   OH232416   0.918   1.867   7.294 -0.1900 -0.2926 -0.2013
 3594TIP3    H132417   0.999   1.896   7.253 -0.3220  0.4793  0.0613
 3594TIP3    H232418   0.945   1.830   7.378 -0.2589  1.9130  0.8606
 3595TIP3   OH232419   4.859   6.557   0.705  0.8624  0.7391  0.0354
 3595TIP3    H132420   4.845   6.571   0.611 -0.1901 -0.2526  0.0226
 3595TIP3    H232421   4.837   6.465   0.719 -0.0810  1.1440  1.4483
 3596TIP3   OH232422   4.215   0.018   0.417 -0.0313  0.0741 -0.3793
 3596TIP3    H132423   4.202   0.050   0.507 -0.1516  1.2680 -0.8044
 3596TIP3    H232424   4.302  -0.022   0.418 -0.3241 -0.5796  0.4434
 3597TIP3   OH232425   3.478   6.744   7.342  0.0696  0.3117 -0.2398
 3597TIP3    H132426   3.568   6.719   7.366 -0.1557  0.4556  0.7845
 3597TIP3    H232427   3.431   6.747   7.425 -1.5774 -2.3200 -0.9508
 3598TIP3   OH232428   2.170   5.877   8.618  0.1578  0.0940 -0.0191
 3598TIP3    H132429   2.228   5.937   8.665 -1.1779  0.8365  0.7302
 3598TIP3    H232430   2.230   5.818   8.572  1.5162  0.3779  1.2912
 3599TIP3   OH232431   6.586   4.283   1.631 -0.1296  0.1054  0.4343
 3599TIP3    H132432   6.666   4.316   1.591  0.9239 -1.2081  1.3977
 3599TIP3    H232433   6.565   4.204   1.581 -1.6241  1.1335 -0.6797
 3600TIP3   OH232434   0.773   0.480   2.187 -0.5067  0.3207  0.5387
 3600TIP3    H132435   0.784   0.567   2.148 -0.3702  0.0554 -0.0117
 3600TIP3    H232436   0.737   0.426   2.117 -0.7250 -0.0384  0.9196
 3601TIP3   OH232437   5.352   5.064   0.180 -0.1408  0.2162  0.0563
 3601TIP3    H132438   5.424   5.026   0.130  0.3111  0.1795  0.7196
 3601TIP3    H232439   5.277   5.009   0.159 -0.1869  0.7442 -1.2882
 3602TIP3   OH232440   1.598   2.490   1.157 -0.2519 -0.3551  0.4201
 3602TIP3    H132441   1.536   2.434   1.204  0.6558 -1.6319  0.1718
 3602TIP3    H232442   1.575   2.480   1.065 -0.9501  0.7892  0.4601
 3603TIP3   OH232443   1.625   1.276   1.890 -0.2387  0.4574 -0.0605
 3603TIP3    H132444   1.647   1.320   1.972 -0.3766  0.9786 -0.2984
 3603TIP3    H232445   1.601   1.187   1.916 -0.8946  0.7987  0.5353
 3604TIP3   OH232446   3.047   5.684   0.447 -0.1689 -0.5853  0.2689
 3604TIP3    H132447   3.135   5.702   0.481  0.3305 -1.8173 -0.3202
 3604TIP3    H232448   2.991   5.682   0.524  0.7723 -2.3548  0.9651
 3605TIP3   OH232449   2.244   6.644   8.466  0.4496 -0.1754 -0.3001
 3605TIP3    H132450   2.213   6.589   8.394 -0.9927  0.3477 -0.0998
 3605TIP3    H232451   2.209   6.602   8.545  0.1860  0.4588 -0.0749
 3606TIP3   OH232452   5.512   0.678   2.436  0.4408 -0.8741  0.4539
 3606TIP3    H132453   5.475   0.690   2.523  2.1681  1.0244  0.9929
 3606TIP3    H232454   5.475   0.749   2.384  1.6636 -0.2157  0.4528
 3607TIP3   OH232455   4.009   0.529   0.830  0.0921  0.5014  0.2378
 3607TIP3    H132456   3.963   0.610   0.804  1.0580  1.1815  0.5881
 3607TIP3    H232457   3.992   0.522   0.924 -0.9877 -0.3730 -0.0095
 3608TIP3   OH232458   4.344   6.737   7.531 -0.2878 -0.2112  0.5704
 3608TIP3    H132459   4.408   6.721   7.462  0.5469 -1.4472  1.5898
 3608TIP3    H232460   4.368   6.822   7.567 -0.6994  0.4240 -0.5899
 3609TIP3   OH232461   0.511   3.725   2.854  0.4546  0.1845 -0.3379
 3609TIP3    H132462   0.512   3.787   2.781  0.0389  2.3051  1.3676
 3609TIP3    H232463   0.488   3.778   2.930 -0.0293 -2.1165  1.2081
 3610TIP3   OH232464   1.249   1.487   1.950 -0.1925  0.6919 -0.0366
 3610TIP3    H132465   1.192   1.496   1.874 -0.5014  0.3607  0.1531
 3610TIP3    H232466   1.337   1.504   1.916  0.1925 -2.9260 -1.2649
 3611TIP3   OH232467   1.861   3.954   0.642 -0.6481 -0.0153  0.3469
 3611TIP3    H132468   1.843   4.005   0.564 -0.0576 -2.8725 -1.8358
 3611TIP3    H232469   1.777   3.917   0.667 -0.8899  1.1255  1.3055
 3612TIP3   OH232470   6.110   0.673   8.373 -0.0779  0.7664 -0.8835
 3612TIP3    H132471   6.068   0.732   8.436 -0.0687  1.3089 -1.3654
 3612TIP3    H232472   6.044   0.661   8.304  0.4927  1.5649 -1.6091
 3613TIP3   OH232473   2.990   5.477   2.411 -0.0131  0.2888  0.3259
 3613TIP3    H132474   2.921   5.412   2.396  0.2774 -0.1147  0.7346
 3613TIP3    H232475   2.943   5.559   2.423 -0.3737  0.2013 -0.4219
 3614TIP3   OH232476   3.826   1.396   2.398 -0.2755  0.3475  0.0822
 3614TIP3    H132477   3.842   1.486   2.370 -1.3385 -0.2101 -2.6511
 3614TIP3    H232478   3.902   1.347   2.367 -0.6992 -0.0344 -0.3620
 3615TIP3   OH232479   2.999   3.525   0.298  0.7376 -0.2401 -0.0187
 3615TIP3    H132480   2.923   3.529   0.241 -0.3166  2.2520  1.3874
 3615TIP3    H232481   3.072   3.555   0.243  0.0580  0.5369 -0.5076
 3616TIP3   OH232482   0.843   4.622   3.165  0.5754  0.1096  0.1615
 3616TIP3    H132483   0.869   4.564   3.236  0.4485 -0.2792 -0.1071
 3616TIP3    H232484   0.781   4.683   3.205 -0.3581 -0.8012  0.1440
 3617TIP3   OH232485   1.940   5.303   2.233  0.2974  0.0642 -0.6407
 3617TIP3    H132486   1.873   5.346   2.178 -0.2277  1.9546  1.3215
 3617TIP3    H232487   1.890   5.261   2.302  1.0644 -0.0314 -0.1373
 3618TIP3   OH232488   4.294   3.922   8.520 -0.1098 -0.3935 -0.0337
 3618TIP3    H132489   4.333   3.951   8.438 -0.1252 -1.1726 -0.3297
 3618TIP3    H232490   4.214   3.876   8.495 -0.5704  0.1108  0.4816
 3619TIP3   OH232491   2.918   3.108   2.381 -0.0766 -0.0718 -0.2626
 3619TIP3    H132492   2.845   3.047   2.371 -1.6144  1.4547  1.0171
 3619TIP3    H232493   2.995   3.053   2.390 -1.5695 -1.9201  2.3252
 3620TIP3   OH232494   4.125   0.019   8.288 -0.0410 -0.2308 -0.4922
 3620TIP3    H132495   4.120   0.003   8.194 -0.5714 -0.8526 -0.3642
 3620TIP3    H232496   4.094   0.109   8.299 -1.4159 -0.6409 -0.7726
 3621TIP3   OH232497   1.211   3.800   2.205  0.5897  0.1967 -0.2153
 3621TIP3    H132498   1.300   3.823   2.234  1.2384 -0.7656 -1.3298
 3621TIP3    H232499   1.182   3.734   2.269  1.2510 -0.5099 -0.6183
 3622TIP3   OH232500   3.944   4.173   0.752 -0.0588 -0.0349  0.0378
 3622TIP3    H132501   3.947   4.141   0.842  1.4369  0.7190  0.2811
 3622TIP3    H232502   4.001   4.114   0.703 -0.6202 -0.2551 -0.3576
 3623TIP3   OH232503   5.092   5.903   0.451  0.3680  0.0115 -0.3798
 3623TIP3    H132504   5.040   5.983   0.462 -0.5950 -0.4562 -1.3796
 3623TIP3    H232505   5.182   5.934   0.437  0.0239  0.9091 -0.6677
 3624TIP3   OH232506   5.271   4.917   8.186 -0.1172 -0.0885  0.2380
 3624TIP3    H132507   5.361   4.907   8.157 -0.0568  0.6177  0.1647
 3624TIP3    H232508   5.220   4.926   8.105 -0.2332 -0.2797  0.2867
 3625TIP3   OH232509   4.963   1.053   8.367  0.2452  0.3258 -1.0339
 3625TIP3    H132510   4.972   1.084   8.458 -0.0167 -0.8285 -0.5965
 3625TIP3    H232511   5.021   0.977   8.362 -0.1728  0.0378 -1.6702
 3626TIP3   OH232512   1.905   1.911   1.717 -0.3065  0.4160  0.6204
 3626TIP3    H132513   1.962   1.882   1.646 -1.2719  0.1043 -0.0525
 3626TIP3    H232514   1.839   1.966   1.674 -0.7336  0.4644  1.3179
 3627TIP3   OH232515   2.520   6.385   1.023 -0.1243  0.1177  0.1770
 3627TIP3    H132516   2.433   6.407   0.990  0.5509  1.1635 -1.0349
 3627TIP3    H232517   2.526   6.431   1.107 -0.0042  1.8422 -0.7251
 3628TIP3   OH232518   3.176   0.261   0.545 -0.1631  0.1796 -0.0955
 3628TIP3    H132519   3.186   0.188   0.483  1.2853  0.5328 -0.3246
 3628TIP3    H232520   3.226   0.233   0.622  1.3314  1.3382 -0.5932
 3629TIP3   OH232521   3.640   0.193   2.400  0.5104 -0.1940  0.0422
 3629TIP3    H132522   3.722   0.146   2.384  0.1391 -1.6622  2.1598
 3629TIP3    H232523   3.571   0.128   2.387 -0.3671  0.9503 -1.4171
 3630TIP3   OH232524   2.187   0.130   1.292  0.1078  0.0027  0.0382
 3630TIP3    H132525   2.157   0.040   1.283  1.7770 -0.6039  0.1979
 3630TIP3    H232526   2.230   0.133   1.378 -1.1693  1.3507  0.6779
 3631TIP3   OH232527   3.969   2.791   1.436 -0.1930  0.2699 -0.5699
 3631TIP3    H132528   3.989   2.802   1.529  0.8144 -0.6147 -0.6666
 3631TIP3    H232529   3.881   2.753   1.435 -1.3952  2.8359 -0.0859
 3632TIP3   OH232530   5.463   0.379   2.860  0.2829 -0.2675 -0.0051
 3632TIP3    H132531   5.403   0.369   2.934 -0.2599 -2.0972 -0.6384
 3632TIP3    H232532   5.535   0.432   2.895 -0.2002 -0.6678  1.6941
 3633TIP3   OH232533   4.156   0.342   1.786  0.0102  0.1412 -0.3139
 3633TIP3    H132534   4.209   0.410   1.744  0.4561  0.4968  0.7847
 3633TIP3    H232535   4.219   0.289   1.834 -0.5207 -0.0785  0.1494
 3634TIP3   OH232536   5.781   0.178   8.104  0.1319  0.4151  0.1359
 3634TIP3    H132537   5.859   0.181   8.048  0.1840  1.6804  0.2579
 3634TIP3    H232538   5.707   0.185   8.042  0.1960  2.1887  0.2056
 3635TIP3   OH232539   6.481   2.346   1.610 -0.1579 -0.3161  0.0224
 3635TIP3    H132540   6.452   2.315   1.695  2.2389 -1.4370  0.5081
 3635TIP3    H232541   6.412   2.318   1.549 -2.2792  1.1401  1.6022
 3636TIP3   OH232542   5.888   5.792   1.786 -0.2285  0.5445 -0.1654
 3636TIP3    H132543   5.977   5.825   1.773  0.0225 -0.6691 -1.9865
 3636TIP3    H232544   5.895   5.733   1.861  0.4259  0.7833 -0.0351
 3637TIP3   OH232545   1.683   0.493   1.223 -0.1235 -0.0521  0.5197
 3637TIP3    H132546   1.724   0.472   1.139  1.1776  1.8015  0.6413
 3637TIP3    H232547   1.651   0.409   1.256 -0.6793 -0.8099 -1.8191
 3638TIP3   OH232548   0.482   1.892   8.737  0.2618  0.1505 -0.4016
 3638TIP3    H132549   0.461   1.846   8.819  0.4357  0.2959 -0.2752
 3638TIP3    H232550   0.460   1.830   8.668 -2.3167  0.8873 -0.3728
 3639TIP3   OH232551   2.224   1.002   8.455 -0.5587 -0.3429  0.1088
 3639TIP3    H132552   2.228   0.988   8.360 -2.1709  1.7728 -0.3646
 3639TIP3    H232553   2.287   0.940   8.492  2.8730  1.1699 -2.6208
 3640TIP3   OH232554   5.676   4.937   1.332 -0.0349  0.0790 -0.4803
 3640TIP3    H132555   5.591   4.961   1.294  0.4387 -1.0148 -2.3463
 3640TIP3    H232556   5.722   5.020   1.340 -1.0465  0.6203  0.0058
 3641TIP3   OH232557   2.800   3.483   1.647 -0.4837 -0.0830 -0.5664
 3641TIP3    H132558   2.708   3.457   1.658 -0.9533  1.4195 -0.7361
 3641TIP3    H232559   2.809   3.563   1.698  1.4328 -1.5091  1.5246
 3642TIP3   OH232560   3.435   5.928   0.879  0.7035 -0.3210 -0.2226
 3642TIP3    H132561   3.397   6.015   0.879  1.2223 -0.0951 -0.1499
 3642TIP3    H232562   3.505   5.931   0.943 -1.0099 -1.5707  1.8521
 3643TIP3   OH232563   0.748   2.188   7.634 -0.0392 -0.1173 -0.6717
 3643TIP3    H132564   0.785   2.146   7.557  0.4802 -1.5768  0.3351
 3643TIP3    H232565   0.817   2.245   7.666  0.0934 -0.2291 -0.7558
 3644TIP3   OH232566   0.821   4.470   2.678  0.1245  0.0439 -0.2639
 3644TIP3    H132567   0.815   4.564   2.664 -0.9243  0.1453  0.6639
 3644TIP3    H232568   0.730   4.440   2.675  0.0830 -0.4102  2.6153
 3645TIP3   OH232569   4.584   3.913   8.570  0.4720  0.0330  0.1548
 3645TIP3    H132570   4.649   3.842   8.579  1.4408  0.7814 -0.6862
 3645TIP3    H232571   4.572   3.921   8.475  0.3622  0.9760  0.2456
 3646TIP3   OH232572   5.079   0.947   1.187  0.9764  0.3166 -0.0737
 3646TIP3    H132573   5.014   1.016   1.171  2.7384  2.0919  0.0483
 3646TIP3    H232574   5.029   0.878   1.231 -0.9995  1.2293 -0.7478
 3647TIP3   OH232575   1.640   4.442   1.168  0.2333 -0.3695  0.1452
 3647TIP3    H132576   1.624   4.520   1.115 -2.4420 -1.4201 -0.7775
 3647TIP3    H232577   1.694   4.473   1.241  1.3549  1.7822 -1.4562
 3648TIP3   OH232578   1.279   5.672   8.294  0.1180  0.1374  0.4072
 3648TIP3    H132579   1.209   5.703   8.236  0.3610 -1.7965 -1.0334
 3648TIP3    H232580   1.335   5.748   8.308 -1.4016  1.3222  0.3132
 3649TIP3   OH232581   4.346   5.648   7.888 -0.1406  0.2574 -0.2401
 3649TIP3    H132582   4.324   5.696   7.968  0.9525 -0.3747  0.4594
 3649TIP3    H232583   4.311   5.703   7.818 -0.3762  1.2561  0.6242
 3650TIP3   OH232584   3.658   5.158   1.228 -0.0634  0.0924  0.2363
 3650TIP3    H132585   3.662   5.079   1.282 -1.2295  0.5023  0.9515
 3650TIP3    H232586   3.565   5.180   1.225 -0.0141  0.1844 -1.8036
 3651TIP3   OH232587   1.416   6.321   1.026  0.6550  0.1399 -0.2537
 3651TIP3    H132588   1.386   6.259   0.959 -0.6174 -0.0496  0.4423
 3651TIP3    H232589   1.459   6.266   1.092  0.0596  0.0488  0.0714
 3652TIP3   OH232590   2.733   6.800   0.066 -0.7831 -0.2503 -0.2938
 3652TIP3    H132591   2.719   6.887   0.030 -0.8815 -1.2646 -2.9308
 3652TIP3    H232592   2.828   6.791   0.072 -0.7459  0.9697  2.7083
 3653TIP3   OH232593   5.283   0.008   8.126 -0.1416  0.2080  0.5231
 3653TIP3    H132594   5.270  -0.050   8.050 -0.4767 -0.3401  0.9938
 3653TIP3    H232595   5.212  -0.015   8.186  0.4035  0.3034  1.2115
 3654TIP3   OH232596   6.683   2.621   1.175 -0.1046  0.1724  0.1535
 3654TIP3    H132597   6.718   2.710   1.169  0.2642  0.0225  0.0764
 3654TIP3    H232598   6.644   2.616   1.262  1.5031 -0.1805  0.8751
 3655TIP3   OH232599   3.022   1.997   3.177 -0.3491  0.6871 -0.1697
 3655TIP3    H132600   2.981   2.070   3.224 -1.0572  0.7500 -0.8760
 3655TIP3    H232601   2.981   1.919   3.216 -0.5322  0.7189 -0.2957
 3656TIP3   OH232602   2.395   1.254   1.819 -0.6055  0.3366  0.1708
 3656TIP3    H132603   2.374   1.344   1.795 -0.0110  0.2765 -0.6006
 3656TIP3    H232604   2.417   1.211   1.736  1.9488  0.2452  0.8040
 3657TIP3   OH232605   4.602   6.275   7.706  0.4626 -0.2852 -0.2039
 3657TIP3    H132606   4.653   6.218   7.648  1.6368 -0.3632  0.8593
 3657TIP3    H232607   4.648   6.271   7.790 -1.5813 -0.7086  0.9622
 3658TIP3   OH232608   3.760   5.293   1.926 -0.8241 -0.4149  0.0178
 3658TIP3    H132609   3.775   5.199   1.937  0.1608 -0.2798 -0.0578
 3658TIP3    H232610   3.769   5.329   2.014 -1.0862 -0.3744  0.0285
 3659TIP3   OH232611   2.798   3.060   7.721  0.1923  0.0115  0.5320
 3659TIP3    H132612   2.738   3.131   7.745  2.2812  2.2534 -0.4119
 3659TIP3    H232613   2.858   3.054   7.795  0.2364 -0.5629  0.4551
 3660TIP3   OH232614   5.485   3.117   8.394 -0.1326 -0.2733 -0.3150
 3660TIP3    H132615   5.508   3.207   8.417 -0.5410 -0.3889  0.6104
 3660TIP3    H232616   5.455   3.122   8.303 -3.5689  1.2135  0.7078
 3661TIP3   OH232617   6.462   5.547   1.777 -0.2176 -0.0963  0.1259
 3661TIP3    H132618   6.469   5.468   1.723 -1.1306  0.0056 -0.1624
 3661TIP3    H232619   6.516   5.611   1.732  0.0853 -0.3936  0.0591
 3662TIP3   OH232620   6.276   6.377   2.267 -0.2952  0.1700 -0.4089
 3662TIP3    H132621   6.263   6.309   2.334  0.9117  0.8318  0.5467
 3662TIP3    H232622   6.202   6.367   2.208 -0.2384 -1.9094 -0.2335
 3663TIP3   OH232623   3.696   3.629   1.017  0.0897 -0.3013  0.0283
 3663TIP3    H132624   3.701   3.669   0.930  0.7857 -0.7644 -0.1531
 3663TIP3    H232625   3.650   3.546   1.002 -1.4976  0.4559  0.4282
 3664TIP3   OH232626   0.631   0.585   8.730  0.2105  0.6394 -0.2816
 3664TIP3    H132627   0.538   0.585   8.707 -0.1241 -1.5838  0.8088
 3664TIP3    H232628   0.659   0.675   8.716 -1.9195  1.2110 -1.3309
 3665TIP3   OH232629   5.845   2.796   8.708  0.1300  0.2472  0.1463
 3665TIP3    H132630   5.928   2.835   8.734  0.4041  0.1028 -0.4949
 3665TIP3    H232631   5.778   2.855   8.743  0.5358  1.3534 -0.8802
 3666TIP3   OH232632   5.220   4.890   0.447  0.4802 -0.3026 -0.2117
 3666TIP3    H132633   5.187   4.939   0.372  1.2049  0.0252 -0.3187
 3666TIP3    H232634   5.155   4.821   0.461 -0.4768  0.5943 -0.1475
 3667TIP3   OH232635   4.344   5.712   0.704 -0.0578  0.3028  0.8865
 3667TIP3    H132636   4.374   5.627   0.672 -0.5388 -0.1097  1.5204
 3667TIP3    H232637   4.312   5.695   0.792  0.1728  1.2143  1.1518
 3668TIP3   OH232638   5.314   1.472   2.592  0.1483  0.4687  0.0608
 3668TIP3    H132639   5.270   1.460   2.677  0.8031  1.6675  0.6013
 3668TIP3    H232640   5.284   1.558   2.562 -0.0490  0.0675 -0.9179
 3669TIP3   OH232641   0.862   1.526   2.408  0.4408 -0.5163  0.0249
 3669TIP3    H132642   0.953   1.525   2.438  1.3209 -0.8634 -2.4734
 3669TIP3    H232643   0.845   1.436   2.380  0.3650  0.1413 -2.2659
 3670TIP3   OH232644   0.715   6.339   8.610  0.4428 -0.1927 -0.2157
 3670TIP3    H132645   0.740   6.410   8.551  1.1557  0.1388  0.4620
 3670TIP3    H232646   0.708   6.381   8.696 -1.1214 -0.5593 -0.1339
 3671TIP3   OH232647   1.755   3.668   1.301  0.1757 -0.4284 -0.2274
 3671TIP3    H132648   1.840   3.644   1.339 -0.1477 -1.7229 -0.2946
 3671TIP3    H232649   1.758   3.634   1.211 -0.0897  0.2829 -0.5142
 3672TIP3   OH232650   2.153   6.704   2.723  0.3922  0.2012  0.0740
 3672TIP3    H132651   2.143   6.625   2.668  0.3635 -0.2165  0.6708
 3672TIP3    H232652   2.072   6.708   2.774  0.6038  0.3389  0.4004
 3673TIP3   OH232653   3.811   3.250   7.610  0.4756  0.0780 -0.1323
 3673TIP3    H132654   3.727   3.219   7.644  0.3845  0.4832  0.0241
 3673TIP3    H232655   3.790   3.291   7.526  0.3495  1.1166  0.3912
 3674TIP3   OH232656   6.357   3.832   2.524 -0.2941  1.1515 -0.0020
 3674TIP3    H132657   6.407   3.808   2.602 -0.2245 -1.2725 -0.7009
 3674TIP3    H232658   6.269   3.797   2.541 -0.6056  1.6661 -0.5175
 3675TIP3   OH232659   3.148   4.895   0.516  0.1956 -0.3095 -0.6043
 3675TIP3    H132660   3.227   4.934   0.478 -0.2477 -0.3992 -1.6620
 3675TIP3    H232661   3.141   4.809   0.474 -0.7089 -0.1151 -0.8827
 3676TIP3   OH232662   4.253   2.894   2.528 -0.1542  0.3427  0.0958
 3676TIP3    H132663   4.270   2.842   2.607  2.6872  0.0697 -0.5967
 3676TIP3    H232664   4.250   2.830   2.457 -0.8568  0.7755 -0.2812
 3677TIP3   OH232665   5.505   2.354   0.758  0.2956  0.2123  0.1627
 3677TIP3    H132666   5.418   2.360   0.798  0.5087  0.3841  0.6096
 3677TIP3    H232667   5.559   2.310   0.824  0.4761 -0.1690 -0.2364
 3678TIP3   OH232668   4.316   3.513   8.253  0.2365  0.4225 -0.1779
 3678TIP3    H132669   4.320   3.586   8.314 -0.5115  0.7220 -0.4654
 3678TIP3    H232670   4.251   3.541   8.188 -0.6409 -0.8162  0.1354
 3679TIP3   OH232671   2.728   5.594   0.905  0.4804  0.1659  0.1183
 3679TIP3    H132672   2.639   5.567   0.927  0.2148  2.1022  1.6927
 3679TIP3    H232673   2.779   5.577   0.984  2.0668 -2.7907 -1.3870
 3680TIP3   OH232674   5.349   2.723   8.627  0.3855  0.5724  0.6485
 3680TIP3    H132675   5.377   2.661   8.694  1.8379  0.2362 -0.2219
 3680TIP3    H232676   5.426   2.778   8.612 -0.2150  1.2353 -0.0713
 3681TIP3   OH232677   6.075   1.469   8.755 -0.2568 -0.5901  0.1724
 3681TIP3    H132678   6.166   1.468   8.724  0.0245 -0.5479  0.9758
 3681TIP3    H232679   6.075   1.411   8.831 -1.1644 -1.5217 -0.4965
 3682TIP3   OH232680   2.795   2.412   1.245  0.3937  0.1360 -0.2926
 3682TIP3    H132681   2.865   2.477   1.238  0.0884  0.5742  0.5654
 3682TIP3    H232682   2.827   2.349   1.309  1.0597 -1.0742 -1.7603
 3683TIP3   OH232683   0.333   4.710   0.999  0.3341  0.7031  0.0594
 3683TIP3    H132684   0.397   4.776   1.025 -0.6607  1.4787  0.6041
 3683TIP3    H232685   0.290   4.747   0.922 -1.4071  1.5205  1.3592
 3684TIP3   OH232686   1.693   2.197   0.897 -0.6760 -0.4575  0.3143
 3684TIP3    H132687   1.734   2.247   0.967 -1.1453  1.2950 -0.5846
 3684TIP3    H232688   1.731   2.109   0.904  0.9325  0.2700  1.3617
 3685TIP3   OH232689   6.113   2.757   1.748 -0.1719 -0.0069  0.5514
 3685TIP3    H132690   6.035   2.791   1.704  0.4374  0.4762 -0.1909
 3685TIP3    H232691   6.172   2.734   1.677  1.5422  2.4256  1.0440
 3686TIP3   OH232692   2.759   2.714   1.637  0.5138  0.1535  0.1642
 3686TIP3    H132693   2.668   2.685   1.640  1.0339 -1.5089  1.8963
 3686TIP3    H232694   2.769   2.757   1.552 -1.7765  0.0747 -0.1868
 3687TIP3   OH232695   3.241   2.393   2.896  0.0146 -0.0222 -0.0645
 3687TIP3    H132696   3.215   2.306   2.924 -2.0192  0.4284 -0.3413
 3687TIP3    H232697   3.302   2.423   2.963  1.6434 -2.0426 -0.5654
 3688TIP3   OH232698   4.913   6.346   8.136 -0.3521 -0.4172 -0.0861
 3688TIP3    H132699   4.979   6.278   8.122  2.7523  2.4502 -0.8326
 3688TIP3    H232700   4.907   6.354   8.231  2.3086  0.7539  0.0961
 3689TIP3   OH232701   2.291   5.777   8.363  0.0337  0.1273  0.5581
 3689TIP3    H132702   2.343   5.829   8.302  0.8520  0.7301  1.7142
 3689TIP3    H232703   2.252   5.708   8.310  0.6619  0.6665 -0.6396
 3690TIP3   OH232704   4.885   1.130   1.956 -0.5647 -0.0072  0.1274
 3690TIP3    H132705   4.837   1.050   1.934 -1.2931  0.1278  1.1406
 3690TIP3    H232706   4.962   1.100   2.003  0.5995 -0.2496 -1.8330
 3691TIP3   OH232707   1.345   0.047   2.535  0.7335 -0.3093  0.0759
 3691TIP3    H132708   1.392   0.089   2.464  1.1523 -2.2985 -0.9093
 3691TIP3    H232709   1.393   0.070   2.615 -0.3396  2.8042 -0.0637
 3692TIP3   OH232710   3.063   1.621   8.768 -0.6026 -0.3454 -0.0845
 3692TIP3    H132711   3.062   1.589   8.858 -0.4119 -0.3255 -0.0746
 3692TIP3    H232712   3.013   1.703   8.771 -2.4654 -1.4174 -0.4130
 3693TIP3   OH232713   4.630   2.581   1.727 -0.1246 -0.4739 -0.1242
 3693TIP3    H132714   4.548   2.626   1.706 -0.3896  0.5646  2.6656
 3693TIP3    H232715   4.687   2.598   1.652 -1.4408  1.4229 -0.7660
 3694TIP3   OH232716   3.250   5.965   1.474  0.0021  0.2363  0.0132
 3694TIP3    H132717   3.304   5.988   1.550  1.0448 -0.0148 -0.6246
 3694TIP3    H232718   3.220   6.049   1.440  1.4535  0.5236 -0.6412
 3695TIP3   OH232719   3.673   6.381   0.564 -0.3254  0.7276 -0.0077
 3695TIP3    H132720   3.621   6.435   0.623 -2.0837 -0.0907 -0.7190
 3695TIP3    H232721   3.624   6.299   0.557  1.2729 -0.2348 -0.4501
 3696TIP3   OH232722   3.528   0.415   0.921 -0.1002 -0.2537 -0.1508
 3696TIP3    H132723   3.485   0.501   0.925 -0.4228 -0.3187 -1.5282
 3696TIP3    H232724   3.599   0.421   0.985 -1.1806  0.4147  1.0298
 3697TIP3   OH232725   3.028   5.423   1.655  0.3764 -0.6409 -0.0659
 3697TIP3    H132726   3.056   5.497   1.708  0.0689  0.2684 -1.1310
 3697TIP3    H232727   2.942   5.399   1.689  0.4757 -0.5064  0.2778
 3698TIP3   OH232728   4.983   4.876   3.447 -0.1650  0.3129 -0.5441
 3698TIP3    H132729   5.008   4.854   3.537  1.9156  1.6626 -0.7347
 3698TIP3    H232730   4.935   4.959   3.456 -1.3712 -0.3568 -0.5621
 3699TIP3   OH232731   6.765   1.335   3.365  0.4866  0.2648  0.0816
 3699TIP3    H132732   6.789   1.417   3.322  0.5562 -0.0514 -0.4955
 3699TIP3    H232733   6.842   1.279   3.355 -0.6225 -1.0286 -2.4503
 3700TIP3   OH232734   0.583   6.171   2.351  0.1133 -0.4226  0.0015
 3700TIP3    H132735   0.493   6.156   2.324 -0.3295  2.1636 -0.2573
 3700TIP3    H232736   0.634   6.168   2.270  0.0449 -0.5777 -0.0345
 3701TIP3   OH232737   3.266   0.869   0.283 -0.6093  0.4096 -0.1405
 3701TIP3    H132738   3.285   0.956   0.247 -4.2300  1.0820 -0.7941
 3701TIP3    H232739   3.261   0.812   0.206  0.9848 -0.2582  0.2216
 3702TIP3   OH232740   5.659   4.486   2.601 -0.3544 -0.6384 -0.1567
 3702TIP3    H132741   5.745   4.496   2.642 -0.4897  0.8779 -0.1705
 3702TIP3    H232742   5.670   4.525   2.514 -1.2583  0.4049  0.1683
 3703TIP3   OH232743   6.027   3.754   0.148  0.2247  0.3196  0.0353
 3703TIP3    H132744   5.960   3.800   0.197 -0.2244 -0.5419  0.2552
 3703TIP3    H232745   6.057   3.817   0.082 -0.6963  0.7552  0.0208
 3704TIP3   OH232746   6.634   4.341   0.891  0.0362  0.2137  0.0386
 3704TIP3    H132747   6.560   4.297   0.851 -1.0719  2.0725 -0.0693
 3704TIP3    H232748   6.709   4.284   0.873 -0.7666 -0.0682 -2.7848
 3705TIP3   OH232749   5.229   0.526   8.110 -0.3504 -0.8208 -0.0314
 3705TIP3    H132750   5.318   0.561   8.104 -1.5237  2.4107 -0.5608
 3705TIP3    H232751   5.208   0.531   8.203 -0.6642  0.5131 -0.1461
 3706TIP3   OH232752   0.971   0.298   0.468 -0.0932  0.4137  0.5717
 3706TIP3    H132753   0.948   0.211   0.435 -0.0511 -0.4052  2.5524
 3706TIP3    H232754   0.908   0.315   0.538  1.1448  1.0609  1.5780
 3707TIP3   OH232755   4.604   3.095   6.868  0.4275 -0.1507  0.1152
 3707TIP3    H132756   4.616   3.022   6.928  0.6729 -1.9977 -2.0491
 3707TIP3    H232757   4.520   3.078   6.826  1.9900 -1.1947 -2.8829
 3708TIP3   OH232758   1.490   0.524   8.594  0.1201 -0.0953 -0.3599
 3708TIP3    H132759   1.432   0.479   8.532  0.4997 -1.0759 -0.0180
 3708TIP3    H232760   1.549   0.456   8.626  0.9394  0.7189 -0.0853
 3709TIP3   OH232761   3.872   4.527   7.800 -0.0515  0.7994 -0.3292
 3709TIP3    H132762   3.852   4.434   7.792 -0.8238  0.7094  2.0366
 3709TIP3    H232763   3.853   4.549   7.891  1.1717  3.0425 -0.5270
 3710TIP3   OH232764   3.591   0.716   1.857 -0.5683 -0.2001  0.4065
 3710TIP3    H132765   3.580   0.621   1.845 -0.5800 -0.0806 -0.5913
 3710TIP3    H232766   3.519   0.741   1.916 -0.0238 -0.9472  1.4227
 3711TIP3   OH232767   1.646   3.753   2.533  0.1921  0.7099  0.4661
 3711TIP3    H132768   1.692   3.820   2.482 -0.7146  2.5827  1.9342
 3711TIP3    H232769   1.664   3.777   2.624 -0.2816 -1.0047  1.0355
 3712TIP3   OH232770   1.990   1.125   8.515  0.1190 -0.1931 -0.0800
 3712TIP3    H132771   2.076   1.089   8.491  0.6183  0.5297  0.5712
 3712TIP3    H232772   1.942   1.127   8.433 -0.2795 -3.1528 -0.0488
 3713TIP3   OH232773   4.450   5.221   2.407 -0.2575  0.1159 -0.3026
 3713TIP3    H132774   4.460   5.221   2.312 -0.6382  1.2635 -0.3471
 3713TIP3    H232775   4.523   5.273   2.439 -0.5886  0.4072 -0.0157
 3714TIP3   OH232776   6.580   3.384   1.778 -0.0898 -0.2763 -0.1936
 3714TIP3    H132777   6.585   3.289   1.779 -3.6690 -0.7074  3.8621
 3714TIP3    H232778   6.515   3.405   1.712  0.9941 -0.5029 -1.3781
 3715TIP3   OH232779   5.351   4.272   8.781  0.0820 -0.6009 -0.0747
 3715TIP3    H132780   5.313   4.255   8.867 -0.1752 -0.8797 -0.2428
 3715TIP3    H232781   5.410   4.346   8.795 -0.9219  0.1989  0.0791
 3716TIP3   OH232782   6.228   6.051   3.605  0.1395  0.1964  0.1694
 3716TIP3    H132783   6.245   5.957   3.616  0.5410  0.1289 -0.9311
 3716TIP3    H232784   6.145   6.066   3.650  0.8520 -0.3713  1.7465
 3717TIP3   OH232785   1.395   0.064   3.500  0.3273  0.5208 -0.2856
 3717TIP3    H132786   1.373  -0.015   3.550  0.0110  1.9467  1.9659
 3717TIP3    H232787   1.490   0.072   3.509  0.2646  0.8049  0.1762
 3718TIP3   OH232788   4.989   1.152   8.614  0.3721 -0.0773 -0.4515
 3718TIP3    H132789   4.941   1.094   8.674 -1.0056  0.0340 -1.4124
 3718TIP3    H232790   5.009   1.229   8.667  0.4999 -0.6000  0.2835
 3719TIP3   OH232791   3.217   1.821   8.657  0.2022  0.5248 -0.6809
 3719TIP3    H132792   3.230   1.814   8.562  1.9415 -0.3402 -0.4199
 3719TIP3    H232793   3.175   1.739   8.682 -0.0981  0.6805 -0.6636
 3720TIP3   OH232794   4.259   3.712   1.206  0.2202  0.0065  0.3726
 3720TIP3    H132795   4.166   3.708   1.184 -0.0997 -0.0972  1.6769
 3720TIP3    H232796   4.275   3.633   1.257  1.3042 -0.5528 -0.7697
 3721TIP3   OH232797   2.689   1.865   0.326  0.5793  0.6329  0.0167
 3721TIP3    H132798   2.774   1.896   0.356  0.3585  0.8042  0.4834
 3721TIP3    H232799   2.690   1.878   0.231  0.7700  1.3828  0.1162
 3722TIP3   OH232800   0.265   3.956   8.341  0.5401 -0.2473 -0.6227
 3722TIP3    H132801   0.251   3.912   8.424  0.0437  0.8485 -0.0919
 3722TIP3    H232802   0.182   4.001   8.324  0.5074 -0.7588 -1.9002
 3723TIP3   OH232803   1.968   6.412   2.103  0.2947 -0.0846 -0.0697
 3723TIP3    H132804   1.984   6.372   2.017 -0.3949  0.4299 -0.4488
 3723TIP3    H232805   1.937   6.340   2.158  1.6221 -0.6184  0.0312
 3724TIP3   OH232806   0.724   4.893   0.905 -0.2066  0.1831  0.7035
 3724TIP3    H132807   0.710   4.828   0.836  0.2014  1.9008 -1.0865
 3724TIP3    H232808   0.648   4.882   0.964 -0.2321 -1.7423  0.3743
 3725TIP3   OH232809   0.678   2.630   1.655  0.2167 -0.0948  0.3930
 3725TIP3    H132810   0.727   2.554   1.624  0.2939  0.3178 -0.5288
 3725TIP3    H232811   0.743   2.683   1.701 -0.1780 -1.3713  2.5641
 3726TIP3   OH232812   3.135   3.751   2.252 -0.3285  0.4926  0.6459
 3726TIP3    H132813   3.042   3.732   2.262  0.1967 -2.4856  0.8547
 3726TIP3    H232814   3.178   3.698   2.319  1.7182 -1.3070 -1.8666
 3727TIP3   OH232815   1.931   0.486   2.033  0.2057 -0.5283 -0.3187
 3727TIP3    H132816   1.994   0.491   1.961  0.5209 -1.5516 -0.1352
 3727TIP3    H232817   1.951   0.403   2.077 -0.0362  0.0389  0.8993
 3728TIP3   OH232818   0.321   5.999   8.047  0.4231  0.0370  0.8355
 3728TIP3    H132819   0.276   5.948   7.979 -0.3468 -0.0413  1.3817
 3728TIP3    H232820   0.399   5.947   8.068  1.0496  0.4089 -0.4621
 3729TIP3   OH232821   0.788   0.322   8.491  0.4355 -0.1273  0.9342
 3729TIP3    H132822   0.750   0.365   8.414  1.6081 -0.1355  0.3406
 3729TIP3    H232823   0.837   0.390   8.536  1.2043 -0.5163  0.7093
 3730TIP3   OH232824   6.470   4.853   7.590 -0.7333 -0.6721  0.0118
 3730TIP3    H132825   6.559   4.862   7.622 -0.6918 -1.9245  0.2885
 3730TIP3    H232826   6.426   4.933   7.619  0.1974 -0.2062  0.1792
 3731TIP3   OH232827   5.561   3.710   0.877 -0.3953  0.4698  0.1388
 3731TIP3    H132828   5.489   3.706   0.940 -1.6388 -0.5812 -1.2462
 3731TIP3    H232829   5.552   3.796   0.836 -2.7437 -0.6244 -1.9704
 3732TIP3   OH232830   1.993   6.094   8.747 -0.1462  0.3104  0.3191
 3732TIP3    H132831   1.925   6.093   8.680 -1.6593  0.8948  1.7580
 3732TIP3    H232832   2.073   6.118   8.701 -0.6158 -1.6536 -1.6601
 3733TIP3   OH232833   4.234   4.622   7.815 -0.4995  0.3332 -0.4809
 3733TIP3    H132834   4.200   4.700   7.859 -1.4426  0.2749 -1.0692
 3733TIP3    H232835   4.176   4.552   7.842  1.0459 -0.4410  0.9819
 3734TIP3   OH232836   4.272   3.028   0.927  0.0643  0.4305  0.2241
 3734TIP3    H132837   4.282   3.119   0.900  1.4653  0.2694  0.1672
 3734TIP3    H232838   4.323   3.020   1.008  0.6112 -0.4907 -0.1964
 3735TIP3   OH232839   5.500   2.298   1.784  0.0435 -0.1399 -0.1169
 3735TIP3    H132840   5.491   2.293   1.879  1.1069 -0.3813 -0.0124
 3735TIP3    H232841   5.518   2.208   1.757 -2.5554 -0.5144 -0.8470
 3736TIP3   OH232842   5.186   3.378   8.099 -0.4767  0.1730 -0.0839
 3736TIP3    H132843   5.118   3.407   8.160 -0.6032 -0.9247  0.3251
 3736TIP3    H232844   5.265   3.422   8.130 -0.9229  1.2465 -0.3976
 3737TIP3   OH232845   3.056   3.711   2.720 -0.7570 -0.2388  0.0634
 3737TIP3    H132846   3.124   3.647   2.741  0.6588  1.1056 -0.2456
 3737TIP3    H232847   3.000   3.714   2.798 -0.7301 -1.6549  0.1634
 3738TIP3   OH232848   2.678   4.685   1.213  0.2348  0.0556  0.2111
 3738TIP3    H132849   2.620   4.609   1.211 -2.4105  1.9321  0.2577
 3738TIP3    H232850   2.697   4.698   1.306 -0.3847  0.1909  0.3224
 3739TIP3   OH232851   0.459   3.125   2.308 -0.5425 -0.8983  0.6783
 3739TIP3    H132852   0.500   3.168   2.233 -1.8316 -1.5374 -0.4257
 3739TIP3    H232853   0.456   3.033   2.284 -2.2106 -0.9255  0.8979
 3740TIP3   OH232854   6.057   4.024   1.799 -0.8527  0.0055  0.5966
 3740TIP3    H132855   6.000   3.948   1.809 -0.0126 -0.5873  0.9529
 3740TIP3    H232856   6.047   4.049   1.707 -0.5741 -1.0115  0.2656
 3741TIP3   OH232857   4.050   4.980   2.055 -0.0635 -0.1407 -0.1294
 3741TIP3    H132858   4.130   4.956   2.009  0.4985  0.4062  0.5220
 3741TIP3    H232859   4.070   4.964   2.147 -1.1112 -1.0790 -0.0458
 3742TIP3   OH232860   0.421   5.836   0.266  0.0877 -0.2430 -0.4357
 3742TIP3    H132861   0.349   5.777   0.245  0.2863 -0.2415 -1.1589
 3742TIP3    H232862   0.493   5.809   0.208  0.3845  0.2982 -0.3357
 3743TIP3   OH232863   1.581   3.268   8.809 -0.4605  0.0667  0.0429
 3743TIP3    H132864   1.597   3.357   8.840  0.3367 -1.0631  3.2836
 3743TIP3    H232865   1.665   3.224   8.816 -1.1260 -1.3070 -0.1488
 3744TIP3   OH232866   5.457   0.152   0.709 -0.2282 -0.3269  0.2592
 3744TIP3    H132867   5.532   0.106   0.672  0.8179  1.0689  0.5873
 3744TIP3    H232868   5.490   0.193   0.788 -1.7587 -0.9889  1.2972
 3745TIP3   OH232869   0.832   6.136   3.070 -0.4341 -0.2045 -0.5179
 3745TIP3    H132870   0.874   6.217   3.040  1.7702 -1.3620 -0.7104
 3745TIP3    H232871   0.749   6.133   3.021 -0.6784  2.0048 -0.3586
 3746TIP3   OH232872   4.515   1.696   7.842 -0.4024  0.0575 -0.2241
 3746TIP3    H132873   4.542   1.608   7.815 -1.4131 -0.5165  0.5430
 3746TIP3    H232874   4.485   1.738   7.762 -0.1498 -0.3870 -0.5539
 3747TIP3   OH232875   4.241   5.967   0.682 -0.7145  0.5515  0.0772
 3747TIP3    H132876   4.289   6.014   0.751 -0.7520 -0.7091  1.0069
 3747TIP3    H232877   4.272   5.876   0.689  1.1257  0.7644 -3.1957
 3748TIP3   OH232878   1.970   1.441   2.362  0.7731 -0.4480 -0.3681
 3748TIP3    H132879   1.958   1.535   2.371 -0.6061 -0.7065  0.8168
 3748TIP3    H232880   2.014   1.431   2.277  0.4553  1.2143 -0.7695
 3749TIP3   OH232881   4.071   0.600   0.290 -0.5948 -0.1568  0.1696
 3749TIP3    H132882   4.036   0.593   0.201 -3.5647  0.3604  1.1642
 3749TIP3    H232883   4.166   0.601   0.279 -0.8535 -0.2225 -2.9577
 3750TIP3   OH232884   3.029   4.910   1.794  0.5377 -0.0287 -0.1530
 3750TIP3    H132885   2.972   4.835   1.779 -2.0655  1.6284  0.6466
 3750TIP3    H232886   3.022   4.926   1.888  0.6201  1.4998 -0.3839
 3751TIP3   OH232887   1.176   5.432   8.369 -0.1473  0.2113  0.1527
 3751TIP3    H132888   1.206   5.506   8.316  0.9249  0.4004  0.9746
 3751TIP3    H232889   1.179   5.465   8.459  1.4710 -1.1485  0.6538
 3752TIP3   OH232890   2.825   4.154   1.652  0.1376 -0.1177 -0.0847
 3752TIP3    H132891   2.806   4.199   1.570 -0.5515  0.3027  0.2858
 3752TIP3    H232892   2.821   4.061   1.630  0.7517 -0.0071 -0.6888
 3753TIP3   OH232893   2.795   1.189   2.794  0.3739 -0.2023  0.5627
 3753TIP3    H132894   2.856   1.226   2.858 -0.7681  2.0373  0.4555
 3753TIP3    H232895   2.830   1.102   2.775 -0.0633 -1.7297  5.4097
 3754TIP3   OH232896   4.065   5.326   1.263 -0.2651  0.4563  0.0508
 3754TIP3    H132897   4.015   5.262   1.314 -0.7012 -0.2077 -1.1722
 3754TIP3    H232898   4.002   5.362   1.202  0.5670  0.1627 -1.0024
 3755TIP3   OH232899   2.400   3.202   2.848 -0.1462 -0.0580 -0.3723
 3755TIP3    H132900   2.316   3.216   2.891 -0.5441  1.1518 -1.4724
 3755TIP3    H232901   2.464   3.203   2.919 -0.9456  0.1801  0.3598
 3756TIP3   OH232902   3.077   2.917   1.406  0.0020  0.1123  0.2781
 3756TIP3    H132903   3.123   2.998   1.425  0.3166  0.2736 -1.0843
 3756TIP3    H232904   3.114   2.887   1.323 -1.0779 -0.7066  0.0675
 3757TIP3   OH232905   1.347   6.069   1.525 -0.1517  0.3235 -0.1392
 3757TIP3    H132906   1.299   6.089   1.605 -1.5512  1.3330 -1.1963
 3757TIP3    H232907   1.309   5.987   1.493 -1.0295  0.9732 -0.8216
 3758TIP3   OH232908   4.602   0.406   0.308  0.5304 -0.5998 -0.3582
 3758TIP3    H132909   4.652   0.335   0.345  1.7912  0.0097 -0.8386
 3758TIP3    H232910   4.543   0.434   0.378  1.1711 -1.0369  0.3598
 3759TIP3   OH232911   6.272   1.496   7.225 -0.5650  0.0403  0.6176
 3759TIP3    H132912   6.225   1.465   7.302  0.7678  0.1758  1.5142
 3759TIP3    H232913   6.206   1.543   7.174 -1.3363  0.4614  1.9612
 3760TIP3   OH232914   6.642   3.960   2.714 -0.3134  0.2462  0.0900
 3760TIP3    H132915   6.660   3.873   2.750 -0.7381  0.2657  0.3443
 3760TIP3    H232916   6.645   4.019   2.789 -1.2762  0.2773  0.1150
 3761TIP3   OH232917   2.800   3.571   0.097  0.1513  0.3270  0.0592
 3761TIP3    H132918   2.772   3.599   0.010 -0.8051 -1.9768 -0.4427
 3761TIP3    H232919   2.722   3.533   0.137  1.5045 -2.5773  0.1902
 3762TIP3   OH232920   1.621   4.665   7.731  0.1746 -0.0642  0.5584
 3762TIP3    H132921   1.533   4.636   7.707 -0.1370 -0.4466  2.0646
 3762TIP3    H232922   1.678   4.624   7.666 -0.6428 -0.7636  0.2540
 3763TIP3   OH232923   4.445   1.141   0.192 -1.0252  0.8758  0.4595
 3763TIP3    H132924   4.432   1.048   0.170  1.4933  0.6760 -0.6394
 3763TIP3    H232925   4.431   1.146   0.286 -1.3278 -0.6042  0.5159
 3764TIP3   OH232926   1.793   1.916   7.922  0.4030 -0.1280 -0.0954
 3764TIP3    H132927   1.828   1.852   7.984  1.6306 -1.3995 -2.0411
 3764TIP3    H232928   1.777   1.867   7.842 -1.9592  1.2959 -0.5998
 3765TIP3   OH232929   6.500   5.552   8.688  0.1670 -0.4731  0.0727
 3765TIP3    H132930   6.461   5.507   8.762  1.4782 -0.2828  0.9132
 3765TIP3    H232931   6.593   5.560   8.710  0.3812  0.6394 -1.0598
 3766TIP3   OH232932   0.118   3.815   1.949 -1.1066  0.3195  0.1896
 3766TIP3    H132933   0.158   3.843   1.866 -1.9206  0.2313 -0.2440
 3766TIP3    H232934   0.166   3.736   1.973 -1.1623  0.0969 -0.4289
 3767TIP3   OH232935   1.358   1.608   8.822  0.1638  0.4599 -0.6953
 3767TIP3    H132936   1.270   1.610   8.860  0.5596 -0.7240  0.3356
 3767TIP3    H232937   1.411   1.661   8.882  0.4785 -0.1677 -0.4100
 3768TIP3   OH232938   0.890   2.880   8.628 -0.0554  0.5847 -0.3141
 3768TIP3    H132939   0.828   2.943   8.590 -0.0726  0.0917 -1.1228
 3768TIP3    H232940   0.964   2.933   8.656  0.1600  0.9267 -1.4607
 3769TIP3   OH232941   0.163   6.297   3.124  0.1063 -0.0772 -0.2533
 3769TIP3    H132942   0.124   6.260   3.203 -1.1697 -2.0130 -1.7098
 3769TIP3    H232943   0.094   6.354   3.088  0.1557 -0.2804 -0.6781
 3770TIP3   OH232944   3.623   4.167   6.883 -0.0700  0.0432 -0.0604
 3770TIP3    H132945   3.688   4.208   6.826  0.9305  1.4985  2.0116
 3770TIP3    H232946   3.587   4.240   6.934 -4.1410 -0.4822 -1.7488
 3771TIP3   OH232947   2.663   4.963   3.250  0.2888 -0.1207 -0.2177
 3771TIP3    H132948   2.675   4.934   3.341  0.9292  0.6090 -0.0610
 3771TIP3    H232949   2.678   4.884   3.198 -0.7322 -0.7054  0.3230
 3772TIP3   OH232950   3.164   1.103   1.797  0.0718  0.2286  0.2724
 3772TIP3    H132951   3.237   1.165   1.803 -0.0962  0.3103  1.9069
 3772TIP3    H232952   3.168   1.053   1.879 -1.9020  0.4832  0.5760
 3773TIP3   OH232953   1.925   3.350   0.555 -0.0210 -0.4421  0.2684
 3773TIP3    H132954   2.017   3.368   0.535 -0.1437 -0.0730  0.0153
 3773TIP3    H232955   1.896   3.427   0.605 -1.1215  1.1948 -2.6085
 3774TIP3   OH232956   3.054   4.015   0.293 -0.3220  0.0082  0.1985
 3774TIP3    H132957   3.040   4.101   0.254  0.2596  0.5836  1.2322
 3774TIP3    H232958   2.969   3.992   0.331 -0.4096  0.2317  0.1408
 3775TIP3   OH232959   2.865   2.047   0.509 -0.3254 -0.2159  0.1761
 3775TIP3    H132960   2.923   1.978   0.476 -0.4624 -0.1853 -0.1301
 3775TIP3    H232961   2.906   2.074   0.591 -1.0693 -1.6931  1.0865
 3776TIP3   OH232962   0.161   1.894   8.752 -0.0036 -0.6131  0.0998
 3776TIP3    H132963   0.147   1.973   8.804 -3.6344 -0.7837 -0.3968
 3776TIP3    H232964   0.178   1.927   8.663 -0.2878 -0.3892  0.1295
 3777TIP3   OH232965   2.252   2.612   1.678  0.3069  0.0310 -0.3943
 3777TIP3    H132966   2.165   2.584   1.647  0.8478 -1.3131 -0.7795
 3777TIP3    H232967   2.260   2.573   1.765  0.8215 -0.5255 -0.6810
 3778TIP3   OH232968   6.035   4.587   1.317 -0.2886  0.4343  0.2792
 3778TIP3    H132969   6.011   4.496   1.336  0.0173  0.1178 -0.7948
 3778TIP3    H232970   5.970   4.616   1.253  0.4668  0.4935 -0.4804
 3779TIP3   OH232971   5.878   5.178   0.935 -0.0223  0.1991  0.0646
 3779TIP3    H132972   5.903   5.091   0.966  0.2111  0.7879  1.6381
 3779TIP3    H232973   5.837   5.219   1.012 -0.7651  1.2274 -0.8553
 3780TIP3   OH232974   1.002   5.895   7.912 -0.3079  0.0667 -0.9029
 3780TIP3    H132975   1.029   5.957   7.843  0.8403 -0.4098 -0.9141
 3780TIP3    H232976   0.907   5.901   7.914 -0.2083  2.8300  0.0087
 3781TIP3   OH232977   3.150   4.139   3.137 -0.0636  0.4780 -0.5228
 3781TIP3    H132978   3.236   4.179   3.123 -0.5669  2.5753  1.8917
 3781TIP3    H232979   3.169   4.045   3.141  2.1857  0.8985  0.2542
 3782TIP3   OH232980   2.598   2.599   7.475  0.0240 -0.3107 -0.3540
 3782TIP3    H132981   2.523   2.640   7.431 -0.4764 -0.8399 -0.0117
 3782TIP3    H232982   2.662   2.669   7.483 -0.6033  0.2652 -0.2737
 3783TIP3   OH232983   4.269   2.615   0.156  0.2998  0.5034  0.7197
 3783TIP3    H132984   4.230   2.646   0.074  2.5244  1.4941 -0.0439
 3783TIP3    H232985   4.236   2.675   0.222 -0.7579  0.2936  0.4063
 3784TIP3   OH232986   1.845   5.614   1.282 -0.4836  0.1412  0.0630
 3784TIP3    H132987   1.792   5.566   1.345 -1.4035 -0.9970 -1.4906
 3784TIP3    H232988   1.786   5.628   1.207  0.8377  0.5708 -0.9439
 3785TIP3   OH232989   4.728   2.135   0.183  0.4044 -0.3687 -0.1508
 3785TIP3    H132990   4.815   2.147   0.145  0.3427  0.8490  0.0678
 3785TIP3    H232991   4.734   2.172   0.271 -0.3779 -0.1328 -0.1886
 3786TIP3   OH232992   6.671   6.563   1.083  0.4810 -0.3815  0.2200
 3786TIP3    H132993   6.642   6.654   1.086 -0.5338 -0.4642 -3.3337
 3786TIP3    H232994   6.659   6.532   1.173 -2.7168  1.9016  0.7562
 3787TIP3   OH232995   2.055   4.161   8.557 -0.2373  0.4204  0.0054
 3787TIP3    H132996   2.020   4.170   8.468 -0.2927  1.0772  0.0899
 3787TIP3    H232997   2.061   4.067   8.570 -1.3962  0.2990 -0.2381
 3788TIP3   OH232998   5.993   6.792   1.169 -0.4963  0.2108 -0.3419
 3788TIP3    H132999   6.011   6.809   1.077 -1.0715 -2.4628 -1.0334
 3788TIP3    H233000   6.059   6.727   1.195 -1.9125 -1.0193  0.3503
 3789TIP3   OH233001   3.560   6.284   1.060  0.1315 -0.1204 -0.3572
 3789TIP3    H133002   3.484   6.282   1.002 -0.7002  0.7292  0.6769
 3789TIP3    H233003   3.632   6.314   1.003 -0.6308  0.5544 -0.9891
 3790TIP3   OH233004   4.457   0.613   0.427 -1.0349  1.0363 -0.5745
 3790TIP3    H133005   4.476   0.702   0.458  0.5195  0.9015 -1.0771
 3790TIP3    H233006   4.452   0.560   0.506  0.3119  1.1708 -0.3806
 3791TIP3   OH233007   2.477   2.726   2.344 -0.3010  0.4491 -0.2316
 3791TIP3    H133008   2.421   2.800   2.321 -0.4698  0.1114 -0.9314
 3791TIP3    H233009   2.512   2.748   2.430  0.0403  1.5763 -0.6397
 3792TIP3   OH233010   4.435   3.219   2.954 -0.0948  0.7709 -0.0516
 3792TIP3    H133011   4.442   3.178   2.868  2.6468  1.6961 -0.3528
 3792TIP3    H233012   4.448   3.148   3.016  0.5179  0.5155 -0.4715
 3793TIP3   OH233013   1.794   0.155   8.473 -0.0963 -0.0924  0.5496
 3793TIP3    H133014   1.889   0.168   8.480  0.1704 -0.0638 -2.0909
 3793TIP3    H233015   1.779   0.143   8.379 -2.7247 -0.1251  0.9167
 3794TIP3   OH233016   0.239   3.975   8.034  0.4467 -0.0768  0.1803
 3794TIP3    H133017   0.282   3.931   8.108  0.2166  0.3243  0.5634
 3794TIP3    H233018   0.186   3.908   7.994  0.9406 -0.4199  0.0915
 3795TIP3   OH233019   4.608   2.155   1.542 -0.1894 -0.4229  0.9108
 3795TIP3    H133020   4.535   2.186   1.488 -0.9138 -1.1654  1.4604
 3795TIP3    H233021   4.567   2.108   1.614  0.8111 -0.2380  1.6183
 3796TIP3   OH233022   0.303   3.381   8.647 -0.4532  0.4070  0.1516
 3796TIP3    H133023   0.209   3.394   8.658 -0.7401 -1.0548 -0.3194
 3796TIP3    H233024   0.320   3.404   8.556  0.0218  2.4689  0.7081
 3797TIP3   OH233025   3.585   2.443   7.767  0.0995 -0.0231 -0.3008
 3797TIP3    H133026   3.537   2.383   7.825  1.8811  0.4697  1.8095
 3797TIP3    H233027   3.601   2.521   7.820  2.0827  0.3311 -1.3090
 3798TIP3   OH233028   6.168   6.124   0.212  0.1029 -0.7038 -0.5163
 3798TIP3    H133029   6.106   6.051   0.215 -1.5844  0.6912  1.6618
 3798TIP3    H233030   6.213   6.113   0.128 -1.5962 -3.0023 -1.2452
 3799TIP3   OH233031   1.399   4.498   0.506 -0.3024  0.3036  0.0451
 3799TIP3    H133032   1.391   4.508   0.601 -2.0191 -2.1599  0.2514
 3799TIP3    H233033   1.309   4.486   0.475  0.3705 -0.8782 -1.6284
 3800TIP3   OH233034   0.797   2.840   2.966 -0.3730  0.4490 -0.4380
 3800TIP3    H133035   0.753   2.921   2.940 -1.4451 -0.0211 -0.1413
 3800TIP3    H233036   0.882   2.869   3.000 -1.7405  1.7727  2.1374
 3801TIP3   OH233037   5.084   4.914   2.417 -0.1567 -0.6560  0.1135
 3801TIP3    H133038   5.112   4.990   2.366  1.5492 -0.2646  1.5371
 3801TIP3    H233039   5.010   4.879   2.368 -1.0664  1.9529 -0.5586
 3802TIP3   OH233040   1.820   1.888   0.482  0.0192 -0.0111  0.0928
 3802TIP3    H133041   1.885   1.882   0.552  2.5148 -1.7264 -2.1492
 3802TIP3    H233042   1.812   1.799   0.449  0.6285  0.9906 -3.1214
 3803TIP3   OH233043   6.342   5.889   0.605 -0.2042  0.7675  0.0492
 3803TIP3    H133044   6.349   5.927   0.518 -2.0920 -0.5654 -0.7460
 3803TIP3    H233045   6.248   5.876   0.618  0.2207 -2.1094  0.8804
 3804TIP3   OH233046   1.373   3.598   3.600  0.4988 -0.6178 -0.4631
 3804TIP3    H133047   1.378   3.517   3.652  1.1520 -0.9235 -0.9820
 3804TIP3    H233048   1.341   3.664   3.662  1.0454 -1.0239  0.2815
 3805TIP3   OH233049   0.229   2.389   2.343  0.0554  0.0926 -0.0865
 3805TIP3    H133050   0.240   2.484   2.338 -1.8367  0.3714  0.4436
 3805TIP3    H233051   0.147   2.376   2.390  0.7129 -1.8399  0.6306
 3806TIP3   OH233052   4.267   4.849   0.671 -0.0992  0.5680  0.1865
 3806TIP3    H133053   4.182   4.825   0.710  0.2353 -1.6130 -0.2934
 3806TIP3    H233054   4.332   4.803   0.724  0.7985  1.8930  0.2944
 3807TIP3   OH233055   3.186   3.894   3.244 -0.1702  0.1394 -0.4965
 3807TIP3    H133056   3.125   3.921   3.313  0.9577  0.1381  0.5527
 3807TIP3    H233057   3.170   3.800   3.233 -0.4324  0.1611 -0.3074
 3808TIP3   OH233058   0.896   5.070   0.679 -0.2326  0.7703 -0.6534
 3808TIP3    H133059   0.869   5.145   0.627 -0.3423 -0.4734 -2.4881
 3808TIP3    H233060   0.888   5.099   0.770 -0.7612  2.7785 -1.2990
 3809TIP3   OH233061   0.148   2.033   1.727  0.1404 -0.2829 -0.1324
 3809TIP3    H133062   0.227   1.980   1.731  1.2960  1.4105  0.6943
 3809TIP3    H233063   0.119   2.042   1.818  0.9881  1.8719 -0.0099
 3810TIP3   OH233064   5.457   1.320   7.812  0.4341 -0.0275 -0.1938
 3810TIP3    H133065   5.405   1.365   7.745  0.6661 -0.8400 -0.9361
 3810TIP3    H233066   5.548   1.339   7.788  0.5110 -0.0268  0.1008
 3811TIP3   OH233067   6.449   0.684   2.002  0.3402 -0.6962  0.0573
 3811TIP3    H133068   6.464   0.775   2.029 -0.6892 -1.0224  1.8961
 3811TIP3    H233069   6.529   0.638   2.028  0.3327 -0.5479  0.3511
 3812TIP3   OH233070   2.418   0.396   7.728 -0.3808 -0.0837  1.1747
 3812TIP3    H133071   2.365   0.330   7.683  0.8608  1.0015 -2.2167
 3812TIP3    H233072   2.369   0.477   7.719  0.4287  0.3685  0.7294
 3813TIP3   OH233073   0.208   3.197   8.408 -0.0953 -0.4178  0.0926
 3813TIP3    H133074   0.226   3.281   8.367  1.2951  0.6112  2.5747
 3813TIP3    H233075   0.292   3.151   8.407 -1.1237 -2.4226 -2.4091
 3814TIP3   OH233076   1.164   2.341   0.322  0.4899 -0.1905 -0.0861
 3814TIP3    H133077   1.133   2.259   0.283 -0.3715  0.5108 -0.9514
 3814TIP3    H233078   1.093   2.368   0.381  0.1561  0.5937 -0.8249
 3815TIP3   OH233079   4.808   1.797   2.310  0.2270  0.1393  0.3661
 3815TIP3    H133080   4.736   1.791   2.373  0.9217  1.6410  1.3568
 3815TIP3    H233081   4.865   1.866   2.344  1.3678  0.0313 -1.1818
 3816TIP3   OH233082   0.569   6.691   0.594  0.0937 -0.1882  0.7137
 3816TIP3    H133083   0.573   6.611   0.647 -0.2396  0.1297  1.2245
 3816TIP3    H233084   0.604   6.665   0.509  1.9082 -0.3911  1.4737
 3817TIP3   OH233085   3.259   0.333   8.512 -0.2544  0.1986 -0.3271
 3817TIP3    H133086   3.227   0.250   8.475  1.2001 -0.1237 -0.8994
 3817TIP3    H233087   3.256   0.395   8.440 -0.3199  0.3718 -0.1777
 3818TIP3   OH233088   2.256   2.457   1.881 -0.0739 -0.5470  0.2235
 3818TIP3    H133089   2.206   2.509   1.944  0.6987 -1.2176  1.4282
 3818TIP3    H233090   2.303   2.393   1.934  0.4521 -1.2729 -1.0611
 3819TIP3   OH233091   5.477   5.901   8.303 -0.0850  0.4039  0.6396
 3819TIP3    H133092   5.470   5.839   8.231 -0.0117  0.7025  0.3763
 3819TIP3    H233093   5.479   5.987   8.262  0.0210  0.5740  0.9920
 3820TIP3   OH233094   2.561   1.331   2.042 -0.1836 -0.5284 -0.8654
 3820TIP3    H133095   2.532   1.290   2.124 -0.3226  0.3879 -0.4380
 3820TIP3    H233096   2.521   1.279   1.973  0.6078 -1.8190 -0.3788
 3821TIP3   OH233097   5.522   0.485   7.557 -0.0246 -0.2098  0.1618
 3821TIP3    H133098   5.505   0.402   7.513 -0.2124  0.6459 -1.4662
 3821TIP3    H233099   5.580   0.532   7.497  0.4031  0.6893  1.2440
 3822TIP3   OH233100   0.103   0.296   1.790 -0.5236 -0.3182 -0.2052
 3822TIP3    H133101   0.104   0.252   1.875  0.0333  0.0939  0.0088
 3822TIP3    H233102   0.141   0.232   1.730 -1.4639 -0.8393 -0.2745
 3823TIP3   OH233103   2.529   3.987   1.430 -0.2336 -0.1114 -0.1043
 3823TIP3    H133104   2.541   4.078   1.456  1.3075 -0.2318 -0.2869
 3823TIP3    H233105   2.609   3.943   1.458 -0.4505 -1.1718 -1.0541
 3824TIP3   OH233106   1.114   4.180   1.354  0.4807  0.7723 -0.0301
 3824TIP3    H133107   1.168   4.108   1.321  1.2360  0.9387  0.8295
 3824TIP3    H233108   1.134   4.185   1.447 -0.4991  1.2982  0.1659
 3825TIP3   OH233109   2.407   0.791   2.367 -0.0332  0.1310  0.2772
 3825TIP3    H133110   2.419   0.796   2.273 -1.4606 -2.0117 -0.0923
 3825TIP3    H233111   2.370   0.876   2.391 -0.1693  0.5058 -1.1739
 3826TIP3   OH233112   2.010   3.054   1.078  0.3207  0.0905  0.1647
 3826TIP3    H133113   2.026   3.028   1.169  1.9524  1.0201  0.1761
 3826TIP3    H233114   1.915   3.051   1.069  0.0490  0.9081  2.1965
 3827TIP3   OH233115   4.436   4.704   0.242 -0.5086 -0.5105 -0.5681
 3827TIP3    H133116   4.391   4.759   0.306 -0.6596 -0.8573 -0.3712
 3827TIP3    H233117   4.368   4.649   0.205 -0.3888 -0.4357 -0.8969
 3828TIP3   OH233118   2.149   0.493   7.676 -0.0205 -0.1501 -1.0700
 3828TIP3    H133119   2.058   0.487   7.646 -0.8344  0.4605  1.0893
 3828TIP3    H233120   2.149   0.568   7.735  1.1114 -1.9823  1.4376
 3829TIP3   OH233121   5.705   5.457   0.567 -0.1753 -0.2988  0.3646
 3829TIP3    H133122   5.656   5.525   0.520  0.9661 -0.8731 -1.7571
 3829TIP3    H233123   5.652   5.378   0.557 -1.2081  0.0801  2.3321
 3830TIP3   OH233124   6.354   6.195   3.390 -0.0590 -0.6441  0.1773
 3830TIP3    H133125   6.313   6.280   3.375  0.9004 -0.1583  0.2403
 3830TIP3    H233126   6.294   6.150   3.449  0.0468  0.5111  1.2285
 3831TIP3   OH233127   4.659   0.109   2.301 -0.3467  0.4319  0.0589
 3831TIP3    H133128   4.742   0.140   2.266 -0.3899  0.5857  0.0927
 3831TIP3    H233129   4.684   0.056   2.377 -0.3780  2.2737  1.4098
 3832TIP3   OH233130   3.088   5.986   2.032 -0.2697  0.3485  0.4170
 3832TIP3    H133131   3.097   6.079   2.014  0.2537  0.2474  0.1319
 3832TIP3    H233132   3.116   5.943   1.952  0.2095 -0.0684  0.7978
 3833TIP3   OH233133   0.081   2.749   0.105 -0.1807  0.0465  0.0429
 3833TIP3    H133134   0.038   2.675   0.148 -0.4035  0.3654  0.3744
 3833TIP3    H233135   0.074   2.730   0.012 -1.0832  0.1131  0.0899
 3834TIP3   OH233136   5.852   2.779   2.759 -0.2546 -0.1265 -0.1307
 3834TIP3    H133137   5.761   2.761   2.736 -0.7381  0.1902  1.4042
 3834TIP3    H233138   5.869   2.722   2.835  0.6440  0.2398 -0.0460
 3835TIP3   OH233139   1.850   2.399   0.169  0.0935 -0.0962 -0.4429
 3835TIP3    H133140   1.841   2.492   0.187 -1.3212 -0.0355 -1.3047
 3835TIP3    H233141   1.941   2.379   0.190  0.0282  1.1408  1.1671
 3836TIP3   OH233142   3.011   1.705   8.438  0.6345  0.4808  0.2891
 3836TIP3    H133143   2.935   1.690   8.495  1.4620 -0.4593  1.1724
 3836TIP3    H233144   3.030   1.619   8.401  1.5859  0.6134  0.4642
 3837TIP3   OH233145   3.566   4.646   8.244  0.0167  0.3406 -0.1147
 3837TIP3    H133146   3.537   4.716   8.186  0.3546  0.0766 -0.6083
 3837TIP3    H233147   3.619   4.689   8.310  0.7370  0.4742 -0.7704
 3838TIP3   OH233148   0.887   2.747   1.830 -0.1939  0.4124  0.0147
 3838TIP3    H133149   0.959   2.733   1.891 -0.0105  1.4869  0.0661
 3838TIP3    H233150   0.820   2.790   1.881 -1.1311 -1.0899  0.1081
 3839TIP3   OH233151   4.281   3.287   0.873 -0.0857 -0.2606  0.2646
 3839TIP3    H133152   4.227   3.366   0.873 -0.3139 -0.4176  0.5036
 3839TIP3    H233153   4.335   3.294   0.952  0.3151 -0.0562 -0.0248
 3840TIP3   OH233154   5.941   1.788   1.330 -0.3439 -0.2605 -0.1022
 3840TIP3    H133155   5.933   1.881   1.348  0.0565  0.1586 -1.8960
 3840TIP3    H233156   6.031   1.776   1.301 -0.7056 -0.9779 -0.9898
 3841TIP3   OH233157   4.507   2.424   3.139 -0.2635 -0.1320 -0.4203
 3841TIP3    H133158   4.571   2.457   3.202 -1.1614 -3.2516  2.4640
 3841TIP3    H233159   4.423   2.456   3.172 -0.6216 -0.3794 -1.0746
 3842TIP3   OH233160   6.735   1.326   8.459  0.0157  0.2021  0.2530
 3842TIP3    H133161   6.756   1.402   8.406  1.6831  0.5147  1.2851
 3842TIP3    H233162   6.768   1.251   8.409  1.1166  0.4461  0.5981
 3843TIP3   OH233163   6.427   1.617   1.861  0.3993 -0.8651 -0.1007
 3843TIP3    H133164   6.414   1.631   1.767  1.5091  2.4157  0.0850
 3843TIP3    H233165   6.519   1.592   1.869  0.7325  0.3383  0.1333
 3844TIP3   OH233166   6.129   2.600   2.552  0.1272  0.2146 -0.1356
 3844TIP3    H133167   6.095   2.690   2.548  0.6301  0.4090 -0.1210
 3844TIP3    H233168   6.219   2.610   2.583 -0.6047 -0.4719  2.5056
 3845TIP3   OH233169   2.488   5.583   2.656 -0.1330 -0.2351 -0.0422
 3845TIP3    H133170   2.548   5.579   2.731 -0.1972 -1.6982 -0.0432
 3845TIP3    H233171   2.401   5.584   2.696 -0.1509  1.6263 -0.0484
 3846TIP3   OH233172   1.119   1.594   2.180  0.0027  0.1634 -0.1777
 3846TIP3    H133173   1.151   1.543   2.106  1.9004  0.9116  0.0913
 3846TIP3    H233174   1.134   1.537   2.256 -1.1722 -0.2674 -0.2477
 3847TIP3   OH233175   6.386   3.961   1.207 -0.1394  0.0428 -0.3177
 3847TIP3    H133176   6.465   3.960   1.262 -0.1788  1.2009 -0.2066
 3847TIP3    H233177   6.416   3.998   1.124 -0.1081 -1.5941 -1.0747
 3848TIP3   OH233178   4.710   3.953   3.250 -0.1523 -0.0542  0.3133
 3848TIP3    H133179   4.631   4.006   3.262 -0.5915 -0.8576  1.0443
 3848TIP3    H233180   4.782   4.013   3.269 -0.6189  0.3770  0.7590
 3849TIP3   OH233181   4.731   4.892   0.744  0.4632 -0.2318 -0.2476
 3849TIP3    H133182   4.755   4.926   0.658  1.6695 -0.9350 -0.2190
 3849TIP3    H233183   4.657   4.833   0.728 -0.5217  1.0328 -0.5238
 3850TIP3   OH233184   2.302   5.258   0.533 -0.0591 -0.3262  0.1886
 3850TIP3    H133185   2.355   5.180   0.551  0.9232  0.1143 -0.6876
 3850TIP3    H233186   2.267   5.283   0.619 -0.9207 -2.0691  0.3915
 3851TIP3   OH233187   5.329   3.949   1.448  0.1023 -0.1072 -0.4940
 3851TIP3    H133188   5.324   4.013   1.378  0.7625  0.1148 -0.3490
 3851TIP3    H233189   5.238   3.934   1.474 -0.1665 -0.3767 -1.5540
 3852TIP3   OH233190   0.954   5.013   1.272  0.2936  0.2348  0.1581
 3852TIP3    H133191   0.875   4.973   1.234  1.8905 -2.8962 -0.1962
 3852TIP3    H233192   0.921   5.086   1.324 -2.7319 -0.3643 -0.7237
 3853TIP3   OH233193   2.871   4.490   1.824  0.6158 -0.4947  0.1766
 3853TIP3    H133194   2.869   4.560   1.889 -1.6544 -0.1023 -0.2205
 3853TIP3    H233195   2.781   4.486   1.791  1.7437 -0.2895 -3.3460
 3854TIP3   OH233196   4.082   1.090   1.384 -0.3188  0.2979  0.6183
 3854TIP3    H133197   3.998   1.121   1.417 -0.7116  0.0710 -0.1466
 3854TIP3    H233198   4.145   1.153   1.417 -1.0818  1.8656 -0.7779
 3855TIP3   OH233199   4.396   1.349   1.357  0.2602 -0.2193  0.0740
 3855TIP3    H133200   4.467   1.306   1.310  1.9305 -0.4049  2.5806
 3855TIP3    H233201   4.341   1.277   1.388  0.0884 -0.2022 -0.1897
 3856TIP3   OH233202   3.125   1.031   2.057 -0.2192  0.8841  0.3483
 3856TIP3    H133203   3.040   0.988   2.055  0.5193 -0.6784  1.0364
 3856TIP3    H233204   3.169   0.994   2.133  1.7820  0.2427 -1.0471
 3857TIP3   OH233205   5.664   5.753   1.391 -0.0697  0.0710 -0.1638
 3857TIP3    H133206   5.637   5.828   1.338  0.2918  2.3775  2.6822
 3857TIP3    H233207   5.585   5.701   1.400 -0.0119 -0.8125 -3.3490
 3858TIP3   OH233208   2.868   5.559   8.391 -0.3950  0.1358 -0.2155
 3858TIP3    H133209   2.932   5.573   8.321 -0.4000 -1.2351 -0.5215
 3858TIP3    H233210   2.793   5.613   8.365  1.3087  3.5223  1.2353
 3859TIP3   OH233211   1.957   3.693   2.672 -0.7058 -0.2664  0.0608
 3859TIP3    H133212   1.923   3.690   2.761 -3.8314 -0.3790 -0.9829
 3859TIP3    H233213   2.008   3.774   2.668 -0.0057 -0.5543  2.0464
 3860TIP3   OH233214   4.398   5.217   2.929  0.5254 -0.4005  0.1385
 3860TIP3    H133215   4.394   5.265   2.847 -0.9011  0.6327  0.7750
 3860TIP3    H233216   4.443   5.276   2.990 -0.7575 -0.0630  0.7821
 3861TIP3   OH233217   2.896   3.138   1.586 -0.1965  0.3469  0.4321
 3861TIP3    H133218   2.826   3.201   1.569 -1.8169 -0.7513  2.5633
 3861TIP3    H233219   2.872   3.097   1.669  3.1586  0.1090  1.4345
 3862TIP3   OH233220   3.543   2.129   7.609  0.4490 -0.1023  0.6476
 3862TIP3    H133221   3.603   2.055   7.618  1.7523  0.9204  0.6289
 3862TIP3    H233222   3.537   2.165   7.698  2.6571  1.8654  0.1148
 3863TIP3   OH233223   5.103   6.539   1.006  0.3959  0.1777 -0.2711
 3863TIP3    H133224   5.197   6.527   1.019  0.7219  2.8986  0.4338
 3863TIP3    H233225   5.064   6.515   1.090  0.3717 -1.3485 -0.6897
 3864TIP3   OH233226   3.732   5.773   7.840 -0.1332  0.1645  0.3187
 3864TIP3    H133227   3.672   5.840   7.874 -0.2236 -0.3221  1.1393
 3864TIP3    H233228   3.675   5.709   7.797  0.0476  1.2480 -1.6317
 3865TIP3   OH233229   3.190   0.321   2.944  0.2431  0.0626 -0.0842
 3865TIP3    H133230   3.191   0.416   2.927 -2.0397 -0.2846 -3.1036
 3865TIP3    H233231   3.280   0.293   2.929  0.2506  1.3059 -3.0745
 3866TIP3   OH233232   5.503   1.906   0.730  0.4178 -0.2512  0.0208
 3866TIP3    H133233   5.492   1.829   0.675  1.5702 -0.2375 -0.2487
 3866TIP3    H233234   5.572   1.956   0.688  0.1057  0.6282  0.5335
 3867TIP3   OH233235   2.037   3.199   2.738  0.2901  0.2697 -0.2632
 3867TIP3    H133236   2.108   3.196   2.674  1.3291  2.0286  0.7400
 3867TIP3    H233237   2.069   3.149   2.813  0.4020  0.9052  0.1172
 3868TIP3   OH233238   0.252   1.026   2.291 -0.6757  0.2983 -0.0184
 3868TIP3    H133239   0.205   0.955   2.247 -0.3051 -0.5764  0.9422
 3868TIP3    H233240   0.244   1.005   2.385 -1.3782  2.0595  0.3484
 3869TIP3   OH233241   1.835   0.145   7.841 -0.5466  0.1705 -0.3633
 3869TIP3    H133242   1.924   0.180   7.840 -0.7994  0.8339 -0.5225
 3869TIP3    H233243   1.780   0.222   7.854 -1.1947 -0.0258 -1.7995
 3870TIP3   OH233244   5.552   3.513   7.425  0.2334 -0.0267 -0.3854
 3870TIP3    H133245   5.564   3.591   7.371 -0.5940  0.3709 -0.0080
 3870TIP3    H233246   5.476   3.533   7.479  0.2592 -0.9405 -0.0012
 3871TIP3   OH233247   0.622   2.844   7.781  0.0683 -0.2607 -0.6420
 3871TIP3    H133248   0.591   2.921   7.830  0.6590 -0.9585  0.8927
 3871TIP3    H233249   0.543   2.793   7.764  0.0699 -1.2902  1.9416
 3872TIP3   OH233250   3.358   6.130   1.687 -0.6431 -0.2352  0.5462
 3872TIP3    H133251   3.441   6.098   1.721 -1.1849 -0.7159  1.4899
 3872TIP3    H233252   3.296   6.114   1.759 -1.6529 -0.4135 -0.3445
 3873TIP3   OH233253   2.650   0.040   1.357  0.0643  0.8653 -0.3628
 3873TIP3    H133254   2.637   0.083   1.272  0.2787  1.5291 -0.0663
 3873TIP3    H233255   2.743   0.020   1.361  0.0361  0.7430 -0.3350
 3874TIP3   OH233256   1.914   6.166   0.917  0.3742  0.6574 -0.1324
 3874TIP3    H133257   1.853   6.219   0.866  0.3290  1.0253  0.2954
 3874TIP3    H233258   1.987   6.148   0.857  0.7617  1.8717 -0.0472
 3875TIP3   OH233259   2.401   6.729   1.396  0.8725  0.0535 -0.1691
 3875TIP3    H133260   2.482   6.776   1.412  0.7373  0.0671  0.5038
 3875TIP3    H233261   2.333   6.783   1.436  0.4940  0.1624 -0.9303
 3876TIP3   OH233262   6.582   0.458   2.307  0.0071 -0.3756  0.1794
 3876TIP3    H133263   6.487   0.468   2.302 -0.0649 -1.5258 -1.0826
 3876TIP3    H233264   6.617   0.536   2.265 -0.3872 -0.3862 -0.1671
 3877TIP3   OH233265   6.517   0.561   8.212 -0.7613  0.2704  0.0614
 3877TIP3    H133266   6.557   0.567   8.125 -0.0823  0.6878  0.3990
 3877TIP3    H233267   6.424   0.580   8.196 -0.8863 -0.8967 -0.7530
 3878TIP3   OH233268   2.897   2.367   7.837  0.5333  0.1498  0.6122
 3878TIP3    H133269   2.916   2.459   7.819  1.2974 -0.1215 -0.0391
 3878TIP3    H233270   2.858   2.334   7.756  0.4321 -0.1425  0.7788
 3879TIP3   OH233271   2.139   3.015   8.633 -0.3784 -0.4490  0.2754
 3879TIP3    H133272   2.098   2.964   8.702  0.3612 -0.7974  0.4640
 3879TIP3    H233273   2.112   2.972   8.552  1.7193 -2.3147  0.4793
 3880TIP3   OH233274   3.253   2.219   1.922  0.2585 -0.7126  0.3224
 3880TIP3    H133275   3.176   2.248   1.873  1.3424  2.7167  0.3693
 3880TIP3    H233276   3.316   2.194   1.855 -0.1808 -1.5281  0.2072
 3881TIP3   OH233277   4.588   2.809   1.967  0.1133  0.6568  0.4298
 3881TIP3    H133278   4.613   2.896   1.998 -1.3317  1.1612  0.2583
 3881TIP3    H233279   4.670   2.760   1.963  0.8949  1.8910  0.9014
 3882TIP3   OH233280   1.564   4.869   3.568  0.0485 -0.0449  0.5344
 3882TIP3    H133281   1.598   4.850   3.480  0.0560 -0.9990  0.7444
 3882TIP3    H233282   1.552   4.964   3.568 -0.6821 -0.1113 -0.7721
 3883TIP3   OH233283   3.027   2.049   7.381  0.7062 -0.6539 -0.1123
 3883TIP3    H133284   3.019   2.129   7.329  1.8837  0.2361  1.0206
 3883TIP3    H233285   2.981   2.068   7.462  2.4363 -0.4378  0.8746
 3884TIP3   OH233286   5.449   4.631   0.263 -0.9830  0.0318 -0.1427
 3884TIP3    H133287   5.494   4.706   0.302  1.2396  0.4032 -3.0163
 3884TIP3    H233288   5.413   4.583   0.337  1.4464  1.5054  2.1825
 3885TIP3   OH233289   4.278   5.569   0.944  0.1141 -0.0123  0.4580
 3885TIP3    H133290   4.371   5.567   0.967  0.7332 -1.3791 -1.7803
 3885TIP3    H233291   4.252   5.477   0.938 -0.9054  0.3100 -0.5646
 3886TIP3   OH233292   0.526   5.595   0.494 -0.2836  0.1802  0.2914
 3886TIP3    H133293   0.432   5.615   0.484 -1.0300 -3.0068 -0.0265
 3886TIP3    H233294   0.532   5.554   0.580  0.8318  0.3248  0.2856
 3887TIP3   OH233295   5.986   2.372   7.535 -0.0406 -0.3690  0.5802
 3887TIP3    H133296   5.998   2.434   7.606  2.1523 -0.6591  0.5433
 3887TIP3    H233297   6.062   2.313   7.542 -0.8795 -1.6643 -0.7257
 3888TIP3   OH233298   1.668   3.003   8.365 -0.8273 -0.4931  0.6432
 3888TIP3    H133299   1.579   2.982   8.338 -0.1857  0.3402 -2.5164
 3888TIP3    H233300   1.658   3.069   8.434 -2.6906  1.2953 -1.2006
 3889TIP3   OH233301   1.055   1.735   0.439 -0.5139 -0.0464 -0.2428
 3889TIP3    H133302   0.986   1.701   0.382 -1.7549 -1.4445  1.9403
 3889TIP3    H233303   1.008   1.777   0.511  0.8425 -1.2542  1.4401
 3890TIP3   OH233304   3.642   6.004   1.050  0.2640 -0.0865 -0.0792
 3890TIP3    H133305   3.629   6.098   1.061 -2.7672 -0.3431 -0.5062
 3890TIP3    H233306   3.603   5.965   1.129 -0.4769 -1.0244 -0.8842
 3891TIP3   OH233307   4.223   2.082   0.072 -0.1341 -0.8453  0.3473
 3891TIP3    H133308   4.220   1.986   0.067 -0.6316 -0.9869  2.3362
 3891TIP3    H233309   4.178   2.103   0.154 -0.3098  1.1233 -0.2046
 3892TIP3   OH233310   5.548   1.253   0.618  0.0450  0.1048 -0.3837
 3892TIP3    H133311   5.529   1.343   0.644 -0.0002 -0.6164  2.4495
 3892TIP3    H233312   5.607   1.262   0.543  0.3767  2.4958  0.0727
 3893TIP3   OH233313   2.481   1.880   1.230 -0.2932  0.5414 -0.3485
 3893TIP3    H133314   2.524   1.951   1.182 -0.7690 -0.2524 -2.0103
 3893TIP3    H233315   2.481   1.806   1.169 -0.2370 -0.7523  1.1744
 3894TIP3   OH233316   1.875   3.349   8.614 -0.3062  0.1351 -0.0917
 3894TIP3    H133317   1.886   3.272   8.669 -1.3133 -1.5539 -2.1176
 3894TIP3    H233318   1.917   3.326   8.531  0.2753  2.1967 -0.4421
 3895TIP3   OH233319   2.101   2.758   7.489  0.4024 -0.0552 -0.1566
 3895TIP3    H133320   2.195   2.779   7.487  0.7210 -1.4193 -1.0916
 3895TIP3    H233321   2.061   2.833   7.534  1.8846  0.7369 -0.0714
 3896TIP3   OH233322   4.414   1.457   2.843 -0.1239 -0.4547 -0.0788
 3896TIP3    H133323   4.380   1.452   2.933 -1.6418  1.0483 -0.5174
 3896TIP3    H233324   4.507   1.435   2.851 -0.2299 -0.3850  1.8427
 3897TIP3   OH233325   0.579   6.562   2.817 -0.1282  0.3002 -0.3491
 3897TIP3    H133326   0.617   6.508   2.886  0.4271  0.2936 -0.6486
 3897TIP3    H233327   0.588   6.652   2.850 -0.7541  0.2318  0.0074
 3898TIP3   OH233328   2.172   5.614   1.865 -0.5695 -0.1666 -0.3475
 3898TIP3    H133329   2.214   5.538   1.906 -2.2476 -1.4357 -0.8173
 3898TIP3    H233330   2.140   5.581   1.781 -1.6319  0.9648 -0.4234
 3899TIP3   OH233331   2.011   5.800   2.775 -0.2677 -0.5591  0.3530
 3899TIP3    H133332   2.027   5.872   2.714  0.1221 -0.1571  0.9102
 3899TIP3    H233333   2.098   5.765   2.794 -0.3530 -0.4889  0.8922
 3900TIP3   OH233334   4.938   6.776   1.839  0.5508 -0.5739 -0.0564
 3900TIP3    H133335   5.001   6.845   1.820  0.5156 -0.4527  0.2719
 3900TIP3    H233336   4.932   6.726   1.757  1.0144 -0.5405 -0.1144
 3901TIP3   OH233337   1.237   3.093   2.109 -0.2735 -0.4837 -0.4991
 3901TIP3    H133338   1.256   3.090   2.202 -0.7665  0.5908 -0.3405
 3901TIP3    H233339   1.215   3.185   2.092 -0.7718 -0.7753 -1.5515
 3902TIP3   OH233340   5.234   2.021   1.644  0.1782 -0.0032  0.0018
 3902TIP3    H133341   5.320   2.040   1.680  0.9739  0.8968 -2.2208
 3902TIP3    H233342   5.179   2.093   1.674 -0.2934 -1.4017  2.7630
 3903TIP3   OH233343   0.432   3.339   7.977 -0.2906  0.1377  0.6751
 3903TIP3    H133344   0.500   3.354   8.043 -0.3345  1.6695  0.4151
 3903TIP3    H233345   0.473   3.365   7.894 -1.4745  2.1039  0.6421
 3904TIP3   OH233346   4.169   6.105   2.558 -0.4957  0.1499 -0.2599
 3904TIP3    H133347   4.106   6.117   2.487 -0.1702  1.3701 -0.3654
 3904TIP3    H233348   4.245   6.158   2.532  0.6796 -1.4442 -0.2362
 3905TIP3   OH233349   6.464   3.712   2.281  0.1679  0.0519 -0.8522
 3905TIP3    H133350   6.540   3.753   2.239  1.5160  0.2334  1.5896
 3905TIP3    H233351   6.449   3.763   2.360  3.3604 -4.9313  3.6779
 3906TIP3   OH233352   2.858   2.619   0.185  0.2751  0.3168  0.5045
 3906TIP3    H133353   2.826   2.664   0.106  1.0377 -1.7997 -1.0991
 3906TIP3    H233354   2.778   2.597   0.233 -0.3987 -0.6205 -0.9915
 3907TIP3   OH233355   2.990   5.776   1.332  0.3361 -0.0596  0.3042
 3907TIP3    H133356   3.054   5.735   1.390  0.6887  0.8875  0.5847
 3907TIP3    H233357   2.910   5.780   1.384 -0.5694 -2.9702 -0.6490
 3908TIP3   OH233358   3.360   4.996   0.972  0.1862 -0.5921 -0.0877
 3908TIP3    H133359   3.381   4.909   1.005 -1.2451 -0.9748 -0.1521
 3908TIP3    H233360   3.439   5.023   0.925  0.5471 -1.9752 -0.3103
 3909TIP3   OH233361   6.273   3.195   0.065 -0.0137 -0.2418 -0.0795
 3909TIP3    H133362   6.223   3.260   0.114 -2.1332 -3.0133  1.7877
 3909TIP3    H233363   6.315   3.141   0.132  1.8124 -0.7472 -1.5502
 3910TIP3   OH233364   4.430   0.700   2.859 -0.0350 -0.1710 -0.0801
 3910TIP3    H133365   4.373   0.709   2.936 -1.5857  1.1541 -1.3036
 3910TIP3    H233366   4.459   0.609   2.861 -1.2591 -0.5663  1.2475
 3911TIP3   OH233367   5.895   3.008   3.017  0.2246  0.5215  0.1630
 3911TIP3    H133368   5.949   3.007   3.096  0.5219  1.7878 -0.0030
 3911TIP3    H233369   5.951   2.967   2.950  0.8435  1.4705  0.0876
 3912TIP3   OH233370   4.630   1.930   8.654 -0.2968 -0.1970  0.0015
 3912TIP3    H133371   4.539   1.903   8.655 -0.1310 -0.9955 -1.8398
 3912TIP3    H233372   4.680   1.849   8.660  0.2510  0.0191 -1.3065
 3913TIP3   OH233373   0.793   5.801   0.479 -0.0990  0.7372  0.0394
 3913TIP3    H133374   0.813   5.874   0.537  0.4476 -0.1644  1.0387
 3913TIP3    H233375   0.782   5.726   0.538 -1.4590  0.1674 -0.8787
 3914TIP3   OH233376   1.049   0.890   8.559 -0.4111  0.1257  0.5676
 3914TIP3    H133377   1.053   0.968   8.504 -0.6842 -0.0289  0.3278
 3914TIP3    H233378   1.115   0.905   8.627 -0.4207  0.5360  0.4866
 3915TIP3   OH233379   5.498   3.308   8.608  0.0785 -0.3592  0.3570
 3915TIP3    H133380   5.532   3.398   8.610 -0.6840 -0.0743  1.2982
 3915TIP3    H233381   5.525   3.270   8.691 -0.5957 -0.6250  0.4604
 3916TIP3   OH233382   3.047   6.809   8.827  0.4447 -0.2102  0.3478
 3916TIP3    H133383   3.134   6.785   8.797  0.6556  0.6543  0.2511
 3916TIP3    H233384   3.062   6.870   8.899 -0.0797 -0.2193  0.4714
 3917TIP3   OH233385   6.419   1.690   0.313 -0.0393 -0.3622 -0.2938
 3917TIP3    H133386   6.338   1.645   0.337 -0.1593 -0.2380 -0.4646
 3917TIP3    H233387   6.390   1.776   0.282  0.1128 -0.5331 -0.9175
 3918TIP3   OH233388   2.440   1.701   0.359 -0.0463  0.4611  0.1596
 3918TIP3    H133389   2.398   1.676   0.276 -0.6690 -2.0458  1.1536
 3918TIP3    H233390   2.527   1.733   0.333 -0.2833 -0.1363 -1.4692
 3919TIP3   OH233391   1.797   0.851   8.341  0.1764 -0.3323 -0.3464
 3919TIP3    H133392   1.885   0.825   8.314 -0.0870 -1.4122 -0.1916
 3919TIP3    H233393   1.773   0.921   8.280  0.5634 -1.0488 -1.3426
 3920TIP3   OH233394   0.841   2.129   1.566 -0.1503  0.0083 -0.2661
 3920TIP3    H133395   0.895   2.206   1.583 -2.1311  1.1030  1.5282
 3920TIP3    H233396   0.871   2.064   1.629 -1.3908  0.8952  1.2961
 3921TIP3   OH233397   2.886   0.869   0.017  0.1573  0.0646  0.2651
 3921TIP3    H133398   2.955   0.897  -0.043  0.5552  0.5709  0.9461
 3921TIP3    H233399   2.860   0.950   0.062  0.8982 -0.5497  1.8361
 3922TIP3   OH233400   3.824   4.673   1.719  0.9108 -0.4825 -0.0161
 3922TIP3    H133401   3.912   4.638   1.709  1.2066 -0.0247  0.8783
 3922TIP3    H233402   3.771   4.598   1.748  1.0602 -0.6936 -0.2870
 3923TIP3   OH233403   0.272   4.450   2.104  0.2218  0.0460  0.0341
 3923TIP3    H133404   0.293   4.377   2.045  0.3906 -0.3110  0.5221
 3923TIP3    H233405   0.234   4.407   2.181 -2.7073  0.6763 -0.9365
 3924TIP3   OH233406   5.120   3.960   1.774 -0.4059  0.1331  0.4996
 3924TIP3    H133407   5.063   3.965   1.697  0.8383 -0.5517 -0.5116
 3924TIP3    H233408   5.148   4.051   1.788  1.1505  0.0018 -1.3138
 3925TIP3   OH233409   1.717   6.375   8.623 -0.6695  0.5506  0.0001
 3925TIP3    H133410   1.694   6.322   8.699 -0.0591  1.7396  1.0444
 3925TIP3    H233411   1.727   6.464   8.657  1.6363  0.7805 -1.0522
 3926TIP3   OH233412   4.586   5.165   3.179  0.1673 -0.0206  0.2730
 3926TIP3    H133413   4.507   5.199   3.220 -0.2013  0.7736 -1.0364
 3926TIP3    H233414   4.618   5.237   3.125  0.4414 -1.1137 -1.0830
 3927TIP3   OH233415   5.597   4.553   8.134 -0.2393 -0.2248 -0.6330
 3927TIP3    H133416   5.640   4.487   8.080  0.5645 -2.1270  2.0762
 3927TIP3    H233417   5.614   4.524   8.224 -1.1600  2.9100  0.6802
 3928TIP3   OH233418   0.706   4.436   1.152 -0.1276 -0.0054  0.0233
 3928TIP3    H133419   0.627   4.445   1.205 -0.1849 -0.2385 -0.0214
 3928TIP3    H233420   0.775   4.414   1.214  0.1821  1.4879  0.2473
 3929TIP3   OH233421   3.675   5.021   7.968 -0.5562 -0.4415 -0.0872
 3929TIP3    H133422   3.605   4.987   7.912 -0.2893 -2.5029  0.7505
 3929TIP3    H233423   3.654   4.988   8.056 -0.0110  1.2388  0.7130
 3930TIP3   OH233424   5.684   3.386   2.966  0.1171  0.5241 -0.0762
 3930TIP3    H133425   5.716   3.476   2.959  1.6861 -0.0330 -0.4983
 3930TIP3    H233426   5.737   3.347   3.036 -1.2819  0.2116  0.8487
 3931TIP3   OH233427   4.665   6.078   0.177  0.1630 -0.2599 -0.1586
 3931TIP3    H133428   4.573   6.063   0.154 -0.2469 -0.8893  1.7412
 3931TIP3    H233429   4.714   6.022   0.117 -0.7402 -0.5984 -0.6036
 3932TIP3   OH233430   2.905   5.045   2.223  0.2639  0.5976  0.3272
 3932TIP3    H133431   2.828   5.056   2.277 -0.7610  2.5498 -1.3835
 3932TIP3    H233432   2.940   5.133   2.212  0.6492  0.2336 -1.8385
 3933TIP3   OH233433   3.474   0.864   0.456  0.1064 -0.0308 -0.8158
 3933TIP3    H133434   3.395   0.863   0.402  0.2149 -1.5004 -0.9839
 3933TIP3    H233435   3.545   0.843   0.395  0.4273 -0.2095 -0.3840
 3934TIP3   OH233436   1.730   0.122   1.489  0.1060  0.1793  0.3634
 3934TIP3    H133437   1.697   0.093   1.574  0.0369 -0.5480  0.0955
 3934TIP3    H233438   1.790   0.053   1.461  1.4073  1.1863  0.5524
 3935TIP3   OH233439   6.093   4.061   7.671 -0.5171 -0.5340 -0.6057
 3935TIP3    H133440   6.039   3.986   7.695 -0.9608  0.1973  0.8565
 3935TIP3    H233441   6.163   4.025   7.618 -1.7869 -1.6817 -1.5663
 3936TIP3   OH233442   4.326   0.516   1.685  0.5383 -0.0043  0.0254
 3936TIP3    H133443   4.276   0.571   1.624  1.0088  2.8016  1.9711
 3936TIP3    H233444   4.410   0.503   1.640  0.7430  1.6966 -0.1859
 3937TIP3   OH233445   6.788   3.998   1.709 -0.3717 -0.1334 -0.3334
 3937TIP3    H133446   6.826   4.086   1.712 -4.1564  1.6970  1.6421
 3937TIP3    H233447   6.804   3.963   1.797  0.9851 -1.4373 -1.0671
 3938TIP3   OH233448   0.506   6.219   7.812 -0.0509 -0.2979  0.0036
 3938TIP3    H133449   0.504   6.124   7.825 -0.2868 -0.5475 -1.6830
 3938TIP3    H233450   0.599   6.242   7.809  0.0699 -0.0545  2.8869
 3939TIP3   OH233451   3.083   5.022   1.321 -0.5955  0.1964  0.1494
 3939TIP3    H133452   3.064   5.080   1.395  2.1863  0.2211  0.9483
 3939TIP3    H233453   3.102   5.082   1.248  0.4601  0.2901  0.4839
 3940TIP3   OH233454   2.077   2.784   1.092 -0.2110  0.2824 -0.2361
 3940TIP3    H133455   2.094   2.768   1.185 -0.0659  1.0754 -0.1222
 3940TIP3    H233456   2.063   2.878   1.086 -0.4914  0.1992 -0.9806
 3941TIP3   OH233457   0.256   5.327   1.849 -0.0698 -0.6866 -0.8611
 3941TIP3    H133458   0.345   5.360   1.859 -0.5759  0.9963 -1.5296
 3941TIP3    H233459   0.264   5.232   1.857  1.4647 -0.4469  1.3103
 3942TIP3   OH233460   5.567   4.857   1.011 -0.0888  0.6084  0.5685
 3942TIP3    H133461   5.614   4.811   0.941  1.5392  0.4358  1.7133
 3942TIP3    H233462   5.602   4.946   1.009 -0.6557  0.8360  0.6352
 3943TIP3   OH233463   6.671   0.298   7.801  0.2964 -0.1642  0.1795
 3943TIP3    H133464   6.666   0.216   7.752  0.2500  0.3111 -0.6371
 3943TIP3    H233465   6.760   0.329   7.787  0.0618  0.3438 -0.2322
 3944TIP3   OH233466   6.818   0.558   1.818  0.5394  0.0913  0.2702
 3944TIP3    H133467   6.732   0.555   1.777 -0.8268 -0.4917  2.9348
 3944TIP3    H233468   6.862   0.478   1.788 -0.0266  0.1397 -0.7313
 3945TIP3   OH233469   1.697   5.278   8.295  0.1309  0.3527 -0.3579
 3945TIP3    H133470   1.665   5.188   8.286 -1.1694  0.7785 -0.2468
 3945TIP3    H233471   1.756   5.290   8.221 -0.6926 -0.1859 -1.1289
 3946TIP3   OH233472   2.883   5.614   7.932 -0.0694  0.1850  0.0119
 3946TIP3    H133473   2.887   5.546   7.865  1.6353 -0.1561  0.4252
 3946TIP3    H233474   2.789   5.625   7.949 -0.4031 -1.8436 -0.2807
 3947TIP3   OH233475   3.548   5.239   2.529  0.4586  0.3112 -0.0657
 3947TIP3    H133476   3.564   5.156   2.574  1.1634  0.8783  0.7630
 3947TIP3    H233477   3.546   5.304   2.599 -1.1822  0.8736 -0.5834
 3948TIP3   OH233478   6.101   5.360   2.239 -0.4396  0.0268  0.5422
 3948TIP3    H133479   6.156   5.285   2.217 -0.0606  1.3522 -4.5318
 3948TIP3    H233480   6.147   5.404   2.310  1.6652 -2.2245  0.6907
 3949TIP3   OH233481   5.542   2.139   1.203 -0.4230  0.4611 -0.5995
 3949TIP3    H133482   5.467   2.140   1.263 -0.5129  0.0487 -0.7028
 3949TIP3    H233483   5.505   2.105   1.121 -0.7782  2.8340 -1.5113
 3950TIP3   OH233484   5.397   1.961   3.200  0.2777 -0.7124  0.6021
 3950TIP3    H133485   5.302   1.953   3.204  0.1907 -0.8630 -1.1622
 3950TIP3    H233486   5.413   2.045   3.156  0.9357 -1.1561 -0.0407
 3951TIP3   OH233487   1.956   0.415   8.308 -0.3365 -0.1063 -0.0354
 3951TIP3    H133488   1.985   0.481   8.246 -0.6372  0.1267  0.0694
 3951TIP3    H233489   2.036   0.387   8.352  0.0200 -0.9928 -1.2088
 3952TIP3   OH233490   2.276   0.802   7.055  0.3422 -0.6064 -0.2416
 3952TIP3    H133491   2.263   0.858   7.133  0.6187 -1.9169  0.7800
 3952TIP3    H233492   2.370   0.808   7.037  0.3842 -0.7793 -0.0891
 3953TIP3   OH233493   1.494   1.173   0.589  0.3358  0.7424 -0.4678
 3953TIP3    H133494   1.405   1.171   0.623  0.7939 -2.6574  0.9614
 3953TIP3    H233495   1.550   1.155   0.665  1.7049 -3.1500 -2.1259
 3954TIP3   OH233496   2.302   0.516   1.634 -0.2217  0.1510  0.0117
 3954TIP3    H133497   2.375   0.457   1.654  0.4897  0.9547 -0.1821
 3954TIP3    H233498   2.309   0.531   1.540 -0.3805  0.5769  0.0671
 3955TIP3   OH233499   4.014   3.675   3.218 -0.1076 -0.0498  0.1542
 3955TIP3    H133500   4.097   3.628   3.208 -1.5824 -2.5310 -1.3907
 3955TIP3    H233501   3.948   3.607   3.225 -2.3405  1.7632 -1.5984
 3956TIP3   OH233502   5.710   5.294   8.786  0.0304 -0.4209 -0.4046
 3956TIP3    H133503   5.665   5.267   8.866  1.2763  0.6236  0.7032
 3956TIP3    H233504   5.676   5.236   8.718 -1.4487 -0.9993  0.7661
 3957TIP3   OH233505   5.937   1.775   7.366 -0.8997  0.2666  0.1834
 3957TIP3    H133506   5.997   1.742   7.433 -1.3237 -0.6521  0.1295
 3957TIP3    H233507   5.902   1.856   7.403  0.1685  0.6726  0.3263
 3958TIP3   OH233508   4.790   5.125   2.392 -0.2945 -0.1514  0.0463
 3958TIP3    H133509   4.786   5.029   2.390  0.4256 -0.2212  1.2809
 3958TIP3    H233510   4.821   5.147   2.480 -0.3699  1.2187 -0.2383
 3959TIP3   OH233511   4.304   1.193   8.536  0.2514  0.0361  0.3963
 3959TIP3    H133512   4.354   1.116   8.564 -1.6968 -0.6261  2.3591
 3959TIP3    H233513   4.253   1.218   8.613 -2.3976  0.6878 -1.4162
 3960TIP3   OH233514   1.835   0.803   7.246 -0.3817 -1.0929  0.3363
 3960TIP3    H133515   1.900   0.798   7.176  2.4373  2.7068  2.2874
 3960TIP3    H233516   1.886   0.791   7.326 -2.9549 -2.3833  1.8969
 3961TIP3   OH233517   4.727   0.932   2.881  0.2332 -0.2636  0.0252
 3961TIP3    H133518   4.765   1.019   2.869  0.6301 -0.2966  0.9314
 3961TIP3    H233519   4.675   0.917   2.802  1.8253 -0.0715 -1.1032
 3962TIP3   OH233520   2.816   0.310   1.539 -0.1766  0.1229  0.2985
 3962TIP3    H133521   2.845   0.267   1.620 -1.4597 -0.7200  0.3544
 3962TIP3    H233522   2.846   0.252   1.469  0.7054  0.7172  0.1707
 3963TIP3   OH233523   1.904   3.487   7.522  0.0494 -0.5697  0.5583
 3963TIP3    H133524   1.859   3.558   7.567  0.0410  0.6600 -1.2925
 3963TIP3    H233525   1.966   3.531   7.463 -0.5256 -2.0141 -1.2316
 3964TIP3   OH233526   5.933   1.989   1.766 -0.0287  0.6957  0.1618
 3964TIP3    H133527   6.009   2.011   1.820  0.1903 -0.4371  0.3394
 3964TIP3    H233528   5.952   1.901   1.733 -0.9785  0.6595 -0.3102
 3965TIP3   OH233529   2.876   3.802   2.548 -0.3042 -0.0131 -0.2373
 3965TIP3    H133530   2.945   3.772   2.607 -0.2046 -0.2470 -0.4700
 3965TIP3    H233531   2.810   3.841   2.605  0.0162  0.1981 -0.0136
 3966TIP3   OH233532   1.605   4.063   7.792 -0.5123  0.2324  0.1532
 3966TIP3    H133533   1.548   3.989   7.770  0.2428 -0.1539 -0.5942
 3966TIP3    H233534   1.555   4.141   7.766 -1.9828  0.1183  2.4436
 3967TIP3   OH233535   2.276   5.800   8.014  0.2768  0.9060 -0.1110
 3967TIP3    H133536   2.360   5.846   8.022  1.2375 -0.7758 -0.2352
 3967TIP3    H233537   2.219   5.845   8.077  1.8108  0.8957  1.3476
 3968TIP3   OH233538   2.493   6.768   0.276  0.4309 -0.1007  0.2570
 3968TIP3    H133539   2.505   6.674   0.261  0.9742 -0.0154  0.1038
 3968TIP3    H233540   2.560   6.790   0.341  0.6778  0.2834 -0.1243
 3969TIP3   OH233541   1.959   2.535   1.612  0.3945 -0.6092  0.0241
 3969TIP3    H133542   1.898   2.501   1.546 -0.6597 -1.2369  1.2730
 3969TIP3    H233543   1.976   2.460   1.670  1.3426 -0.0929  0.4336
 3970TIP3   OH233544   1.386   4.450   2.040 -0.0151  0.4554 -0.1374
 3970TIP3    H133545   1.335   4.396   2.100 -0.4142  0.7489 -0.2135
 3970TIP3    H233546   1.449   4.389   2.001 -0.4182  0.0587 -0.1693
 3971TIP3   OH233547   5.231   5.033   1.100 -0.6798 -0.3415  0.6448
 3971TIP3    H133548   5.287   5.040   1.178 -0.7982  2.9644  0.5881
 3971TIP3    H233549   5.142   5.031   1.135 -0.8547  3.1592  0.7393
 3972TIP3   OH233550   5.550   5.038   0.642  0.2372 -0.6284  0.1905
 3972TIP3    H133551   5.626   4.984   0.665 -0.2143 -0.9654  0.9282
 3972TIP3    H233552   5.562   5.118   0.693 -0.2275 -0.9434  0.7992
 3973TIP3   OH233553   1.456   3.893   8.699 -0.0010  0.3581 -0.0078
 3973TIP3    H133554   1.472   3.940   8.616  0.1728 -0.3494 -0.3831
 3973TIP3    H233555   1.465   3.801   8.676  0.7335  0.1775  0.9548
 3974TIP3   OH233556   1.769   5.757   2.668 -0.0730  0.7085  0.2428
 3974TIP3    H133557   1.856   5.764   2.708 -0.2563  1.1331  0.5768
 3974TIP3    H233558   1.776   5.803   2.585 -0.3659  2.0254  0.9261
 3975TIP3   OH233559   6.122   4.754   2.980 -0.4080 -0.3031  0.2801
 3975TIP3    H133560   6.146   4.842   3.010  0.5105 -0.4780  0.0899
 3975TIP3    H233561   6.029   4.746   3.001  0.1375 -0.4375  3.2101
 3976TIP3   OH233562   2.244   4.423   7.903 -0.2312  0.1298 -0.3331
 3976TIP3    H133563   2.165   4.392   7.948 -0.3264  1.1257  0.2102
 3976TIP3    H233564   2.271   4.500   7.953  1.1703 -0.2820 -0.4326
 3977TIP3   OH233565   5.629   1.238   3.420  0.1277  0.7086 -0.1832
 3977TIP3    H133566   5.588   1.278   3.343 -2.6552  0.0293  0.8075
 3977TIP3    H233567   5.612   1.301   3.490  1.1453  0.5509  0.2121
 3978TIP3   OH233568   2.747   6.322   1.453  0.2940 -0.4273 -0.0504
 3978TIP3    H133569   2.707   6.248   1.499  3.7477 -1.4713  1.6495
 3978TIP3    H233570   2.719   6.312   1.362 -1.7655 -2.0123  0.6777
 3979TIP3   OH233571   3.544   5.961   7.916  0.0500  0.5304 -0.0712
 3979TIP3    H133572   3.560   6.042   7.964 -1.7415  1.7404 -1.4200
 3979TIP3    H233573   3.466   5.924   7.957  0.2907 -0.0306 -0.1057
 3980TIP3   OH233574   5.601   2.934   7.535 -0.3960  0.1431  0.3073
 3980TIP3    H133575   5.515   2.899   7.556 -0.1446 -1.0446 -0.5099
 3980TIP3    H233576   5.589   2.979   7.451 -0.4120  0.8384  0.6707
 3981TIP3   OH233577   4.670   1.296   2.030 -0.4129 -0.1357 -0.3276
 3981TIP3    H133578   4.719   1.374   2.055  0.0332  0.0020 -1.5885
 3981TIP3    H233579   4.736   1.228   2.022 -0.4738 -0.0755 -1.5123
 3982TIP3   OH233580   0.536   5.128   2.165  0.5365  0.0337 -0.0633
 3982TIP3    H133581   0.549   5.218   2.195 -1.1377  0.2966 -0.0330
 3982TIP3    H233582   0.472   5.092   2.226 -0.1508 -0.5997 -1.1325
 3983TIP3   OH233583   5.600   0.639   2.962 -0.1406 -0.0360 -0.5039
 3983TIP3    H133584   5.649   0.722   2.962 -0.1202 -0.0454 -0.7714
 3983TIP3    H233585   5.587   0.618   3.054  2.2562 -1.1739 -0.3635
 3984TIP3   OH233586   6.421   4.903   0.037 -0.0264 -0.3569  0.0989
 3984TIP3    H133587   6.359   4.878  -0.031  0.6589 -1.6524 -0.0770
 3984TIP3    H233588   6.486   4.833   0.038  2.4986  1.8124 -0.9754
 3985TIP3   OH233589   1.788   1.793   8.389  0.0237 -0.2138  0.0267
 3985TIP3    H133590   1.768   1.881   8.419 -1.6081 -1.2941  2.5338
 3985TIP3    H233591   1.881   1.781   8.408  0.3169  1.0208 -0.5693
 3986TIP3   OH233592   2.944   3.355   7.698 -0.3943 -0.0456 -0.1689
 3986TIP3    H133593   2.969   3.374   7.789  0.3186  0.4191 -0.4568
 3986TIP3    H233594   2.998   3.280   7.674 -0.0039  0.3286 -0.4650
 3987TIP3   OH233595   2.049   2.629   8.386 -0.6580  0.2566  0.3237
 3987TIP3    H133596   2.078   2.565   8.321 -1.6065 -0.3620  0.4728
 3987TIP3    H233597   1.972   2.670   8.346 -1.3471 -0.2429  1.0927
 3988TIP3   OH233598   1.027   5.627   0.363 -0.1713  0.6116  0.1830
 3988TIP3    H133599   1.110   5.633   0.410  0.2397  4.6217 -0.6926
 3988TIP3    H233600   0.972   5.695   0.403 -1.7516  0.4190 -1.5305
 3989TIP3   OH233601   6.209   0.398   8.520  0.2651  0.3031  0.8347
 3989TIP3    H133602   6.184   0.478   8.474 -1.4911 -0.7394 -0.1305
 3989TIP3    H233603   6.218   0.332   8.452 -0.7782 -0.8960  1.7954
 3990TIP3   OH233604   2.054   2.554   7.310  0.4165 -0.3069 -0.5116
 3990TIP3    H133605   2.060   2.611   7.387  1.2896 -2.4682  1.1526
 3990TIP3    H233606   2.134   2.573   7.261  1.0829 -0.5792  0.4244
 3991TIP3   OH233607   4.515   5.787   1.196  0.1417  0.0469 -0.8662
 3991TIP3    H133608   4.504   5.743   1.112 -0.2255 -0.7625 -0.4035
 3991TIP3    H233609   4.500   5.719   1.261 -0.8995  0.9512 -0.1285
 3992TIP3   OH233610   5.738   3.252   7.819 -0.0412 -0.3845  0.1275
 3992TIP3    H133611   5.781   3.191   7.759 -0.4822 -1.2082  0.6251
 3992TIP3    H233612   5.673   3.297   7.765 -1.1483 -1.8506  0.1693
 3993TIP3   OH233613   5.456   3.471   0.378  0.2009 -0.2085 -0.7803
 3993TIP3    H133614   5.362   3.457   0.390  0.4213 -0.8608  0.2892
 3993TIP3    H233615   5.467   3.566   0.388 -0.4034 -0.0629 -1.4191
 3994TIP3   OH233616   1.221   0.362   1.761  0.3482  0.2180 -0.0549
 3994TIP3    H133617   1.234   0.345   1.854  1.1895  1.1647  0.0224
 3994TIP3    H233618   1.174   0.446   1.758  2.3212  1.3720 -0.4800
 3995TIP3   OH233619   3.344   6.418   1.607 -0.0991 -0.0499  0.2105
 3995TIP3    H133620   3.372   6.334   1.571  1.5761 -0.9042  3.1612
 3995TIP3    H233621   3.407   6.482   1.573 -2.3118  0.5177 -3.3650
 3996TIP3   OH233622   2.970   3.522   1.422  0.0159  0.5024 -0.2564
 3996TIP3    H133623   2.905   3.503   1.489  0.6650  0.5997  0.4126
 3996TIP3    H233624   3.019   3.441   1.411 -0.1531  0.4562 -0.6914
 3997TIP3   OH233625   3.551   3.640   8.767  0.1835  0.2125 -0.2823
 3997TIP3    H133626   3.549   3.720   8.714  0.1159 -0.2818 -1.0323
 3997TIP3    H233627   3.574   3.671   8.855 -0.4318  1.1337 -0.4287
 3998TIP3   OH233628   3.447   5.290   2.269 -0.1497  0.2078  0.1404
 3998TIP3    H133629   3.494   5.221   2.222 -0.8690  0.2907 -0.7290
 3998TIP3    H233630   3.449   5.263   2.361  0.3102 -0.5370 -0.0846
 3999TIP3   OH233631   3.936   3.268   0.497  0.2693 -0.2360 -0.5001
 3999TIP3    H133632   4.026   3.252   0.468  0.2772  0.7781 -1.0988
 3999TIP3    H233633   3.945   3.321   0.576  0.2083 -1.5456  0.4208
 4000TIP3   OH233634   5.748   6.633   2.076  0.4507 -0.3212  0.0179
 4000TIP3    H133635   5.794   6.715   2.092  0.7751 -0.6451  0.7577
 4000TIP3    H233636   5.715   6.642   1.986 -1.5692  1.6139  0.8548
 4001TIP3   OH233637   5.536   5.892   8.582 -0.2557  0.2656 -0.9153
 4001TIP3    H133638   5.618   5.845   8.599 -1.8353 -1.9492  1.4951
 4001TIP3    H233639   5.537   5.909   8.488  2.1705 -1.2563 -1.2681
 4002TIP3   OH233640   6.703   2.596   0.280  0.1163 -0.0496 -0.5530
 4002TIP3    H133641   6.679   2.655   0.352 -0.5698 -1.0566  0.0636
 4002TIP3    H233642   6.765   2.535   0.318  1.9774  1.1312 -1.5730
 4003TIP3   OH233643   1.678   4.839   7.915  0.3533 -0.2237  0.2935
 4003TIP3    H133644   1.739   4.894   7.867  1.7077  0.4080  2.6174
 4003TIP3    H233645   1.662   4.764   7.857  1.2242  0.8909 -1.4540
 4004TIP3   OH233646   1.512   4.128   2.318 -0.8963  0.3650  0.0066
 4004TIP3    H133647   1.441   4.065   2.305  0.1969 -0.5236 -2.4065
 4004TIP3    H233648   1.560   4.126   2.235  1.4135  1.5822  1.2230
 4005TIP3   OH233649   3.112   1.468   8.281 -0.6332 -0.2491  0.0530
 4005TIP3    H133650   3.047   1.398   8.288 -0.0119 -0.9098 -0.6009
 4005TIP3    H233651   3.190   1.425   8.246  0.9668 -0.0142  2.9663
 4006TIP3   OH233652   1.174   6.441   8.194  0.6569 -0.3001 -0.2768
 4006TIP3    H133653   1.127   6.364   8.160  0.6055 -0.5223  0.2881
 4006TIP3    H233654   1.260   6.406   8.220  0.3904 -0.3001  0.6102
 4007TIP3   OH233655   1.871   3.277   1.383  0.0751 -0.6531 -0.4347
 4007TIP3    H133656   1.803   3.217   1.413 -1.4117  0.9365 -0.4768
 4007TIP3    H233657   1.951   3.244   1.423 -0.7976 -2.2664  0.0662
 4008TIP3   OH233658   1.942   1.601   2.727 -0.1128 -0.4495 -0.1898
 4008TIP3    H133659   1.933   1.685   2.681  0.2314 -0.1453  0.2905
 4008TIP3    H233660   1.997   1.549   2.669 -0.1597 -0.2772 -0.3958
 4009TIP3   OH233661   3.504   2.654   1.266 -0.2085 -0.0827 -0.0811
 4009TIP3    H133662   3.480   2.746   1.265  0.2215  0.0565  0.7686
 4009TIP3    H233663   3.510   2.629   1.174  0.4673  0.9577 -0.3370
 4010TIP3   OH233664   5.143   6.781   8.613  0.1547  0.3152  0.0528
 4010TIP3    H133665   5.186   6.821   8.688 -0.9826  2.1228 -0.1913
 4010TIP3    H233666   5.049   6.795   8.629 -0.0884  1.6537 -2.1232
 4011TIP3   OH233667   2.489   6.302   2.437 -0.3331 -0.0324 -0.4069
 4011TIP3    H133668   2.455   6.389   2.417 -0.7432 -0.2964 -0.8686
 4011TIP3    H233669   2.418   6.242   2.413 -0.4872 -0.4261  0.9644
 4012TIP3   OH233670   0.841   4.545   0.055  0.4075 -0.2275  0.4107
 4012TIP3    H133671   0.915   4.600   0.078 -1.8806  2.9418  0.7596
 4012TIP3    H233672   0.838   4.547  -0.041  0.3587  0.2045  0.4232
 4013TIP3   OH233673   2.283   4.652   8.050  0.2108  0.1483  0.6319
 4013TIP3    H133674   2.368   4.646   8.095 -0.7276  2.4691  2.9462
 4013TIP3    H233675   2.287   4.734   8.002 -0.9632  0.6628  1.3799
 4014TIP3   OH233676   4.401   6.510   2.032 -0.6584  0.2833  0.2863
 4014TIP3    H133677   4.468   6.500   1.965  0.4080 -2.2506  1.5800
 4014TIP3    H233678   4.408   6.602   2.059  2.0697  0.2317  0.0893
 4015TIP3   OH233679   1.818   6.623   2.284 -0.0140 -0.0221  0.0260
 4015TIP3    H133680   1.754   6.605   2.216 -0.4127  1.3295  0.0245
 4015TIP3    H233681   1.855   6.537   2.305 -1.1828 -0.7022 -0.5932
 4016TIP3   OH233682   4.939   5.980   0.767  0.5646  0.1284 -0.8716
 4016TIP3    H133683   4.854   5.947   0.794  0.9230  0.9348  1.4036
 4016TIP3    H233684   4.998   5.904   0.774  0.6301  0.2939  0.6395
 4017TIP3   OH233685   5.531   5.766   0.183  0.5672  0.3493 -0.8179
 4017TIP3    H133686   5.560   5.695   0.126 -0.4904  0.0854 -1.0403
 4017TIP3    H233687   5.436   5.770   0.171  0.5639  1.5582 -0.5249
 4018TIP3   OH233688   4.525   5.018   0.372  0.6803 -0.2110  0.1980
 4018TIP3    H133689   4.454   4.979   0.422 -0.2347 -1.8413 -2.1840
 4018TIP3    H233690   4.602   5.011   0.429 -0.4737 -1.0637  1.7121
 4019TIP3   OH233691   0.752   5.271   0.555 -0.4099  0.4978  0.3088
 4019TIP3    H133692   0.765   5.319   0.473  0.6198 -1.2090 -0.5970
 4019TIP3    H233693   0.669   5.303   0.589 -0.3615  1.9917 -0.8717
 4020TIP3   OH233694   3.516   5.295   8.228  0.0824 -0.4239 -0.0067
 4020TIP3    H133695   3.516   5.207   8.265  2.3496 -1.0442 -1.2411
 4020TIP3    H233696   3.590   5.339   8.272  0.7425 -0.1064 -1.3808
 4021TIP3   OH233697   0.242   5.434   1.550 -0.3302 -0.3289  0.3858
 4021TIP3    H133698   0.296   5.357   1.565  2.4360  1.5618  0.8496
 4021TIP3    H233699   0.188   5.411   1.474  1.2953 -2.2801 -0.2663
 4022TIP3   OH233700   0.523   1.301   1.788 -0.4312 -0.5324 -0.1211
 4022TIP3    H133701   0.583   1.361   1.742 -0.7767 -1.2694 -1.5890
 4022TIP3    H233702   0.579   1.256   1.852  0.3299 -0.3283 -0.6230
 4023TIP3   OH233703   3.760   6.304   2.295 -0.1643 -0.0655 -0.3203
 4023TIP3    H133704   3.692   6.360   2.258 -0.9075 -0.2716  0.6836
 4023TIP3    H233705   3.747   6.219   2.253 -1.0345 -0.3112  0.4131
 4024TIP3   OH233706   1.661   5.024   1.950 -0.1451 -0.2190  0.2284
 4024TIP3    H133707   1.644   4.938   1.988  0.6866  0.7530  3.0395
 4024TIP3    H233708   1.583   5.076   1.972 -0.4657 -0.0923 -1.1015
 4025TIP3   OH233709   4.474   2.084   2.105  0.3462  0.0958  0.2096
 4025TIP3    H133710   4.384   2.106   2.082 -0.6271 -2.4273  1.2606
 4025TIP3    H233711   4.468   2.050   2.195  1.8571 -2.6161 -0.6118
 4026TIP3   OH233712   4.093   6.448   8.124  0.5323  0.1964 -0.1905
 4026TIP3    H133713   4.169   6.503   8.105  0.1215  0.7268 -0.3315
 4026TIP3    H233714   4.050   6.437   8.039 -0.8233  1.8379  0.2223
 4027TIP3   OH233715   1.474   3.681   1.325 -0.2000  0.3333  0.1004
 4027TIP3    H133716   1.568   3.688   1.308 -0.4966  1.0081 -1.3927
 4027TIP3    H233717   1.460   3.735   1.403  0.2940  2.3488 -1.1203
 4028TIP3   OH233718   0.059   6.731   1.627  0.3474  0.2549  0.0625
 4028TIP3    H133719  -0.006   6.728   1.557 -0.4195 -1.4400  0.7891
 4028TIP3    H233720   0.013   6.773   1.700 -0.0941 -1.2578  0.6897
 4029TIP3   OH233721   3.360   5.780   8.790 -0.4455 -0.6188  0.0714
 4029TIP3    H133722   3.430   5.820   8.738 -0.4436  0.0646  0.5913
 4029TIP3    H233723   3.280   5.801   8.743 -0.2743 -1.8581 -0.8141
 4030TIP3   OH233724   5.691   4.653   0.660 -0.7698 -0.1075  0.3538
 4030TIP3    H133725   5.760   4.677   0.722  0.4213 -1.1113 -0.5309
 4030TIP3    H233726   5.658   4.569   0.692 -1.7439  0.4620  0.8837
 4031TIP3   OH233727   3.847   6.158   0.400  0.4040 -0.1930 -0.3897
 4031TIP3    H133728   3.862   6.076   0.352 -0.8926 -1.3696  1.1329
 4031TIP3    H233729   3.779   6.137   0.464  2.0876  1.2787  2.0460
 4032TIP3   OH233730   2.082   6.798   2.422  0.4018 -0.1707  0.1794
 4032TIP3    H133731   2.053   6.834   2.338 -0.0234 -0.1355  0.3393
 4032TIP3    H233732   2.109   6.875   2.473 -0.0195 -0.1194  0.3327
 4033TIP3   OH233733   5.115   3.758   8.094 -0.3009  0.1176  0.5413
 4033TIP3    H133734   5.053   3.736   8.024 -1.4066  1.3279  1.0935
 4033TIP3    H233735   5.170   3.827   8.056 -0.4873  0.3298  0.6573
 4034TIP3   OH233736   0.422   6.238   3.154 -0.1853  0.0986 -0.3143
 4034TIP3    H133737   0.446   6.224   3.245  1.0777 -1.8130 -0.9026
 4034TIP3    H233738   0.327   6.254   3.157 -0.1583  0.1525  1.3081
 4035TIP3   OH233739   1.009   5.644   1.785  0.0882 -0.1478 -0.8754
 4035TIP3    H133740   1.085   5.621   1.732 -0.0349 -1.6459 -0.4518
 4035TIP3    H233741   0.967   5.560   1.805 -0.4646  0.4580  0.7059
 4036TIP3   OH233742   0.661   5.982   2.063  0.1028 -0.5322  0.3360
 4036TIP3    H133743   0.601   5.994   1.989 -1.1908 -0.8323  1.2893
 4036TIP3    H233744   0.677   5.887   2.065 -0.8894 -0.7082  1.1648
 4037TIP3   OH233745   3.022   6.568   0.881 -0.1541 -0.4142 -0.9243
 4037TIP3    H133746   2.977   6.621   0.947  0.3687  0.0318 -0.9157
 4037TIP3    H233747   3.003   6.612   0.798 -0.6134 -0.8384 -1.0481
 4038TIP3   OH233748   1.233   3.922   1.303  0.4641  0.2089 -0.3055
 4038TIP3    H133749   1.313   3.875   1.323 -0.5171 -1.6988 -0.6052
 4038TIP3    H233750   1.180   3.859   1.254 -2.3159  0.4070  2.1698
 4039TIP3   OH233751   6.615   3.275   3.070  0.1260 -0.0286 -0.0764
 4039TIP3    H133752   6.540   3.228   3.106  0.3521  1.3553  2.3906
 4039TIP3    H233753   6.613   3.254   2.976 -3.0201 -0.4357 -0.0298
 4040TIP3   OH233754   5.944   0.041   8.756  0.1208  0.6530 -0.2928
 4040TIP3    H133755   5.906  -0.013   8.687 -1.6148 -0.9296  1.7254
 4040TIP3    H233756   6.009  -0.016   8.797 -1.7327 -0.0965  1.8625
 4041TIP3   OH233757   3.432   5.280   1.186  0.4621 -0.0342  0.2739
 4041TIP3    H133758   3.398   5.362   1.222  0.9474  0.5624 -0.5945
 4041TIP3    H233759   3.354   5.229   1.165  0.1567 -0.4519  2.2232
 4042TIP3   OH233760   0.519   2.136   8.659 -0.5184 -0.5242 -0.2390
 4042TIP3    H133761   0.513   2.041   8.668 -0.2419 -0.4572  0.8180
 4042TIP3    H233762   0.430   2.168   8.677 -0.9268 -0.6383 -1.8541
 4043TIP3   OH233763   6.484   6.613   1.941  0.4121  0.1250 -0.1692
 4043TIP3    H133764   6.429   6.620   1.863  1.1666  1.8673 -0.5959
 4043TIP3    H233765   6.491   6.703   1.973  2.3571 -0.1575  0.3175
 4044TIP3   OH233766   1.993   1.134   0.940 -0.3244  0.6810  0.1390
 4044TIP3    H133767   2.007   1.049   0.983  0.4957 -0.0841 -1.5472
 4044TIP3    H233768   1.963   1.192   1.011  0.7601 -0.5518  1.6902
 4045TIP3   OH233769   2.540   1.763   0.847 -0.0800  0.2596 -0.8901
 4045TIP3    H133770   2.636   1.757   0.850  0.0263  0.1667  4.3011
 4045TIP3    H233771   2.521   1.852   0.877 -1.5612 -0.6890  1.1441
 4046TIP3   OH233772   1.026   2.884   2.048 -0.0320  0.2677 -0.0547
 4046TIP3    H133773   0.978   2.833   2.114 -0.3068 -1.9617 -1.8993
 4046TIP3    H233774   1.115   2.850   2.051  0.1407  0.6856 -0.3534
 4047TIP3   OH233775   0.280   2.258   2.078 -0.4367 -0.4297  0.3933
 4047TIP3    H133776   0.282   2.262   2.174 -0.1264 -0.0757  0.3739
 4047TIP3    H233777   0.251   2.169   2.058 -2.9286  0.1854  0.8404
 4048TIP3   OH233778   5.439   0.778   0.227 -0.1463  0.2143  0.0472
 4048TIP3    H133779   5.493   0.718   0.278  2.4705  1.8564 -0.6428
 4048TIP3    H233780   5.414   0.726   0.149 -0.1004 -0.7572  0.6591
 4049TIP3   OH233781   5.712   4.591   1.696 -0.2167  0.0413 -0.2617
 4049TIP3    H133782   5.708   4.667   1.638  0.4758 -0.3936 -0.8972
 4049TIP3    H233783   5.740   4.519   1.640 -2.3294 -1.0546 -0.0205
 4050TIP3   OH233784   0.382   2.339   1.830 -0.1577 -0.0619  0.6058
 4050TIP3    H133785   0.350   2.347   1.920 -1.7470 -0.0251  0.0596
 4050TIP3    H233786   0.407   2.247   1.822  1.6197  0.2869  1.5747
 4051TIP3   OH233787   5.808   3.679   0.767  0.3639 -0.0812 -0.0092
 4051TIP3    H133788   5.727   3.708   0.810  0.5610  1.6635 -0.7412
 4051TIP3    H233789   5.782   3.603   0.715 -0.7030  0.1689  0.1341
 4052TIP3   OH233790   2.603   5.605   7.971 -0.2723  0.0007 -0.0235
 4052TIP3    H133791   2.589   5.693   7.936  0.2714  0.1624  0.1613
 4052TIP3    H233792   2.541   5.550   7.923 -1.1210  0.5977  0.3633
 4053TIP3   OH233793   5.516   4.127   0.320  0.1219 -0.1029  0.4806
 4053TIP3    H133794   5.468   4.163   0.394  1.1069  0.8795  0.6677
 4053TIP3    H233795   5.551   4.203   0.274  0.2375 -0.7302 -0.5181
 4054TIP3   OH233796   3.743   5.611   2.691  0.0225  0.1451  0.3851
 4054TIP3    H133797   3.725   5.660   2.771  1.1445 -1.4131  1.6721
 4054TIP3    H233798   3.658   5.603   2.648 -0.6270  0.9354  1.4673
 4055TIP3   OH233799   5.684   1.180   0.844 -0.2620 -0.5726 -0.3533
 4055TIP3    H133800   5.620   1.192   0.774 -0.6872  0.0471  0.1317
 4055TIP3    H233801   5.639   1.125   0.909  0.2211 -1.3619 -0.6726
 4056TIP3   OH233802   6.208   6.557   2.845 -0.3043  0.4712  0.1948
 4056TIP3    H133803   6.152   6.588   2.917 -1.3407  0.1019 -0.4312
 4056TIP3    H233804   6.147   6.537   2.774  0.7432  1.3570 -1.0048
 4057TIP3   OH233805   2.555   0.497   0.480 -0.0206 -0.3229  0.1778
 4057TIP3    H133806   2.599   0.492   0.395  0.6922  0.5016  0.4911
 4057TIP3    H233807   2.564   0.588   0.507 -2.2612 -0.0193  0.0926
 4058TIP3   OH233808   2.778   1.876   1.705 -0.4461 -0.0875 -0.2031
 4058TIP3    H133809   2.817   1.884   1.618  2.0761 -3.3462  0.4258
 4058TIP3    H233810   2.759   1.782   1.714 -1.7801  0.3418  2.3201
 4059TIP3   OH233811   6.305   6.579   7.905  0.2347 -1.1824 -0.5272
 4059TIP3    H133812   6.366   6.608   7.973  0.7174 -0.8209 -1.0975
 4059TIP3    H233813   6.286   6.659   7.855  1.1327 -1.7058 -1.7808
 4060TIP3   OH233814   5.731   0.833   2.338 -0.9251  0.5058  0.3841
 4060TIP3    H133815   5.665   0.765   2.323 -1.2479  1.2198 -1.6470
 4060TIP3    H233816   5.717   0.860   2.429 -0.8506 -2.0278  1.2291
 4061TIP3   OH233817   5.942   1.174   8.807 -1.0122  0.8206  0.4593
 4061TIP3    H133818   5.868   1.130   8.848 -0.8850 -0.7473 -0.8532
 4061TIP3    H233819   5.905   1.253   8.768 -1.6459  0.9086  1.2065
 4062TIP3   OH233820   0.293   1.456   1.709  0.0032 -0.4751 -0.1171
 4062TIP3    H133821   0.280   1.415   1.623  0.5260 -1.3935  0.2263
 4062TIP3    H233822   0.386   1.444   1.728  0.3025  1.3449 -0.2082
 4063TIP3   OH233823   0.487   6.022   8.718 -0.0866  0.2329 -0.3429
 4063TIP3    H133824   0.503   6.035   8.624  0.9604 -0.6830 -0.3176
 4063TIP3    H233825   0.564   5.973   8.748 -1.3029 -1.1631  0.6123
 4064TIP3   OH233826   2.753   0.444   8.064  0.3263  0.1094  0.2665
 4064TIP3    H133827   2.698   0.367   8.078  1.9408 -0.7720  2.2711
 4064TIP3    H233828   2.720   0.482   7.982 -2.0205 -1.3705  0.4254
 4065TIP3   OH233829   2.590   5.828   0.821  0.6891 -0.3173  0.0327
 4065TIP3    H133830   2.573   5.836   0.914 -1.1314 -2.4022 -0.0401
 4065TIP3    H233831   2.639   5.746   0.812  1.6284  0.3110 -0.7824
 4066TIP3   OH233832   5.694   0.010   0.603 -0.4688 -0.9001 -0.3698
 4066TIP3    H133833   5.623  -0.038   0.559  0.2761 -0.4805 -2.1487
 4066TIP3    H233834   5.757   0.028   0.533  0.7686 -0.0923  0.8940
 4067TIP3   OH233835   5.579   6.521   7.915  0.5671 -0.3089  0.2361
 4067TIP3    H133836   5.635   6.599   7.917 -0.4444  0.4202  1.2590
 4067TIP3    H233837   5.634   6.452   7.953  1.8302 -0.3885 -1.6191
 4068TIP3   OH233838   3.171   4.926   8.105  0.0275  0.3061  0.6445
 4068TIP3    H133839   3.157   5.011   8.146  0.4856  0.0982  1.2430
 4068TIP3    H233840   3.131   4.934   8.018 -0.1396  1.0481  0.7873
 4069TIP3   OH233841   1.570   2.455   2.090  0.0136 -0.0207 -0.0502
 4069TIP3    H133842   1.543   2.366   2.110  0.4456 -0.3115 -0.7466
 4069TIP3    H233843   1.639   2.475   2.153  0.2313 -0.3430 -0.1873
 4070TIP3   OH233844   1.066   5.229   3.549  0.5075  0.0705  0.4493
 4070TIP3    H133845   1.120   5.301   3.582  0.4899 -0.0822  0.8165
 4070TIP3    H233846   1.127   5.156   3.541  0.7171  0.3547 -0.7612
 4071TIP3   OH233847   0.990   1.931   2.313  0.2125  0.1492 -0.1442
 4071TIP3    H133848   1.001   1.884   2.395 -0.2633  0.2572 -0.0165
 4071TIP3    H233849   0.991   2.024   2.339 -1.9415  0.1691  0.0145
 4072TIP3   OH233850   0.192   1.197   0.657  0.2078  0.6615 -0.0616
 4072TIP3    H133851   0.161   1.230   0.742  1.7378 -0.7060  1.0746
 4072TIP3    H233852   0.125   1.135   0.630 -0.6265  1.5980 -0.2121
 4073TIP3   OH233853   3.886   2.514   7.175  0.1066 -0.6672  0.3698
 4073TIP3    H133854   3.838   2.561   7.107 -0.0026 -1.1794  0.0920
 4073TIP3    H233855   3.892   2.577   7.247 -0.7170 -0.4916  0.2963
 4074TIP3   OH233856   3.551   2.944   2.915  0.0907 -0.1760 -0.0665
 4074TIP3    H133857   3.590   3.027   2.942 -0.0929 -0.0856 -0.0809
 4074TIP3    H233858   3.458   2.953   2.935  0.0665 -0.3705 -0.0870
 4075TIP3   OH233859   5.015   5.541   2.896  0.3573 -0.0119  0.0136
 4075TIP3    H133860   5.077   5.614   2.895 -1.3160  1.4573  0.4782
 4075TIP3    H233861   4.977   5.542   2.984  0.7997 -1.9266  0.2874
 4076TIP3   OH233862   3.592   4.150   8.029  0.1972 -0.1549  0.1023
 4076TIP3    H133863   3.598   4.245   8.042 -1.4156  0.1440 -0.9893
 4076TIP3    H233864   3.594   4.139   7.934  1.2535 -1.3078  0.2421
 4077TIP3   OH233865   0.825   5.294   8.083  0.3290 -0.2714  0.0188
 4077TIP3    H133866   0.801   5.259   7.997 -1.4343  0.6977  0.0783
 4077TIP3    H233867   0.765   5.367   8.097  2.9171  1.9022  0.5290
 4078TIP3   OH233868   3.566   2.665   0.398 -0.0218 -0.8106 -0.7598
 4078TIP3    H133869   3.554   2.599   0.467  1.3523 -0.8012 -0.4957
 4078TIP3    H233870   3.653   2.647   0.362  0.5132  1.0330 -0.4978
 4079TIP3   OH233871   2.514   5.959   1.443  0.1068 -0.8102 -0.1653
 4079TIP3    H133872   2.526   6.047   1.479 -1.9328  0.4873 -2.3719
 4079TIP3    H233873   2.420   5.943   1.448  0.4503 -2.9631  0.2895
 4080TIP3   OH233874   1.339   0.408   8.379 -0.0421 -0.1179 -0.2659
 4080TIP3    H133875   1.307   0.480   8.325 -0.6281 -0.0494  0.1581
 4080TIP3    H233876   1.331   0.331   8.323  2.1572  0.3460 -1.3165
 4081TIP3   OH233877   6.554   5.799   1.120 -0.1047  0.7365  0.2708
 4081TIP3    H133878   6.568   5.776   1.211  1.2171 -1.2285 -0.3667
 4081TIP3    H233879   6.494   5.732   1.087  0.7104  0.4401 -0.6760
 4082TIP3   OH233880   5.339   1.081   8.295  0.8789  0.0710 -0.2939
 4082TIP3    H133881   5.279   1.115   8.362  0.3192  0.6732 -1.0691
 4082TIP3    H233882   5.391   1.015   8.340 -1.0823 -1.2410  0.1715
 4083TIP3   OH233883   5.535   4.824   2.306 -0.1968  0.5749 -0.5585
 4083TIP3    H133884   5.538   4.729   2.320  2.4893  0.7118  0.4593
 4083TIP3    H233885   5.561   4.835   2.214 -0.4386  0.3160 -0.6581
 4084TIP3   OH233886   0.647   0.452   1.517 -0.0582 -0.1148 -0.6042
 4084TIP3    H133887   0.615   0.539   1.494  0.7694  0.7594  1.3395
 4084TIP3    H233888   0.568   0.398   1.522 -0.8615  1.1304  0.5890
 4085TIP3   OH233889   1.586   3.197   0.614 -0.0328  0.1303 -0.2085
 4085TIP3    H133890   1.565   3.289   0.630  1.9610  0.8957 -1.5559
 4085TIP3    H233891   1.538   3.174   0.534 -2.1802 -0.7040  1.2302
 4086TIP3   OH233892   6.494   4.439   1.893 -0.0812 -0.6552  0.7301
 4086TIP3    H133893   6.457   4.367   1.841  1.0103 -0.5769 -0.1621
 4086TIP3    H233894   6.435   4.513   1.876 -0.5194 -1.0024  0.7030
 4087TIP3   OH233895   5.371   3.786   7.764 -0.4277  0.0578 -0.3984
 4087TIP3    H133896   5.329   3.826   7.839  0.9335  1.4969 -0.3425
 4087TIP3    H233897   5.406   3.860   7.714  3.5117 -0.9666  0.4699
 4088TIP3   OH233898   3.668   6.645   8.432 -0.6867 -0.1012 -0.2045
 4088TIP3    H133899   3.740   6.648   8.369 -0.9316 -0.3085 -0.4925
 4088TIP3    H233900   3.712   6.648   8.517 -0.3975  0.9553 -0.3744
 4089TIP3   OH233901   6.338   0.050   1.798  0.0715 -0.5469 -0.6047
 4089TIP3    H133902   6.301  -0.029   1.759  1.0096 -1.3320  0.0569
 4089TIP3    H233903   6.290   0.062   1.880 -1.1767  0.5062 -1.4596
 4090TIP3   OH233904   3.549   6.541   7.586 -0.4478 -0.4192 -0.1555
 4090TIP3    H133905   3.639   6.571   7.577 -0.4034 -0.9216 -1.8530
 4090TIP3    H233906   3.506   6.607   7.640  0.7268  0.2729 -0.0464
 4091TIP3   OH233907   1.430   5.472   2.216  0.7623  0.2123 -0.1960
 4091TIP3    H133908   1.395   5.539   2.274  0.8630 -0.5988  0.8404
 4091TIP3    H233909   1.510   5.511   2.179  1.2062  0.4096  0.9381
 4092TIP3   OH233910   4.683   5.475   0.774  0.6958  0.1433 -0.0470
 4092TIP3    H133911   4.605   5.461   0.720  0.2320  0.1350  0.6077
 4092TIP3    H233912   4.756   5.457   0.716  0.1892 -1.4263 -0.2467
 4093TIP3   OH233913   2.791   3.509   8.311  0.0578 -0.3863 -0.0414
 4093TIP3    H133914   2.712   3.544   8.351  0.4966  0.4514  0.1368
 4093TIP3    H233915   2.763   3.432   8.263 -0.3543 -1.9998  2.6337
 4094TIP3   OH233916   1.884   3.935   3.152 -0.5617  0.0653  0.3280
 4094TIP3    H133917   1.941   3.935   3.229 -0.1971 -0.9326  0.0729
 4094TIP3    H233918   1.903   3.852   3.108 -0.3950  0.8367 -1.1106
 4095TIP3   OH233919   5.555   5.335   0.185  0.3147  0.2397  0.3061
 4095TIP3    H133920   5.535   5.289   0.266  0.9551  0.0870  0.3807
 4095TIP3    H233921   5.469   5.354   0.146  0.0262 -1.6137 -0.0680
 4096TIP3   OH233922   2.025   5.771   0.303  0.5598 -0.1928  0.1674
 4096TIP3    H133923   2.106   5.723   0.289 -0.5452 -1.7247 -1.5912
 4096TIP3    H233924   1.978   5.721   0.369  0.0153 -0.7839 -0.6396
 4097TIP3   OH233925   4.859   1.293   7.398 -0.1631 -0.0130  0.1523
 4097TIP3    H133926   4.792   1.359   7.388  0.5078  0.8883  1.3264
 4097TIP3    H233927   4.815   1.219   7.440 -0.6438  0.1514 -0.0626
 4098TIP3   OH233928   5.662   3.016   2.880  0.5467 -0.1146 -0.3296
 4098TIP3    H133929   5.688   3.094   2.832  0.8761  0.0354  0.0805
 4098TIP3    H233930   5.740   2.993   2.931  0.2626 -0.3718 -0.0063
 4099TIP3   OH233931   2.447   6.476   0.293 -0.3222 -0.2381 -0.3502
 4099TIP3    H133932   2.509   6.408   0.316 -0.9283 -0.0092  2.2881
 4099TIP3    H233933   2.362   6.443   0.322 -1.0243  0.6276 -1.3062
 4100TIP3   OH233934   5.887   2.932   7.923 -0.5262  0.2694 -0.2744
 4100TIP3    H133935   5.928   2.904   7.841 -0.5451 -2.8153  0.6434
 4100TIP3    H233936   5.956   2.981   7.969 -0.3480  1.5642 -1.8490
 4101TIP3   OH233937   0.289   5.369   0.328 -0.1615 -0.1475  0.8559
 4101TIP3    H133938   0.267   5.461   0.315  0.5535  0.1847  1.8889
 4101TIP3    H233939   0.294   5.333   0.239 -3.1238  0.1173  0.4596
 4102TIP3   OH233940   2.802   4.352   1.412  0.4602 -0.0510 -0.9100
 4102TIP3    H133941   2.892   4.343   1.382  1.2533 -1.0004  1.4686
 4102TIP3    H233942   2.793   4.443   1.438  1.3185 -0.3078  0.3814
 4103TIP3   OH233943   4.155   3.884   0.277  0.0552  0.3863 -0.1165
 4103TIP3    H133944   4.193   3.966   0.311  1.8515 -1.1119  1.7038
 4103TIP3    H233945   4.181   3.884   0.184  0.3686  1.6935 -0.0545
 4104TIP3   OH233946   1.382   6.092   2.721 -0.1313  0.6972  0.1010
 4104TIP3    H133947   1.414   6.169   2.769  0.5217  1.2703 -1.2068
 4104TIP3    H233948   1.353   6.127   2.637 -1.0696 -0.3189 -0.0171
 4105TIP3   OH233949   6.134   2.043   2.014  0.0949  0.8616 -0.3143
 4105TIP3    H133950   6.105   1.992   2.089 -0.9668 -0.1948 -1.3976
 4105TIP3    H233951   6.128   2.134   2.043 -1.6507  0.5458  0.4371
 4106TIP3   OH233952   1.259   4.177   0.024  0.3144 -0.0097  0.3343
 4106TIP3    H133953   1.217   4.263   0.030 -1.0671 -0.4962 -1.4260
 4106TIP3    H233954   1.288   4.170  -0.067 -1.7068 -2.2640 -0.2599
 4107TIP3   OH233955   5.152   5.784   7.996  0.1858  0.7695 -0.4181
 4107TIP3    H133956   5.198   5.804   7.914 -0.3814  0.9327 -0.7028
 4107TIP3    H233957   5.075   5.735   7.968  0.3695  0.1884  0.0849
 4108TIP3   OH233958   1.880   4.309   2.458  0.7199  0.3405 -0.4543
 4108TIP3    H133959   1.800   4.266   2.488  0.9051  0.1785 -0.1953
 4108TIP3    H233960   1.949   4.244   2.470  0.7095  0.0457 -1.7955
 4109TIP3   OH233961   1.075   1.287   7.586  0.2168  0.2311 -0.1601
 4109TIP3    H133962   1.003   1.285   7.649 -1.3488 -0.8772 -1.8664
 4109TIP3    H233963   1.055   1.361   7.529  1.8021  1.4374  0.7561
 4110TIP3   OH233964   0.254   0.374   2.157 -0.3454 -0.7345 -0.2055
 4110TIP3    H133965   0.306   0.399   2.233 -1.8268  1.1393  0.2473
 4110TIP3    H233966   0.211   0.292   2.184  0.2547 -0.8585  0.4157
 4111TIP3   OH233967   1.328   0.698   1.594  0.3728 -0.8608 -0.1247
 4111TIP3    H133968   1.393   0.712   1.524 -0.3488 -0.1440 -0.6689
 4111TIP3    H233969   1.373   0.726   1.674  0.2938  1.0515 -0.6830
 4112TIP3   OH233970   2.934   2.415   0.733  0.5416  0.4823  0.1612
 4112TIP3    H133971   2.901   2.490   0.782 -1.6119 -0.6150  0.5251
 4112TIP3    H233972   2.894   2.424   0.646 -0.4807 -0.6875  0.4866
 4113TIP3   OH233973   4.704   4.975   8.033  0.2994 -0.5107  0.2135
 4113TIP3    H133974   4.777   5.026   7.998  0.5498 -1.2197 -0.3307
 4113TIP3    H233975   4.679   4.917   7.961 -0.1577 -0.9552  0.7212
 4114TIP3   OH233976   5.597   1.692   8.787 -0.9172 -0.3897  0.0774
 4114TIP3    H133977   5.636   1.774   8.757 -1.3715 -0.0194  0.4888
 4114TIP3    H233978   5.650   1.667   8.862  1.0368 -1.9819 -1.6888
 4115TIP3   OH233979   0.333   6.063   2.187 -0.5866  0.0528  0.3168
 4115TIP3    H133980   0.291   5.991   2.141 -2.7804  0.5711  1.4144
 4115TIP3    H233981   0.376   6.022   2.262  0.6354 -0.4312 -0.6114
 4116TIP3   OH233982   2.453   2.378   1.360 -0.0963  0.2985 -0.1242
 4116TIP3    H133983   2.514   2.411   1.294 -0.9465  1.8018 -0.2010
 4116TIP3    H233984   2.473   2.285   1.366  1.8176  0.6321 -0.5439
 4117TIP3   OH233985   1.540   3.392   2.526 -0.2256 -0.0051 -0.8549
 4117TIP3    H133986   1.468   3.438   2.484 -0.1281 -0.1696 -1.2075
 4117TIP3    H233987   1.547   3.309   2.479 -0.3098 -0.3238 -0.3195
 4118TIP3   OH233988   4.976   0.430   0.963 -0.1829  0.0496 -0.0793
 4118TIP3    H133989   4.931   0.506   0.925  0.3428  0.6244  0.4261
 4118TIP3    H233990   4.921   0.356   0.938  1.2344  0.0512 -3.9734
 4119TIP3   OH233991   2.275   5.740   7.451 -0.2944  0.5416  0.0840
 4119TIP3    H133992   2.366   5.769   7.453 -0.5456  1.4801 -0.9117
 4119TIP3    H233993   2.270   5.672   7.518  1.2881  0.0186 -0.2782
 4120TIP3   OH233994   3.596   6.636   7.917  0.2555  0.1516 -0.1078
 4120TIP3    H133995   3.642   6.640   8.001  0.2349 -0.9494 -0.0206
 4120TIP3    H233996   3.607   6.723   7.878  0.6360  0.5333  0.8388
 4121TIP3   OH233997   0.168   4.244   7.713 -0.0145 -0.0193 -0.3160
 4121TIP3    H133998   0.073   4.255   7.715 -0.0595 -0.4006 -0.2311
 4121TIP3    H233999   0.181   4.152   7.688  0.3574  0.4975 -2.1957
 4122TIP3   OH234000   4.688   6.585   8.220 -0.4352  0.5730 -0.3814
 4122TIP3    H134001   4.635   6.532   8.161  0.6369  0.7509 -1.5478
 4122TIP3    H234002   4.638   6.666   8.230 -1.0658  0.1818 -0.2908
 4123TIP3   OH234003   0.777   4.714   1.161  0.1379  0.0557  0.3844
 4123TIP3    H134004   0.768   4.619   1.168 -0.2419  0.0831  0.2950
 4123TIP3    H234005   0.732   4.736   1.079 -1.3899  0.5342  1.3363
 4124TIP3   OH234006   5.183   0.203   1.077 -0.1691  0.0817 -0.5963
 4124TIP3    H134007   5.112   0.260   1.048  0.6131  0.3952 -1.9934
 4124TIP3    H234008   5.141   0.121   1.100 -1.0005  0.3236 -1.2203
 4125TIP3   OH234009   0.278   3.281   3.190 -0.2363  0.0283 -0.7018
 4125TIP3    H134010   0.292   3.188   3.211 -0.3278  0.3049  0.6393
 4125TIP3    H234011   0.197   3.303   3.235  0.9281  1.3283  0.8303
 4126TIP3   OH234012   0.325   6.535   1.360 -0.1406 -0.4425  0.3489
 4126TIP3    H134013   0.261   6.465   1.355 -1.5950  0.8030  0.9314
 4126TIP3    H234014   0.385   6.509   1.430 -0.5480 -1.1806  0.4253
 4127TIP3   OH234015   0.254   3.329   1.894 -0.0439  0.5268 -0.0194
 4127TIP3    H134016   0.227   3.402   1.839  2.6670  1.9416  0.3514
 4127TIP3    H234017   0.315   3.279   1.841 -0.8863 -0.7641  0.1838
 4128TIP3   OH234018   4.476   1.555   1.787  0.0891  0.2256 -0.3952
 4128TIP3    H134019   4.410   1.525   1.849 -1.1494  0.2226 -1.6635
 4128TIP3    H234020   4.546   1.490   1.793 -1.1382 -1.1859 -0.8093
 4129TIP3   OH234021   4.601   6.374   2.249  0.0033 -0.5291 -0.4274
 4129TIP3    H134022   4.616   6.443   2.183 -0.0729 -0.0902  0.0105
 4129TIP3    H234023   4.506   6.369   2.256 -0.0129 -1.1896 -0.9808
 4130TIP3   OH234024   0.544   0.396   8.370 -0.6889 -0.0139 -0.2940
 4130TIP3    H134025   0.518   0.353   8.452  0.3987  0.3669  0.2707
 4130TIP3    H234026   0.464   0.436   8.338 -0.8368  1.2261  1.4533
 4131TIP3   OH234027   2.112   5.028   0.797 -0.4154 -0.3880  0.4618
 4131TIP3    H134028   2.198   4.986   0.804 -0.2542  0.0427  1.2597
 4131TIP3    H234029   2.131   5.122   0.799 -0.9079 -0.2914  0.7582
 4132TIP3   OH234030   2.309   3.459   2.030 -0.0876 -0.1492 -0.7602
 4132TIP3    H134031   2.345   3.380   1.990  0.1877 -0.0815 -0.6468
 4132TIP3    H234032   2.376   3.526   2.015 -0.7626  0.3222 -1.7611
 4133TIP3   OH234033   6.656   0.254   1.189  0.2419 -0.1191  0.6432
 4133TIP3    H134034   6.730   0.287   1.239  1.7123 -0.3342 -1.2980
 4133TIP3    H234035   6.656   0.306   1.109 -1.9228  0.0864  0.7099
 4134TIP3   OH234036   6.814   2.731   0.916 -0.1975  0.1699 -0.2246
 4134TIP3    H134037   6.738   2.725   0.974 -0.2329 -0.8508 -0.3638
 4134TIP3    H234038   6.812   2.650   0.865  1.2194 -0.0651  0.0558
 4135TIP3   OH234039   0.088   1.413   8.733  0.2241  0.6954 -0.2303
 4135TIP3    H134040   0.039   1.374   8.660  1.2508 -0.0890 -0.5337
 4135TIP3    H234041   0.119   1.337   8.784 -1.0225  1.2411  1.4114
 4136TIP3   OH234042   5.342   4.508   0.469 -0.0225 -0.0927  0.1522
 4136TIP3    H134043   5.350   4.578   0.534  0.5998  0.9978 -1.0231
 4136TIP3    H234044   5.418   4.452   0.485 -1.3405 -1.4345  2.0843
 4137TIP3   OH234045   4.417   5.708   0.376  0.1175 -0.5804 -0.3054
 4137TIP3    H134046   4.402   5.792   0.421  0.9271 -0.4964 -0.1674
 4137TIP3    H234047   4.345   5.701   0.314 -1.0853 -0.7274  1.0425
 4138TIP3   OH234048   5.370   4.955   8.513 -0.0481  0.0348  0.6322
 4138TIP3    H134049   5.326   4.963   8.429 -0.7352 -2.9559  0.6136
 4138TIP3    H234050   5.335   5.028   8.565 -0.5017  1.2290 -1.2467
 4139TIP3   OH234051   3.553   4.776   3.083 -0.3103 -0.0818 -0.3539
 4139TIP3    H134052   3.585   4.686   3.086 -0.4213 -0.1731 -1.2986
 4139TIP3    H234053   3.543   4.802   3.174  2.9427  0.1455  0.0547
 4140TIP3   OH234054   2.795   6.131   2.408  0.0993 -0.3595 -0.3443
 4140TIP3    H134055   2.760   6.177   2.332  0.5737 -0.4561 -0.6274
 4140TIP3    H234056   2.871   6.183   2.434  0.8434 -1.1389 -0.8724
 4141TIP3   OH234057   0.390   0.890   1.239  0.7486 -0.0279 -0.0429
 4141TIP3    H134058   0.354   0.814   1.194  0.1352  0.4347 -0.3441
 4141TIP3    H234059   0.318   0.953   1.242  2.0350  1.7050 -2.3940
 4142TIP3   OH234060   3.231   1.377   7.384 -0.4973  0.0797  0.2129
 4142TIP3    H134061   3.202   1.286   7.372  0.0380  0.1381 -1.6970
 4142TIP3    H234062   3.243   1.411   7.296  1.2421  1.4085  0.9080
 4143TIP3   OH234063   5.537   5.009   7.834 -0.0403  0.0108  0.1849
 4143TIP3    H134064   5.623   5.014   7.792 -0.0436  2.0263  0.2964
 4143TIP3    H234065   5.489   5.084   7.798 -1.1333 -0.0501  1.4359
 4144TIP3   OH234066   0.652   5.260   7.501  0.1054  0.1856 -0.1169
 4144TIP3    H134067   0.620   5.181   7.544 -0.4574  0.1477 -0.6015
 4144TIP3    H234068   0.573   5.309   7.478  0.4499  0.9002  0.1974
 4145TIP3   OH234069   4.705   3.917   0.451  0.1754  0.1123  0.5316
 4145TIP3    H134070   4.644   3.846   0.429 -0.5271 -0.2670  3.2350
 4145TIP3    H234071   4.783   3.899   0.400 -1.7048  0.2928 -2.6385
 4146TIP3   OH234072   4.934   1.735   0.363  0.1537  0.1699  0.6797
 4146TIP3    H134073   4.859   1.795   0.361 -0.1598 -0.2255 -0.3767
 4146TIP3    H234074   5.001   1.782   0.412  0.2960  1.8813 -1.0498
 4147TIP3   OH234075   6.737   3.803   2.207 -0.0357  0.2819 -0.3759
 4147TIP3    H134076   6.802   3.733   2.193  0.9280  1.2907 -1.0801
 4147TIP3    H234077   6.706   3.824   2.119 -0.5078  0.5788 -0.1393
 4148TIP3   OH234078   3.292   1.255   2.354 -0.1481  0.3943 -0.5387
 4148TIP3    H134079   3.380   1.293   2.360  0.1303 -0.4227  1.3153
 4148TIP3    H234080   3.260   1.257   2.444 -1.2732 -1.0622 -0.8811
 4149TIP3   OH234081   4.923   2.966   7.733 -0.0713 -0.1159  0.8247
 4149TIP3    H134082   4.920   3.057   7.704 -0.0976  0.1342  1.6056
 4149TIP3    H234083   4.895   2.968   7.824 -1.1770 -1.0514  0.5332
 4150TIP3   OH234084   3.766   2.353   2.480 -0.4339 -0.0597  0.4195
 4150TIP3    H134085   3.812   2.283   2.435 -0.1355 -0.4664  1.3504
 4150TIP3    H234086   3.674   2.325   2.481 -0.3280 -0.3979  0.7112
 4151TIP3   OH234087   2.997   1.967   8.106  0.0209 -0.1901  0.2353
 4151TIP3    H134088   2.976   1.971   8.199  0.2057 -0.6753  0.2977
 4151TIP3    H234089   3.014   1.875   8.088 -3.1608 -0.6778 -0.9541
 4152TIP3   OH234090   3.382   4.376   6.681  0.5360 -0.6807 -0.2829
 4152TIP3    H134091   3.315   4.364   6.613  1.4212  0.3919 -1.3942
 4152TIP3    H234092   3.363   4.308   6.746 -1.7488 -0.2894 -0.4504
 4153TIP3   OH234093   2.046   0.342   7.935  0.7731  0.0508 -0.1232
 4153TIP3    H134094   1.989   0.411   7.969  0.4819 -0.2051 -0.0843
 4153TIP3    H234095   2.132   0.383   7.928  0.7678  0.2024  0.6173
 4154TIP3   OH234096   2.142   6.570   2.266  0.5914  0.3904  0.0958
 4154TIP3    H134097   2.115   6.637   2.328  0.5425  0.0062  0.4923
 4154TIP3    H234098   2.068   6.562   2.205 -0.0289 -0.3605  0.9294
 4155TIP3   OH234099   0.704   0.296   1.947  0.0974  0.4298 -0.0740
 4155TIP3    H134100   0.726   0.203   1.937  1.5949  0.6295  1.0484
 4155TIP3    H234101   0.626   0.308   1.893  1.0772 -1.0071 -1.9025
 4156TIP3   OH234102   6.612   4.037   8.052 -0.0433  0.0862 -0.0372
 4156TIP3    H134103   6.576   3.954   8.020  1.2125  0.1167 -1.6704
 4156TIP3    H234104   6.552   4.065   8.121 -1.4427 -1.3206 -0.6375
 4157TIP3   OH234105   1.171   4.407   0.169  0.6933 -0.1578  0.1949
 4157TIP3    H134106   1.162   4.479   0.232 -0.6375 -0.4460  0.3830
 4157TIP3    H234107   1.181   4.450   0.085  0.4153  0.2567  0.3689
 4158TIP3   OH234108   1.915   5.799   2.225  0.3258  0.4393 -0.1939
 4158TIP3    H134109   1.905   5.859   2.298 -0.2287 -0.4769  0.4958
 4158TIP3    H234110   1.856   5.833   2.157  0.1542  0.7687  0.1205
 4159TIP3   OH234111   2.788   0.612   2.623  0.3459  0.0307  0.5275
 4159TIP3    H134112   2.859   0.672   2.648  0.2964  0.3017  0.0236
 4159TIP3    H234113   2.726   0.668   2.576 -0.1937 -0.2076  0.9507
 4160TIP3   OH234114   3.852   2.767   1.081 -0.0878  0.4455 -0.7092
 4160TIP3    H134115   3.892   2.851   1.101  0.5778  0.1666 -0.8317
 4160TIP3    H234116   3.880   2.748   0.991  1.5121 -0.8712  0.0281
 4161TIP3   OH234117   4.391   6.309   0.390 -0.0324 -0.2049 -0.2974
 4161TIP3    H134118   4.373   6.339   0.301 -1.0926  0.5724  0.1529
 4161TIP3    H234119   4.337   6.231   0.401 -0.8490  0.3932  0.0487
 4162TIP3   OH234120   3.719   2.306   7.183 -0.1021 -0.4076 -0.3833
 4162TIP3    H134121   3.775   2.383   7.173 -1.0374  0.3068 -0.1950
 4162TIP3    H234122   3.781   2.234   7.200  0.8059  0.2065 -1.0030
 4163TIP3   OH234123   5.641   3.536   2.115  0.3548 -0.2923 -0.3786
 4163TIP3    H134124   5.587   3.523   2.193  0.2407 -0.1842 -0.4388
 4163TIP3    H234125   5.649   3.632   2.107  0.1261 -0.2960 -0.6617
 4164TIP3   OH234126   4.569   1.285   1.770  0.8215 -0.0649  0.1959
 4164TIP3    H134127   4.484   1.244   1.788  0.3604  0.5147 -0.6037
 4164TIP3    H234128   4.607   1.302   1.856 -0.2636  0.4768  0.5838
 4165TIP3   OH234129   5.844   3.414   7.470  0.4171  0.1587 -0.8829
 4165TIP3    H134130   5.850   3.341   7.409  0.4764  0.3588 -1.1198
 4165TIP3    H234131   5.750   3.430   7.480  0.4071  0.1188 -0.9160
 4166TIP3   OH234132   5.255   3.319   7.116  0.0049 -0.0776  0.2593
 4166TIP3    H134133   5.204   3.300   7.037 -0.5105  2.2453 -0.0591
 4166TIP3    H234134   5.296   3.236   7.139  0.9493 -0.6652 -3.0067
 4167TIP3   OH234135   5.128   2.691   1.609 -0.0511 -0.2168  1.0727
 4167TIP3    H134136   5.046   2.702   1.656 -0.8775 -1.1832 -0.0835
 4167TIP3    H234137   5.176   2.624   1.658 -0.2999 -0.2178  1.3123
 4168TIP3   OH234138   2.254   1.678   2.876 -0.2850  0.2029 -0.3770
 4168TIP3    H134139   2.191   1.608   2.891  0.3080 -0.2444  0.1173
 4168TIP3    H234140   2.309   1.678   2.955  1.1612 -0.3059 -1.3451
 4169TIP3   OH234141   3.898   0.133   0.876  0.5063  0.0498 -0.0385
 4169TIP3    H134142   3.909   0.051   0.829  2.0346 -0.0295  0.4018
 4169TIP3    H234143   3.967   0.190   0.841 -0.0469  0.8899  0.2071
 4170TIP3   OH234144   2.902   5.619   0.245  0.5358 -0.1316  0.7056
 4170TIP3    H134145   2.932   5.539   0.203 -0.5823 -0.7167  0.9883
 4170TIP3    H234146   2.973   5.644   0.304  2.4512  1.0775 -1.9074
 4171TIP3   OH234147   5.133   6.349   2.660 -0.5090 -0.1892 -0.1250
 4171TIP3    H134148   5.220   6.381   2.684  0.0942 -2.0740  0.3656
 4171TIP3    H234149   5.090   6.425   2.621  1.5422  0.6552 -0.9228
 4172TIP3   OH234150   3.821   3.995   7.840  0.1631  0.1538  0.2298
 4172TIP3    H134151   3.859   3.936   7.906  0.0681  0.1365  0.2679
 4172TIP3    H234152   3.847   4.082   7.869 -1.0000  0.2565  1.0265
 4173TIP3   OH234153   2.455   1.155   1.559  0.3497 -0.2881 -0.3552
 4173TIP3    H134154   2.549   1.135   1.554  0.2663 -0.4235 -2.7048
 4173TIP3    H234155   2.427   1.160   1.467 -2.2575 -1.7114  0.2615
 4174TIP3   OH234156   5.066   1.685   8.651  0.2618 -0.4682  0.0920
 4174TIP3    H134157   5.147   1.736   8.645 -0.9000  1.4611 -0.1203
 4174TIP3    H234158   5.069   1.644   8.737  0.6478  1.0998  0.8580
 4175TIP3   OH234159   4.786   2.528   3.109  0.5136 -0.0963  0.1232
 4175TIP3    H134160   4.880   2.539   3.122  0.2978  2.5728  0.0085
 4175TIP3    H234161   4.750   2.513   3.196  1.2620 -4.2506 -0.1172
 4176TIP3   OH234162   6.604   0.031   1.033  0.1318  0.0665  0.0022
 4176TIP3    H134163   6.554   0.081   0.969 -1.4945 -0.0452  1.1224
 4176TIP3    H234164   6.615   0.090   1.107 -0.5563 -0.7254  0.7654
 4177TIP3   OH234165   1.018   0.452   0.984 -0.6476  0.0071  0.1089
 4177TIP3    H134166   0.939   0.400   0.967 -0.8078  0.0261  0.7746
 4177TIP3    H234167   1.065   0.403   1.051  0.4205 -0.5263 -0.9837
 4178TIP3   OH234168   3.733   6.727   1.442 -0.4382 -0.4937  0.2216
 4178TIP3    H134169   3.729   6.820   1.422 -0.8269 -0.6010 -0.2326
 4178TIP3    H234170   3.747   6.685   1.357 -0.2024 -0.8451  0.4322
 4179TIP3   OH234171   5.719   6.155   0.393  0.0943  0.2859 -0.0570
 4179TIP3    H134172   5.774   6.225   0.358  1.4766  0.1300  1.6357
 4179TIP3    H234173   5.683   6.192   0.474  0.9732 -0.9859  0.9485
 4180TIP3   OH234174   2.947   4.696   2.620  0.3156  0.2723  0.2926
 4180TIP3    H134175   2.971   4.691   2.528  1.8359 -1.9773  0.7166
 4180TIP3    H234176   2.964   4.787   2.645  1.9161  0.4087 -1.1358
 4181TIP3   OH234177   5.377   6.459   1.073 -0.1164  0.3489  0.5241
 4181TIP3    H134178   5.446   6.524   1.087 -0.7042  0.9049  0.8317
 4181TIP3    H234179   5.399   6.388   1.134  1.2660 -0.3574 -0.7307
 4182TIP3   OH234180   0.421   3.641   8.777 -0.0569 -0.2775 -0.2794
 4182TIP3    H134181   0.446   3.648   8.869  3.8878  0.6386 -1.2210
 4182TIP3    H234182   0.402   3.548   8.765 -2.2747 -0.1743  1.7049
 4183TIP3   OH234183   1.486   1.583   0.850  0.1139  0.5232 -0.4988
 4183TIP3    H134184   1.521   1.540   0.772 -0.1619  0.1886 -0.4392
 4183TIP3    H234185   1.433   1.516   0.893 -0.6904  1.0546 -0.6479
 4184TIP3   OH234186   2.120   2.620   0.865  0.1243 -0.0115 -0.0158
 4184TIP3    H134187   2.084   2.550   0.920  1.6381 -0.3872  0.5752
 4184TIP3    H234188   2.139   2.691   0.927  1.4838 -0.2905 -0.0758
 4185TIP3   OH234189   5.273   4.336   0.865 -0.7146  0.2166  0.2509
 4185TIP3    H134190   5.290   4.305   0.776 -0.6442  1.9174 -0.3651
 4185TIP3    H234191   5.200   4.283   0.896 -0.8076 -0.3182 -0.8636
 4186TIP3   OH234192   4.103   1.513   0.532  0.4739 -0.1182 -0.5514
 4186TIP3    H134193   4.103   1.417   0.522  1.5072 -0.2788  0.7213
 4186TIP3    H234194   4.135   1.527   0.621 -0.7604  1.3969 -0.3165
 4187TIP3   OH234195   3.813   4.187   1.528  0.7163 -0.3826 -0.6764
 4187TIP3    H134196   3.891   4.217   1.575 -1.4334  2.0056  1.7143
 4187TIP3    H234197   3.828   4.093   1.515  1.7313 -1.2853  4.7125
 4188TIP3   OH234198   4.487   2.829   1.437  0.0940  0.3461 -0.3973
 4188TIP3    H134199   4.402   2.793   1.459  0.1448  0.6117  0.2533
 4188TIP3    H234200   4.504   2.895   1.504  1.0392 -0.0643 -0.2108
 4189TIP3   OH234201   2.114   1.984   7.648 -0.0085 -0.3347 -0.3707
 4189TIP3    H134202   2.049   1.915   7.663 -0.4462  0.2385  0.4229
 4189TIP3    H234203   2.156   1.960   7.565 -0.7550 -1.0799 -0.5422
 4190TIP3   OH234204   5.604   4.944   2.851  0.0897 -0.0239  0.2131
 4190TIP3    H134205   5.557   5.009   2.798 -0.7073  0.5973  1.6242
 4190TIP3    H234206   5.538   4.878   2.872  0.3654 -0.1867  0.5732
 4191TIP3   OH234207   5.335   4.833   8.767 -0.0431 -0.0268  0.6665
 4191TIP3    H134208   5.422   4.862   8.796  1.0179 -2.7528  0.5351
 4191TIP3    H234209   5.324   4.874   8.681  2.4169 -1.6595 -0.5792
 4192TIP3   OH234210   4.007   2.894   2.157 -0.3767 -0.4019  0.7775
 4192TIP3    H134211   3.952   2.956   2.204 -1.7474 -0.7270 -0.3452
 4192TIP3    H234212   4.072   2.949   2.113 -1.1569  0.1972  0.3473
 4193TIP3   OH234213   1.950   1.339   8.085 -0.1978 -0.5037  0.1370
 4193TIP3    H134214   1.934   1.407   8.020 -2.2843 -2.0875 -1.1164
 4193TIP3    H234215   1.927   1.380   8.168  0.5066  0.8972 -0.3229
 4194TIP3   OH234216   5.491   6.529   8.335  0.2277 -0.0529  0.7490
 4194TIP3    H134217   5.491   6.503   8.427  0.9646 -1.3171  0.4120
 4194TIP3    H234218   5.459   6.619   8.335 -0.6741 -0.3513  2.1468
 4195TIP3   OH234219   5.830   2.208   8.079 -0.0252  0.3282  0.0872
 4195TIP3    H134220   5.838   2.290   8.031 -1.6005  0.1031 -0.6238
 4195TIP3    H234221   5.900   2.153   8.044 -1.4347 -0.0053 -2.3947
 4196TIP3   OH234222   0.401   3.237   0.613 -0.4230  0.9334  0.2711
 4196TIP3    H134223   0.367   3.212   0.527 -0.3424  1.5792  0.0455
 4196TIP3    H234224   0.466   3.304   0.594  0.4559  0.2437  0.7523
 4197TIP3   OH234225   6.622   4.158   8.417 -0.5742 -0.5068  1.0078
 4197TIP3    H134226   6.694   4.151   8.354 -2.2552  0.5904 -1.1664
 4197TIP3    H234227   6.618   4.071   8.458  1.1717 -0.9652  0.3018
 4198TIP3   OH234228   3.766   2.013   0.483 -0.0751  0.3504 -0.0171
 4198TIP3    H134229   3.801   2.092   0.525  0.2087  0.7457 -0.9808
 4198TIP3    H234230   3.711   2.046   0.412 -0.3789 -0.3179 -0.0957
 4199TIP3   OH234231   2.231   4.486   0.422  0.0764 -0.4152 -0.3360
 4199TIP3    H134232   2.276   4.405   0.450 -0.6228 -1.2462 -1.5195
 4199TIP3    H234233   2.142   4.476   0.456  0.4087  0.6558  0.9306
 4200TIP3   OH234234   0.756   3.492   8.752  0.1874  0.6817  0.5953
 4200TIP3    H134235   0.821   3.424   8.772  0.1733 -0.3265 -2.2962
 4200TIP3    H234236   0.689   3.482   8.820  1.4210 -0.4705  1.7120
 4201TIP3   OH234237   6.125   5.455   8.191  0.0538 -0.4730 -0.1154
 4201TIP3    H134238   6.030   5.449   8.186  0.0447  0.0696 -0.6501
 4201TIP3    H234239   6.157   5.408   8.114  0.2646 -1.6876  0.6920
 4202TIP3   OH234240   1.298   6.703   1.572  0.2661  0.2509 -0.2236
 4202TIP3    H134241   1.270   6.720   1.661  2.8709  0.3867  0.6654
 4202TIP3    H234242   1.360   6.774   1.552 -0.8106  0.6626 -2.4452
 4203TIP3   OH234243   6.734   1.844   8.564  1.0908 -0.0164  0.2749
 4203TIP3    H134244   6.742   1.918   8.624  1.0970 -0.4325  0.8030
 4203TIP3    H234245   6.643   1.817   8.572  1.2883 -0.5854  0.7358
 4204TIP3   OH234246   4.277   0.079   3.169 -0.8271  0.3351 -0.1711
 4204TIP3    H134247   4.335   0.154   3.156 -1.8302  1.3796  1.0726
 4204TIP3    H234248   4.197   0.102   3.121 -0.8605 -0.2992 -0.4252
 4205TIP3   OH234249   0.732   3.445   2.472  0.0150 -0.0433  0.5855
 4205TIP3    H134250   0.801   3.479   2.416 -1.1238 -2.4945 -2.5813
 4205TIP3    H234251   0.766   3.456   2.561  2.9517  1.8998 -0.6287
 4206TIP3   OH234252   0.251   2.984   0.007  0.5004 -0.2235 -0.5240
 4206TIP3    H134253   0.190   3.013  -0.061  0.6713  1.2532 -0.0928
 4206TIP3    H234254   0.226   2.893   0.025 -0.1253 -0.3515 -1.9109
 4207TIP3   OH234255   3.734   4.620   0.430 -0.1681  0.4984 -0.1870
 4207TIP3    H134256   3.772   4.534   0.446 -0.5398  0.2435 -0.6445
 4207TIP3    H234257   3.781   4.654   0.354  0.2547  0.8744  0.2372
 4208TIP3   OH234258   3.895   5.035   8.575  0.3622 -0.2605 -0.5653
 4208TIP3    H134259   3.914   5.126   8.552  1.2128 -0.1324  0.5799
 4208TIP3    H234260   3.805   5.037   8.607  0.5742  0.2923  0.0243
 4209TIP3   OH234261   0.743   1.130   8.631 -0.5464  0.2148  0.0508
 4209TIP3    H134262   0.735   1.219   8.596  1.1917  0.6786  0.7541
 4209TIP3    H234263   0.738   1.074   8.554 -0.9600  0.9656 -0.4812
 4210TIP3   OH234264   5.544   1.623   0.918 -0.1408 -0.7081  0.2701
 4210TIP3    H134265   5.618   1.654   0.865  0.4840 -0.5234  1.2305
 4210TIP3    H234266   5.573   1.537   0.951  0.2111 -0.0509  1.7330
 4211TIP3   OH234267   6.416   0.350   1.785  0.0159  0.0273  0.1067
 4211TIP3    H134268   6.331   0.306   1.782  0.2792 -0.6302  1.4937
 4211TIP3    H234269   6.479   0.280   1.800  0.5872  0.7036  1.0099
 4212TIP3   OH234270   0.346   5.648   1.740 -0.2653 -0.2402  0.6555
 4212TIP3    H134271   0.293   5.589   1.686 -0.2232 -0.3715  0.7591
 4212TIP3    H234272   0.430   5.652   1.695 -0.5329  0.3816  0.2032
 4213TIP3   OH234273   6.316   1.923   8.708  0.4697 -0.0803  0.1139
 4213TIP3    H134274   6.387   1.882   8.759  0.0165  0.2734  1.0359
 4213TIP3    H234275   6.271   1.849   8.667  0.7508 -0.3835  0.3432
 4214TIP3   OH234276   0.011   2.623   8.451 -0.1001  0.1451 -0.1281
 4214TIP3    H134277  -0.057   2.556   8.461  0.1148 -0.1498 -0.6131
 4214TIP3    H234278  -0.035   2.697   8.412 -0.8856  1.2019  2.6093
 4215TIP3   OH234279   3.988   4.516   8.689  0.2126  0.3143 -0.2160
 4215TIP3    H134280   3.975   4.549   8.601 -0.1442  0.0613 -0.2627
 4215TIP3    H234281   3.977   4.592   8.746 -0.4949  0.3046 -0.3272
 4216TIP3   OH234282   0.639   1.644   8.075  0.0917 -0.4203 -1.0693
 4216TIP3    H134283   0.700   1.610   8.010  0.8577  1.1738 -1.2339
 4216TIP3    H234284   0.592   1.713   8.030  2.2273  2.3268  0.5588
 4217TIP3   OH234285   3.784   5.352   2.199 -0.0597  0.0466  0.2751
 4217TIP3    H134286   3.800   5.312   2.285  1.1237  0.1365  0.1148
 4217TIP3    H234287   3.714   5.416   2.215  0.7062  0.6491  1.3698
 4218TIP3   OH234288   3.748   5.383   1.362 -0.0704 -0.5538  0.1794
 4218TIP3    H134289   3.767   5.450   1.296 -2.1337  1.0787  1.1256
 4218TIP3    H234290   3.704   5.313   1.314  0.4706 -0.4261 -0.5175
 4219TIP3   OH234291   3.392   5.623   1.680  0.4293 -0.1345 -0.4282
 4219TIP3    H134292   3.446   5.548   1.654 -0.0264 -0.6137 -0.0257
 4219TIP3    H234293   3.419   5.642   1.770  1.3875  0.9619 -0.9169
 4220TIP3   OH234294   5.499   4.857   0.449 -0.1055  0.7854  0.0366
 4220TIP3    H134295   5.516   4.931   0.507 -1.1907 -0.6016  2.2528
 4220TIP3    H234296   5.404   4.859   0.435 -0.0451  0.2490 -0.4982
 4221TIP3   OH234297   2.522   0.649   0.797 -0.6933 -0.1260 -0.1696
 4221TIP3    H134298   2.602   0.670   0.749 -0.3230  1.7196  1.1244
 4221TIP3    H234299   2.544   0.569   0.845 -0.2454 -0.6197 -1.1645
 4222TIP3   OH234300   5.438   3.733   8.283 -0.3027 -0.5104  0.1032
 4222TIP3    H134301   5.391   3.734   8.366  1.2385  0.4639  1.0193
 4222TIP3    H234302   5.447   3.825   8.259 -0.9195 -0.7772 -1.2991
 4223TIP3   OH234303   1.047   2.035   0.787  0.4728 -0.2520 -0.3196
 4223TIP3    H134304   1.102   1.984   0.846 -0.8362 -0.5275  0.7063
 4223TIP3    H234305   1.065   1.999   0.700  0.3441 -1.7822  0.2572
 4224TIP3   OH234306   5.328   3.330   2.133 -0.0582  0.6614  0.5743
 4224TIP3    H134307   5.344   3.373   2.049  0.4614 -1.4554 -0.5046
 4224TIP3    H234308   5.291   3.398   2.189 -1.3218  1.9330 -1.6614
 4225TIP3   OH234309   2.670   0.541   7.813  0.9882  0.6161  0.3730
 4225TIP3    H134310   2.621   0.623   7.814 -1.2318 -0.6421  1.1585
 4225TIP3    H234311   2.612   0.479   7.769  1.1245 -1.3213  2.7123
 4226TIP3   OH234312   2.666   6.555   0.112 -0.3189 -0.5747 -0.3109
 4226TIP3    H134313   2.615   6.530   0.189  0.5691 -0.1407  0.4527
 4226TIP3    H234314   2.665   6.651   0.114  0.2189 -0.5631 -0.4774
 4227TIP3   OH234315   4.304   6.395   0.017  0.4773 -0.2277  0.9016
 4227TIP3    H134316   4.387   6.350   0.028  1.9957  1.2551 -3.0429
 4227TIP3    H234317   4.274   6.371  -0.070 -2.2757  0.8801  1.4170
 4228TIP3   OH234318   0.611   5.055   0.380  0.3478  0.4585  0.5366
 4228TIP3    H134319   0.689   5.058   0.436 -0.3643 -1.6268  1.7782
 4228TIP3    H234320   0.563   4.977   0.410 -2.0343  1.4472 -0.4326
 4229TIP3   OH234321   2.128   6.692   1.245  0.1955  0.2148 -0.0091
 4229TIP3    H134322   2.174   6.706   1.162  2.3976 -3.6244  0.2849
 4229TIP3    H234323   2.069   6.618   1.228  0.4288 -0.4219  1.6895
 4230TIP3   OH234324   5.463   3.108   6.981 -0.1889 -0.4547  0.3132
 4230TIP3    H134325   5.413   3.179   6.940  0.4937 -0.2845 -0.2359
 4230TIP3    H234326   5.443   3.031   6.928  1.1985 -0.1051 -0.7765
 4231TIP3   OH234327   1.807   1.025   0.171  0.4950  0.2947 -0.0351
 4231TIP3    H134328   1.875   0.960   0.151  0.6096  0.5507 -0.4840
 4231TIP3    H234329   1.819   1.043   0.264 -0.2578 -1.1549  0.3703
 4232TIP3   OH234330   6.700   2.856   0.558  0.3155  0.3800  0.8495
 4232TIP3    H134331   6.626   2.905   0.524 -1.2927 -2.5517 -0.2479
 4232TIP3    H234332   6.661   2.781   0.602  2.6110 -1.1492  0.4567
 4233TIP3   OH234333   3.059   3.419   8.662 -0.7554  0.1029 -0.4838
 4233TIP3    H134334   2.997   3.484   8.629 -0.7849  0.6616  0.6083
 4233TIP3    H234335   3.021   3.390   8.745  0.2005  0.0931 -0.0365
 4234TIP3   OH234336   2.395   5.187   8.477  0.1869  0.3942 -0.1032
 4234TIP3    H134337   2.487   5.172   8.458  0.2659  0.9097 -0.1388
 4234TIP3    H234338   2.371   5.117   8.538  0.5996  0.2569 -0.0989
 4235TIP3   OH234339   3.753   1.311   0.033  0.0945 -0.0741 -0.6776
 4235TIP3    H134340   3.719   1.230  -0.006 -0.9257 -0.5064  1.0069
 4235TIP3    H234341   3.848   1.305   0.021 -0.1192 -0.4948 -2.4266
 4236TIP3   OH234342   3.943   0.171   1.791 -0.6123  0.1503 -0.4528
 4236TIP3    H134343   4.022   0.222   1.771  0.8034 -0.7218  2.3204
 4236TIP3    H234344   3.948   0.096   1.731  0.1570  0.6016 -0.9765
 4237TIP3   OH234345   1.213   4.033   0.879  0.1649  0.3020 -0.1711
 4237TIP3    H134346   1.233   4.066   0.792 -0.2795  1.0379  0.0022
 4237TIP3    H234347   1.297   4.032   0.925  0.3653  0.0954 -0.5389
 4238TIP3   OH234348   3.220   5.217   2.786  0.0428 -0.6799 -0.1215
 4238TIP3    H134349   3.256   5.263   2.861  0.0950 -0.2360 -0.4176
 4238TIP3    H234350   3.192   5.132   2.821 -0.2442 -0.3456  0.4625
 4239TIP3   OH234351   1.860   4.879   1.512 -0.4135  0.4056 -0.6395
 4239TIP3    H134352   1.775   4.866   1.471 -1.0062  0.8268  0.4196
 4239TIP3    H234353   1.861   4.972   1.536  0.5658  0.5292 -1.1084
 4240TIP3   OH234354   6.640   0.890   8.546  0.3782 -0.5530  0.1405
 4240TIP3    H134355   6.679   0.804   8.531 -0.0811 -0.6901 -0.3259
 4240TIP3    H234356   6.561   0.871   8.597  0.5772 -0.3455  0.5297
 4241TIP3   OH234357   1.455   4.961   7.716  0.1924  0.8359  0.1087
 4241TIP3    H134358   1.383   4.922   7.765 -0.3900 -0.3376 -1.5927
 4241TIP3    H234359   1.534   4.922   7.754 -0.2098  0.2702  0.3658
 4242TIP3   OH234360   3.418   2.994   0.448 -0.4106 -0.5224 -0.5220
 4242TIP3    H134361   3.414   2.954   0.361  1.2359 -1.0877 -0.3704
 4242TIP3    H234362   3.469   3.074   0.436  1.1422 -1.3657  0.1498
 4243TIP3   OH234363   1.513   1.996   3.051 -0.5455 -0.1629  0.7212
 4243TIP3    H134364   1.472   2.073   3.012 -1.2199 -0.2235  1.2886
 4243TIP3    H234365   1.451   1.925   3.032  0.6761 -0.8455 -0.9387
 4244TIP3   OH234366   1.679   5.199   7.640  0.6703 -0.3698 -0.1799
 4244TIP3    H134367   1.685   5.172   7.548 -1.5864 -0.0637 -0.4784
 4244TIP3    H234368   1.724   5.130   7.688 -0.9259 -2.2969 -1.2841
 4245TIP3   OH234369   1.750   5.558   8.129  0.3644  0.2911 -0.0710
 4245TIP3    H134370   1.709   5.554   8.215 -0.6851 -1.2806 -0.5935
 4245TIP3    H234371   1.795   5.474   8.120 -0.0544  0.1725 -1.2806
 4246TIP3   OH234372   6.130   0.780   0.369  0.0537 -0.9375 -0.0293
 4246TIP3    H134373   6.223   0.759   0.361  0.5040  0.8295  0.1976
 4246TIP3    H234374   6.124   0.836   0.446 -0.6852  1.4815 -1.7148
 4247TIP3   OH234375   5.539   3.800   1.241  0.0188  0.0965  0.3708
 4247TIP3    H134376   5.578   3.847   1.167 -2.7087  0.9992 -0.6271
 4247TIP3    H234377   5.512   3.869   1.302  1.7978 -0.6153  2.0706
 4248TIP3   OH234378   6.633   2.467   3.235 -0.5585 -0.1513 -0.1333
 4248TIP3    H134379   6.710   2.437   3.187  1.1504  2.7105  0.5615
 4248TIP3    H234380   6.561   2.414   3.201  1.3672 -1.5371 -2.3204
 4249TIP3   OH234381   5.020   5.266   2.073 -0.6855 -0.8329  0.1233
 4249TIP3    H134382   5.011   5.350   2.119  0.4491 -0.8963  0.4905
 4249TIP3    H234383   5.000   5.287   1.982 -0.0802 -0.0762  0.1484
 4250TIP3   OH234384   2.562   1.536   1.820 -0.1220 -0.0476  0.2373
 4250TIP3    H134385   2.556   1.464   1.882 -1.5822 -3.4202 -3.3812
 4250TIP3    H234386   2.654   1.538   1.794 -0.0876 -0.6771  0.3010
 4251TIP3   OH234387   0.700   5.999   2.602  0.5502 -0.0066 -0.0410
 4251TIP3    H134388   0.611   5.973   2.627 -0.4247  2.6109 -0.4028
 4251TIP3    H234389   0.720   5.948   2.524  0.0622 -1.8419  0.9961
 4252TIP3   OH234390   5.114   2.411   8.663  0.1988 -0.0111  0.3014
 4252TIP3    H134391   5.197   2.424   8.708 -0.0817 -0.7089  1.0271
 4252TIP3    H234392   5.047   2.439   8.726 -0.1374  0.4052 -0.2227
 4253TIP3   OH234393   5.885   5.505   8.788 -0.0239 -0.1601  0.4995
 4253TIP3    H134394   5.935   5.504   8.706 -0.2796  0.3169  0.3295
 4253TIP3    H234395   5.854   5.415   8.799  1.3567 -0.6177  0.9204
 4254TIP3   OH234396   2.092   1.058   8.020 -0.2202 -0.3926  0.0105
 4254TIP3    H134397   2.090   1.068   7.924 -2.4369 -0.7605 -0.0467
 4254TIP3    H234398   2.063   1.143   8.054  1.6170  0.0987  0.4417
 4255TIP3   OH234399   0.690   4.028   8.559  0.1055  0.1141 -0.2466
 4255TIP3    H134400   0.642   4.069   8.487  0.7857 -0.0241 -0.7926
 4255TIP3    H234401   0.782   4.050   8.542  0.1825  1.0770  1.2302
 4256TIP3   OH234402   0.075   6.443   0.569  0.0406 -0.0242 -0.7286
 4256TIP3    H134403   0.096   6.530   0.535  2.0509 -0.5445 -0.8933
 4256TIP3    H234404   0.159   6.399   0.578 -0.3821 -0.4458  3.6272
 4257TIP3   OH234405   4.025   6.043   2.146  0.6270 -0.2251  0.1038
 4257TIP3    H134406   3.947   6.057   2.200  1.3028 -0.7836  1.2577
 4257TIP3    H234407   4.042   5.949   2.153  0.9592 -0.2412 -0.7889
 4258TIP3   OH234408   5.735   3.615   8.539 -0.3044  0.4857 -0.5738
 4258TIP3    H134409   5.685   3.698   8.537 -2.1625 -0.5802 -1.3666
 4258TIP3    H234410   5.743   3.594   8.632 -1.9923  0.3445 -0.4336
 4259TIP3   OH234411   5.969   4.560   8.383  0.1729  0.4122  0.3389
 4259TIP3    H134412   5.917   4.489   8.421 -0.8966  1.0184  0.0660
 4259TIP3    H234413   6.029   4.517   8.322  1.0677 -0.4551  1.7799
 4260TIP3   OH234414   0.863   0.775   0.916 -0.6368 -0.2758  0.3125
 4260TIP3    H134415   0.823   0.720   0.848 -0.4835  1.5962 -1.4182
 4260TIP3    H234416   0.826   0.862   0.900  2.8428  1.2487 -0.3999
 4261TIP3   OH234417   5.990   0.917   3.175 -0.6888 -0.0190 -0.2396
 4261TIP3    H134418   5.943   0.960   3.246 -1.6959  1.7450 -1.8903
 4261TIP3    H234419   6.067   0.878   3.218  0.3120  3.4093  1.4429
 4262TIP3   OH234420   2.705   1.962   3.318  0.1334 -0.3255  0.3287
 4262TIP3    H134421   2.752   2.039   3.349  0.8753 -0.5656 -0.1602
 4262TIP3    H234422   2.760   1.888   3.345 -1.0987 -0.7548  1.7140
 4263TIP3   OH234423   2.692   4.601   2.643 -0.1542  0.4717 -0.7084
 4263TIP3    H134424   2.704   4.626   2.735  0.1066  1.9843 -1.1223
 4263TIP3    H234425   2.779   4.611   2.604 -0.4187  0.5738 -1.2863
 4264TIP3   OH234426   1.380   6.502   7.207  0.1200  0.1306 -0.2488
 4264TIP3    H134427   1.475   6.497   7.222  0.1374 -0.2721 -0.4806
 4264TIP3    H234428   1.348   6.414   7.224 -0.2037  0.2433 -0.2619
 4265TIP3   OH234429   4.143   1.882   7.856  0.2150  0.1923 -0.1911
 4265TIP3    H134430   4.197   1.823   7.804  0.3001 -0.1153  0.2348
 4265TIP3    H234431   4.110   1.947   7.794 -1.0718 -1.1257 -0.9468
 4266TIP3   OH234432   0.765   3.813   2.170  0.7888 -0.6986  0.7028
 4266TIP3    H134433   0.726   3.726   2.168  0.7907 -0.6874 -1.1779
 4266TIP3    H234434   0.832   3.811   2.102  0.5789  0.8627  0.4178
 4267TIP3   OH234435   6.572   5.993   1.652  0.0155  1.0479  0.4073
 4267TIP3    H134436   6.486   6.034   1.641  0.7985  2.8915  0.7486
 4267TIP3    H234437   6.559   5.928   1.721 -1.4785  0.0069 -0.7603
 4268TIP3   OH234438   2.635   1.205   7.791 -0.1431  0.1158  0.4078
 4268TIP3    H134439   2.656   1.148   7.864 -0.6373 -0.1288  0.3666
 4268TIP3    H234440   2.547   1.178   7.764 -0.1967  0.5850  0.0915
 4269TIP3   OH234441   6.486   6.151   2.392  0.2697  0.3202 -0.4172
 4269TIP3    H134442   6.569   6.198   2.385  0.5270  0.1273  1.0846
 4269TIP3    H234443   6.468   6.122   2.302  1.1091  1.5473 -1.0147
 4270TIP3   OH234444   3.759   0.353   7.872  0.2838 -0.6450  1.0201
 4270TIP3    H134445   3.689   0.418   7.875  0.2047 -0.6797  0.1852
 4270TIP3    H234446   3.806   0.371   7.790  0.8177 -1.0656  1.2220
 4271TIP3   OH234447   5.642   1.835   2.158 -0.4001  0.1629 -0.5901
 4271TIP3    H134448   5.581   1.892   2.205  2.6741  1.0510  2.8161
 4271TIP3    H234449   5.657   1.762   2.219  1.1748 -0.5106 -1.7443
 4272TIP3   OH234450   1.728   5.616   0.857 -0.5734  0.2080 -0.5900
 4272TIP3    H134451   1.732   5.712   0.850 -0.0654  0.0985 -2.0742
 4272TIP3    H234452   1.721   5.600   0.951 -2.9306  1.7620 -0.4142
 4273TIP3   OH234453   4.126   0.419   0.583  0.2307 -0.3121 -0.9004
 4273TIP3    H134454   4.163   0.505   0.602 -0.1090  0.1079 -2.0320
 4273TIP3    H234455   4.071   0.399   0.659 -2.5651  2.1369 -2.0585
 4274TIP3   OH234456   2.343   4.413   2.029 -0.1262 -0.6563 -0.3321
 4274TIP3    H134457   2.323   4.485   2.089 -1.3986 -0.6695 -0.7170
 4274TIP3    H234458   2.438   4.402   2.037 -0.1065  0.0936  0.8144
 4275TIP3   OH234459   3.355   0.100   1.935 -0.2277  0.1534 -0.0274
 4275TIP3    H134460   3.387   0.131   2.020  0.0851 -2.0328  0.7057
 4275TIP3    H234461   3.318   0.178   1.894  2.0085  1.8567  0.9535
 4276TIP3   OH234462   1.833   2.936   7.893 -0.2383 -0.0395 -0.2131
 4276TIP3    H134463   1.926   2.921   7.878 -0.2520 -0.2604 -0.0896
 4276TIP3    H234464   1.803   2.983   7.816  0.0938  0.5306  0.0023
 4277TIP3   OH234465   3.152   4.323   0.683  0.5472 -0.0984 -0.2558
 4277TIP3    H134466   3.065   4.361   0.700  0.4414  0.2823 -1.5760
 4277TIP3    H234467   3.151   4.240   0.730  0.3870  1.0050  1.8122
 4278TIP3   OH234468   4.860   3.972   8.768  0.2149 -0.2540  0.1181
 4278TIP3    H134469   4.866   3.896   8.710 -0.8370  0.0974 -0.4759
 4278TIP3    H234470   4.902   4.043   8.719  0.4083 -0.2411  0.3010
 4279TIP3   OH234471   4.371   5.887   0.090  0.1289  0.0055 -0.2156
 4279TIP3    H134472   4.285   5.887   0.049  1.3652  0.4867 -3.0843
 4279TIP3    H234473   4.358   5.926   0.176 -2.5090 -0.0834 -0.5156
 4280TIP3   OH234474   4.626   2.122   0.965  0.0391 -0.1483 -0.2029
 4280TIP3    H134475   4.666   2.191   1.019 -0.9764  0.0659  0.2956
 4280TIP3    H234476   4.532   2.140   0.970 -0.0970 -0.2064 -1.9290
 4281TIP3   OH234477   6.213   6.031   8.363 -0.3530 -0.4528 -0.0425
 4281TIP3    H134478   6.191   6.118   8.396 -1.6093 -0.4574 -0.7842
 4281TIP3    H234479   6.308   6.033   8.351  0.1094 -0.3020  3.0010
 4282TIP3   OH234480   6.359   1.217   1.438  0.5542 -0.2684 -0.5140
 4282TIP3    H134481   6.285   1.168   1.402  0.0396 -0.9867  1.3832
 4282TIP3    H234482   6.426   1.214   1.369 -0.4729 -1.2936 -1.5145
 4283TIP3   OH234483   3.123   3.886   1.179 -0.1111  0.1906  0.4127
 4283TIP3    H134484   3.091   3.974   1.158 -2.2426 -0.8732 -1.0975
 4283TIP3    H234485   3.215   3.887   1.150  0.2838  2.2592  1.5662
 4284TIP3   OH234486   4.700   5.187   1.242 -0.0526  0.3657 -0.2450
 4284TIP3    H134487   4.626   5.131   1.218 -2.5150  3.2763 -0.1379
 4284TIP3    H234488   4.737   5.215   1.158 -0.7889  0.9122 -0.4032
 4285TIP3   OH234489   0.536   2.998   3.073 -0.1021 -0.1451 -0.3561
 4285TIP3    H134490   0.458   3.010   3.127 -0.2208  0.1505 -0.5893
 4285TIP3    H234491   0.609   2.997   3.135 -0.4212 -2.0975  0.0303
 4286TIP3   OH234492   4.188   3.055   0.530  0.6984  0.4501  0.0102
 4286TIP3    H134493   4.195   3.008   0.447  1.2600 -0.1289  0.3827
 4286TIP3    H234494   4.247   3.009   0.589 -0.5365  0.1349  1.0626
 4287TIP3   OH234495   4.341   5.360   1.295 -0.1399  0.0210 -0.1957
 4287TIP3    H134496   4.248   5.341   1.307  0.2440 -1.9205  0.1338
 4287TIP3    H234497   4.366   5.308   1.219  0.5406  1.0967 -0.7333
 4288TIP3   OH234498   5.268   3.287   1.759  0.1449  0.2426 -0.7360
 4288TIP3    H134499   5.294   3.199   1.785 -0.2389  0.5553  0.7724
 4288TIP3    H234500   5.319   3.345   1.816 -2.2171  0.9130  0.8044
 4289TIP3   OH234501   0.215   6.753   2.126  0.0816 -0.3652 -0.4650
 4289TIP3    H134502   0.183   6.759   2.216  1.5298  3.1167 -0.0104
 4289TIP3    H234503   0.199   6.662   2.100 -1.6998 -1.1138  2.7636
 4290TIP3   OH234504   1.528   6.481   1.253 -0.2145  0.3211  0.2912
 4290TIP3    H134505   1.468   6.450   1.321  0.8061  0.5466  1.3342
 4290TIP3    H234506   1.533   6.409   1.191 -1.3024  0.1737  0.3486
 4291TIP3   OH234507   3.511   2.479   0.593  0.0680 -1.2556 -0.3644
 4291TIP3    H134508   3.516   2.385   0.610 -1.8822 -1.5574 -1.1918
 4291TIP3    H234509   3.436   2.508   0.643  0.4462 -0.1816 -0.3966
 4292TIP3   OH234510   1.826   4.964   7.686 -0.0124 -0.3429 -0.1098
 4292TIP3    H134511   1.913   4.961   7.647 -0.2470  1.4322 -0.8792
 4292TIP3    H234512   1.769   4.922   7.622  0.1687 -0.9852  0.1374
 4293TIP3   OH234513   4.496   6.109   0.697 -0.6251  0.5328  0.1840
 4293TIP3    H134514   4.558   6.169   0.654  1.4144 -0.9979  0.8615
 4293TIP3    H234515   4.542   6.079   0.775 -1.9606 -1.2083  0.3564
 4294TIP3   OH234516   3.867   2.790   6.995  0.0234  0.6736 -0.0873
 4294TIP3    H134517   3.789   2.761   7.042  1.5706 -0.9467  1.6592
 4294TIP3    H234518   3.893   2.714   6.943  0.9308  0.8509  0.0869
 4295TIP3   OH234519   2.268   0.396   8.241 -0.2546 -0.2009  0.2962
 4295TIP3    H134520   2.340   0.334   8.232 -0.0895  0.2305 -1.9028
 4295TIP3    H234521   2.306   0.470   8.288  1.0087  0.3411 -1.4837
 4296TIP3   OH234522   0.934   5.260   8.331  0.1697  0.1599  0.0601
 4296TIP3    H134523   0.893   5.275   8.247  0.6150  1.2150  0.0152
 4296TIP3    H234524   1.014   5.313   8.329 -0.5890  1.4682  1.7267
 4297TIP3   OH234525   5.622   4.401   0.253  0.4525  0.2444  0.2274
 4297TIP3    H134526   5.569   4.480   0.246 -1.3987 -0.8495  1.0490
 4297TIP3    H234527   5.711   4.432   0.270 -0.0296  2.1428 -0.5150
 4298TIP3   OH234528   3.752   6.168   2.576 -0.2789 -0.2137  0.4019
 4298TIP3    H134529   3.817   6.238   2.563 -0.1034 -0.5341 -0.4848
 4298TIP3    H234530   3.715   6.186   2.663  0.1672  0.6512  0.4237
 4299TIP3   OH234531   6.604   6.067   1.268  0.0085  0.6249  0.1204
 4299TIP3    H134532   6.599   5.972   1.270  0.4444  0.5944 -0.0174
 4299TIP3    H234533   6.525   6.097   1.312 -0.4188  0.2076 -0.3511
 4300TIP3   OH234534   0.773   1.933   0.327 -0.7270  0.2678 -0.1527
 4300TIP3    H134535   0.801   1.846   0.299 -1.3019  0.1467 -0.3480
 4300TIP3    H234536   0.813   1.992   0.262  2.5837  0.5171  1.8536
 4301TIP3   OH234537   4.474   4.569   3.220  0.7441 -0.5044 -0.3337
 4301TIP3    H134538   4.394   4.530   3.186 -1.0462  2.5317 -0.0346
 4301TIP3    H234539   4.502   4.510   3.290 -0.6972 -2.1433 -1.0755
 4302TIP3   OH234540   6.602   1.237   2.418 -0.2927  0.2209  0.4189
 4302TIP3    H134541   6.643   1.321   2.438  1.2794 -0.1631 -0.9139
 4302TIP3    H234542   6.663   1.195   2.356 -0.4698 -2.3659  1.8409
 4303TIP3   OH234543   5.418   0.432   0.896  0.1772 -0.0178 -0.0655
 4303TIP3    H134544   5.505   0.400   0.919  0.3676  0.7094  0.2502
 4303TIP3    H234545   5.362   0.406   0.969  0.2798  0.1375  0.0698
 4304TIP3   OH234546   2.291   1.069   0.520 -0.5841 -0.1576 -0.3152
 4304TIP3    H134547   2.237   1.038   0.448 -0.3532 -0.1762 -0.4826
 4304TIP3    H234548   2.343   1.141   0.482 -0.3947 -0.2290 -0.1957
 4305TIP3   OH234549   3.026   6.182   8.738 -0.5327 -0.1161 -0.6152
 4305TIP3    H134550   2.943   6.217   8.769 -0.1552  1.8433 -1.6554
 4305TIP3    H234551   3.093   6.233   8.784  0.1528 -1.5858  0.1244
 4306TIP3   OH234552   6.313   5.249   3.728  0.1073 -0.1449 -0.4143
 4306TIP3    H134553   6.313   5.272   3.635  1.5136  0.2940 -0.3312
 4306TIP3    H234554   6.317   5.333   3.773  4.0012 -0.3060 -0.0848
 4307TIP3   OH234555   0.552   4.281   2.396  0.8073  0.1335  0.0980
 4307TIP3    H134556   0.563   4.297   2.302  0.2824 -1.4288 -0.2657
 4307TIP3    H234557   0.515   4.193   2.401 -1.1733  0.9710  1.6802
 4308TIP3   OH234558   6.125   1.088   7.749  0.3474 -0.5483 -0.7422
 4308TIP3    H134559   6.195   1.069   7.811 -0.9644 -0.7146  0.7356
 4308TIP3    H234560   6.123   1.183   7.742  2.6019 -0.5690 -3.0888
 4309TIP3   OH234561   6.111   4.883   0.149  0.4001  0.7678 -0.1804
 4309TIP3    H134562   6.122   4.976   0.127 -0.3535  0.7011 -0.8697
 4309TIP3    H234563   6.178   4.838   0.097  1.1570  0.9659  0.5973
 4310TIP3   OH234564   1.313   3.218   0.967 -0.6082  0.2321  0.4065
 4310TIP3    H134565   1.366   3.240   0.890 -0.2239 -1.9379 -0.0045
 4310TIP3    H234566   1.356   3.264   1.040 -1.1746  2.6037 -0.6551
 4311TIP3   OH234567   2.717   0.136   2.622 -1.1533 -0.4822 -0.2883
 4311TIP3    H134568   2.710   0.043   2.641  0.4944 -0.3821  1.0490
 4311TIP3    H234569   2.741   0.139   2.529 -1.0625 -1.3855 -0.3060
 4312TIP3   OH234570   2.829   6.184   1.885  0.0710 -0.2202  0.2817
 4312TIP3    H134571   2.851   6.129   1.960 -0.5107 -0.6469  0.1503
 4312TIP3    H234572   2.913   6.207   1.846  0.3061 -1.5313 -0.0271
 4313TIP3   OH234573   3.517   2.251   2.430  0.4743 -0.5607 -0.0592
 4313TIP3    H134574   3.458   2.200   2.375  1.7671 -2.2013  0.0167
 4313TIP3    H234575   3.472   2.257   2.514 -0.6026  0.2437 -0.6532
 4314TIP3   OH234576   5.172   5.768   2.922 -0.4381  0.1107  0.0483
 4314TIP3    H134577   5.252   5.730   2.886  0.4056 -0.0140  1.9453
 4314TIP3    H234578   5.201   5.849   2.964 -1.3465  0.1886  0.5465
 4315TIP3   OH234579   0.994   3.646   0.099 -0.6232  0.2034  0.4968
 4315TIP3    H134580   0.932   3.588   0.145 -0.8667  0.0495 -0.0188
 4315TIP3    H234581   1.023   3.708   0.166 -2.6156  1.3440  0.3916
 4316TIP3   OH234582   6.054   5.034   2.068  0.2715  0.0297  0.1476
 4316TIP3    H134583   5.978   4.992   2.029 -0.7130  1.9619 -0.1216
 4316TIP3    H234584   6.092   5.086   1.998  1.7477 -0.7255  0.3433
 4317TIP3   OH234585   2.916   6.756   8.210 -0.1280  0.1029 -0.1698
 4317TIP3    H134586   2.949   6.839   8.245 -0.3871  0.7348 -1.3755
 4317TIP3    H234587   2.845   6.782   8.151 -1.6612 -1.1139  1.0297
 4318TIP3   OH234588   4.661   6.451   1.130 -0.0199  0.4751 -0.1149
 4318TIP3    H134589   4.622   6.537   1.116 -0.6770  0.6827  2.4556
 4318TIP3    H234590   4.588   6.390   1.116  0.4953  0.2582 -2.1451
 4319TIP3   OH234591   2.559   0.091   1.796 -0.5349  0.2399  0.0116
 4319TIP3    H134592   2.525   0.009   1.761  0.0798 -0.3534  0.7578
 4319TIP3    H234593   2.589   0.068   1.884  2.8873  0.3815 -0.9749
 4320TIP3   OH234594   3.036   2.516   0.022 -0.3558 -0.1962 -0.0561
 4320TIP3    H134595   2.970   2.530   0.090 -2.5420 -0.6476 -1.9578
 4320TIP3    H234596   3.047   2.601  -0.019 -0.5198 -0.3290 -0.3810
 4321TIP3   OH234597   0.625   2.268   7.301  0.5639  0.2074 -0.1128
 4321TIP3    H134598   0.667   2.184   7.287  1.8115  0.5760  1.1813
 4321TIP3    H234599   0.696   2.332   7.297 -0.3638  1.2322 -1.1146
 4322TIP3   OH234600   6.007   1.077   2.925  0.3246 -0.0674  0.0746
 4322TIP3    H134601   6.068   1.005   2.936 -2.3747 -2.7500 -1.0649
 4322TIP3    H234602   5.942   1.065   2.994 -0.6020  0.7881 -0.6121
 4323TIP3   OH234603   4.489   1.479   0.628 -0.0927 -0.2150  0.1239
 4323TIP3    H134604   4.566   1.535   0.615  1.0780 -1.5307  1.0834
 4323TIP3    H234605   4.453   1.467   0.541 -1.1339  2.9798 -0.0270
 4324TIP3   OH234606   4.207   2.160   2.098 -1.0788  0.3861  0.1611
 4324TIP3    H134607   4.140   2.104   2.060  0.0748  0.6242 -2.4469
 4324TIP3    H234608   4.159   2.232   2.139 -2.4239  0.2648 -1.1508
 4325TIP3   OH234609   4.565   3.487   2.735  0.1718  0.3217 -0.1244
 4325TIP3    H134610   4.650   3.511   2.698  0.3271  0.2259  0.1727
 4325TIP3    H234611   4.583   3.464   2.826 -0.5656  3.0221  0.8158
 4326TIP3   OH234612   3.420   1.170   1.130 -0.3688  0.1076 -0.1949
 4326TIP3    H134613   3.350   1.106   1.147 -0.3535  0.0875 -0.2068
 4326TIP3    H234614   3.501   1.123   1.153 -0.2606 -0.2831 -1.3049
 4327TIP3   OH234615   5.278   6.692   1.659  0.3806  0.3438 -0.0238
 4327TIP3    H134616   5.224   6.638   1.716 -0.9978  0.7441 -0.9101
 4327TIP3    H234617   5.312   6.761   1.717  0.5733 -0.3462  0.7003
 4328TIP3   OH234618   3.254   5.147   7.385 -0.0958  0.3189 -0.3669
 4328TIP3    H134619   3.305   5.085   7.332 -0.4842 -1.3581  1.1025
 4328TIP3    H234620   3.318   5.185   7.445 -0.5616 -2.7407  2.3589
 4329TIP3   OH234621   3.887   1.969   0.954  0.6042  0.2519  0.6704
 4329TIP3    H134622   3.881   2.039   0.889  1.2589 -0.6628 -0.4229
 4329TIP3    H234623   3.811   1.914   0.937  0.4306  0.3543  1.1090
 4330TIP3   OH234624   0.315   3.273   0.359  0.2246  0.2507  0.6354
 4330TIP3    H134625   0.374   3.220   0.305  1.8528  0.3771  2.1815
 4330TIP3    H234626   0.271   3.331   0.297 -0.0717 -1.4718 -0.8520
 4331TIP3   OH234627   6.082   2.569   1.481 -0.0699  0.3734  0.3545
 4331TIP3    H134628   6.176   2.580   1.470  0.1601 -0.1524  1.6073
 4331TIP3    H234629   6.043   2.636   1.425  0.9573 -1.0319 -2.1749
 4332TIP3   OH234630   1.272   3.078   1.498 -0.2369 -0.1332  0.0831
 4332TIP3    H134631   1.242   2.988   1.512  0.6628 -0.4265  0.1862
 4332TIP3    H234632   1.210   3.114   1.435 -0.5591 -0.8593 -0.0264
 4333TIP3   OH234633   3.762   3.513   0.450  0.0912 -0.0877  0.7202
 4333TIP3    H134634   3.737   3.544   0.363 -0.7743 -0.9504  0.6324
 4333TIP3    H234635   3.830   3.448   0.434 -1.5477 -1.8174  0.4733
 4334TIP3   OH234636   2.696   3.107   3.263  0.2418 -0.0324 -0.0189
 4334TIP3    H134637   2.730   3.192   3.235  1.0255  0.4207  2.1289
 4334TIP3    H234638   2.774   3.058   3.289 -0.3565 -0.6940  0.5714
 4335TIP3   OH234639   4.761   3.516   0.615 -0.1493 -0.1470  0.5251
 4335TIP3    H134640   4.692   3.464   0.656  0.5417 -0.8059  0.8564
 4335TIP3    H234641   4.728   3.533   0.526 -0.1310 -1.6481  0.2105
 4336TIP3   OH234642   3.843   5.944   2.954 -0.2633 -0.6625  0.2442
 4336TIP3    H134643   3.934   5.931   2.978 -0.5136  0.2862  1.7894
 4336TIP3    H234644   3.846   5.967   2.861  1.1050 -0.1333  0.3990
 4337TIP3   OH234645   5.840   4.680   0.161 -0.8006 -0.0356  0.6509
 4337TIP3    H134646   5.822   4.707   0.251  2.2623  0.8383  1.1443
 4337TIP3    H234647   5.856   4.763   0.115 -0.9429 -0.5473 -0.3204
 4338TIP3   OH234648   0.461   4.536   8.204 -0.0343 -0.2917 -0.1492
 4338TIP3    H134649   0.374   4.542   8.164  0.3630  0.9033 -0.8984
 4338TIP3    H234650   0.444   4.532   8.298 -0.8978  0.4651 -0.2574
 4339TIP3   OH234651   5.652   4.466   1.291 -0.1892 -0.1901 -0.2641
 4339TIP3    H134652   5.710   4.390   1.284 -1.0527 -0.9419  0.4349
 4339TIP3    H234653   5.705   4.532   1.336 -0.3625 -1.4454  1.9436
 4340TIP3   OH234654   0.384   2.308   7.390 -0.1767  0.5427 -0.3250
 4340TIP3    H134655   0.371   2.214   7.386  2.4473 -0.2302  3.5602
 4340TIP3    H234656   0.461   2.324   7.335  1.2467 -0.2080  1.3534
 4341TIP3   OH234657   5.896   4.704   2.577  0.1289  0.5074  0.1625
 4341TIP3    H134658   5.972   4.720   2.521  0.4024  0.1466  0.4277
 4341TIP3    H234659   5.871   4.791   2.608 -1.3841  1.0413 -2.2326
 4342TIP3   OH234660   5.149   3.217   1.220 -0.0896  0.3754  0.1426
 4342TIP3    H134661   5.122   3.226   1.128  0.2717 -2.6660 -0.3649
 4342TIP3    H234662   5.209   3.143   1.220  0.4925  0.7538  2.7651
 4343TIP3   OH234663   0.147   1.030   7.923  0.1753 -0.2420 -0.3089
 4343TIP3    H134664   0.225   1.050   7.871  0.8235 -0.5157  0.5379
 4343TIP3    H234665   0.083   1.001   7.859  0.8762 -0.3241 -0.9926
 4344TIP3   OH234666   0.448   4.465   3.900  0.3379 -0.4577 -0.2191
 4344TIP3    H134667   0.538   4.479   3.868  0.1743 -1.0435 -0.9725
 4344TIP3    H234668   0.401   4.544   3.876  0.1379 -1.0234 -1.7560
 4345TIP3   OH234669   6.158   0.286   1.636 -0.0588 -0.2208  0.6209
 4345TIP3    H134670   6.134   0.196   1.614 -1.3760 -0.2017  1.8254
 4345TIP3    H234671   6.077   0.336   1.625  0.4405  0.6507  0.8222
 4346TIP3   OH234672   3.744   4.775   8.434  0.1697 -0.5727  0.1877
 4346TIP3    H134673   3.800   4.748   8.361 -0.5735 -1.1589 -0.1846
 4346TIP3    H234674   3.786   4.854   8.469  0.4383 -0.1704 -0.9930
 4347TIP3   OH234675   2.926   4.755   2.895 -0.8092 -0.5226 -0.1184
 4347TIP3    H134676   2.904   4.666   2.869  1.9329 -0.9437 -1.3405
 4347TIP3    H234677   2.944   4.749   2.989  0.5194 -1.5454 -0.4197
 4348TIP3   OH234678   0.634   2.280   2.095 -0.2739 -0.2045 -0.0296
 4348TIP3    H134679   0.706   2.340   2.117  0.0098 -1.6093  3.3282
 4348TIP3    H234680   0.571   2.291   2.165 -1.9083 -1.3098 -1.2488
 4349TIP3   OH234681   2.821   2.897   1.847  0.1941 -0.0095 -0.4450
 4349TIP3    H134682   2.868   2.845   1.912  0.2025  0.8623  0.2536
 4349TIP3    H234683   2.812   2.838   1.772 -2.9113 -2.3680  1.4906
 4350TIP3   OH234684   5.546   2.946   2.066 -0.3142 -0.1177  0.0147
 4350TIP3    H134685   5.530   2.908   1.980  0.8250 -1.6715  0.4356
 4350TIP3    H234686   5.632   2.987   2.059 -0.0570 -0.5568  0.4946
 4351TIP3   OH234687   4.734   2.828   2.598 -0.2878  0.6704  0.1033
 4351TIP3    H134688   4.661   2.860   2.652  0.2369 -1.3944  2.2160
 4351TIP3    H234689   4.692   2.779   2.527 -1.0125 -0.2168  1.1039
 4352TIP3   OH234690   4.413   1.609   1.485  0.1726  0.1689  0.0408
 4352TIP3    H134691   4.457   1.614   1.570  2.3032 -0.3350 -0.9743
 4352TIP3    H234692   4.406   1.515   1.467  1.2066  0.2636 -1.0126
 4353TIP3   OH234693   6.748   4.335   1.899  0.7910 -0.0562  0.2875
 4353TIP3    H134694   6.664   4.367   1.869  0.5543  0.6419  1.5958
 4353TIP3    H234695   6.732   4.306   1.989  1.8580 -0.2483  0.4325
 4354TIP3   OH234696   3.748   4.157   2.441  0.0059  0.1077 -0.2849
 4354TIP3    H134697   3.841   4.138   2.449  0.2078  1.3835  0.6742
 4354TIP3    H234698   3.730   4.150   2.347  0.8557 -0.9861 -0.3857
 4355TIP3   OH234699   4.019   0.266   7.286 -0.0276  0.0723  0.0787
 4355TIP3    H134700   4.007   0.261   7.381  0.7030 -2.8253  0.1108
 4355TIP3    H234701   3.936   0.236   7.249  0.2068 -0.2985 -0.1548
 4356TIP3   OH234702   6.376   5.086   0.773  0.1734  0.5027 -0.1476
 4356TIP3    H134703   6.322   5.010   0.753 -1.1642  1.0618  1.1503
 4356TIP3    H234704   6.334   5.127   0.848  0.0085  3.3350 -1.6186
 4357TIP3   OH234705   3.167   2.382   0.917 -0.2119  0.1091 -0.0054
 4357TIP3    H134706   3.083   2.342   0.942 -0.2446  1.3356  2.0906
 4357TIP3    H234707   3.147   2.432   0.838 -1.7934  1.2688  1.0506
 4358TIP3   OH234708   2.141   5.321   0.761 -0.3408  0.4899 -0.2563
 4358TIP3    H134709   2.073   5.389   0.757 -0.4265  0.4158 -0.0792
 4358TIP3    H234710   2.206   5.356   0.822 -1.3151 -0.4150  1.3598
 4359TIP3   OH234711   4.895   1.794   8.084  1.0239  0.1961 -0.1933
 4359TIP3    H134712   4.847   1.712   8.071  1.2840  0.0082  0.0264
 4359TIP3    H234713   4.908   1.800   8.178 -0.2159  1.1915 -0.0649
 4360TIP3   OH234714   4.095   2.417   0.337  0.3088 -0.4837 -0.5954
 4360TIP3    H134715   4.046   2.432   0.256 -1.3286 -0.5366  0.3470
 4360TIP3    H234716   4.181   2.455   0.320 -0.9519  2.3176 -1.2879
 4361TIP3   OH234717   1.799   3.586   7.849  0.8655 -0.2650  0.2427
 4361TIP3    H134718   1.852   3.664   7.867 -0.0566 -0.0009  1.9757
 4361TIP3    H234719   1.859   3.513   7.864  0.9573  0.0491  1.4804
 4362TIP3   OH234720   5.931   3.412   0.420 -0.2815  0.1122 -0.0904
 4362TIP3    H134721   5.964   3.496   0.450  2.1208 -0.9918  0.6189
 4362TIP3    H234722   5.991   3.386   0.351 -1.4940 -0.6581 -0.8894
 4363TIP3   OH234723   6.291   1.059   3.434 -0.5799 -0.1563 -0.1099
 4363TIP3    H134724   6.264   0.976   3.397  0.9500 -0.1570 -1.3056
 4363TIP3    H234725   6.229   1.123   3.399 -2.0739 -0.7937  1.2084
 4364TIP3   OH234726   2.274   6.237   1.974  0.0041 -0.5025  0.3759
 4364TIP3    H134727   2.245   6.238   1.883  1.7648 -0.9975 -0.2336
 4364TIP3    H234728   2.301   6.327   1.992  0.9494 -0.6811 -0.0679
 4365TIP3   OH234729   3.526   3.569   1.289 -0.7400  0.1613 -0.3489
 4365TIP3    H134730   3.440   3.608   1.278  0.5494  3.6886  0.7305
 4365TIP3    H234731   3.562   3.564   1.200 -0.9893  1.4238 -0.5281
 4366TIP3   OH234732   1.623   3.525   7.644  0.1201  0.0172  0.2309
 4366TIP3    H134733   1.687   3.557   7.707 -1.1878  2.9045  0.2731
 4366TIP3    H234734   1.545   3.508   7.696 -0.6817  1.5381 -0.4054
 4367TIP3   OH234735   0.327   2.917   2.614 -0.0700  0.2891 -0.0400
 4367TIP3    H134736   0.389   2.888   2.548 -0.7818  0.3460 -0.7461
 4367TIP3    H234737   0.376   2.914   2.696  0.6573 -0.3244 -0.4862
 4368TIP3   OH234738   5.868   4.926   0.711  0.3979  0.6908  0.3732
 4368TIP3    H134739   5.939   4.988   0.723  0.3388  0.7542  0.3972
 4368TIP3    H234740   5.911   4.842   0.697  0.4772  0.1418  3.3561
 4369TIP3   OH234741   2.384   1.802   2.384  0.2736  0.0992 -0.5705
 4369TIP3    H134742   2.424   1.759   2.309  0.6728 -2.0272  0.7520
 4369TIP3    H234743   2.405   1.744   2.458  0.1597  2.2432  1.2312
 4370TIP3   OH234744   0.766   2.338   8.399 -0.3534 -0.2567 -0.1016
 4370TIP3    H134745   0.722   2.422   8.412 -1.2850 -0.9034  1.1524
 4370TIP3    H234746   0.718   2.298   8.325  0.6883  0.6624 -1.3203
 4371TIP3   OH234747   2.928   3.651   2.951 -0.4386 -0.5547 -0.0591
 4371TIP3    H134748   2.856   3.628   3.009  0.6215 -0.8872  1.1571
 4371TIP3    H234749   3.007   3.643   3.005  0.2698  3.4847 -0.2166
 4372TIP3   OH234750   6.200   4.977   1.431 -0.1866  0.3439 -0.1467
 4372TIP3    H134751   6.132   4.924   1.389 -0.7878 -0.0109  1.2133
 4372TIP3    H234752   6.272   4.978   1.368 -1.0973 -0.0338 -1.2376
 4373TIP3   OH234753   4.385   2.863   3.073  0.2585  0.2076 -0.3212
 4373TIP3    H134754   4.339   2.893   3.152 -0.6111  0.0993 -0.7768
 4373TIP3    H234755   4.477   2.860   3.099 -0.0251  0.0905  0.7199
 4374TIP3   OH234756   4.050   0.905   2.583 -0.6566 -0.4119 -0.3180
 4374TIP3    H134757   3.993   0.936   2.653 -2.6949 -2.7023 -0.8208
 4374TIP3    H234758   4.033   0.811   2.578  1.2968 -0.7517 -2.2350
 4375TIP3   OH234759   0.965   1.177   1.793  0.0044 -0.5412 -0.0601
 4375TIP3    H134760   0.937   1.086   1.784 -0.5097 -0.3793 -0.0958
 4375TIP3    H234761   0.940   1.219   1.710 -1.8312  0.1759  0.8148
 4376TIP3   OH234762   1.528   5.165   3.548  0.2220  0.1723 -0.0550
 4376TIP3    H134763   1.474   5.238   3.578  0.9560  1.1343 -0.9927
 4376TIP3    H234764   1.601   5.207   3.501 -0.3098 -1.1725 -2.2554
 4377TIP3   OH234765   5.819   2.185   8.346 -0.1430 -0.5729 -0.4827
 4377TIP3    H134766   5.784   2.100   8.371 -0.6413 -0.1724  0.2383
 4377TIP3    H234767   5.838   2.177   8.253  2.8458 -2.4896  0.1614
 4378TIP3   OH234768   4.280   1.719   0.764  0.2550 -0.5406  0.4242
 4378TIP3    H134769   4.257   1.626   0.757 -0.6725 -0.3180  0.4651
 4378TIP3    H234770   4.243   1.747   0.847  0.6211 -0.1480  0.4592
 4379TIP3   OH234771   1.773   6.351   0.619 -0.2547  0.5272  0.6417
 4379TIP3    H134772   1.805   6.268   0.584  2.0481  0.8619  1.7894
 4379TIP3    H234773   1.718   6.326   0.693  0.3460  0.0049  0.9212
 4380TIP3   OH234774   6.439   2.819   8.296  0.2049  0.2931  0.2334
 4380TIP3    H134775   6.380   2.788   8.364  0.1595 -1.4604 -0.5681
 4380TIP3    H234776   6.399   2.900   8.264 -1.9152 -0.9915 -0.4873
 4381TIP3   OH234777   4.991   5.151   1.534  0.1198 -0.1931  0.0301
 4381TIP3    H134778   5.061   5.086   1.535  1.3039  0.9058 -2.6458
 4381TIP3    H234779   4.922   5.112   1.588  1.6368 -2.6617  0.3397
 4382TIP3   OH234780   6.357   6.011   0.370  0.1079 -0.2979  0.1917
 4382TIP3    H134781   6.280   6.060   0.344  0.4994  0.2813  0.1181
 4382TIP3    H234782   6.430   6.053   0.325  0.3342 -1.6073 -0.7494
 4383TIP3   OH234783   5.585   4.744   1.506  0.5685  0.0396  0.6760
 4383TIP3    H134784   5.504   4.715   1.464  0.9603 -0.9980  0.6058
 4383TIP3    H234785   5.615   4.817   1.453  1.2708 -1.4880 -1.1379
 4384TIP3   OH234786   1.310   5.124   1.247 -0.3395 -0.6815 -0.1254
 4384TIP3    H134787   1.326   5.214   1.277 -0.5847 -1.0570  1.2141
 4384TIP3    H234788   1.226   5.128   1.203 -2.0675 -0.8085  2.8550
 4385TIP3   OH234789   2.056   4.081   2.462  0.0967 -0.0644  0.0868
 4385TIP3    H134790   2.135   4.109   2.416 -0.1294  1.2080  0.4437
 4385TIP3    H234791   2.089   4.033   2.539  0.5278  0.5795  0.3066
 4386TIP3   OH234792   1.768   2.167   8.039  0.3112  0.2660 -0.2506
 4386TIP3    H134793   1.758   2.089   7.985 -3.5154  0.7872 -0.5577
 4386TIP3    H234794   1.787   2.237   7.976 -0.2169  0.2324 -0.4490
 4387TIP3   OH234795   6.126   5.627   7.816  0.4495 -0.9896  0.3630
 4387TIP3    H134796   6.081   5.652   7.736  1.8131 -2.2507 -0.8481
 4387TIP3    H234797   6.098   5.536   7.831  0.7908 -1.0084  0.9082
 4388TIP3   OH234798   6.360   0.736   2.728 -0.6258  0.1465 -0.1889
 4388TIP3    H134799   6.428   0.737   2.795  0.2352 -1.2006 -1.0013
 4388TIP3    H234800   6.299   0.806   2.755  0.1801  0.2708  1.4540
 4389TIP3   OH234801   1.537   5.986   8.803 -0.6977  0.2666  0.6515
 4389TIP3    H134802   1.516   6.022   8.717 -1.5991  0.1363  0.8044
 4389TIP3    H234803   1.583   6.056   8.848  1.1887 -0.1881 -0.4678
 4390TIP3   OH234804   0.567   3.357   0.111  0.4987  0.8533  0.2472
 4390TIP3    H134805   0.542   3.266   0.127  0.4107  0.7149 -0.5947
 4390TIP3    H234806   0.540   3.404   0.189 -0.2823  0.3056  0.3184
 4391TIP3   OH234807   0.534   3.418   1.244 -0.5040 -0.2020  0.1327
 4391TIP3    H134808   0.558   3.456   1.159 -2.1125  1.2453  0.2739
 4391TIP3    H234809   0.617   3.411   1.291  0.1579  0.8741 -0.8189
 4392TIP3   OH234810   6.803   1.813   2.297 -0.2647  0.1773  0.1081
 4392TIP3    H134811   6.864   1.785   2.365  0.1088  2.5865  0.8713
 4392TIP3    H234812   6.852   1.803   2.215 -0.6841 -2.6496  0.1252
 4393TIP3   OH234813   4.019   3.116   2.305  0.0837 -0.0360 -0.2528
 4393TIP3    H134814   4.093   3.168   2.335  2.2598 -2.9294 -0.1147
 4393TIP3    H234815   3.954   3.180   2.276  2.1503  2.6750  0.7016
 4394TIP3   OH234816   0.685   3.754   0.085 -0.0479 -0.7173 -0.3491
 4394TIP3    H134817   0.715   3.805   0.160 -1.9926  0.7131 -0.4435
 4394TIP3    H234818   0.756   3.693   0.067  0.4955 -1.1169  2.6332
 4395TIP3   OH234819   3.979   0.328   8.748  0.3788  0.1059  0.0157
 4395TIP3    H134820   4.064   0.353   8.713 -0.5622 -0.6024 -3.0123
 4395TIP3    H234821   3.994   0.239   8.783  0.5768 -0.6631 -1.9282
 4396TIP3   OH234822   2.844   0.253   0.348 -0.1835  0.1042  0.6474
 4396TIP3    H134823   2.914   0.251   0.284 -0.8122  0.2330 -0.0566
 4396TIP3    H234824   2.867   0.326   0.407 -0.6669  1.3876 -0.6811
 4397TIP3   OH234825   1.183   4.097   1.896 -0.1532 -0.4447 -0.1323
 4397TIP3    H134826   1.109   4.117   1.952  0.4525  2.8761 -0.2857
 4397TIP3    H234827   1.259   4.102   1.954  0.2880  0.7768 -0.7808
 4398TIP3   OH234828   6.291   2.884   2.176 -0.1822  0.0171 -0.1833
 4398TIP3    H134829   6.294   2.978   2.190 -0.1351  0.3856 -2.2596
 4398TIP3    H234830   6.204   2.867   2.140  0.1724 -0.5420 -0.8125
 4399TIP3   OH234831   3.473   6.597   8.274 -0.1417  0.2835 -0.2798
 4399TIP3    H134832   3.551   6.612   8.328  0.9256 -0.5008 -1.5631
 4399TIP3    H234833   3.427   6.526   8.318  1.1181 -0.8837 -0.7681
 4400TIP3   OH234834   4.850   6.153   8.633 -0.5766  0.5515  0.2740
 4400TIP3    H134835   4.878   6.064   8.655 -1.3616  0.3849  0.6399
 4400TIP3    H234836   4.770   6.141   8.582  0.1067  1.0117 -0.9424
 4401TIP3   OH234837   2.196   1.284   1.330 -0.0773 -0.1133  0.1074
 4401TIP3    H134838   2.244   1.318   1.254  0.1854 -2.0609 -0.6361
 4401TIP3    H234839   2.243   1.320   1.406  1.3901 -0.4331 -0.6213
 4402TIP3   OH234840   5.426   2.610   3.189 -0.6299  0.1105 -0.1023
 4402TIP3    H134841   5.449   2.687   3.136 -0.4335 -0.6988 -1.2325
 4402TIP3    H234842   5.345   2.577   3.150  0.3265 -1.3923 -0.9177
 4403TIP3   OH234843   1.020   0.504   8.270 -0.1857 -0.0754  0.5603
 4403TIP3    H134844   1.008   0.488   8.363 -1.2732 -0.2445  0.3983
 4403TIP3    H234845   0.996   0.422   8.228 -0.1485  0.1479  0.1010
 4404TIP3   OH234846   2.491   3.575   1.407 -0.0613 -0.7176 -0.3418
 4404TIP3    H134847   2.483   3.634   1.332 -1.3562  0.7876  0.9366
 4404TIP3    H234848   2.405   3.534   1.414  0.2405 -1.3086 -0.0137
 4405TIP3   OH234849   1.326   2.498   0.484 -0.2343 -0.2722 -0.0830
 4405TIP3    H134850   1.327   2.472   0.392  0.7201 -1.5041  0.2548
 4405TIP3    H234851   1.265   2.437   0.526 -1.1565  0.6869  0.0102
 4406TIP3   OH234852   2.253   3.118   0.068 -0.2319 -0.1322 -0.4134
 4406TIP3    H134853   2.224   3.131   0.158 -0.0194  1.6710 -0.5800
 4406TIP3    H234854   2.173   3.093   0.021 -0.2643 -1.5348  0.3148
 4407TIP3   OH234855   5.321   2.976   8.752 -0.2896 -0.5157 -0.3532
 4407TIP3    H134856   5.395   2.978   8.691  1.9141 -0.4910  2.1914
 4407TIP3    H234857   5.318   2.886   8.784  0.3264  0.0693  1.4528
 4408TIP3   OH234858   5.714   5.952   7.734 -0.4014  0.6573 -0.1824
 4408TIP3    H134859   5.734   5.859   7.747 -0.7832  0.5886 -0.0587
 4408TIP3    H234860   5.666   5.977   7.813  0.3900  1.1680  0.1471
 4409TIP3   OH234861   2.504   4.132   0.505  0.6552  0.1406 -0.2174
 4409TIP3    H134862   2.522   4.166   0.593  1.7233  0.2370 -0.4597
 4409TIP3    H234863   2.413   4.155   0.489  0.7443  1.0422  0.4652
 4410TIP3   OH234864   6.055   5.068   2.415  0.2958  0.1844  0.0839
 4410TIP3    H134865   6.000   4.995   2.386 -1.8431  1.3191  1.0812
 4410TIP3    H234866   6.055   5.129   2.341  0.2156  0.1967  0.0948
 4411TIP3   OH234867   6.439   6.308   0.451 -0.1382 -0.0100 -1.0546
 4411TIP3    H134868   6.513   6.363   0.425  0.7831 -0.7007  0.0005
 4411TIP3    H234869   6.465   6.219   0.426  1.7261 -1.0765  3.5996
 4412TIP3   OH234870   6.083   0.018   0.607  0.2984 -0.4659 -0.1853
 4412TIP3    H134871   6.036  -0.059   0.640 -2.3958  1.0075 -0.2675
 4412TIP3    H234872   6.074   0.012   0.512  1.0232 -0.5827 -0.2501
 4413TIP3   OH234873   4.668   4.315   1.119  0.4102 -0.2083 -0.7129
 4413TIP3    H134874   4.727   4.295   1.045  1.0465 -1.1162  0.0143
 4413TIP3    H234875   4.712   4.278   1.195  0.2000  1.5141  0.2875
 4414TIP3   OH234876   3.324   2.800   0.014 -0.2459  0.5207  0.5478
 4414TIP3    H134877   3.385   2.794  -0.059  0.3704  1.7966  0.9285
 4414TIP3    H234878   3.256   2.861  -0.015  0.4429  1.6816  1.3212
 4415TIP3   OH234879   2.726   1.807   0.637  0.1062 -0.0760  1.1836
 4415TIP3    H134880   2.694   1.891   0.668 -0.0175  0.0006  0.8560
 4415TIP3    H234881   2.708   1.808   0.543  2.5708  0.6452  0.6678
 4416TIP3   OH234882   1.142   3.169   0.405 -0.5018  0.0417 -0.1391
 4416TIP3    H134883   1.081   3.217   0.462 -1.6402 -0.0945 -1.1945
 4416TIP3    H234884   1.122   3.077   0.421  1.7902 -0.1990  2.0032
 4417TIP3   OH234885   6.374   5.794   0.142  0.5656 -0.3165 -0.4205
 4417TIP3    H134886   6.299   5.808   0.199 -1.1027 -0.3115 -2.4849
 4417TIP3    H234887   6.377   5.699   0.128  2.4059 -0.6097  1.4016
 4418TIP3   OH234888   5.835   2.943   1.194  0.3900  0.0828 -0.4613
 4418TIP3    H134889   5.855   3.032   1.223  1.8516 -0.1668 -0.6643
 4418TIP3    H234890   5.739   2.940   1.192  0.3079  1.2908  0.6245
 4419TIP3   OH234891   1.437   6.158   0.558  0.1957  0.0682 -0.0171
 4419TIP3    H134892   1.426   6.067   0.585  2.3231 -0.2850 -0.2379
 4419TIP3    H234893   1.462   6.204   0.638  0.1093  0.2762 -0.1089
 4420TIP3   OH234894   6.335   2.082   1.503 -0.4918 -0.3977  0.6623
 4420TIP3    H134895   6.294   2.035   1.576 -0.9987 -1.7316 -0.4268
 4420TIP3    H234896   6.427   2.053   1.504 -0.3400  0.0820  1.1390
 4421TIP3   OH234897   3.668   1.510   7.762  0.3497 -0.4056  0.1702
 4421TIP3    H134898   3.737   1.559   7.718  0.3911 -1.0443 -0.5002
 4421TIP3    H234899   3.644   1.441   7.700 -1.6284  0.4161 -0.0544
 4422TIP3   OH234900   4.375   6.048   0.953  0.1091  0.9362 -0.1818
 4422TIP3    H134901   4.327   5.974   0.989 -0.9239  1.3914 -0.5739
 4422TIP3    H234902   4.465   6.019   0.949 -0.1328  0.0336  0.5363
 4423TIP3   OH234903   5.460   4.602   1.818 -0.9140 -0.1836  0.1646
 4423TIP3    H134904   5.545   4.636   1.791 -1.5910  0.9646 -0.6094
 4423TIP3    H234905   5.476   4.510   1.837  0.9272  0.4412  2.0667
 4424TIP3   OH234906   5.865   2.683   2.055 -0.2547  0.2707 -0.0773
 4424TIP3    H134907   5.791   2.705   2.112 -1.2938 -1.2236 -0.8045
 4424TIP3    H234908   5.853   2.590   2.034  0.7025  0.5120 -1.8702
 4425TIP3   OH234909   4.825   3.425   7.234 -0.2757  1.0509  0.0596
 4425TIP3    H134910   4.768   3.348   7.226 -0.0381  1.0133 -1.5892
 4425TIP3    H234911   4.912   3.389   7.248 -0.1866  1.0167 -0.5660
 4426TIP3   OH234912   1.237   6.219   2.085 -0.0930 -0.0235  0.7868
 4426TIP3    H134913   1.313   6.205   2.029 -0.2645  0.4936  0.4163
 4426TIP3    H234914   1.173   6.155   2.056  0.4937 -1.0475  1.6698
 4427TIP3   OH234915   2.356   3.826   2.125 -0.0815 -0.3449 -0.3179
 4427TIP3    H134916   2.326   3.853   2.038 -0.4743  0.9606  0.2045
 4427TIP3    H234917   2.432   3.881   2.142  0.1092 -0.7265  0.0938
 4428TIP3   OH234918   2.931   2.684   2.477  0.3057 -0.0401  0.4834
 4428TIP3    H134919   2.889   2.769   2.490  1.2704  0.4466  0.4697
 4428TIP3    H234920   2.977   2.693   2.393 -1.4550 -1.3491 -0.7067
 4429TIP3   OH234921   2.032   3.833   8.522  0.3141 -0.2837  0.3076
 4429TIP3    H134922   1.990   3.754   8.487  0.4772  0.0969 -0.8088
 4429TIP3    H234923   2.125   3.819   8.506  0.5542 -0.7249  1.9426
 4430TIP3   OH234924   5.242   2.277   0.182 -0.3726 -0.1942  0.1038
 4430TIP3    H134925   5.250   2.237   0.269  0.1786 -0.8735 -0.2533
 4430TIP3    H234926   5.217   2.204   0.124  1.0272 -0.1241 -0.6255
 4431TIP3   OH234927   2.510   1.782   7.454  0.1653 -0.6347  0.2493
 4431TIP3    H134928   2.426   1.826   7.439  0.1985 -0.6793 -0.0742
 4431TIP3    H234929   2.489   1.713   7.518  0.0942 -0.2175  0.6803
 4432TIP3   OH234930   4.956   6.652   8.138 -0.3534  0.6930 -0.1477
 4432TIP3    H134931   4.876   6.601   8.150  0.1111  0.0884  0.4216
 4432TIP3    H234932   5.002   6.645   8.222 -0.3520  2.1837  0.0110
 4433TIP3   OH234933   2.578   2.561   0.713 -0.2915  0.7646 -0.0312
 4433TIP3    H134934   2.644   2.595   0.653 -0.3517  2.4529  0.7761
 4433TIP3    H234935   2.580   2.623   0.787 -1.8942  0.1369  0.5747
 4434TIP3   OH234936   5.532   5.167   8.054  0.0870  0.0332  0.0209
 4434TIP3    H134937   5.502   5.112   7.982  0.9766  0.5907 -0.8100
 4434TIP3    H234938   5.613   5.125   8.083  0.0324  0.1310  0.3155
 4435TIP3   OH234939   0.547   0.606   1.285  0.0164  0.3014 -0.1423
 4435TIP3    H134940   0.454   0.584   1.292 -0.3279  2.1241  1.8040
 4435TIP3    H234941   0.563   0.611   1.191 -1.3795 -1.7491 -0.5610
 4436TIP3   OH234942   3.441   0.715   0.958 -0.0261  0.1400 -0.1792
 4436TIP3    H134943   3.351   0.701   0.929  0.4287 -3.1890 -0.3108
 4436TIP3    H234944   3.438   0.701   1.053  0.6450 -2.3748 -0.4599
 4437TIP3   OH234945   5.670   1.960   1.912  0.1028 -0.4036 -0.3991
 4437TIP3    H134946   5.679   1.905   1.990  0.9171  0.3883  0.0905
 4437TIP3    H234947   5.758   1.961   1.874 -0.3147 -0.8711 -1.4014
 4438TIP3   OH234948   1.434   4.887   2.103 -0.0746 -0.1933  0.2632
 4438TIP3    H134949   1.420   4.965   2.157  0.0679 -0.0943  0.1602
 4438TIP3    H234950   1.385   4.818   2.147 -0.9674  0.1654 -0.1610
 4439TIP3   OH234951   2.373   4.827   1.041 -0.2497 -0.4819  0.4837
 4439TIP3    H134952   2.372   4.732   1.055 -0.2100 -0.7305 -1.0328
 4439TIP3    H234953   2.366   4.838   0.946 -0.6367  1.0523  0.6541
 4440TIP3   OH234954   6.658   4.023   3.277 -0.0649  0.5275 -0.3467
 4440TIP3    H134955   6.596   3.985   3.339 -0.4625 -0.8424 -1.5208
 4440TIP3    H234956   6.734   3.964   3.280  1.0053  1.8971  0.7021
 4441TIP3   OH234957   3.395   1.061   2.012  0.2562  0.1284  0.9256
 4441TIP3    H134958   3.316   1.071   2.065 -1.2136 -1.7160 -0.7709
 4441TIP3    H234959   3.399   1.140   1.958 -1.2296 -0.3453  0.0709
 4442TIP3   OH234960   1.542   4.184   2.772  0.0278 -0.2366 -0.4108
 4442TIP3    H134961   1.462   4.152   2.732 -0.1731 -1.2349  0.7318
 4442TIP3    H234962   1.516   4.212   2.860  1.2364 -2.6520  0.8257
 4443TIP3   OH234963   0.985   2.082   0.460  0.0791  0.3577 -0.4267
 4443TIP3    H134964   0.892   2.076   0.437 -0.2783 -0.4537  1.0930
 4443TIP3    H234965   1.019   1.994   0.446  0.4010  0.4309 -0.1240
 4444TIP3   OH234966   3.004   1.468   7.702 -0.3440 -0.6175  0.0882
 4444TIP3    H134967   3.085   1.484   7.750  0.3866  1.5815 -1.7176
 4444TIP3    H234968   3.026   1.400   7.639 -0.1400 -0.6106  0.1503
 4445TIP3   OH234969   5.659   0.467   2.222  0.2982 -0.2429 -0.4763
 4445TIP3    H134970   5.590   0.415   2.265  0.1611 -0.9967 -1.5722
 4445TIP3    H234971   5.621   0.491   2.137 -0.5497  3.6380  0.8081
 4446TIP3   OH234972   1.011   3.229   7.660  0.6102 -1.1533  0.5002
 4446TIP3    H134973   0.920   3.213   7.634 -0.0517  0.6706  1.5014
 4446TIP3    H234974   1.062   3.164   7.611 -0.9263 -0.4351 -2.2495
 4447TIP3   OH234975   5.340   3.498   1.918  0.5343 -0.7769 -0.7257
 4447TIP3    H134976   5.420   3.545   1.941 -0.5669 -0.8008  4.0844
 4447TIP3    H234977   5.278   3.566   1.893  0.2627 -0.0094  1.8224
 4448TIP3   OH234978   3.638   5.434   3.286  0.0518 -0.7220  0.0556
 4448TIP3    H134979   3.624   5.340   3.293 -0.7572 -0.6249 -0.1990
 4448TIP3    H234980   3.573   5.463   3.223  0.9125 -0.1292 -0.5746
 4449TIP3   OH234981   3.572   1.164   0.243  1.0856  0.2971  0.3657
 4449TIP3    H134982   3.574   1.257   0.220  1.0489  0.4499  0.9620
 4449TIP3    H234983   3.486   1.135   0.213  1.2525  0.3541 -0.1859
 4450TIP3   OH234984   1.932   3.621   8.387 -0.0254  0.3509  0.4258
 4450TIP3    H134985   1.841   3.601   8.367 -0.2434 -1.7334  2.9464
 4450TIP3    H234986   1.977   3.616   8.303 -1.9433 -0.4392 -0.6089
 4451TIP3   OH234987   2.475   4.785   8.716  0.1280  0.1080 -0.0083
 4451TIP3    H134988   2.569   4.768   8.720  0.0154 -1.6689 -2.5377
 4451TIP3    H234989   2.469   4.878   8.694  1.3603 -0.0599 -1.1893
 4452TIP3   OH234990   2.355   6.018   0.411 -0.4406 -0.4907  0.2839
 4452TIP3    H134991   2.380   5.973   0.492  0.5781 -0.1902  0.1483
 4452TIP3    H234992   2.369   5.953   0.342 -0.3203 -0.4104  0.2340
 4453TIP3   OH234993   3.475   6.242   7.350  0.4728  0.2745  0.3599
 4453TIP3    H134994   3.501   6.317   7.297 -1.0338  1.7933  1.6608
 4453TIP3    H234995   3.438   6.280   7.430 -0.4609 -1.8478  1.0163
 4454TIP3   OH234996   4.895   5.233   7.592  0.3571  0.2937 -0.1990
 4454TIP3    H134997   4.954   5.307   7.576  1.9495 -1.1111 -1.1540
 4454TIP3    H234998   4.901   5.180   7.513 -3.2777  0.7063 -0.9518
 4455TIP3   OH234999   6.425   4.418   0.037 -0.1388 -0.8290 -0.0492
 4455TIP3    H135000   6.370   4.430  -0.040  1.5991 -0.2130 -1.2770
 4455TIP3    H235001   6.472   4.336   0.020  1.3284  0.0439 -0.3946
 4456TIP3   OH235002   5.180   6.308   0.831 -0.1037 -0.1610 -0.3400
 4456TIP3    H135003   5.265   6.292   0.873 -0.2004 -0.3093 -0.1998
 4456TIP3    H235004   5.143   6.382   0.878  1.0647  1.6225 -2.0348
 4457TIP3   OH235005   4.508   3.786   0.272 -0.3314  0.1633  0.2059
 4457TIP3    H135006   4.549   3.853   0.218  1.8053  1.7883  3.4583
 4457TIP3    H235007   4.433   3.831   0.312 -0.4543 -0.2116  0.3975
 4458TIP3   OH235008   0.860   3.301   8.119 -0.5340 -0.2896 -0.2326
 4458TIP3    H135009   0.920   3.264   8.184 -1.4340 -2.4742 -0.5705
 4458TIP3    H235010   0.776   3.309   8.166 -0.3945  1.3352 -0.1953
 4459TIP3   OH235011   6.686   4.941   3.203 -0.4095  0.2036  0.4853
 4459TIP3    H135012   6.611   4.953   3.146 -0.2738 -0.6119  0.1187
 4459TIP3    H235013   6.737   5.022   3.194 -0.6921  0.3205 -0.0924
 4460TIP3   OH235014   4.908   4.325   8.797 -0.6652  0.2289  0.3800
 4460TIP3    H135015   4.917   4.289   8.708 -1.4142  3.3316 -1.0968
 4460TIP3    H235016   4.815   4.317   8.816 -0.7927  1.0089  0.1478
 4461TIP3   OH235017   1.129   1.193   8.771 -0.3841 -0.5232  0.3411
 4461TIP3    H135018   1.118   1.165   8.680 -0.2332 -1.6447  0.6480
 4461TIP3    H235019   1.040   1.214   8.801 -0.7129 -2.0598  0.5103
 4462TIP3   OH235020   0.848   1.290   2.775 -0.1731 -0.0832 -0.0454
 4462TIP3    H135021   0.885   1.272   2.861  2.6410 -2.0970 -1.5127
 4462TIP3    H235022   0.906   1.356   2.738 -0.3133 -0.4798 -1.0033
 4463TIP3   OH235023   5.377   1.278   1.937  0.2121  0.3003 -0.3944
 4463TIP3    H135024   5.451   1.272   1.877  0.6913  0.4907  0.1642
 4463TIP3    H235025   5.378   1.195   1.985  0.4841  0.5782  0.0873
 4464TIP3   OH235026   4.730   1.220   1.569 -0.2905  0.1982 -0.2051
 4464TIP3    H135027   4.687   1.237   1.653 -0.3840  0.3688 -0.2875
 4464TIP3    H235028   4.768   1.304   1.544  1.2365 -0.2227  0.5082
 4465TIP3   OH235029   3.927   1.896   1.229  0.1366 -0.0309 -1.0010
 4465TIP3    H135030   3.935   1.940   1.145  2.1741  1.9515  0.1423
 4465TIP3    H235031   4.016   1.890   1.262 -0.7609  1.3841  2.0221
 4466TIP3   OH235032   6.136   5.020   2.667 -0.2917  0.1691  0.1007
 4466TIP3    H135033   6.131   4.926   2.687  0.1599 -0.0869 -0.9438
 4466TIP3    H235034   6.100   5.028   2.579  2.0855  0.5774 -0.9103
 4467TIP3   OH235035   6.016   2.017   7.983 -0.0473  0.3372 -1.0354
 4467TIP3    H135036   6.100   2.038   7.942  0.0819  0.7653 -0.5618
 4467TIP3    H235037   6.037   1.947   8.045  0.3747  1.7760  0.5391
 4468TIP3   OH235038   0.744   4.322   8.465  0.3885  0.5988  0.4195
 4468TIP3    H135039   0.659   4.321   8.510  1.6806  0.4574  3.0379
 4468TIP3    H235040   0.759   4.415   8.445 -0.6386  0.5535 -0.6550
 4469TIP3   OH235041   5.679   3.292   0.320  0.4013  0.0121 -0.0380
 4469TIP3    H135042   5.613   3.354   0.350  0.7123  0.6166 -0.5747
 4469TIP3    H235043   5.762   3.336   0.336  0.6724 -0.6523  0.4307
 4470TIP3   OH235044   1.633   6.645   0.826  0.2891 -0.9089  0.3389
 4470TIP3    H135045   1.688   6.705   0.777  0.7879 -1.4955  0.1676
 4470TIP3    H235046   1.618   6.688   0.910 -2.4485  1.1756 -1.0456
 4471TIP3   OH235047   3.092   6.635   2.662 -0.5356  0.7302  0.1384
 4471TIP3    H135048   3.111   6.586   2.582 -2.3010  0.7681 -0.3295
 4471TIP3    H235049   3.077   6.724   2.632  1.0312  1.2554  0.8035
 4472TIP3   OH235050   6.038   2.351   1.613  0.0127  0.6170 -0.2152
 4472TIP3    H135051   6.061   2.279   1.554  3.1204 -0.2467  1.8386
 4472TIP3    H235052   6.058   2.430   1.562  2.2096 -0.1037 -0.6017
 4473TIP3   OH235053   4.595   4.764   0.037 -0.5800 -0.2525 -0.3001
 4473TIP3    H135054   4.545   4.746   0.116 -0.7471  1.0090 -0.0917
 4473TIP3    H235055   4.540   4.730  -0.034 -1.0598 -0.1797  0.0324
 4474TIP3   OH235056   2.187   3.827   0.019 -0.6646 -0.0624  0.3864
 4474TIP3    H135057   2.162   3.908  -0.025  1.9077  1.1679  0.9772
 4474TIP3    H235058   2.139   3.829   0.102 -2.2441 -0.2556 -0.4918
 4475TIP3   OH235059   6.624   1.488   0.422 -0.1571 -0.2783 -0.3004
 4475TIP3    H135060   6.623   1.502   0.516 -0.7494  0.7575 -0.4356
 4475TIP3    H235061   6.557   1.548   0.388  0.1896 -0.4764 -1.3976
 4476TIP3   OH235062   1.307   2.451   1.583 -0.0140 -0.3260 -0.0774
 4476TIP3    H135063   1.220   2.484   1.561  0.7263  3.8616  2.1348
 4476TIP3    H235064   1.291   2.378   1.642 -2.0394  0.1279  0.0023
 4477TIP3   OH235065   3.229   5.105   0.695  0.2788  0.2595  0.8389
 4477TIP3    H135066   3.164   5.041   0.669  0.4626 -0.4050  1.9544
 4477TIP3    H235067   3.266   5.071   0.777  2.2442  0.4440  0.0926
 4478TIP3   OH235068   3.717   5.634   3.553 -0.2210 -0.2196 -0.3920
 4478TIP3    H135069   3.637   5.610   3.600  0.1366  0.5370  0.6276
 4478TIP3    H235070   3.787   5.590   3.599  0.0565 -0.1141 -0.7053
 4479TIP3   OH235071   6.302   2.148   8.587 -0.3568  0.0412 -0.0014
 4479TIP3    H135072   6.275   2.215   8.650  2.7454  0.0147  1.5249
 4479TIP3    H235073   6.291   2.065   8.634 -0.4747 -0.2173 -0.4752
 4480TIP3   OH235074   2.491   5.136   1.239 -0.0351 -0.2366  0.2667
 4480TIP3    H135075   2.539   5.213   1.271 -1.0054  0.1000  0.9671
 4480TIP3    H235076   2.553   5.091   1.182  0.7359  0.7728  0.2770
 4481TIP3   OH235077   2.458   4.388   0.127 -0.5838  0.0555 -0.2386
 4481TIP3    H135078   2.418   4.474   0.122 -1.5455 -0.4104 -0.9537
 4481TIP3    H235079   2.396   4.330   0.083 -0.9892 -1.3889  2.0697
 4482TIP3   OH235080   4.587   1.667   2.417  0.4257 -1.4589  0.0011
 4482TIP3    H135081   4.548   1.581   2.434 -0.4329 -0.9646  0.6211
 4482TIP3    H235082   4.607   1.702   2.504  0.9131 -1.0900 -0.2568
 4483TIP3   OH235083   1.359   6.337   0.076  0.5542  0.2683  0.3737
 4483TIP3    H135084   1.359   6.337  -0.020 -0.6042 -1.0466  0.3381
 4483TIP3    H235085   1.286   6.395   0.100  1.1115  0.9362  0.4814
 4484TIP3   OH235086   5.262   3.604   1.482 -0.2185  0.0059  0.4149
 4484TIP3    H135087   5.337   3.645   1.525  1.5959 -0.6255 -1.9247
 4484TIP3    H235088   5.190   3.665   1.496  1.0484  1.3156  1.5610
 4485TIP3   OH235089   6.380   2.150   2.207  0.3588  0.1290  0.4506
 4485TIP3    H135090   6.333   2.232   2.199 -1.7683 -0.7356  2.8410
 4485TIP3    H235091   6.462   2.173   2.250  0.3734  1.1268 -0.0865
 4486TIP3   OH235092   0.841   0.193   0.950 -0.2442 -0.1646  0.6326
 4486TIP3    H135093   0.920   0.164   0.996  2.0336  2.4733 -1.2623
 4486TIP3    H235094   0.813   0.118   0.900  1.4022 -1.0474  0.9531
 4487TIP3   OH235095   3.630   1.643   0.309  0.1549  0.1921  0.0894
 4487TIP3    H135096   3.703   1.702   0.328  0.5887 -0.8515  1.8181
 4487TIP3    H235097   3.671   1.557   0.295 -0.5253  0.1036 -1.7085
 4488TIP3   OH235098   2.219   5.636   7.771  0.2083  0.0090 -0.3952
 4488TIP3    H135099   2.241   5.688   7.849  2.0834 -0.0338 -0.8516
 4488TIP3    H235100   2.285   5.566   7.770 -0.5107 -0.6713 -1.3954
 4489TIP3   OH235101   1.056   3.362   3.164  0.2736  0.1473  0.2590
 4489TIP3    H135102   1.128   3.345   3.103  1.9170  0.9475  1.8798
 4489TIP3    H235103   1.045   3.280   3.211 -0.4584 -0.2260 -0.5368
 4490TIP3   OH235104   3.978   3.836   2.757  0.1198 -0.2404  0.4538
 4490TIP3    H135105   3.941   3.779   2.689 -1.6881  0.5165  0.7449
 4490TIP3    H235106   4.036   3.896   2.709 -2.0010  1.0312 -0.6712
 4491TIP3   OH235107   3.054   2.724   1.601  0.0763 -0.4785  0.1293
 4491TIP3    H135108   2.967   2.718   1.639 -0.3529  0.6426 -0.6266
 4491TIP3    H235109   3.047   2.792   1.534  1.5575 -0.2770  0.1342
 4492TIP3   OH235110   2.420   4.472   0.917 -0.4028 -0.5417 -0.0603
 4492TIP3    H135111   2.331   4.437   0.927 -1.1485  1.7029  1.9393
 4492TIP3    H235112   2.442   4.507   1.003  3.1969 -2.5393  0.0047
 4493TIP3   OH235113   3.199   3.768   8.700  0.1977  0.5721 -0.1364
 4493TIP3    H135114   3.117   3.729   8.671  0.1514  0.6445 -0.1004
 4493TIP3    H235115   3.253   3.769   8.621  0.9116 -1.3661  0.2563
 4494TIP3   OH235116   6.372   5.232   1.372  0.3887  0.0971 -0.3999
 4494TIP3    H135117   6.418   5.242   1.288 -1.2721 -0.3367 -1.4170
 4494TIP3    H235118   6.307   5.303   1.371  0.8962  0.6201  0.9439
 4495TIP3   OH235119   4.664   3.352   0.210  0.2188 -0.2649 -0.1405
 4495TIP3    H135120   4.650   3.261   0.235 -1.6131  0.0489  0.0886
 4495TIP3    H235121   4.618   3.361   0.126 -0.3976  0.6614  0.2785
 4496TIP3   OH235122   0.672   3.511   1.580  0.3783 -0.3066 -0.2149
 4496TIP3    H135123   0.700   3.436   1.527  1.9030  1.7862 -2.6530
 4496TIP3    H235124   0.742   3.522   1.645  0.9881 -0.0888 -0.8907
 4497TIP3   OH235125   6.017   3.615   7.446 -0.1858  0.1675  0.0010
 4497TIP3    H135126   6.086   3.555   7.419  0.2128  0.9250 -0.7326
 4497TIP3    H235127   5.939   3.561   7.454  0.1997 -0.4651 -0.4735
 4498TIP3   OH235128   5.533   3.966   0.591 -0.3647 -0.0855  0.0292
 4498TIP3    H135129   5.449   4.012   0.589 -0.3276 -0.0437 -1.6389
 4498TIP3    H235130   5.599   4.035   0.585 -0.2450 -0.2021 -0.0007
 4499TIP3   OH235131   0.708   1.499   1.640  0.0975 -0.4019  0.0262
 4499TIP3    H135132   0.701   1.494   1.545  0.1527 -0.4926  0.0270
 4499TIP3    H235133   0.785   1.555   1.656 -1.2264  1.5430  0.0156
 4500TIP3   OH235134   3.848   2.536   8.548  0.0726 -0.1848 -0.2419
 4500TIP3    H135135   3.901   2.582   8.483  1.0324  0.0601  0.7009
 4500TIP3    H235136   3.842   2.596   8.622  0.1052 -0.9853  0.4241
 4501TIP3   OH235137   5.568   6.645   1.086 -0.3100  0.1443 -0.4766
 4501TIP3    H135138   5.655   6.681   1.068 -0.0960  0.4131  0.9987
 4501TIP3    H235139   5.508   6.705   1.042  0.2398 -0.1471 -1.6696
 4502TIP3   OH235140   4.638   4.111   7.121 -0.4547  0.0538  0.5977
 4502TIP3    H135141   4.662   4.078   7.208 -0.3205 -1.2672  0.0800
 4502TIP3    H235142   4.715   4.094   7.067 -0.9461 -0.1375 -0.0458
 4503TIP3   OH235143   6.126   1.725   0.060 -0.5018  0.1555 -0.0954
 4503TIP3    H135144   6.100   1.640   0.095  3.9112 -1.2453  0.3658
 4503TIP3    H235145   6.136   1.710  -0.034 -0.1882  0.3058 -0.0867
 4504TIP3   OH235146   4.503   4.034   2.528 -0.4660 -0.3953 -0.0622
 4504TIP3    H135147   4.506   4.068   2.617  1.4953 -0.5984 -0.0137
 4504TIP3    H235148   4.498   3.939   2.538 -0.6278 -0.4028 -0.1900
 4505TIP3   OH235149   1.113   6.612   3.278  0.4135 -0.6026  0.5615
 4505TIP3    H135150   1.156   6.561   3.209  0.1406  0.3159 -0.3012
 4505TIP3    H235151   1.020   6.601   3.262  0.3500  0.4520  0.1451
 4506TIP3   OH235152   0.323   5.667   1.998  0.2221  0.1539 -0.0476
 4506TIP3    H135153   0.305   5.668   1.904  0.0397  1.0796 -0.0186
 4506TIP3    H235154   0.405   5.620   2.007  0.2107  0.0092 -0.6660
 4507TIP3   OH235155   5.226   2.328   2.024 -0.0477 -0.4441 -0.1345
 4507TIP3    H135156   5.280   2.346   2.101  0.5097 -0.8589 -0.4229
 4507TIP3    H235157   5.271   2.257   1.979 -0.4987 -0.3650 -0.7227
 4508TIP3   OH235158   1.560   0.410   2.392  0.1266  0.5704 -0.2123
 4508TIP3    H135159   1.537   0.419   2.299  0.8498  0.2761 -0.4292
 4508TIP3    H235160   1.640   0.357   2.391 -0.0858  0.2329  0.6070
 4509TIP3   OH235161   6.677   5.579   2.733 -0.3732  0.2033 -0.2052
 4509TIP3    H135162   6.689   5.605   2.824 -1.8709  1.3670 -0.2901
 4509TIP3    H235163   6.749   5.621   2.686 -0.4043  0.7775  0.2519
 4510TIP3   OH235164   3.663   0.293   0.477  0.2566  0.1458  0.7177
 4510TIP3    H135165   3.587   0.313   0.422 -0.1224  1.8424  1.8187
 4510TIP3    H235166   3.711   0.375   0.483  0.6654 -0.1815  2.3343
 4511TIP3   OH235167   2.519   6.037   8.521 -0.7051 -0.4464 -0.6201
 4511TIP3    H135168   2.615   6.028   8.523 -0.6618  0.1209  1.2149
 4511TIP3    H235169   2.500   6.062   8.430  0.8952 -0.4437 -0.9881
 4512TIP3   OH235170   2.358   0.514   1.347  0.1221  0.0409 -0.3358
 4512TIP3    H135171   2.392   0.587   1.295 -2.1512 -0.8119 -3.3039
 4512TIP3    H235172   2.423   0.445   1.337  0.3446  0.3282 -0.9467
 4513TIP3   OH235173   4.821   6.713   0.982 -0.4335 -0.5501  0.1916
 4513TIP3    H135174   4.865   6.644   0.931 -1.4376 -0.9711 -0.1356
 4513TIP3    H235175   4.741   6.732   0.932 -0.8181 -0.0777  0.9666
 4514TIP3   OH235176   4.327   4.854   8.129 -0.5206  0.1580  0.7876
 4514TIP3    H135177   4.379   4.932   8.109  0.5918  0.0961  3.1221
 4514TIP3    H235178   4.387   4.781   8.116 -1.0200 -0.1927  0.3899
 4515TIP3   OH235179   6.685   4.784   0.544  0.1632  0.7862 -0.2507
 4515TIP3    H135180   6.611   4.735   0.509  0.5791 -1.0881  1.2797
 4515TIP3    H235181   6.673   4.873   0.512 -1.9823  0.2237 -1.1760
 4516TIP3   OH235182   0.232   0.382   8.434 -0.3572  0.2710 -0.2214
 4516TIP3    H135183   0.184   0.348   8.358 -0.9736  0.7165 -0.0365
 4516TIP3    H235184   0.198   0.470   8.446  0.7783  0.7467 -0.3113
 4517TIP3   OH235185   1.053   5.731   3.538 -0.1261 -0.3368  0.3787
 4517TIP3    H135186   1.021   5.650   3.500 -1.9381  0.1802  0.7240
 4517TIP3    H235187   0.975   5.777   3.568  0.5952  2.5324 -1.6929
 4518TIP3   OH235188   5.663   1.677   7.468 -0.4259 -0.2675 -0.2822
 4518TIP3    H135189   5.638   1.717   7.551 -0.3840  1.4686 -1.0585
 4518TIP3    H235190   5.754   1.703   7.455 -0.3076 -0.8676 -0.6748
 4519TIP3   OH235191   5.531   4.959   1.728  0.1637 -0.1774  0.2179
 4519TIP3    H135192   5.491   5.039   1.693  0.8757 -0.1856 -0.6551
 4519TIP3    H235193   5.548   4.905   1.651 -1.4025 -1.7205  0.8880
 4520TIP3   OH235194   3.251   2.113   0.851 -0.4165  0.2223  0.3337
 4520TIP3    H135195   3.343   2.089   0.856  0.0265  1.5009 -0.7996
 4520TIP3    H235196   3.246   2.197   0.898 -1.0292  0.0846  0.5186
 4521TIP3   OH235197   2.043   2.845   3.184 -0.4875 -0.1853  0.0840
 4521TIP3    H135198   1.952   2.874   3.179 -0.0452  1.6259  1.5480
 4521TIP3    H235199   2.082   2.898   3.253  1.8841 -0.3990 -0.9759
 4522TIP3   OH235200   0.232   2.458   0.948  0.2589 -0.2874  0.5654
 4522TIP3    H135201   0.236   2.540   0.996 -1.0326  0.5236 -0.6329
 4522TIP3    H235202   0.181   2.478   0.869  0.8052 -1.9815 -0.2870
 4523TIP3   OH235203   3.490   4.431   2.329 -0.5024 -0.0632 -0.1950
 4523TIP3    H135204   3.421   4.379   2.286 -0.0763  0.5947 -1.7315
 4523TIP3    H235205   3.569   4.411   2.280  0.3120 -0.3368  1.1800
 4524TIP3   OH235206   0.916   6.754   7.543  0.3917  0.0338  0.2204
 4524TIP3    H135207   0.837   6.807   7.536  0.2196 -0.2596 -0.0699
 4524TIP3    H235208   0.911   6.692   7.470  0.3808 -0.6519  0.7904
 4525TIP3   OH235209   0.875   2.380   0.283  0.1815  0.2379 -0.5723
 4525TIP3    H135210   0.937   2.451   0.268 -0.3395  0.9973  0.6522
 4525TIP3    H235211   0.799   2.422   0.323  1.4042 -1.3713  4.1047
 4526TIP3   OH235212   2.870   6.307   8.272 -0.5571  0.3756 -0.0685
 4526TIP3    H135213   2.789   6.289   8.225  0.3834 -0.0623 -1.5827
 4526TIP3    H235214   2.847   6.377   8.333 -2.0383  0.3426 -0.5562
 4527TIP3   OH235215   3.549   2.388   1.029  0.1456  0.5673 -0.2763
 4527TIP3    H135216   3.575   2.310   0.979 -0.4720 -0.5853  1.1079
 4527TIP3    H235217   3.549   2.358   1.120 -1.7932  1.6989  0.1518
 4528TIP3   OH235218   4.460   5.084   8.000  0.6193  0.0813  0.2332
 4528TIP3    H135219   4.461   5.146   7.928 -1.9094  0.5617  0.4894
 4528TIP3    H235220   4.551   5.060   8.014  1.7263  3.6984  0.0917
 4529TIP3   OH235221   3.621   5.772   7.577  0.4765  0.7396 -0.1872
 4529TIP3    H135222   3.538   5.810   7.608  1.1988  1.3073  1.1490
 4529TIP3    H235223   3.594   5.694   7.529 -0.9001  1.5549 -0.8237
 4530TIP3   OH235224   0.592   0.879   8.171 -0.6213 -0.4518  0.5810
 4530TIP3    H135225   0.525   0.941   8.197 -2.8470 -2.2345 -0.5518
 4530TIP3    H235226   0.656   0.931   8.121 -1.0497  1.3094  1.8049
 4531TIP3   OH235227   6.039   5.119   1.231 -0.3072  0.8360  0.1333
 4531TIP3    H135228   6.021   5.124   1.325 -0.2479  0.5653  0.1587
 4531TIP3    H235229   5.965   5.070   1.195 -0.3288  0.9379  0.0375
 4532TIP3   OH235230   6.478   3.881   3.096  0.1707 -0.1346  0.5800
 4532TIP3    H135231   6.522   3.807   3.138  1.9737  1.0870  0.9432
 4532TIP3    H235232   6.524   3.958   3.128 -0.4521  1.0490 -1.2269
 4533TIP3   OH235233   3.647   0.597   2.558 -0.2487 -0.0599  0.2777
 4533TIP3    H135234   3.608   0.598   2.646  1.8061  0.9329  1.2522
 4533TIP3    H235235   3.730   0.552   2.569 -0.1035 -0.2125 -1.2588
 4534TIP3   OH235236   2.377   1.186   0.813 -0.0821 -0.1128  0.0742
 4534TIP3    H135237   2.465   1.223   0.811 -0.2356  0.4442  1.5777
 4534TIP3    H235238   2.362   1.154   0.724  1.8927 -0.8824 -0.0367
 4535TIP3   OH235239   1.567   3.568   2.041 -0.0116 -0.1468  0.2595
 4535TIP3    H135240   1.537   3.477   2.034 -0.2581  0.0495 -1.8702
 4535TIP3    H235241   1.597   3.576   2.131  0.3547 -2.4485  0.4094
 4536TIP3   OH235242   4.377   3.771   7.348  0.2795 -0.3932 -0.3725
 4536TIP3    H135243   4.312   3.710   7.312  0.2165 -0.5585  0.0104
 4536TIP3    H235244   4.419   3.809   7.271 -0.5277 -0.0043 -0.6296
 4537TIP3   OH235245   4.333   0.704   3.129 -0.2632 -0.5118  0.4745
 4537TIP3    H135246   4.245   0.674   3.106  0.1557 -0.1284 -1.8957
 4537TIP3    H235247   4.320   0.772   3.195 -1.6933 -0.8618  0.5708
 4538TIP3   OH235248   4.917   1.162   1.077  0.1291 -0.0549 -0.5915
 4538TIP3    H135249   4.906   1.256   1.088  0.0217  0.0366 -1.4096
 4538TIP3    H235250   4.981   1.153   1.007  0.6500 -0.5971 -0.0572
 4539TIP3   OH235251   4.462   3.092   8.101  0.1760 -0.0552  0.4773
 4539TIP3    H135252   4.458   3.024   8.168  0.5047 -0.0581  0.4960
 4539TIP3    H235253   4.518   3.055   8.032 -0.0654 -0.0071  0.2554
 4540TIP3   OH235254   3.182   6.205   2.248  0.3522  0.4626  0.4290
 4540TIP3    H135255   3.181   6.112   2.226 -1.0946  0.2281  1.3285
 4540TIP3    H235256   3.271   6.234   2.228  0.0089 -0.3682 -2.8554
 4541TIP3   OH235257   6.358   6.404   2.620  0.0368 -0.1123  0.4033
 4541TIP3    H135258   6.310   6.339   2.671  1.5135 -1.9894 -0.4754
 4541TIP3    H235259   6.399   6.354   2.550  3.9033  1.1762  1.5224
 4542TIP3   OH235260   4.436   3.983   3.070  0.3747  0.3889 -0.1563
 4542TIP3    H135261   4.344   4.008   3.062  0.0757 -1.0022 -1.6779
 4542TIP3    H235262   4.436   3.915   3.137  0.4348  0.9867  0.4562
 4543TIP3   OH235263   0.298   5.784   8.636  0.4888  0.6182  0.5798
 4543TIP3    H135264   0.318   5.821   8.550 -0.0751 -0.3959 -0.0059
 4543TIP3    H235265   0.383   5.754   8.669  0.6179  0.4431  0.1040
 4544TIP3   OH235266   6.686   6.672   2.552  0.0808  0.1865 -0.3647
 4544TIP3    H135267   6.675   6.594   2.498 -2.9382 -0.9402  1.6320
 4544TIP3    H235268   6.756   6.721   2.509  1.5491 -3.1720 -2.1724
 4545TIP3   OH235269   6.824   3.946   2.440  0.1350  0.9792  0.9671
 4545TIP3    H135270   6.801   3.886   2.369 -0.4575 -0.7097  2.4989
 4545TIP3    H235271   6.740   3.978   2.473  0.3723  1.3381  1.2344
 4546TIP3   OH235272   3.573   5.458   1.586 -0.6365 -0.1246 -0.4657
 4546TIP3    H135273   3.631   5.465   1.510  0.0787 -0.3038  0.0524
 4546TIP3    H235274   3.632   5.460   1.661 -1.3111 -0.2868  0.0753
 4547TIP3   OH235275   5.604   5.628   1.968  0.4856 -0.1471 -0.0045
 4547TIP3    H135276   5.698   5.627   1.951  0.3357  0.9560 -1.0045
 4547TIP3    H235277   5.564   5.630   1.882 -0.4788 -0.9849  0.4038
 4548TIP3   OH235278   6.281   2.210   7.503 -0.3051  0.2599 -0.7729
 4548TIP3    H135279   6.270   2.304   7.487  0.7718  0.3613 -0.9843
 4548TIP3    H235280   6.369   2.202   7.540 -0.5470 -0.6247 -0.3619
 4549TIP3   OH235281   4.048   6.428   7.539 -0.7499 -0.1652 -0.2238
 4549TIP3    H135282   3.997   6.358   7.581  0.4702 -0.4528  0.8763
 4549TIP3    H235283   4.117   6.381   7.493 -1.3701  0.2236 -1.5826
 4550TIP3   OH235284   5.008   2.762   8.310 -0.3784 -0.2368 -0.2122
 4550TIP3    H135285   4.998   2.853   8.282  0.5152 -0.4250 -1.2309
 4550TIP3    H235286   4.945   2.714   8.257  1.1697 -0.5653 -1.8843
 4551TIP3   OH235287   2.958   3.470   3.314  0.1936  0.0513 -0.1892
 4551TIP3    H135288   3.008   3.474   3.396  1.2943 -1.7219 -0.7189
 4551TIP3    H235289   3.017   3.508   3.249  0.6448 -1.4296 -0.6930
 4552TIP3   OH235290   4.407   0.290   0.532  0.4014 -0.5798 -0.0475
 4552TIP3    H135291   4.326   0.277   0.582 -0.9405 -2.6988 -2.5098
 4552TIP3    H235292   4.477   0.269   0.593 -0.9194  0.1315  1.8185
 4553TIP3   OH235293   2.085   2.979   3.406 -0.8251  0.0344  0.0610
 4553TIP3    H135294   2.082   3.060   3.456  2.7580  0.5381 -0.2313
 4553TIP3    H235295   2.047   2.913   3.464  2.1181  0.7933  3.2035
 4554TIP3   OH235296   4.277   0.250   8.661  0.3152  0.6167  0.1108
 4554TIP3    H135297   4.300   0.252   8.568  3.4779  1.3999  0.7953
 4554TIP3    H235298   4.285   0.158   8.685  1.3005  0.6561 -0.0272
 4555TIP3   OH235299   6.648   3.685   1.312  0.1668  0.5181 -0.0112
 4555TIP3    H135300   6.711   3.616   1.332  0.9794  1.1771 -0.2296
 4555TIP3    H235301   6.688   3.765   1.346 -0.2106  1.0588 -0.8007
 4556TIP3   OH235302   0.367   1.173   8.699 -1.1425  0.1013 -0.1569
 4556TIP3    H135303   0.278   1.138   8.706 -0.9582 -0.7361 -1.6173
 4556TIP3    H235304   0.423   1.096   8.699 -0.4417  0.5995  0.1547
 4557TIP3   OH235305   4.782   5.576   1.136  0.3026  0.1512  0.3004
 4557TIP3    H135306   4.871   5.585   1.102  0.6608 -1.8068  0.5995
 4557TIP3    H235307   4.789   5.606   1.227  0.5002  0.6264  0.1328
 4558TIP3   OH235308   0.955   6.389   1.551  0.3821  0.0498 -0.2037
 4558TIP3    H135309   0.931   6.410   1.461  0.6751 -1.5542 -0.6921
 4558TIP3    H235310   0.890   6.434   1.604  1.8143  3.3972 -1.0034
 4559TIP3   OH235311   5.226   4.564   8.474  0.0141  0.3153 -0.1612
 4559TIP3    H135312   5.175   4.640   8.501 -1.1206 -0.3547 -0.3738
 4559TIP3    H235313   5.283   4.596   8.404 -0.0820  1.0789  0.1098
 4560TIP3   OH235314   1.845   1.120   2.060 -0.0470  0.0683 -0.2999
 4560TIP3    H135315   1.912   1.073   2.109 -0.5468 -1.0231 -0.6199
 4560TIP3    H235316   1.766   1.111   2.112 -0.3605 -0.2679 -0.8244
 4561TIP3   OH235317   4.527   3.768   2.630 -0.2539 -0.2116 -0.3698
 4561TIP3    H135318   4.591   3.759   2.700  1.4179 -0.0885 -1.8311
 4561TIP3    H235319   4.544   3.694   2.571 -1.3689 -0.1078 -0.8502
 4562TIP3   OH235320   3.551   2.909   1.142 -0.8569 -0.0750 -0.0035
 4562TIP3    H135321   3.488   2.929   1.211 -0.1870 -0.6766  0.7903
 4562TIP3    H235322   3.608   2.985   1.139  0.0732 -0.6904  1.2062
 4563TIP3   OH235323   0.846   6.165   2.113  0.1414  0.4144  0.4819
 4563TIP3    H135324   0.766   6.120   2.085  0.8294 -0.9719  0.6707
 4563TIP3    H235325   0.871   6.218   2.037  0.5292 -1.2658 -0.6028
 4564TIP3   OH235326   0.811   4.359   3.061  0.1777 -0.0562  0.5957
 4564TIP3    H135327   0.830   4.374   3.154  1.1272  0.5495  0.3155
 4564TIP3    H235328   0.728   4.406   3.046 -0.4666 -0.9179  1.3335
 4565TIP3   OH235329   1.992   1.476   1.643 -0.0651  0.2556 -0.3136
 4565TIP3    H135330   1.996   1.535   1.718 -0.9740  0.3728 -0.3452
 4565TIP3    H235331   2.038   1.397   1.673  0.1034  0.5282  0.1566
 4566TIP3   OH235332   2.585   5.862   0.487 -0.6770 -0.2940 -0.1971
 4566TIP3    H135333   2.579   5.878   0.581 -1.0505 -1.2352 -0.0444
 4566TIP3    H235334   2.601   5.768   0.480 -3.8565 -0.8936 -1.1226
 4567TIP3   OH235335   0.524   2.026   2.322  0.2006 -0.1669 -0.1792
 4567TIP3    H135336   0.523   2.121   2.332 -1.8028  0.0268 -1.5632
 4567TIP3    H235337   0.554   2.011   2.232 -0.5729 -0.7550 -0.3539
 4568TIP3   OH235338   1.128   5.491   8.618 -0.3390  0.3006 -0.0967
 4568TIP3    H135339   1.169   5.573   8.647 -1.0128  0.7771 -0.4621
 4568TIP3    H235340   1.036   5.515   8.603 -0.9806 -0.9544  1.6016
 4569TIP3   OH235341   6.230   4.473   1.021 -1.0402 -0.0146 -0.6603
 4569TIP3    H135342   6.322   4.467   0.996 -1.3617 -1.5915 -1.5791
 4569TIP3    H235343   6.231   4.507   1.111  0.3239  1.8076 -1.3119
 4570TIP3   OH235344   3.890   2.940   0.501  0.1620  0.0769 -0.3482
 4570TIP3    H135345   3.974   2.971   0.467 -0.6378  0.1432 -2.4365
 4570TIP3    H235346   3.833   3.017   0.499  0.1264  0.1494  1.5051
 4571TIP3   OH235347   5.735   4.360   8.020  0.1520  0.4081 -0.2881
 4571TIP3    H135348   5.819   4.339   8.061 -0.0908  0.8984  0.4933
 4571TIP3    H235349   5.702   4.276   7.986  0.4442  0.0145  0.3839
 4572TIP3   OH235350   6.711   3.171   0.578 -0.5041 -0.4849  0.3237
 4572TIP3    H135351   6.738   3.154   0.487  1.9705 -0.2306  0.9197
 4572TIP3    H235352   6.749   3.099   0.628  1.4490  1.3061  1.5756
 4573TIP3   OH235353   0.959   4.808   2.414  0.2901  0.0611  0.5443
 4573TIP3    H135354   0.954   4.873   2.344 -0.0229 -0.9393 -0.3868
 4573TIP3    H235355   1.032   4.752   2.390 -0.5187 -0.9633  0.4226
 4574TIP3   OH235356   3.451   1.151   7.696  0.2476 -0.0443 -0.4126
 4574TIP3    H135357   3.384   1.174   7.632  0.5335 -2.0462 -1.5140
 4574TIP3    H235358   3.534   1.176   7.655  0.4287 -1.2969 -0.8516
 4575TIP3   OH235359   3.550   2.100   0.990 -0.2564  0.1185 -0.0366
 4575TIP3    H135360   3.553   2.010   0.956 -1.2287  0.4342 -1.0255
 4575TIP3    H235361   3.571   2.092   1.083  0.4997 -1.0285 -0.2916
 4576TIP3   OH235362   1.221   1.218   1.914 -0.1192  0.6552 -0.0157
 4576TIP3    H135363   1.231   1.312   1.932 -1.3933  0.6208  1.0636
 4576TIP3    H235364   1.129   1.207   1.891  0.3783 -0.1089 -1.8536
 4577TIP3   OH235365   2.453   1.271   8.180 -0.0241  0.1229  0.2909
 4577TIP3    H135366   2.438   1.250   8.088  0.0929  0.1450  0.2664
 4577TIP3    H235367   2.432   1.191   8.227  1.7853 -0.5139  0.0747
 4578TIP3   OH235368   0.217   4.964   3.284  0.3419  0.4298  0.0171
 4578TIP3    H135369   0.140   5.000   3.329  0.7303  1.5652 -0.1764
 4578TIP3    H235370   0.239   5.031   3.219  0.8117 -0.4134 -0.6969
 4579TIP3   OH235371   4.198   3.977   7.994 -0.1522  0.1113  0.1957
 4579TIP3    H135372   4.113   4.003   8.028 -0.2402 -0.5272  0.4770
 4579TIP3    H235373   4.181   3.949   7.904 -0.5045 -1.4309  0.7223
 4580TIP3   OH235374   5.624   6.719   2.318  0.2368 -0.3121 -0.5984
 4580TIP3    H135375   5.628   6.624   2.304 -1.7944 -0.4639 -0.4226
 4580TIP3    H235376   5.705   6.752   2.281  1.4792 -2.2237  0.2391
 4581TIP3   OH235377   4.377   0.864   3.361  0.0957 -0.4396  0.2925
 4581TIP3    H135378   4.305   0.917   3.394  0.6127  0.2060  0.4013
 4581TIP3    H235379   4.456   0.905   3.397  0.4974 -1.4437  0.6058
 4582TIP3   OH235380   4.304   4.412   8.067 -0.1859 -0.1477 -0.7987
 4582TIP3    H135381   4.251   4.410   7.988  0.3597 -0.4147 -1.1645
 4582TIP3    H235382   4.383   4.364   8.044  1.2137  2.0826 -0.9723
 4583TIP3   OH235383   4.613   4.881   1.961 -0.4932 -0.6548 -0.1539
 4583TIP3    H135384   4.526   4.916   1.981 -0.4478 -1.0943  0.8786
 4583TIP3    H235385   4.674   4.947   1.996 -0.3809  0.1070 -1.6949
 4584TIP3   OH235386   5.677   6.317   1.151 -0.0394  0.2843 -0.1302
 4584TIP3    H135387   5.683   6.374   1.074 -1.4586 -1.5932 -1.7231
 4584TIP3    H235388   5.695   6.229   1.117 -3.8981 -1.1126  0.9365
 4585TIP3   OH235389   0.710   5.679   0.993  0.1940 -0.0150  0.4472
 4585TIP3    H135390   0.625   5.700   0.956  0.7846  0.6200 -0.5820
 4585TIP3    H235391   0.722   5.742   1.064  1.4613  2.5889 -1.8998
 4586TIP3   OH235392   1.472   3.782   0.922 -0.0010 -0.1087 -0.3395
 4586TIP3    H135393   1.469   3.846   0.993 -1.9450 -0.1992 -0.2969
 4586TIP3    H235394   1.390   3.734   0.929 -0.3058 -0.0643 -2.7106
 4587TIP3   OH235395   3.211   3.205   7.624  0.9076 -0.2190 -0.6010
 4587TIP3    H135396   3.206   3.118   7.664  1.4604  0.5536  1.2500
 4587TIP3    H235397   3.286   3.199   7.565  1.4453 -0.8000  0.1049
 4588TIP3   OH235398   5.872   6.127   0.052  0.1308 -0.2870  0.3227
 4588TIP3    H135399   5.780   6.099   0.044  0.0446  0.2295 -0.6478
 4588TIP3    H235400   5.916   6.085  -0.022  1.2814 -2.7211  2.2414
 4589TIP3   OH235401   6.708   1.233   0.435  0.0664  0.3425  0.3341
 4589TIP3    H135402   6.776   1.205   0.375  1.0292  0.6049  1.2660
 4589TIP3    H235403   6.692   1.325   0.413  0.7797  0.5865  0.7809
 4590TIP3   OH235404   4.078   2.678   3.049  0.1338 -0.2095  1.0682
 4590TIP3    H135405   3.984   2.696   3.044  0.1035 -0.2705  1.3668
 4590TIP3    H235406   4.105   2.664   2.959 -0.1178 -0.0557  0.9681
 4591TIP3   OH235407   3.312   4.973   2.621  0.2356  0.1193  0.5735
 4591TIP3    H135408   3.302   5.057   2.666 -1.3060  0.2162  0.1260
 4591TIP3    H235409   3.281   4.991   2.532 -1.2101 -1.1630  0.7763
 4592TIP3   OH235410   1.382   6.789   2.043 -0.1908  0.2895  0.2779
 4592TIP3    H135411   1.351   6.755   1.959  0.5043 -0.1981  0.2055
 4592TIP3    H235412   1.441   6.861   2.020  0.5242 -0.2692  0.3010
 4593TIP3   OH235413   2.792   2.159   1.635  0.5413  0.1156  0.2358
 4593TIP3    H135414   2.778   2.067   1.659 -1.4084 -0.2690 -1.9430
 4593TIP3    H235415   2.711   2.203   1.662  0.9198  0.9316  0.0733
 4594TIP3   OH235416   4.289   3.149   7.804 -0.1316  0.0638 -0.4004
 4594TIP3    H135417   4.231   3.159   7.729  0.1535  0.2330 -0.5963
 4594TIP3    H235418   4.233   3.167   7.880 -0.7674 -1.3939 -0.4732
 4595TIP3   OH235419   3.378   1.468   7.571  0.2679 -0.0245 -0.1022
 4595TIP3    H135420   3.432   1.528   7.520 -0.4733  0.5325 -0.2380
 4595TIP3    H235421   3.319   1.429   7.507 -0.4216  0.4032  0.2676
 4596TIP3   OH235422   2.164   5.131   2.231  0.1229 -0.6140 -0.5440
 4596TIP3    H135423   2.100   5.199   2.213  1.3442  0.2254 -1.9477
 4596TIP3    H235424   2.160   5.118   2.326 -0.5280  1.0189 -0.3242
 4597TIP3   OH235425   5.154   0.801   0.969  0.0087 -0.1544  0.2343
 4597TIP3    H135426   5.162   0.878   1.025  2.8273 -0.5108  0.4874
 4597TIP3    H235427   5.066   0.767   0.987 -1.0253  2.4828  0.6913
 4598TIP3   OH235428   6.757   6.524   0.092  0.2978  0.5103  0.4279
 4598TIP3    H135429   6.812   6.446   0.102  0.0512  0.4249  1.1557
 4598TIP3    H235430   6.683   6.495   0.039  0.3916  0.3466  0.3861
 4599TIP3   OH235431   5.050   0.764   2.335 -0.6352 -0.1033 -0.9079
 4599TIP3    H135432   5.141   0.738   2.351 -0.9486 -2.0423 -1.9412
 4599TIP3    H235433   5.033   0.831   2.401  0.1298 -2.9424  2.5147
 4600TIP3   OH235434   2.773   6.510   3.117  0.5021  0.5968  0.0532
 4600TIP3    H135435   2.837   6.560   3.066  0.2724  1.1248  0.2804
 4600TIP3    H235436   2.825   6.441   3.159  1.0019  1.2562  0.5488
 4601TIP3   OH235437   4.325   6.804   1.105 -0.6744  0.3735 -0.0757
 4601TIP3    H135438   4.256   6.814   1.170 -0.6887 -0.2339  0.0108
 4601TIP3    H235439   4.403   6.780   1.156 -1.3849 -3.4277 -0.4401
 4602TIP3   OH235440   0.327   0.112   1.141 -0.2885 -0.6061 -0.6988
 4602TIP3    H135441   0.367   0.158   1.215 -0.1666 -0.6364 -0.7468
 4602TIP3    H235442   0.264   0.052   1.181 -2.0566  1.1213 -0.6957
 4603TIP3   OH235443   2.002   0.962   2.222 -0.5606  0.6565  0.6630
 4603TIP3    H135444   1.979   0.871   2.203  4.2195 -0.5615 -0.5810
 4603TIP3    H235445   2.060   0.956   2.298  2.4394  2.1384 -1.3687
 4604TIP3   OH235446   2.739   1.172   1.035  0.1709  0.2881  0.0517
 4604TIP3    H135447   2.712   1.206   0.950 -1.9368  1.8941  1.2618
 4604TIP3    H235448   2.834   1.182   1.036  0.1600  0.9439 -1.8092
 4605TIP3   OH235449   5.953   2.804   0.639 -0.0760 -0.4393 -0.4665
 4605TIP3    H135450   6.023   2.749   0.603 -1.7355 -2.2680 -1.1010
 4605TIP3    H235451   5.975   2.892   0.609  2.6600 -0.6761  0.5275
 4606TIP3   OH235452   5.180   1.549   2.003 -0.2779  0.4512  0.1913
 4606TIP3    H135453   5.123   1.585   1.935  0.8140  0.5051 -0.7388
 4606TIP3    H235454   5.220   1.472   1.962  1.2832  1.1465  0.3322
 4607TIP3   OH235455   1.910   1.501   1.349 -0.2492  0.4484  0.1873
 4607TIP3    H135456   1.918   1.521   1.442  0.7445 -1.2317  0.5251
 4607TIP3    H235457   1.852   1.425   1.346 -0.2294  0.4553 -0.5539
 4608TIP3   OH235458   2.227   0.898   0.773  0.6650 -0.1494  0.5403
 4608TIP3    H135459   2.245   0.977   0.723  2.1539 -1.1321 -0.5896
 4608TIP3    H235460   2.265   0.915   0.859  0.9881  0.3741  0.3014
 4609TIP3   OH235461   0.624   6.426   3.091 -0.1509  0.1505  0.4097
 4609TIP3    H135462   0.642   6.513   3.127 -0.6054  1.0034 -1.2854
 4609TIP3    H235463   0.551   6.393   3.143  0.2700  0.6159  1.3155
 4610TIP3   OH235464   0.493   1.386   0.398  0.6410  0.2293 -0.3415
 4610TIP3    H135465   0.486   1.360   0.306 -1.3049  0.0796 -0.1828
 4610TIP3    H235466   0.424   1.337   0.442  1.5895  0.2640  1.2275
 4611TIP3   OH235467   2.640   5.185   7.699  0.0587  0.1667 -0.2796
 4611TIP3    H135468   2.653   5.270   7.658  2.2382 -0.4285 -0.9279
 4611TIP3    H235469   2.704   5.183   7.770 -0.2445 -0.7861 -0.0203
 4612TIP3   OH235470   5.178   6.733   0.499  0.5636 -0.4714 -0.0480
 4612TIP3    H135471   5.163   6.756   0.591  2.7665  0.6987  0.1040
 4612TIP3    H235472   5.271   6.752   0.485 -0.0151  0.7469 -2.8932
 4613TIP3   OH235473   0.387   2.661   8.516  0.0733  0.1448 -0.0309
 4613TIP3    H135474   0.350   2.700   8.437  1.6448 -1.1274 -1.4581
 4613TIP3    H235475   0.461   2.717   8.539 -1.1035  1.2324  1.3475
 4614TIP3   OH235476   1.950   6.724   0.221  0.8717  0.2715 -0.1677
 4614TIP3    H135477   2.044   6.725   0.239  0.9085  0.3564 -0.3629
 4614TIP3    H235478   1.935   6.803   0.168  0.5243  0.8089  0.7034
 4615TIP3   OH235479   0.540   1.827   0.181  0.5858  0.7612  0.4877
 4615TIP3    H135480   0.629   1.796   0.166 -0.0570 -0.6019 -0.6819
 4615TIP3    H235481   0.520   1.800   0.270  1.9545  2.7265  1.4731
 4616TIP3   OH235482   2.364   0.881   2.110  0.5496 -0.2807 -0.0833
 4616TIP3    H135483   2.305   0.827   2.058  0.6024  0.6907 -1.2029
 4616TIP3    H235484   2.334   0.971   2.094  0.1676  0.0154  2.0862
 4617TIP3   OH235485   0.187   4.939   8.671  0.2310 -0.5283 -0.7308
 4617TIP3    H135486   0.278   4.912   8.663  0.2486 -0.4873 -0.6612
 4617TIP3    H235487   0.178   4.971   8.760 -0.7968 -4.0829  0.6338
 4618TIP3   OH235488   5.789   0.264   2.120  0.4825  0.1268  0.4743
 4618TIP3    H135489   5.737   0.330   2.166  1.5838  0.6613  0.9776
 4618TIP3    H235490   5.865   0.311   2.087  0.5139 -0.5895 -0.5066
 4619TIP3   OH235491   6.421   2.823   0.479 -0.1329  0.4426 -0.4055
 4619TIP3    H135492   6.374   2.820   0.562 -0.7806  0.4419 -0.7622
 4619TIP3    H235493   6.424   2.732   0.449 -1.1177  0.6054 -1.0377
 4620TIP3   OH235494   0.827   0.610   0.674  0.6392 -0.0828  0.9541
 4620TIP3    H135495   0.896   0.625   0.609  0.1351 -1.6393 -0.0196
 4620TIP3    H235496   0.820   0.514   0.678 -1.8602  0.0169  0.5377
 4621TIP3   OH235497   2.299   3.654   0.899 -0.1815 -0.2174  0.5275
 4621TIP3    H135498   2.204   3.660   0.901 -0.2838 -0.4158 -1.3798
 4621TIP3    H235499   2.327   3.727   0.844  0.5103 -1.6420 -1.1382
 4622TIP3   OH235500   3.771   4.993   1.419 -0.5342 -0.5292  0.3258
 4622TIP3    H135501   3.763   4.994   1.514  0.7925 -0.7212  0.4612
 4622TIP3    H235502   3.858   5.029   1.402 -0.1911 -1.7831 -0.7260
 4623TIP3   OH235503   3.485   6.391   7.884  0.0111 -0.3312  0.3168
 4623TIP3    H135504   3.533   6.472   7.896 -1.0457  0.4934 -0.8006
 4623TIP3    H235505   3.552   6.322   7.889  1.6456  0.8421 -2.6160
 4624TIP3   OH235506   1.468   6.462   0.590  0.0566  0.3656  0.7361
 4624TIP3    H135507   1.503   6.524   0.655  2.1200  0.9273 -0.8193
 4624TIP3    H235508   1.497   6.497   0.506 -1.5066 -1.0173 -0.4190
 4625TIP3   OH235509   4.609   3.434   2.182  0.3307 -0.1130  0.7390
 4625TIP3    H135510   4.532   3.487   2.201 -1.5504 -1.1862 -3.0098
 4625TIP3    H235511   4.683   3.493   2.195 -1.3689  2.1322  0.7413
 4626TIP3   OH235512   3.400   5.875   7.695  0.0600  0.1367 -0.2416
 4626TIP3    H135513   3.465   5.926   7.744  1.3895 -0.8344 -0.9452
 4626TIP3    H235514   3.329   5.938   7.678  1.1306  1.4434 -0.0819
 4627TIP3   OH235515   2.155   0.548   8.821 -0.6009 -0.2249 -0.2331
 4627TIP3    H135516   2.126   0.553   8.730  0.8708  1.1583 -0.6756
 4627TIP3    H235517   2.146   0.637   8.854  0.7451 -0.2833  0.3579
 4628TIP3   OH235518   2.237   1.885   2.709  0.0189 -0.0113 -0.1634
 4628TIP3    H135519   2.328   1.891   2.680  0.2409  2.3853  0.8073
 4628TIP3    H235520   2.231   1.799   2.751  1.8037 -0.2479 -0.3017
 4629TIP3   OH235521   4.877   0.716   0.912  0.1501  0.0753  0.9652
 4629TIP3    H135522   4.904   0.742   0.824  2.1085 -0.0555  1.4741
 4629TIP3    H235523   4.816   0.783   0.940  0.7690  1.0125  0.1195
 4630TIP3   OH235524   4.994   3.464   1.280  0.3234 -0.0552  0.0680
 4630TIP3    H135525   4.969   3.537   1.224 -0.5422 -0.8041 -0.5550
 4630TIP3    H235526   4.912   3.416   1.294  0.8986 -0.9688  0.3667
 4631TIP3   OH235527   1.842   0.673   3.423  0.7484 -0.1707  0.2412
 4631TIP3    H135528   1.834   0.594   3.477 -1.5125  0.0463  0.3027
 4631TIP3    H235529   1.871   0.741   3.484 -1.0499 -0.1008  1.0695
 4632TIP3   OH235530   1.053   2.310   0.703  0.4292  0.6523 -0.1815
 4632TIP3    H135531   1.104   2.279   0.628  1.2745  0.0025  0.6297
 4632TIP3    H235532   1.029   2.230   0.751  1.0466  1.1158  0.9404
 4633TIP3   OH235533   2.132   1.745   0.330  0.0412 -0.1684  0.1782
 4633TIP3    H135534   2.073   1.694   0.274  0.8816 -0.6462 -0.2817
 4633TIP3    H235535   2.156   1.685   0.400  0.1023 -0.0167  0.2874
 4634TIP3   OH235536   0.115   0.305   7.658  0.1295  0.2148 -0.1511
 4634TIP3    H135537   0.132   0.321   7.566 -1.7213 -2.8495 -1.1850
 4634TIP3    H235538   0.165   0.372   7.704  2.4454  0.8549 -3.2845
 4635TIP3   OH235539   5.694   6.327   3.052  0.1257 -0.5170  0.2636
 4635TIP3    H135540   5.771   6.364   3.095  0.3507 -1.7474  0.9686
 4635TIP3    H235541   5.685   6.240   3.090 -1.2486 -0.6332 -0.2765
 4636TIP3   OH235542   3.092   5.510   8.799 -0.0190 -0.0684 -0.0183
 4636TIP3    H135543   3.113   5.603   8.808  0.1537 -0.0987 -0.1000
 4636TIP3    H235544   3.101   5.493   8.706 -0.9325  0.0403 -0.1404
 4637TIP3   OH235545   5.972   3.827   7.610 -0.2672  0.3068 -0.2115
 4637TIP3    H135546   6.008   3.759   7.552  0.6721  1.1472 -0.6414
 4637TIP3    H235547   5.879   3.832   7.586 -0.3558 -0.8003 -0.1851
 4638TIP3   OH235548   6.687   4.223   2.868 -0.1255 -0.3425 -0.4076
 4638TIP3    H135549   6.724   4.255   2.951 -0.4799  1.3255 -0.8712
 4638TIP3    H235550   6.644   4.299   2.830  0.3282 -0.9921 -2.3047
 4639TIP3   OH235551   1.887   6.136   0.501 -0.1788  0.0739 -0.2359
 4639TIP3    H135552   1.858   6.047   0.518  0.5256 -0.4234 -1.4749
 4639TIP3    H235553   1.980   6.136   0.525 -0.0509  0.3285 -0.7112
 4640TIP3   OH235554   4.416   2.247   0.698 -0.2410 -0.0256 -0.2379
 4640TIP3    H135555   4.401   2.219   0.789 -2.0113  1.2238 -0.0868
 4640TIP3    H235556   4.339   2.217   0.651  0.0268  0.5185 -1.0383
 4641TIP3   OH235557   5.810   2.591   0.724 -0.6032  0.4087 -0.6110
 4641TIP3    H135558   5.719   2.598   0.696 -0.3650  0.4939 -1.4003
 4641TIP3    H235559   5.853   2.668   0.687 -0.3144  0.6647  0.2213
 4642TIP3   OH235560   1.494   4.575   0.219 -0.0288  0.5790 -0.0704
 4642TIP3    H135561   1.503   4.659   0.175  0.7608  0.6880  0.2840
 4642TIP3    H235562   1.468   4.598   0.308 -0.4323  0.4115 -0.1407
 4643TIP3   OH235563   0.573   1.599   0.717 -0.0635 -0.0786  0.3043
 4643TIP3    H135564   0.618   1.597   0.633 -0.8465 -2.5377 -0.1375
 4643TIP3    H235565   0.611   1.674   0.763  0.9787  0.8213 -1.8885
 4644TIP3   OH235566   5.796   6.700   8.576  0.0816  0.4891 -0.1311
 4644TIP3    H135567   5.798   6.744   8.491  0.1394 -2.0937 -1.5513
 4644TIP3    H235568   5.707   6.714   8.608 -0.7313 -0.5255 -1.7926
 4645TIP3   OH235569   0.945   5.897   1.791 -0.1919 -0.4704  0.2788
 4645TIP3    H135570   0.957   5.924   1.882  1.3057 -0.9218  0.2480
 4645TIP3    H235571   0.973   5.806   1.789  0.0009 -0.4003 -0.6805
 4646TIP3   OH235572   4.659   0.304   7.807 -0.3682  0.5341  0.2712
 4646TIP3    H135573   4.611   0.384   7.785  0.5674  0.8260 -0.7736
 4646TIP3    H235574   4.751   0.332   7.814 -0.0655 -0.4010  0.1789
 4647TIP3   OH235575   2.682   2.151   2.546 -0.1483 -0.1762  0.0173
 4647TIP3    H135576   2.722   2.181   2.628 -0.2997 -0.6714  0.2774
 4647TIP3    H235577   2.644   2.230   2.508  1.2545  0.3545 -0.3486
 4648TIP3   OH235578   5.264   2.327   1.564 -0.0204  0.2469  0.4826
 4648TIP3    H135579   5.206   2.402   1.578 -1.4077 -0.8373  0.8205
 4648TIP3    H235580   5.342   2.346   1.616 -0.4739  1.3237  0.7874
 4649TIP3   OH235581   2.136   3.179   0.774 -0.3364 -0.1552 -0.1720
 4649TIP3    H135582   2.201   3.132   0.723  1.0864  1.6949 -0.1863
 4649TIP3    H235583   2.083   3.111   0.816  0.3748 -1.7033 -1.6905
 4650TIP3   OH235584   0.133   6.395   2.572 -0.2081  0.2300 -0.1256
 4650TIP3    H135585   0.201   6.449   2.612 -1.1763  0.9591  0.5905
 4650TIP3    H235586   0.146   6.405   2.478  1.7198 -1.0129 -0.0391
 4651TIP3   OH235587   3.692   5.460   7.759  0.9128 -0.0302  0.1159
 4651TIP3    H135588   3.634   5.487   7.688  0.9419 -0.7736 -0.1974
 4651TIP3    H235589   3.634   5.446   7.834  0.9866  1.6600  0.5212
 4652TIP3   OH235590   3.087   0.985   8.305 -0.4455 -0.4945 -0.1197
 4652TIP3    H135591   3.072   1.032   8.386 -1.0532 -0.0380 -0.4907
 4652TIP3    H235592   3.160   1.032   8.264 -1.7621  0.8716 -1.0187
 4653TIP3   OH235593   5.164   6.607   2.362 -0.4708 -0.9194 -0.2893
 4653TIP3    H135594   5.109   6.551   2.417  0.2733 -1.6180 -0.2475
 4653TIP3    H235595   5.196   6.675   2.421  0.3468 -1.6812  0.1551
 4654TIP3   OH235596   5.402   5.742   3.349  0.2970  0.0175  0.2043
 4654TIP3    H135597   5.364   5.738   3.437  1.0998 -1.6080  0.5308
 4654TIP3    H235598   5.357   5.814   3.306 -1.6072 -0.4970  1.2455
 4655TIP3   OH235599   2.569   0.642   8.271  0.7479  0.6842 -0.2963
 4655TIP3    H135600   2.621   0.719   8.296 -0.7330  0.7921  2.9079
 4655TIP3    H235601   2.616   0.568   8.308 -0.7826  0.7043  1.8768
 4656TIP3   OH235602   1.257   4.232   3.141  0.9098 -0.3892  0.1462
 4656TIP3    H135603   1.346   4.209   3.168  0.0627 -1.8533  1.9492
 4656TIP3    H235604   1.219   4.275   3.218  0.1371  0.4639 -0.6932
 4657TIP3   OH235605   3.946   5.960   1.043  0.2880 -0.3856  0.0168
 4657TIP3    H135606   4.002   6.025   1.001 -0.3180  0.5599  0.6460
 4657TIP3    H235607   3.857   5.989   1.026  0.0162 -0.0261  1.8281
 4658TIP3   OH235608   3.050   3.273   7.386  0.1247 -0.5258 -0.5819
 4658TIP3    H135609   3.071   3.241   7.473  0.6554 -0.2366 -0.6020
 4658TIP3    H235610   3.049   3.194   7.331 -0.2975 -0.7187 -0.3052
 4659TIP3   OH235611   5.635   1.334   0.057 -0.3661  0.1295 -0.4997
 4659TIP3    H135612   5.542   1.357   0.046 -0.9281 -1.3071  0.9364
 4659TIP3    H235613   5.670   1.404   0.111 -0.8109  0.2472 -0.3552
 4660TIP3   OH235614   0.730   5.724   0.229  0.2344  0.1548  0.6623
 4660TIP3    H135615   0.732   5.759   0.318 -0.3941 -0.1321  0.7937
 4660TIP3    H235616   0.770   5.637   0.236  1.9786  0.8852  0.3003
 4661TIP3   OH235617   1.239   5.888   2.916 -0.0930 -0.4955  0.3414
 4661TIP3    H135618   1.284   5.926   2.840 -1.0250  0.8955  0.4480
 4661TIP3    H235619   1.285   5.924   2.992  0.1691 -1.0418  0.4434
 4662TIP3   OH235620   4.150   3.794   2.154 -0.5143 -0.0813  0.1492
 4662TIP3    H135621   4.056   3.788   2.168 -0.9043 -0.3895 -2.2952
 4662TIP3    H235622   4.166   3.750   2.071  1.4771  1.9330 -0.6536
 4663TIP3   OH235623   1.431   2.574   8.453  0.5175 -0.4330  0.6101
 4663TIP3    H135624   1.391   2.632   8.388  1.9110 -0.4533 -0.3106
 4663TIP3    H235625   1.369   2.574   8.526 -1.0327 -0.2764 -0.6341
 4664TIP3   OH235626   0.271   6.551   1.697  0.0041  0.2804  0.1690
 4664TIP3    H135627   0.239   6.463   1.675  0.2868  0.1325  0.3398
 4664TIP3    H235628   0.205   6.610   1.661 -0.9982 -0.0433  1.3590
 4665TIP3   OH235629   4.202   2.917   1.955  0.5772 -0.2675 -0.0718
 4665TIP3    H135630   4.199   2.899   1.861 -1.0340 -0.1349 -0.0796
 4665TIP3    H235631   4.255   2.996   1.963  0.8179 -0.3394 -0.8572
 4666TIP3   OH235632   1.081   2.484   1.969 -0.4126  0.1519  0.1552
 4666TIP3    H135633   1.150   2.468   2.034 -0.4876 -1.7273 -0.1747
 4666TIP3    H235634   1.117   2.552   1.913  0.8068 -0.1362  0.5476
 4667TIP3   OH235635   4.614   5.414   3.061  0.7028 -0.0404 -0.1853
 4667TIP3    H135636   4.561   5.463   3.124  0.0468 -0.8041 -0.1342
 4667TIP3    H235637   4.701   5.455   3.066  0.5779  0.1219  0.9769
 4668TIP3   OH235638   1.916   6.749   1.427  0.1223 -0.1953  0.8616
 4668TIP3    H135639   1.968   6.694   1.486 -0.8431 -1.5622  0.5012
 4668TIP3    H235640   1.971   6.758   1.349  1.3063  1.4253  1.8157
 4669TIP3   OH235641   3.028   1.202   1.094  0.5385  0.1225  0.3184
 4669TIP3    H135642   3.097   1.136   1.095  2.4471  1.9864  2.1281
 4669TIP3    H235643   2.983   1.193   1.178 -1.5133 -1.0659 -0.8386
 4670TIP3   OH235644   2.500   3.018   0.188  0.0455  0.3017  0.5325
 4670TIP3    H135645   2.418   3.051   0.150 -0.2737 -2.1885 -1.2497
 4670TIP3    H235646   2.555   3.095   0.199 -1.6120  1.7277 -0.6868
 4671TIP3   OH235647   2.728   0.847   1.787 -0.0869 -0.1467  0.0894
 4671TIP3    H135648   2.709   0.754   1.798 -0.2077 -0.0243  0.9801
 4671TIP3    H235649   2.692   0.888   1.865 -1.7710  0.9265 -1.1845
 4672TIP3   OH235650   5.109   0.586   7.584  0.7570  0.1115 -0.1569
 4672TIP3    H135651   5.016   0.598   7.563  0.9595  2.4457 -0.0198
 4672TIP3    H235652   5.154   0.597   7.500  0.9900  0.2735 -0.0115
 4673TIP3   OH235653   5.977   4.629   1.579  0.6279  0.6490 -0.7802
 4673TIP3    H135654   5.989   4.539   1.611 -0.8266  0.5681 -0.3819
 4673TIP3    H235655   5.998   4.623   1.485 -0.2055 -0.2967 -0.9293
 4674TIP3   OH235656   3.593   6.170   0.122 -0.9066 -0.6590  0.3050
 4674TIP3    H135657   3.570   6.232   0.191 -0.9833 -0.5197  0.1542
 4674TIP3    H235658   3.685   6.187   0.104 -1.0370 -0.2900 -0.0383
 4675TIP3   OH235659   5.668   0.320   2.616 -0.2178  0.4169 -0.7388
 4675TIP3    H135660   5.624   0.239   2.592 -0.6373  0.7585 -1.1412
 4675TIP3    H235661   5.598   0.377   2.649 -0.0562  0.8980 -1.2121
 4676TIP3   OH235662   6.457   0.265   7.537  0.0618  0.5761 -0.1718
 4676TIP3    H135663   6.534   0.213   7.517  1.1364  1.9023  0.3507
 4676TIP3    H235664   6.390   0.235   7.475 -0.3058 -3.3080  1.7724
 4677TIP3   OH235665   3.045   1.019   7.224  0.4996 -0.2571 -0.1392
 4677TIP3    H135666   3.037   1.112   7.203  1.4057 -0.2420 -0.4445
 4677TIP3    H235667   2.957   0.993   7.249  0.2132  0.6614 -0.1463
 4678TIP3   OH235668   3.784   2.717   8.756  0.4030 -0.0955 -0.0868
 4678TIP3    H135669   3.769   2.809   8.738 -2.9214 -0.6172 -0.7109
 4678TIP3    H235670   3.833   2.716   8.839 -2.0488  2.2531  1.5505
 4679TIP3   OH235671   6.722   0.065   3.329 -0.3476  0.0187 -0.0946
 4679TIP3    H135672   6.655   0.102   3.387 -0.3789  0.0523 -0.1521
 4679TIP3    H235673   6.677  -0.008   3.286  0.4507 -1.8327  1.9860
 4680TIP3   OH235674   3.204   2.768   0.299  0.6164 -0.0457  0.0151
 4680TIP3    H135675   3.200   2.797   0.208  0.3186 -0.9066 -0.2618
 4680TIP3    H235676   3.185   2.674   0.295 -0.4411  0.0966  1.0712
 4681TIP3   OH235677   2.356   2.765   7.791 -0.0729 -0.0882  0.1901
 4681TIP3    H135678   2.357   2.670   7.779  0.7290 -0.1854  0.9154
 4681TIP3    H235679   2.413   2.798   7.721  0.3565 -0.2271  0.4637
 4682TIP3   OH235680   0.459   1.442   8.656  0.0062 -0.0878  0.4362
 4682TIP3    H135681   0.532   1.420   8.599 -0.0358 -1.2319  0.7965
 4682TIP3    H235682   0.410   1.360   8.666 -1.2350  0.6120  0.3454
 4683TIP3   OH235683   4.071   3.335   1.837 -0.7406  1.0372 -0.2119
 4683TIP3    H135684   4.030   3.249   1.849 -0.0826  0.7644  0.1201
 4683TIP3    H235685   4.073   3.347   1.742  0.4660  0.0317 -0.3376
 4684TIP3   OH235686   1.291   3.921   8.260 -0.1986  0.3413  0.0140
 4684TIP3    H135687   1.386   3.911   8.263 -0.2175  0.3155  0.5821
 4684TIP3    H235688   1.258   3.871   8.334 -0.6937 -0.0035 -0.4254
 4685TIP3   OH235689   5.005   3.041   7.363  0.2731 -0.0570 -0.4678
 4685TIP3    H135690   4.915   3.064   7.386  0.2362 -1.2098  0.6460
 4685TIP3    H235691   5.007   2.945   7.365  1.8553 -0.0458  0.9049
 4686TIP3   OH235692   4.895   4.469   2.465 -0.4518 -0.5025  0.3652
 4686TIP3    H135693   4.909   4.415   2.387 -3.8202 -0.3473 -0.5160
 4686TIP3    H235694   4.819   4.523   2.443  0.0776  1.4456  2.8542
 4687TIP3   OH235695   2.782   1.792   7.505  0.0863 -0.3064  0.1981
 4687TIP3    H135696   2.695   1.787   7.465  0.6417  0.1078 -1.0989
 4687TIP3    H235697   2.787   1.882   7.538 -0.0930 -0.4296  0.5707
 4688TIP3   OH235698   3.550   6.173   8.071  0.1088  0.2344  0.4088
 4688TIP3    H135699   3.612   6.245   8.074 -0.0119  0.3403  0.3830
 4688TIP3    H235700   3.479   6.200   8.129  1.0308 -0.7869  2.0898
 4689TIP3   OH235701   2.853   6.633   1.123 -0.3795 -0.0450  0.4274
 4689TIP3    H135702   2.792   6.579   1.072  0.8270 -1.0225 -0.0281
 4689TIP3    H235703   2.814   6.637   1.210 -0.9809 -0.8450  0.2134
 4690TIP3   OH235704   5.818   4.101   2.227  0.0398  0.1524 -0.1060
 4690TIP3    H135705   5.812   4.038   2.299 -2.0393  1.1900  0.6758
 4690TIP3    H235706   5.912   4.112   2.214  0.5167  0.3164  2.8054
 4691TIP3   OH235707   0.867   4.844   3.498  0.4349  0.0311  0.3406
 4691TIP3    H135708   0.825   4.812   3.418 -1.7337  2.8428  0.2237
 4691TIP3    H235709   0.795   4.856   3.560  1.3973  2.4335  1.0963
 4692TIP3   OH235710   4.005   5.100   2.599 -0.4745 -0.7009  0.0122
 4692TIP3    H135711   4.047   5.016   2.582  1.5203  0.6033 -2.1900
 4692TIP3    H235712   4.077   5.163   2.600 -1.9962  1.1206  0.5279
 4693TIP3   OH235713   3.649   1.706   2.330  0.4824 -0.0835  0.3125
 4693TIP3    H135714   3.629   1.780   2.387 -0.1457 -1.0183  1.3539
 4693TIP3    H235715   3.742   1.690   2.344  0.2333 -0.6121  1.4856
 4694TIP3   OH235716   3.040   0.858   0.440  0.3838  0.0220  0.5354
 4694TIP3    H135717   3.118   0.862   0.385 -0.4689 -0.4845 -0.7436
 4694TIP3    H235718   3.012   0.949   0.448  0.8913  0.1673  0.6935
 4695TIP3   OH235719   4.355   1.833   7.658 -0.3725  0.2138  0.5570
 4695TIP3    H135720   4.298   1.908   7.637  1.6099  1.5676 -0.2795
 4695TIP3    H235721   4.341   1.772   7.586 -0.0150  1.0037 -0.1996
 4696TIP3   OH235722   4.161   1.767   1.334 -1.0108  0.0993  0.1061
 4696TIP3    H135723   4.151   1.672   1.333 -0.2613 -0.0171  1.4054
 4696TIP3    H235724   4.236   1.784   1.278 -0.0189 -0.2626  1.2816
 4697TIP3   OH235725   1.650   1.954   1.614 -0.4318  0.0401  0.4670
 4697TIP3    H135726   1.663   1.862   1.591 -0.4348 -0.0365  0.7603
 4697TIP3    H235727   1.632   1.952   1.708  1.9837  0.5505  1.0075
 4698TIP3   OH235728   4.471   4.568   2.120  0.0771 -0.0829  0.4645
 4698TIP3    H135729   4.454   4.474   2.123  0.3737 -0.1450  0.2534
 4698TIP3    H235730   4.388   4.608   2.143 -0.1244 -0.3957  0.2946
 4699TIP3   OH235731   2.833   4.333   2.156 -0.1387 -0.4595  0.0603
 4699TIP3    H135732   2.768   4.384   2.204  0.6250  0.0058  0.6321
 4699TIP3    H235733   2.893   4.301   2.223 -0.4458 -1.9092 -0.3170
 4700TIP3   OH235734   0.903   0.344   0.731 -0.1690 -0.1716 -0.0910
 4700TIP3    H135735   0.996   0.318   0.734  0.3239  1.4944 -0.1699
 4700TIP3    H235736   0.863   0.297   0.804  1.1952  0.6913  1.2712
 4701TIP3   OH235737   4.237   0.413   1.367  0.5335 -0.2888  0.5850
 4701TIP3    H135738   4.217   0.480   1.302  0.2008 -0.9298  0.0057
 4701TIP3    H235739   4.278   0.342   1.317 -0.1569 -0.9909  0.9768
 4702TIP3   OH235740   1.815   2.776   1.627 -0.5613 -0.2345 -0.2933
 4702TIP3    H135741   1.882   2.710   1.608 -0.9274 -0.5679 -0.4472
 4702TIP3    H235742   1.759   2.776   1.549  0.4888  1.5825 -1.1114
 4703TIP3   OH235743   3.694   1.941   7.171 -0.6432 -0.1301 -0.5598
 4703TIP3    H135744   3.712   1.874   7.237 -0.6543  0.1971 -0.2198
 4703TIP3    H235745   3.603   1.927   7.146 -0.9077  0.2877  0.1340
 4704TIP3   OH235746   6.067   5.593   0.171 -0.0044  0.0021  0.2268
 4704TIP3    H135747   6.012   5.564   0.243 -0.3616 -1.0118 -0.4321
 4704TIP3    H235748   6.041   5.538   0.097 -0.1847  1.5270 -0.8848
 4705TIP3   OH235749   4.825   0.759   7.885  0.1847  0.1195 -0.3387
 4705TIP3    H135750   4.831   0.847   7.848  1.2975  0.6989  1.1068
 4705TIP3    H235751   4.751   0.763   7.947  0.1988  0.0288 -0.3151
 4706TIP3   OH235752   3.391   1.286   8.509  0.1178  0.4796  0.6367
 4706TIP3    H135753   3.363   1.354   8.448  0.8223 -0.5134 -0.8324
 4706TIP3    H235754   3.483   1.306   8.528 -0.3463  1.3476  2.2065
 4707TIP3   OH235755   2.546   5.417   2.188  0.1037 -0.2860 -0.0068
 4707TIP3    H135756   2.521   5.361   2.261  3.9504  0.2244  1.9464
 4707TIP3    H235757   2.521   5.505   2.215 -0.2648 -0.3135 -0.2456
 4708TIP3   OH235758   3.731   3.938   7.591 -0.0920  0.4982  1.0590
 4708TIP3    H135759   3.645   3.896   7.597  0.1182  0.2594  2.9480
 4708TIP3    H235760   3.765   3.936   7.681  1.7687  0.8494  0.3997
 4709TIP3   OH235761   4.147   4.504   0.502  0.1092 -0.3906 -0.1417
 4709TIP3    H135762   4.088   4.576   0.525  0.9704  0.1500  0.4069
 4709TIP3    H235763   4.100   4.456   0.433  0.2033  1.6746 -1.7432
 4710TIP3   OH235764   3.911   4.136   8.573  0.2813 -0.0636  0.2909
 4710TIP3    H135765   3.827   4.124   8.617  1.5332  0.2154  2.9165
 4710TIP3    H235766   3.888   4.155   8.482 -2.5381  0.9129  1.1181
 4711TIP3   OH235767   1.047   1.509   7.284  0.6529  0.3669  0.7088
 4711TIP3    H135768   1.068   1.578   7.347  0.9004  1.9402 -1.0250
 4711TIP3    H235769   0.966   1.538   7.242  0.3261 -0.8013  0.4758
 4712TIP3   OH235770   4.600   4.848   2.889  0.2568  0.0331 -0.2180
 4712TIP3    H135771   4.549   4.853   2.970  1.3125  0.8638  0.4158
 4712TIP3    H235772   4.677   4.902   2.906  0.8185 -0.3239 -1.5476
 4713TIP3   OH235773   0.333   5.075   1.950 -0.1124 -0.2087  0.1874
 4713TIP3    H135774   0.394   5.099   2.020 -0.3816  1.5078 -0.1383
 4713TIP3    H235775   0.257   5.040   1.996  0.5020 -0.9700  0.6538
 4714TIP3   OH235776   2.765   4.364   0.934  0.6840 -0.0287  0.5051
 4714TIP3    H135777   2.811   4.439   0.971  0.7362 -0.3757  1.1491
 4714TIP3    H235778   2.694   4.347   0.995  0.8545 -0.6937  0.5163
 4715TIP3   OH235779   1.844   0.076   1.083  0.0942 -0.5175  0.2588
 4715TIP3    H135780   1.862   0.043   0.995  1.9975 -0.8252  0.7030
 4715TIP3    H235781   1.776   0.018   1.117 -0.3387 -0.6709 -0.8512
 4716TIP3   OH235782   3.344   2.532   7.958 -0.3648  0.1476 -0.2356
 4716TIP3    H135783   3.358   2.446   7.997 -0.9696 -0.2776 -0.9283
 4716TIP3    H235784   3.263   2.563   7.997 -0.8651 -0.1926 -0.9683
 4717TIP3   OH235785   0.566   4.380   2.654 -0.5749  0.0323  0.0789
 4717TIP3    H135786   0.480   4.422   2.649 -1.6728 -2.0120  0.7297
 4717TIP3    H235787   0.568   4.319   2.581  1.0665  1.2336 -0.9615
 4718TIP3   OH235788   2.148   3.806   0.611  0.5053 -0.3591 -0.4971
 4718TIP3    H135789   2.058   3.840   0.619  0.9113  0.8395 -0.8201
 4718TIP3    H235790   2.138   3.711   0.613 -0.4401 -0.3589  3.6918
 4719TIP3   OH235791   0.289   6.243   8.138 -0.6347 -0.0812 -0.1035
 4719TIP3    H135792   0.275   6.156   8.100 -0.1160 -0.5086  0.6824
 4719TIP3    H235793   0.375   6.239   8.178 -0.4377  0.9276 -0.4042
 4720TIP3   OH235794   5.097   0.416   2.666  0.7337 -0.1801  0.6089
 4720TIP3    H135795   5.081   0.510   2.670 -0.6560 -0.3608  0.0201
 4720TIP3    H235796   5.052   0.381   2.743  2.7753 -0.2280  1.8730
 4721TIP3   OH235797   3.621   0.899   0.883  0.3582  0.5595 -0.0413
 4721TIP3    H135798   3.694   0.842   0.904 -0.1156  0.2456  0.8096
 4721TIP3    H235799   3.547   0.839   0.871 -0.0989  0.9721  0.6521
 4722TIP3   OH235800   4.747   5.295   8.821  0.0620 -0.2630 -0.2668
 4722TIP3    H135801   4.837   5.327   8.814  0.0132 -0.0132  0.1850
 4722TIP3    H235802   4.745   5.216   8.766  0.3323  0.1972 -0.9489
 4723TIP3   OH235803   1.706   3.362   1.170 -0.4116  0.1965  0.6155
 4723TIP3    H135804   1.783   3.350   1.226 -0.5972 -1.1043  0.6426
 4723TIP3    H235805   1.700   3.456   1.155  0.3082  0.4564  1.8515
 4724TIP3   OH235806   6.542   0.041   2.026 -0.1191  0.2664  0.2389
 4724TIP3    H135807   6.498   0.123   2.048  2.0719  1.7223 -0.4429
 4724TIP3    H235808   6.617   0.038   2.086  1.3388  0.1589 -1.5126
 4725TIP3   OH235809   3.070   0.677   8.322 -0.0550  0.2986 -0.0321
 4725TIP3    H135810   3.102   0.648   8.408 -0.7235 -0.6849 -0.1026
 4725TIP3    H235811   3.065   0.772   8.330 -0.2590  0.2145  1.0785
 4726TIP3   OH235812   3.972   5.443   1.712  0.0628 -0.2641  0.2817
 4726TIP3    H135813   4.008   5.476   1.630  1.4074 -0.0169  0.9261
 4726TIP3    H235814   4.025   5.487   1.780  0.2052 -1.8199  1.2216
 4727TIP3   OH235815   2.366   3.722   1.213  0.2853 -0.7640  0.8336
 4727TIP3    H135816   2.407   3.778   1.147  1.8815 -1.8293  0.8742
 4727TIP3    H235817   2.272   3.742   1.206  0.4204 -0.6355 -1.5846
 4728TIP3   OH235818   2.707   6.221   1.192 -0.1137  0.2821 -0.4843
 4728TIP3    H135819   2.724   6.260   1.106 -0.4535 -0.9425 -1.1305
 4728TIP3    H235820   2.746   6.134   1.187 -0.8632 -0.1181  0.3012
 4729TIP3   OH235821   4.797   6.244   1.022  0.3793 -0.4917  0.2094
 4729TIP3    H135822   4.871   6.237   1.082 -0.5321 -1.2552  1.3084
 4729TIP3    H235823   4.758   6.329   1.043  2.4296  1.1870 -2.2452
 4730TIP3   OH235824   6.091   3.745   3.199 -0.1841  0.1087 -0.5017
 4730TIP3    H135825   6.171   3.798   3.201  0.5895 -1.0515  0.6351
 4730TIP3    H235826   6.041   3.774   3.276 -0.2064 -0.1491 -0.4195
 4731TIP3   OH235827   3.445   2.460   2.164  0.0261 -0.9108  0.0084
 4731TIP3    H135828   3.406   2.377   2.188 -0.2552 -0.3425  1.6032
 4731TIP3    H235829   3.538   2.451   2.184  0.0722 -0.9794 -0.2293
 4732TIP3   OH235830   4.555   5.576   0.986 -0.5013 -0.3595  0.0008
 4732TIP3    H135831   4.588   5.546   0.901 -0.4329  3.0940 -1.3831
 4732TIP3    H235832   4.632   5.587   1.040 -0.0947  0.8515 -0.7824
 4733TIP3   OH235833   1.641   3.898   2.772  0.6531  0.1013 -0.1721
 4733TIP3    H135834   1.634   3.985   2.732  0.4866 -0.0149 -0.3967
 4733TIP3    H235835   1.608   3.910   2.861 -1.3263 -0.1762 -0.8372
 4734TIP3   OH235836   4.769   2.452   7.354  0.0516  0.0987  0.0672
 4734TIP3    H135837   4.736   2.366   7.328  0.9621 -0.3394  0.3162
 4734TIP3    H235838   4.846   2.433   7.408  1.0291  1.0843 -0.9139
 4735TIP3   OH235839   0.007   5.109   3.426 -0.1885 -0.0311  0.0935
 4735TIP3    H135840  -0.070   5.164   3.412 -1.7219 -1.5233  1.9766
 4735TIP3    H235841   0.030   5.124   3.518  0.9387 -0.6022 -0.0864
 4736TIP3   OH235842   4.933   3.405   0.275  0.4759 -0.1027  0.1369
 4736TIP3    H135843   4.958   3.330   0.329 -0.0859 -0.4885 -0.1346
 4736TIP3    H235844   4.840   3.417   0.293  0.3785  0.0176 -0.4496
 4737TIP3   OH235845   5.761   3.245   2.748  0.3120  0.6553 -0.0336
 4737TIP3    H135846   5.733   3.310   2.813  0.1843  0.6369 -0.0717
 4737TIP3    H235847   5.728   3.278   2.665 -0.0154  0.3825 -0.0100
 4738TIP3   OH235848   4.389   5.256   0.073 -0.0334 -0.3477 -0.1286
 4738TIP3    H135849   4.401   5.163   0.090  0.8815 -0.2897 -0.4132
 4738TIP3    H235850   4.353   5.260  -0.016 -0.9785 -0.4631  0.2375
 4739TIP3   OH235851   6.735   3.049   2.283 -0.0679  0.8409  0.1875
 4739TIP3    H135852   6.640   3.058   2.273 -0.0322  1.4964  0.3282
 4739TIP3    H235853   6.769   3.135   2.256  0.7529 -0.3144 -2.8397
 4740TIP3   OH235854   2.770   5.282   2.377 -0.1194  0.0165  0.1011
 4740TIP3    H135855   2.722   5.253   2.455 -0.6505  3.4821  1.2087
 4740TIP3    H235856   2.711   5.343   2.333  1.8120  1.5281 -0.5616
 4741TIP3   OH235857   0.296   5.012   7.412  0.0349  0.4306 -0.5387
 4741TIP3    H135858   0.233   5.033   7.342 -0.0923  0.7097 -0.3416
 4741TIP3    H235859   0.284   4.919   7.428  1.3490 -0.0716 -2.1747
 4742TIP3   OH235860   2.440   2.491   7.712  0.0971  0.4834  0.3479
 4742TIP3    H135861   2.385   2.432   7.661  1.1642  0.1443 -0.4596
 4742TIP3    H235862   2.523   2.495   7.663  2.4760 -2.4540  3.6559
 4743TIP3   OH235863   6.521   6.771   1.537  0.4227  0.5173 -0.3598
 4743TIP3    H135864   6.459   6.708   1.571  0.7629  0.8061  0.8214
 4743TIP3    H235865   6.468   6.830   1.482 -0.2989  0.6027  0.4134
 4744TIP3   OH235866   1.356   0.810   2.245  0.2793 -0.2158 -0.6429
 4744TIP3    H135867   1.440   0.816   2.290  1.2199 -0.9149 -2.2070
 4744TIP3    H235868   1.328   0.901   2.233  1.5281  0.1043 -1.3381
 4745TIP3   OH235869   1.668   5.437   1.407 -0.0995 -0.1344  0.7001
 4745TIP3    H135870   1.724   5.363   1.385  1.3687  0.4548  2.2781
 4745TIP3    H235871   1.590   5.425   1.353  2.2241 -0.0238 -3.0089
 4746TIP3   OH235872   4.791   3.332   2.521  0.4212 -0.1454 -0.6172
 4746TIP3    H135873   4.708   3.311   2.477 -0.6481  1.9871  0.2359
 4746TIP3    H235874   4.857   3.327   2.452 -0.3958 -1.8239 -1.3329
 4747TIP3   OH235875   6.558   2.909   1.048 -0.3365  0.3040 -0.1481
 4747TIP3    H135876   6.484   2.880   1.101 -0.0567 -1.3924 -0.6282
 4747TIP3    H235877   6.593   2.984   1.095 -0.5072 -0.7291  1.7058
 4748TIP3   OH235878   0.047   2.244   0.499  0.0198  0.0660 -0.4693
 4748TIP3    H135879   0.010   2.196   0.425  1.2315  0.7217 -1.5271
 4748TIP3    H235880   0.112   2.303   0.460  1.6364 -0.5007  1.2273
 4749TIP3   OH235881   3.187   2.110   8.362 -0.0078 -0.1730 -0.4550
 4749TIP3    H135882   3.191   2.086   8.270 -0.0771  0.6194 -0.6740
 4749TIP3    H235883   3.170   2.028   8.408  1.5202 -0.8190 -1.0085
 4750TIP3   OH235884   4.145   4.342   8.315 -0.3899 -0.1577  0.1983
 4750TIP3    H135885   4.216   4.380   8.264 -0.5103 -0.8771 -0.5243
 4750TIP3    H235886   4.186   4.310   8.395  0.1544 -0.8675 -0.3646
 4751TIP3   OH235887   2.155   2.856   0.679 -0.5463 -0.6527 -0.3868
 4751TIP3    H135888   2.078   2.877   0.627 -0.7440 -2.8686 -1.1101
 4751TIP3    H235889   2.120   2.816   0.759 -0.1636 -0.4701 -0.1209
 4752TIP3   OH235890   6.249   6.028   3.172 -0.3647  0.4027  0.0022
 4752TIP3    H135891   6.310   6.074   3.229  0.5133  1.4617 -1.7022
 4752TIP3    H235892   6.288   5.942   3.160 -1.1228 -0.2348  1.8267
 4753TIP3   OH235893   1.646   4.637   0.470  0.0856 -0.8510 -0.7637
 4753TIP3    H135894   1.715   4.573   0.453  1.4396  0.3631 -0.0655
 4753TIP3    H235895   1.569   4.584   0.491  0.9684 -2.2504 -0.9177
 4754TIP3   OH235896   1.517   5.816   7.398 -0.1936 -0.0377 -0.0478
 4754TIP3    H135897   1.489   5.776   7.315  0.5108 -0.4410 -0.0933
 4754TIP3    H235898   1.610   5.832   7.387 -0.1739  0.2754  0.5270
 4755TIP3   OH235899   2.252   0.113   1.545 -0.2532 -0.1678  0.5073
 4755TIP3    H135900   2.224   0.202   1.566  1.2356  0.0880  1.5410
 4755TIP3    H235901   2.190   0.056   1.592 -1.2104  0.2861 -0.1585
 4756TIP3   OH235902   5.605   0.275   1.543 -0.1167  0.2870  0.7609
 4756TIP3    H135903   5.559   0.352   1.575 -0.8797 -0.1385  0.7053
 4756TIP3    H235904   5.658   0.247   1.618 -1.8135 -0.6458  1.6780
 4757TIP3   OH235905   5.075   2.842   8.643 -0.1662 -0.2945  0.5040
 4757TIP3    H135906   5.081   2.923   8.593  0.6277 -0.4998  0.2342
 4757TIP3    H235907   5.162   2.802   8.633 -0.7389 -1.4945  0.0787
 4758TIP3   OH235908   0.634   6.448   2.517  0.1974 -0.1362  0.3505
 4758TIP3    H135909   0.616   6.438   2.611 -1.2712 -0.1014  0.0911
 4758TIP3    H235910   0.638   6.543   2.504  0.3481 -0.1402  0.3678
 4759TIP3   OH235911   6.182   6.292   8.159  0.0992 -0.2732 -0.3290
 4759TIP3    H135912   6.119   6.310   8.228  1.3725  0.2921  0.7419
 4759TIP3    H235913   6.146   6.334   8.081 -0.4205  0.7874  0.4661
 4760TIP3   OH235914   2.615   2.015   1.881  0.2374  0.2271  0.8745
 4760TIP3    H135915   2.673   1.968   1.821 -0.1080  2.0201 -1.0080
 4760TIP3    H235916   2.589   1.950   1.945  2.3743 -1.2530  0.3584
 4761TIP3   OH235917   5.009   0.004   1.146  0.1668  0.3314 -0.3421
 4761TIP3    H135918   5.021  -0.064   1.212 -1.8246 -0.0149 -0.2686
 4761TIP3    H235919   4.964  -0.040   1.074 -2.4617  1.7804  0.2712
 4762TIP3   OH235920   4.541   4.253   1.472 -0.7851  0.3613 -0.2749
 4762TIP3    H135921   4.599   4.185   1.438 -1.4917 -1.4998  1.9347
 4762TIP3    H235922   4.598   4.327   1.491  0.5767 -0.7430  0.0948
 4763TIP3   OH235923   1.062   0.955   7.847 -0.1411 -0.1417  0.2542
 4763TIP3    H135924   1.064   1.033   7.791  0.1227  0.4813  1.0981
 4763TIP3    H235925   1.120   0.893   7.804 -1.5363 -0.4686 -1.2492
 4764TIP3   OH235926   1.152   5.487   1.047  0.2252 -0.3236  0.5262
 4764TIP3    H135927   1.143   5.393   1.035 -0.4770 -0.1488 -0.4059
 4764TIP3    H235928   1.120   5.525   0.965 -0.4752  0.7589  1.2709
 4765TIP3   OH235929   1.959   2.920   0.150  0.5783  0.0593 -0.4819
 4765TIP3    H135930   1.968   2.857   0.221  1.5415 -0.8073 -1.3373
 4765TIP3    H235931   2.010   2.883   0.078 -0.3547  0.9138 -1.6326
 4766TIP3   OH235932   1.502   1.248   0.317 -0.2954  0.0867  0.2136
 4766TIP3    H135933   1.415   1.273   0.287 -0.1456  0.5550  0.1516
 4766TIP3    H235934   1.487   1.193   0.393 -0.6381  0.4108  0.3828
 4767TIP3   OH235935   4.286   0.668   2.615  0.3216 -0.4556  0.6506
 4767TIP3    H135936   4.192   0.649   2.614 -0.0727  1.3165  0.6317
 4767TIP3    H235937   4.312   0.655   2.706 -0.4806  1.2313  1.1733
 4768TIP3   OH235938   5.952   1.461   8.203 -0.6564  0.3663  0.0387
 4768TIP3    H135939   5.931   1.552   8.226 -0.5002  0.4872 -0.2802
 4768TIP3    H235940   6.027   1.439   8.258  0.7485  1.1992 -1.4670
 4769TIP3   OH235941   4.970   1.397   8.786 -0.1725  0.3847 -0.7039
 4769TIP3    H135942   5.064   1.390   8.804 -0.5573 -1.2513  0.8949
 4769TIP3    H235943   4.943   1.478   8.829 -0.0448 -0.7499  1.6213
 4770TIP3   OH235944   3.735   5.538   1.824  0.0759 -0.5041 -0.0664
 4770TIP3    H135945   3.730   5.444   1.841 -0.0118 -0.2457  1.4730
 4770TIP3    H235946   3.824   5.551   1.791  1.8510 -0.5760  4.0632
 4771TIP3   OH235947   3.350   0.435   1.547  0.2286  0.8445  0.4118
 4771TIP3    H135948   3.293   0.470   1.478  1.1086  1.9844  0.2237
 4771TIP3    H235949   3.303   0.359   1.580 -0.2762  0.3167 -1.3733
 4772TIP3   OH235950   5.358   2.406   2.658  0.2323 -0.2409 -0.3167
 4772TIP3    H135951   5.450   2.427   2.641  0.5073 -0.8818  0.3058
 4772TIP3    H235952   5.333   2.465   2.729  0.2342 -0.2379 -0.3185
 4773TIP3   OH235953   1.179   6.420   0.597 -0.3314  0.5652  0.2192
 4773TIP3    H135954   1.273   6.431   0.582 -0.3857  0.2965 -0.3266
 4773TIP3    H235955   1.140   6.502   0.568 -0.2261  0.8572  0.8741
 4774TIP3   OH235956   4.649   1.882   2.013  0.1194 -0.1241  0.4103
 4774TIP3    H135957   4.592   1.955   2.037 -0.9007 -0.7371 -0.0665
 4774TIP3    H235958   4.614   1.807   2.061  1.2391 -0.2913  1.0019
 4775TIP3   OH235959   1.855   5.868   1.113 -0.1038 -0.1509 -0.3615
 4775TIP3    H135960   1.927   5.806   1.125  1.4556  1.2973 -1.8527
 4775TIP3    H235961   1.776   5.813   1.117  1.1032 -1.9517  0.1719
 4776TIP3   OH235962   2.096   2.852   2.933  0.1386  0.1274  0.2550
 4776TIP3    H135963   2.101   2.845   3.029 -0.6107 -1.4617  0.2058
 4776TIP3    H235964   2.019   2.801   2.909  0.4325  0.3385 -1.2335
 4777TIP3   OH235965   0.012   5.697   1.619 -0.2065  0.0191 -0.0344
 4777TIP3    H135966  -0.074   5.671   1.585 -0.3784 -2.9120  2.2529
 4777TIP3    H235967   0.030   5.635   1.689  4.7659 -0.9546 -1.7484
 4778TIP3   OH235968   4.037   0.292   1.146  0.4378  0.0381 -0.0899
 4778TIP3    H135969   4.044   0.259   1.235  1.1292 -1.0237 -0.5161
 4778TIP3    H235970   3.977   0.231   1.103  1.0680 -0.1792 -0.6726
 4779TIP3   OH235971   6.820   4.793   3.395 -0.1300 -0.3530 -0.4877
 4779TIP3    H135972   6.776   4.873   3.364  0.1556 -1.1027 -3.0144
 4779TIP3    H235973   6.753   4.725   3.391  0.3633 -0.8164 -1.1556
 4780TIP3   OH235974   5.108   3.162   0.317  0.5248  0.1093  0.0390
 4780TIP3    H135975   5.161   3.167   0.237  0.3588  0.2960 -0.0610
 4780TIP3    H235976   5.167   3.188   0.387  0.2003  1.6529 -0.2326
 4781TIP3   OH235977   4.459   1.680   8.338  0.3678  0.1852 -0.2264
 4781TIP3    H135978   4.407   1.601   8.327 -1.3714  1.1518  0.5730
 4781TIP3    H235979   4.449   1.728   8.256 -1.8093  1.3345  0.6423
 4782TIP3   OH235980   2.450   5.226   2.384  0.0652 -0.7686 -0.2628
 4782TIP3    H135981   2.504   5.234   2.463  1.8112  0.7894 -1.5145
 4782TIP3    H235982   2.361   5.246   2.414  0.5585 -0.9318  1.4317
 4783TIP3   OH235983   5.475   1.717   0.537  0.1017  0.0436  0.3820
 4783TIP3    H135984   5.442   1.629   0.553 -0.0802 -0.3212 -1.6424
 4783TIP3    H235985   5.468   1.728   0.442 -0.6596  2.5678  0.6612
 4784TIP3   OH235986   4.177   3.596   0.092 -0.5639 -0.3533 -0.6825
 4784TIP3    H135987   4.098   3.647   0.075  0.4671  1.7184  0.4110
 4784TIP3    H235988   4.211   3.576   0.004 -0.1706  2.2739 -1.2257
 4785TIP3   OH235989   0.799   5.121   0.993 -0.5313  0.2380  0.0174
 4785TIP3    H135990   0.725   5.144   1.050 -1.9318  0.0532 -1.6335
 4785TIP3    H235991   0.775   5.035   0.958  0.0809  0.5363 -1.1554
 4786TIP3   OH235992   3.323   5.752   8.465 -0.1970  0.1880  0.4833
 4786TIP3    H135993   3.258   5.822   8.470 -0.2310  0.0563  3.5956
 4786TIP3    H235994   3.381   5.779   8.393 -2.5524  1.2375 -1.1636
 4787TIP3   OH235995   4.628   6.516   8.786  0.1999  0.1917  0.2576
 4787TIP3    H135996   4.686   6.582   8.824  0.2749  0.3310 -0.0976
 4787TIP3    H235997   4.575   6.564   8.722 -0.1510  0.0193  0.4137
 4788TIP3   OH235998   0.667   5.474   0.006 -0.0525 -0.2188  0.0753
 4788TIP3    H135999   0.747   5.517   0.037  0.7014 -0.9238 -0.8069
 4788TIP3    H236000   0.631   5.431   0.083  1.1351 -0.9601  0.2525
 4789TIP3   OH236001   0.110   4.419   2.437  0.3636 -0.0399 -0.2106
 4789TIP3    H136002   0.022   4.382   2.429  1.2116 -1.9843 -1.2435
 4789TIP3    H236003   0.169   4.344   2.424  2.1807  1.2514  0.1968
 4790TIP3   OH236004   1.113   3.662   3.225  0.1122  0.6000 -0.2116
 4790TIP3    H136005   1.140   3.582   3.179 -0.1534  0.0096  0.6335
 4790TIP3    H236006   1.171   3.730   3.190  2.0236 -0.4293  0.7831
 4791TIP3   OH236007   6.054   0.635   1.793  0.2637 -0.3398 -0.3508
 4791TIP3    H136008   6.144   0.668   1.796  0.2505 -0.1091 -1.8140
 4791TIP3    H236009   6.040   0.594   1.879  1.5750  0.0909  0.0850
 4792TIP3   OH236010   3.470   2.213   7.899 -0.1392 -0.1762  0.0816
 4792TIP3    H136011   3.545   2.175   7.945  0.9557  0.8690 -0.7747
 4792TIP3    H236012   3.394   2.173   7.941  0.8905 -1.4533  0.8137
 4793TIP3   OH236013   6.356   3.475   0.534  0.0114  0.5069  0.6671
 4793TIP3    H136014   6.441   3.458   0.494 -0.7713  0.8015 -1.2255
 4793TIP3    H236015   6.323   3.553   0.488 -1.8105 -0.3475  0.4347
 4794TIP3   OH236016   6.583   2.609   1.434 -0.5309 -0.0719 -0.4636
 4794TIP3    H136017   6.649   2.561   1.483 -0.1977  1.6749  0.9103
 4794TIP3    H236018   6.603   2.701   1.451 -3.1458  0.5314 -0.1713
 4795TIP3   OH236019   0.917   1.830   0.959  0.3698  0.4866  0.0436
 4795TIP3    H136020   0.909   1.891   0.886  1.2769 -1.8431 -2.1475
 4795TIP3    H236021   0.892   1.745   0.922 -2.0499 -0.4155  3.2370
 4796TIP3   OH236022   2.797   4.250   0.008  0.3205 -0.1542 -0.0853
 4796TIP3    H136023   2.717   4.214  -0.031  0.2998 -0.6227  0.3774
 4796TIP3    H236024   2.769   4.286   0.092  0.4550  0.3956 -0.2733
 4797TIP3   OH236025   2.478   5.830   1.109  0.0769 -0.2079 -0.2050
 4797TIP3    H136026   2.447   5.911   1.070  0.8093 -0.0359 -0.4364
 4797TIP3    H236027   2.398   5.786   1.139 -0.3002  0.7276  0.1877
 4798TIP3   OH236028   2.198   0.821   2.718 -0.2030 -0.4490  0.8712
 4798TIP3    H136029   2.219   0.911   2.743  2.0253 -0.5528 -0.4246
 4798TIP3    H236030   2.204   0.772   2.800  2.1042  0.0298  1.0628
 4799TIP3   OH236031   5.419   3.058   1.667 -0.0166  0.3881 -0.7391
 4799TIP3    H136032   5.469   3.051   1.586  0.6078 -0.6691 -0.2729
 4799TIP3    H236033   5.477   3.105   1.727 -0.1151  0.3514 -0.6136
 4800TIP3   OH236034   4.677   1.403   0.306  0.1807  0.4535 -0.1617
 4800TIP3    H136035   4.717   1.453   0.377 -1.7803 -0.2818  1.5510
 4800TIP3    H236036   4.712   1.443   0.226  2.2452  1.4885  1.1744
 4801TIP3   OH236037   6.296   3.129   1.950 -0.7224 -0.3500  0.3114
 4801TIP3    H136038   6.237   3.114   2.023  0.0270  1.4567  1.3491
 4801TIP3    H236039   6.375   3.167   1.989  0.1506 -0.3673 -1.3164
 4802TIP3   OH236040   4.890   2.645   1.777 -0.0451  0.0843 -0.3003
 4802TIP3    H136041   4.931   2.647   1.863 -0.4935 -0.4817 -0.0666
 4802TIP3    H236042   4.808   2.598   1.790  0.3401 -0.9215 -1.2227
 4803TIP3   OH236043   1.443   3.290   1.210 -0.0657 -0.4799  0.4590
 4803TIP3    H136044   1.390   3.310   1.287 -0.8235 -0.2052 -0.1230
 4803TIP3    H236045   1.526   3.336   1.226 -0.1188 -0.6411  1.2264
 4804TIP3   OH236046   1.836   0.035   8.725 -0.1128  0.2748 -0.1291
 4804TIP3    H136047   1.803   0.070   8.642  1.1446  0.9137 -0.3806
 4804TIP3    H236048   1.908   0.093   8.748 -0.4324  0.0821  1.4083
 4805TIP3   OH236049   5.653   2.924   8.240  0.2287 -0.6777  0.0922
 4805TIP3    H136050   5.674   3.004   8.190 -0.5238 -0.1377  0.6208
 4805TIP3    H236051   5.717   2.922   8.310  0.1374 -0.4333  0.1852
 4806TIP3   OH236052   4.585   0.053   1.410  0.2251 -0.5302 -0.2596
 4806TIP3    H136053   4.676   0.076   1.431 -0.5771  1.6422  1.2513
 4806TIP3    H236054   4.563  -0.015   1.473  0.7744 -1.0492 -0.6139
 4807TIP3   OH236055   0.259   1.941   8.519 -0.4210  0.0377  0.0988
 4807TIP3    H136056   0.338   1.887   8.527 -0.5768 -0.1279  0.5357
 4807TIP3    H236057   0.284   2.009   8.457  0.1303  0.0902  0.3654
 4808TIP3   OH236058   5.867   2.649   1.273 -0.1035  0.0885 -0.3733
 4808TIP3    H136059   5.846   2.742   1.271  0.8242  0.3249  0.1376
 4808TIP3    H236060   5.912   2.633   1.191 -0.9434 -0.0958 -0.8121
 4809TIP3   OH236061   4.462   3.553   0.565  0.9015  0.3267 -0.5703
 4809TIP3    H136062   4.440   3.463   0.589 -0.1612  0.4289 -1.0808
 4809TIP3    H236063   4.451   3.555   0.470  1.4343  0.8677 -0.6222
 4810TIP3   OH236064   0.072   4.164   0.790  0.2071 -0.1910 -0.2365
 4810TIP3    H136065   0.018   4.095   0.753 -1.0752  2.0537 -2.9065
 4810TIP3    H236066   0.161   4.143   0.762 -0.4793  0.3977 -3.0820
 4811TIP3   OH236067   6.528   4.571   0.382 -0.0669  0.1002  0.2687
 4811TIP3    H136068   6.488   4.652   0.351 -0.7717 -0.4814 -0.3952
 4811TIP3    H236069   6.586   4.543   0.311 -0.0675 -0.1379  0.3604
 4812TIP3   OH236070   0.466   0.909   8.692  0.2760 -0.5059  0.5363
 4812TIP3    H136071   0.554   0.920   8.657  0.3033 -1.2048  0.3790
 4812TIP3    H236072   0.479   0.879   8.782  0.1949 -0.1808  0.6598
 4813TIP3   OH236073   2.414   6.155   8.279  0.5891  0.2518 -0.2513
 4813TIP3    H136074   2.414   6.233   8.335 -2.2505 -0.2254  0.5795
 4813TIP3    H236075   2.321   6.140   8.260  1.1325 -2.3631 -1.1935
 4814TIP3   OH236076   6.438   4.833   0.329  0.1522 -0.3245  0.1454
 4814TIP3    H136077   6.409   4.886   0.254  0.0245 -0.7738 -0.1288
 4814TIP3    H236078   6.425   4.890   0.405  0.7991  0.3446 -0.2229
 4815TIP3   OH236079   4.492   6.591   1.702  0.7353  0.7203 -0.3577
 4815TIP3    H136080   4.410   6.625   1.738  0.4400 -0.2177 -0.1054
 4815TIP3    H236081   4.560   6.648   1.738  0.3278  0.5785  0.6563
 4816TIP3   OH236082   1.508   4.202   8.083  0.1806 -0.4136  0.7375
 4816TIP3    H136083   1.548   4.257   8.151 -2.0214 -0.3057  2.0432
 4816TIP3    H236084   1.427   4.171   8.122 -0.8529 -0.9262 -1.6312
 4817TIP3   OH236085   4.128   3.637   1.617  0.0652 -0.4584 -0.4463
 4817TIP3    H136086   4.104   3.547   1.598 -0.2508 -0.8918  1.7309
 4817TIP3    H236087   4.159   3.635   1.708  0.2378  1.5901 -0.4092
 4818TIP3   OH236088   2.028   5.027   1.332 -0.7299  0.3815 -0.7178
 4818TIP3    H136089   2.043   5.091   1.402  0.2366  0.5419 -1.0546
 4818TIP3    H236090   1.967   4.964   1.370 -0.3152  0.5349  0.2368
 4819TIP3   OH236091   1.653   1.038   0.796 -0.1791  0.1162  0.2826
 4819TIP3    H136092   1.602   1.002   0.869 -1.1387  1.5187  0.3542
 4819TIP3    H236093   1.665   0.965   0.737 -2.5280 -0.2574  0.1466
 4820TIP3   OH236094   0.318   6.784   7.948 -0.0883  0.2521  0.2282
 4820TIP3    H136095   0.231   6.822   7.937 -0.0533  0.1669 -0.3742
 4820TIP3    H236096   0.334   6.787   8.042 -1.7957 -2.0537  0.6766
 4821TIP3   OH236097   2.770   0.022   8.002  0.2051  0.5794  0.4070
 4821TIP3    H136098   2.804   0.057   7.919 -0.5837  0.0870 -0.1345
 4821TIP3    H236099   2.725  -0.059   7.977  0.8642 -0.1330  1.4616
 4822TIP3   OH236100   2.436   5.680   1.518 -0.1463 -0.1173  0.6076
 4822TIP3    H136101   2.425   5.719   1.605 -1.2608  2.2587 -0.5015
 4822TIP3    H236102   2.471   5.750   1.464  0.1910 -1.4315 -0.9661
 4823TIP3   OH236103   5.047   5.037   8.687  0.2728 -0.4184 -0.7536
 4823TIP3    H136104   4.966   5.083   8.661  0.7684  0.1363 -1.3595
 4823TIP3    H236105   5.016   4.955   8.726 -0.5807 -0.3173 -1.1801
 4824TIP3   OH236106   0.453   6.603   8.376 -0.3984 -0.4219  0.1691
 4824TIP3    H136107   0.452   6.541   8.449  0.6992 -0.1453  0.4462
 4824TIP3    H236108   0.386   6.667   8.399 -0.9055 -1.0047  0.3315
 4825TIP3   OH236109   3.794   1.384   1.694 -0.3643 -0.7955  0.4343
 4825TIP3    H136110   3.846   1.414   1.619 -0.4597  0.6467  0.9092
 4825TIP3    H236111   3.800   1.288   1.691  1.3724 -0.7082 -0.2002
 4826TIP3   OH236112   3.851   2.885   0.766  0.3747  0.4052 -0.1747
 4826TIP3    H136113   3.883   2.912   0.680 -1.1181  0.9424 -0.5832
 4826TIP3    H236114   3.757   2.876   0.756  0.3270 -0.9118  1.0536
 4827TIP3   OH236115   3.714   4.980   0.674 -0.2669  0.0078  0.3958
 4827TIP3    H136116   3.677   4.893   0.689  2.9845 -1.4197  0.8082
 4827TIP3    H236117   3.749   5.006   0.759  0.2791  0.9951 -0.1165
 4828TIP3   OH236118   4.999   0.092   8.021 -0.2169 -0.2427  0.1297
 4828TIP3    H136119   5.084   0.083   7.979 -0.2559 -1.4902  0.2735
 4828TIP3    H236120   4.980   0.005   8.056 -1.5216  0.0239  0.1544
 4829TIP3   OH236121   1.786   6.578   8.790  0.2834 -0.3881 -0.9896
 4829TIP3    H136122   1.767   6.517   8.861  0.6028 -0.2584 -0.7902
 4829TIP3    H236123   1.777   6.665   8.829  1.6103 -0.3129 -0.7742
 4830TIP3   OH236124   4.475   3.375   7.542  0.1550 -0.2492 -0.3102
 4830TIP3    H136125   4.558   3.419   7.559 -0.1092  0.3146 -0.4446
 4830TIP3    H236126   4.462   3.383   7.448 -0.2646  0.0595 -0.2287
 4831TIP3   OH236127   4.436   6.155   7.906  0.1304 -0.0982 -0.1052
 4831TIP3    H136128   4.366   6.095   7.932 -0.2295  0.9884  1.5626
 4831TIP3    H236129   4.490   6.103   7.846 -1.0748 -1.5394 -0.0153
 4832TIP3   OH236130   5.941   0.570   3.449  0.5173 -0.3669 -0.0814
 4832TIP3    H136131   6.030   0.594   3.477  0.7273 -0.8768 -0.3125
 4832TIP3    H236132   5.917   0.497   3.506  0.1747 -0.1246  0.0930
 4833TIP3   OH236133   0.017   3.334   3.237  0.0402 -0.0088  0.1592
 4833TIP3    H136134  -0.052   3.321   3.172 -0.9689 -4.5626  1.7469
 4833TIP3    H236135  -0.009   3.412   3.285 -1.4639  0.9930 -2.1343
 4834TIP3   OH236136   1.015   2.222   8.736  0.1009  0.5983 -0.1358
 4834TIP3    H136137   0.926   2.257   8.724  0.4387  2.2357  1.6741
 4834TIP3    H236138   1.038   2.245   8.826  2.1231 -0.3977 -0.3475
 4835TIP3   OH236139   2.752   0.078   0.672 -0.1413  0.5101  0.2457
 4835TIP3    H136140   2.782   0.077   0.763  0.5084  0.8198  0.0428
 4835TIP3    H236141   2.691   0.152   0.667  0.6690  1.1841  0.1752
 4836TIP3   OH236142   4.432   0.730   7.750 -0.3539  0.4965 -0.0137
 4836TIP3    H136143   4.372   0.715   7.677  0.0631  0.4182 -0.3456
 4836TIP3    H236144   4.513   0.685   7.724  0.1763  1.4240 -0.0150
 4837TIP3   OH236145   2.935   4.989   2.583  0.1900  0.5543 -0.0514
 4837TIP3    H136146   2.933   5.046   2.660 -0.7710  0.1555  0.2333
 4837TIP3    H236147   2.975   5.042   2.514  1.3959  0.8051  0.7996
 4838TIP3   OH236148   0.258   5.606   2.606 -0.2548  0.3547 -0.0690
 4838TIP3    H136149   0.344   5.575   2.635 -0.1816 -0.0053 -0.6459
 4838TIP3    H236150   0.265   5.607   2.510 -0.7772  0.6678 -0.1038
 4839TIP3   OH236151   3.157   3.966   2.812 -0.0829  0.1986  0.6744
 4839TIP3    H136152   3.074   4.005   2.840 -0.3369  1.2205 -1.3313
 4839TIP3    H236153   3.131   3.887   2.763  0.0108  1.0074 -0.7466
 4840TIP3   OH236154   5.070   2.762   1.334 -0.1267  0.2139  0.2149
 4840TIP3    H136155   4.975   2.752   1.346 -0.3211  0.8928 -0.6025
 4840TIP3    H236156   5.107   2.747   1.421 -1.0718  0.8425  0.7510
 4841TIP3   OH236157   4.977   2.177   0.010  0.3594 -0.8902  0.2889
 4841TIP3    H136158   4.956   2.266  -0.019  1.4757 -0.5769  0.3983
 4841TIP3    H236159   5.032   2.141  -0.059  1.6189 -0.7395  1.1659
 4842TIP3   OH236160   4.917   3.928   1.962 -0.3004 -0.3192  0.0070
 4842TIP3    H136161   5.001   3.946   1.920  0.1483 -3.0813 -0.4827
 4842TIP3    H236162   4.852   3.939   1.893 -0.1441  0.0573 -0.0825
 4843TIP3   OH236163   5.793   3.594   1.042  0.0117  0.0337 -0.0026
 4843TIP3    H136164   5.712   3.615   0.994 -1.5731  0.8304  2.7804
 4843TIP3    H236165   5.862   3.607   0.978 -1.9816  0.3008 -2.2661
 4844TIP3   OH236166   4.043   5.560   0.259  0.5309  0.3066 -0.2982
 4844TIP3    H136167   3.959   5.530   0.294  0.8505  0.3412  0.5219
 4844TIP3    H236168   4.108   5.503   0.299  0.8318 -0.4783 -1.8178
 4845TIP3   OH236169   2.055   4.595   0.782  0.6648 -1.1563  0.6276
 4845TIP3    H136170   2.024   4.590   0.692 -1.5164  0.4130  1.2220
 4845TIP3    H236171   2.035   4.508   0.819 -0.4807 -1.0886  0.1975
 4846TIP3   OH236172   1.622   4.322   8.298  0.4776  0.8731  0.4071
 4846TIP3    H136173   1.591   4.275   8.375 -0.0183 -1.8796 -1.3198
 4846TIP3    H236174   1.701   4.367   8.327  1.1973 -1.3631  2.1737
 4847TIP3   OH236175   5.844   2.065   0.129 -0.3145  0.5881  0.5772
 4847TIP3    H136176   5.814   2.025   0.047 -0.1048 -0.3181  0.9336
 4847TIP3    H236177   5.882   2.148   0.101 -0.9448  0.6453 -0.1559
 4848TIP3   OH236178   4.712   2.400   8.680 -0.3313 -0.5277 -0.3060
 4848TIP3    H136179   4.792   2.450   8.696  1.4253 -3.2218 -0.0728
 4848TIP3    H236180   4.681   2.431   8.595  0.0089  1.6642  0.2970
 4849TIP3   OH236181   4.927   5.556   7.253  0.0042 -0.0418  0.1230
 4849TIP3    H136182   4.852   5.519   7.206 -0.8572  0.0263  1.3982
 4849TIP3    H236183   4.938   5.643   7.215 -0.8076  0.0881  0.1575
 4850TIP3   OH236184   3.232   2.270   2.267  0.2607 -0.1621  0.2317
 4850TIP3    H136185   3.184   2.260   2.185 -1.5285 -2.2081  1.4444
 4850TIP3    H236186   3.165   2.267   2.335  1.9142 -1.1057  1.9058
 4851TIP3   OH236187   5.342   6.081   1.160 -0.7619 -0.7264  0.0503
 4851TIP3    H136188   5.354   6.169   1.197 -0.0211 -0.8845  0.1996
 4851TIP3    H236189   5.276   6.093   1.091  0.1801  0.1854 -0.7339
 4852TIP3   OH236190   1.353   2.909   2.630  0.8268 -0.6029  0.2988
 4852TIP3    H136191   1.404   2.834   2.598  3.4688  0.2581  2.1203
 4852TIP3    H236192   1.309   2.876   2.709  0.2289 -0.7661 -0.0916
 4853TIP3   OH236193   4.889   6.819   8.518 -0.0330 -0.0263 -0.2731
 4853TIP3    H136194   4.884   6.733   8.475  0.6630  0.1124 -0.6422
 4853TIP3    H236195   4.798   6.840   8.540 -0.0705 -1.5892  1.2807
 4854TIP3   OH236196   2.202   4.787   7.763  0.0710  0.6908  0.1978
 4854TIP3    H136197   2.121   4.738   7.781 -0.2468  1.5257  1.1537
 4854TIP3    H236198   2.173   4.861   7.710  0.2001  1.0070  0.5672
 4855TIP3   OH236199   6.460   0.203   7.958 -0.3909 -0.1372  0.4899
 4855TIP3    H136200   6.503   0.256   7.892 -0.3795  0.6784  1.1358
 4855TIP3    H236201   6.385   0.256   7.986 -0.0994 -0.2333  1.4884
 4856TIP3   OH236202   4.881   4.309   1.831 -0.0100 -0.4053 -0.1399
 4856TIP3    H136203   4.813   4.245   1.811 -0.2727 -0.2183  0.1333
 4856TIP3    H236204   4.834   4.392   1.843  0.2635 -0.2711  0.0383
 4857TIP3   OH236205   2.737   5.071   8.095 -0.3405 -0.1577  0.4343
 4857TIP3    H136206   2.734   4.975   8.100 -0.6105 -0.5256 -3.4668
 4857TIP3    H236207   2.645   5.097   8.096 -0.2900  0.0100  0.8150
 4858TIP3   OH236208   4.124   0.621   2.286  0.0609  0.0762  0.2731
 4858TIP3    H136209   4.099   0.546   2.339 -1.0732  0.9070  0.9597
 4858TIP3    H236210   4.053   0.684   2.298  1.5324  1.7590  0.7267
 4859TIP3   OH236211   6.752   1.666   2.708  0.1566  0.0334 -0.4540
 4859TIP3    H136212   6.712   1.715   2.637  1.8631 -1.2404 -2.4086
 4859TIP3    H236213   6.784   1.733   2.769 -1.6556  1.1360 -0.6196
 4860TIP3   OH236214   4.256   4.895   7.101 -0.4860  0.7149 -0.5048
 4860TIP3    H136215   4.211   4.900   7.185 -0.3556 -2.2403 -0.1766
 4860TIP3    H236216   4.207   4.832   7.050  0.1534  1.5402 -2.2357
 4861TIP3   OH236217   6.441   4.890   2.759  0.1044  0.2526 -0.1027
 4861TIP3    H136218   6.451   4.961   2.822  0.1156  1.2033 -1.1376
 4861TIP3    H236219   6.521   4.839   2.767 -0.1734 -0.0166  1.0907
 4862TIP3   OH236220   3.637   1.433   8.541  0.1760  0.8187 -0.5606
 4862TIP3    H136221   3.727   1.417   8.570 -0.0156  0.0113 -0.3647
 4862TIP3    H236222   3.637   1.522   8.506  0.4296  1.8840  1.9199
 4863TIP3   OH236223   0.673   5.156   8.793  0.0302 -0.5366 -0.4149
 4863TIP3    H136224   0.723   5.076   8.810 -0.1671 -0.2753  1.7418
 4863TIP3    H236225   0.734   5.214   8.748  1.5144 -0.4748  1.5487
 4864TIP3   OH236226   6.630   2.021   1.189  0.0094  0.3620  0.2556
 4864TIP3    H136227   6.711   1.989   1.149 -1.1172 -0.2697 -1.6438
 4864TIP3    H236228   6.583   1.941   1.214 -1.4938  0.5485 -1.7661
 4865TIP3   OH236229   2.310   4.980   1.685  0.7179  0.5226  0.3098
 4865TIP3    H136230   2.399   4.990   1.718  0.9269 -2.0247  0.6605
 4865TIP3    H236231   2.319   4.982   1.589  1.4599 -1.5985  0.2979
 4866TIP3   OH236232   4.496   5.523   8.158  0.4155  0.0184  0.1052
 4866TIP3    H136233   4.517   5.609   8.195  0.2904  0.1001 -0.0116
 4866TIP3    H236234   4.533   5.526   8.070 -0.5387  0.3651 -0.3004
 4867TIP3   OH236235   5.120   4.573   0.888 -0.1114 -0.2677 -0.0579
 4867TIP3    H136236   5.166   4.656   0.879  1.2931 -1.0912 -0.6851
 4867TIP3    H236237   5.188   4.506   0.886 -1.1872 -1.4430  0.6903
 4868TIP3   OH236238   6.311   1.403   1.057 -0.4702  0.3011  0.6102
 4868TIP3    H136239   6.300   1.417   0.963  3.0056  2.4047  0.3355
 4868TIP3    H236240   6.310   1.492   1.094  0.7670 -0.2936  2.1695
 4869TIP3   OH236241   4.372   1.848   1.121 -0.0003  0.0712 -0.1505
 4869TIP3    H136242   4.300   1.834   1.059  1.0515  0.3671 -1.4924
 4869TIP3    H236243   4.423   1.767   1.117 -0.8862 -0.6312  1.7237
 4870TIP3   OH236244   4.546   6.685   8.562  0.2439 -0.0965 -0.5786
 4870TIP3    H136245   4.456   6.700   8.535 -0.3116 -0.0841  1.1464
 4870TIP3    H236246   4.584   6.772   8.570  0.3057 -0.0872 -0.9638
 4871TIP3   OH236247   3.018   1.384   2.250 -0.0812 -0.2997  0.2959
 4871TIP3    H136248   3.043   1.471   2.281  0.8422 -1.1546  2.1861
 4871TIP3    H236249   3.098   1.332   2.260 -0.7819 -1.5063 -0.1805
 4872TIP3   OH236250   4.643   3.965   1.054 -0.1330 -0.4961 -0.0563
 4872TIP3    H136251   4.681   3.906   0.988 -0.3145 -1.2686  0.5151
 4872TIP3    H236252   4.686   3.941   1.135  1.3566  1.6149 -0.1484
 4873TIP3   OH236253   4.889   5.028   7.797 -0.8384 -0.4684 -0.2966
 4873TIP3    H136254   4.822   4.992   7.739 -0.3081 -1.6341 -0.2342
 4873TIP3    H236255   4.967   4.975   7.778  0.2758  1.3187 -0.8767
 4874TIP3   OH236256   1.257   4.837   0.426 -0.0110  0.0876 -0.1619
 4874TIP3    H136257   1.216   4.887   0.497  0.7302 -1.9785  1.8467
 4874TIP3    H236258   1.350   4.856   0.434  0.1909 -0.9897  0.1262
 4875TIP3   OH236259   0.471   0.087   1.762  0.3308 -0.2931  0.1897
 4875TIP3    H136260   0.467   0.159   1.825 -1.1108  0.2676 -0.4982
 4875TIP3    H236261   0.473   0.008   1.815 -0.4617  0.1802  0.9359
 4876TIP3   OH236262   3.401   0.771   2.019  0.2542 -0.2973 -0.9851
 4876TIP3    H136263   3.389   0.859   2.055  0.7628 -1.0389  1.1447
 4876TIP3    H236264   3.335   0.718   2.064  1.1868 -1.3595 -0.8515
 4877TIP3   OH236265   5.488   4.339   2.880 -0.5860  0.2774  0.3795
 4877TIP3    H136266   5.399   4.305   2.889 -0.2024 -1.3746 -1.4133
 4877TIP3    H236267   5.498   4.356   2.786  0.6293  1.5236  0.7003
 4878TIP3   OH236268   4.891   4.240   2.974  0.6939 -0.0988  0.1890
 4878TIP3    H136269   4.887   4.148   2.947 -0.7058 -0.1095  0.3570
 4878TIP3    H236270   4.926   4.237   3.064 -0.4738 -0.5793  0.6431
 4879TIP3   OH236271   3.180   5.467   0.709  0.1524  0.2254  0.7022
 4879TIP3    H136272   3.220   5.543   0.751  0.9818 -1.1381  2.4995
 4879TIP3    H236273   3.086   5.477   0.723  0.0994  1.6431 -0.4189
 4880TIP3   OH236274   3.772   6.329   0.895  0.7918 -0.2803  0.7232
 4880TIP3    H136275   3.784   6.251   0.841  1.8769  0.3973 -0.0726
 4880TIP3    H236276   3.737   6.395   0.834  0.2261 -0.0444  1.2989
 4881TIP3   OH236277   5.017   3.539   8.271  0.6033  0.1762 -0.1266
 4881TIP3    H136278   5.079   3.601   8.233  2.5313 -1.7408 -0.3266
 4881TIP3    H236279   4.993   3.577   8.355  0.2418  2.0366 -1.0165
 4882TIP3   OH236280   3.964   0.567   1.079 -0.3771 -0.3367 -0.4200
 4882TIP3    H136281   3.968   0.474   1.104  0.1301 -0.0486  0.6558
 4882TIP3    H236282   3.966   0.613   1.163  0.0676  0.6636 -0.9760
 4883TIP3   OH236283   0.911   1.407   0.643  0.8267  0.4950  0.7152
 4883TIP3    H136284   0.869   1.462   0.577  1.6806 -0.3366 -0.5629
 4883TIP3    H236285   0.843   1.394   0.710  0.1334  1.8384  0.3124
 4884TIP3   OH236286   0.477   5.372   2.959 -0.3132 -0.1280  0.3038
 4884TIP3    H136287   0.470   5.410   3.047 -0.8620  0.4997 -0.0007
 4884TIP3    H236288   0.507   5.444   2.904  4.8858 -1.5667  0.7278
 4885TIP3   OH236289   2.305   0.422   0.547 -0.4580 -0.2255 -0.2180
 4885TIP3    H136290   2.395   0.438   0.518 -0.7905 -0.1060 -1.2097
 4885TIP3    H236291   2.297   0.326   0.545 -0.9465 -0.1909 -2.0810
 4886TIP3   OH236292   5.751   1.925   8.366  0.5071  0.1723  0.5630
 4886TIP3    H136293   5.689   1.893   8.300  2.3806 -1.2612 -0.6182
 4886TIP3    H236294   5.758   1.852   8.428  0.9036  0.3656  0.7456
 4887TIP3   OH236295   1.604   3.638   1.777 -0.1991 -0.0483 -0.1711
 4887TIP3    H136296   1.647   3.722   1.791 -1.1998  0.2200  1.6847
 4887TIP3    H236297   1.606   3.595   1.863  0.0485 -1.8183 -1.0119
 4888TIP3   OH236298   1.287   6.227   2.490 -0.6787  0.0252 -0.8888
 4888TIP3    H136299   1.229   6.183   2.429 -0.6888 -0.9940 -0.1695
 4888TIP3    H236300   1.247   6.313   2.503 -1.6169 -0.3768 -0.9937
 4889TIP3   OH236301   6.243   0.567   8.738 -0.1280  0.0331  0.5189
 4889TIP3    H136302   6.226   0.485   8.690 -1.6080  1.1103 -0.8888
 4889TIP3    H236303   6.187   0.561   8.815 -2.0674  0.6708 -0.7622
 4890TIP3   OH236304   4.466   1.410   2.165  0.0197  0.3764  0.0606
 4890TIP3    H136305   4.511   1.340   2.117 -0.6108  0.9070 -1.3555
 4890TIP3    H236306   4.414   1.363   2.231  2.2533 -0.2661  1.4747
 4891TIP3   OH236307   4.242   4.670   2.236 -0.5735  0.5500 -0.1982
 4891TIP3    H136308   4.278   4.724   2.306 -0.2437 -0.4996  0.4620
 4891TIP3    H236309   4.155   4.708   2.219 -0.2151  1.4916 -0.0019
 4892TIP3   OH236310   4.492   4.652   1.566  0.0829 -0.1225  0.1594
 4892TIP3    H136311   4.424   4.680   1.504  1.4219  1.9503 -0.5007
 4892TIP3    H236312   4.527   4.572   1.529 -0.2224  0.2301 -0.9327
 4893TIP3   OH236313   0.381   5.941   1.155 -0.3277 -0.0551  0.0178
 4893TIP3    H136314   0.430   5.935   1.073  1.3422  0.1262  0.9605
 4893TIP3    H236315   0.314   6.007   1.138 -0.2399 -0.2824 -1.3100
 4894TIP3   OH236316   0.111   4.359   0.992 -0.0077  0.0474 -0.1624
 4894TIP3    H136317   0.124   4.280   0.939 -0.1668 -0.0710 -0.0253
 4894TIP3    H236318   0.200   4.391   1.009  0.0549 -0.0728 -0.2607
 4895TIP3   OH236319   5.954   4.455   1.031  0.5048  0.5391 -0.1145
 4895TIP3    H136320   6.042   4.488   1.048  0.1430  0.8280  1.2909
 4895TIP3    H236321   5.950   4.372   1.078  1.0832 -1.1473 -2.8409
 4896TIP3   OH236322   5.366   2.363   2.258 -0.0266 -0.3188  0.1725
 4896TIP3    H136323   5.456   2.358   2.290 -0.2661 -0.5365  0.8327
 4896TIP3    H236324   5.329   2.439   2.302 -1.0807 -1.9575  2.3720
 4897TIP3   OH236325   1.263   4.356   2.864  0.7123 -0.8805 -0.3555
 4897TIP3    H136326   1.169   4.376   2.868  0.1929 -2.6912 -1.9314
 4897TIP3    H236327   1.284   4.325   2.952  0.9330  3.4523  1.3304
 4898TIP3   OH236328   1.303   4.081   0.621  0.2857  0.1006 -0.4653
 4898TIP3    H136329   1.227   4.129   0.587  0.9198  0.5071 -1.3438
 4898TIP3    H236330   1.373   4.099   0.558  0.9261 -0.8328 -0.0375
 4899TIP3   OH236331   3.658   4.529   0.852  0.7320  0.1429 -0.0448
 4899TIP3    H136332   3.583   4.480   0.819  0.6502 -0.3569  0.8461
 4899TIP3    H236333   3.653   4.520   0.947  2.2577 -0.4170  0.0132
 4900TIP3   OH236334   4.847   4.967   2.929  0.1152 -0.2388  0.0359
 4900TIP3    H136335   4.845   5.010   3.015  0.1698 -0.9310  0.3922
 4900TIP3    H236336   4.940   4.962   2.907  0.1465 -0.7206  0.2763
 4901TIP3   OH236337   5.121   4.277   7.619 -0.3790 -0.1445  0.0489
 4901TIP3    H136338   5.182   4.351   7.622  0.3779 -0.7542  0.2600
 4901TIP3    H236339   5.129   4.243   7.530  0.5034 -0.9371  0.3998
 4902TIP3   OH236340   4.086   3.269   6.919 -0.7249  0.2150 -0.1765
 4902TIP3    H136341   4.023   3.208   6.881 -1.8171  1.2338 -0.0647
 4902TIP3    H236342   4.057   3.355   6.889  0.9857  0.6761 -0.6255
 4903TIP3   OH236343   0.534   6.130   1.284  0.6453  0.9223 -0.1287
 4903TIP3    H136344   0.500   6.041   1.273  0.3642  0.9030  0.8839
 4903TIP3    H236345   0.586   6.145   1.204  1.1428 -0.3439 -0.0680
 4904TIP3   OH236346   1.504   2.425   0.905  0.1605 -0.0827  0.2505
 4904TIP3    H136347   1.546   2.344   0.876 -1.1409 -0.8451  0.4529
 4904TIP3    H236348   1.411   2.403   0.913 -0.2090  1.4153  0.3655
 4905TIP3   OH236349   2.719   3.786   2.026  0.5642 -0.3667 -0.1425
 4905TIP3    H136350   2.814   3.799   2.027  0.5372 -0.0423 -1.3638
 4905TIP3    H236351   2.684   3.870   2.055  0.6154  0.0224 -1.1672
 4906TIP3   OH236352   1.021   4.577   0.679 -0.6101 -0.1778 -0.4715
 4906TIP3    H136353   1.066   4.584   0.764 -1.1931  2.2724 -0.2878
 4906TIP3    H236354   0.960   4.504   0.691 -1.2538  0.6019  1.5326
 4907TIP3   OH236355   4.470   1.254   2.614  0.3496  0.3862 -0.2989
 4907TIP3    H136356   4.421   1.331   2.587  0.6029  0.0768 -1.7186
 4907TIP3    H236357   4.411   1.206   2.672  0.5608  2.1416  1.4477
 4908TIP3   OH236358   4.273   1.219   1.551  0.0500 -0.2671  0.3053
 4908TIP3    H136359   4.308   1.130   1.543 -0.7995 -0.5846  0.0253
 4908TIP3    H236360   4.326   1.259   1.620 -0.1269 -1.2770  1.0522
 4909TIP3   OH236361   5.372   6.007   0.483 -0.8636 -0.2518 -0.2232
 4909TIP3    H136362   5.404   6.097   0.496 -2.0895 -0.1035  2.6673
 4909TIP3    H236363   5.435   5.952   0.529 -0.6462 -0.7865 -1.1438
 4910TIP3   OH236364   3.997   1.628   2.774  0.5214  0.2637 -0.7200
 4910TIP3    H136365   3.980   1.640   2.868 -0.8263  1.1690 -1.0583
 4910TIP3    H236366   4.035   1.540   2.768  0.3247  0.0658  0.6323
 4911TIP3   OH236367   6.214   3.127   2.566 -0.3560  0.3601 -0.0109
 4911TIP3    H136368   6.132   3.083   2.588 -0.2332 -0.8283 -1.6880
 4911TIP3    H236369   6.188   3.212   2.531 -0.7897  0.4779  0.5971
 4912TIP3   OH236370   4.138   3.379   8.712  0.3444 -0.2985  0.3289
 4912TIP3    H136371   4.212   3.319   8.725  0.2780 -0.2778  0.8396
 4912TIP3    H236372   4.100   3.389   8.799 -0.9701 -1.2008 -0.1153
 4913TIP3   OH236373   6.407   3.750   0.916  0.1188  0.1015  0.0493
 4913TIP3    H136374   6.488   3.743   0.967  0.6840  1.7141 -0.5602
 4913TIP3    H236375   6.344   3.695   0.963  1.1036  0.1426  1.4847
 4914TIP3   OH236376   2.443   0.298   8.548 -0.5439 -0.2777  0.0478
 4914TIP3    H136377   2.490   0.301   8.631  0.3961 -0.5308 -0.4649
 4914TIP3    H236378   2.439   0.205   8.526  0.7848 -0.1054 -1.0499
 4915TIP3   OH236379   6.656   0.582   2.595  0.2762  0.3655  0.2596
 4915TIP3    H136380   6.676   0.599   2.503 -2.5364  0.1746 -0.4807
 4915TIP3    H236381   6.619   0.494   2.595 -1.8582  1.1878  1.1366
 4916TIP3   OH236382   0.954   0.537   1.795 -0.2983 -0.2215 -0.9819
 4916TIP3    H136383   0.973   0.529   1.888 -2.3101 -2.8692 -0.6774
 4916TIP3    H236384   0.928   0.628   1.784  1.8656  0.6714  0.5744
 4917TIP3   OH236385   6.443   0.183   1.367  0.3880  0.2795  0.2252
 4917TIP3    H136386   6.518   0.203   1.312 -1.4748 -0.3782 -2.8183
 4917TIP3    H236387   6.385   0.258   1.357 -0.4332 -0.3043  0.4167
 4918TIP3   OH236388   2.962   3.804   7.689  0.0521 -0.1566 -0.3072
 4918TIP3    H136389   2.935   3.890   7.659  1.5012  0.4593  0.0855
 4918TIP3    H236390   2.923   3.743   7.626 -2.1235  0.6416  0.1657
 4919TIP3   OH236391   4.762   2.661   1.466  0.5746  0.1788  0.2288
 4919TIP3    H136392   4.730   2.742   1.507 -0.9777  0.6624 -1.7666
 4919TIP3    H236393   4.688   2.601   1.471  1.6467 -1.1369  1.5039
 4920TIP3   OH236394   3.504   1.159   0.751 -0.4175  0.4478  0.4874
 4920TIP3    H136395   3.448   1.234   0.768  4.0026  4.3935 -0.3731
 4920TIP3    H236396   3.554   1.147   0.832  1.4327  0.9714 -0.5172
 4921TIP3   OH236397   5.869   5.650   2.006  0.1932 -0.1909  1.1945
 4921TIP3    H136398   5.902   5.666   2.094  1.7001 -1.0220  0.8078
 4921TIP3    H236399   5.920   5.575   1.974  0.1476  0.5010 -0.6198
 4922TIP3   OH236400   6.278   1.489   1.399  0.1138  0.2631  0.2444
 4922TIP3    H136401   6.326   1.407   1.408  1.0166  0.5141 -1.7301
 4922TIP3    H236402   6.206   1.468   1.339  0.0906  0.8001  0.0786
 4923TIP3   OH236403   4.780   2.367   2.223 -0.1834 -0.5475 -0.2296
 4923TIP3    H136404   4.857   2.391   2.173  0.8123  1.2221  1.9757
 4923TIP3    H236405   4.711   2.355   2.158  1.6686 -1.1752 -2.1782
 4924TIP3   OH236406   6.751   6.180   2.365  0.3595 -0.7069 -0.4314
 4924TIP3    H136407   6.715   6.091   2.363  1.3458 -1.1709  1.1521
 4924TIP3    H236408   6.796   6.189   2.281  0.5122 -1.8271 -0.4900
 4925TIP3   OH236409   4.738   4.076   2.111 -0.6740 -0.4129 -0.2589
 4925TIP3    H136410   4.820   4.035   2.085 -0.3522  0.0465  0.0274
 4925TIP3    H236411   4.764   4.154   2.159 -1.2493 -0.9634  1.0012
 4926TIP3   OH236412   1.507   6.308   2.897 -0.2439  0.1500  0.4091
 4926TIP3    H136413   1.460   6.303   2.980 -1.7653  1.1157 -0.3480
 4926TIP3    H236414   1.491   6.397   2.866  0.5313 -0.1051 -0.7906
 4927TIP3   OH236415   0.973   6.500   2.203  0.2919 -0.4494  0.2432
 4927TIP3    H136416   0.970   6.586   2.161  1.1705 -0.5042  0.0425
 4927TIP3    H236417   1.066   6.476   2.201 -0.1472 -2.1744 -1.2473
 4928TIP3   OH236418   0.923   1.128   0.462 -0.2634 -0.0405  0.3117
 4928TIP3    H136419   0.921   1.214   0.421  0.2698 -1.0288 -1.9728
 4928TIP3    H236420   0.850   1.128   0.523 -1.0030  1.6102 -0.5218
 4929TIP3   OH236421   2.552   4.243   2.297  0.5490  0.1908  0.7990
 4929TIP3    H136422   2.585   4.167   2.346  0.3652  0.2850  1.0732
 4929TIP3    H236423   2.592   4.318   2.342  1.4168  0.2239  0.0039
 4930TIP3   OH236424   4.321   0.886   8.493 -0.7991 -0.5158 -0.4293
 4930TIP3    H136425   4.340   0.858   8.582 -0.5428  2.3454  0.5255
 4930TIP3    H236426   4.402   0.867   8.444 -0.7938 -1.7217  0.0117
 4931TIP3   OH236427   5.559   0.679   2.049  0.6547 -0.0383  0.7847
 4931TIP3    H136428   5.467   0.698   2.034  0.4291 -1.8627 -0.6015
 4931TIP3    H236429   5.605   0.756   2.016 -0.3507  1.1176  1.9824
 4932TIP3   OH236430   5.269   0.021   2.517  0.2889  0.4093 -0.0097
 4932TIP3    H136431   5.208   0.033   2.590  0.9295 -0.1193  0.6343
 4932TIP3    H236432   5.334   0.090   2.528  1.1064 -0.4529  0.6895
 4933TIP3   OH236433   5.832   4.573   1.926  0.2913 -0.4636  0.3625
 4933TIP3    H136434   5.864   4.487   1.955 -1.6627 -1.1064  0.8087
 4933TIP3    H236435   5.773   4.553   1.854 -1.8699  0.2112  1.8259
 4934TIP3   OH236436   3.163   5.145   1.086  0.1916 -0.3012 -0.5479
 4934TIP3    H136437   3.230   5.087   1.049  0.7112  0.4145 -0.7279
 4934TIP3    H236438   3.091   5.142   1.022  0.1864 -0.7792 -0.5301
 4935TIP3   OH236439   4.615   5.686   2.216 -0.1355  0.4515 -0.1743
 4935TIP3    H136440   4.641   5.760   2.271  0.6665  0.0390  0.0096
 4935TIP3    H236441   4.534   5.655   2.255  0.9447 -0.4744  1.4180
 4936TIP3   OH236442   4.458   6.556   7.286  0.4729 -0.2452 -0.0193
 4936TIP3    H136443   4.535   6.528   7.236  0.1788  0.4863 -0.9004
 4936TIP3    H236444   4.434   6.479   7.337  1.8504 -0.4505  0.3574
 4937TIP3   OH236445   4.590   3.963   0.053  0.1372  0.2131 -0.0449
 4937TIP3    H136446   4.674   3.947   0.011 -0.6212  0.1007 -1.5836
 4937TIP3    H236447   4.567   4.053   0.027  0.5357  0.8784  1.7504
 4938TIP3   OH236448   4.274   4.568   2.838 -0.0003 -0.0265 -0.0421
 4938TIP3    H136449   4.353   4.556   2.786 -0.2004 -0.4878 -0.2390
 4938TIP3    H236450   4.289   4.518   2.918 -0.2530 -0.4460 -0.2526
 4939TIP3   OH236451   5.368   0.304   2.620  0.1759 -0.8231 -0.6303
 4939TIP3    H136452   5.273   0.317   2.630  0.2622  0.4522 -1.1572
 4939TIP3    H236453   5.404   0.324   2.706  0.0878  0.4427 -0.8567
 4940TIP3   OH236454   2.002   0.548   1.089  0.1509  0.0740  0.1470
 4940TIP3    H136455   2.076   0.562   1.031  0.3529  0.2891  0.4520
 4940TIP3    H236456   2.013   0.458   1.121  0.8378  0.4368  0.9672
 4941TIP3   OH236457   6.058   3.311   1.255  0.0770 -0.4262 -0.1035
 4941TIP3    H136458   6.094   3.378   1.197 -0.7852 -0.6057 -0.8693
 4941TIP3    H236459   5.964   3.325   1.254  0.0678 -0.1198  1.6927
 4942TIP3   OH236460   0.778   5.084   2.019  0.5410 -0.2149 -0.2183
 4942TIP3    H136461   0.697   5.093   2.069  0.9141 -3.2687  1.1217
 4942TIP3    H236462   0.760   5.014   1.956  2.2756 -1.3640  0.5038
 4943TIP3   OH236463   1.484   0.247   7.761 -0.3135  0.2866 -0.3212
 4943TIP3    H136464   1.569   0.269   7.799 -0.4476  0.2241  0.0279
 4943TIP3    H236465   1.498   0.164   7.716 -0.0916  0.4844 -0.6141
 4944TIP3   OH236466   5.018   4.892   8.425  0.2886  0.4719 -0.3676
 4944TIP3    H136467   4.945   4.831   8.437 -0.2528  0.8930 -1.4255
 4944TIP3    H236468   5.046   4.914   8.514 -0.9005  0.3276  0.0582
 4945TIP3   OH236469   4.306   4.982   3.273  0.5773 -0.5813 -0.2582
 4945TIP3    H136470   4.259   4.971   3.355 -0.3783  0.1880 -0.6923
 4945TIP3    H236471   4.310   5.077   3.259  0.9082 -0.6908 -0.9939
 4946TIP3   OH236472   1.222   5.828   1.526 -0.0480 -1.3893 -0.3596
 4946TIP3    H136473   1.186   5.873   1.603  0.5785 -0.3972 -0.6277
 4946TIP3    H236474   1.247   5.742   1.559  1.7781 -0.4289  1.0163
 4947TIP3   OH236475   2.429   3.988   7.752  0.3987  0.1306  0.7831
 4947TIP3    H136476   2.463   4.071   7.720  2.9250 -0.1836  2.3889
 4947TIP3    H236477   2.369   4.012   7.822  0.4681  0.6082  0.6829
 4948TIP3   OH236478   0.092   3.608   2.223 -0.1392 -0.7376  0.0327
 4948TIP3    H136479   0.173   3.611   2.172 -0.3896  1.1620 -0.3222
 4948TIP3    H236480   0.120   3.605   2.314  0.3380 -0.2193 -0.0940
 4949TIP3   OH236481   0.742   2.215   0.645  0.1334  0.1856 -0.0161
 4949TIP3    H136482   0.796   2.137   0.660  1.1186  0.5157 -1.5986
 4949TIP3    H236483   0.786   2.262   0.575  0.1477  2.7416  1.5641
 4950TIP3   OH236484   1.458   6.061   1.934  0.0732  0.0383 -0.2814
 4950TIP3    H136485   1.546   6.087   1.961  0.3569  0.8653 -1.9166
 4950TIP3    H236486   1.472   5.984   1.879 -0.2491  0.0848 -0.4273
 4951TIP3   OH236487   6.757   5.835   1.363 -0.0956  0.4431 -0.0103
 4951TIP3    H136488   6.797   5.921   1.355 -1.4064  1.2132  1.2178
 4951TIP3    H236489   6.802   5.795   1.438 -1.4482  1.2639  1.2974
 4952TIP3   OH236490   1.780   3.881   8.821  0.0822  0.4272 -0.5659
 4952TIP3    H136491   1.745   3.812   8.876 -0.1054  0.3188 -0.8195
 4952TIP3    H236492   1.765   3.962   8.870  0.4915  0.2702 -0.1757
 4953TIP3   OH236493   1.468   4.822   8.223  0.0829 -0.0848 -0.3462
 4953TIP3    H136494   1.383   4.825   8.268  0.1095  1.1364 -0.3292
 4953TIP3    H236495   1.510   4.743   8.256 -1.2841 -1.0315 -0.7952
 4954TIP3   OH236496   6.360   5.468   8.446  0.9934  0.1282  0.2330
 4954TIP3    H136497   6.386   5.530   8.514  2.3204  0.6872 -0.7309
 4954TIP3    H236498   6.348   5.385   8.492  0.2944  0.8375  1.3713
 4955TIP3   OH236499   0.247   3.973   2.547  0.2884 -0.4654  0.0436
 4955TIP3    H136500   0.168   3.953   2.497 -0.0206 -1.4767  0.9124
 4955TIP3    H236501   0.235   4.064   2.575  0.5035  0.1608 -1.7249
 4956TIP3   OH236502   4.361   3.552   2.429  0.1187 -0.0594  0.0578
 4956TIP3    H136503   4.429   3.500   2.472 -0.7743 -0.5285  0.9336
 4956TIP3    H236504   4.403   3.583   2.349  0.2894 -3.2837 -1.2772
 4957TIP3   OH236505   1.041   2.379   8.465 -0.6012 -0.5618  0.5492
 4957TIP3    H136506   1.040   2.472   8.489 -1.9012 -0.8510  1.7589
 4957TIP3    H236507   0.949   2.355   8.457 -0.2955 -1.8536  0.6519
 4958TIP3   OH236508   1.052   4.714   0.149 -0.2817  0.3480 -0.6585
 4958TIP3    H136509   1.025   4.683   0.236 -0.3451  0.5570 -0.6028
 4958TIP3    H236510   1.036   4.808   0.151  0.8182  0.5447 -0.4971
 4959TIP3   OH236511   4.409   4.505   1.785 -0.1698 -0.3125 -0.5642
 4959TIP3    H136512   4.451   4.520   1.869 -2.0238  1.4948  0.1263
 4959TIP3    H236513   4.452   4.565   1.725  1.4123 -1.8679 -1.0710
 4960TIP3   OH236514   3.222   3.261   1.725 -0.1413 -0.6357 -0.4857
 4960TIP3    H136515   3.293   3.311   1.767  0.3279 -1.0677 -0.7664
 4960TIP3    H236516   3.144   3.282   1.778  0.6514 -2.0906  1.3479
 4961TIP3   OH236517   6.091   1.898   0.443 -0.0327 -0.5200  0.2649
 4961TIP3    H136518   6.104   1.906   0.538  2.2057  0.8187 -0.0821
 4961TIP3    H236519   6.040   1.976   0.420 -0.4076 -0.7443  0.3229
 4962TIP3   OH236520   1.563   4.102   1.686 -0.4001 -0.0945 -0.3779
 4962TIP3    H136521   1.616   4.071   1.612 -1.3596 -0.2577 -1.0119
 4962TIP3    H236522   1.541   4.193   1.663 -1.8573 -0.5752 -0.9790
 4963TIP3   OH236523   2.942   1.356   8.003  0.1281  0.0922  0.0076
 4963TIP3    H136524   3.028   1.371   8.044  0.1503  1.3595 -0.4516
 4963TIP3    H236525   2.879   1.365   8.075  0.0363  3.7645 -0.3040
 4964TIP3   OH236526   2.065   1.237   0.405 -0.1750 -0.4146 -0.2209
 4964TIP3    H136527   2.004   1.295   0.358  0.8594 -0.4333 -1.6518
 4964TIP3    H236528   2.111   1.295   0.465  0.3343  0.1299 -1.1183
 4965TIP3   OH236529   0.580   1.631   2.075  0.4049  0.1638 -0.4985
 4965TIP3    H136530   0.652   1.684   2.109  1.1110 -0.4042 -1.0911
 4965TIP3    H236531   0.571   1.659   1.983 -0.7805  0.9189 -0.1879
 4966TIP3   OH236532   6.644   1.294   2.039 -0.3668  0.7005  0.3531
 4966TIP3    H136533   6.568   1.288   2.097 -0.2009 -1.3959  0.4327
 4966TIP3    H236534   6.712   1.243   2.083  1.1554  2.6078  0.3130
 4967TIP3   OH236535   4.732   4.720   7.880 -0.0503 -0.4283  0.3421
 4967TIP3    H136536   4.717   4.706   7.786  2.1098 -2.3476  0.1955
 4967TIP3    H236537   4.825   4.704   7.892 -0.5416 -1.8329  3.0690
 4968TIP3   OH236538   2.813   3.358   1.221  0.1072 -0.2903  0.0806
 4968TIP3    H136539   2.861   3.336   1.142  1.3857 -0.6842  0.9413
 4968TIP3    H236540   2.855   3.437   1.254 -0.2948 -0.2343  0.4769
 4969TIP3   OH236541   1.788   2.596   7.367  0.2111  0.0860  0.0142
 4969TIP3    H136542   1.768   2.689   7.351  0.7611  0.2047 -0.0041
 4969TIP3    H236543   1.859   2.576   7.307  0.4419 -0.2099  0.3819
 4970TIP3   OH236544   5.968   4.898   3.536  0.5138 -0.6043  0.6077
 4970TIP3    H136545   5.903   4.835   3.565  0.8313 -1.2128  0.0291
 4970TIP3    H236546   6.036   4.845   3.493  0.5968  0.1564 -0.2256
 4971TIP3   OH236547   5.093   4.186   8.058  0.5313 -0.2493 -0.4591
 4971TIP3    H136548   5.082   4.102   8.014 -0.2211  0.1011 -0.9483
 4971TIP3    H236549   5.186   4.189   8.081  0.6167 -1.0980 -0.6688
 4972TIP3   OH236550   0.081   4.644   0.450  1.0277  0.4151 -0.4332
 4972TIP3    H136551   0.002   4.680   0.490  1.6734  2.0669 -0.5932
 4972TIP3    H236552   0.113   4.580   0.513 -0.0768  0.1884 -0.0792
 4973TIP3   OH236553   2.450   0.120   7.279 -0.1551  0.3987  0.0093
 4973TIP3    H136554   2.494   0.198   7.313 -0.7228  0.9666 -0.5349
 4973TIP3    H236555   2.357   0.138   7.290 -0.3096  0.0564 -0.6880
 4974TIP3   OH236556   0.732   6.798   1.714 -0.8625 -0.4090  0.0206
 4974TIP3    H136557   0.639   6.816   1.725 -0.6750 -0.0437  1.1286
 4974TIP3    H236558   0.752   6.828   1.626 -1.6074  0.3288  0.0916
 4975TIP3   OH236559   5.236   4.413   2.539 -0.4116  0.3114 -0.5497
 4975TIP3    H136560   5.321   4.370   2.548 -0.5859  0.1940  0.7819
 4975TIP3    H236561   5.199   4.411   2.627 -1.5360  0.9080 -0.9871
 4976TIP3   OH236562   6.307   4.031   8.210 -0.5722  0.6578 -0.0267
 4976TIP3    H136563   6.314   3.936   8.199 -0.0792  0.2940  2.6457
 4976TIP3    H236564   6.224   4.054   8.169  0.4251 -0.4498 -2.9388
 4977TIP3   OH236565   4.643   4.214   8.590 -0.2262  0.5900  0.0399
 4977TIP3    H136566   4.558   4.211   8.632 -0.1409  1.4294  0.3128
 4977TIP3    H236567   4.661   4.124   8.564 -0.4386  0.0953  1.4970
 4978TIP3   OH236568   0.925   0.906   1.673 -0.2062 -0.3538  0.6766
 4978TIP3    H136569   0.945   0.899   1.579  0.3144  0.4857  0.7145
 4978TIP3    H236570   0.830   0.911   1.676 -0.2901 -1.4315  0.2714
 4979TIP3   OH236571   5.905   0.956   0.239  0.0295  0.2750  0.3376
 4979TIP3    H136572   5.912   0.886   0.304  0.9460  1.1992  1.2832
 4979TIP3    H236573   5.811   0.973   0.232 -0.1249 -0.3066  0.9029
 4980TIP3   OH236574   4.618   1.844   1.274  0.3086 -0.1232  0.0929
 4980TIP3    H136575   4.608   1.934   1.243 -0.7784  0.2574  1.4731
 4980TIP3    H236576   4.536   1.801   1.250  0.5324 -0.5630  0.0993
 4981TIP3   OH236577   5.407   2.827   7.795  0.0315  0.2695  0.6375
 4981TIP3    H136578   5.396   2.774   7.716  0.6892 -0.1964  0.8541
 4981TIP3    H236579   5.467   2.777   7.850  1.6780  1.8291  0.3192
 4982TIP3   OH236580   6.288   3.883   1.634  0.2163 -0.5474 -0.0659
 4982TIP3    H136581   6.240   3.814   1.589 -0.5448 -0.1138  0.0680
 4982TIP3    H236582   6.240   3.963   1.613  0.5825 -0.1768  0.4880
 4983TIP3   OH236583   5.447   1.955   2.367 -0.4838  0.3205 -0.1560
 4983TIP3    H136584   5.485   1.888   2.423 -0.3396  2.3617  2.3497
 4983TIP3    H236585   5.497   2.035   2.387 -2.3762  1.8013 -0.9732
 4984TIP3   OH236586   0.311   1.800   1.750  0.0177 -0.4281 -0.4467
 4984TIP3    H136587   0.359   1.813   1.668  1.3218  0.5000  0.4398
 4984TIP3    H236588   0.378   1.791   1.817 -1.0376 -0.7579  0.6072
 4985TIP3   OH236589   2.686   4.320   2.553 -0.1441  0.2861  0.2844
 4985TIP3    H136590   2.780   4.317   2.566  0.2257 -3.6461 -1.6336
 4985TIP3    H236591   2.649   4.292   2.637  0.6998 -1.6975  0.0455
 4986TIP3   OH236592   3.378   5.215   1.572 -0.6930 -0.6687 -0.0458
 4986TIP3    H136593   3.452   5.268   1.543 -1.5403  0.2676 -0.5411
 4986TIP3    H236594   3.394   5.199   1.666 -0.5852  0.7417  0.1877
 4987TIP3   OH236595   6.170   0.670   7.824 -0.8241 -0.1476  0.4536
 4987TIP3    H136596   6.218   0.604   7.775 -2.3924  0.3779 -1.9414
 4987TIP3    H236597   6.098   0.622   7.866 -1.7523 -0.0682 -0.9913
 4988TIP3   OH236598   4.439   2.223   0.282 -0.4744  0.2304  0.1298
 4988TIP3    H136599   4.371   2.164   0.312 -2.2141  1.8953 -0.3189
 4988TIP3    H236600   4.437   2.215   0.187 -0.9537  1.1952  0.0436
 4989TIP3   OH236601   6.544   2.423   8.672  0.3942 -0.4175 -0.9440
 4989TIP3    H136602   6.489   2.465   8.606  1.9186  0.6815 -1.5594
 4989TIP3    H236603   6.630   2.415   8.631  1.6758  1.2526  1.2098
 4990TIP3   OH236604   3.837   3.693   2.571  0.3159  0.0334 -0.0501
 4990TIP3    H136605   3.779   3.739   2.510 -0.8717 -0.2500  0.8094
 4990TIP3    H236606   3.908   3.659   2.517 -0.2946  0.4600 -1.1396
 4991TIP3   OH236607   3.371   6.352   7.633 -0.2647  0.1659  0.5174
 4991TIP3    H136608   3.422   6.427   7.602 -0.8178  0.2091 -0.3384
 4991TIP3    H236609   3.401   6.337   7.722  2.2058 -0.6361 -0.3557
 4992TIP3   OH236610   5.188   5.906   8.230 -0.2314  0.7869  0.0761
 4992TIP3    H136611   5.172   5.845   8.158  0.4925 -0.0493  0.6083
 4992TIP3    H236612   5.265   5.871   8.275 -0.6623  1.3000  1.2555
 4993TIP3   OH236613   4.524   0.482   1.293  0.1513 -0.1207  0.2746
 4993TIP3    H136614   4.534   0.510   1.384  1.1882 -0.6106  0.3279
 4993TIP3    H236615   4.484   0.396   1.298  2.0825 -1.0687  0.4036
 4994TIP3   OH236616   4.210   2.690   2.357  0.1347  0.3629  0.2269
 4994TIP3    H136617   4.257   2.620   2.402 -0.7961 -0.7461 -0.4923
 4994TIP3    H236618   4.119   2.662   2.357 -0.3610  1.8630  0.4384
 4995TIP3   OH236619   6.591   6.157   0.244 -0.1027  0.3584 -0.3974
 4995TIP3    H136620   6.684   6.166   0.267 -0.4928 -0.3499  1.7342
 4995TIP3    H236621   6.586   6.185   0.153  2.0095  1.5142 -0.2308
 4996TIP3   OH236622   5.170   2.659   2.820 -0.2960  0.5997  0.0911
 4996TIP3    H136623   5.151   2.598   2.890 -0.9732  0.3226 -0.3257
 4996TIP3    H236624   5.122   2.739   2.844  1.9655  1.6163  1.5281
 4997TIP3   OH236625   2.991   6.688   0.629 -0.2300  0.0109  0.0487
 4997TIP3    H136626   2.961   6.753   0.565  1.5725  2.1097  1.2188
 4997TIP3    H236627   3.058   6.638   0.582  0.5647  1.0669  0.0027
 4998TIP3   OH236628   2.195   0.790   1.599 -0.7152 -0.0531  0.4638
 4998TIP3    H136629   2.129   0.811   1.533  0.5239  0.7883 -0.5461
 4998TIP3    H236630   2.196   0.694   1.602  1.0432 -0.2847 -2.7706
 4999TIP3   OH236631   4.849   3.682   1.129  0.4048 -0.1933 -0.3752
 4999TIP3    H136632   4.822   3.764   1.171 -0.4607 -0.0487 -1.1581
 4999TIP3    H236633   4.832   3.697   1.036 -0.3122 -1.4701 -0.4701
 5000TIP3   OH236634   1.419   3.512   7.805 -0.3366  0.5073  0.2425
 5000TIP3    H136635   1.353   3.497   7.737 -1.0977 -0.0242  1.0723
 5000TIP3    H236636   1.402   3.602   7.835  0.5663  1.0598 -0.8522
 5001TIP3   OH236637   5.745   6.499   8.252 -0.0894  0.3820  0.2797
 5001TIP3    H136638   5.773   6.590   8.239  0.3884  0.3399  0.9418
 5001TIP3    H236639   5.656   6.506   8.286 -0.0750  0.6014  0.2750
 5002TIP3   OH236640   1.650   6.745   2.488  0.0525 -0.5611 -0.3311
 5002TIP3    H136641   1.593   6.698   2.427  0.1959 -0.7448 -0.3270
 5002TIP3    H236642   1.729   6.691   2.493 -0.1908 -0.8658  0.4739
 5003TIP3   OH236643   1.197   5.634   2.811 -0.1251 -0.1077 -0.0213
 5003TIP3    H136644   1.261   5.577   2.853 -1.9245 -1.3165  1.2590
 5003TIP3    H236645   1.213   5.720   2.850  0.1059 -0.6021  1.0162
 5004TIP3   OH236646   4.854   3.538   2.154  0.5058 -0.2887 -0.5621
 5004TIP3    H136647   4.884   3.620   2.192 -0.2183 -0.0560 -0.4843
 5004TIP3    H236648   4.934   3.488   2.137  0.9550  0.5164 -0.8159
 5005TIP3   OH236649   4.673   2.524   3.378 -0.2446 -0.0824 -0.3081
 5005TIP3    H136650   4.741   2.469   3.416 -0.8150 -0.7690 -0.2692
 5005TIP3    H236651   4.653   2.589   3.446 -0.3096 -0.4777  0.0538
 5006TIP3   OH236652   3.040   3.979   1.449 -0.0855 -0.7256 -0.4189
 5006TIP3    H136653   3.112   3.973   1.386 -0.3337 -2.7661 -0.5557
 5006TIP3    H236654   2.967   3.934   1.407 -1.6180  1.5502 -0.4177
 5007TIP3   OH236655   6.074   1.476   2.003 -0.1093  0.4044 -0.0805
 5007TIP3    H136656   6.114   1.556   1.968  1.4459 -0.5916 -0.6525
 5007TIP3    H236657   6.141   1.409   1.994 -1.3106 -0.9467  0.5871
 5008TIP3   OH236658   4.047   1.059   1.806  0.2352 -0.3072  0.1427
 5008TIP3    H136659   4.029   1.031   1.716  0.0382 -0.8099  0.3312
 5008TIP3    H236660   4.029   0.981   1.859 -0.6977  0.2773  0.7339
 5009TIP3   OH236661   1.749   0.342   0.978  0.0445  0.1847 -0.2088
 5009TIP3    H136662   1.821   0.351   0.915  0.2495  1.3163  0.1642
 5009TIP3    H236663   1.722   0.250   0.971  1.9259 -0.4409  0.0879
 5010TIP3   OH236664   3.022   1.106   7.845  0.2767 -0.2334 -0.2632
 5010TIP3    H136665   3.014   1.037   7.911  3.7461 -0.1961  0.3953
 5010TIP3    H236666   2.979   1.182   7.883 -2.5296 -1.5989 -0.4769
 5011TIP3   OH236667   1.742   1.316   3.344 -0.5275 -0.5814 -0.4246
 5011TIP3    H136668   1.798   1.324   3.267  0.0402  0.5174  0.0745
 5011TIP3    H236669   1.699   1.401   3.352 -1.8546 -1.2354 -0.4739
 5012TIP3   OH236670   2.826   3.965   0.451 -0.2932 -0.1274 -0.0599
 5012TIP3    H136671   2.845   3.913   0.529  2.1677  2.4155  1.1932
 5012TIP3    H236672   2.810   4.053   0.483  2.1589  1.3380 -2.4196
 5013TIP3   OH236673   5.184   0.846   8.769  0.6246 -0.4885  0.0265
 5013TIP3    H136674   5.123   0.889   8.828  0.5946 -2.1902  1.2919
 5013TIP3    H236675   5.136   0.837   8.687  0.2705  0.8844  0.0671
 5014TIP3   OH236676   4.052   6.623   0.406 -0.0847 -0.2515  0.1984
 5014TIP3    H136677   4.057   6.603   0.499  3.2260  0.2545  0.2541
 5014TIP3    H236678   4.114   6.694   0.393 -1.4223  0.5869 -2.2272
 5015TIP3   OH236679   3.416   1.505   1.955 -0.8494  0.1762  0.5306
 5015TIP3    H136680   3.490   1.552   1.994 -0.6198  2.1983 -2.0295
 5015TIP3    H236681   3.341   1.564   1.967 -1.8084 -1.2555  1.9122
 5016TIP3   OH236682   0.998   0.014   2.320  0.0412 -0.3543 -0.3781
 5016TIP3    H136683   1.060  -0.059   2.325 -0.4615 -0.7258  1.4250
 5016TIP3    H236684   1.008   0.059   2.404 -0.0945  1.3022 -1.2236
 5017TIP3   OH236685   3.333   1.321   0.881  0.4238 -0.6893  0.5574
 5017TIP3    H136686   3.329   1.284   0.970  0.0516  1.0761  1.3273
 5017TIP3    H236687   3.296   1.409   0.891  0.3721 -0.4625 -1.3694
 5018TIP3   OH236688   4.690   2.492   0.893 -0.8424  0.3307  0.8343
 5018TIP3    H136689   4.743   2.413   0.899 -0.6487  0.3044 -0.8476
 5018TIP3    H236690   4.751   2.563   0.910 -0.7466  0.1918  1.0784
 5019TIP3   OH236691   6.149   1.384   0.810 -0.5200 -0.3136 -0.1306
 5019TIP3    H136692   6.079   1.318   0.805 -0.7243 -0.1003 -0.1108
 5019TIP3    H236693   6.141   1.433   0.727 -1.3807  0.6920  0.5181
 5020TIP3   OH236694   5.143   0.479   0.737  0.2640  0.4623 -0.3965
 5020TIP3    H136695   5.166   0.394   0.699  1.7094  1.3432 -1.5929
 5020TIP3    H236696   5.114   0.459   0.826  0.4208 -1.2943 -0.7130
 5021TIP3   OH236697   0.071   3.105   8.649  0.0392  0.0931  0.6528
 5021TIP3    H136698   0.120   3.155   8.585 -0.6283 -1.0060 -0.7806
 5021TIP3    H236699   0.018   3.170   8.696 -0.1028  0.8389 -0.5086
 5022TIP3   OH236700   2.343   3.897   8.173 -0.5438 -0.0729  0.0359
 5022TIP3    H136701   2.290   3.884   8.094  2.1020  1.0460 -2.0854
 5022TIP3    H236702   2.418   3.838   8.162  0.4426  0.9026  1.1499
 5023TIP3   OH236703   0.049   2.063   2.684  0.8260  0.2816  0.1675
 5023TIP3    H136704   0.049   2.131   2.616  0.3788  0.7483  0.6225
 5023TIP3    H236705   0.016   2.108   2.762  0.4176 -0.4940  0.4464
 5024TIP3   OH236706   3.261   3.056   8.121 -0.4394  0.0997 -0.3202
 5024TIP3    H136707   3.321   3.095   8.056 -0.4916  0.1183 -0.3575
 5024TIP3    H236708   3.319   3.024   8.190 -0.0627 -2.9408 -1.8912
 5025TIP3   OH236709   3.399   2.880   1.358  0.4936 -0.6025 -0.5757
 5025TIP3    H136710   3.353   2.951   1.404 -0.9723 -0.6037 -1.9685
 5025TIP3    H236711   3.431   2.823   1.428 -0.4396  0.1376  0.4910
 5026TIP3   OH236712   1.664   2.022   2.214 -0.0967  0.0694 -0.4422
 5026TIP3    H136713   1.721   1.946   2.206 -1.5329 -1.0554 -0.5305
 5026TIP3    H236714   1.698   2.085   2.151  3.1157  0.8830  1.8621
 5027TIP3   OH236715   4.852   4.036   0.657  0.3694  0.3882  0.2075
 5027TIP3    H136716   4.851   3.940   0.654 -1.7045  0.3174  1.3016
 5027TIP3    H236717   4.791   4.062   0.588  3.3236  1.1324 -2.3354
 5028TIP3   OH236718   0.974   2.382   8.079  0.4289 -0.4547  0.5353
 5028TIP3    H136719   0.899   2.357   8.025 -1.1310  1.5813  1.6192
 5028TIP3    H236720   0.998   2.302   8.125 -0.6676 -1.3031 -0.3225
 5029TIP3   OH236721   6.162   6.318   1.688  0.4338 -0.6860 -0.5683
 5029TIP3    H136722   6.152   6.296   1.595  2.1382  1.7453 -1.4301
 5029TIP3    H236723   6.221   6.394   1.688  0.1298 -0.3474  2.4918
 5030TIP3   OH236724   5.720   5.700   2.253  0.3509  0.3018 -0.4269
 5030TIP3    H136725   5.738   5.657   2.169  4.0537  0.8106 -0.0844
 5030TIP3    H236726   5.761   5.786   2.245  0.9224  0.3067  1.9043
 5031TIP3   OH236727   3.267   5.300   7.906 -0.0693  0.2223  0.0938
 5031TIP3    H136728   3.179   5.315   7.939 -1.1980 -0.0175 -2.5769
 5031TIP3    H236729   3.273   5.205   7.896  0.9060  0.1380  1.1718
 5032TIP3   OH236730   2.489   6.736   8.129 -0.1535 -0.2296 -0.5714
 5032TIP3    H136731   2.544   6.771   8.200 -0.4498 -0.4248 -0.2412
 5032TIP3    H236732   2.551   6.715   8.059  0.6577 -3.2324  0.8686
 5033TIP3   OH236733   3.610   3.947   7.036 -0.2248  0.5558 -0.5749
 5033TIP3    H136734   3.533   3.954   7.093 -0.0491  0.6347 -0.3503
 5033TIP3    H236735   3.596   4.015   6.970 -0.1925  0.7830 -0.3495
 5034TIP3   OH236736   2.088   4.970   3.018 -0.1566  0.4605  0.4339
 5034TIP3    H136737   2.019   4.906   2.996  0.8714 -0.2186 -0.9343
 5034TIP3    H236738   2.153   4.919   3.067  1.0532  0.2092 -1.3465
 5035TIP3   OH236739   2.106   0.803   2.457  0.7002 -0.0763 -0.4349
 5035TIP3    H136740   2.076   0.718   2.425  0.1980  0.7577 -2.3201
 5035TIP3    H236741   2.124   0.789   2.550 -1.3176 -1.7300 -0.2207
 5036TIP3   OH236742   3.529   3.136   1.816  0.2105 -0.2125 -0.4008
 5036TIP3    H136743   3.558   3.053   1.854  0.2400  1.1140  2.7468
 5036TIP3    H236744   3.434   3.136   1.826  0.2649  0.3601  0.2095
 5037TIP3   OH236745   0.934   5.503   3.482 -0.0915 -0.1965 -0.2897
 5037TIP3    H136746   0.961   5.471   3.396 -2.0129 -0.6050 -0.7838
 5037TIP3    H236747   0.908   5.424   3.529  0.4853  0.0827  0.5105
 5038TIP3   OH236748   3.736   4.239   7.715  0.0632  0.2621 -0.0328
 5038TIP3    H136749   3.752   4.145   7.726 -0.3885  0.1722 -0.1658
 5038TIP3    H236750   3.641   4.248   7.716  0.1102  0.7559  0.2903
 5039TIP3   OH236751   4.879   4.793   8.682 -0.0721  0.5346 -0.0582
 5039TIP3    H136752   4.926   4.729   8.735  0.4126  0.5948 -0.4159
 5039TIP3    H236753   4.818   4.741   8.630 -0.7568  0.4969  0.7584
 5040TIP3   OH236754   5.145   4.227   0.147  0.1486  0.5620  0.1820
 5040TIP3    H136755   5.060   4.260   0.119  1.4528  3.5648 -0.6358
 5040TIP3    H236756   5.163   4.274   0.229 -0.8355 -3.4150  2.9786
 5041TIP3   OH236757   1.119   5.549   0.781  0.1976 -1.0403  0.1310
 5041TIP3    H136758   1.039   5.583   0.741  1.7545  1.9360 -0.7971
 5041TIP3    H236759   1.111   5.454   0.774 -2.3280 -0.7901 -1.7728
 5042TIP3   OH236760   0.391   3.444   8.384  0.7315 -0.0345 -0.0823
 5042TIP3    H136761   0.472   3.407   8.419  0.4002 -0.8711 -0.1662
 5042TIP3    H236762   0.420   3.509   8.320  1.3603 -0.9489 -0.7663
 5043TIP3   OH236763   5.629   6.423   1.423 -0.1295 -0.3610  0.2147
 5043TIP3    H136764   5.662   6.436   1.334  1.2867  0.0402  0.7659
 5043TIP3    H236765   5.594   6.508   1.448 -0.2660 -0.3961  0.1425
 5044TIP3   OH236766   2.442   2.482   0.061 -0.2200  0.1382 -0.1755
 5044TIP3    H136767   2.466   2.478  -0.031 -1.8330 -0.0911 -0.6155
 5044TIP3    H236768   2.435   2.576   0.080  3.1936  0.3698  0.6342
 5045TIP3   OH236769   4.646   0.390   2.013 -0.5536 -0.2503 -0.2670
 5045TIP3    H136770   4.679   0.331   1.945  1.0821  1.2957 -0.9040
 5045TIP3    H236771   4.716   0.455   2.024 -1.4118  0.3901  1.8675
 5046TIP3   OH236772   5.489   4.211   1.016  0.3882 -0.3118 -0.3392
 5046TIP3    H136773   5.546   4.287   1.031  0.0582  0.1077 -1.1391
 5046TIP3    H236774   5.436   4.236   0.940 -0.6236 -0.8301  0.1747
 5047TIP3   OH236775   4.137   1.818   0.989 -0.1261 -0.1659  0.2362
 5047TIP3    H136776   4.095   1.903   0.976 -0.8329 -0.5087  0.2128
 5047TIP3    H236777   4.074   1.755   0.955  0.0714 -0.7504  0.9209
 5048TIP3   OH236778   4.874   3.254   1.743  0.2058  0.1003 -0.2549
 5048TIP3    H136779   4.889   3.162   1.766 -0.4457 -0.0754 -0.4878
 5048TIP3    H236780   4.832   3.291   1.821 -1.3157 -0.3071 -0.8304
 5049TIP3   OH236781   2.160   0.823   1.871 -0.7530 -0.1289  0.1595
 5049TIP3    H136782   2.168   0.835   1.777 -2.8742 -1.9362 -0.3558
 5049TIP3    H236783   2.112   0.900   1.901  1.5213  1.3661  0.1449
 5050TIP3   OH236784   3.265   2.581   1.107  0.2128 -0.0792  0.5657
 5050TIP3    H136785   3.297   2.529   1.181  0.4228 -0.8359 -0.0395
 5050TIP3    H236786   3.223   2.517   1.049 -0.2103  0.5468  0.1733
 5051TIP3   OH236787   1.094   1.684   0.072  0.5361  0.3043  0.1739
 5051TIP3    H136788   1.008   1.659   0.107  0.2375 -1.0460 -1.3696
 5051TIP3    H236789   1.082   1.774   0.042  0.1121  0.6414  1.2917
 5052TIP3   OH236790   2.645   0.553   1.235 -0.7633 -0.3815  0.2360
 5052TIP3    H136791   2.650   0.499   1.314 -1.0601 -0.1079  0.4447
 5052TIP3    H236792   2.586   0.624   1.259 -0.0154  0.2924  0.1166
 5053TIP3   OH236793   1.011   0.032   3.413  0.6714 -0.4646  0.1842
 5053TIP3    H136794   1.057  -0.051   3.426  1.5990 -0.6245 -3.1796
 5053TIP3    H236795   0.939   0.011   3.354 -1.0097  0.6645  1.6936
 5054TIP3   OH236796   5.718   3.420   1.887 -0.0961 -0.7597 -0.2308
 5054TIP3    H136797   5.671   3.456   1.811 -0.0646 -1.7291 -0.7233
 5054TIP3    H236798   5.683   3.468   1.962 -0.3511 -0.0027 -0.8230
 5055TIP3   OH236799   0.161   2.827   1.663 -0.0484  0.1768  0.0299
 5055TIP3    H136800   0.086   2.772   1.640 -0.5077  0.2892  1.1528
 5055TIP3    H236801   0.154   2.836   1.759  1.9795 -0.6550  0.2897
 5056TIP3   OH236802   4.524   4.882   3.139  0.3229  0.2129  0.2926
 5056TIP3    H136803   4.531   4.973   3.168  1.6679  0.0356  0.5785
 5056TIP3    H236804   4.445   4.849   3.183 -0.3855  1.3329 -0.1060
 5057TIP3   OH236805   0.824   3.951   2.417 -0.0090  0.2687  0.1063
 5057TIP3    H136806   0.875   4.027   2.389 -0.5743  0.4173 -0.5782
 5057TIP3    H236807   0.811   3.901   2.336  0.0276 -0.3503  0.4818
 5058TIP3   OH236808   1.666   1.500   8.282  0.4364 -0.3649  0.1513
 5058TIP3    H136809   1.582   1.481   8.239  0.6379 -1.1042  0.0782
 5058TIP3    H236810   1.657   1.591   8.311 -0.8408 -0.7999  1.1965
 5059TIP3   OH236811   4.097   4.766   2.738  0.8023  0.3195  0.6377
 5059TIP3    H136812   4.165   4.701   2.758  1.2288 -0.7963 -3.4419
 5059TIP3    H236813   4.138   4.850   2.757  2.9980 -0.3772 -0.5683
 5060TIP3   OH236814   4.096   5.298   7.339 -0.0959 -0.6378 -0.6192
 5060TIP3    H136815   4.154   5.313   7.413 -0.3762 -2.5965  0.0459
 5060TIP3    H236816   4.052   5.383   7.326  1.6276  0.3905 -0.0590
 5061TIP3   OH236817   2.107   4.667   8.545  0.5646 -0.4310 -0.1340
 5061TIP3    H136818   2.101   4.621   8.462 -0.0308  0.2311 -0.4700
 5061TIP3    H236819   2.190   4.638   8.583  0.5677 -1.1657 -0.6956
 5062TIP3   OH236820   5.323   3.468   1.149 -0.5889 -0.1611  0.0759
 5062TIP3    H136821   5.316   3.551   1.102 -0.5332 -1.4535 -2.3680
 5062TIP3    H236822   5.385   3.417   1.098  1.0381 -1.0149  2.7062
 5063TIP3   OH236823   2.507   3.454   8.486 -0.5449 -0.4182 -0.4216
 5063TIP3    H136824   2.562   3.376   8.478 -0.4332 -0.3126 -0.7201
 5063TIP3    H236825   2.426   3.423   8.527 -0.4492 -0.6649 -0.4169
 5064TIP3   OH236826   3.064   3.347   2.504 -0.0192  0.5343 -0.7541
 5064TIP3    H136827   3.047   3.276   2.442 -0.9413  0.3538 -0.3128
 5064TIP3    H236828   3.072   3.303   2.589  2.4875  0.6350 -0.8723
 5065TIP3   OH236829   5.708   2.190   7.730  0.2017  0.4512 -0.0924
 5065TIP3    H136830   5.638   2.133   7.696  0.6349  0.5109 -1.1321
 5065TIP3    H236831   5.782   2.131   7.744  1.1451  0.9211 -2.6130
 5066TIP3   OH236832   0.038   5.571   2.091 -0.2384  0.4913 -0.3254
 5066TIP3    H136833   0.130   5.544   2.088 -0.3794  0.0188 -0.5117
 5066TIP3    H236834   0.026   5.607   2.179 -0.3348 -1.0951  0.3317
 5067TIP3   OH236835   1.314   6.297   8.648  0.6972 -0.1042  0.0918
 5067TIP3    H136836   1.233   6.296   8.596  0.8018 -0.8369 -0.0581
 5067TIP3    H236837   1.364   6.222   8.616  0.6660 -0.7141  1.4070
 5068TIP3   OH236838   0.885   1.330   0.276 -0.6042  0.1584  0.0086
 5068TIP3    H136839   0.833   1.271   0.222 -1.8512  1.1182  0.1105
 5068TIP3    H236840   0.845   1.416   0.264  2.2162  1.4059 -1.5375
 5069TIP3   OH236841   2.175   5.176   0.285  0.9284  0.1553  0.3095
 5069TIP3    H136842   2.120   5.251   0.263  0.7810 -0.2412 -0.7360
 5069TIP3    H236843   2.211   5.197   0.371 -0.5142  0.6134  0.8250
 5070TIP3   OH236844   2.057   4.472   1.590  0.2680  0.2821 -0.0726
 5070TIP3    H136845   2.143   4.512   1.575  0.8733 -0.5703  1.0130
 5070TIP3    H236846   2.011   4.534   1.646  0.0071  0.9222 -0.9666
 5071TIP3   OH236847   5.561   3.697   1.876 -0.7356 -0.2739 -0.4607
 5071TIP3    H136848   5.655   3.685   1.868  0.0634  4.0502 -0.1875
 5071TIP3    H236849   5.529   3.699   1.786  0.1122  1.5989 -0.7655
 5072TIP3   OH236850   2.293   1.721   0.109 -0.1153  0.1252  0.0061
 5072TIP3    H136851   2.233   1.718   0.183  0.4647 -1.8674  0.4629
 5072TIP3    H236852   2.238   1.712   0.032 -0.4620 -1.8270  0.4245
 5073TIP3   OH236853   0.269   3.579   2.025  0.0216  0.3644  0.2172
 5073TIP3    H136854   0.357   3.613   2.016 -0.5408  1.4434 -1.7493
 5073TIP3    H236855   0.276   3.486   2.003  0.6318  0.4855 -0.1023
 5074TIP3   OH236856   6.200   4.806   8.314  0.2593 -0.0081 -0.6846
 5074TIP3    H136857   6.121   4.772   8.355  1.2830 -0.9198  0.6046
 5074TIP3    H236858   6.230   4.875   8.374  1.9319 -1.5504  0.3602
 5075TIP3   OH236859   4.919   5.980   3.359  0.1972  0.0189  0.5504
 5075TIP3    H136860   4.979   6.050   3.337  0.3530 -0.0656  0.7017
 5075TIP3    H236861   4.971   5.900   3.350 -0.0759 -0.1048  0.0326
 5076TIP3   OH236862   5.722   0.890   2.645 -0.2059  0.3609  0.4133
 5076TIP3    H136863   5.682   0.861   2.726 -0.2679 -0.7403  0.0034
 5076TIP3    H236864   5.799   0.833   2.634 -0.7758 -0.2048 -0.8109
 5077TIP3   OH236865   2.649   5.016   8.446 -0.0027  0.6394 -0.3746
 5077TIP3    H136866   2.677   5.069   8.521 -0.7811  0.7477 -0.1563
 5077TIP3    H236867   2.728   5.009   8.392  0.8925 -0.4074  0.9974
 5078TIP3   OH236868   5.121   1.403   0.294  0.1198  0.2312 -0.0153
 5078TIP3    H136869   5.210   1.410   0.260  0.4791 -2.2452  0.2132
 5078TIP3    H236870   5.089   1.320   0.260 -1.4133  0.1678  1.4488
 5079TIP3   OH236871   2.605   2.584   0.288  0.1061  0.0869 -0.0244
 5079TIP3    H136872   2.568   2.659   0.335 -0.1881 -1.5204  2.5195
 5079TIP3    H236873   2.529   2.530   0.265  0.2418  0.8425 -2.5139
 5080TIP3   OH236874   3.038   2.492   2.709 -0.0426 -0.2148  0.2124
 5080TIP3    H136875   3.063   2.584   2.701  0.1454  0.2406  4.1878
 5080TIP3    H236876   3.111   2.451   2.755 -0.1269 -2.4214 -1.4747
 5081TIP3   OH236877   4.473   4.671   8.343  0.3773  0.1484  0.4345
 5081TIP3    H136878   4.473   4.642   8.252  2.1198 -0.1507  0.4798
 5081TIP3    H236879   4.438   4.760   8.340 -2.2651 -0.8468 -0.1043
 5082TIP3   OH236880   1.057   5.019   1.907  0.7523 -0.1176  0.5377
 5082TIP3    H136881   1.066   4.968   1.827  1.7067  0.5370  0.2049
 5082TIP3    H236882   0.964   5.040   1.912  0.5190 -1.0141  0.1463
 5083TIP3   OH236883   6.447   5.631   2.519 -0.2006 -0.6362  0.0979
 5083TIP3    H136884   6.513   5.616   2.587 -0.7080  0.8508  0.9880
 5083TIP3    H236885   6.438   5.727   2.517  0.3920 -0.5671 -2.6787
 5084TIP3   OH236886   2.144   3.197   2.276  0.0448 -0.0879 -0.0924
 5084TIP3    H136887   2.143   3.175   2.183 -1.6819 -0.6187  0.0184
 5084TIP3    H236888   2.067   3.154   2.312  0.1012  0.9745  1.3921
 5085TIP3   OH236889   0.787   3.092   3.185  0.1619  0.0039  0.4812
 5085TIP3    H136890   0.856   3.148   3.222  0.7769 -1.0436  0.9622
 5085TIP3    H236891   0.818   3.003   3.200 -0.6433 -0.4753 -0.5728
 5086TIP3   OH236892   3.270   6.315   2.641  0.3450 -0.2968  0.0188
 5086TIP3    H136893   3.360   6.323   2.610  0.1005 -0.0932 -0.6523
 5086TIP3    H236894   3.273   6.245   2.706  0.4830 -2.2759 -2.0126
 5087TIP3   OH236895   0.764   1.983   1.318 -0.1927 -0.2743  0.5647
 5087TIP3    H136896   0.846   1.948   1.283  0.3990  1.4889  0.0833
 5087TIP3    H236897   0.776   1.982   1.413 -0.2015 -1.3261  0.5715
 5088TIP3   OH236898   4.593   5.688   8.590  0.4331  0.1289 -0.2549
 5088TIP3    H136899   4.684   5.660   8.584  0.0262 -1.9067  1.6914
 5088TIP3    H236900   4.546   5.611   8.622 -1.8818  1.3142 -0.5600
 5089TIP3   OH236901   1.793   5.440   0.372  0.1600  0.3517  0.1810
 5089TIP3    H136902   1.716   5.407   0.418 -0.1482  1.5336  0.5483
 5089TIP3    H236903   1.763   5.521   0.329  0.6657 -0.2326 -1.3667
 5090TIP3   OH236904   1.422   4.832   1.829 -0.6717 -0.2708  0.2231
 5090TIP3    H136905   1.420   4.874   1.915 -0.5613  1.9171 -0.7756
 5090TIP3    H236906   1.405   4.903   1.768  2.4542 -1.1119 -1.8116
 5091TIP3   OH236907   5.895   2.335   1.071  0.7293  0.1987  0.1872
 5091TIP3    H136908   5.925   2.355   1.159  1.5742  0.1024 -0.0659
 5091TIP3    H236909   5.946   2.394   1.015  0.9745 -0.4769 -0.3160
 5092TIP3   OH236910   0.569   4.562   2.383 -0.0436 -0.1703  0.3960
 5092TIP3    H136911   0.546   4.469   2.394 -0.1830 -0.3273 -0.9625
 5092TIP3    H236912   0.490   4.609   2.411 -0.2395 -0.4927  0.3994
 5093TIP3   OH236913   2.044   3.277   7.608  0.2206 -0.2180 -0.5231
 5093TIP3    H136914   2.122   3.332   7.605 -0.3943  0.6524 -0.7586
 5093TIP3    H236915   1.971   3.337   7.591 -0.4828 -1.0569 -0.5274
 5094TIP3   OH236916   6.695   2.263   0.094  0.0521 -0.3397  0.3617
 5094TIP3    H136917   6.639   2.287   0.168  0.2002 -0.0677  0.3893
 5094TIP3    H236918   6.659   2.312   0.020 -0.9606 -1.6750 -0.0796
 5095TIP3   OH236919   0.767   0.292   2.653 -0.2294  0.2247  0.0090
 5095TIP3    H136920   0.757   0.197   2.661 -0.3613  0.1745 -0.6559
 5095TIP3    H236921   0.712   0.315   2.577 -0.2494  0.8390  0.2056
 5096TIP3   OH236922   6.524   2.266   1.159  0.1131 -0.2131  0.1951
 5096TIP3    H136923   6.548   2.174   1.166 -0.6925 -0.5172 -0.8520
 5096TIP3    H236924   6.452   2.276   1.221  1.0368  0.0439  1.2699
 5097TIP3   OH236925   1.350   1.020   3.037 -0.3428  0.2025 -0.8564
 5097TIP3    H136926   1.417   1.033   3.104  0.2767 -2.2325 -0.9202
 5097TIP3    H236927   1.391   1.049   2.955  0.6302 -1.1252 -0.8703
 5098TIP3   OH236928   6.058   0.007   1.597 -0.3345 -1.0378 -0.0929
 5098TIP3    H136929   6.141  -0.042   1.598  0.6526  0.5105 -1.6981
 5098TIP3    H236930   5.996  -0.054   1.558  0.2166 -1.9279  0.3550
 5099TIP3   OH236931   0.730   5.809   8.427 -0.3149 -0.6929 -0.2971
 5099TIP3    H136932   0.749   5.760   8.347 -1.8093 -1.1286 -0.4160
 5099TIP3    H236933   0.636   5.800   8.439 -0.0015 -1.5719  2.1414
 5100TIP3   OH236934   3.723   5.571   8.828  0.1071  0.0056 -0.3220
 5100TIP3    H136935   3.789   5.639   8.845 -0.7207  0.8195 -0.2803
 5100TIP3    H236936   3.662   5.612   8.766 -0.7490 -0.4803  0.1837
 5101TIP3   OH236937   4.462   4.048   8.331  0.1579  0.3473 -0.0424
 5101TIP3    H136938   4.504   4.130   8.305 -1.1094  1.1071  0.1956
 5101TIP3    H236939   4.502   3.982   8.275  2.1241  0.9008  0.6307
 5102TIP3   OH236940   6.593   1.075   2.684 -0.1025  0.2144 -0.1772
 5102TIP3    H136941   6.590   1.114   2.597 -2.2039  1.8298  0.5336
 5102TIP3    H236942   6.623   0.985   2.669 -2.9026 -0.4531 -2.9505
 5103TIP3   OH236943   0.688   1.814   7.574 -0.1330 -0.1134  0.2404
 5103TIP3    H136944   0.771   1.767   7.580  0.3443  0.6042 -0.5418
 5103TIP3    H236945   0.680   1.860   7.658 -0.4069 -1.2253  0.8508
 5104TIP3   OH236946   5.011   2.339   1.213 -0.1617 -0.7353  0.1722
 5104TIP3    H136947   5.096   2.346   1.169  0.2129 -0.8434  0.8646
 5104TIP3    H236948   5.023   2.268   1.276 -0.4603 -0.0952  0.9619
 5105TIP3   OH236949   5.111   5.174   7.895 -0.0303 -0.6748 -0.1824
 5105TIP3    H136950   5.108   5.081   7.920 -1.6357 -0.4796  0.4916
 5105TIP3    H236951   5.166   5.215   7.961 -0.9005 -0.8455  0.6651
 5106TIP3   OH236952   6.271   3.125   0.917 -0.4863  0.6534 -0.0371
 5106TIP3    H136953   6.279   3.108   0.823 -0.7178 -0.0180  0.0616
 5106TIP3    H236954   6.362   3.137   0.946 -0.2539 -0.8052 -0.0556
 5107TIP3   OH236955   3.692   2.185   8.709 -0.6155  0.2553 -0.4281
 5107TIP3    H136956   3.737   2.128   8.771 -0.2570  0.0565 -0.8622
 5107TIP3    H236957   3.722   2.273   8.731  0.3010  0.0885 -0.9616
 5108TIP3   OH236958   1.109   5.251   1.678  0.5454 -0.1335  0.3069
 5108TIP3    H136959   1.130   5.189   1.747 -1.6395  0.6954  1.8171
 5108TIP3    H236960   1.103   5.198   1.599 -3.2778 -2.4058  1.8483
 5109TIP3   OH236961   5.348   0.461   0.290 -0.5395 -0.7065 -0.2297
 5109TIP3    H136962   5.373   0.534   0.233  1.0165 -0.6441  0.4840
 5109TIP3    H236963   5.405   0.470   0.367 -0.9789 -2.1381  0.2924
 5110TIP3   OH236964   4.153   2.639   8.184  0.1043  0.0483 -0.5128
 5110TIP3    H136965   4.230   2.689   8.157 -0.6805  1.8015  0.3711
 5110TIP3    H236966   4.189   2.557   8.217  1.7165  1.1864  0.7285
 5111TIP3   OH236967   0.418   5.561   8.078  0.8742  0.1876  0.1692
 5111TIP3    H136968   0.425   5.656   8.064 -0.1877  0.3372  0.5621
 5111TIP3    H236969   0.369   5.529   8.003 -0.3305  0.2333  0.9033
 5112TIP3   OH236970   3.220   0.230   8.130 -0.0165 -0.7088 -0.5551
 5112TIP3    H136971   3.278   0.181   8.072 -0.8547 -0.8984 -1.2598
 5112TIP3    H236972   3.156   0.269   8.071  2.5282  4.2076 -0.5307
 5113TIP3   OH236973   0.435   4.601   0.700  0.1956 -0.5466 -0.4578
 5113TIP3    H136974   0.351   4.641   0.720  0.7996 -0.5072  2.2767
 5113TIP3    H236975   0.412   4.514   0.665 -1.0152 -0.9884  1.2901
 5114TIP3   OH236976   0.268   0.390   0.974 -0.3456 -0.0929  0.5688
 5114TIP3    H136977   0.240   0.326   1.040 -1.3497  0.0763  0.3253
 5114TIP3    H236978   0.188   0.439   0.953  0.7140  2.4501  2.0285
 5115TIP3   OH236979   6.411   5.819   3.689 -0.2464  0.8382  0.4973
 5115TIP3    H136980   6.409   5.728   3.720  0.9429  0.2620 -0.9643
 5115TIP3    H236981   6.499   5.850   3.711 -0.3984  1.3821  0.3437
 5116TIP3   OH236982   6.617   0.858   0.468  0.0484 -0.2604 -0.2235
 5116TIP3    H136983   6.678   0.923   0.502  1.5028 -0.3178 -2.5371
 5116TIP3    H236984   6.558   0.907   0.411  0.8245 -0.8417 -1.5654
 5117TIP3   OH236985   4.844   3.115   0.319 -0.1847  0.0528  0.0267
 5117TIP3    H136986   4.940   3.121   0.313 -0.0444  1.0316  2.1683
 5117TIP3    H236987   4.829   3.047   0.384 -1.0251 -0.9744 -1.1985
 5118TIP3   OH236988   6.438   0.801   7.346 -0.1772  0.0766 -0.2864
 5118TIP3    H136989   6.506   0.762   7.290 -0.3823 -0.2952 -0.2848
 5118TIP3    H236990   6.462   0.893   7.354  0.6356 -0.1669  0.1736
 5119TIP3   OH236991   3.432   4.099   2.304  0.7444 -0.2178 -0.0245
 5119TIP3    H136992   3.352   4.051   2.285  0.3232  1.3319 -2.6507
 5119TIP3    H236993   3.492   4.074   2.233  1.7614  0.4019  0.5907
 5120TIP3   OH236994   2.274   2.498   2.492  0.3747  0.5274 -0.9817
 5120TIP3    H136995   2.185   2.520   2.520  0.3774 -1.0870  0.4358
 5120TIP3    H236996   2.271   2.404   2.473  2.0308  0.1714  0.2454
 5121TIP3   OH236997   6.013   4.751   8.564  0.2261  0.3361 -0.6640
 5121TIP3    H136998   5.995   4.673   8.512  0.1679 -0.4285  0.4540
 5121TIP3    H236999   5.927   4.792   8.577 -0.4208 -1.5729  1.9875
 5122TIP3   OH237000   1.445   2.944   8.186  0.5544 -0.4964  0.1068
 5122TIP3    H137001   1.454   3.031   8.146  2.0975  0.3485  2.1155
 5122TIP3    H237002   1.498   2.887   8.130  1.6017  0.3858  0.1557
 5123TIP3   OH237003   2.308   1.169   0.104  0.3675 -0.5414  0.1935
 5123TIP3    H137004   2.228   1.209   0.071  0.0468 -0.2948  1.2354
 5123TIP3    H237005   2.286   1.076   0.114 -0.6167 -0.1006  2.7791
 5124TIP3   OH237006   0.144   3.021   1.067  0.5049  0.0926  0.2379
 5124TIP3    H137007   0.074   3.013   1.002  1.0463 -2.2263 -0.1547
 5124TIP3    H237008   0.220   3.052   1.016  0.2539  0.8428  0.3087
 5125TIP3   OH237009   4.412   2.949   8.798  0.0478  0.2736 -0.2690
 5125TIP3    H137010   4.436   2.951   8.706  1.0293  1.2629 -0.0175
 5125TIP3    H237011   4.460   2.875   8.834  0.3008  0.3757 -0.3964
 5126TIP3   OH237012   0.833   1.149   1.145  0.2494 -0.0272  0.2127
 5126TIP3    H137013   0.850   1.096   1.067  2.7066  0.0071  0.6474
 5126TIP3    H237014   0.763   1.209   1.119  0.8424 -0.1856 -1.9044
 5127TIP3   OH237015   0.243   5.592   2.974  0.0949  0.0958 -0.2222
 5127TIP3    H137016   0.158   5.636   2.969  0.9487  1.8551 -0.1187
 5127TIP3    H237017   0.292   5.627   2.900  1.1227  0.0348  0.4097
 5128TIP3   OH237018   3.062   4.318   1.364 -0.6547  0.0956 -0.2083
 5128TIP3    H137019   3.144   4.356   1.333 -0.2691 -1.3244 -0.9686
 5128TIP3    H237020   3.086   4.274   1.446 -0.4979 -0.8833 -0.7670
 5129TIP3   OH237021   4.087   2.322   7.236  0.4744  0.4955  0.3429
 5129TIP3    H137022   4.014   2.261   7.224 -0.5342  1.6790  0.2125
 5129TIP3    H237023   4.056   2.404   7.198  3.2141  0.2127 -2.9990
 5130TIP3   OH237024   5.742   4.954   7.616 -0.0570 -0.4442 -0.4270
 5130TIP3    H137025   5.817   4.957   7.675  0.7711 -1.1720 -1.4174
 5130TIP3    H237026   5.743   4.865   7.580 -0.1567  0.1582 -2.0034
 5131TIP3   OH237027   4.654   5.367   2.590  0.2851 -0.1781 -0.1398
 5131TIP3    H137028   4.717   5.308   2.630 -0.2024  1.1025  2.7630
 5131TIP3    H237029   4.707   5.440   2.557  0.5225 -0.3219 -0.0790
 5132TIP3   OH237030   3.924   3.935   0.459 -0.1281 -0.1755  0.0874
 5132TIP3    H137031   3.979   3.942   0.537  0.5267  1.4732 -0.4704
 5132TIP3    H237032   3.983   3.903   0.391 -0.2680  0.0509 -0.1396
 5133TIP3   OH237033   3.499   6.607   1.478 -0.3467 -0.1282 -0.4626
 5133TIP3    H137034   3.592   6.626   1.469 -0.6853  1.2626 -1.5649
 5133TIP3    H237035   3.473   6.653   1.558 -0.5492  1.7239 -1.5192
 5134TIP3   OH237036   4.050   5.582   2.522  0.1122  0.4270 -0.4635
 5134TIP3    H137037   4.020   5.643   2.454  0.1098  1.2289  0.2450
 5134TIP3    H237038   4.036   5.495   2.484 -0.7235  0.8455 -1.1445
 5135TIP3   OH237039   1.856   4.073   8.358 -0.6365  0.3192 -0.0814
 5135TIP3    H137040   1.842   4.167   8.345  2.2345  0.9408  0.6223
 5135TIP3    H237041   1.859   4.037   8.270  0.0487  1.2300 -0.4527
 5136TIP3   OH237042   3.407   0.765   1.239 -0.0518  0.2779 -0.5920
 5136TIP3    H137043   3.415   0.741   1.332 -0.0989 -2.4967 -1.1989
 5136TIP3    H237044   3.316   0.748   1.218  0.1390  0.1509 -1.3256
 5137TIP3   OH237045   4.830   6.348   7.278 -0.5735 -0.2937  0.0046
 5137TIP3    H137046   4.774   6.360   7.355 -0.6515 -1.6045  0.1743
 5137TIP3    H237047   4.777   6.381   7.205 -1.3956 -1.0603  0.2330
 5138TIP3   OH237048   4.576   6.427   0.753 -0.6548 -0.2563 -0.1340
 5138TIP3    H137049   4.661   6.383   0.761  0.3440  1.4900 -0.6907
 5138TIP3    H237050   4.575   6.462   0.664 -1.2201  1.1890  0.4056
 5139TIP3   OH237051   4.343   0.200   8.388  0.1817  0.0529 -0.0204
 5139TIP3    H137052   4.388   0.283   8.370  0.1451  0.0124 -0.2931
 5139TIP3    H237053   4.291   0.183   8.310 -0.2483  0.0550  0.2651
 5140TIP3   OH237054   2.721   2.831   0.624  0.4012 -0.1051  0.0826
 5140TIP3    H137055   2.633   2.840   0.587 -0.2419 -1.7941  1.0585
 5140TIP3    H237056   2.768   2.908   0.594 -1.9599  1.8482  1.0141
 5141TIP3   OH237057   6.553   6.692   3.222  0.1810  0.0330 -0.5070
 5141TIP3    H137058   6.467   6.715   3.188 -0.0189  2.1499  1.1912
 5141TIP3    H237059   6.557   6.597   3.218 -3.0732 -0.2927  1.2399
 5142TIP3   OH237060   3.098   3.281   1.483  0.1171  0.4815 -0.4607
 5142TIP3    H137061   3.156   3.282   1.560  0.8077  2.6947 -0.9490
 5142TIP3    H237062   3.028   3.220   1.507  0.1859  1.2700  2.0313
 5143TIP3   OH237063   2.456   1.814   1.520  0.5422  0.2946  0.3119
 5143TIP3    H137064   2.462   1.894   1.572  1.7181 -0.2458  1.0581
 5143TIP3    H237065   2.465   1.844   1.429 -1.8534  1.2840  0.3488
 5144TIP3   OH237066   1.005   4.724   2.051  0.1794 -0.4301 -0.3722
 5144TIP3    H137067   1.002   4.814   2.085 -0.0958 -0.9038  0.9151
 5144TIP3    H237068   0.930   4.681   2.091 -0.7444 -0.7897 -2.3769
 5145TIP3   OH237069   2.138   4.283   1.894  0.1908 -0.3713 -0.7251
 5145TIP3    H137070   2.212   4.316   1.944 -0.3351 -0.6039  0.2154
 5145TIP3    H237071   2.070   4.349   1.905  1.0495  1.1880 -3.7269
 5146TIP3   OH237072   5.048   3.158   7.908 -0.4942 -0.1438  0.8622
 5146TIP3    H137073   5.091   3.075   7.928 -0.1239 -0.4186 -0.8885
 5146TIP3    H237074   5.110   3.204   7.851 -1.1588  0.8545  0.9197
 5147TIP3   OH237075   3.594   5.295   2.991 -0.2817 -0.0152 -0.6322
 5147TIP3    H137076   3.506   5.331   2.997 -0.3646 -0.3332  0.2567
 5147TIP3    H237077   3.607   5.249   3.074  1.0651  0.7992 -0.3506
 5148TIP3   OH237078   0.510   4.302   1.506  0.5079  0.2158  0.2247
 5148TIP3    H137079   0.497   4.390   1.470  0.3347 -0.0854 -0.4720
 5148TIP3    H237080   0.599   4.279   1.480 -0.0966 -0.5747 -1.3278
 5149TIP3   OH237081   2.005   0.783   7.719  0.3728 -0.1753  0.5695
 5149TIP3    H137082   1.951   0.861   7.724  0.0765 -0.4205  1.6007
 5149TIP3    H237083   1.944   0.711   7.737  0.8830 -0.5200  0.9544
 5150TIP3   OH237084   0.458   6.214   1.722 -0.4167  0.2403 -0.5419
 5150TIP3    H137085   0.520   6.237   1.653 -0.8659  2.6334 -0.2219
 5150TIP3    H237086   0.372   6.228   1.683 -0.7102 -0.1317 -0.0390
 5151TIP3   OH237087   5.801   5.023   8.113  0.1545  0.4168  0.2610
 5151TIP3    H137088   5.868   5.081   8.075 -0.5953  0.7327 -0.6137
 5151TIP3    H237089   5.851   4.960   8.165  1.3536 -0.5990 -1.9434
 5152TIP3   OH237090   2.934   0.027   1.537  0.2423 -0.3602 -0.0472
 5152TIP3    H137091   3.008   0.027   1.597  0.5991 -2.4643 -0.4369
 5152TIP3    H237092   2.863  -0.015   1.585  0.0604 -0.6401 -0.5586
 5153TIP3   OH237093   4.469   3.868   1.436  0.1397  0.0163 -0.2674
 5153TIP3    H137094   4.462   3.844   1.344 -0.4249 -0.2336 -0.1622
 5153TIP3    H237095   4.561   3.894   1.447  0.0092  0.8756 -1.0873
 5154TIP3   OH237096   3.749   4.202   0.240  0.1101 -0.7610 -0.8517
 5154TIP3    H137097   3.772   4.264   0.309 -0.9201  1.4900 -2.3960
 5154TIP3    H237098   3.653   4.202   0.239  0.0835 -2.3570 -0.9723
 5155TIP3   OH237099   2.060   4.098   0.005  0.1441 -0.4194 -0.0865
 5155TIP3    H137100   1.965   4.107   0.009  0.2293  0.7200 -0.1742
 5155TIP3    H237101   2.087   4.156  -0.067  1.0588  0.8815  1.2384
 5156TIP3   OH237102   4.900   6.235   2.735 -0.3679  0.4021 -0.0144
 5156TIP3    H137103   4.889   6.229   2.830 -0.1705 -1.9746 -0.0673
 5156TIP3    H237104   4.988   6.271   2.724 -1.1212  2.5697  0.6368
 5157TIP3   OH237105   4.048   6.263   2.328  0.5401  0.3451  0.5630
 5157TIP3    H137106   3.962   6.286   2.364  1.0035  0.1227  1.8574
 5157TIP3    H237107   4.028   6.208   2.252 -0.4637 -0.5262  1.4244
 5158TIP3   OH237108   2.799   4.036   8.592 -0.3116  0.6808  0.2429
 5158TIP3    H137109   2.812   3.942   8.606  1.1888  0.6632 -1.0389
 5158TIP3    H237110   2.704   4.045   8.581 -0.4331 -0.7555 -0.1464
 5159TIP3   OH237111   1.064   5.742   2.089 -0.0146 -0.0096 -0.0570
 5159TIP3    H137112   1.061   5.687   2.011 -2.0405  0.4543 -0.3648
 5159TIP3    H237113   1.099   5.685   2.158  1.7930 -0.4301 -1.2444
 5160TIP3   OH237114   4.419   5.249   8.212  0.0493 -0.1128 -0.5540
 5160TIP3    H137115   4.407   5.337   8.175 -0.7223 -0.3271 -0.8192
 5160TIP3    H237116   4.429   5.192   8.137 -0.1735 -0.3583 -0.3969
 5161TIP3   OH237117   4.471   5.173   1.454  0.2857 -0.0530 -0.3903
 5161TIP3    H137118   4.407   5.244   1.450  0.7394  0.3483 -0.6100
 5161TIP3    H237119   4.540   5.199   1.394  1.8547  0.7322  1.6646
 5162TIP3   OH237120   3.502   4.177   2.550 -0.0107 -0.0905  0.4303
 5162TIP3    H137121   3.452   4.166   2.469 -0.6231  0.2890  0.7495
 5162TIP3    H237122   3.592   4.187   2.521  0.2262 -2.8569 -0.0576
 5163TIP3   OH237123   6.003   6.092   7.469  0.2305 -0.1001  0.1775
 5163TIP3    H137124   5.954   6.171   7.450 -0.0629 -0.5553 -1.1088
 5163TIP3    H237125   5.973   6.029   7.403  2.1006 -0.5676 -0.2858
 5164TIP3   OH237126   2.706   0.160   2.353  0.1706 -0.5359  0.0420
 5164TIP3    H137127   2.613   0.178   2.366  0.3797 -0.1312  1.0948
 5164TIP3    H237128   2.710   0.067   2.329 -0.4380 -0.8347  1.0361
 5165TIP3   OH237129   4.087   5.976   7.559 -0.0372 -0.1959  0.1211
 5165TIP3    H137130   4.045   5.990   7.644  0.5209  0.7323  0.2585
 5165TIP3    H237131   4.033   5.911   7.516 -0.8733  0.0256  0.8120
 5166TIP3   OH237132   0.936   0.619   2.580 -0.4078  0.2820  0.0733
 5166TIP3    H137133   0.961   0.547   2.637 -2.1688  0.3784  1.0380
 5166TIP3    H237134   0.891   0.680   2.637 -1.4140  0.8216 -1.2453
 5167TIP3   OH237135   1.765   0.747   1.236 -0.0915  0.2211  0.4503
 5167TIP3    H137136   1.813   0.775   1.158  0.3642  2.4521  1.4643
 5167TIP3    H237137   1.756   0.652   1.226  0.3831  0.3757 -2.0531
 5168TIP3   OH237138   0.249   4.332   3.009 -0.3425  0.0073 -0.3961
 5168TIP3    H137139   0.257   4.307   3.101 -2.0474 -0.5159 -0.3548
 5168TIP3    H237140   0.182   4.273   2.973  0.5883 -0.0837 -2.0892
 5169TIP3   OH237141   3.741   3.507   7.145 -0.8578  0.2104 -0.0876
 5169TIP3    H137142   3.804   3.578   7.134 -1.6317  0.9070 -0.0789
 5169TIP3    H237143   3.667   3.547   7.190 -0.8696 -0.8502  0.9077
 5170TIP3   OH237144   1.938   6.451   1.475 -0.0886  0.0463  0.2238
 5170TIP3    H137145   1.894   6.370   1.502  0.2206 -0.8161 -1.7168
 5170TIP3    H237146   1.982   6.428   1.393 -1.1993  2.5625 -1.1737
 5171TIP3   OH237147   4.232   0.067   1.663  0.1558 -0.7169 -0.0324
 5171TIP3    H137148   4.270   0.145   1.702 -0.0558 -0.1719 -0.8761
 5171TIP3    H237149   4.232   0.002   1.733 -1.4965  0.6212  1.2883
 5172TIP3   OH237150   4.573   5.687   2.664  0.1187 -0.3109 -0.4957
 5172TIP3    H137151   4.479   5.673   2.657  0.3451 -2.3858 -0.0427
 5172TIP3    H237152   4.610   5.643   2.588  0.8614 -1.6298  0.5877
 5173TIP3   OH237153   3.101   4.353   8.714 -0.1121 -0.3346  0.0299
 5173TIP3    H137154   3.120   4.416   8.784 -0.4530 -0.5609  0.3335
 5173TIP3    H237155   3.169   4.368   8.649  0.2742 -0.1885  0.4617
 5174TIP3   OH237156   2.749   0.040   7.513 -0.5462 -0.5736  0.0200
 5174TIP3    H137157   2.756  -0.052   7.488 -0.5641 -0.6120  0.1582
 5174TIP3    H237158   2.721   0.084   7.433 -0.2680 -0.6490 -0.1214
 5175TIP3   OH237159   1.313   2.048   0.683  0.0635 -0.3081 -0.0673
 5175TIP3    H137160   1.378   1.979   0.700 -1.1593 -1.4879  0.0166
 5175TIP3    H237161   1.322   2.066   0.589  1.6118  0.7394  0.2500
 5176TIP3   OH237162   5.963   5.979   1.128  0.1920 -0.1519  0.1373
 5176TIP3    H137163   5.991   5.938   1.046 -0.4063 -0.9922  0.3372
 5176TIP3    H237164   5.987   5.915   1.196  0.7828  0.5861  0.6316
 5177TIP3   OH237165   2.544   4.192   8.767  0.0547  0.5732 -0.2786
 5177TIP3    H137166   2.522   4.156   8.853 -1.3308 -0.8664 -1.1860
 5177TIP3    H237167   2.469   4.172   8.712  1.1800  0.8520 -2.0080
 5178TIP3   OH237168   1.178   5.366   2.401 -0.8530  0.1734  0.0632
 5178TIP3    H137169   1.230   5.446   2.411  1.8775 -1.4921  0.1673
 5178TIP3    H237170   1.140   5.352   2.488 -2.0605  1.7439 -0.1715
 5179TIP3   OH237171   1.586   0.827   0.965  0.3531 -0.1755  0.1187
 5179TIP3    H137172   1.655   0.761   0.964  0.2411 -0.2877 -0.4095
 5179TIP3    H237173   1.571   0.845   1.058 -0.1906 -1.4826  0.2990
 5180TIP3   OH237174   1.444   3.817   2.010  0.2486  0.2723 -0.0597
 5180TIP3    H137175   1.476   3.731   2.038 -1.5179 -0.7538 -1.0457
 5180TIP3    H237176   1.386   3.799   1.936 -0.9924  2.2235  0.3543
 5181TIP3   OH237177   4.218   6.317   8.601  0.7960 -0.0966  0.3897
 5181TIP3    H137178   4.236   6.228   8.633 -1.5775 -0.1733  1.7126
 5181TIP3    H237179   4.158   6.305   8.528  0.6447  0.4137  0.4275
 5182TIP3   OH237180   4.124   4.914   8.441 -0.3115  0.7352  0.3532
 5182TIP3    H137181   4.196   4.925   8.504 -0.2630 -0.0375  0.4409
 5182TIP3    H237182   4.049   4.956   8.482 -0.2472  0.3459  0.8827
 5183TIP3   OH237183   6.573   4.628   3.360 -0.0550  0.1415 -0.2751
 5183TIP3    H137184   6.582   4.583   3.276  1.5699  0.0566 -0.0871
 5183TIP3    H237185   6.496   4.685   3.349 -0.5168 -0.6728 -1.4281
 5184TIP3   OH237186   2.605   5.818   7.788  0.5563  0.1263  0.1309
 5184TIP3    H137187   2.652   5.771   7.719  0.9981  1.1332 -0.2666
 5184TIP3    H237188   2.529   5.856   7.743  0.2291 -0.1541  0.4403
 5185TIP3   OH237189   6.045   6.031   2.981 -0.0784 -0.1212  0.6712
 5185TIP3    H137190   5.995   5.968   3.033 -1.2514  0.1697 -0.0480
 5185TIP3    H237191   6.122   6.051   3.034 -0.1900 -1.3954  1.3442
 5186TIP3   OH237192   2.968   2.848   7.256  0.0162  0.1127 -0.5926
 5186TIP3    H137193   2.883   2.804   7.259  0.4819 -0.8612 -1.0665
 5186TIP3    H237194   2.947   2.941   7.259 -1.2121 -0.0166 -3.0181
 5187TIP3   OH237195   3.778   1.871   2.744  0.2044 -0.0313 -0.3388
 5187TIP3    H137196   3.753   1.868   2.836 -0.2520 -0.2791 -0.4674
 5187TIP3    H237197   3.873   1.878   2.745  0.1968  0.0452  0.1506
 5188TIP3   OH237198   2.692   3.496   7.783  0.3387  0.0208 -0.4195
 5188TIP3    H137199   2.677   3.590   7.784 -1.0179 -0.1738  0.5016
 5188TIP3    H237200   2.779   3.485   7.744  0.2608  1.6023 -1.0921
 5189TIP3   OH237201   4.645   3.840   2.153  0.3291 -0.0150  0.0027
 5189TIP3    H137202   4.689   3.800   2.078 -0.7752 -2.3307  0.4725
 5189TIP3    H237203   4.675   3.930   2.154  3.7913 -1.0079 -0.6391
 5190TIP3   OH237204   4.699   4.475   1.513  0.1865 -0.5145 -0.1839
 5190TIP3    H137205   4.789   4.484   1.546  0.0260  1.0577 -0.1075
 5190TIP3    H237206   4.699   4.525   1.431 -1.1140  1.2613  0.8387
 5191TIP3   OH237207   3.864   6.587   8.254  0.1721 -0.2640  0.5282
 5191TIP3    H137208   3.860   6.664   8.197  0.7062 -1.3719 -1.0797
 5191TIP3    H237209   3.949   6.548   8.236 -0.1124 -1.2763  1.2633
 5192TIP3   OH237210   3.575   5.806   3.348  0.3170 -0.1839 -0.7307
 5192TIP3    H137211   3.548   5.864   3.276  0.4852  1.0720  0.1915
 5192TIP3    H237212   3.501   5.807   3.409  1.3236  1.1315  0.5226
 5193TIP3   OH237213   6.440   4.712   1.722  0.2194 -0.1397 -0.4012
 5193TIP3    H137214   6.412   4.709   1.814  0.0667  0.8930 -0.3967
 5193TIP3    H237215   6.386   4.781   1.683 -0.1495 -0.9804 -1.4280
 5194TIP3   OH237216   0.596   1.256   1.059 -0.2512  0.7374  0.1049
 5194TIP3    H137217   0.527   1.224   1.000 -0.3334  1.4183 -0.1804
 5194TIP3    H237218   0.553   1.324   1.110 -0.3435 -0.2303  1.3799
 5195TIP3   OH237219   3.134   0.189   0.193 -0.3259 -0.6503  0.1556
 5195TIP3    H137220   3.131   0.275   0.234  0.1359 -0.3240 -0.4584
 5195TIP3    H237221   3.224   0.182   0.159 -0.9822 -0.4146 -1.7809
 5196TIP3   OH237222   5.228   1.678   1.485  1.0115  0.2252  0.4770
 5196TIP3    H137223   5.280   1.642   1.558  0.7879  1.1831  1.1306
 5196TIP3    H237224   5.156   1.723   1.528  0.2867 -0.0868 -0.3945
 5197TIP3   OH237225   5.839   3.210   3.562  0.2392  0.2379  0.0001
 5197TIP3    H137226   5.800   3.187   3.646  1.5872 -0.2556  0.5191
 5197TIP3    H237227   5.773   3.186   3.497 -1.0899  1.2331  0.9291
 5198TIP3   OH237228   5.347   2.474   8.793 -0.7412  0.0006  0.1040
 5198TIP3    H137229   5.316   2.431   8.873  0.1478  0.5837  0.7794
 5198TIP3    H237230   5.443   2.474   8.801 -0.6492  0.3653 -0.8117
 5199TIP3   OH237231   3.875   4.614   0.678 -0.5999 -0.4966 -0.4817
 5199TIP3    H137232   3.803   4.568   0.720 -0.0602 -0.2803  0.7233
 5199TIP3    H237233   3.842   4.637   0.591 -1.7912 -0.8447 -0.1327
 5200TIP3   OH237234   1.392   4.415   7.901 -0.4361  0.6087 -0.5103
 5200TIP3    H137235   1.438   4.330   7.902  2.9401  2.2383 -1.2819
 5200TIP3    H237236   1.320   4.401   7.840 -0.1471 -1.7609 -0.4419
 5201TIP3   OH237237   4.259   5.167   8.449 -0.4048  0.1196  0.1253
 5201TIP3    H137238   4.298   5.191   8.366 -1.5818  1.1888 -0.1664
 5201TIP3    H237239   4.197   5.098   8.428 -1.5814  1.2091 -0.1351
 5202TIP3   OH237240   0.222   0.117   1.614  0.1742  0.2860 -0.6392
 5202TIP3    H137241   0.179   0.032   1.614  0.5554  0.0859 -1.2626
 5202TIP3    H237242   0.297   0.107   1.673 -0.3594  0.5002  0.0903
 5203TIP3   OH237243   4.035   1.829   2.116  0.2210 -0.2331  0.2008
 5203TIP3    H137244   4.122   1.791   2.121  1.4131  2.1569 -0.9072
 5203TIP3    H237245   3.996   1.790   2.038  0.2570 -1.3541  0.7334
 5204TIP3   OH237246   0.120   6.723   2.426 -0.6956  0.0179 -0.6591
 5204TIP3    H137247   0.151   6.639   2.392  0.4729  0.3213 -0.4135
 5204TIP3    H237248   0.201   6.770   2.448 -1.3467 -0.3148  2.9394
 5205TIP3   OH237249   0.404   6.514   8.133  0.1034 -0.2197  0.0548
 5205TIP3    H137250   0.436   6.540   8.220 -0.4633 -0.5309  0.3620
 5205TIP3    H237251   0.319   6.473   8.150  1.6865 -3.9846 -0.1823
 5206TIP3   OH237252   6.372   1.780   8.386  0.4183 -0.2619 -0.3834
 5206TIP3    H137253   6.431   1.736   8.323  0.3474 -1.2788  0.2374
 5206TIP3    H237254   6.349   1.862   8.343  1.1115 -0.5174 -1.2908
 5207TIP3   OH237255   0.394   6.415   0.269 -0.1249  0.3516 -1.3373
 5207TIP3    H137256   0.326   6.392   0.205 -1.1240 -0.8805  0.0900
 5207TIP3    H237257   0.366   6.499   0.304 -0.1545  0.5146 -1.7481
 5208TIP3   OH237258   5.609   2.445   0.043  1.1262 -0.0064  0.0446
 5208TIP3    H137259   5.659   2.525   0.057  1.9997 -0.3160 -1.1090
 5208TIP3    H237260   5.658   2.398  -0.025 -0.2341 -0.7590 -0.4577
 5209TIP3   OH237261   1.688   1.593   1.954  0.4105 -0.4677 -0.2465
 5209TIP3    H137262   1.674   1.540   2.032 -1.5082  1.2413  0.6492
 5209TIP3    H237263   1.606   1.586   1.905  0.3658  1.0849 -0.4310
 5210TIP3   OH237264   1.144   6.122   3.116 -0.0006 -0.6676 -0.0376
 5210TIP3    H137265   1.116   6.109   3.207 -0.6954 -0.3808 -0.1991
 5210TIP3    H237266   1.235   6.093   3.114  0.1446 -0.3017  0.8456
 5211TIP3   OH237267   3.552   0.431   1.884 -0.1350 -0.0253  0.5363
 5211TIP3    H137268   3.595   0.349   1.859 -1.2184 -0.1474 -1.0266
 5211TIP3    H237269   3.543   0.426   1.979 -0.1013 -1.6727  0.4689
 5212TIP3   OH237270   5.317   4.873   3.445 -0.5471  0.1080  0.2808
 5212TIP3    H137271   5.310   4.832   3.531 -1.3103 -0.5743 -0.0917
 5212TIP3    H237272   5.409   4.865   3.421 -0.6712 -1.4412  0.2164
 5213TIP3   OH237273   4.407   4.154   8.779 -0.2875 -0.2951 -0.1278
 5213TIP3    H137274   4.422   4.193   8.865 -1.7332 -0.5451  0.2778
 5213TIP3    H237275   4.325   4.194   8.749  0.8094  0.6887 -1.9537
 5214TIP3   OH237276   1.313   0.919   0.233  0.1698 -0.1457  0.5557
 5214TIP3    H137277   1.338   1.000   0.188  2.1648 -1.5420 -1.0437
 5214TIP3    H237278   1.338   0.934   0.324  0.2802  1.1089  0.3477
 5215TIP3   OH237279   2.657   6.635   8.642 -0.0585  0.6449  0.3497
 5215TIP3    H137280   2.688   6.617   8.730 -1.4464 -0.7030  0.6067
 5215TIP3    H237281   2.586   6.699   8.655  1.4101  2.4309 -0.0685
 5216TIP3   OH237282   6.238   0.397   7.699 -0.3896  0.0492  0.1049
 5216TIP3    H137283   6.289   0.340   7.641 -0.4471 -0.9674  1.0255
 5216TIP3    H237284   6.147   0.378   7.676 -0.4630 -1.3416  1.3798
 5217TIP3   OH237285   3.130   5.328   0.439  1.0488  0.2578  0.2027
 5217TIP3    H137286   3.060   5.262   0.444  2.3505 -1.3079 -1.3324
 5217TIP3    H237287   3.085   5.408   0.412 -0.2156 -0.6475 -0.4785
 5218TIP3   OH237288   3.185   2.973   2.335 -0.3904 -0.3183  0.3264
 5218TIP3    H137289   3.200   2.885   2.370 -0.4534 -0.5096 -0.1203
 5218TIP3    H237290   3.203   3.031   2.409 -0.1402 -0.6943  0.5685
 5219TIP3   OH237291   3.326   6.544   2.467 -0.4858  0.6979  0.1403
 5219TIP3    H137292   3.402   6.601   2.458 -0.9923  1.4780  0.7540
 5219TIP3    H237293   3.339   6.498   2.550 -0.4318  0.4541 -0.0025
 5220TIP3   OH237294   1.751   1.276   1.388 -0.4041 -0.3181  0.5903
 5220TIP3    H137295   1.682   1.210   1.382 -1.0091  0.3837 -0.5028
 5220TIP3    H237296   1.759   1.294   1.481 -1.6421 -0.4717  0.7418
 5221TIP3   OH237297   3.695   1.292   2.753 -0.1564  0.3893  0.5698
 5221TIP3    H137298   3.744   1.353   2.698  0.1134  0.1383  0.5305
 5221TIP3    H237299   3.728   1.307   2.841  1.8700 -1.5569  0.2216
 5222TIP3   OH237300   6.272   1.882   1.153 -0.6482  0.0072 -0.3055
 5222TIP3    H137301   6.230   1.968   1.145  1.5614  1.3497  1.3943
 5222TIP3    H237302   6.298   1.876   1.245  1.9494 -1.1280 -1.0108
 5223TIP3   OH237303   0.296   1.184   2.065 -0.6314 -0.0308  0.4672
 5223TIP3    H137304   0.277   1.128   2.140 -0.6140 -0.1860  0.3562
 5223TIP3    H237305   0.388   1.166   2.045 -1.3491 -2.1358 -1.3716
 5224TIP3   OH237306   4.098   5.886   2.996  0.0388  0.1777  0.3872
 5224TIP3    H137307   4.160   5.860   3.064  0.6713 -1.0039 -0.6026
 5224TIP3    H237308   4.106   5.818   2.929  0.2653  1.8757 -1.4025
 5225TIP3   OH237309   1.511   5.496   1.655 -0.6101 -0.3843  0.0392
 5225TIP3    H137310   1.490   5.430   1.720 -0.3691 -0.6431 -0.1431
 5225TIP3    H237311   1.558   5.448   1.587 -1.0137 -0.1497 -0.4070
 5226TIP3   OH237312   4.938   2.478   0.013  0.4812  0.1723  0.6710
 5226TIP3    H137313   4.908   2.569   0.019  1.6400  0.7245 -1.0358
 5226TIP3    H237314   5.003   2.470   0.084  1.4370  1.1619 -0.0508
 5227TIP3   OH237315   4.583   3.313   1.557  0.7160  0.5654  0.2558
 5227TIP3    H137316   4.577   3.301   1.652 -0.6254 -0.6025  0.0513
 5227TIP3    H237317   4.545   3.399   1.541 -2.1996 -0.5615  0.5221
 5228TIP3   OH237318   6.518   3.526   3.043  0.1389  0.0662 -0.2633
 5228TIP3    H137319   6.579   3.453   3.056  1.0490  1.0098  1.1213
 5228TIP3    H237320   6.559   3.599   3.089 -2.1338  0.6951  0.9416
 5229TIP3   OH237321   5.516   0.973   0.626  0.1462  0.0466 -0.3832
 5229TIP3    H137322   5.530   0.934   0.540  1.0541 -2.4083  0.7593
 5229TIP3    H237323   5.512   1.067   0.610 -0.8226 -0.3740 -3.2107
 5230TIP3   OH237324   4.786   0.403   1.218  0.4571  0.2382 -0.0028
 5230TIP3    H137325   4.812   0.326   1.168  0.1979  1.7807 -2.6822
 5230TIP3    H237326   4.708   0.435   1.174  1.0224  2.4755  0.5125
 5231TIP3   OH237327   2.032   2.641   8.028  0.5601  0.0478 -0.7325
 5231TIP3    H137328   2.036   2.556   8.073 -1.3051  0.3050  0.0190
 5231TIP3    H237329   2.015   2.619   7.937 -0.9416 -0.3972 -0.3713
 5232TIP3   OH237330   3.071   3.820   7.963  0.8552 -0.0866 -0.4040
 5232TIP3    H137331   3.045   3.774   7.883 -0.7554  3.1494 -1.8845
 5232TIP3    H237332   3.036   3.766   8.034 -2.0041 -0.5897 -2.0583
 5233TIP3   OH237333   3.042   5.331   8.036 -0.2470 -0.5778 -0.7779
 5233TIP3    H137334   2.951   5.339   8.064  0.1733  0.5740  0.3517
 5233TIP3    H237335   3.085   5.281   8.105  0.1066 -0.6057 -1.0149
 5234TIP3   OH237336   1.044   2.299   3.221 -0.6214 -0.7234  0.6304
 5234TIP3    H137337   0.956   2.331   3.204  0.1643  0.1807 -2.3206
 5234TIP3    H237338   1.039   2.205   3.202 -0.6944 -0.4219 -1.0286
 5235TIP3   OH237339   2.037   1.058   1.457  0.4759  0.4507 -1.0682
 5235TIP3    H137340   2.088   1.139   1.453  1.3907 -0.1170 -1.4912
 5235TIP3    H237341   2.054   1.016   1.372  0.9912 -0.7389 -0.4027
 5236TIP3   OH237342   2.346   0.406   1.087 -0.0421 -0.3643 -0.0864
 5236TIP3    H137343   2.321   0.314   1.094 -1.1970 -0.1429 -1.0340
 5236TIP3    H237344   2.319   0.445   1.170  0.6963 -0.9177  0.4277
 5237TIP3   OH237345   5.857   5.420   8.118 -0.0668 -0.3081  0.2917
 5237TIP3    H137346   5.892   5.332   8.104 -3.2051 -1.9525  1.7592
 5237TIP3    H237347   5.796   5.433   8.045 -0.7819 -0.0177  0.9359
 5238TIP3   OH237348   1.620   1.391   2.144  0.1825  1.2563 -0.2978
 5238TIP3    H137349   1.638   1.298   2.155  0.9017  1.5512  1.3814
 5238TIP3    H237350   1.547   1.408   2.204  0.5677  1.9285 -0.0202
 5239TIP3   OH237351   2.355   4.673   0.116 -0.4135  0.3445 -0.0270
 5239TIP3    H137352   2.373   4.700   0.026 -0.4334 -0.0413 -0.1490
 5239TIP3    H237353   2.361   4.754   0.167 -0.5236  0.5847 -0.3921
 5240TIP3   OH237354   6.561   1.700   2.256  0.2157  0.0613  0.2494
 5240TIP3    H137355   6.642   1.727   2.298 -0.6035  0.2326  1.8116
 5240TIP3    H237356   6.589   1.657   2.175  2.0374 -1.8295  1.7410
 5241TIP3   OH237357   2.117   1.658   1.234 -0.2922  0.2748 -0.3616
 5241TIP3    H137358   2.196   1.609   1.211 -0.6600 -0.0769 -0.8974
 5241TIP3    H237359   2.057   1.592   1.267 -1.5880 -0.0620 -3.0968
 5242TIP3   OH237360   2.941   1.785   1.983 -0.6673  0.4507 -0.2049
 5242TIP3    H137361   2.921   1.867   2.027  3.6826  1.2632  0.7121
 5242TIP3    H237362   2.992   1.734   2.046  1.5333 -0.4882 -2.5284
 5243TIP3   OH237363   2.985   2.751   2.222  0.2285 -0.0014  0.0016
 5243TIP3    H137364   2.907   2.802   2.244 -1.0788 -1.8348 -0.1512
 5243TIP3    H237365   2.975   2.730   2.129  0.5712 -0.7627  0.1255
 5244TIP3   OH237366   1.619   5.687   1.140 -0.2155  0.1441  0.4228
 5244TIP3    H137367   1.553   5.622   1.114  0.1771 -1.2650  2.6226
 5244TIP3    H237368   1.576   5.738   1.209 -0.2510  1.7884 -0.7620
 5245TIP3   OH237369   0.023   4.121   8.236 -0.0198  0.2906  0.4082
 5245TIP3    H137370  -0.054   4.091   8.187 -1.9537  1.0073  2.8271
 5245TIP3    H237371   0.082   4.155   8.169 -1.0652 -1.7474 -1.6974
 5246TIP3   OH237372   4.108   5.591   1.528  0.1321 -0.0966 -0.2130
 5246TIP3    H137373   4.100   5.585   1.432  1.4844  0.2153 -0.3710
 5246TIP3    H237374   4.143   5.679   1.543 -0.8080  0.1378  0.6349
 5247TIP3   OH237375   5.733   1.323   7.752  0.0953  0.2339  0.2546
 5247TIP3    H137376   5.808   1.348   7.806  0.6979 -0.2891 -0.3244
 5247TIP3    H237377   5.767   1.256   7.693 -0.5025  0.8874 -0.8737
 5248TIP3   OH237378   2.775   1.326   0.312  0.7277 -0.8947 -0.4632
 5248TIP3    H137379   2.713   1.385   0.354  2.3215  1.3372 -1.0806
 5248TIP3    H237380   2.779   1.356   0.221  1.9628 -1.6153 -0.6725
 5249TIP3   OH237381   2.009   5.631   1.025 -0.2644 -0.0388 -0.4272
 5249TIP3    H137382   2.015   5.546   1.070  0.4069  0.4337  0.4197
 5249TIP3    H237383   2.020   5.610   0.933 -2.7318 -1.1647 -0.5436
 5250TIP3   OH237384   6.032   6.390   0.917  0.2265  0.3773 -0.1693
 5250TIP3    H137385   6.089   6.457   0.880  0.1805 -0.2359 -1.3952
 5250TIP3    H237386   6.056   6.310   0.871  1.1276 -0.7401  2.1014
 5251TIP3   OH237387   1.259   5.171   2.015 -0.2662  0.5946  0.2259
 5251TIP3    H137388   1.198   5.119   1.963  1.2377 -0.7179 -0.3209
 5251TIP3    H237389   1.237   5.150   2.106 -1.9192  1.7365  0.1365
 5252TIP3   OH237390   1.173   2.695   1.798  0.4146 -0.5801  0.5286
 5252TIP3    H137391   1.151   2.672   1.707 -0.6777 -0.0177  0.6289
 5252TIP3    H237392   1.208   2.783   1.793 -0.5806 -0.1535  0.7409
 5253TIP3   OH237393   6.666   1.891   2.561  0.3185 -0.2502 -0.4659
 5253TIP3    H137394   6.615   1.957   2.513 -3.2687 -1.6023  1.1350
 5253TIP3    H237395   6.723   1.942   2.618 -2.9116  1.6991  1.3236
 5254TIP3   OH237396   5.801   0.517   2.486  0.1979 -0.0175 -0.1130
 5254TIP3    H137397   5.740   0.577   2.443 -1.2179 -0.7758  0.7406
 5254TIP3    H237398   5.755   0.433   2.486  1.9929 -1.0781 -1.0115
 5255TIP3   OH237399   1.450   5.694   2.002  0.3958  0.0043 -0.0302
 5255TIP3    H137400   1.529   5.641   2.012  0.6685  0.0130 -1.8669
 5255TIP3    H237401   1.378   5.634   2.021  0.7325 -0.8750 -1.3858
 5256TIP3   OH237402   6.253   2.463   2.136  0.6864 -0.3198  0.1387
 5256TIP3    H137403   6.329   2.492   2.086  1.2834 -1.1238  0.5469
 5256TIP3    H237404   6.177   2.499   2.089  1.3087  0.2752 -0.4182
 5257TIP3   OH237405   5.141   4.234   1.788  0.0741 -0.4280 -0.1040
 5257TIP3    H137406   5.047   4.245   1.799  0.1389  0.2883 -0.1851
 5257TIP3    H237407   5.179   4.274   1.867  0.4036  1.6602 -1.2280
 5258TIP3   OH237408   5.088   6.355   7.378 -0.2536  0.6797 -0.5499
 5258TIP3    H137409   5.000   6.351   7.340 -0.1262  3.3557 -1.2984
 5258TIP3    H237410   5.084   6.428   7.440  0.8729 -0.6062  1.1200
 5259TIP3   OH237411   1.297   2.190   1.137  0.4418 -0.0472  0.4393
 5259TIP3    H137412   1.337   2.106   1.112 -0.6166 -0.3702 -0.1942
 5259TIP3    H237413   1.248   2.218   1.060  1.1497  1.4008  0.4768
 5260TIP3   OH237414   1.660   0.293   2.729  0.6238  0.3610  0.4893
 5260TIP3    H137415   1.736   0.269   2.677  0.0906  1.4417 -0.8679
 5260TIP3    H237416   1.644   0.385   2.706 -1.7369 -0.1444 -0.1660
 5261TIP3   OH237417   5.932   0.271   2.912 -0.1878 -0.0768 -0.5498
 5261TIP3    H137418   5.848   0.308   2.939  0.1821 -0.3727  1.0960
 5261TIP3    H237419   5.989   0.283   2.988  1.3530  0.3493 -1.7229
 5262TIP3   OH237420   4.003   4.275   3.186  0.3964 -0.3471  0.1197
 5262TIP3    H137421   3.968   4.280   3.275 -0.0372 -0.0860 -0.0627
 5262TIP3    H237422   3.958   4.345   3.139  2.1889  0.9516  0.2322
 5263TIP3   OH237423   4.158   4.549   1.672 -0.4078 -0.0390 -0.0431
 5263TIP3    H137424   4.180   4.547   1.578 -0.6504 -1.3336 -0.0904
 5263TIP3    H237425   4.241   4.535   1.716  0.1784  3.0670  0.0735
 5264TIP3   OH237426   2.260   4.766   0.752  0.0066 -0.3383  0.1930
 5264TIP3    H137427   2.199   4.697   0.777 -0.7465 -0.1697 -1.0972
 5264TIP3    H237428   2.307   4.731   0.676  1.6731 -0.5268  1.2397
 5265TIP3   OH237429   6.075   1.412   0.211  0.2310 -0.2193 -0.3269
 5265TIP3    H137430   5.992   1.387   0.250 -1.1152  0.3414 -2.6538
 5265TIP3    H237431   6.135   1.422   0.285 -1.5526 -1.3879  1.3415
 5266TIP3   OH237432   3.557   2.582   1.814 -0.0236 -0.3804 -0.2735
 5266TIP3    H137433   3.474   2.550   1.778  0.0991  0.5012 -1.4249
 5266TIP3    H237434   3.530   2.648   1.879 -0.2359 -1.2079  0.4903
 5267TIP3   OH237435   3.624   3.224   8.185  0.5484  0.2478  0.3395
 5267TIP3    H137436   3.543   3.204   8.138 -0.6810 -0.0482  2.4403
 5267TIP3    H237437   3.602   3.209   8.277  3.1851 -0.4231  0.9442
 5268TIP3   OH237438   0.191   5.454   8.210 -0.3593 -0.5491 -0.2315
 5268TIP3    H137439   0.231   5.446   8.296  0.0394  0.4904 -0.3101
 5268TIP3    H237440   0.261   5.486   8.153 -0.7239 -0.8419 -0.8613
 5269TIP3   OH237441   6.398   6.413   8.342  0.2467  0.2555  0.0692
 5269TIP3    H137442   6.374   6.322   8.321  0.4940  0.2323 -0.1277
 5269TIP3    H237443   6.330   6.466   8.301  0.6043  0.1989 -0.6144
 5270TIP3   OH237444   1.514   2.528   2.406  0.2735  0.4826 -0.0781
 5270TIP3    H137445   1.489   2.505   2.496  0.4893 -0.9261 -0.3557
 5270TIP3    H237446   1.542   2.446   2.367 -1.2145  0.7714 -1.9212
 5271TIP3   OH237447   3.138   2.372   8.279  0.6169 -0.1586  0.9934
 5271TIP3    H137448   3.119   2.282   8.305  3.0464 -0.2703  2.7122
 5271TIP3    H237449   3.207   2.364   8.213 -0.5954  0.4296 -0.4092
 5272TIP3   OH237450   0.120   0.471   1.252 -1.0172  0.3046  0.3463
 5272TIP3    H137451   0.032   0.497   1.279 -1.2988  1.2278 -1.3329
 5272TIP3    H237452   0.131   0.383   1.288 -2.1954  0.5980  1.4968
 5273TIP3   OH237453   2.378   4.803   8.282 -0.3071  0.1947  0.1907
 5273TIP3    H137454   2.396   4.884   8.330 -1.8547 -0.7839  2.6355
 5273TIP3    H237455   2.391   4.734   8.347  1.6173 -1.6478 -1.9921
 5274TIP3   OH237456   0.862   4.727   0.543  0.0849  0.1795  0.8078
 5274TIP3    H137457   0.880   4.821   0.549 -0.9762  0.3148  2.2692
 5274TIP3    H237458   0.939   4.686   0.584  0.4975  0.3977  0.2685
 5275TIP3   OH237459   0.951   3.294   2.915 -0.3904  0.6212  0.4327
 5275TIP3    H137460   0.994   3.360   2.970  1.1135 -0.7735  1.0341
 5275TIP3    H237461   0.997   3.213   2.936 -2.5118 -0.7473  0.1287
 5276TIP3   OH237462   0.469   0.603   0.426  0.2391 -0.0671 -0.5964
 5276TIP3    H137463   0.398   0.600   0.362 -0.1664  0.3046 -0.1687
 5276TIP3    H237464   0.548   0.613   0.373 -0.1083  0.4212 -1.0343
 5277TIP3   OH237465   4.751   6.446   1.415  0.2787  0.0268  0.6674
 5277TIP3    H137466   4.689   6.407   1.476 -0.0917  1.6905  1.4228
 5277TIP3    H237467   4.715   6.426   1.329  1.4104 -3.3505  0.8357
 5278TIP3   OH237468   0.961   1.338   8.629 -0.5728 -0.2073  0.2896
 5278TIP3    H137469   0.879   1.383   8.649 -1.4647 -0.1070 -2.9757
 5278TIP3    H237470   1.028   1.406   8.637 -1.0477  0.1670  1.2199
 5279TIP3   OH237471   1.218   4.075   7.792  1.3183  0.1854  0.3779
 5279TIP3    H137472   1.137   4.125   7.784  0.1677 -1.5040  0.8213
 5279TIP3    H237473   1.250   4.067   7.702  0.0527 -0.5407 -0.0347
 5280TIP3   OH237474   1.713   0.137   0.139 -0.0514  0.0941  0.2691
 5280TIP3    H137475   1.737   0.099   0.054 -2.1616 -2.5422  0.6925
 5280TIP3    H237476   1.663   0.067   0.182 -2.0901  2.5976  2.2342
 5281TIP3   OH237477   3.402   0.411   2.621 -0.2345  0.2419  0.5621
 5281TIP3    H137478   3.441   0.466   2.688  3.3034 -0.9109 -0.3635
 5281TIP3    H237479   3.419   0.321   2.651 -0.4996 -0.2994 -0.8444
 5282TIP3   OH237480   2.315   0.676   0.283  0.2864  0.5685 -0.7239
 5282TIP3    H137481   2.333   0.622   0.206  1.0767 -0.5666  0.2092
 5282TIP3    H237482   2.382   0.745   0.281  3.3436 -2.0211  1.2265
 5283TIP3   OH237483   3.512   3.744   7.572  0.4352 -0.4500 -0.2448
 5283TIP3    H137484   3.536   3.656   7.599  1.4935 -0.0111  0.3122
 5283TIP3    H237485   3.419   3.739   7.553 -0.3492 -0.8817  3.1084
 5284TIP3   OH237486   0.523   3.747   0.469  0.1083 -0.1425  0.1021
 5284TIP3    H137487   0.539   3.833   0.506 -1.7887 -0.4086  1.6631
 5284TIP3    H237488   0.580   3.688   0.519 -0.5489 -0.1413  0.8670
 5285TIP3   OH237489   0.661   5.043   1.528  0.2983  0.1764 -0.2526
 5285TIP3    H137490   0.591   5.054   1.592  0.8295 -0.8506  0.5429
 5285TIP3    H237491   0.695   4.954   1.545  3.0054  1.2623  0.6439
 5286TIP3   OH237492   3.630   3.308   3.130  0.2504  0.2589  0.0860
 5286TIP3    H137493   3.564   3.361   3.084 -1.2842 -0.2920  1.5442
 5286TIP3    H237494   3.669   3.254   3.062 -2.8012 -1.4053 -0.5141
 5287TIP3   OH237495   0.295   2.414   0.212 -0.1708 -0.2788 -0.1000
 5287TIP3    H137496   0.292   2.439   0.120 -1.0026 -0.9951 -0.2804
 5287TIP3    H237497   0.334   2.327   0.212  0.3651 -0.0454  0.2865
 5288TIP3   OH237498   5.462   3.754   1.599 -0.2304  0.1048 -0.1270
 5288TIP3    H137499   5.550   3.737   1.565 -0.5415 -1.1723 -0.3310
 5288TIP3    H237500   5.431   3.829   1.549  0.9124  0.8673  0.2616
 5289TIP3   OH237501   2.646   3.345   2.016  0.3443 -0.2273  0.5423
 5289TIP3    H137502   2.709   3.300   1.960  0.8788 -0.6900  1.5009
 5289TIP3    H237503   2.612   3.416   1.961 -0.0744 -1.4195 -0.7918
 5290TIP3   OH237504   4.849   0.635   7.486  0.4180  0.0557 -0.0367
 5290TIP3    H137505   4.808   0.561   7.440 -0.4245 -0.2481  1.1504
 5290TIP3    H237506   4.828   0.711   7.433  0.4503 -0.4302 -0.7590
 5291TIP3   OH237507   0.713   1.272   2.537  0.3068  0.0143  0.4136
 5291TIP3    H137508   0.621   1.245   2.541  0.3053 -0.5284 -1.7163
 5291TIP3    H237509   0.750   1.244   2.620 -1.3442 -0.2179  1.1050
 5292TIP3   OH237510   6.149   4.021   8.626 -0.1847 -0.0296  0.3032
 5292TIP3    H137511   6.193   3.938   8.641 -0.8084 -0.9459 -2.4004
 5292TIP3    H237512   6.125   4.052   8.713  1.5758 -1.8100  1.4884
 5293TIP3   OH237513   6.409   0.151   2.384 -0.0946 -0.5075 -0.4084
 5293TIP3    H137514   6.458   0.068   2.389  0.3246 -0.2273  0.4481
 5293TIP3    H237515   6.341   0.142   2.450 -0.3801 -0.3755 -0.6845
 5294TIP3   OH237516   2.736   5.777   1.443  0.1639 -0.4254  0.3251
 5294TIP3    H137517   2.724   5.747   1.533  1.4093  1.7182  1.2796
 5294TIP3    H237518   2.662   5.835   1.427  1.0185  0.8109  0.7409
 5295TIP3   OH237519   2.466   3.128   2.100 -0.4356 -0.6799 -0.2777
 5295TIP3    H137520   2.479   3.185   2.175  0.1416 -1.2300  0.0445
 5295TIP3    H237521   2.522   3.165   2.032 -1.0728 -0.0934 -0.4948
 5296TIP3   OH237522   0.794   4.800   0.291  0.1580 -0.5765 -0.0808
 5296TIP3    H137523   0.718   4.748   0.268 -1.3279  0.9307  1.1411
 5296TIP3    H237524   0.827   4.761   0.371  0.8587 -1.3839 -0.7465
 5297TIP3   OH237525   1.015   6.734   7.853 -0.3348 -0.5078  0.1008
 5297TIP3    H137526   0.985   6.761   7.766 -2.2018 -1.0899  0.5084
 5297TIP3    H237527   0.980   6.645   7.864  0.3893 -0.6793  1.2112
 5298TIP3   OH237528   5.534   1.434   1.538  0.0254  0.0037  0.4280
 5298TIP3    H137529   5.483   1.491   1.481  2.2567  0.1608 -1.5508
 5298TIP3    H237530   5.625   1.457   1.521  0.9750 -3.0581  0.6991
 5299TIP3   OH237531   4.562   6.294   0.091 -0.3847 -0.0253  0.0881
 5299TIP3    H137532   4.620   6.232   0.135 -0.0926 -0.4241 -0.8397
 5299TIP3    H237533   4.621   6.353   0.045 -0.7045  0.0315 -0.2473
 5300TIP3   OH237534   4.895   0.310   2.285  0.3849 -0.3312  0.3091
 5300TIP3    H137535   4.840   0.388   2.294  1.3528  0.4549 -0.4361
 5300TIP3    H237536   4.903   0.276   2.374 -0.6810 -0.0355  0.5309
 5301TIP3   OH237537   3.647   3.335   0.138 -0.4871 -0.2099  0.4522
 5301TIP3    H137538   3.623   3.243   0.131  0.6199 -0.6528  1.8867
 5301TIP3    H237539   3.708   3.349   0.065 -2.8903  0.2596 -1.6316
 5302TIP3   OH237540   0.561   1.724   2.707  0.1647 -0.0739  0.3245
 5302TIP3    H137541   0.585   1.805   2.662 -1.5688 -0.7267 -1.9779
 5302TIP3    H237542   0.479   1.745   2.752  0.3888 -0.2242  0.8129
 5303TIP3   OH237543   2.688   6.364   2.242 -0.6331 -0.0244  0.0244
 5303TIP3    H137544   2.659   6.452   2.216  1.4492  1.2364  1.6259
 5303TIP3    H237545   2.649   6.350   2.328 -1.2527 -0.8383 -0.3838
 5304TIP3   OH237546   5.273   0.933   0.750  0.4956  0.4872 -0.2887
 5304TIP3    H137547   5.261   0.865   0.817 -1.7210 -0.1589 -1.2681
 5304TIP3    H237548   5.368   0.943   0.745  0.7893  0.4866  2.8254
 5305TIP3   OH237549   1.145   5.264   8.073 -0.2391  0.1396  0.1810
 5305TIP3    H137550   1.179   5.311   7.996 -0.6253 -0.1700 -0.1876
 5305TIP3    H237551   1.050   5.277   8.068 -0.1800  1.2303  1.3494
 5306TIP3   OH237552   0.595   1.423   2.797 -0.4000 -0.2688 -0.0510
 5306TIP3    H137553   0.684   1.389   2.800 -0.3089 -0.1008 -0.6435
 5306TIP3    H237554   0.606   1.516   2.778 -0.6402  0.1466  1.6635
 5307TIP3   OH237555   1.531   3.009   1.473 -0.3742 -0.0663 -0.1885
 5307TIP3    H137556   1.440   3.024   1.500 -0.8058 -1.7978 -0.5426
 5307TIP3    H237557   1.527   3.007   1.378 -0.4093 -2.2547 -0.2016
 5308TIP3   OH237558   6.808   5.577   1.248 -0.2262  1.2219 -0.2671
 5308TIP3    H137559   6.900   5.601   1.259  0.1315 -0.8363  2.0270
 5308TIP3    H237560   6.761   5.661   1.251  1.4781  2.2559 -0.7907
 5309TIP3   OH237561   1.392   3.731   0.265  0.3958  0.0045  0.3406
 5309TIP3    H137562   1.424   3.655   0.216  0.5295 -0.5012  1.1828
 5309TIP3    H237563   1.437   3.806   0.226 -0.0007 -0.2992 -0.7367
 5310TIP3   OH237564   4.732   4.910   7.577 -0.0046 -0.6207  0.4284
 5310TIP3    H137565   4.725   4.910   7.482  1.8189 -0.6815  0.2659
 5310TIP3    H237566   4.730   4.817   7.601 -3.0284 -0.5747  0.7352
 5311TIP3   OH237567   3.791   6.242   1.967 -0.2756 -0.1568 -0.2598
 5311TIP3    H137568   3.799   6.181   1.894 -2.2075 -1.9296  0.8956
 5311TIP3    H237569   3.697   6.248   1.983 -0.0405  1.9656  0.6800
 5312TIP3   OH237570   3.278   5.013   1.743 -0.6597  0.1118 -0.0638
 5312TIP3    H137571   3.192   4.974   1.731 -0.4325 -0.2522 -0.5583
 5312TIP3    H237572   3.339   4.939   1.733 -0.2783  0.4014  0.0730
 5313TIP3   OH237573   4.774   4.832   1.414  0.5994 -0.2862 -0.8532
 5313TIP3    H137574   4.694   4.866   1.373  1.3574  1.3732 -1.0258
 5313TIP3    H237575   4.756   4.837   1.508  0.6785  0.6110 -0.8739
 5314TIP3   OH237576   2.671   4.712   3.109 -0.2031  0.0011 -0.2866
 5314TIP3    H137577   2.766   4.716   3.096 -0.2015  1.0896 -0.0285
 5314TIP3    H237578   2.660   4.651   3.181  0.2137 -1.0314 -1.0663
 5315TIP3   OH237579   6.109   4.114   2.271  0.0816  0.8642 -0.2610
 5315TIP3    H137580   6.130   4.021   2.259 -1.4041  0.4227  0.3490
 5315TIP3    H237581   6.136   4.133   2.361 -0.6599  0.7084 -0.0005
 5316TIP3   OH237582   1.136   4.517   0.927 -0.1573  0.5203  0.3437
 5316TIP3    H137583   1.197   4.569   0.980 -0.5453  0.1041  1.2196
 5316TIP3    H237584   1.121   4.438   0.979 -0.9074  0.3072 -0.1874
 5317TIP3   OH237585   2.864   3.802   0.695  0.5227  0.1713 -0.3250
 5317TIP3    H137586   2.856   3.747   0.773  0.7487  1.7500  0.8617
 5317TIP3    H237587   2.866   3.891   0.729 -1.1432  1.0194 -2.2596
 5318TIP3   OH237588   0.235   1.195   8.145  0.4874  0.0607 -0.1894
 5318TIP3    H137589   0.176   1.269   8.131 -1.3701 -0.2629  4.1131
 5318TIP3    H237590   0.189   1.120   8.108 -0.1401  0.3581 -0.0339
 5319TIP3   OH237591   1.502   3.643   8.592 -0.1011 -0.2943 -0.1503
 5319TIP3    H137592   1.573   3.602   8.641 -0.1037 -0.0040  0.1006
 5319TIP3    H237593   1.544   3.673   8.511  0.4705  1.3563  0.6879
 5320TIP3   OH237594   4.627   5.010   8.324 -0.7363  0.3475 -0.0347
 5320TIP3    H137595   4.642   5.104   8.312 -1.1701  0.3133 -0.8915
 5320TIP3    H237596   4.670   4.969   8.249 -1.3756 -0.0696 -0.1781
 5321TIP3   OH237597   4.738   2.971   2.146  0.1932  0.1390 -0.1646
 5321TIP3    H137598   4.809   2.947   2.206  2.4442  1.3258 -2.2162
 5321TIP3    H237599   4.713   3.059   2.173  1.5462  0.8700 -1.2032
 5322TIP3   OH237600   3.869   0.053   2.345 -0.0880 -0.1409  0.3590
 5322TIP3    H137601   3.907   0.083   2.262  1.7748 -0.6117  0.9941
 5322TIP3    H237602   3.914  -0.029   2.363 -0.3938  0.0061  1.8872
 5323TIP3   OH237603   1.332   3.135   3.735  0.0798 -0.5901 -0.6011
 5323TIP3    H137604   1.363   3.088   3.658 -1.4922 -1.8123 -0.5463
 5323TIP3    H237605   1.327   3.068   3.804 -0.3067  0.0772  0.0395
 5324TIP3   OH237606   5.771   4.744   0.415 -0.1542  0.4513 -0.4398
 5324TIP3    H137607   5.704   4.740   0.483 -0.0810  0.4368 -0.3683
 5324TIP3    H237608   5.816   4.660   0.421 -0.3434  0.3296 -0.7061
 5325TIP3   OH237609   3.286   6.300   0.251 -0.6994  0.1570  0.1038
 5325TIP3    H137610   3.242   6.330   0.172 -1.3268 -0.7267  0.0995
 5325TIP3    H237611   3.320   6.214   0.228  0.0575  0.3515  0.4654
 5326TIP3   OH237612   4.326   1.189   1.852 -0.0710  0.4619  0.6109
 5326TIP3    H137613   4.370   1.143   1.924  0.7228  3.1850  2.0022
 5326TIP3    H237614   4.236   1.156   1.855  0.4999 -1.1284  1.3774
 5327TIP3   OH237615   1.840   2.608   2.311  0.4262  0.0603  0.0266
 5327TIP3    H137616   1.913   2.639   2.258  0.0255  1.3070  0.1832
 5327TIP3    H237617   1.849   2.512   2.310  0.0921 -0.0230 -2.7414
 5328TIP3   OH237618   3.020   1.405   1.844 -0.4907  0.0711  0.1524
 5328TIP3    H137619   3.032   1.313   1.867 -1.7134 -0.9184 -2.6370
 5328TIP3    H237620   3.093   1.425   1.785 -1.7268 -0.0714 -1.5135
 5329TIP3   OH237621   4.573   3.182   3.552  0.5267 -0.1005 -0.1851
 5329TIP3    H137622   4.631   3.109   3.570 -0.3357 -0.5091  1.0947
 5329TIP3    H237623   4.591   3.245   3.622 -1.8462 -1.0559  1.3953
 5330TIP3   OH237624   1.990   5.143   2.520  0.0792 -0.1203 -0.7826
 5330TIP3    H137625   2.048   5.207   2.480 -0.2606 -0.6806 -2.2445
 5330TIP3    H237626   2.037   5.112   2.598  0.9069  0.7647 -0.9250
 5331TIP3   OH237627   1.920   4.456   1.985  0.8656  0.2241 -0.0545
 5331TIP3    H137628   1.836   4.413   1.970  0.9578 -1.0439  2.5880
 5331TIP3    H237629   1.898   4.537   2.031  1.1080 -0.8211  1.9901
 5332TIP3   OH237630   5.584   4.816   8.439 -0.2387  0.6547 -0.3729
 5332TIP3    H137631   5.520   4.860   8.495 -0.1225  0.1911  0.1283
 5332TIP3    H237632   5.555   4.836   8.349 -1.5774 -0.2652 -0.1671
 5333TIP3   OH237633   3.434   3.546   2.593  0.3134  0.2594  0.1786
 5333TIP3    H137634   3.485   3.626   2.580 -0.2400  0.6954  0.6622
 5333TIP3    H237635   3.475   3.503   2.669 -0.1297  0.6913  0.6690
 5334TIP3   OH237636   4.037   2.367   1.627  0.3268  0.5538  0.3435
 5334TIP3    H137637   3.991   2.409   1.699  0.6586  1.4835  0.0282
 5334TIP3    H237638   4.126   2.402   1.633  0.4528  0.3426 -0.2918
 5335TIP3   OH237639   0.125   4.585   1.629 -0.2763  0.2403 -0.7388
 5335TIP3    H137640   0.111   4.610   1.538  3.3485  2.8379 -0.7982
 5335TIP3    H237641   0.202   4.528   1.627 -0.3741  0.0349  0.6523
 5336TIP3   OH237642   6.401   3.446   1.563  0.6647 -0.2514  0.0303
 5336TIP3    H137643   6.323   3.450   1.618  0.3481  0.2462 -0.4412
 5336TIP3    H237644   6.409   3.534   1.527  0.8003 -0.5996 -0.8053
 5337TIP3   OH237645   4.915   0.832   1.382 -0.9290  0.5904 -0.3451
 5337TIP3    H137646   4.868   0.750   1.395 -1.0156  0.7014  0.0471
 5337TIP3    H237647   4.888   0.887   1.455  0.8642  0.1791  0.6822
 5338TIP3   OH237648   5.698   2.075   0.589 -0.3721 -0.4369 -0.4645
 5338TIP3    H137649   5.762   2.109   0.652 -1.2250  0.3936 -0.0260
 5338TIP3    H237650   5.643   2.150   0.568 -1.1624 -1.1221 -0.8921
 5339TIP3   OH237651   6.008   4.349   8.041 -0.0719  0.3097  0.2664
 5339TIP3    H137652   6.070   4.408   8.083 -0.2123  1.4817 -1.0818
 5339TIP3    H237653   6.005   4.378   7.950  0.5892 -2.4122 -0.7375
 5340TIP3   OH237654   0.529   4.365   8.630 -0.2482  0.3310 -0.0650
 5340TIP3    H137655   0.491   4.451   8.613  4.3435  2.7249  0.0584
 5340TIP3    H237656   0.483   4.333   8.708 -1.9025  2.7824  0.0714
 5341TIP3   OH237657   2.673   1.843   7.159  0.3651  0.0138 -0.1932
 5341TIP3    H137658   2.647   1.934   7.145  2.3588  0.5994 -0.5256
 5341TIP3    H237659   2.594   1.799   7.188 -0.7957  1.7242 -0.6124
 5342TIP3   OH237660   3.629   1.848   0.841  0.1864  0.2585  0.3556
 5342TIP3    H137661   3.631   1.763   0.886  1.5638  0.1029  0.0668
 5342TIP3    H237662   3.578   1.832   0.762 -2.9153  0.7196  2.1215
 5343TIP3   OH237663   6.015   0.749   2.872 -0.5508 -0.5666  0.1209
 5343TIP3    H137664   6.031   0.681   2.937 -0.4477  1.5615  2.4812
 5343TIP3    H237665   6.071   0.821   2.898 -1.0631  0.6791 -1.9551
 5344TIP3   OH237666   1.384   0.989   8.250 -0.2681  0.3526 -0.0170
 5344TIP3    H137667   1.292   0.985   8.223  0.1361 -0.5184 -1.3597
 5344TIP3    H237668   1.401   1.083   8.261 -0.4486  0.8660 -3.1071
 5345TIP3   OH237669   1.502   3.309   2.008  0.1064  0.3984  0.0406
 5345TIP3    H137670   1.451   3.253   1.950  0.6675 -0.5394  0.4341
 5345TIP3    H237671   1.589   3.268   2.012  0.7394  1.6823 -0.2086
 5346TIP3   OH237672   6.695   5.022   0.291  0.1347  0.0120 -1.0925
 5346TIP3    H137673   6.729   5.087   0.230  0.8739  1.2141  0.5190
 5346TIP3    H237674   6.619   5.064   0.331 -0.8361 -1.0772 -1.7165
 5347TIP3   OH237675   1.715   5.178   2.367 -0.1930  0.2556  0.2640
 5347TIP3    H137676   1.762   5.142   2.442 -0.8987  1.0882  1.1373
 5347TIP3    H237677   1.634   5.212   2.404 -0.8897  0.0224 -1.0054
 5348TIP3   OH237678   5.026   1.431   8.199  0.7606  0.1306  0.2522
 5348TIP3    H137679   5.040   1.521   8.231  0.6788  0.1391  0.2649
 5348TIP3    H237680   5.015   1.441   8.104  0.8350  0.1244  0.2431
 5349TIP3   OH237681   3.436   1.573   8.717 -0.2860 -0.0676  0.0330
 5349TIP3    H137682   3.530   1.589   8.723 -0.4278  1.2460 -0.8338
 5349TIP3    H237683   3.398   1.659   8.702 -1.7772 -0.3970  1.6996
 5350TIP3   OH237684   2.614   6.130   1.653 -0.4599  0.0345  0.0869
 5350TIP3    H137685   2.618   6.182   1.734 -0.0911  0.5131 -0.2322
 5350TIP3    H237686   2.598   6.041   1.683 -1.0393  0.3223  0.6514
 5351TIP3   OH237687   5.232   3.168   6.874 -0.1424  0.1410  0.1972
 5351TIP3    H137688   5.250   3.075   6.864  0.6203  0.2949  0.0825
 5351TIP3    H237689   5.136   3.175   6.867 -0.2638 -0.7065  0.8930
 5352TIP3   OH237690   4.732   5.274   0.986 -0.2500 -0.4257  0.3232
 5352TIP3    H137691   4.782   5.248   0.908  1.8776 -0.2742  1.5654
 5352TIP3    H237692   4.730   5.370   0.981 -0.0160 -0.4110  0.5111
 5353TIP3   OH237693   6.159   3.921   2.843 -0.1310 -0.6283 -0.0403
 5353TIP3    H137694   6.188   4.009   2.867 -1.5430 -0.2140  0.2029
 5353TIP3    H237695   6.234   3.865   2.864  0.2021  0.2865  1.3707
 5354TIP3   OH237696   1.308   5.387   0.234  0.7233 -0.1306 -0.6939
 5354TIP3    H137697   1.246   5.448   0.194  0.5149  0.1274  0.0226
 5354TIP3    H237698   1.369   5.366   0.163  1.0473  1.2217 -0.8427
 5355TIP3   OH237699   4.994   2.958   0.047  0.2227 -0.5241 -1.0002
 5355TIP3    H137700   5.083   2.992   0.050  0.1628 -0.3856 -0.7291
 5355TIP3    H237701   4.996   2.890  -0.021  0.1901  0.4397 -1.9877
 5356TIP3   OH237702   4.390   0.202   1.842  0.7003  0.0009 -0.4752
 5356TIP3    H137703   4.417   0.159   1.923 -0.9136  1.4566  0.9417
 5356TIP3    H237704   4.471   0.238   1.805  1.3706  0.0993  1.0171
 5357TIP3   OH237705   0.202   5.870   0.055 -0.0277  0.1058 -0.0324
 5357TIP3    H137706   0.191   5.779   0.083 -1.1039  0.1584 -0.2300
 5357TIP3    H237707   0.249   5.864  -0.029 -0.8727 -0.3349 -0.4894
 5358TIP3   OH237708   0.554   1.670   7.289  0.4966 -0.5702  0.1473
 5358TIP3    H137709   0.470   1.702   7.257  0.7825  0.2128  0.1523
 5358TIP3    H237710   0.539   1.651   7.382 -0.5612 -3.6386 -0.5408
 5359TIP3   OH237711   3.873   5.977   7.745 -0.0076 -0.4016 -0.2898
 5359TIP3    H137712   3.837   5.889   7.735  2.9265 -1.6608 -0.8697
 5359TIP3    H237713   3.921   5.974   7.828  1.2113  0.2049 -0.9510
 5360TIP3   OH237714   3.889   2.214   0.848 -0.3984 -0.0691  0.6285
 5360TIP3    H137715   3.952   2.244   0.913 -2.3482  1.4549  1.9501
 5360TIP3    H237716   3.832   2.290   0.834 -1.5765 -1.1837 -0.9436
 5361TIP3   OH237717   3.515   4.149   2.819  0.2174  0.4756 -0.6600
 5361TIP3    H137718   3.505   4.183   2.730 -0.7721 -0.2127 -0.8382
 5361TIP3    H237719   3.563   4.067   2.808  2.8721  1.8613 -0.2007
 5362TIP3   OH237720   6.112   0.060   7.910  0.1774  0.1884  0.4687
 5362TIP3    H137721   6.052   0.132   7.891 -0.4232 -0.4814 -0.2573
 5362TIP3    H237722   6.069   0.010   7.979  0.9828  0.9677  1.5712
 5363TIP3   OH237723   6.757   0.072   8.686 -0.1885 -0.8601 -0.0959
 5363TIP3    H137724   6.704  -0.008   8.681  2.3856 -2.7590  0.5491
 5363TIP3    H237725   6.744   0.114   8.601 -4.2626  0.0022  0.7265
 5364TIP3   OH237726   2.208   3.617   2.590  0.1770  0.0330 -0.4517
 5364TIP3    H137727   2.122   3.648   2.616 -0.5336 -1.7005 -0.5720
 5364TIP3    H237728   2.192   3.562   2.514  1.1705 -1.4674  0.3543
 5365TIP3   OH237729   4.562   2.486   0.401  0.5442 -0.1575 -0.7601
 5365TIP3    H137730   4.508   2.440   0.336 -2.5137  0.2921  1.2637
 5365TIP3    H237731   4.568   2.425   0.474 -1.1314  1.4420  0.8180
 5366TIP3   OH237732   3.084   3.336   8.221 -0.4768  0.1919 -0.0611
 5366TIP3    H137733   3.148   3.318   8.151 -0.7323  3.2457 -1.2533
 5366TIP3    H237734   3.137   3.368   8.294 -0.1784 -3.3114  1.4103
 5367TIP3   OH237735   2.231   5.326   2.494 -0.5967  0.2808  0.3230
 5367TIP3    H137736   2.268   5.336   2.582 -0.1664 -1.8136  0.4324
 5367TIP3    H237737   2.217   5.416   2.463  1.6658  1.1143  1.5062
 5368TIP3   OH237738   3.163   3.593   1.606 -0.4489  0.4301 -0.0206
 5368TIP3    H137739   3.126   3.552   1.684 -0.5280  0.6600  0.0613
 5368TIP3    H237740   3.102   3.571   1.535 -1.7724  2.3995  0.4538
 5369TIP3   OH237741   2.239   2.217   2.782  0.6139  0.0897 -0.1796
 5369TIP3    H137742   2.175   2.287   2.796 -0.8672 -0.8014 -1.9419
 5369TIP3    H237743   2.186   2.136   2.784  2.2129 -0.9771  1.4820
 5370TIP3   OH237744   0.147   3.561   2.497  0.2728  0.1317 -0.1199
 5370TIP3    H137745   0.150   3.472   2.533 -1.8312  0.6122  1.4684
 5370TIP3    H237746   0.205   3.612   2.555  0.8297 -0.0344 -0.5247
 5371TIP3   OH237747   3.627   2.650   0.928  0.1723 -0.1121  0.5893
 5371TIP3    H137748   3.656   2.695   1.007  0.5728 -0.6494  0.7547
 5371TIP3    H237749   3.584   2.570   0.959 -1.1955  0.4891  0.3309
 5372TIP3   OH237750   4.620   0.633   8.272  0.6257 -0.1249 -0.0836
 5372TIP3    H137751   4.632   0.720   8.311 -0.0473 -0.3683  0.7000
 5372TIP3    H237752   4.708   0.596   8.268  0.8310  0.3248  0.2353
 5373TIP3   OH237753   4.452   4.634   8.636  0.2074 -0.1295  0.5349
 5373TIP3    H137754   4.382   4.569   8.637  0.4912 -0.6236 -2.3695
 5373TIP3    H237755   4.436   4.685   8.556  2.3744  0.6126  0.4959
 5374TIP3   OH237756   6.577   3.375   1.035 -0.1612 -0.0743 -0.7941
 5374TIP3    H137757   6.635   3.362   1.110  0.4676 -1.5521 -1.5053
 5374TIP3    H237758   6.489   3.383   1.074  0.5216  3.7084  0.4304
 5375TIP3   OH237759   3.418   2.858   0.904 -0.3716 -0.2929 -0.0972
 5375TIP3    H137760   3.478   2.800   0.858  0.3161  1.3765 -1.3992
 5375TIP3    H237761   3.456   2.868   0.991  3.3606  3.3211 -1.7826
 5376TIP3   OH237762   3.117   6.771   1.713 -0.0655 -0.0985  0.6114
 5376TIP3    H137763   3.205   6.737   1.727  0.3199  0.8577  0.5499
 5376TIP3    H237764   3.059   6.707   1.755  0.7323 -0.0301  1.8265
 5377TIP3   OH237765   5.817   3.064   2.015  0.3618  0.3825 -0.3898
 5377TIP3    H137766   5.844   3.019   1.934  0.1750 -1.2408  0.4157
 5377TIP3    H237767   5.898   3.103   2.048  0.3111  1.6938 -1.7019
 5378TIP3   OH237768   6.756   1.263   1.520  0.0383  0.3101 -0.3376
 5378TIP3    H137769   6.709   1.305   1.593 -0.4395  0.3745 -0.6740
 5378TIP3    H237770   6.725   1.310   1.443  0.8872  0.5475 -0.5464
 5379TIP3   OH237771   2.105   6.523   8.001  0.6455 -0.0341  0.2085
 5379TIP3    H137772   2.152   6.471   7.936 -0.4987 -0.7849 -0.0338
 5379TIP3    H237773   2.022   6.546   7.960 -0.0450 -0.4026  1.3421
 5380TIP3   OH237774   4.719   5.320   2.208 -0.1474 -0.3613 -1.1827
 5380TIP3    H137775   4.625   5.335   2.202 -0.2981 -0.7330 -0.0558
 5380TIP3    H237776   4.730   5.272   2.290  1.2493  1.6294 -0.1023
 5381TIP3   OH237777   6.190   4.498   8.196 -0.1288 -0.0572 -0.4272
 5381TIP3    H137778   6.255   4.559   8.163  1.0226 -0.4160  1.0449
 5381TIP3    H237779   6.241   4.425   8.231 -1.3461 -0.6536  0.1795
 5382TIP3   OH237780   0.992   6.057   0.087  0.4858 -0.7300  0.1529
 5382TIP3    H137781   1.001   6.066   0.181 -0.3044 -0.9854  0.2588
 5382TIP3    H237782   1.082   6.046   0.055  1.4119  4.3281  0.2671
 5383TIP3   OH237783   1.181   0.789   2.953  0.2182 -0.2119  0.0654
 5383TIP3    H137784   1.222   0.712   2.913 -1.1320 -1.3980  0.8844
 5383TIP3    H237785   1.254   0.838   2.990  0.9727 -2.2019  1.3720
 5384TIP3   OH237786   6.814   1.928   1.000  0.8505  0.5327 -0.2132
 5384TIP3    H137787   6.757   1.964   0.932  0.7473 -0.3152 -0.5946
 5384TIP3    H237788   6.899   1.971   0.986  0.8295  0.3761 -0.8827
 5385TIP3   OH237789   0.243   2.120   1.301 -0.0581 -0.2115 -0.0632
 5385TIP3    H137790   0.258   2.183   1.231  1.7890 -0.5059  0.0350
 5385TIP3    H237791   0.316   2.058   1.295 -1.2768 -1.7898  0.4672
 5386TIP3   OH237792   5.923   3.098   8.571  0.0379  0.0746 -0.3520
 5386TIP3    H137793   5.877   3.125   8.651 -0.0585  0.3036 -0.4841
 5386TIP3    H237794   5.977   3.173   8.547 -0.4859  0.2875 -0.9079
 5387TIP3   OH237795   4.774   4.048   3.620 -0.5271 -0.2226  0.1585
 5387TIP3    H137796   4.682   4.044   3.595 -0.8912  1.0790  1.1723
 5387TIP3    H237797   4.784   4.135   3.659  0.7581 -0.9417  1.5279
 5388TIP3   OH237798   4.883   5.543   2.185 -0.3094  0.1079  0.6754
 5388TIP3    H137799   4.857   5.591   2.106  0.1540  0.1031  0.5146
 5388TIP3    H237800   4.833   5.461   2.181 -1.4933  0.7742  1.2163
 5389TIP3   OH237801   3.575   0.357   2.138 -0.2628  0.2279  0.0713
 5389TIP3    H137802   3.600   0.330   2.226 -0.7390 -2.5546 -0.5451
 5389TIP3    H237803   3.482   0.379   2.146 -0.1663  0.5394  0.3636
 5390TIP3   OH237804   3.262   5.634   2.437  0.2189 -0.0140 -0.3273
 5390TIP3    H137805   3.196   5.583   2.391 -0.0345 -1.2939  1.3433
 5390TIP3    H237806   3.276   5.586   2.520 -0.3599  2.8543  1.5683
 5391TIP3   OH237807   6.633   5.839   0.282 -0.5245 -0.9041 -0.0455
 5391TIP3    H137808   6.548   5.873   0.253 -0.0545  0.7719  0.4507
 5391TIP3    H237809   6.678   5.915   0.317  0.7298 -2.0102  0.8074
 5392TIP3   OH237810   1.880   6.150   0.232 -0.3900 -0.5023  0.5910
 5392TIP3    H137811   1.975   6.153   0.231 -0.3365 -1.7208 -0.0737
 5392TIP3    H237812   1.856   6.172   0.322  0.5032  0.0998  0.6867
 5393TIP3   OH237813   0.673   5.800   1.243 -0.7353 -0.4392  0.2023
 5393TIP3    H137814   0.669   5.895   1.253 -0.4380 -0.3807 -0.2206
 5393TIP3    H237815   0.590   5.769   1.278 -0.5643 -0.0797  0.9500
 5394TIP3   OH237816   6.677   6.297   3.253 -0.0985  0.2270  0.5084
 5394TIP3    H137817   6.651   6.340   3.335 -3.8318 -1.8225  0.6381
 5394TIP3    H237818   6.605   6.316   3.193  0.2526 -2.1450 -0.7750
 5395TIP3   OH237819   1.835   3.930   2.434 -0.1897  0.2269  0.5376
 5395TIP3    H137820   1.808   4.007   2.483 -0.9576  1.2528 -1.3773
 5395TIP3    H237821   1.931   3.938   2.429 -0.2493  1.0372  0.4420
 5396TIP3   OH237822   3.624   6.394   0.291  0.9575  0.1239 -0.2979
 5396TIP3    H137823   3.634   6.388   0.386  0.3063 -0.4513 -0.2620
 5396TIP3    H237824   3.683   6.466   0.266 -0.4342  1.7489  0.8120
 5397TIP3   OH237825   1.293   3.659   1.076 -0.6062  0.3141  0.3427
 5397TIP3    H137826   1.361   3.660   1.143 -0.5487 -0.8892  0.3348
 5397TIP3    H237827   1.221   3.610   1.116  0.3294 -2.5830 -1.2440
 5398TIP3   OH237828   5.448   5.387   1.155 -0.1906 -0.1714 -0.3127
 5398TIP3    H137829   5.385   5.344   1.212 -1.0329 -2.3297 -2.6928
 5398TIP3    H237830   5.401   5.463   1.120 -0.1782  0.2975  0.6530
 5399TIP3   OH237831   1.419   3.972   0.124 -0.0113  0.5618 -0.5630
 5399TIP3    H137832   1.439   3.946   0.034  1.4948  1.7399 -0.6026
 5399TIP3    H237833   1.345   4.031   0.116 -2.1655 -1.9790 -0.6576
 5400TIP3   OH237834   5.214   0.692   1.682 -0.7139 -0.1314 -0.3295
 5400TIP3    H137835   5.144   0.638   1.645 -0.4948 -0.9915  0.4902
 5400TIP3    H237836   5.234   0.652   1.766 -0.2411  0.9767  0.1037
 5401TIP3   OH237837   6.792   6.425   2.959 -0.0543  0.2139 -0.3388
 5401TIP3    H137838   6.763   6.512   2.984  0.0574 -0.4049  2.2968
 5401TIP3    H237839   6.757   6.411   2.872 -1.2277  2.3564 -0.2650
 5402TIP3   OH237840   6.281   1.421   0.427 -0.5579 -0.5680  0.2046
 5402TIP3    H137841   6.323   1.344   0.466 -0.5028  0.1069  1.5235
 5402TIP3    H237842   6.231   1.460   0.499 -1.1520  0.2412 -0.6303
 5403TIP3   OH237843   3.488   2.401   8.680 -0.0498  0.5054 -0.4907
 5403TIP3    H137844   3.510   2.437   8.594 -2.1614  0.2074 -1.1986
 5403TIP3    H237845   3.456   2.313   8.662  0.7086 -0.0522  0.7658
 5404TIP3   OH237846   2.302   5.385   1.172  0.0951  0.8955 -0.3326
 5404TIP3    H137847   2.217   5.341   1.164  0.1378  0.8132 -0.3271
 5404TIP3    H237848   2.365   5.324   1.134 -0.0346  1.5602 -1.6711
 5405TIP3   OH237849   3.328   5.971   2.315 -0.0427  0.3744 -0.0162
 5405TIP3    H137850   3.378   5.960   2.396  0.4214  2.2734  0.0106
 5405TIP3    H237851   3.391   6.003   2.251 -0.8442  1.0425 -0.4998
 5406TIP3   OH237852   2.029   0.301   1.766  0.2400  0.1860  0.2182
 5406TIP3    H137853   1.993   0.308   1.677 -0.1578 -0.6120  0.3068
 5406TIP3    H237854   2.057   0.390   1.787  0.0235  0.4555 -0.5744
 5407TIP3   OH237855   4.824   0.871   2.009  0.4624 -0.4257  0.0995
 5407TIP3    H137856   4.856   0.815   2.080  0.2470  0.2605  0.7510
 5407TIP3    H237857   4.735   0.895   2.036  0.6953  0.5523  0.0323
 5408TIP3   OH237858   2.070   3.578   7.341  0.3779 -0.1028 -0.1756
 5408TIP3    H137859   2.155   3.622   7.338  0.8127 -0.9381 -0.7415
 5408TIP3    H237860   2.072   3.517   7.266 -0.1770 -1.1012  0.5947
 5409TIP3   OH237861   3.247   1.813   8.366 -0.2345  0.2454  0.0228
 5409TIP3    H137862   3.306   1.743   8.340  0.7711  1.5504 -1.4034
 5409TIP3    H237863   3.162   1.786   8.332  0.5997  0.7807 -2.7641
 5410TIP3   OH237864   3.775   0.647   1.600 -0.2397  0.8807  0.0944
 5410TIP3    H137865   3.683   0.657   1.624 -0.7236 -1.7324 -0.3198
 5410TIP3    H237866   3.811   0.591   1.669 -0.2822 -2.1471 -2.1200
 5411TIP3   OH237867   0.600   4.087   3.659 -0.3760 -0.2584  0.4266
 5411TIP3    H137868   0.561   4.085   3.572 -0.4201 -1.1273  0.4613
 5411TIP3    H237869   0.574   4.005   3.700 -0.5760  0.2542  1.3648
 5412TIP3   OH237870   6.470   3.947   3.449  0.0629 -0.0824  0.3568
 5412TIP3    H137871   6.471   3.924   3.542 -1.6127 -1.3799  0.1088
 5412TIP3    H237872   6.413   4.025   3.444  2.0799  1.4917  0.6499
 5413TIP3   OH237873   3.911   2.915   7.473  0.0165 -0.3161  0.5452
 5413TIP3    H137874   3.923   2.821   7.488 -3.7149 -0.8650  1.1187
 5413TIP3    H237875   3.875   2.921   7.385  0.2638  0.6105  0.5010
 5414TIP3   OH237876   1.746   6.130   1.923 -0.0994 -0.0497  0.3087
 5414TIP3    H137877   1.709   6.204   1.971  0.8111  0.4920  0.1912
 5414TIP3    H237878   1.823   6.165   1.879 -0.3061 -0.7875 -0.6991
 5415TIP3   OH237879   6.732   6.054   8.240 -0.2276 -0.6351 -0.7490
 5415TIP3    H137880   6.793   5.986   8.270  0.6023  0.1353 -0.6223
 5415TIP3    H237881   6.726   6.042   8.146  1.7978  0.5513 -1.0901
 5416TIP3   OH237882   5.129   1.846   1.269 -0.4762 -0.3969 -0.1850
 5416TIP3    H137883   5.154   1.796   1.346 -0.8985  0.2424  0.3744
 5416TIP3    H237884   5.045   1.808   1.242 -1.2740  0.5992  0.8032
 5417TIP3   OH237885   1.389   3.495   2.776 -0.0339  0.5223  0.1356
 5417TIP3    H137886   1.411   3.402   2.766  0.3428  0.6380 -0.1653
 5417TIP3    H237887   1.421   3.535   2.695 -1.0390  0.7676 -0.1585
 5418TIP3   OH237888   4.108   6.189   0.918 -0.0947 -0.3199 -0.3874
 5418TIP3    H137889   4.191   6.142   0.928  0.0716 -0.0505 -0.5009
 5418TIP3    H237890   4.117   6.266   0.975  0.1922  0.3305 -1.2946
 5419TIP3   OH237891   1.534   5.403   0.460 -0.0421 -0.1508 -0.1499
 5419TIP3    H137892   1.499   5.314   0.463 -2.4164  0.7121  0.0000
 5419TIP3    H237893   1.527   5.434   0.550 -1.7399  1.0214 -0.6359
 5420TIP3   OH237894   0.180   5.644   0.223  0.2250  0.3000  0.3464
 5420TIP3    H137895   0.101   5.606   0.260 -1.8197  1.9536 -1.9337
 5420TIP3    H237896   0.186   5.606   0.135 -0.8755  3.5101 -1.3272
 5421TIP3   OH237897   4.911   5.565   8.630  0.3892  0.0301  0.3027
 5421TIP3    H137898   4.870   5.547   8.545 -0.6973  1.1032  0.5810
 5421TIP3    H237899   5.000   5.593   8.608 -0.4953  2.3380 -0.6791
 5422TIP3   OH237900   1.672   3.894   1.843  0.4646  0.2455  0.1771
 5422TIP3    H137901   1.635   3.966   1.793 -1.2838 -0.0463  0.9445
 5422TIP3    H237902   1.606   3.877   1.911  1.0744 -1.7007  0.3401
 5423TIP3   OH237903   6.272   4.752   8.693  0.4430 -0.2259 -0.3892
 5423TIP3    H137904   6.247   4.660   8.692  0.9405 -0.3819  0.4020
 5423TIP3    H237905   6.213   4.794   8.631 -1.2316 -0.7258  0.8067
 5424TIP3   OH237906   3.907   5.732   0.831 -0.3415  0.4065 -0.4474
 5424TIP3    H137907   3.907   5.824   0.857  0.4917  0.6080 -1.1106
 5424TIP3    H237908   3.822   5.719   0.789 -1.1378  0.4265  1.1048
 5425TIP3   OH237909   3.908   4.314   1.226  0.3518  0.0010  0.3490
 5425TIP3    H137910   4.000   4.339   1.221  0.3055  0.2971  0.8702
 5425TIP3    H237911   3.876   4.355   1.307 -0.4005  0.4486 -0.1546
 5426TIP3   OH237912   2.590   6.348   8.091 -0.0969  0.2304 -0.2707
 5426TIP3    H137913   2.511   6.296   8.078  0.3212 -1.1467  2.0322
 5426TIP3    H237914   2.582   6.380   8.181  1.7929  0.3458 -0.0997
 5427TIP3   OH237915   6.543   2.640   0.032 -0.7638 -0.3017  0.4287
 5427TIP3    H137916   6.595   2.655   0.111  0.3956 -0.6311 -0.2478
 5427TIP3    H237917   6.515   2.548   0.038 -0.8972 -0.2508  0.5805
 5428TIP3   OH237918   5.963   6.720   8.120  0.4151  0.0561  0.0779
 5428TIP3    H137919   5.926   6.775   8.189  0.6109 -1.3453  1.3469
 5428TIP3    H237920   5.889   6.700   8.063  0.3898  1.7978 -0.5643
 5429TIP3   OH237921   4.154   2.565   2.801 -0.1754 -0.3631  0.3687
 5429TIP3    H137922   4.206   2.485   2.791  0.2253 -0.2598  1.4977
 5429TIP3    H237923   4.078   2.551   2.744  0.1688 -1.3015  0.1142
 5430TIP3   OH237924   2.673   0.827   8.592  0.4253 -0.4064  0.3921
 5430TIP3    H137925   2.671   0.923   8.593 -0.1329 -0.3678 -1.5004
 5430TIP3    H237926   2.675   0.803   8.685  0.9813  1.4324  0.9104
 5431TIP3   OH237927   4.056   6.514   0.890 -0.0489  1.3913 -0.3538
 5431TIP3    H137928   4.038   6.476   0.804 -0.2410 -2.5221  1.1940
 5431TIP3    H237929   3.972   6.516   0.935  0.3907  1.0301  0.5312
 5432TIP3   OH237930   0.258   5.630   0.521  0.9463 -0.0020  0.1801
 5432TIP3    H137931   0.249   5.596   0.610 -0.1961  1.0578  0.4921
 5432TIP3    H237932   0.175   5.609   0.478  1.5225 -0.5821 -0.6813
 5433TIP3   OH237933   5.402   0.251   8.571  0.3859  0.3193  0.5790
 5433TIP3    H137934   5.398   0.292   8.658 -2.0380 -1.3091  1.3510
 5433TIP3    H237935   5.310   0.236   8.547  1.0337 -0.4891 -1.6823
 5434TIP3   OH237936   1.076   1.139   8.448  0.7809  0.4373  0.2267
 5434TIP3    H137937   1.149   1.188   8.411  0.3345  0.0156 -1.2905
 5434TIP3    H237938   1.028   1.202   8.501  0.9089  1.3207 -0.6934
 5435TIP3   OH237939   2.492   3.313   3.064 -0.1537 -0.1744  0.8937
 5435TIP3    H137940   2.543   3.351   3.135  0.9416  0.3210 -0.1103
 5435TIP3    H237941   2.464   3.388   3.012  0.1874 -0.5899  0.0873
 5436TIP3   OH237942   1.428   4.908   0.983 -0.3829  0.7591 -0.8712
 5436TIP3    H137943   1.487   4.961   1.037 -0.5764 -0.5359  0.6843
 5436TIP3    H237944   1.350   4.962   0.973 -1.3228  0.1881  2.2321
 5437TIP3   OH237945   3.485   0.785   8.237  0.3348 -0.3848  0.8520
 5437TIP3    H137946   3.453   0.719   8.176 -1.1308  0.2478  0.9008
 5437TIP3    H237947   3.489   0.741   8.322 -0.3418 -0.4941  0.8274
 5438TIP3   OH237948   2.453   4.196   0.768  0.8937 -0.0063 -0.2686
 5438TIP3    H137949   2.405   4.273   0.798 -0.4312 -0.2968 -1.5364
 5438TIP3    H237950   2.406   4.122   0.806  0.5091 -0.2830 -1.2474
 5439TIP3   OH237951   4.267   5.394   7.959  0.0528  0.5919 -0.4163
 5439TIP3    H137952   4.327   5.365   7.890 -0.9767  0.9059 -1.4656
 5439TIP3    H237953   4.279   5.489   7.963  2.3012  0.3378  1.9681
 5440TIP3   OH237954   3.130   3.034   1.049  0.4085 -0.0379 -0.1668
 5440TIP3    H137955   3.205   3.017   0.993  1.0766 -0.3324  0.7958
 5440TIP3    H237956   3.120   2.954   1.101 -1.6952 -0.7401 -1.4986
 5441TIP3   OH237957   0.560   6.143   8.471 -0.2215  0.2968  0.1333
 5441TIP3    H137958   0.623   6.212   8.496 -0.3891  0.6090 -0.2921
 5441TIP3    H237959   0.550   6.153   8.376  1.2684 -1.5872 -0.2847
 5442TIP3   OH237960   2.037   3.010   7.582 -0.1242 -1.1644 -0.0587
 5442TIP3    H137961   2.060   3.103   7.589 -0.8358 -0.9193 -0.8221
 5442TIP3    H237962   1.958   3.009   7.528 -0.8890 -2.1177  1.0361
 5443TIP3   OH237963   5.217   5.308   0.526 -0.7508  0.2283  0.6713
 5443TIP3    H137964   5.148   5.318   0.591 -1.1849  0.5529  0.1683
 5443TIP3    H237965   5.175   5.326   0.442 -0.0531  0.4712  0.3574
 5444TIP3   OH237966   1.734   1.347   1.640 -0.4288  0.2077 -0.7626
 5444TIP3    H137967   1.819   1.372   1.675 -0.5831  0.1432 -0.3341
 5444TIP3    H237968   1.676   1.344   1.717 -0.1137 -2.9363 -0.5048
 5445TIP3   OH237969   5.672   2.654   8.533  0.5613  0.3742 -0.3917
 5445TIP3    H137970   5.628   2.729   8.492  0.3566  0.5137  0.0634
 5445TIP3    H237971   5.710   2.691   8.613  0.5000 -0.0007 -0.1901
 5446TIP3   OH237972   5.599   6.452   2.346  0.2477 -0.0835 -0.0392
 5446TIP3    H137973   5.681   6.403   2.345 -0.6129 -1.7569  2.4156
 5446TIP3    H237974   5.556   6.429   2.264  1.0589 -1.3159 -0.1398
 5447TIP3   OH237975   1.806   3.677   2.888 -0.1520  0.1978  0.1035
 5447TIP3    H137976   1.878   3.695   2.948  1.4367  0.0549 -1.6657
 5447TIP3    H237977   1.777   3.763   2.858  1.2338  0.2264 -1.3088
 5448TIP3   OH237978   5.480   1.030   2.535  0.5988  0.4953 -0.3660
 5448TIP3    H137979   5.567   0.997   2.558  1.0681 -0.7407 -3.4346
 5448TIP3    H237980   5.489   1.126   2.541  0.5794  0.4465  4.0968
 5449TIP3   OH237981   2.419   2.846   0.676  0.5694 -0.4093  0.0624
 5449TIP3    H137982   2.324   2.854   0.682  0.5659 -0.0084 -0.5299
 5449TIP3    H237983   2.452   2.894   0.752  0.3635  1.1757 -0.8086
 5450TIP3   OH237984   5.697   5.665   0.757 -0.0119 -0.4879  0.7975
 5450TIP3    H137985   5.686   5.633   0.847  0.6566  0.6732  1.3169
 5450TIP3    H237986   5.749   5.598   0.714 -1.6243 -1.8045  0.8098
 5451TIP3   OH237987   4.981   5.065   8.221 -0.5929  0.2595 -0.1274
 5451TIP3    H137988   5.023   5.016   8.151 -1.3180  2.3888 -2.2083
 5451TIP3    H237989   5.018   5.029   8.302  0.6755 -1.9547 -1.5885
 5452TIP3   OH237990   4.942   6.315   8.439 -0.0064  0.1491 -0.4186
 5452TIP3    H137991   4.881   6.244   8.460 -0.6033  0.7138 -0.2278
 5452TIP3    H237992   5.029   6.278   8.458 -0.3711 -0.1700  0.7526
 5453TIP3   OH237993   4.926   4.376   3.761  0.0554  0.0797  0.3199
 5453TIP3    H137994   4.854   4.345   3.707  0.0036  1.5445 -0.4986
 5453TIP3    H237995   4.913   4.471   3.767  3.5832  0.9746 -2.5522
 5454TIP3   OH237996   6.717   2.801   8.287  0.3763 -0.2636  0.5130
 5454TIP3    H137997   6.778   2.868   8.256  0.4842  1.3493  3.7311
 5454TIP3    H237998   6.631   2.844   8.286  0.0718 -0.8640  0.4676
 5455TIP3   OH237999   5.185   3.986   2.637 -0.3687  0.3165  0.7305
 5455TIP3    H138000   5.213   3.979   2.546 -2.6592  0.4632 -0.0550
 5455TIP3    H238001   5.249   4.044   2.678  0.8027  0.1024 -0.7327
 5456TIP3   OH238002   1.856   4.107   0.390  0.1452  0.2790 -0.0323
 5456TIP3    H138003   1.791   4.063   0.336 -0.3016  1.0802 -0.1716
 5456TIP3    H238004   1.940   4.093   0.345 -0.2368  1.0705 -1.0477
 5457TIP3   OH238005   4.611   0.894   0.024  0.0187  0.3765  0.0537
 5457TIP3    H138006   4.632   0.802   0.042  0.6316  0.5664  0.3531
 5457TIP3    H238007   4.561   0.923   0.100 -0.5183  0.1813 -0.2248
 5458TIP3   OH238008   5.632   5.419   1.680  0.0002  1.0242  0.1256
 5458TIP3    H138009   5.641   5.367   1.760  2.5826  1.3100  0.1099
 5458TIP3    H238010   5.551   5.468   1.692 -0.3840  0.0435  1.9437
 5459TIP3   OH238011   1.478   0.462   0.642 -0.2839 -0.0117 -0.2599
 5459TIP3    H138012   1.384   0.476   0.628 -0.1333  1.2060 -0.1878
 5459TIP3    H238013   1.488   0.461   0.737 -0.2072 -0.0378 -0.2683
 5460TIP3   OH238014   6.707   3.748   2.882  0.1915  0.3521  0.5652
 5460TIP3    H138015   6.669   3.721   2.965  1.1700 -2.5300  0.2121
 5460TIP3    H238016   6.777   3.685   2.866  0.4800  1.2001 -2.1283
 5461TIP3   OH238017   3.559   5.637   8.574 -0.4448 -0.0031 -0.4735
 5461TIP3    H138018   3.631   5.699   8.558  0.3501 -0.4776  1.0495
 5461TIP3    H238019   3.480   5.685   8.549  0.3173  0.8686 -1.3064
 5462TIP3   OH238020   4.547   6.468   2.676  0.2916  0.6085 -0.5640
 5462TIP3    H138021   4.628   6.514   2.698 -1.2168  2.5167  1.4621
 5462TIP3    H238022   4.540   6.398   2.742 -0.3077  1.2575  0.0749
 5463TIP3   OH238023   3.830   6.515   0.144 -0.0855  0.1174 -0.5708
 5463TIP3    H138024   3.901   6.577   0.125  0.0110 -0.1339 -1.0718
 5463TIP3    H238025   3.873   6.445   0.192  0.6494 -1.3784 -3.1686
 5464TIP3   OH238026   6.419   4.362   7.820  0.4905 -0.0000  0.5330
 5464TIP3    H138027   6.345   4.420   7.805  0.7663  0.1436 -0.3724
 5464TIP3    H238028   6.465   4.360   7.735  1.2680 -0.4281  0.9524
 5465TIP3   OH238029   5.416   0.977   1.845 -0.1136  0.1090  0.4448
 5465TIP3    H138030   5.411   0.883   1.826 -0.8616  0.0680  0.8169
 5465TIP3    H238031   5.408   0.983   1.940 -1.4638  0.6317  0.3154
 5466TIP3   OH238032   5.134   6.578   7.828  0.0447 -0.0757  0.5677
 5466TIP3    H138033   5.116   6.672   7.829 -1.8740 -0.3920  0.8984
 5466TIP3    H238034   5.193   6.564   7.902  2.0640  1.1150 -0.7402
 5467TIP3   OH238035   0.243   2.682   8.279 -0.0559 -0.3678  0.2241
 5467TIP3    H138036   0.237   2.649   8.189  1.0719 -0.0943  0.0295
 5467TIP3    H238037   0.154   2.675   8.313 -0.7458  0.5371 -1.2706
 5468TIP3   OH238038   5.275   2.357   1.150  0.4655 -0.6460 -0.2655
 5468TIP3    H138039   5.293   2.445   1.181 -1.9812 -0.3246  0.4773
 5468TIP3    H238040   5.330   2.300   1.204 -0.1687  0.2466  1.3754
 5469TIP3   OH238041   5.267   2.175   8.558 -0.2493  0.0907 -0.2982
 5469TIP3    H138042   5.209   2.245   8.587 -0.3356  0.4208 -1.2499
 5469TIP3    H238043   5.317   2.212   8.486  2.9552  0.6199  1.9899
 5470TIP3   OH238044   1.586   1.140   0.042 -0.1879  0.0079 -0.5670
 5470TIP3    H138045   1.577   1.186   0.125 -1.9083 -0.5120 -0.4405
 5470TIP3    H238046   1.639   1.063   0.063 -0.5158 -0.0632  0.0194
 5471TIP3   OH238047   5.022   2.668   2.065  0.3358 -0.2091 -0.2256
 5471TIP3    H138048   5.069   2.747   2.038  0.6365 -0.4954 -0.5508
 5471TIP3    H238049   5.009   2.680   2.159 -2.6416  1.8209 -0.7636
 5472TIP3   OH238050   1.102   1.846   8.100 -0.2790 -0.2507 -0.3673
 5472TIP3    H138051   1.105   1.898   8.019  2.2979 -3.2276 -2.4058
 5472TIP3    H238052   1.060   1.764   8.074 -0.3582 -0.9092  1.6445
 5473TIP3   OH238053   4.740   4.323   7.789 -0.2816 -1.0331 -0.3326
 5473TIP3    H138054   4.775   4.377   7.717 -0.5996  0.4550  0.6004
 5473TIP3    H238055   4.787   4.240   7.780  1.0385 -0.2455 -1.1492
 5474TIP3   OH238056   4.366   6.343   1.375 -1.1098  0.4149  0.1789
 5474TIP3    H138057   4.284   6.350   1.327 -1.9849 -1.4246  1.2827
 5474TIP3    H238058   4.396   6.254   1.359  0.3692  0.8617  0.2995
 5475TIP3   OH238059   3.568   1.888   8.275  0.2638  0.1339 -0.0942
 5475TIP3    H138060   3.563   1.894   8.370 -2.3671 -1.0561 -0.0884
 5475TIP3    H238061   3.576   1.795   8.257  1.5623  0.3981 -1.0761
 5476TIP3   OH238062   3.440   1.910   7.077 -0.1920  0.7911  0.2867
 5476TIP3    H138063   3.476   1.962   7.005 -0.3373 -1.9172 -1.9517
 5476TIP3    H238064   3.345   1.919   7.067 -0.5779 -3.4548 -3.4559
 5477TIP3   OH238065   6.462   2.078   2.562  0.0018  0.1575 -0.1374
 5477TIP3    H138066   6.434   2.170   2.554 -1.6316 -0.3489 -0.5788
 5477TIP3    H238067   6.507   2.075   2.647  1.9672  1.7898 -1.0369
 5478TIP3   OH238068   3.143   0.598   3.143 -0.1491 -0.7253  0.3165
 5478TIP3    H138069   3.216   0.559   3.190  0.2108  0.8777  1.1717
 5478TIP3    H238070   3.177   0.616   3.055  0.3388 -0.4486  0.5584
 5479TIP3   OH238071   1.462   4.292   1.286  0.1358  0.2059 -0.2565
 5479TIP3    H138072   1.387   4.292   1.227  0.5752 -0.5199 -0.8231
 5479TIP3    H238073   1.525   4.351   1.245  0.7028 -0.7980 -0.8747
 5480TIP3   OH238074   2.079   0.008   1.737 -0.0225 -0.3713  0.0496
 5480TIP3    H138075   2.016   0.080   1.739  0.7789  0.3277  1.1085
 5480TIP3    H238076   2.147   0.034   1.800  0.9093 -1.4784 -0.4742
 5481TIP3   OH238077   3.328   6.766   8.444  0.2153  0.0140 -0.0517
 5481TIP3    H138078   3.379   6.712   8.384 -0.0582  1.9584 -2.2039
 5481TIP3    H238079   3.241   6.725   8.446  0.2630 -0.1364 -0.9068
 5482TIP3   OH238080   5.142   6.726   8.345  0.1818  0.4539 -0.5905
 5482TIP3    H138081   5.147   6.790   8.416  0.0075  1.5153 -1.5011
 5482TIP3    H238082   5.190   6.650   8.377 -0.3379  0.7070  0.8627
 5483TIP3   OH238083   5.905   1.526   2.584  0.0159  0.4699 -0.3731
 5483TIP3    H138084   5.894   1.621   2.595  1.6344  0.5545  0.8779
 5483TIP3    H238085   5.873   1.489   2.666 -2.6722 -0.3260 -1.6564
 5484TIP3   OH238086   0.022   2.122   1.490 -0.1210  0.1400  0.4753
 5484TIP3    H138087   0.071   2.099   1.569 -0.5165  0.0851  0.7103
 5484TIP3    H238088   0.084   2.108   1.418  0.2846  0.3205  0.7854
 5485TIP3   OH238089   6.352   5.774   3.147 -0.0927  0.2587 -1.4919
 5485TIP3    H138090   6.444   5.773   3.121  0.0934 -0.4818 -0.8371
 5485TIP3    H238091   6.354   5.776   3.243 -0.7575 -0.2684 -1.4623
 5486TIP3   OH238092   6.517   3.245   0.812 -0.2023  0.2253  0.1828
 5486TIP3    H138093   6.587   3.207   0.758 -0.8352  1.7730 -1.8846
 5486TIP3    H238094   6.562   3.283   0.887  0.9067 -0.6904  0.0152
 5487TIP3   OH238095   3.793   4.714   1.384 -0.0529  0.1120 -0.6030
 5487TIP3    H138096   3.723   4.695   1.446  1.6201 -0.2963  1.2707
 5487TIP3    H238097   3.785   4.807   1.366 -0.8069  0.1542 -0.0860
 5488TIP3   OH238098   1.063   3.542   1.199  0.3918  0.0127  0.6601
 5488TIP3    H138099   1.029   3.467   1.149  0.8923  0.1492  0.1126
 5488TIP3    H238100   0.995   3.559   1.265  0.7501 -1.6239  1.5280
 5489TIP3   OH238101   0.749   2.488   2.642 -0.5096  0.1361 -0.3156
 5489TIP3    H138102   0.663   2.529   2.645 -1.1073 -1.0941  1.3885
 5489TIP3    H238103   0.772   2.475   2.734  1.5827  0.5606 -0.7281
 5490TIP3   OH238104   3.976   2.954   7.188 -0.4836 -0.1354 -0.2127
 5490TIP3    H138105   4.064   2.916   7.192  0.1737  1.1782 -1.2779
 5490TIP3    H238106   3.933   2.908   7.116 -0.4880 -0.4394 -0.0137
 5491TIP3   OH238107   0.806   0.712   2.048 -0.1725  0.0715 -0.2200
 5491TIP3    H138108   0.770   0.696   1.961  1.1643 -0.5689 -0.6733
 5491TIP3    H238109   0.854   0.794   2.039  0.3705 -0.2437 -0.2199
 5492TIP3   OH238110   3.171   2.504   2.004 -0.2195 -0.3850 -0.1219
 5492TIP3    H138111   3.153   2.505   2.098  1.5663  0.9789  0.2600
 5492TIP3    H238112   3.209   2.418   1.988 -1.2805 -0.9442  0.2001
 5493TIP3   OH238113   4.735   1.113   3.307  0.0918 -0.4306 -0.0607
 5493TIP3    H138114   4.700   1.202   3.315 -0.8480 -0.6274 -1.5644
 5493TIP3    H238115   4.827   1.126   3.283 -0.3398  0.1853 -1.4908
 5494TIP3   OH238116   1.544   3.112   2.433 -0.3259  0.0451 -0.2859
 5494TIP3    H138117   1.562   3.089   2.342  0.2076  0.3868 -0.2706
 5494TIP3    H238118   1.540   3.028   2.478  0.3471 -0.0932 -0.4626
 5495TIP3   OH238119   6.244   4.211   1.261 -0.2632  0.1736 -0.0325
 5495TIP3    H138120   6.161   4.251   1.235  1.2043  1.1085 -4.0620
 5495TIP3    H238121   6.240   4.123   1.224  0.9080  0.6222 -1.3124
 5496TIP3   OH238122   3.014   5.702   8.155  0.2103  0.1084 -0.1116
 5496TIP3    H138123   2.980   5.792   8.155 -1.5030 -0.4776  1.6750
 5496TIP3    H238124   2.975   5.663   8.077 -1.8627 -0.0080  0.9117
 5497TIP3   OH238125   4.693   3.717   2.979 -0.3028  0.3516  0.3886
 5497TIP3    H138126   4.648   3.799   3.001 -1.7335 -0.1549 -0.5348
 5497TIP3    H238127   4.648   3.651   3.031  0.7580  0.1080  1.0217
 5498TIP3   OH238128   5.746   3.728   1.537  0.9935  0.0636  0.4464
 5498TIP3    H138129   5.760   3.634   1.552 -2.0480 -0.3709  1.3533
 5498TIP3    H238130   5.799   3.748   1.460 -0.3076 -3.0785 -1.4676
 5499TIP3   OH238131   4.849   4.227   7.407 -0.0638 -0.6597 -0.0521
 5499TIP3    H138132   4.943   4.226   7.390 -0.4572  0.7804 -2.9390
 5499TIP3    H238133   4.832   4.313   7.445 -0.3205 -0.5608 -0.3843
 5500TIP3   OH238134   2.941   5.892   2.254  0.0395 -0.5330 -0.3563
 5500TIP3    H138135   2.994   5.922   2.180  0.0684  0.0626 -0.0979
 5500TIP3    H238136   2.861   5.945   2.250  0.6434  0.5138  0.8619
 5501TIP3   OH238137   0.362   0.707   0.182 -0.0288 -0.7560 -0.1317
 5501TIP3    H138138   0.371   0.624   0.136 -2.2515 -1.2423  0.1920
 5501TIP3    H238139   0.275   0.703   0.222  0.4085  1.1159  1.1405
 5502TIP3   OH238140   5.192   4.824   3.162  0.5024 -0.7771  0.5832
 5502TIP3    H138141   5.274   4.775   3.157 -0.7697 -2.9343 -2.3890
 5502TIP3    H238142   5.184   4.866   3.076 -0.3706  1.4603  1.6850
 5503TIP3   OH238143   1.466   3.829   2.325 -0.2190  0.8251 -0.5052
 5503TIP3    H138144   1.534   3.890   2.296 -0.1062  1.5171  1.1334
 5503TIP3    H238145   1.509   3.775   2.391  0.1417 -2.1742 -2.9675
 5504TIP3   OH238146   0.188   0.893   2.943  0.0187 -0.2386 -0.0699
 5504TIP3    H138147   0.243   0.815   2.949  0.2839 -0.0437  0.0325
 5504TIP3    H238148   0.099   0.859   2.945  0.1335 -0.5774 -0.5531
 5505TIP3   OH238149   0.770   5.868   1.574  0.4437  0.6060 -0.0604
 5505TIP3    H138150   0.821   5.894   1.651 -0.6488  0.9497  0.5739
 5505TIP3    H238151   0.754   5.950   1.527 -1.3819  0.8765  0.9321
 5506TIP3   OH238152   5.129   6.129   1.502  0.1105  0.0826 -0.2812
 5506TIP3    H138153   5.215   6.093   1.525 -0.6079 -2.3980 -1.0973
 5506TIP3    H238154   5.084   6.140   1.585  0.2535 -1.3690  0.0243
 5507TIP3   OH238155   3.976   3.087   0.897  0.6984 -0.0605  0.1668
 5507TIP3    H138156   3.915   3.027   0.854 -0.6230  0.8453  0.7382
 5507TIP3    H238157   4.062   3.057   0.868 -0.0700  0.2002 -2.7290
 5508TIP3   OH238158   1.532   0.241   1.310  0.1917  0.0680  0.2994
 5508TIP3    H138159   1.604   0.220   1.370  0.2202  0.0763  0.2686
 5508TIP3    H238160   1.468   0.287   1.365  0.0211 -0.3135  0.4182
 5509TIP3   OH238161   0.675   1.900   0.759 -0.0261 -0.5194 -0.2267
 5509TIP3    H138162   0.658   1.958   0.834 -0.6464 -0.1539 -0.6355
 5509TIP3    H238163   0.618   1.934   0.690 -0.9066 -1.9986 -0.2844
 5510TIP3   OH238164   5.221   5.371   1.717 -0.2738  0.8020 -0.0524
 5510TIP3    H138165   5.139   5.340   1.756 -0.4743 -0.8235 -1.6322
 5510TIP3    H238166   5.277   5.391   1.792 -0.8823 -1.4703  1.0850
 5511TIP3   OH238167   6.238   6.390   0.631  0.6800 -0.5215 -0.0796
 5511TIP3    H138168   6.316   6.378   0.576  0.9068  0.1661  0.0816
 5511TIP3    H238169   6.230   6.308   0.679  1.5298 -0.4617  0.1817
 5512TIP3   OH238170   1.970   3.651   8.796 -0.1321 -0.0109 -0.1127
 5512TIP3    H138171   1.972   3.742   8.766 -2.3050 -0.0828 -0.6588
 5512TIP3    H238172   1.940   3.656   8.886 -1.3649 -0.2204 -0.4962
 5513TIP3   OH238173   5.077   1.103   0.818 -0.4544 -0.0312  0.2790
 5513TIP3    H138174   4.988   1.068   0.808  0.2359 -1.9797  0.5094
 5513TIP3    H238175   5.134   1.032   0.786  1.0057  1.5417 -0.7892
 5514TIP3   OH238176   4.936   5.883   8.622  0.7460 -0.0794 -0.6159
 5514TIP3    H138177   4.949   5.791   8.602  0.2993 -0.3181  0.1481
 5514TIP3    H238178   4.957   5.929   8.541 -0.2877 -0.9466 -1.3909
 5515TIP3   OH238179   3.708   0.198   8.436 -0.1943  0.1372 -0.0957
 5515TIP3    H138180   3.769   0.124   8.443 -0.7836 -0.2891  0.6290
 5515TIP3    H238181   3.626   0.165   8.473 -0.6593  0.9388 -0.3970
 5516TIP3   OH238182   4.922   6.658   0.404 -0.4342  0.1849  0.0090
 5516TIP3    H138183   5.004   6.662   0.453 -0.0128  3.0331 -0.7429
 5516TIP3    H238184   4.920   6.739   0.353 -2.9186 -0.6041 -1.3362
 5517TIP3   OH238185   2.456   3.670   2.575 -0.5762 -0.4525  1.1364
 5517TIP3    H138186   2.365   3.642   2.581 -0.5182 -0.6630  1.0393
 5517TIP3    H238187   2.493   3.651   2.661 -0.7627  0.1314  1.3519
 5518TIP3   OH238188   5.913   6.258   2.642  0.0658 -0.3269  0.3172
 5518TIP3    H138189   6.006   6.237   2.651 -0.3739 -2.8940 -0.3296
 5518TIP3    H238190   5.898   6.328   2.705  2.0773 -0.9831  1.6137
 5519TIP3   OH238191   1.028   5.196   7.476 -0.0524 -1.1118  0.0711
 5519TIP3    H138192   1.097   5.232   7.420 -2.0611  1.1795 -1.1229
 5519TIP3    H238193   1.013   5.264   7.542 -1.3873 -1.4247  0.1107
 5520TIP3   OH238194   2.437   0.348   0.007  0.9450 -0.5909  0.5881
 5520TIP3    H138195   2.386   0.426  -0.012  1.1170 -0.2697  1.4368
 5520TIP3    H238196   2.372   0.283   0.036  1.0161 -0.1624  1.7313
 5521TIP3   OH238197   4.636   0.104   8.582  0.0758  0.0840  0.8699
 5521TIP3    H138198   4.607   0.089   8.672  0.9131  1.1518  1.3255
 5521TIP3    H238199   4.601   0.190   8.560  0.4120  0.0998  0.3917
 5522TIP3   OH238200   3.634   3.519   8.102 -0.0328 -0.2931 -0.2940
 5522TIP3    H138201   3.659   3.428   8.116 -0.8128 -0.6154 -0.9407
 5522TIP3    H238202   3.543   3.515   8.070 -1.9302  0.9198  4.2017
 5523TIP3   OH238203   5.371   4.239   8.061 -0.3212  0.3218 -0.0067
 5523TIP3    H138204   5.396   4.257   8.152  0.9322 -1.7546  0.1197
 5523TIP3    H238205   5.422   4.301   8.010 -0.0024  0.6174  0.6532
 5524TIP3   OH238206   1.499   3.008   7.065  1.0544  0.0530  0.3704
 5524TIP3    H138207   1.533   3.033   7.151  1.4624  0.3697  0.1247
 5524TIP3    H238208   1.577   3.000   7.010  0.9922 -2.3373  0.5535
 5525TIP3   OH238209   2.342   3.917   0.810  0.1529 -0.8103  0.5264
 5525TIP3    H138210   2.431   3.883   0.813 -0.0479 -1.3148  0.8546
 5525TIP3    H238211   2.314   3.901   0.720  0.5113 -0.3284  0.3222
 5526TIP3   OH238212   6.618   3.910   8.559 -0.2434 -0.5087 -0.5159
 5526TIP3    H138213   6.662   3.825   8.559  0.4991 -0.1318 -0.3159
 5526TIP3    H238214   6.552   3.902   8.627 -0.4524 -1.0637 -0.7786
 5527TIP3   OH238215   2.186   0.201   2.561 -0.2943 -0.4638 -0.2060
 5527TIP3    H138216   2.143   0.273   2.515  3.2289  0.9830 -1.6434
 5527TIP3    H238217   2.197   0.232   2.651  0.6122  0.5904 -0.6570
 5528TIP3   OH238218   2.364   2.074   2.124 -0.6699  0.0904  0.0713
 5528TIP3    H138219   2.445   2.054   2.169 -0.5817  1.8020  0.7566
 5528TIP3    H238220   2.342   2.163   2.151 -2.4804 -0.1114 -0.5379
 5529TIP3   OH238221   2.772   4.761   8.129  0.3287  0.1552  0.2031
 5529TIP3    H138222   2.703   4.738   8.067  0.7292  1.7090 -0.8888
 5529TIP3    H238223   2.833   4.687   8.125  0.7002  0.5171 -1.8237
 5530TIP3   OH238224   0.339   1.872   2.904 -0.1413  0.2591 -0.1920
 5530TIP3    H138225   0.379   1.828   2.979  1.3455  0.0988 -1.0465
 5530TIP3    H238226   0.245   1.855   2.914 -0.0651  0.6798  1.8988
 5531TIP3   OH238227   2.395   1.424   0.137  0.1772 -0.0926 -0.1477
 5531TIP3    H138228   2.310   1.465   0.121 -0.2491 -0.1328  1.8247
 5531TIP3    H238229   2.378   1.330   0.125 -0.4874 -0.2560  1.7788
 5532TIP3   OH238230   6.752   5.165   0.053 -0.3584 -0.8846 -0.5929
 5532TIP3    H138231   6.657   5.153   0.045 -0.0870 -2.5408 -1.8544
 5532TIP3    H238232   6.779   5.201  -0.032  0.0874  0.2039 -0.0166
 5533TIP3   OH238233   3.217   4.840   8.373  0.1147 -0.1716 -0.1778
 5533TIP3    H138234   3.255   4.919   8.410 -0.6459  0.0441  0.1846
 5533TIP3    H238235   3.198   4.861   8.282 -0.9425  0.3981  0.1560
 5534TIP3   OH238236   4.053   0.196   2.990  0.2223 -0.6226 -0.3279
 5534TIP3    H138237   4.028   0.168   2.902 -0.1998  1.1261 -0.8159
 5534TIP3    H238238   3.972   0.231   3.027  0.9882  1.4061 -0.4113
 5535TIP3   OH238239   5.970   0.112   1.867 -0.0877 -0.3641 -0.5208
 5535TIP3    H138240   5.922   0.190   1.840 -0.0884 -0.5058 -0.9256
 5535TIP3    H238241   5.991   0.066   1.786 -0.4229 -0.9905 -0.2603
 5536TIP3   OH238242   3.050   0.330   7.957 -0.2285 -0.1762 -0.1812
 5536TIP3    H138243   3.014   0.417   7.944  1.3633  0.5170 -0.1891
 5536TIP3    H238244   3.052   0.291   7.870 -1.8034 -0.5913 -0.0468
 5537TIP3   OH238245   5.845   0.014   0.367  0.3368  0.2872 -0.5253
 5537TIP3    H138246   5.797   0.057   0.296 -3.9486 -2.3225  0.4700
 5537TIP3    H238247   5.864  -0.073   0.333 -0.1896 -0.3920  0.8732
 5538TIP3   OH238248   4.811   4.534   0.660  0.2469 -0.5086  0.3542
 5538TIP3    H138249   4.754   4.562   0.732  0.6466  0.0711  0.4526
 5538TIP3    H238250   4.780   4.446   0.638  0.6030 -1.0093  1.7408
 5539TIP3   OH238251   2.358   0.447   7.436 -0.6625 -0.2404 -0.1027
 5539TIP3    H138252   2.358   0.502   7.515 -0.6183  0.7677 -0.7868
 5539TIP3    H238253   2.321   0.503   7.368  3.1837  0.5323 -1.8453
 5540TIP3   OH238254   4.112   0.596   2.938 -0.4666 -0.0237 -0.0356
 5540TIP3    H138255   4.167   0.534   2.984  1.1198  1.5242  0.2619
 5540TIP3    H238256   4.036   0.545   2.909 -0.1296 -1.6423  1.7870
 5541TIP3   OH238257   4.710   4.578   2.809 -0.2004  0.1167 -0.0013
 5541TIP3    H138258   4.800   4.596   2.780  0.2016  1.8682  2.0835
 5541TIP3    H238259   4.671   4.664   2.823 -1.2237 -0.5826  1.9120
 5542TIP3   OH238260   0.788   2.808   1.343  0.4335 -0.3972  0.6322
 5542TIP3    H138261   0.724   2.752   1.300  1.2287  1.2879 -3.1354
 5542TIP3    H238262   0.869   2.757   1.346  0.7105 -0.1266 -1.2238
 5543TIP3   OH238263   5.092   3.188   0.962 -0.0621  0.0773  0.1999
 5543TIP3    H138264   5.134   3.259   0.913 -0.7367  0.2067 -0.2020
 5543TIP3    H238265   5.001   3.191   0.934 -0.2664 -0.4180  0.8125
 5544TIP3   OH238266   5.001   1.369   1.823  0.6800 -0.1049  0.2466
 5544TIP3    H138267   5.083   1.322   1.805 -0.1282 -1.6573  0.4412
 5544TIP3    H238268   4.936   1.300   1.836 -0.3930  1.0618  1.4581
 5545TIP3   OH238269   1.733   5.306   1.998 -0.4359  0.4477 -0.6922
 5545TIP3    H138270   1.671   5.242   1.962  0.6582 -0.8891 -0.2688
 5545TIP3    H238271   1.818   5.278   1.967  0.0609  1.8524 -0.6670
 5546TIP3   OH238272   0.590   1.577   2.432 -0.1872  0.9815 -0.2541
 5546TIP3    H138273   0.683   1.562   2.449 -0.1945  1.5758  0.3570
 5546TIP3    H238274   0.556   1.611   2.514 -1.2094 -0.3410 -0.1012
 5547TIP3   OH238275   2.623   3.096   0.485 -0.0646 -0.0966 -0.4006
 5547TIP3    H138276   2.690   3.087   0.418  0.7460  1.9130  0.0426
 5547TIP3    H238277   2.584   3.182   0.468  1.1937  1.2042  2.4653
 5548TIP3   OH238278   5.018   6.217   0.237 -0.0069  0.1911  0.5601
 5548TIP3    H138279   5.017   6.142   0.178  0.1615  1.2908 -0.8975
 5548TIP3    H238280   5.109   6.249   0.233 -0.1357  0.6143  0.9707
 5549TIP3   OH238281   3.738   4.443   2.157  0.0850  0.2403 -0.3532
 5549TIP3    H138282   3.819   4.393   2.151  0.0515  0.3289 -1.8013
 5549TIP3    H238283   3.763   4.532   2.134  0.1166  0.9408  2.0518
 5550TIP3   OH238284   1.869   5.494   2.557  0.6272 -0.3002  0.1659
 5550TIP3    H138285   1.931   5.480   2.629  0.7274  1.6684  0.5360
 5550TIP3    H238286   1.814   5.566   2.587  1.2127  1.1587 -2.0273
 5551TIP3   OH238287   4.842   2.086   2.097  0.2793 -0.0609 -0.1374
 5551TIP3    H138288   4.849   2.129   2.012  0.2590  0.2835  0.0352
 5551TIP3    H238289   4.797   2.004   2.078 -0.0604  0.1823 -0.4028
 5552TIP3   OH238290   3.327   6.386   1.880 -0.2824  0.0766  0.6692
 5552TIP3    H138291   3.356   6.412   1.793 -0.3179  0.2635  0.7126
 5552TIP3    H238292   3.350   6.460   1.936 -0.8914  0.2510  0.6920
 5553TIP3   OH238293   3.582   5.877   3.039 -0.4178 -0.2223 -0.0642
 5553TIP3    H138294   3.660   5.926   3.015  0.0568 -0.4872  0.8798
 5553TIP3    H238295   3.514   5.943   3.050 -0.6872 -0.0847 -2.1042
 5554TIP3   OH238296   4.579   5.897   3.774 -0.1001 -0.1342 -0.4601
 5554TIP3    H138297   4.627   5.886   3.692  2.0737  0.6012  0.6277
 5554TIP3    H238298   4.546   5.987   3.770  0.2591 -0.0002 -0.3913
 5555TIP3   OH238299   3.340   1.890   1.543  0.0532 -0.3551 -0.0376
 5555TIP3    H138300   3.410   1.884   1.608 -0.5095  1.3407  0.7755
 5555TIP3    H238301   3.260   1.872   1.592 -0.2798 -0.2314 -0.5254
 5556TIP3   OH238302   4.479   5.458   8.673 -0.1224 -0.0195 -0.4289
 5556TIP3    H138303   4.404   5.474   8.616 -0.4394 -0.7889 -0.2361
 5556TIP3    H238304   4.534   5.397   8.623  1.9572  2.8254 -1.9352
 5557TIP3   OH238305   5.463   1.062   1.498  0.2271 -0.3419 -0.0379
 5557TIP3    H138306   5.419   1.116   1.433 -0.2807  0.0855  0.6349
 5557TIP3    H238307   5.393   1.036   1.559  0.6998 -0.6527  0.3877
 5558TIP3   OH238308   2.897   0.438   8.565  0.1974  0.8677 -0.1443
 5558TIP3    H138309   2.848   0.388   8.500  0.5948  1.6462 -1.0686
 5558TIP3    H238310   2.989   0.429   8.539  0.8017 -1.5994  2.2610
 5559TIP3   OH238311   0.809   4.966   7.634 -0.2033 -0.4949  0.2978
 5559TIP3    H138312   0.883   4.914   7.603  1.7499  2.8765 -1.1610
 5559TIP3    H238313   0.766   4.998   7.555 -2.8260 -1.6562  1.1222
 5560TIP3   OH238314   6.613   3.653   8.671 -0.2530  0.0559  0.0781
 5560TIP3    H138315   6.563   3.590   8.619 -1.8766  0.1125  1.4662
 5560TIP3    H238316   6.547   3.717   8.700  0.7815  0.6001  1.3402
 5561TIP3   OH238317   2.882   2.688   1.081 -0.2909 -0.8220 -0.1818
 5561TIP3    H138318   2.814   2.756   1.089  0.1812 -0.3527 -0.0979
 5561TIP3    H238319   2.869   2.652   0.993 -0.1575 -0.1953 -0.4645
 5562TIP3   OH238320   1.949   1.042   1.831 -0.0767 -0.0215  0.0380
 5562TIP3    H138321   1.863   1.037   1.790 -0.1066 -2.8182  0.2556
 5562TIP3    H238322   1.931   1.041   1.925  0.1530 -3.3178  0.1405
 5563TIP3   OH238323   5.347   1.040   7.625  0.3631 -0.5184  0.1703
 5563TIP3    H138324   5.369   0.965   7.571  1.1791 -1.2054  1.3992
 5563TIP3    H238325   5.361   1.116   7.569  0.6624 -1.2268 -0.7231
 5564TIP3   OH238326   1.238   3.407   8.563 -0.5117 -0.3158 -0.0736
 5564TIP3    H138327   1.262   3.470   8.495  1.7938 -0.4329  0.5327
 5564TIP3    H238328   1.173   3.350   8.521 -1.1664  1.2301 -1.2699
 5565TIP3   OH238329   0.782   2.879   0.511  0.5710  0.2816 -0.2637
 5565TIP3    H138330   0.845   2.806   0.517  1.1691  0.7575 -0.6363
 5565TIP3    H238331   0.723   2.865   0.585  1.5761  0.2383  0.5672
 5566TIP3   OH238332   0.995   5.961   8.319 -0.2265  0.1434 -0.4130
 5566TIP3    H138333   0.944   5.881   8.318  1.7583 -1.1972 -0.0909
 5566TIP3    H238334   0.977   6.000   8.405 -0.2584 -0.6183 -0.0689
 5567TIP3   OH238335   3.230   2.266   0.180 -0.0997  0.7090 -0.0403
 5567TIP3    H138336   3.313   2.291   0.221  0.7511  0.0026 -1.2739
 5567TIP3    H238337   3.209   2.340   0.122  0.0954  0.5282 -0.3419
 5568TIP3   OH238338   2.590   5.053   0.033  0.3832  0.3631 -0.0299
 5568TIP3    H138339   2.644   4.976   0.015 -1.5006 -1.0798  0.2159
 5568TIP3    H238340   2.624   5.120  -0.026  2.0303 -0.6661 -0.3109
 5569TIP3   OH238341   0.711   5.285   3.109  0.0907  0.0561 -0.7773
 5569TIP3    H138342   0.676   5.208   3.155 -0.0701  1.5965  1.8832
 5569TIP3    H238343   0.644   5.306   3.044 -0.3560 -1.4173 -0.8321
 5570TIP3   OH238344   4.828   5.082   1.730  0.2524 -0.5558 -0.3234
 5570TIP3    H138345   4.853   5.022   1.801  0.1468 -1.1730 -0.8009
 5570TIP3    H238346   4.733   5.070   1.721 -0.1078  1.0692  0.8304
 5571TIP3   OH238347   5.808   3.919   2.438 -0.0923 -0.3506  0.2250
 5571TIP3    H138348   5.858   3.982   2.490  0.7102 -2.3116  1.9552
 5571TIP3    H238349   5.857   3.837   2.446 -0.2070 -0.9117 -3.2820
 5572TIP3   OH238350   5.089   1.729   0.093  0.2572 -0.3602  0.1908
 5572TIP3    H138351   5.008   1.781   0.092 -0.0709 -0.7257  2.2078
 5572TIP3    H238352   5.079   1.673   0.170  2.4010 -0.4593  0.4389
 5573TIP3   OH238353   6.171   1.738   8.085  0.3525  0.5217  0.0696
 5573TIP3    H138354   6.204   1.814   8.133 -1.1934  1.1024  0.2551
 5573TIP3    H238355   6.080   1.730   8.111  0.1988 -0.7750 -0.7552
 5574TIP3   OH238356   4.187   2.820   1.669  0.9917 -0.7954 -0.0937
 5574TIP3    H138357   4.121   2.751   1.664 -0.1106 -0.4273  4.9702
 5574TIP3    H238358   4.261   2.780   1.713  0.7104  0.8696  2.0579
 5575TIP3   OH238359   0.823   3.474   3.139 -0.2822 -0.2470  0.0076
 5575TIP3    H138360   0.908   3.432   3.141 -0.2910 -0.2384  0.9223
 5575TIP3    H238361   0.839   3.560   3.099  0.1302 -0.2762  0.1069
 5576TIP3   OH238362   1.514   2.261   2.313  0.9209  0.3639 -0.2150
 5576TIP3    H138363   1.586   2.222   2.364  0.3024 -0.0665  0.3424
 5576TIP3    H238364   1.488   2.192   2.252  0.5689  0.2996  0.0079
 5577TIP3   OH238365   0.869   1.603   7.618 -0.4738  0.1176 -0.2571
 5577TIP3    H138366   0.942   1.609   7.557  0.5407 -2.5049  0.5768
 5577TIP3    H238367   0.807   1.543   7.576 -1.5858  1.2579 -0.3407
 5578TIP3   OH238368   3.738   4.329   8.694  0.1513 -0.1918 -0.4265
 5578TIP3    H138369   3.820   4.368   8.666 -0.4893  1.2341 -0.3879
 5578TIP3    H238370   3.670   4.375   8.645 -0.8308  0.7308  1.6543
 5579TIP3   OH238371   5.795   4.383   8.721 -0.7220  0.1568  0.1516
 5579TIP3    H138372   5.759   4.449   8.662  0.1721 -0.1981 -0.8303
 5579TIP3    H238373   5.721   4.325   8.740 -0.6395 -0.8091 -2.1735
 5580TIP3   OH238374   5.337   1.029   1.101  0.3979  0.7325 -0.0158
 5580TIP3    H138375   5.382   1.072   1.173  0.9242 -0.2918  0.2954
 5580TIP3    H238376   5.252   1.004   1.137  1.3799 -1.5010  0.9137
 5581TIP3   OH238377   2.232   0.954   7.788 -0.0700  0.2263  0.0219
 5581TIP3    H138378   2.179   0.887   7.743 -0.0150  1.3887 -1.9108
 5581TIP3    H238379   2.316   0.953   7.742 -0.2397  1.9361 -0.3926
 5582TIP3   OH238380   5.154   4.803   2.655 -0.5559 -0.1253 -0.5384
 5582TIP3    H138381   5.239   4.760   2.646  0.5046  1.7353 -0.0169
 5582TIP3    H238382   5.131   4.829   2.566  0.0184  0.4128 -0.5353
 5583TIP3   OH238383   5.485   4.559   8.803 -0.0319  0.2699  0.7017
 5583TIP3    H138384   5.522   4.587   8.887 -1.1100  2.0031  0.6607
 5583TIP3    H238385   5.406   4.612   8.793 -0.3382 -0.4440 -1.0625
 5584TIP3   OH238386   0.844   5.213   7.822  0.3606 -0.2803  0.0709
 5584TIP3    H138387   0.910   5.267   7.779  1.7401 -1.9057  0.0155
 5584TIP3    H238388   0.825   5.144   7.758 -1.1221 -0.0630  0.2489
 5585TIP3   OH238389   3.937   4.215   7.970 -0.0648 -0.2501 -0.5400
 5585TIP3    H138390   3.952   4.191   8.062  1.3279  1.5480 -0.2350
 5585TIP3    H238391   3.878   4.290   7.975 -0.4653 -0.5248 -1.1570
 5586TIP3   OH238392   2.965   4.985   0.161 -0.0079  0.0941 -0.6967
 5586TIP3    H138393   2.969   5.017   0.251  0.8969 -0.1115 -0.6621
 5586TIP3    H238394   3.000   5.057   0.108 -0.5876  0.2363 -0.8994
 5587TIP3   OH238395   5.992   0.877   7.894 -0.9296  0.0399 -0.1775
 5587TIP3    H138396   6.070   0.820   7.892  0.4871  1.8455  0.4869
 5587TIP3    H238397   6.010   0.945   7.830 -1.2060  1.3786  1.1051
 5588TIP3   OH238398   4.221   3.590   8.517 -0.4150  0.7543 -0.0654
 5588TIP3    H138399   4.193   3.523   8.581 -2.1692  0.1051 -1.4242
 5588TIP3    H238400   4.307   3.561   8.488 -1.1690 -1.0230 -0.6879
 5589TIP3   OH238401   3.690   1.010   8.199 -0.1928  0.0451 -0.3377
 5589TIP3    H138402   3.720   1.043   8.284 -1.0729 -0.0807  0.0274
 5589TIP3    H238403   3.647   0.927   8.219 -0.1821 -0.1096 -0.9439
 5590TIP3   OH238404   0.517   4.330   0.626  0.3653 -0.3403 -0.0029
 5590TIP3    H138405   0.586   4.396   0.616 -0.2095  0.5639  1.7346
 5590TIP3    H238406   0.548   4.273   0.697 -0.5061 -0.1313  0.5564
 5591TIP3   OH238407   0.177   5.086   8.056 -0.1413 -0.1122 -0.1413
 5591TIP3    H138408   0.254   5.107   8.110  0.5614  0.5296 -1.3393
 5591TIP3    H238409   0.157   4.995   8.077 -0.5779  0.4226  2.0027
 5592TIP3   OH238410   5.542   5.909   1.188 -0.2495 -0.8183 -0.1928
 5592TIP3    H138411   5.600   5.967   1.138  0.0007 -1.0649 -0.1901
 5592TIP3    H238412   5.454   5.936   1.164 -0.1631  0.3750  0.7131
 5593TIP3   OH238413   4.004   1.297   8.758  0.0230 -0.0315  0.0627
 5593TIP3    H138414   4.071   1.285   8.825  1.5086  0.0691 -1.3604
 5593TIP3    H238415   4.046   1.350   8.690 -1.9984  1.3939 -0.1635
 5594TIP3   OH238416   6.358   2.523   1.338 -0.7176 -0.4602 -0.4398
 5594TIP3    H138417   6.445   2.523   1.377 -1.2748 -1.1242  0.8551
 5594TIP3    H238418   6.334   2.430   1.333 -1.7700 -0.2325  0.1965
 5595TIP3   OH238419   2.752   6.703   7.266  0.3166 -0.6475 -0.3503
 5595TIP3    H138420   2.659   6.688   7.252  0.6217 -0.9258 -2.4899
 5595TIP3    H238421   2.777   6.641   7.335 -1.3963  0.7377  1.6265
 5596TIP3   OH238422   5.391   4.672   1.113 -0.0305  0.0938  0.0504
 5596TIP3    H138423   5.321   4.710   1.060 -0.8100  0.2046  1.1147
 5596TIP3    H238424   5.470   4.721   1.088 -0.5610  0.7608 -0.3302
 5597TIP3   OH238425   5.975   1.832   2.119  0.1561 -0.3103 -0.0785
 5597TIP3    H138426   5.997   1.817   2.211  2.0874  0.3183 -0.3891
 5597TIP3    H238427   5.915   1.906   2.121 -1.2734 -1.4355  0.7585
 5598TIP3   OH238428   1.394   0.331   8.047  0.0910  0.2283  0.0874
 5598TIP3    H138429   1.385   0.422   8.075  0.1925  0.3487 -0.2643
 5598TIP3    H238430   1.375   0.333   7.953  0.7285 -0.0050 -0.0565
 5599TIP3   OH238431   3.075   1.209   7.581  0.0273  0.0589 -0.3069
 5599TIP3    H138432   3.131   1.169   7.514 -0.2697  0.0871 -0.5765
 5599TIP3    H238433   3.077   1.147   7.654 -0.8039 -0.6864 -0.9013
 5600TIP3   OH238434   6.500   4.143   0.025 -0.4190 -0.1851  0.1570
 5600TIP3    H138435   6.545   4.146   0.109 -0.8447  1.6110  0.3576
 5600TIP3    H238436   6.459   4.056   0.023 -1.1773  0.0570  2.2296
 5601TIP3   OH238437   3.027   2.825   8.303 -0.4727 -0.1489 -0.3209
 5601TIP3    H138438   3.083   2.769   8.248  0.4391  0.5069 -0.0694
 5601TIP3    H238439   2.981   2.881   8.240 -0.3895 -0.2654 -0.4873
 5602TIP3   OH238440   2.525   2.075   0.081  0.3445 -0.4510  0.5219
 5602TIP3    H138441   2.479   2.142   0.029 -1.1093 -0.9954  1.0461
 5602TIP3    H238442   2.610   2.067   0.039 -0.5049 -0.3287 -1.3382
 5603TIP3   OH238443   1.747   5.834   0.201  0.3011  0.0196  0.5794
 5603TIP3    H138444   1.705   5.752   0.226 -2.0365  1.7200  2.6701
 5603TIP3    H238445   1.706   5.900   0.256  1.9520  2.6684 -1.1471
 5604TIP3   OH238446   4.331   3.152   8.361  0.3489 -0.7986 -0.0108
 5604TIP3    H138447   4.391   3.161   8.435 -0.4199  2.5374  0.3566
 5604TIP3    H238448   4.285   3.070   8.378 -1.1404  0.6338  4.3586
 5605TIP3   OH238449   1.373   0.321   7.219 -0.3070  0.2711  0.9400
 5605TIP3    H138450   1.388   0.256   7.288 -1.4506 -1.8380 -0.6349
 5605TIP3    H238451   1.293   0.366   7.246  0.6555  1.2677  2.1975
 5606TIP3   OH238452   0.193   4.886   1.306 -0.2485 -0.5044 -0.2317
 5606TIP3    H138453   0.131   4.939   1.357 -0.4044 -0.2050 -0.7295
 5606TIP3    H238454   0.212   4.939   1.229 -1.5573 -1.7793 -1.5071
 5607TIP3   OH238455   2.969   6.521   1.767  0.3692 -0.1052  0.3481
 5607TIP3    H138456   3.011   6.438   1.744  0.6295 -0.3627  1.6918
 5607TIP3    H238457   2.972   6.524   1.862 -0.7197  0.8955  0.3693
 5608TIP3   OH238458   3.706   3.963   2.763  0.2453 -0.0064 -0.1159
 5608TIP3    H138459   3.793   3.955   2.801  0.4136  1.4862 -0.1326
 5608TIP3    H238460   3.722   3.986   2.671 -0.1571  0.3308 -0.1063
 5609TIP3   OH238461   1.587   0.828   0.451 -0.0796 -0.0493 -0.2326
 5609TIP3    H138462   1.665   0.879   0.431  0.9592 -0.7432  1.7558
 5609TIP3    H238463   1.615   0.737   0.438 -0.7574 -0.2737 -0.1415
 5610TIP3   OH238464   6.194   1.006   1.342  0.6538  0.1248 -0.0279
 5610TIP3    H138465   6.212   1.051   1.259  3.2946 -1.5514 -0.4921
 5610TIP3    H238466   6.104   0.975   1.333  0.0408  2.0555 -1.2131
 5611TIP3   OH238467   4.745   5.788   0.892 -0.1195  0.1924  0.2579
 5611TIP3    H138468   4.679   5.734   0.935 -0.9970  0.3086 -0.8960
 5611TIP3    H238469   4.828   5.749   0.918 -0.7141 -1.3031  0.0063
 5612TIP3   OH238470   0.417   0.584   8.197  0.6069 -0.1478  0.1798
 5612TIP3    H138471   0.450   0.581   8.107 -0.8602  0.4176 -0.4101
 5612TIP3    H238472   0.322   0.589   8.187  0.4873  2.1257  1.7082
 5613TIP3   OH238473   4.074   2.414   1.938  0.8262 -0.2592  0.1689
 5613TIP3    H138474   4.085   2.319   1.931  1.3424 -0.3200  1.5133
 5613TIP3    H238475   4.000   2.425   1.998  1.6871  0.1689  1.1797
 5614TIP3   OH238476   0.350   0.339   0.485 -0.2485 -0.3292  0.0790
 5614TIP3    H138477   0.347   0.351   0.580  0.4544 -0.2199  0.0909
 5614TIP3    H238478   0.360   0.428   0.450  1.3596 -0.5158 -0.0014
 5615TIP3   OH238479   6.754   0.380   7.442  0.2037 -0.6381 -0.3477
 5615TIP3    H138480   6.848   0.370   7.426  0.1596  0.4334 -1.3870
 5615TIP3    H238481   6.724   0.292   7.463  1.7919 -0.6898  2.0818
 5616TIP3   OH238482   4.658   4.536   2.344 -0.5494  0.2688 -0.5776
 5616TIP3    H138483   4.602   4.458   2.335 -0.4133  0.1777 -0.6563
 5616TIP3    H238484   4.685   4.556   2.254 -0.0648  0.0195 -0.4927
 5617TIP3   OH238485   1.490   6.548   2.382  0.2345  0.3300 -0.6804
 5617TIP3    H138486   1.532   6.468   2.351 -0.2597 -0.7630  1.2939
 5617TIP3    H238487   1.458   6.526   2.470 -0.2091  2.6007 -0.2049
 5618TIP3   OH238488   2.066   5.705   1.388 -0.3939  0.4188  0.1522
 5618TIP3    H138489   1.985   5.677   1.345 -0.1435  1.1568 -0.8273
 5618TIP3    H238490   2.043   5.710   1.481 -1.3271  0.1457 -0.0520
 5619TIP3   OH238491   6.598   6.229   8.804  0.5423  0.7213 -0.0705
 5619TIP3    H138492   6.526   6.279   8.764 -1.1120 -1.3648  0.0837
 5619TIP3    H238493   6.640   6.186   8.730  0.7515  0.8772 -0.0399
 5620TIP3   OH238494   0.602   4.546   2.885 -0.6843  0.0991  0.1546
 5620TIP3    H138495   0.654   4.624   2.867  0.1901 -0.6209 -0.5574
 5620TIP3    H238496   0.588   4.507   2.799 -1.9757  0.0057  0.3982
 5621TIP3   OH238497   5.067   4.206   1.033 -0.0666 -0.1008 -0.2144
 5621TIP3    H138498   5.116   4.189   1.114 -0.4461 -0.8710 -0.1387
 5621TIP3    H238499   4.976   4.189   1.057 -0.1938 -0.1988 -0.7685
 5622TIP3   OH238500   0.629   3.275   3.301  0.0310 -0.0554 -0.3701
 5622TIP3    H138501   0.558   3.283   3.238  0.3358  0.9710 -0.6097
 5622TIP3    H238502   0.680   3.200   3.271 -1.0286 -0.9010 -0.1001
 5623TIP3   OH238503   4.992   6.536   1.257  0.8174 -0.1000 -0.6385
 5623TIP3    H138504   5.041   6.533   1.340  1.0728  1.4546 -0.7202
 5623TIP3    H238505   4.908   6.495   1.278  0.8076  0.4390  0.4367
 5624TIP3   OH238506   2.617   4.231   1.809  0.2110 -0.2712 -0.1487
 5624TIP3    H138507   2.681   4.177   1.762  0.8073  1.4654 -1.4280
 5624TIP3    H238508   2.578   4.286   1.742 -1.9104 -0.5515  0.7915
 5625TIP3   OH238509   6.676   5.865   3.724  0.5543  0.1838  0.7389
 5625TIP3    H138510   6.715   5.951   3.743  0.0428  0.8954 -1.1396
 5625TIP3    H238511   6.750   5.811   3.697  1.0114 -0.2893  2.7726
 5626TIP3   OH238512   4.076   1.155   2.916 -0.0126  0.0153 -0.4404
 5626TIP3    H138513   4.025   1.197   2.986  0.7243 -0.8143  0.6397
 5626TIP3    H238514   4.072   1.062   2.936 -0.6270 -0.3537 -2.1205
 5627TIP3   OH238515   4.199   6.111   0.355 -0.0349 -0.7419 -0.1603
 5627TIP3    H138516   4.147   6.054   0.299  0.7997  0.4089 -2.2106
 5627TIP3    H238517   4.135   6.160   0.406 -0.8222 -1.7413 -0.1552
 5628TIP3   OH238518   1.384   5.236   8.251 -0.3902 -0.4312  0.2351
 5628TIP3    H138519   1.300   5.280   8.234 -0.3006  0.0344  0.9185
 5628TIP3    H238520   1.370   5.188   8.332 -0.0067 -0.3723  0.3407
 5629TIP3   OH238521   5.928   1.109   2.405 -0.3972  0.1636 -0.2428
 5629TIP3    H138522   5.941   1.018   2.431 -1.1731  0.2566  0.5305
 5629TIP3    H238523   5.878   1.148   2.477  0.6538  1.4317 -0.1389
 5630TIP3   OH238524   0.437   5.764   1.376  0.4195 -0.3684 -0.3938
 5630TIP3    H138525   0.394   5.803   1.300  1.0533  1.7608  0.2822
 5630TIP3    H238526   0.394   5.804   1.452  0.7252 -1.4319  0.3678
 5631TIP3   OH238527   4.818   3.000   2.875 -0.3752 -0.0893  0.3333
 5631TIP3    H138528   4.778   2.913   2.883  1.1952 -0.7602  1.4373
 5631TIP3    H238529   4.769   3.042   2.804 -2.5211 -1.0944  1.1039
 5632TIP3   OH238530   6.360   5.504   0.106  0.3458 -0.3576 -0.3390
 5632TIP3    H138531   6.406   5.423   0.125 -0.7687 -0.7281  1.0081
 5632TIP3    H238532   6.279   5.498   0.157  1.4659  2.8278  2.2269
 5633TIP3   OH238533   4.991   1.017   3.192 -0.1174  0.0381  0.9608
 5633TIP3    H138534   5.077   0.977   3.206  1.1822  1.6804 -1.4736
 5633TIP3    H238535   5.011   1.101   3.151 -2.8662  1.2654  1.9216
 5634TIP3   OH238536   5.415   0.255   8.173 -0.1422 -0.0127 -0.0838
 5634TIP3    H138537   5.374   0.174   8.141  0.8230 -0.6763  0.3181
 5634TIP3    H238538   5.424   0.310   8.095  0.9779 -1.0859 -0.7543
 5635TIP3   OH238539   1.779   6.300   8.241  0.2561 -0.1675  0.0090
 5635TIP3    H138540   1.773   6.394   8.262  0.9548  0.0638 -0.7877
 5635TIP3    H238541   1.710   6.286   8.175 -0.3906 -0.3977  0.7210
 5636TIP3   OH238542   6.093   2.915   3.210  0.0354 -0.1011  0.1127
 5636TIP3    H138543   6.155   2.851   3.245 -1.1073 -0.6475  1.2293
 5636TIP3    H238544   6.145   2.969   3.150  1.6464 -0.3634  1.2052
 5637TIP3   OH238545   5.565   5.002   8.820 -0.1149 -0.2814 -0.6932
 5637TIP3    H138546   5.545   5.034   8.732  0.9162  1.8750 -0.1850
 5637TIP3    H238547   5.659   4.986   8.820 -0.4083 -2.3381 -0.5624
 5638TIP3   OH238548   0.597   2.682   2.243  0.8233 -0.4119  0.1646
 5638TIP3    H138549   0.586   2.631   2.324  0.8519  0.1978  0.5661
 5638TIP3    H238550   0.532   2.752   2.251  1.7649  0.4708  0.3314
 5639TIP3   OH238551   4.011   0.269   7.983  0.3197 -0.3011 -0.3372
 5639TIP3    H138552   3.928   0.300   7.946  0.7846  1.5663  0.0479
 5639TIP3    H238553   4.004   0.174   7.982 -2.0400 -0.2012  0.1318
 5640TIP3   OH238554   1.439   5.846   2.601 -0.4795  0.4509 -0.4875
 5640TIP3    H138555   1.527   5.868   2.571  0.0641 -0.2179  0.5317
 5640TIP3    H238556   1.405   5.928   2.637  0.1937  0.4685  0.1578
 5641TIP3   OH238557   0.636   3.189   2.517 -0.1789  0.8452 -0.5704
 5641TIP3    H138558   0.564   3.182   2.455 -1.7304  1.7458  1.0614
 5641TIP3    H238559   0.685   3.266   2.490 -0.4049  0.8048 -1.0938
 5642TIP3   OH238560   6.458   5.835   1.438 -0.7082 -0.8417  0.5850
 5642TIP3    H138561   6.511   5.862   1.512  0.5896 -0.2709 -0.5164
 5642TIP3    H238562   6.482   5.743   1.423 -1.4936 -1.1714  1.2908
 5643TIP3   OH238563   0.866   0.058   0.415  0.0367 -0.1001  1.4129
 5643TIP3    H138564   0.839  -0.031   0.439 -1.1098 -0.4510 -0.8854
 5643TIP3    H238565   0.950   0.047   0.371 -0.7551 -0.2951 -0.1348
 5644TIP3   OH238566   3.380   0.415   3.185  1.1941  0.5682 -0.0333
 5644TIP3    H138567   3.456   0.450   3.140  2.2531 -3.1661 -1.5521
 5644TIP3    H238568   3.382   0.321   3.166 -3.9462  0.2343 -0.3594
 5645TIP3   OH238569   0.264   0.611   1.494  0.0979  0.0965 -0.3304
 5645TIP3    H138570   0.253   0.579   1.404 -1.5585 -1.3700  0.3274
 5645TIP3    H238571   0.288   0.533   1.543  0.4910  0.7877  0.5941
 5646TIP3   OH238572   5.631   1.856   7.689 -0.2527 -0.0228  0.7127
 5646TIP3    H138573   5.558   1.899   7.734 -1.3820 -1.1240  0.0069
 5646TIP3    H238574   5.672   1.801   7.756 -0.8627 -0.3533  0.8198
 5647TIP3   OH238575   5.733   1.346   1.927  0.4149 -0.4562  0.7426
 5647TIP3    H138576   5.714   1.425   1.877 -2.2101 -0.4849  1.5667
 5647TIP3    H238577   5.709   1.273   1.869 -0.6106 -0.5427  1.2666
 5648TIP3   OH238578   3.661   0.597   0.087  0.2791  0.0185 -0.3869
 5648TIP3    H138579   3.696   0.558   0.006 -0.0223 -0.2156 -0.4070
 5648TIP3    H238580   3.711   0.678   0.098  1.6433 -0.8676  0.2100
 5649TIP3   OH238581   0.835   0.311   1.648  0.2080  0.1378  0.6593
 5649TIP3    H138582   0.775   0.375   1.610  0.5466  0.8783  1.3283
 5649TIP3    H238583   0.875   0.357   1.722 -0.3831 -1.2244  1.8779
 5650TIP3   OH238584   6.224   3.176   8.251  0.2700  0.3087  0.3245
 5650TIP3    H138585   6.251   3.266   8.235 -0.8929  0.5254 -0.6052
 5650TIP3    H238586   6.287   3.122   8.203  0.7890  0.6317  0.6351
 5651TIP3   OH238587   4.347   0.938   7.913 -0.4539  0.6690 -0.3448
 5651TIP3    H138588   4.367   0.868   7.850  0.6100 -0.7467  1.4497
 5651TIP3    H238589   4.420   0.935   7.975 -1.5295  1.8908  1.0405
 5652TIP3   OH238590   3.241   6.095   7.581  0.1247 -0.3943  0.4015
 5652TIP3    H138591   3.284   6.058   7.504  0.3726 -2.1862  1.3572
 5652TIP3    H238592   3.274   6.185   7.586 -1.8974  0.7333 -3.0468
 5653TIP3   OH238593   3.218   3.826   8.253  0.3907 -0.4212  1.0185
 5653TIP3    H138594   3.267   3.758   8.299  0.1583 -0.7850  0.7343
 5653TIP3    H238595   3.162   3.779   8.192 -0.6018 -0.0412  1.5990
 5654TIP3   OH238596   3.119   1.414   0.140 -0.1669  0.2216 -0.5925
 5654TIP3    H138597   3.189   1.389   0.079  0.1742  2.1898 -1.0709
 5654TIP3    H238598   3.140   1.366   0.221  1.4551  0.3594 -0.8928
 5655TIP3   OH238599   4.389   3.571   0.981 -0.5358 -0.0675 -0.3624
 5655TIP3    H138600   4.349   3.622   1.052  0.2794 -2.4189  1.9239
 5655TIP3    H238601   4.440   3.636   0.931 -1.6464  1.7817  0.7808
 5656TIP3   OH238602   1.035   0.457   0.177  0.0743  0.1183 -0.2239
 5656TIP3    H138603   1.048   0.383   0.117  2.9251  1.7104 -1.7676
 5656TIP3    H238604   0.992   0.418   0.254  2.5466 -3.4162 -0.4158
 5657TIP3   OH238605   1.571   0.809   2.397  0.0493  0.4154 -0.6966
 5657TIP3    H138606   1.645   0.870   2.398 -0.1780  0.7239  0.9979
 5657TIP3    H238607   1.558   0.786   2.489 -1.5254 -0.1783 -1.0310
 5658TIP3   OH238608   0.973   5.983   7.547 -0.0007  0.1866 -0.0998
 5658TIP3    H138609   0.991   5.892   7.524  0.3908  0.0392  0.7583
 5658TIP3    H238610   0.877   5.991   7.541 -0.1512 -0.6300  1.0558
 5659TIP3   OH238611   3.266   6.093   8.243  0.0318  0.1092  0.1990
 5659TIP3    H138612   3.249   6.056   8.330  1.1305 -0.2413  0.2761
 5659TIP3    H238613   3.200   6.162   8.233 -0.8887 -0.6470  0.8052
 5660TIP3   OH238614   4.366   1.478   2.516 -0.0614  0.3494  0.7158
 5660TIP3    H138615   4.273   1.460   2.501 -0.2156  0.6995  1.2411
 5660TIP3    H238616   4.367   1.550   2.579  0.5348  2.0234 -1.0854
 5661TIP3   OH238617   5.970   3.727   8.165 -0.1618  0.1640  0.0426
 5661TIP3    H138618   5.997   3.708   8.255  1.3673  0.3814 -0.3421
 5661TIP3    H238619   5.891   3.780   8.174 -1.9347 -2.4460  1.2072
 5662TIP3   OH238620   3.381   1.658   1.007 -0.5751  0.1329  0.3227
 5662TIP3    H138621   3.326   1.630   0.934 -1.5091  0.4586  0.8836
 5662TIP3    H238622   3.320   1.677   1.078  0.2493  0.6389  0.9269
 5663TIP3   OH238623   3.033   4.490   8.477 -0.2314 -0.0397 -0.3321
 5663TIP3    H138624   3.113   4.543   8.467 -0.4740  0.0810 -1.8053
 5663TIP3    H238625   3.001   4.512   8.565  1.0178  0.3696  0.0481
 5664TIP3   OH238626   3.001   0.500   1.611 -0.0730  0.1117 -0.2253
 5664TIP3    H138627   3.064   0.564   1.580 -0.3287  0.0557 -0.8765
 5664TIP3    H238628   2.977   0.450   1.533  0.0492 -0.7101  0.2599
 5665TIP3   OH238629   4.031   4.439   0.819 -0.0422 -0.0940 -0.1700
 5665TIP3    H138630   3.990   4.360   0.785 -3.3565  1.2076  0.4604
 5665TIP3    H238631   4.018   4.505   0.751  0.5494  0.5056  0.2762
 5666TIP3   OH238632   2.203   2.051   8.181 -0.4169  0.7735  0.3407
 5666TIP3    H138633   2.144   2.047   8.106 -0.5323  0.3606  0.4509
 5666TIP3    H238634   2.161   2.111   8.243 -0.1463  1.3989 -0.0729
 5667TIP3   OH238635   5.096   1.094   2.172  0.5744  0.4345 -0.1281
 5667TIP3    H138636   5.004   1.072   2.184  0.7568 -1.0079 -1.0711
 5667TIP3    H238637   5.102   1.187   2.191 -1.1331  0.6163 -0.3614
 5668TIP3   OH238638   3.074   4.198   8.454  0.1992 -0.0100  0.1258
 5668TIP3    H138639   3.104   4.288   8.443 -0.6912  0.3881  0.8782
 5668TIP3    H238640   3.044   4.172   8.367 -0.4364  0.7581  0.1087
 5669TIP3   OH238641   5.342   0.873   3.018  0.4537  0.4580 -0.4877
 5669TIP3    H138642   5.285   0.880   2.941 -0.5377  0.5401  0.2403
 5669TIP3    H238643   5.427   0.907   2.988  0.6350 -1.2261 -2.0849
 5670TIP3   OH238644   6.105   2.896   8.752 -0.3754  0.4600 -0.7588
 5670TIP3    H138645   6.115   2.990   8.739 -0.7502  0.4614 -1.0239
 5670TIP3    H238646   6.146   2.857   8.675  1.4408  0.3460  0.2102
 5671TIP3   OH238647   3.856   6.173   8.755  0.3411 -0.4969 -0.2151
 5671TIP3    H138648   3.942   6.207   8.781  1.8487 -1.9815 -2.8419
 5671TIP3    H238649   3.876   6.109   8.687 -2.8331 -1.5650 -0.2681
 5672TIP3   OH238650   2.595   2.592   8.219  0.2630  0.6416 -0.5500
 5672TIP3    H138651   2.577   2.554   8.305 -2.1620  1.6098 -0.5565
 5672TIP3    H238652   2.671   2.543   8.187  0.4198 -0.6346  1.5741
 5673TIP3   OH238653   6.189   1.137   0.071  0.3092  0.4148 -0.1092
 5673TIP3    H138654   6.100   1.143   0.038  0.9577  1.7545 -1.7616
 5673TIP3    H238655   6.210   1.225   0.101  1.8861  0.8262 -2.1411
 5674TIP3   OH238656   1.365   3.544   3.118 -0.0896  0.2326  0.4779
 5674TIP3    H138657   1.354   3.569   3.026 -0.4879 -1.3770  0.0703
 5674TIP3    H238658   1.393   3.453   3.116  1.5390  0.6409  1.9236
 5675TIP3   OH238659   2.324   2.782   8.101 -0.2113 -0.3200 -0.4358
 5675TIP3    H138660   2.245   2.813   8.056  0.4485  0.8162 -0.8538
 5675TIP3    H238661   2.339   2.694   8.064 -2.1295 -1.2369  0.7893
 5676TIP3   OH238662   2.524   6.478   8.331 -0.0795 -0.4502 -0.3163
 5676TIP3    H138663   2.431   6.491   8.312  0.0848  1.4569  0.0723
 5676TIP3    H238664   2.562   6.565   8.329  1.2702 -0.9251  1.8949
 5677TIP3   OH238665   2.918   3.618   8.549  0.3303  0.2292 -0.7349
 5677TIP3    H138666   2.836   3.647   8.589  0.7148  0.2874  0.0332
 5677TIP3    H238667   2.893   3.587   8.462 -0.6474 -0.6518 -0.1520
 5678TIP3   OH238668   1.024   4.698   8.357 -0.8339 -0.5561 -0.2899
 5678TIP3    H138669   1.104   4.738   8.391 -0.3718 -1.0444 -0.7911
 5678TIP3    H238670   1.053   4.648   8.281 -1.7193 -0.2216 -0.8582
 5679TIP3   OH238671   5.585   3.274   7.555 -0.1084 -0.2530 -0.0588
 5679TIP3    H138672   5.509   3.216   7.562 -1.1099  0.9225 -0.8573
 5679TIP3    H238673   5.551   3.355   7.519  1.5397  0.3126 -0.4524
 5680TIP3   OH238674   6.669   4.178   2.121  0.2932  0.3482 -0.2844
 5680TIP3    H138675   6.579   4.167   2.151  0.5761 -0.2605  0.3577
 5680TIP3    H238676   6.715   4.215   2.197  0.3656  1.6713 -0.9438
 5681TIP3   OH238677   4.515   4.325   0.142  0.2149  0.3818 -0.4489
 5681TIP3    H138678   4.442   4.386   0.137 -0.2944 -0.2610 -0.9782
 5681TIP3    H238679   4.593   4.380   0.135 -0.1740  1.1712  1.0583
 5682TIP3   OH238680   3.904   6.332   1.130 -0.4463  0.0033 -0.4378
 5682TIP3    H138681   3.856   6.293   1.056 -0.2044 -0.1050 -0.5389
 5682TIP3    H238682   3.841   6.391   1.171 -0.5998  0.0190 -0.6955
 5683TIP3   OH238683   0.800   6.257   0.196 -0.2185  0.1679 -0.3557
 5683TIP3    H138684   0.852   6.185   0.161  1.1632  0.1094  1.5955
 5683TIP3    H238685   0.857   6.297   0.262 -2.1940  0.9163  1.0074
 5684TIP3   OH238686   5.873   2.198   0.783  0.4916 -0.1493  0.1118
 5684TIP3    H138687   5.874   2.243   0.867 -0.2372 -0.6849  0.4247
 5684TIP3    H238688   5.924   2.254   0.725  0.0709  0.7937  0.6254
 5685TIP3   OH238689   2.819   2.846   1.376 -0.1104 -0.2006 -0.2240
 5685TIP3    H138690   2.803   2.833   1.282 -0.5425  1.0837 -0.3413
 5685TIP3    H238691   2.902   2.894   1.380  0.0464 -0.4887  0.0750
 5686TIP3   OH238692   6.646   3.128   2.589  0.2605  0.1627  0.3859
 5686TIP3    H138693   6.740   3.115   2.584  0.0914 -1.1495  0.1517
 5686TIP3    H238694   6.612   3.085   2.510 -0.3474  2.9596 -1.0001
 5687TIP3   OH238695   6.547   1.034   1.112  0.4921  0.1100  0.4574
 5687TIP3    H138696   6.561   0.958   1.168 -3.6032 -0.4575  1.0110
 5687TIP3    H238697   6.516   1.103   1.171 -0.8137  0.5111 -0.6373
 5688TIP3   OH238698   2.617   0.182   1.141 -0.3120  0.5126 -0.2437
 5688TIP3    H138699   2.687   0.214   1.085 -2.5926  1.4900 -2.7459
 5688TIP3    H238700   2.596   0.257   1.197  0.7257  0.1401  0.6836
 5689TIP3   OH238701   6.066   1.334   1.309  0.3941  0.5017  0.7614
 5689TIP3    H138702   6.042   1.285   1.388  1.2388 -1.7173 -0.2670
 5689TIP3    H238703   6.000   1.309   1.244  1.5079 -0.2493 -0.1228
 5690TIP3   OH238704   3.773   3.335   0.830  0.0853 -0.4351  0.3389
 5690TIP3    H138705   3.814   3.276   0.767 -2.0316  0.8277 -2.3901
 5690TIP3    H238706   3.784   3.422   0.793 -1.4948  0.3348  1.5601
 5691TIP3   OH238707   2.307   4.134   1.689 -0.2182  0.1162  0.4005
 5691TIP3    H138708   2.398   4.146   1.659  0.8825 -0.4656  3.2425
 5691TIP3    H238709   2.278   4.223   1.713 -0.4407  0.3028 -0.5115
 5692TIP3   OH238710   3.098   6.489   1.504  0.4286  0.0866  0.1919
 5692TIP3    H138711   3.191   6.474   1.522  0.2563 -3.4501 -1.1320
 5692TIP3    H238712   3.062   6.520   1.587  2.6850  1.2100  0.8258
 5693TIP3   OH238713   6.269   3.987   0.233  0.9266  0.7643  0.1204
 5693TIP3    H138714   6.311   3.940   0.160  0.4189  1.1708 -0.4398
 5693TIP3    H238715   6.316   4.070   0.238  1.0657  0.6733  0.3675
 5694TIP3   OH238716   2.669   0.858   2.823 -0.0475  0.1260  0.3401
 5694TIP3    H138717   2.688   0.776   2.868  2.2228  0.9772  1.0931
 5694TIP3    H238718   2.617   0.908   2.885 -1.2100 -0.6064 -0.0160
 5695TIP3   OH238719   6.721   5.354   1.105 -0.2129 -0.5728 -0.2319
 5695TIP3    H138720   6.742   5.438   1.146 -0.5077  0.8010 -2.6948
 5695TIP3    H238721   6.802   5.326   1.063 -0.4519 -0.8295 -0.5297
 5696TIP3   OH238722   5.558   1.410   1.117 -0.8632  0.4136 -0.4793
 5696TIP3    H138723   5.555   1.482   1.180  1.6686  0.2702 -0.0760
 5696TIP3    H238724   5.596   1.337   1.166  0.2304 -0.0026 -1.8638
 5697TIP3   OH238725   4.152   5.033   7.317  0.0670  0.3190  0.1720
 5697TIP3    H138726   4.085   4.993   7.260  0.8852 -0.7209 -0.0957
 5697TIP3    H238727   4.137   5.127   7.308 -0.9420  0.1281 -0.3946
 5698TIP3   OH238728   4.977   4.128   8.359  0.5123  0.3608  0.0493
 5698TIP3    H138729   4.975   4.143   8.454 -0.4040  0.7625 -0.0223
 5698TIP3    H238730   5.036   4.054   8.348 -0.7891 -0.8855  1.1118
 5699TIP3   OH238731   1.109   4.607   3.145 -0.1884  0.1466  0.1762
 5699TIP3    H138732   1.019   4.618   3.116  0.7910 -0.1881 -3.4716
 5699TIP3    H238733   1.118   4.513   3.161  0.4597 -0.6928 -3.8966
 5700TIP3   OH238734   4.036   3.756   7.615 -0.1443 -0.3443 -0.3358
 5700TIP3    H138735   4.089   3.680   7.641  0.5409 -0.5012 -2.0561
 5700TIP3    H238736   4.028   3.748   7.520  0.3955  2.0289 -0.6351
 5701TIP3   OH238737   2.522   4.520   8.090  0.4328  0.2192 -0.3553
 5701TIP3    H138738   2.550   4.448   8.034  1.6488  0.8299 -0.5633
 5701TIP3    H238739   2.536   4.489   8.179  1.2851  0.3065 -0.4501
 5702TIP3   OH238740   3.783   5.092   0.971 -0.1353  0.3414  0.3390
 5702TIP3    H138741   3.747   5.104   1.059  0.4110  2.3758  0.3423
 5702TIP3    H238742   3.876   5.075   0.986 -0.3776 -1.2567  0.1926
 5703TIP3   OH238743   4.937   0.363   7.721  0.6072 -0.5343  0.4255
 5703TIP3    H138744   5.007   0.428   7.718  1.3759 -1.2578  1.8382
 5703TIP3    H238745   4.957   0.303   7.648  1.4984 -0.7651  0.8548
 5704TIP3   OH238746   0.046   3.557   1.388 -0.2250 -0.2889 -0.3526
 5704TIP3    H138747   0.135   3.522   1.392  0.0182  0.3833  0.3518
 5704TIP3    H238748   0.042   3.621   1.459 -1.2617 -0.2811 -0.4000
 5705TIP3   OH238749   4.206   5.269   2.575 -0.4583 -0.1041  0.0010
 5705TIP3    H138750   4.269   5.231   2.515 -0.1218 -1.6465  1.2571
 5705TIP3    H238751   4.259   5.303   2.647 -0.9084  0.8547 -0.1106
 5706TIP3   OH238752   4.077   1.694   8.164 -0.2386 -0.0624  0.0487
 5706TIP3    H138753   3.991   1.732   8.145 -0.4762 -1.5859 -2.2407
 5706TIP3    H238754   4.139   1.759   8.130 -0.5252  0.0152 -0.3283
 5707TIP3   OH238755   5.105   1.264   0.565  0.5238  0.3449 -0.7741
 5707TIP3    H138756   5.114   1.169   0.570 -2.3397  0.0185  0.7044
 5707TIP3    H238757   5.079   1.281   0.474  0.2859 -0.3996 -0.8505
 5708TIP3   OH238758   0.160   0.793   2.151  0.0124 -0.3333  1.1565
 5708TIP3    H138759   0.106   0.714   2.153 -1.1958  0.4900  2.3901
 5708TIP3    H238760   0.148   0.828   2.062 -0.8344 -0.5915  1.1626
 5709TIP3   OH238761   2.707   5.181   3.103 -0.5363 -0.0323 -0.2149
 5709TIP3    H138762   2.663   5.114   3.155 -0.5319  0.3767  0.3239
 5709TIP3    H238763   2.733   5.136   3.023  0.4056 -0.9401  0.5714
 5710TIP3   OH238764   2.440   4.663   0.517  0.0916 -0.0831 -0.0581
 5710TIP3    H138765   2.374   4.610   0.472  0.1385  0.2449 -0.5271
 5710TIP3    H238766   2.495   4.600   0.563 -0.0610 -0.4128 -0.3271
 5711TIP3   OH238767   5.056   1.418   7.550  0.0189  0.2062 -0.0835
 5711TIP3    H138768   5.027   1.368   7.473  1.0573  0.9733 -1.0131
 5711TIP3    H238769   5.004   1.384   7.622  0.4551 -2.0183 -0.7348
 5712TIP3   OH238770   4.418   0.142   0.916  0.2700  0.1782 -0.2127
 5712TIP3    H138771   4.405   0.076   0.984 -1.8323 -1.1838 -1.8127
 5712TIP3    H238772   4.344   0.202   0.926  0.0162  0.0453 -1.1748
 5713TIP3   OH238773   4.397   0.666   2.219 -0.0609 -0.3070  0.0916
 5713TIP3    H138774   4.415   0.668   2.125 -0.5785  0.0703 -0.0023
 5713TIP3    H238775   4.303   0.649   2.226 -0.2325  0.7473  0.5119
 5714TIP3   OH238776   1.503   1.676   0.231  0.0783  0.4237  0.3311
 5714TIP3    H138777   1.439   1.642   0.294  1.1004  0.8348  1.6356
 5714TIP3    H238778   1.537   1.598   0.187  0.1296  0.0330  1.0557
 5715TIP3   OH238779   1.258   0.879   8.755 -0.1756  0.0874  0.0034
 5715TIP3    H138780   1.252   0.898   8.849 -2.0531 -3.9501  0.9399
 5715TIP3    H238781   1.349   0.852   8.742  0.6980  2.7440  0.0454
 5716TIP3   OH238782   4.715   6.220   1.753 -0.7803 -0.0111 -0.3846
 5716TIP3    H138783   4.649   6.238   1.686 -0.1622  2.0430 -0.5076
 5716TIP3    H238784   4.714   6.297   1.810  2.2414  0.6380 -1.0366
 5717TIP3   OH238785   3.747   0.966   2.146 -0.2253 -0.6285 -0.2310
 5717TIP3    H138786   3.728   0.939   2.056  0.6757  1.5247 -1.1506
 5717TIP3    H238787   3.661   0.986   2.183 -0.5992 -1.4111 -0.6581
 5718TIP3   OH238788   6.125   6.169   0.783  0.0691  0.3623  0.1509
 5718TIP3    H138789   6.040   6.126   0.797 -0.1756  0.0693 -1.9353
 5718TIP3    H238790   6.176   6.148   0.861 -0.6091 -2.3522 -0.0410
 5719TIP3   OH238791   5.468   4.745   7.786  0.2752  0.0215  0.4630
 5719TIP3    H138792   5.476   4.840   7.799 -0.3564  0.4845 -1.9740
 5719TIP3    H238793   5.378   4.725   7.813 -0.2769  0.5351 -0.9034
 5720TIP3   OH238794   0.368   2.024   7.373  0.1168 -0.6908 -0.5061
 5720TIP3    H138795   0.326   1.957   7.319 -0.3132 -0.2432 -0.7341
 5720TIP3    H238796   0.461   2.017   7.352  0.2754 -2.1989  0.5566
 5721TIP3   OH238797   1.605   5.985   0.354 -0.3354 -0.0403  0.2542
 5721TIP3    H138798   1.575   5.963   0.442 -1.7105 -0.4481 -0.2913
 5721TIP3    H238799   1.575   6.075   0.339  2.1159  1.0147  1.1110
 5722TIP3   OH238800   4.177   3.323   0.357  0.6728 -0.6555  0.7966
 5722TIP3    H138801   4.246   3.389   0.361 -0.2073  0.4358 -0.8029
 5722TIP3    H238802   4.223   3.240   0.350  1.8118 -0.2108  2.4767
 5723TIP3   OH238803   3.282   4.362   0.434  0.2925  0.4984 -0.3169
 5723TIP3    H138804   3.218   4.395   0.371  0.0663  0.8421  0.0887
 5723TIP3    H238805   3.236   4.360   0.518  0.0311 -1.6435 -0.4441
 5724TIP3   OH238806   1.700   6.419   0.339 -0.0586 -0.1513 -0.3427
 5724TIP3    H138807   1.633   6.366   0.296  1.2787 -0.9008 -1.5763
 5724TIP3    H238808   1.689   6.401   0.433 -1.8525  0.1048 -0.4770
 5725TIP3   OH238809   1.631   0.473   8.105  0.2976 -0.4476 -0.0229
 5725TIP3    H138810   1.619   0.388   8.149 -0.0240 -0.0699  0.6358
 5725TIP3    H238811   1.636   0.451   8.012  0.1228 -1.1825  0.1324
 5726TIP3   OH238812   5.249   5.491   2.385  0.0884  0.0939 -0.1775
 5726TIP3    H138813   5.252   5.407   2.430 -0.3662  0.2941  0.2412
 5726TIP3    H238814   5.327   5.537   2.415 -1.3515  1.1282  2.2618
 5727TIP3   OH238815   1.592   0.789   7.361 -0.1167 -0.1159 -0.2578
 5727TIP3    H138816   1.681   0.787   7.327  0.5391  2.3313  1.0442
 5727TIP3    H238817   1.561   0.878   7.344 -1.2395 -0.0423  1.7722
 5728TIP3   OH238818   2.562   0.548   2.227 -0.2912  0.1112  0.4525
 5728TIP3    H138819   2.639   0.600   2.207 -0.4945 -0.0674 -0.8421
 5728TIP3    H238820   2.584   0.504   2.310  0.6343  0.7380  0.5534
 5729TIP3   OH238821   2.563   3.666   8.091  0.0320  0.3894 -0.2238
 5729TIP3    H138822   2.602   3.588   8.130 -0.7240  0.3007  0.3812
 5729TIP3    H238823   2.630   3.699   8.031  1.1014  0.3355  0.8931
 5730TIP3   OH238824   4.371   5.970   8.497 -0.0511  0.0685 -0.3051
 5730TIP3    H138825   4.329   6.023   8.429 -0.8273 -2.1127 -1.6496
 5730TIP3    H238826   4.308   5.967   8.568  0.1295  1.1473 -0.0820
 5731TIP3   OH238827   5.664   2.589   1.770  0.1814  0.0907  0.1344
 5731TIP3    H138828   5.598   2.549   1.826 -0.2578  0.2705 -0.2531
 5731TIP3    H238829   5.717   2.516   1.739 -1.2749 -0.3554 -1.4497
 5732TIP3   OH238830   3.445   0.870   8.769  0.1577  0.0138  0.2830
 5732TIP3    H138831   3.521   0.891   8.823  0.2360 -0.7781  0.4887
 5732TIP3    H238832   3.481   0.855   8.682 -0.0464  2.0198 -0.2120
 5733TIP3   OH238833   3.450   5.841   0.291  0.0378 -0.0597 -0.1901
 5733TIP3    H138834   3.371   5.890   0.270  0.5051  0.0835 -1.7538
 5733TIP3    H238835   3.505   5.850   0.213  1.3824 -0.5838  0.6619
 5734TIP3   OH238836   2.472   3.837   7.525 -0.2852 -0.3032 -0.6198
 5734TIP3    H138837   2.551   3.878   7.489 -0.4452  0.6204  0.0460
 5734TIP3    H238838   2.455   3.885   7.606 -0.7744 -1.3708 -0.0713
 5735TIP3   OH238839   6.400   6.329   0.954  0.3581 -0.1028 -0.2593
 5735TIP3    H138840   6.486   6.293   0.977  0.7784  1.0448 -0.0000
 5735TIP3    H238841   6.339   6.256   0.969  1.2687 -0.9227 -0.4281
 5736TIP3   OH238842   4.031   5.015   0.061  0.5828  0.5100 -0.6058
 5736TIP3    H138843   4.039   5.079  -0.009 -1.5039  0.4227 -0.9824
 5736TIP3    H238844   3.953   5.042   0.110  0.7650 -0.6465  0.3777
 5737TIP3   OH238845   6.388   1.190   0.774  0.4604 -0.3468  0.2771
 5737TIP3    H138846   6.300   1.228   0.779  0.7528  0.2531  1.1958
 5737TIP3    H238847   6.403   1.177   0.680 -0.8999 -1.1922  0.1532
 5738TIP3   OH238848   4.954   3.020   2.598 -0.0046  0.3438  0.2938
 5738TIP3    H138849   4.895   3.090   2.624 -0.3040  0.9666 -1.8681
 5738TIP3    H238850   4.901   2.940   2.599 -0.1433  0.4455  1.0049
 5739TIP3   OH238851   1.055   1.440   1.218 -0.2547  0.2679 -0.1208
 5739TIP3    H138852   1.098   1.358   1.242  1.8906  0.8500 -1.6647
 5739TIP3    H238853   1.017   1.423   1.132  1.0167  1.0950 -0.8885
 5740TIP3   OH238854   0.576   6.119   2.949 -0.6483  0.5817 -0.4007
 5740TIP3    H138855   0.537   6.157   3.028  0.6519  0.2985  0.3977
 5740TIP3    H238856   0.535   6.033   2.941 -1.9015  1.1942 -0.9184
 5741TIP3   OH238857   1.252   5.598   0.529  0.0453  0.7090 -0.1965
 5741TIP3    H138858   1.196   5.588   0.606  0.9553  2.2022  0.7238
 5741TIP3    H238859   1.338   5.568   0.559  0.1668  0.2181 -1.0048
 5742TIP3   OH238860   1.951   2.613   7.785  0.0392  0.3505  0.1305
 5742TIP3    H138861   1.947   2.588   7.693 -0.7764  0.8728  0.0175
 5742TIP3    H238862   1.993   2.699   7.785 -0.3467  0.5412  0.2050
 5743TIP3   OH238863   0.804   3.052   8.308  0.7614 -0.0760  0.6207
 5743TIP3    H138864   0.777   3.018   8.393  1.8182  1.6091  1.6824
 5743TIP3    H238865   0.758   3.136   8.300  0.2094 -0.4661 -0.7792
 5744TIP3   OH238866   6.243   4.890   2.200 -0.0555  0.1400 -0.2803
 5744TIP3    H138867   6.314   4.879   2.136  0.4681 -1.4649  0.5198
 5744TIP3    H238868   6.171   4.929   2.150  0.4120 -0.8734 -1.7972
 5745TIP3   OH238869   2.941   4.256   2.765 -0.2973  0.6544  0.3698
 5745TIP3    H138870   2.902   4.175   2.798 -0.2452 -0.0692 -1.2288
 5745TIP3    H238871   2.974   4.232   2.678 -0.0878  2.3495 -0.0421
 5746TIP3   OH238872   3.312   3.644   7.924  0.3392 -0.1883 -0.1740
 5746TIP3    H138873   3.257   3.680   7.855 -1.5941  0.8996  1.8287
 5746TIP3    H238874   3.341   3.719   7.974  2.8275 -0.8419 -0.4941
 5747TIP3   OH238875   0.500   6.587   0.922 -0.4321  0.3779  0.2836
 5747TIP3    H138876   0.433   6.582   0.990 -0.8312  2.5206  0.1190
 5747TIP3    H238877   0.459   6.636   0.851  0.5581 -0.3210 -0.8033
 5748TIP3   OH238878   4.437   3.011   2.351  0.0169  0.6515 -0.7611
 5748TIP3    H138879   4.483   2.951   2.292  0.3068  0.4756 -0.3620
 5748TIP3    H238880   4.375   2.956   2.398  2.0310  0.1382  1.4543
 5749TIP3   OH238881   3.971   2.653   1.675 -0.5285 -0.0293  0.3615
 5749TIP3    H138882   3.984   2.650   1.770 -0.0666  1.0467  0.3485
 5749TIP3    H238883   3.881   2.624   1.662 -0.3234 -1.0131  1.0528
 5750TIP3   OH238884   4.017   5.200   8.129  0.2761 -0.2201 -0.3605
 5750TIP3    H138885   3.928   5.226   8.107 -0.9276 -0.9922  2.9391
 5750TIP3    H238886   4.044   5.260   8.198  0.1105 -3.1119  2.4661
 5751TIP3   OH238887   2.264   4.156   2.319 -0.2571  0.2584  0.2055
 5751TIP3    H138888   2.214   4.224   2.273  0.6886  0.1451 -1.0412
 5751TIP3    H238889   2.354   4.189   2.321 -0.1075 -0.1612  1.1940
 5752TIP3   OH238890   4.946   5.311   1.825  0.0494 -0.3059 -0.2208
 5752TIP3    H138891   4.934   5.236   1.766  2.0273  0.4039 -1.6362
 5752TIP3    H238892   4.881   5.375   1.794 -1.4238 -1.2469  0.7873
 5753TIP3   OH238893   5.124   5.440   2.660  0.2600  0.1728 -0.1325
 5753TIP3    H138894   5.058   5.449   2.590  0.0464  0.5073  0.1103
 5753TIP3    H238895   5.077   5.465   2.739 -0.3364 -2.8308  0.5882
 5754TIP3   OH238896   6.624   3.939   1.980 -0.1300  0.3664 -0.0242
 5754TIP3    H138897   6.623   4.026   2.020 -1.8882  1.2330 -1.7769
 5754TIP3    H238898   6.613   3.955   1.887  0.8889 -1.7052 -0.5562
 5755TIP3   OH238899   0.061   0.716   7.911  0.0361  0.1030  0.0335
 5755TIP3    H138900   0.155   0.725   7.897  0.3298  1.1984  2.2143
 5755TIP3    H238901   0.022   0.789   7.861  0.6832  1.6589  1.6970
 5756TIP3   OH238902   2.062   2.100   1.498  0.0453 -0.2090  0.0775
 5756TIP3    H138903   2.081   2.015   1.538 -0.7713 -1.2989 -1.7163
 5756TIP3    H238904   1.990   2.136   1.549  0.0501 -0.8391  0.5336
 5757TIP3   OH238905   5.390   2.507   8.397  0.1602  0.6350 -0.1677
 5757TIP3    H138906   5.456   2.505   8.466  2.0511  1.5700 -1.8226
 5757TIP3    H238907   5.384   2.416   8.367 -0.6419  0.2338  1.1337
 5758TIP3   OH238908   0.174   2.949   2.297  0.1943 -0.1488 -0.3730
 5758TIP3    H138909   0.107   3.013   2.324  0.2325  0.1338 -0.9406
 5758TIP3    H238910   0.125   2.883   2.248 -0.0096 -1.1048  1.0352
 5759TIP3   OH238911   2.136   1.413   2.637 -0.3199 -0.0020 -0.2138
 5759TIP3    H138912   2.125   1.325   2.674 -2.3745 -0.2784 -1.2760
 5759TIP3    H238913   2.218   1.409   2.589 -0.4898 -1.4415 -0.4262
 5760TIP3   OH238914   2.983   5.419   1.360 -0.1100  0.2041  0.1223
 5760TIP3    H138915   2.995   5.417   1.455 -0.4966  1.4477  0.2070
 5760TIP3    H238916   3.067   5.389   1.325  0.0689 -0.1610  0.8462
 5761TIP3   OH238917   6.060   3.465   0.950  0.1818 -0.0538  0.2203
 5761TIP3    H138918   6.106   3.539   0.990 -0.4436  0.2144  0.4643
 5761TIP3    H238919   6.123   3.428   0.888  0.4696  0.7480  0.0168
 5762TIP3   OH238920   5.693   6.192   8.145 -0.3957 -0.0257 -0.4433
 5762TIP3    H138921   5.609   6.202   8.189  0.6462 -0.0366  1.6450
 5762TIP3    H238922   5.723   6.282   8.131 -1.2442  0.0254 -2.3236
 5763TIP3   OH238923   6.344   2.041   1.858 -0.4548 -0.5945 -0.0762
 5763TIP3    H138924   6.273   2.049   1.922  1.3342  0.4967  1.9089
 5763TIP3    H238925   6.360   2.130   1.828 -1.3823 -1.0962 -2.3255
 5764TIP3   OH238926   0.684   6.750   2.127 -0.3310  0.2178  0.4320
 5764TIP3    H138927   0.764   6.781   2.084 -1.6582  1.1791 -1.4774
 5764TIP3    H238928   0.639   6.830   2.155 -0.9146 -0.2897  0.9731
 5765TIP3   OH238929   6.769   4.558   1.136  0.4445  0.0283 -0.2381
 5765TIP3    H138930   6.821   4.483   1.108 -0.7357 -0.1173 -2.1849
 5765TIP3    H238931   6.792   4.627   1.075  3.6673  2.3553  3.1551
 5766TIP3   OH238932   0.846   3.002   2.393  0.0986  0.3979  0.0688
 5766TIP3    H138933   0.776   3.067   2.390  0.2417  0.7645  2.4873
 5766TIP3    H238934   0.923   3.047   2.358 -0.3684  0.7017 -0.5787
 5767TIP3   OH238935   1.415   4.077   2.051 -0.0818 -0.0948  0.2540
 5767TIP3    H138936   1.416   3.981   2.041  0.6706 -0.1745  0.9179
 5767TIP3    H238937   1.495   4.106   2.007 -1.0495  0.3956 -1.2330
 5768TIP3   OH238938   1.811   0.439   8.716 -0.0768 -0.2436 -0.4203
 5768TIP3    H138939   1.731   0.436   8.768  0.4232 -0.1828  0.3611
 5768TIP3    H238940   1.862   0.364   8.745  1.3128  1.1772  1.0203
 5769TIP3   OH238941   5.653   1.595   7.816 -0.0805 -0.3244  0.0098
 5769TIP3    H138942   5.558   1.585   7.808 -0.2463  0.5121  0.7470
 5769TIP3    H238943   5.690   1.524   7.763 -1.1216 -2.5281  2.0494
 5770TIP3   OH238944   2.410   2.871   8.341 -0.0600  0.6917 -0.3465
 5770TIP3    H138945   2.366   2.804   8.393 -0.1319  1.0893  0.1130
 5770TIP3    H238946   2.406   2.839   8.251 -1.7622  0.9634 -0.4008
 5771TIP3   OH238947   6.056   3.515   3.400  0.0846 -0.1977  0.0211
 5771TIP3    H138948   6.034   3.543   3.311 -1.8913 -1.4156  0.0541
 5771TIP3    H238949   6.120   3.579   3.430 -2.2479  2.7789 -0.7759
 5772TIP3   OH238950   5.998   0.847   2.232 -0.3786 -0.2901  0.0339
 5772TIP3    H138951   5.985   0.753   2.232 -1.8637 -0.1053  0.6379
 5772TIP3    H238952   5.920   0.883   2.274 -1.5474  1.4290 -3.2013
 5773TIP3   OH238953   3.718   2.378   1.921 -0.1268 -0.1122 -0.2973
 5773TIP3    H138954   3.652   2.441   1.892  0.6364  0.7694 -0.1689
 5773TIP3    H238955   3.749   2.337   1.841 -0.8882 -0.5982 -0.3505
 5774TIP3   OH238956   5.028   6.684   2.844 -0.4937 -0.0588 -0.0646
 5774TIP3    H138957   5.090   6.688   2.916 -0.6057 -0.5384  0.0613
 5774TIP3    H238958   5.022   6.774   2.812 -2.2529  0.6563  2.0445
 5775TIP3   OH238959   6.321   3.480   2.252 -0.3643  0.1093 -0.4065
 5775TIP3    H138960   6.381   3.436   2.313 -1.0614  1.3935  1.3016
 5775TIP3    H238961   6.356   3.568   2.244 -1.4542  0.5776 -0.1671
 5776TIP3   OH238962   4.172   0.899   0.425  0.0469  0.3927  0.7127
 5776TIP3    H138963   4.128   0.897   0.339  0.3065 -1.5929  0.5699
 5776TIP3    H238964   4.110   0.945   0.482 -1.3467 -0.5384  0.0332
 5777TIP3   OH238965   3.318   6.634   2.161  0.0439  0.0924  0.1167
 5777TIP3    H138966   3.408   6.601   2.164  0.0708  0.2138  0.8601
 5777TIP3    H238967   3.323   6.721   2.199 -0.4279  0.0129  0.3681
 5778TIP3   OH238968   0.610   2.009   1.726  0.0044 -0.9947  0.2709
 5778TIP3    H138969   0.550   1.978   1.659 -1.4997 -0.2264  1.2123
 5778TIP3    H238970   0.696   2.008   1.684 -0.8069 -1.1232 -1.4570
 5779TIP3   OH238971   5.412   1.542   8.604 -0.5008 -0.0929 -0.0163
 5779TIP3    H138972   5.469   1.598   8.657 -0.3914  0.2858 -0.5234
 5779TIP3    H238973   5.452   1.543   8.517 -0.1702 -1.4275  0.0936
 5780TIP3   OH238974   6.379   2.580   2.344 -0.2234 -0.3974  0.0275
 5780TIP3    H138975   6.327   2.520   2.290 -0.3624  1.1280 -1.6000
 5780TIP3    H238976   6.328   2.661   2.347 -0.0129 -0.2789  2.1481
 5781TIP3   OH238977   5.550   2.930   8.600 -0.1539 -0.0729  0.0885
 5781TIP3    H138978   5.610   2.977   8.658 -1.5362 -0.4588  1.9153
 5781TIP3    H238979   5.550   2.980   8.519 -0.5467  2.3195  1.4934
 5782TIP3   OH238980   6.674   0.524   8.010  0.6506  0.1775 -0.7144
 5782TIP3    H138981   6.699   0.432   7.998 -2.1249 -0.6706 -0.6756
 5782TIP3    H238982   6.711   0.569   7.934  1.7057 -1.0283 -0.9465
 5783TIP3   OH238983   2.269   0.655   0.996  0.3689  0.7347 -0.1588
 5783TIP3    H138984   2.322   0.733   1.015  0.8008  0.3193  0.3659
 5783TIP3    H238985   2.333   0.586   0.978 -0.0064  0.8802 -2.3447
 5784TIP3   OH238986   4.364   6.088   2.885 -0.4471  0.4254 -0.1391
 5784TIP3    H138987   4.434   6.153   2.890  1.3421 -1.3159 -1.0783
 5784TIP3    H238988   4.288   6.131   2.924  1.1515  2.3683  0.9959
 5785TIP3   OH238989   0.436   0.457   2.359  0.4909  0.1526 -0.1526
 5785TIP3    H138990   0.404   0.518   2.426 -1.4324  0.1956 -1.0351
 5785TIP3    H238991   0.504   0.406   2.403  0.7970  1.6355  1.1723
 5786TIP3   OH238992   5.306   3.662   2.585  0.0321  0.0650 -0.8228
 5786TIP3    H138993   5.324   3.702   2.670  0.7946 -0.4807 -0.7149
 5786TIP3    H238994   5.357   3.713   2.523  0.6359 -0.4461 -0.7491
 5787TIP3   OH238995   2.049   6.124   2.860  0.4175  0.1126  0.1248
 5787TIP3    H138996   2.030   6.101   2.769 -1.5100  0.6909  0.3338
 5787TIP3    H238997   2.000   6.205   2.875 -0.0710 -0.4645  1.9388
 5788TIP3   OH238998   4.818   0.195   8.305 -0.0325 -0.0192 -0.1088
 5788TIP3    H138999   4.832   0.117   8.359 -0.1784 -1.2903 -1.8056
 5788TIP3    H239000   4.742   0.173   8.251 -1.5002  2.2202  0.9090
 5789TIP3   OH239001   4.817   1.189   2.880  0.0010  1.1066  0.6187
 5789TIP3    H139002   4.841   1.254   2.946  0.8353  1.0211  0.4077
 5789TIP3    H239003   4.839   1.230   2.797 -1.4699  1.3945  0.3448
 5790TIP3   OH239004   4.123   6.293   8.343  0.2102 -0.5649  0.3103
 5790TIP3    H139005   4.113   6.352   8.268 -1.3433  0.3420  1.1689
 5790TIP3    H239006   4.145   6.208   8.304  0.6178  0.1424 -1.0789
 5791TIP3   OH239007   0.004   5.243   8.621 -0.7371 -0.2704  0.2965
 5791TIP3    H139008  -0.037   5.299   8.555  0.9707  2.4555  1.3612
 5791TIP3    H239009   0.024   5.161   8.574 -2.5012  0.3136 -1.6152
 5792TIP3   OH239010   6.567   3.005   0.038  0.2110 -0.0680  0.0215
 5792TIP3    H139011   6.611   3.083   0.005  1.3779 -0.0162  1.6171
 5792TIP3    H239012   6.479   3.035   0.060  1.0204  1.1444  1.7957
 5793TIP3   OH239013   6.028   0.530   0.548  0.4801  0.6242 -0.3680
 5793TIP3    H139014   6.057   0.595   0.483  0.8547  0.0529 -0.7772
 5793TIP3    H239015   5.959   0.481   0.504  0.9309  0.0459 -0.4398
 5794TIP3   OH239016   6.113   1.260   2.772 -0.5184  0.5570  0.0448
 5794TIP3    H139017   6.040   1.211   2.809  0.8366 -0.6632  1.2015
 5794TIP3    H239018   6.125   1.334   2.831 -0.7493  0.7191 -0.1070
 5795TIP3   OH239019   5.808   4.698   2.967 -0.3050  0.3268 -0.0053
 5795TIP3    H139020   5.727   4.708   2.918 -2.7938 -2.0346  3.1129
 5795TIP3    H239021   5.794   4.750   3.047 -0.9202 -3.4106  2.6220
 5796TIP3   OH239022   6.023   2.572   1.014 -0.3677 -0.1063 -0.2746
 5796TIP3    H139023   6.113   2.576   1.047 -0.2344 -3.1011  0.0238
 5796TIP3    H239024   6.012   2.653   0.965  2.0407  0.9501  0.7498
 5797TIP3   OH239025   4.000   4.782   7.406  0.1255 -0.4492  0.4627
 5797TIP3    H139026   4.010   4.807   7.314 -1.0860  0.4605  0.5529
 5797TIP3    H239027   3.950   4.701   7.403  1.7653 -1.4974  0.2723
 5798TIP3   OH239028   4.963   0.936   2.550 -0.1394 -0.0004 -0.1845
 5798TIP3    H139029   4.870   0.926   2.531 -0.3272  0.4484  0.4747
 5798TIP3    H239030   4.976   1.030   2.562 -0.0821 -0.2288  1.9790
 5799TIP3   OH239031   0.997   4.040   8.827 -0.2912  0.3534  0.4043
 5799TIP3    H139032   0.965   4.093   8.754  0.6900 -0.7773 -0.9036
 5799TIP3    H239033   1.081   4.079   8.849 -0.1994  0.1868  0.3519
 5800TIP3   OH239034   3.818   3.832   1.666  0.4758  0.2912 -0.1563
 5800TIP3    H139035   3.788   3.779   1.592  0.4021 -1.5042  1.0855
 5800TIP3    H239036   3.740   3.845   1.720  0.9006 -0.1097  0.5719
 5801TIP3   OH239037   5.098   1.547   0.717  0.3254  0.1596 -0.0544
 5801TIP3    H139038   5.043   1.604   0.664 -0.1567  0.8395  1.1454
 5801TIP3    H239039   5.164   1.604   0.754 -0.8230  0.2198  2.0617
 5802TIP3   OH239040   0.020   4.037   1.128 -0.1505  0.1789  0.3528
 5802TIP3    H139041   0.029   3.967   1.063  4.5711 -0.0598  0.9029
 5802TIP3    H239042  -0.017   3.993   1.205 -1.0886 -0.7097 -0.5764
 5803TIP3   OH239043   2.403   1.700   6.861 -0.0624 -0.0874 -0.3854
 5803TIP3    H139044   2.372   1.618   6.900 -2.2732  1.0963  0.5058
 5803TIP3    H239045   2.411   1.760   6.935  1.1252  0.6694 -1.0919
 5804TIP3   OH239046   6.127   6.268   1.414 -0.0374  0.5246 -0.1777
 5804TIP3    H139047   6.121   6.249   1.321 -0.7498 -0.9467  0.1427
 5804TIP3    H239048   6.057   6.332   1.430 -1.3452 -0.8242 -0.2937
 5805TIP3   OH239049   3.811   0.169   1.425 -0.5223 -0.6660  0.3691
 5805TIP3    H139050   3.891   0.207   1.461 -0.5278 -0.9540  0.6895
 5805TIP3    H239051   3.740   0.222   1.461 -0.4006  0.9448 -1.5653
 5806TIP3   OH239052   3.803   4.343   0.482  0.6902 -0.5481 -0.6261
 5806TIP3    H139053   3.710   4.337   0.504  0.5923 -2.4921 -1.3401
 5806TIP3    H239054   3.846   4.288   0.548  1.4243  0.7835  0.0405
 5807TIP3   OH239055   3.312   4.358   8.551 -0.5180  0.2683 -0.3091
 5807TIP3    H139056   3.319   4.436   8.495  0.9539  0.1097 -0.3796
 5807TIP3    H239057   3.388   4.305   8.528  0.1139  0.1723  1.7942
 5808TIP3   OH239058   0.892   3.857   1.653 -0.3961 -0.0080 -0.5682
 5808TIP3    H139059   0.910   3.786   1.715  0.6153  1.8256  1.3676
 5808TIP3    H239060   0.903   3.817   1.567  1.2389 -1.9412  0.4463
 5809TIP3   OH239061   3.596   1.917   0.166  0.1449 -0.2577 -0.4536
 5809TIP3    H139062   3.585   1.863   0.244 -1.1326 -0.7869 -0.9742
 5809TIP3    H239063   3.584   2.006   0.198  2.4474 -0.1958  0.4472
 5810TIP3   OH239064   0.447   4.108   2.871  0.0531 -0.2602 -0.1063
 5810TIP3    H139065   0.370   4.059   2.899  0.3974  0.0796  1.5149
 5810TIP3    H239066   0.416   4.198   2.859 -0.4211 -0.6463 -2.4060
 5811TIP3   OH239067   3.118   6.535   1.238 -0.9110 -0.2957 -0.5908
 5811TIP3    H139068   3.030   6.570   1.221 -1.3611 -0.5395  1.1130
 5811TIP3    H239069   3.120   6.520   1.332  0.6011 -1.3074 -0.7567
 5812TIP3   OH239070   1.877   2.201   1.672  0.0339  0.2861 -0.3439
 5812TIP3    H139071   1.913   2.231   1.755  0.3317 -2.1032  0.4649
 5812TIP3    H239072   1.790   2.241   1.668 -0.3186 -0.2090  1.5382
 5813TIP3   OH239073   5.627   3.265   3.280  0.2986  0.1692  0.2457
 5813TIP3    H139074   5.579   3.182   3.274 -0.3632  0.5246  0.4608
 5813TIP3    H239075   5.567   3.330   3.244  1.6634  0.2610 -2.0002
 5814TIP3   OH239076   6.635   2.071   8.697 -0.1831 -0.0035  0.0304
 5814TIP3    H139077   6.543   2.076   8.671 -0.3315  1.0812  0.6881
 5814TIP3    H239078   6.633   2.072   8.792  0.5571  1.7031  0.0556
 5815TIP3   OH239079   3.020   0.079   2.570 -0.1357  0.4295  0.1099
 5815TIP3    H139080   3.113   0.071   2.591  0.2762 -0.4289 -1.7934
 5815TIP3    H239081   3.016   0.153   2.509 -0.8591  1.1094  0.9661
 5816TIP3   OH239082   5.917   3.397   8.460 -0.0047  0.1015 -0.4457
 5816TIP3    H139083   5.958   3.415   8.376 -1.0070 -2.5396 -1.5962
 5816TIP3    H239084   5.870   3.478   8.481  1.0397  1.1520 -1.8874
 5817TIP3   OH239085   0.335   1.781   1.028 -0.0516 -0.2968  0.2080
 5817TIP3    H139086   0.297   1.869   1.022 -0.3334 -0.2639  1.9032
 5817TIP3    H239087   0.344   1.752   0.937 -1.4401  0.8469 -0.3334
 5818TIP3   OH239088   1.593   5.921   1.463 -0.2962 -0.6631 -0.4446
 5818TIP3    H139089   1.509   5.908   1.418 -0.7188 -0.5431  0.2858
 5818TIP3    H239090   1.570   5.967   1.543  0.4761 -0.6316 -0.2324
 5819TIP3   OH239091   1.684   2.516   1.810  0.1012 -0.3002  0.2191
 5819TIP3    H139092   1.663   2.475   1.726 -0.1544  0.7574 -0.2459
 5819TIP3    H239093   1.614   2.488   1.869 -1.0393  0.8545 -0.5540
 5820TIP3   OH239094   5.222   5.213   8.599  0.1137  0.5021 -0.6122
 5820TIP3    H139095   5.177   5.150   8.655 -0.6116  1.0921 -0.5006
 5820TIP3    H239096   5.162   5.226   8.525  2.6487 -3.1054 -3.6142
 5821TIP3   OH239097   0.423   6.752   2.962 -0.1616 -0.3772  0.4562
 5821TIP3    H139098   0.339   6.752   3.008  0.0881  0.1271  0.9186
 5821TIP3    H239099   0.488   6.739   3.031  0.1148 -1.3513  0.0348
 5822TIP3   OH239100   4.587   0.247   8.147 -0.2223 -0.1153 -0.1245
 5822TIP3    H139101   4.600   0.339   8.125 -1.1939  0.0001 -0.2566
 5822TIP3    H239102   4.522   0.216   8.085  1.0700 -1.2672 -0.9622
 5823TIP3   OH239103   3.064   4.609   1.594 -0.0039 -0.3172  0.1097
 5823TIP3    H139104   3.129   4.664   1.637 -0.8779 -0.1024  1.1778
 5823TIP3    H239105   3.092   4.519   1.614  0.0997 -0.2311  0.3540
 5824TIP3   OH239106   1.941   4.700   1.716 -0.1609 -0.9966 -1.0241
 5824TIP3    H139107   1.888   4.695   1.796 -0.3724 -0.6317 -1.1360
 5824TIP3    H239108   1.892   4.760   1.659  1.1517  0.5984 -0.5353
 5825TIP3   OH239109   1.805   4.525   1.387  0.2107 -0.5648  0.0644
 5825TIP3    H139110   1.761   4.604   1.417 -0.5065 -1.2361  0.8479
 5825TIP3    H239111   1.886   4.556   1.347 -0.2900  0.5961 -0.0944
 5826TIP3   OH239112   0.014   6.070   2.621 -0.4899 -0.3468 -0.2989
 5826TIP3    H139113  -0.000   6.127   2.545 -0.8616 -0.7671 -0.5462
 5826TIP3    H239114   0.107   6.081   2.641 -0.8755  1.5465  0.6271
 5827TIP3   OH239115   4.831   1.582   0.112  0.0574  0.3600 -0.3291
 5827TIP3    H139116   4.857   1.650   0.174 -0.5262 -0.4520  0.8352
 5827TIP3    H239117   4.742   1.606   0.085 -0.8611 -0.8389  1.4501
 5828TIP3   OH239118   1.694   2.532   8.534  0.3379  0.3689 -0.3863
 5828TIP3    H139119   1.607   2.564   8.509  0.0099  0.6611  1.0612
 5828TIP3    H239120   1.704   2.450   8.485 -0.8422  0.2356 -0.4286
 5829TIP3   OH239121   0.597   5.374   8.591 -0.6738  0.1330 -0.0291
 5829TIP3    H139122   0.674   5.394   8.538 -1.4587  0.0833 -1.2362
 5829TIP3    H239123   0.623   5.394   8.681  1.5651 -2.1809 -0.0558
 5830TIP3   OH239124   3.636   5.650   8.217  0.1921 -0.0569  0.0954
 5830TIP3    H139125   3.577   5.724   8.233 -1.3948 -1.3643  0.6231
 5830TIP3    H239126   3.628   5.634   8.123  1.9933  1.5588 -0.3844
 5831TIP3   OH239127   2.540   0.297   1.392 -0.5648 -0.0347  0.5790
 5831TIP3    H139128   2.574   0.348   1.465 -0.3932 -2.0998  2.0262
 5831TIP3    H239129   2.555   0.206   1.417 -4.3837 -1.0057 -0.0293
 5832TIP3   OH239130   5.777   6.244   7.677 -0.0769  0.0797  0.1719
 5832TIP3    H139131   5.798   6.152   7.693  0.0908  0.3276  1.5376
 5832TIP3    H239132   5.836   6.270   7.606 -0.0163 -0.8203 -0.1150
 5833TIP3   OH239133   6.153   1.564   0.610  0.4137  0.1058  0.2601
 5833TIP3    H139134   6.103   1.601   0.537  1.7241  1.3328 -0.0554
 5833TIP3    H239135   6.157   1.634   0.675  0.2587 -0.5817  1.0397
 5834TIP3   OH239136   3.273   5.409   8.256 -0.6982 -0.3519  0.3810
 5834TIP3    H139137   3.365   5.415   8.231 -0.8511  1.3723  0.0326
 5834TIP3    H239138   3.230   5.472   8.198 -2.1216 -1.2187  0.4573
 5835TIP3   OH239139   0.034   2.518   0.719 -0.3362 -0.0515  0.2122
 5835TIP3    H139140   0.019   2.465   0.640 -1.5259  0.9034 -0.2362
 5835TIP3    H239141   0.118   2.560   0.704  0.3297 -1.3058  0.2945
 5836TIP3   OH239142   2.788   3.785   7.183 -0.2292 -0.4723  0.5169
 5836TIP3    H139143   2.857   3.845   7.155 -1.1081  1.2435  1.8161
 5836TIP3    H239144   2.835   3.714   7.226  0.8767 -1.1149 -1.6437
 5837TIP3   OH239145   4.004   3.897   3.392 -0.0012 -0.1545 -0.1995
 5837TIP3    H139146   3.917   3.935   3.395 -0.0219 -0.1877 -0.3556
 5837TIP3    H239147   3.996   3.822   3.334 -0.0360 -0.6036  0.3814
 5838TIP3   OH239148   4.284   1.460   7.372  0.2073  0.2995  0.3169
 5838TIP3    H139149   4.281   1.556   7.382 -0.5332  0.4603 -1.1784
 5838TIP3    H239150   4.365   1.444   7.325 -0.5387  0.3914 -1.0516
 5839TIP3   OH239151   6.351   0.868   7.603 -0.0214  0.6858  0.2383
 5839TIP3    H139152   6.435   0.914   7.598  0.9113 -0.8670  0.9407
 5839TIP3    H239153   6.334   0.838   7.514  1.0557 -0.4483  0.3879
 5840TIP3   OH239154   3.120   6.563   8.200  0.1009  0.0716 -0.6057
 5840TIP3    H139155   3.050   6.624   8.223  0.5360  0.0483  0.8863
 5840TIP3    H239156   3.176   6.611   8.141 -0.0209  0.8305 -0.1125
 5841TIP3   OH239157   1.117   0.301   1.218  0.3512 -0.2582  0.2120
 5841TIP3    H139158   1.031   0.277   1.252  0.1743  0.2065  0.0860
 5841TIP3    H239159   1.159   0.347   1.291  0.1112  0.4123 -0.0720
 5842TIP3   OH239160   0.845   4.119   8.294 -0.7338  0.1172  0.1836
 5842TIP3    H139161   0.798   4.180   8.351 -0.6564  0.5092 -0.1695
 5842TIP3    H239162   0.897   4.175   8.236  0.6574 -0.3235  0.9732
 5843TIP3   OH239163   3.595   5.594   0.903  0.8284 -0.0224  0.1053
 5843TIP3    H139164   3.590   5.599   0.998 -0.7531 -0.8205  0.1010
 5843TIP3    H239165   3.603   5.501   0.884 -3.4975 -0.4384 -0.5932
 5844TIP3   OH239166   0.654   0.213   0.547 -0.0319  0.1372  0.8721
 5844TIP3    H139167   0.607   0.269   0.484 -0.3123 -0.2234  0.7519
 5844TIP3    H239168   0.707   0.155   0.492  1.5182  1.3328  1.0308
 5845TIP3   OH239169   6.429   5.693   2.177 -0.6944  0.2428  0.2486
 5845TIP3    H139170   6.396   5.628   2.114  0.2104 -0.1222  0.1383
 5845TIP3    H239171   6.461   5.640   2.251 -2.1666  0.6824  1.2405
 5846TIP3   OH239172   4.447   2.750   3.348 -0.2520 -0.1873  0.0402
 5846TIP3    H139173   4.456   2.767   3.442  0.6592 -1.0702  0.1284
 5846TIP3    H239174   4.370   2.695   3.341 -0.1147 -0.4195  0.3163
 5847TIP3   OH239175   2.002   1.689   0.975 -0.0422 -0.3664  0.3825
 5847TIP3    H139176   2.090   1.710   0.943  0.4222 -2.0712  0.4741
 5847TIP3    H239177   2.016   1.658   1.064 -1.1148  2.3163  1.6117
 5848TIP3   OH239178   1.058   2.931   0.148 -0.3887  0.1816 -0.2575
 5848TIP3    H139179   0.964   2.926   0.164 -0.4473 -0.1414 -0.6550
 5848TIP3    H239180   1.071   3.015   0.104 -0.5826 -0.0492 -0.7597
 5849TIP3   OH239181   0.008   4.838   1.011 -0.4738 -0.1619 -0.6670
 5849TIP3    H139182  -0.046   4.802   0.941 -1.8030  1.1328 -0.3651
 5849TIP3    H239183  -0.044   4.911   1.046  1.7140  1.5833 -0.7928
 5850TIP3   OH239184   5.864   0.182   0.957  0.3837 -0.3543 -0.3375
 5850TIP3    H139185   5.932   0.238   0.994  1.2160 -0.6581 -1.3469
 5850TIP3    H239186   5.836   0.228   0.877  0.5670 -1.0067 -0.7879
 5851TIP3   OH239187   1.498   2.602   0.660 -0.0355  0.4301  0.0565
 5851TIP3    H139188   1.467   2.545   0.589  1.0762 -0.1931  0.0375
 5851TIP3    H239189   1.489   2.548   0.739 -1.5000  1.2060  0.4645
 5852TIP3   OH239190   2.438   2.542   8.001  0.4074  0.2681  0.2114
 5852TIP3    H139191   2.452   2.518   7.910 -0.9476 -1.1361  0.3253
 5852TIP3    H239192   2.524   2.533   8.042  0.7879 -0.2686 -0.6697
 5853TIP3   OH239193   1.141   4.756   3.485  0.8069  0.5336  0.1087
 5853TIP3    H139194   1.049   4.773   3.464  0.4732 -0.5546  0.5991
 5853TIP3    H239195   1.161   4.815   3.558 -0.2999 -1.0075  1.7477
 5854TIP3   OH239196   1.226   2.164   8.180 -0.0499  0.7106  0.1282
 5854TIP3    H139197   1.153   2.115   8.218 -0.6880  1.2803 -0.3388
 5854TIP3    H239198   1.245   2.119   8.098 -1.3697  1.8281 -0.8585
 5855TIP3   OH239199   1.705   2.847   2.205  0.0406 -0.4267  0.5109
 5855TIP3    H139200   1.778   2.896   2.167 -0.1424  1.0087  1.9218
 5855TIP3    H239201   1.745   2.788   2.269 -0.1049  2.2976  3.3371
 5856TIP3   OH239202   0.927   0.888   2.958 -0.2545  0.4969  0.0619
 5856TIP3    H139203   0.953   0.956   3.019 -0.1192  0.1509  0.3942
 5856TIP3    H239204   1.007   0.840   2.940 -0.3681  0.3602 -0.0864
 5857TIP3   OH239205   1.372   1.752   1.071 -0.8353 -0.2260  0.6604
 5857TIP3    H139206   1.429   1.786   1.140  0.1257 -0.1533 -0.1567
 5857TIP3    H239207   1.431   1.706   1.012 -1.3727  1.2124 -1.0583
 5858TIP3   OH239208   0.043   6.119   2.126  0.3714 -0.0213 -0.5979
 5858TIP3    H139209   0.118   6.177   2.123 -0.4016  1.2138  1.6360
 5858TIP3    H239210   0.080   6.031   2.121  1.8836  0.5746 -0.3199
 5859TIP3   OH239211   6.017   1.499   1.028 -0.0563  0.0561  0.0918
 5859TIP3    H139212   6.002   1.416   1.073 -1.2851  0.4371  0.4361
 5859TIP3    H239213   6.024   1.476   0.936  0.1519 -0.4801  0.2387
 5860TIP3   OH239214   4.373   0.882   1.375 -0.4462 -0.1286 -0.1289
 5860TIP3    H139215   4.333   0.849   1.455 -0.2642  1.0746  0.4880
 5860TIP3    H239216   4.446   0.935   1.405  0.8060 -1.1752 -1.1793
 5861TIP3   OH239217   2.525   6.500   1.661  0.0408 -0.0779  0.2992
 5861TIP3    H139218   2.500   6.431   1.600 -0.7925 -0.3098  0.8931
 5861TIP3    H239219   2.557   6.454   1.738 -0.3984  0.2080  0.6496
 5862TIP3   OH239220   1.760   0.386   0.214 -0.1558 -0.2835  0.2216
 5862TIP3    H139221   1.705   0.435   0.153  0.1650  0.5588  0.5850
 5862TIP3    H239222   1.746   0.294   0.191 -0.0159  0.0086 -1.1414
 5863TIP3   OH239223   1.487   5.161   0.651  0.2124 -0.0394  0.2452
 5863TIP3    H139224   1.572   5.125   0.627 -0.1918 -1.2821  0.5488
 5863TIP3    H239225   1.430   5.137   0.578 -0.1150 -0.2039  0.5510
 5864TIP3   OH239226   2.549   4.536   3.308  0.1888  0.1960  0.1792
 5864TIP3    H139227   2.491   4.461   3.295 -2.8519  2.2287  0.8221
 5864TIP3    H239228   2.637   4.500   3.302 -1.0808 -3.0735 -1.3459
 5865TIP3   OH239229   1.123   1.499   1.708  0.2865  0.1954 -0.1382
 5865TIP3    H139230   1.051   1.489   1.645  0.2493 -0.4262 -0.0010
 5865TIP3    H239231   1.196   1.452   1.669  0.6321  0.8292 -0.2786
 5866TIP3   OH239232   0.225   1.738   0.251 -0.0661  0.2177  0.5237
 5866TIP3    H139233   0.292   1.729   0.319  0.8771 -0.5462 -0.4660
 5866TIP3    H239234   0.268   1.788   0.181 -1.0024  0.9567  0.4455
 5867TIP3   OH239235   2.228   0.069   0.804 -0.6727 -0.5050  0.5178
 5867TIP3    H139236   2.272   0.110   0.730 -1.1433 -1.3714 -0.2537
 5867TIP3    H239237   2.208   0.142   0.863 -0.3185  0.1953 -0.2097
 5868TIP3   OH239238   5.922   5.246   0.170  0.0122  0.3715  0.1079
 5868TIP3    H139239   5.835   5.264   0.135  0.1177  0.9976  0.1650
 5868TIP3    H239240   5.906   5.211   0.258 -0.1666  0.8350  0.2604
 5869TIP3   OH239241   1.797   0.392   1.573 -0.2126  0.2740  0.1577
 5869TIP3    H139242   1.778   0.305   1.538  1.2855 -0.8631  1.9722
 5869TIP3    H239243   1.861   0.428   1.511 -0.8542  0.1146 -0.6196
 5870TIP3   OH239244   4.185   4.293   1.201 -0.0765  0.1538 -0.2133
 5870TIP3    H139245   4.177   4.381   1.164 -0.7490  0.1401 -0.1066
 5870TIP3    H239246   4.152   4.235   1.132  2.3162 -0.2262 -1.1441
 5871TIP3   OH239247   2.415   2.741   0.090  0.0355  0.4157 -0.1446
 5871TIP3    H139248   2.480   2.779   0.031  2.7679  0.6392  2.7189
 5871TIP3    H239249   2.413   2.801   0.164 -0.3705 -1.6851  1.6496
 5872TIP3   OH239250   0.480   2.749   0.869  0.2879  0.7799 -0.3811
 5872TIP3    H139251   0.410   2.761   0.933  1.4401  1.0535  0.8663
 5872TIP3    H239252   0.490   2.654   0.863 -0.3328  0.7269 -0.7598
 5873TIP3   OH239253   1.911   0.379   0.761  0.1811  0.1535  0.5543
 5873TIP3    H139254   1.995   0.354   0.800  0.1065  0.4283  0.8956
 5873TIP3    H239255   1.935   0.432   0.686  0.3029  1.6156  1.5903
 5874TIP3   OH239256   3.377   4.915   2.906 -0.3682  0.4408 -0.5419
 5874TIP3    H139257   3.429   4.913   2.826  0.7437 -0.8190  0.1755
 5874TIP3    H239258   3.418   4.850   2.963  0.3925  2.9049  1.9766
 5875TIP3   OH239259   1.796   1.765   3.244 -0.2112 -0.0205  0.1638
 5875TIP3    H139260   1.865   1.773   3.178  0.5663 -3.2463  0.4537
 5875TIP3    H239261   1.839   1.788   3.327  1.5853 -4.6725  0.7973
 5876TIP3   OH239262   2.975   6.228   0.196 -0.0219 -0.4403 -0.6547
 5876TIP3    H139263   3.020   6.200   0.275 -0.7335 -1.9051 -0.7520
 5876TIP3    H239264   2.889   6.186   0.200 -0.4206  0.2215 -1.7447
 5877TIP3   OH239265   5.000   3.366   0.657 -0.0223 -0.8869 -0.7827
 5877TIP3    H139266   4.984   3.286   0.607 -1.7875 -0.5500 -0.8105
 5877TIP3    H239267   4.917   3.413   0.655  0.7020  0.4958  0.0607
 5878TIP3   OH239268   1.978   6.445   0.221  0.0886  0.3630 -0.2169
 5878TIP3    H139269   1.906   6.396   0.262 -2.6023  1.6383 -2.9918
 5878TIP3    H239270   1.949   6.537   0.225  2.7379  1.2538  0.5927
 5879TIP3   OH239271   0.806   0.001   2.757  0.0482  0.2001  0.2974
 5879TIP3    H139272   0.812   0.052   2.837 -0.6931  1.2634 -0.2958
 5879TIP3    H239273   0.887  -0.050   2.754  0.3688  0.6342  1.3862
 5880TIP3   OH239274   2.932   0.407   3.053  0.2830 -0.0176  0.0967
 5880TIP3    H139275   3.018   0.372   3.028 -0.0176 -0.2009 -0.6873
 5880TIP3    H239276   2.952   0.466   3.126  0.9531 -0.8233  0.5933
 5881TIP3   OH239277   3.435   4.717   1.330 -0.3921 -0.3001  0.1557
 5881TIP3    H139278   3.494   4.687   1.400  1.5915  1.0276 -0.8492
 5881TIP3    H239279   3.406   4.803   1.359 -0.1257 -0.0474 -0.3178
 5882TIP3   OH239280   3.186   1.549   0.874 -0.1353 -0.2525  0.6633
 5882TIP3    H139281   3.158   1.579   0.788  2.0500 -2.4202 -0.9298
 5882TIP3    H239282   3.106   1.515   0.915 -1.2141  0.8268 -0.4798
 5883TIP3   OH239283   6.286   2.503   7.501  0.5857  0.0983  0.3288
 5883TIP3    H139284   6.349   2.550   7.447  1.5269  0.4774  1.7135
 5883TIP3    H239285   6.214   2.564   7.514 -0.6794 -0.7168 -2.1894
 5884TIP3   OH239286   4.639   2.518   8.436 -0.1610 -0.8544  0.6085
 5884TIP3    H139287   4.677   2.469   8.363  0.5535  0.6076 -0.0398
 5884TIP3    H239288   4.628   2.607   8.402  0.9227  0.0725  2.5181
 5885TIP3   OH239289   5.377   0.454   1.538 -0.7268 -0.1431 -0.4114
 5885TIP3    H139290   5.322   0.453   1.460  0.9876 -1.1320 -1.6806
 5885TIP3    H239291   5.360   0.540   1.578  0.2740  1.5661 -3.3268
 5886TIP3   OH239292   0.583   4.354   8.046  0.2073 -0.1718  0.1098
 5886TIP3    H139293   0.528   4.418   8.092  2.3151  0.1858  2.4015
 5886TIP3    H239294   0.579   4.275   8.101  2.4267  0.1044  0.8073
 5887TIP3   OH239295   0.987   4.965   2.208  0.0631 -0.0693  0.1910
 5887TIP3    H139296   1.073   5.002   2.186  0.7020 -0.6520  1.6023
 5887TIP3    H239297   0.925   5.020   2.161  1.1903  0.5369 -0.6484
 5888TIP3   OH239298   2.706   0.015   0.415  0.3053 -0.3291 -0.4601
 5888TIP3    H139299   2.716   0.028   0.509 -0.2657  0.0368 -0.4491
 5888TIP3    H239300   2.759   0.084   0.376 -0.1024  0.0178 -0.4043
 5889TIP3   OH239301   3.406   2.964   8.360 -0.2300  0.0165 -0.3614
 5889TIP3    H139302   3.494   2.989   8.390 -0.4712  0.9932 -0.4326
 5889TIP3    H239303   3.418   2.879   8.317  0.7635  0.3705 -0.8082
 5890TIP3   OH239304   4.799   1.667   0.960 -0.0576  0.1085  0.7043
 5890TIP3    H139305   4.771   1.739   0.903  0.4580 -1.0082 -1.0614
 5890TIP3    H239306   4.721   1.614   0.971  0.0421 -0.1348  0.2811
 5891TIP3   OH239307   0.836   0.159   0.047  0.2823  0.1802 -0.0243
 5891TIP3    H139308   0.928   0.185   0.037  0.9526 -2.4623 -2.0389
 5891TIP3    H239309   0.786   0.238   0.025  2.0676  1.2879 -0.3591
 5892TIP3   OH239310   4.861   3.305   8.388 -0.5542  0.6593 -0.3595
 5892TIP3    H139311   4.892   3.377   8.444  0.7241 -0.8284  0.9211
 5892TIP3    H239312   4.904   3.321   8.303  0.9973  0.5666  0.3799
 5893TIP3   OH239313   2.119   1.398   8.622 -0.3582 -0.1540  0.4234
 5893TIP3    H139314   2.073   1.390   8.705 -2.3776  0.8144 -0.5334
 5893TIP3    H239315   2.050   1.400   8.556  1.0617  1.1895 -1.1229
 5894TIP3   OH239316   4.199   5.890   2.724 -0.0267  0.1285 -0.2237
 5894TIP3    H139317   4.256   5.943   2.779 -0.9214  0.6684  0.2177
 5894TIP3    H239318   4.137   5.952   2.687  0.6749 -0.1906 -2.0401
 5895TIP3   OH239319   0.458   5.942   2.694  0.4199  1.0208 -0.1751
 5895TIP3    H139320   0.389   6.002   2.722  2.0721  1.9986  2.1483
 5895TIP3    H239321   0.489   5.901   2.775  0.9116 -1.2966 -1.4400
 5896TIP3   OH239322   1.252   0.163   2.930 -0.1199  0.3266 -0.1846
 5896TIP3    H139323   1.196   0.088   2.951  1.7949 -1.3309 -0.6107
 5896TIP3    H239324   1.273   0.151   2.837  0.3789  1.2839 -0.1996
 5897TIP3   OH239325   4.395   5.389   2.714  0.2133 -0.0376  0.4982
 5897TIP3    H139326   4.374   5.481   2.697  1.2869  0.2359  0.5520
 5897TIP3    H239327   4.478   5.375   2.668  0.3686 -0.8128  1.0045
 5898TIP3   OH239328   6.369   3.342   1.267  1.0578 -0.1393  0.3351
 5898TIP3    H139329   6.361   3.247   1.258  0.5786 -0.0378 -0.3889
 5898TIP3    H239330   6.337   3.361   1.355  0.0160 -0.5271  0.0501
 5899TIP3   OH239331   5.849   0.700   8.608  0.5549  0.6175  0.3434
 5899TIP3    H139332   5.906   0.720   8.682  0.3873  1.3562  0.2757
 5899TIP3    H239333   5.869   0.768   8.543 -0.5053  0.9725  0.3778
 5900TIP3   OH239334   5.682   3.815   0.221  0.0574  0.0263  0.4640
 5900TIP3    H139335   5.646   3.795   0.308  0.2290 -1.1433  0.2846
 5900TIP3    H239336   5.747   3.884   0.237 -0.3214  0.2280  1.1714
 5901TIP3   OH239337   6.596   6.322   7.502 -0.6826 -0.2093 -0.0831
 5901TIP3    H139338   6.554   6.296   7.584 -0.7560 -1.0000 -0.3643
 5901TIP3    H239339   6.613   6.239   7.456 -0.5779  0.2185 -0.8321
 5902TIP3   OH239340   3.811   2.511   7.630 -0.8370 -0.1419 -0.0976
 5902TIP3    H139341   3.737   2.502   7.689  0.2101  1.4199  1.5612
 5902TIP3    H239342   3.840   2.421   7.614 -0.8097 -0.6148  2.2630
 5903TIP3   OH239343   0.290   5.158   3.110 -0.2575 -0.0216  0.1265
 5903TIP3    H139344   0.311   5.135   3.019 -0.4668  0.1343  0.0386
 5903TIP3    H239345   0.289   5.254   3.111 -2.9676  0.0286 -0.3533
 5904TIP3   OH239346   5.812   6.026   0.773 -0.1332 -0.2317  0.0480
 5904TIP3    H139347   5.812   5.941   0.729  1.7908  0.8724 -2.2584
 5904TIP3    H239348   5.766   6.084   0.713 -0.7484  0.5758  1.2484
 5905TIP3   OH239349   6.428   3.062   8.097 -0.0316 -0.2234  0.3340
 5905TIP3    H139350   6.454   3.088   8.009  0.1262  0.2129  0.5039
 5905TIP3    H239351   6.502   3.010   8.129  0.9801  1.5729  1.0612
 5906TIP3   OH239352   4.349   3.217   8.822 -0.1851  0.1814 -0.5307
 5906TIP3    H139353   4.400   3.136   8.822 -0.1539  0.1981  0.1214
 5906TIP3    H239354   4.412   3.285   8.796 -0.3596 -0.0784 -1.7236
 5907TIP3   OH239355   1.488   5.505   8.337 -0.7360 -0.2369 -0.1681
 5907TIP3    H139356   1.475   5.413   8.314 -0.3632  0.0632 -1.7164
 5907TIP3    H239357   1.408   5.548   8.309  0.3679  0.4039 -2.6559
 5908TIP3   OH239358   4.550   4.901   8.555 -0.0095  0.0393 -0.0273
 5908TIP3    H139359   4.639   4.888   8.589  0.0416  1.1443  0.3026
 5908TIP3    H239360   4.563   4.931   8.465 -0.0671 -0.2084 -0.1189
 5909TIP3   OH239361   1.000   3.833   1.972  0.1580  0.7744  0.1908
 5909TIP3    H139362   1.093   3.845   1.952  0.0262 -0.5857 -1.4283
 5909TIP3    H239363   0.969   3.768   1.908 -1.2406 -0.9923  2.4855
 5910TIP3   OH239364   2.897   5.976   1.634 -0.5031 -0.6916  0.7529
 5910TIP3    H139365   2.846   5.923   1.572  0.0889  1.4857 -1.7884
 5910TIP3    H239366   2.831   6.025   1.683 -0.9441 -0.5536  0.0310
 5911TIP3   OH239367   5.929   4.927   7.797  0.1318  0.6342  0.6470
 5911TIP3    H139368   5.975   4.852   7.760 -0.3206  0.5461  0.2467
 5911TIP3    H239369   5.970   4.941   7.882  0.7070  0.3863  0.4178
 5912TIP3   OH239370   4.512   6.797   8.246  0.4365  0.4111  0.8333
 5912TIP3    H139371   4.449   6.731   8.220  0.5656  1.1189 -1.4485
 5912TIP3    H239372   4.461   6.863   8.292 -0.3163  0.4841 -0.0953
 5913TIP3   OH239373   0.881   5.337   2.074 -0.2166  0.0269  0.4705
 5913TIP3    H139374   0.880   5.242   2.062 -0.6242 -0.1235  1.6282
 5913TIP3    H239375   0.904   5.372   1.987 -0.7258 -1.0892 -0.1242
 5914TIP3   OH239376   4.857   2.734   3.357 -0.2930  0.3244 -0.5348
 5914TIP3    H139377   4.950   2.758   3.356  0.2700 -0.6928  4.3664
 5914TIP3    H239378   4.854   2.650   3.311  1.4638 -0.1926  0.2139
 5915TIP3   OH239379   2.037   6.436   2.916  0.3461 -0.0008 -0.1586
 5915TIP3    H139380   1.968   6.398   2.969 -0.6449 -0.1732 -1.5126
 5915TIP3    H239381   2.016   6.529   2.911  1.2106  0.2780  0.8395
 5916TIP3   OH239382   0.374   3.740   2.569  0.2369 -0.0921 -0.4969
 5916TIP3    H139383   0.316   3.809   2.538 -0.5075 -0.7231 -0.5478
 5916TIP3    H239384   0.446   3.786   2.612 -2.1535  0.7555  3.0560
 5917TIP3   OH239385   6.822   2.970   0.793  0.3316  0.2984 -0.2270
 5917TIP3    H139386   6.914   2.954   0.773  1.4048  1.2739  3.1241
 5917TIP3    H239387   6.793   2.891   0.838 -0.0751  0.4810 -0.1640
 5918TIP3   OH239388   2.977   6.817   1.966 -0.4881  0.1970  0.2074
 5918TIP3    H139389   3.047   6.753   1.980  0.6692  1.6126  1.2902
 5918TIP3    H239390   2.900   6.779   2.008  0.5165  0.0720  2.0278
 5919TIP3   OH239391   6.032   6.566   0.553  0.5285 -0.1085 -0.6538
 5919TIP3    H139392   6.037   6.554   0.458  1.5636 -1.5420 -0.4446
 5919TIP3    H239393   6.105   6.515   0.588 -1.4735 -2.0032  1.0931
 5920TIP3   OH239394   5.416   4.351   1.381  0.1792 -0.0873 -0.2592
 5920TIP3    H139395   5.494   4.390   1.341 -0.4839  0.3254 -1.2012
 5920TIP3    H239396   5.350   4.419   1.374 -0.1069 -0.1996  1.1170
 5921TIP3   OH239397   3.797   1.990   2.512 -0.2381 -0.2246  0.0213
 5921TIP3    H139398   3.797   1.956   2.602 -0.8934  1.8397  0.8642
 5921TIP3    H239399   3.889   1.995   2.488 -0.0836 -1.5349  0.2544
 5922TIP3   OH239400   2.750   5.321   8.398  0.6349 -0.3264  0.5987
 5922TIP3    H139401   2.773   5.412   8.415 -0.0386  0.0336 -0.3795
 5922TIP3    H239402   2.752   5.312   8.303  2.1020 -1.7153  0.6959
 5923TIP3   OH239403   3.585   1.383   3.537 -0.5436  0.0917 -0.2789
 5923TIP3    H139404   3.581   1.385   3.441 -1.5588 -0.5144 -0.2637
 5923TIP3    H239405   3.495   1.365   3.564 -0.2399  0.1358  0.7900
 5924TIP3   OH239406   0.270   2.924   0.647 -0.1853  0.1930  0.3924
 5924TIP3    H139407   0.227   2.981   0.583  0.0926 -0.3673 -0.3058
 5924TIP3    H239408   0.273   2.976   0.727  1.2430  1.6819 -0.5658
 5925TIP3   OH239409   1.926   3.100   2.428  0.6722  0.3663 -0.6079
 5925TIP3    H139410   1.931   3.019   2.478  0.0671  1.2466  0.9474
 5925TIP3    H239411   1.834   3.109   2.406  0.3514  1.6271  1.0381
 5926TIP3   OH239412   2.734   5.312   0.284 -0.0038  0.5719  0.4337
 5926TIP3    H139413   2.777   5.319   0.198  0.6606 -0.0885  0.6962
 5926TIP3    H239414   2.645   5.284   0.264  0.0066  0.8853 -0.0698
 5927TIP3   OH239415   5.626   2.694   2.191  0.0137 -0.3623  0.1045
 5927TIP3    H139416   5.662   2.686   2.280  1.3263  3.1329  0.0431
 5927TIP3    H239417   5.570   2.772   2.194 -0.0686 -0.2677 -2.0785
 5928TIP3   OH239418   2.794   3.086   8.050 -0.4435 -0.1895 -0.2144
 5928TIP3    H139419   2.761   3.002   8.082  0.5922 -0.9920 -1.1819
 5928TIP3    H239420   2.881   3.066   8.017 -0.4861  1.1186 -1.1758
 5929TIP3   OH239421   2.366   5.898   0.692 -0.0845  0.5519 -0.2510
 5929TIP3    H139422   2.301   5.943   0.746 -0.5093 -1.8462  1.3808
 5929TIP3    H239423   2.450   5.922   0.731 -0.2446  0.6037  0.0663
 5930TIP3   OH239424   1.416   6.311   8.212  0.7660 -0.4618 -0.2057
 5930TIP3    H139425   1.382   6.234   8.257  1.9102 -0.5764  0.5000
 5930TIP3    H239426   1.471   6.355   8.277  0.0862  0.9972 -0.5647
 5931TIP3   OH239427   6.178   0.251   1.185 -0.1555  0.6572 -0.0745
 5931TIP3    H139428   6.180   0.242   1.089 -0.2147 -1.5557  0.0830
 5931TIP3    H239429   6.229   0.177   1.217 -1.6034  0.3566  1.6617
 5932TIP3   OH239430   3.388   3.482   7.427  0.3644  0.1002 -0.2026
 5932TIP3    H139431   3.408   3.510   7.337  0.7628  1.1839  0.2163
 5932TIP3    H239432   3.392   3.386   7.423  0.6478  0.1400 -1.2758
 5933TIP3   OH239433   2.109   6.434   0.938  0.0432 -0.7631 -0.2724
 5933TIP3    H139434   2.115   6.346   0.899  1.8764 -0.8462  0.1334
 5933TIP3    H239435   2.185   6.481   0.903 -0.5277  0.4553  0.0693
 5934TIP3   OH239436   6.630   5.042   7.948 -0.0283  0.1456  0.3137
 5934TIP3    H139437   6.632   5.035   7.852  0.4288  2.5669  0.0748
 5934TIP3    H239438   6.537   5.057   7.969 -0.1276 -0.3792  0.2651
 5935TIP3   OH239439   0.786   0.852   2.296 -0.2636  0.5414  0.5035
 5935TIP3    H139440   0.810   0.796   2.222 -0.0800  2.0189 -0.6045
 5935TIP3    H239441   0.705   0.815   2.330 -0.4725 -0.0443 -0.5907
 5936TIP3   OH239442   4.403   0.135   7.673  0.4198 -0.5544  0.1131
 5936TIP3    H139443   4.444   0.185   7.603 -2.0418  0.6715 -0.5359
 5936TIP3    H239444   4.344   0.196   7.716 -1.3459 -2.3902  0.4739
 5937TIP3   OH239445   6.226   4.456   8.658 -0.3011 -0.3675 -0.2155
 5937TIP3    H139446   6.141   4.443   8.616 -0.9428  0.0949  0.9191
 5937TIP3    H239447   6.274   4.375   8.639 -1.8909 -1.7142  1.2223
 5938TIP3   OH239448   4.764   3.067   8.684  0.3419 -1.3747 -0.2539
 5938TIP3    H139449   4.850   3.074   8.727  0.2022 -0.3543 -0.1184
 5938TIP3    H239450   4.716   3.144   8.713 -1.1514 -2.6215  0.7922
 5939TIP3   OH239451   4.792   6.802   2.496  0.2317  0.3460 -0.0742
 5939TIP3    H139452   4.800   6.728   2.556 -2.1100  0.7156  0.8173
 5939TIP3    H239453   4.824   6.877   2.546  0.9131  0.2270 -0.3244
 5940TIP3   OH239454   5.736   0.882   1.958  0.5356 -0.2891  0.1325
 5940TIP3    H139455   5.757   0.875   1.865  0.3046 -0.7004  0.1066
 5940TIP3    H239456   5.703   0.972   1.968  0.7553 -0.1752 -0.1390
 5941TIP3   OH239457   3.485   5.664   2.914 -0.1258  0.5378 -0.1413
 5941TIP3    H139458   3.533   5.745   2.932 -0.5971  0.5900  0.9719
 5941TIP3    H239459   3.444   5.642   2.998 -0.3575 -0.6189 -0.5450
 5942TIP3   OH239460   3.897   2.102   7.246  0.3318 -0.1524 -0.0208
 5942TIP3    H139461   3.958   2.048   7.297 -0.5479 -0.4328  0.7669
 5942TIP3    H239462   3.837   2.039   7.207  0.2007  0.1615 -0.3244
 5943TIP3   OH239463   3.284   3.879   0.294  0.1246 -0.3758 -0.2393
 5943TIP3    H139464   3.254   3.796   0.257 -0.7954  0.9663 -2.6758
 5943TIP3    H239465   3.204   3.927   0.314  0.6532  0.4514 -0.0551
 5944TIP3   OH239466   6.072   2.878   2.020  0.1078  0.0165  0.3615
 5944TIP3    H139467   6.090   2.870   1.926 -0.5953  1.0028  0.1335
 5944TIP3    H239468   5.995   2.823   2.034  0.0746  0.0544  0.3263
 5945TIP3   OH239469   6.257   5.900   2.219  0.3885 -0.0653 -0.6042
 5945TIP3    H139470   6.300   5.982   2.194  1.2193  0.4225  2.0817
 5945TIP3    H239471   6.324   5.833   2.209  0.4119 -0.0425 -0.5999
 5946TIP3   OH239472   2.309   0.698   0.610 -0.4257  0.7980 -0.4355
 5946TIP3    H139473   2.302   0.787   0.645 -0.9523  0.8432 -0.6385
 5946TIP3    H239474   2.361   0.651   0.674 -2.6227  0.4711  1.2237
 5947TIP3   OH239475   1.166   2.867   8.083 -0.0102 -0.1105  0.0796
 5947TIP3    H139476   1.212   2.911   8.154 -1.5096  1.0327  0.3992
 5947TIP3    H239477   1.142   2.782   8.118 -2.1659  1.0372  1.6114
 5948TIP3   OH239478   0.748   6.119   8.044 -0.7704 -0.2727  0.4010
 5948TIP3    H139479   0.783   6.161   7.965 -0.3656  1.4393  1.4585
 5948TIP3    H239480   0.754   6.025   8.025  1.6534  0.0098 -0.6422
 5949TIP3   OH239481   0.978   3.266   0.644 -0.2089  0.6393 -0.1057
 5949TIP3    H139482   0.973   3.201   0.715  1.5612  0.7547  0.1720
 5949TIP3    H239483   0.890   3.305   0.642 -1.3183 -1.6660 -0.2224
 5950TIP3   OH239484   6.006   0.441   2.061  0.4210  0.7117 -0.6073
 5950TIP3    H139485   5.934   0.503   2.054 -1.5366 -1.3432  0.1173
 5950TIP3    H239486   6.005   0.412   2.152  1.4099 -0.2100 -0.8602
 5951TIP3   OH239487   2.524   2.242   7.801  0.6846 -0.4121  0.1920
 5951TIP3    H139488   2.603   2.237   7.747  0.1646 -0.0212 -0.6349
 5951TIP3    H239489   2.489   2.329   7.784  0.1268 -0.5431  0.6302
 5952TIP3   OH239490   1.409   1.316   8.052 -0.7004 -0.6180 -0.2452
 5952TIP3    H139491   1.330   1.310   8.106 -0.9671  1.4346 -0.3234
 5952TIP3    H239492   1.376   1.339   7.965 -0.0478 -0.1169 -0.3658
 5953TIP3   OH239493   2.444   6.152   7.942 -0.2095  0.4578 -0.2197
 5953TIP3    H139494   2.385   6.158   7.866 -0.4114 -0.7323 -0.1858
 5953TIP3    H239495   2.471   6.060   7.943 -0.6940  0.3088  1.5098
 5954TIP3   OH239496   2.492   6.349   8.597  0.3013 -0.2707 -0.1831
 5954TIP3    H139497   2.568   6.304   8.634 -0.2959 -1.2831 -0.1550
 5954TIP3    H239498   2.530   6.412   8.536  1.2420  0.5902  1.2353
 5955TIP3   OH239499   6.298   1.466   7.862  0.4416 -0.4519  0.1297
 5955TIP3    H139500   6.226   1.447   7.801 -2.0023  2.0496  1.9596
 5955TIP3    H239501   6.359   1.519   7.812  0.2802 -1.3330 -1.0561
 5956TIP3   OH239502   3.511   6.587   1.853  0.5506 -0.5645 -0.2205
 5956TIP3    H139503   3.586   6.528   1.843  1.7583  1.0298 -1.1110
 5956TIP3    H239504   3.546   6.661   1.903  0.7867  2.0519 -3.8800
 5957TIP3   OH239505   0.931   6.234   2.387 -0.2409  0.1407 -0.3205
 5957TIP3    H139506   0.919   6.250   2.293 -1.7832 -0.5166 -0.2644
 5957TIP3    H239507   0.982   6.153   2.392  1.9611  1.4374 -0.5637
 5958TIP3   OH239508   0.875   1.750   0.679  0.1399 -0.0104 -0.0705
 5958TIP3    H139509   0.854   1.657   0.676  0.1830 -0.0700  0.8997
 5958TIP3    H239510   0.792   1.792   0.700  0.5217 -0.0494  1.6700
 5959TIP3   OH239511   1.724   3.523   8.765  0.3460  0.2362  0.5651
 5959TIP3    H139512   1.794   3.587   8.780 -1.9724  3.7294 -2.1181
 5959TIP3    H239513   1.758   3.468   8.694  0.9318  0.8879  0.3266
 5960TIP3   OH239514   5.676   2.797   3.513 -0.6495  0.5101  0.0137
 5960TIP3    H139515   5.707   2.795   3.422  0.1030 -0.2446  0.2788
 5960TIP3    H239516   5.681   2.706   3.542 -2.7547  0.3949  0.2026
 5961TIP3   OH239517   2.602   6.339   1.876 -1.0315 -0.3936  0.5164
 5961TIP3    H139518   2.544   6.289   1.933  0.0342 -0.5906  1.4667
 5961TIP3    H239519   2.686   6.341   1.923 -0.4653  0.4805 -0.4869
 5962TIP3   OH239520   4.804   5.677   7.602  0.2932 -0.1527  0.7113
 5962TIP3    H139521   4.758   5.754   7.569  0.7762  0.2056  0.8586
 5962TIP3    H239522   4.755   5.603   7.567 -2.7334  0.0801  3.9219
 5963TIP3   OH239523   4.353   3.931   0.988  0.3619 -0.1660 -0.1265
 5963TIP3    H139524   4.444   3.951   1.010 -0.1401  0.4309  1.6241
 5963TIP3    H239525   4.321   3.883   1.065 -1.3458  1.4231  0.2240
 5964TIP3   OH239526   5.612   1.976   0.324  0.1858  0.0930  0.2596
 5964TIP3    H139527   5.664   2.003   0.400 -0.7671  0.3560  0.8377
 5964TIP3    H239528   5.673   1.980   0.250  0.9862  0.3606  0.9180
 5965TIP3   OH239529   5.727   6.084   1.016 -0.5129 -0.3577 -0.2081
 5965TIP3    H139530   5.756   6.064   0.927  0.8692  1.0890 -0.1216
 5965TIP3    H239531   5.804   6.066   1.070 -0.9318  0.0422  0.5263
 5966TIP3   OH239532   3.140   4.870   7.521 -0.4077 -0.0795  0.4276
 5966TIP3    H139533   3.123   4.856   7.614  0.9848  0.2224  0.7477
 5966TIP3    H239534   3.226   4.911   7.518 -0.5824  0.2453 -0.9827
 5967TIP3   OH239535   3.671   1.564   3.168 -0.5177 -0.3213 -0.0012
 5967TIP3    H139536   3.585   1.583   3.204 -0.5046 -1.4165  0.6629
 5967TIP3    H239537   3.696   1.644   3.121 -1.5551  0.2804  0.4386
 5968TIP3   OH239538   5.959   5.486   1.269  0.0573 -0.0803 -0.4794
 5968TIP3    H139539   5.916   5.402   1.254  0.7690 -0.4792 -0.3459
 5968TIP3    H239540   5.929   5.513   1.356 -0.0567 -0.2723 -0.4586
 5969TIP3   OH239541   6.196   4.592   2.179  0.4820 -0.2624  0.5484
 5969TIP3    H139542   6.234   4.679   2.191 -0.4339  0.6088 -2.1372
 5969TIP3    H239543   6.230   4.562   2.094 -1.0975 -1.4675  0.2908
 5970TIP3   OH239544   2.686   1.427   0.089  0.0582  0.6142  0.5668
 5970TIP3    H139545   2.704   1.504   0.035 -1.4001  0.0129 -0.8480
 5970TIP3    H239546   2.591   1.426   0.099 -0.4950 -2.9134 -2.6045
 5971TIP3   OH239547   5.084   5.757   3.329 -0.1416  0.2594  0.0084
 5971TIP3    H139548   5.094   5.664   3.312 -1.0163 -0.3649  2.4569
 5971TIP3    H239549   5.162   5.797   3.290  0.9604 -1.6665  0.1081
 5972TIP3   OH239550   3.942   6.565   1.547  0.2249  0.1582  0.1663
 5972TIP3    H139551   3.847   6.576   1.555  0.3625  0.2456  2.5428
 5972TIP3    H239552   3.961   6.586   1.456 -1.9946  0.4018 -0.3083
 5973TIP3   OH239553   4.230   4.718   1.447  0.1653 -0.0219 -0.0785
 5973TIP3    H139554   4.291   4.678   1.384  1.8143 -0.0680  1.4635
 5973TIP3    H239555   4.237   4.812   1.431 -0.2331 -0.0940 -0.6754
 5974TIP3   OH239556   4.751   1.011   1.246 -0.8589  0.7001  0.3356
 5974TIP3    H139557   4.777   1.054   1.164  1.1961  1.0639  1.1072
 5974TIP3    H239558   4.793   0.925   1.242 -0.4913  0.8318  1.1009
 5975TIP3   OH239559   1.781   5.818   7.770 -0.1448  0.0535 -0.0607
 5975TIP3    H139560   1.738   5.828   7.855 -1.1132  0.4467 -0.5839
 5975TIP3    H239561   1.710   5.804   7.708  0.5987 -0.9739 -0.7189
 5976TIP3   OH239562   1.233   2.178   2.688  0.1990  0.2972 -0.3548
 5976TIP3    H139563   1.174   2.108   2.717  0.1725  1.0428  1.5503
 5976TIP3    H239564   1.305   2.175   2.751  0.5225  1.5436 -0.6486
 5977TIP3   OH239565   1.056   4.917   7.548 -0.1040 -0.2336  0.4939
 5977TIP3    H139566   1.147   4.908   7.520  0.2443  0.2963  1.3868
 5977TIP3    H239567   1.027   5.000   7.510 -0.5329 -0.8592 -0.5794
 5978TIP3   OH239568   2.972   3.567   7.280 -0.2831  0.0018 -0.6989
 5978TIP3    H139569   3.042   3.632   7.271  0.2168 -0.7200 -2.3905
 5978TIP3    H239570   3.018   3.484   7.293 -0.6431 -0.8502 -4.0719
 5979TIP3   OH239571   6.282   3.183   0.565  1.1536  0.0750  0.5908
 5979TIP3    H139572   6.366   3.147   0.593  1.2928  0.6968  1.0049
 5979TIP3    H239573   6.296   3.278   0.567  0.4529  0.1772  0.6250
 5980TIP3   OH239574   2.612   0.969   2.032 -0.4744 -0.0616  0.3630
 5980TIP3    H139575   2.598   1.019   2.112 -1.9201 -0.8192  0.6198
 5980TIP3    H239576   2.543   0.903   2.032  1.1183 -1.8222 -0.1596
 5981TIP3   OH239577   3.499   2.781   1.586  0.2314  0.1811 -0.8430
 5981TIP3    H139578   3.424   2.749   1.636  0.6120 -1.1130 -1.0605
 5981TIP3    H239579   3.539   2.848   1.642 -1.3815  1.3100 -0.9683
 5982TIP3   OH239580   3.334   0.340   8.797 -0.1072  0.3486 -0.4986
 5982TIP3    H139581   3.298   0.335   8.709 -1.2831  0.0729 -0.0216
 5982TIP3    H239582   3.367   0.252   8.815 -0.8800  0.0959 -0.2646
 5983TIP3   OH239583   3.697   5.034   2.639 -0.0452  0.2841  0.3283
 5983TIP3    H139584   3.687   5.035   2.734  1.0610  0.5016  0.4547
 5983TIP3    H239585   3.792   5.027   2.624 -0.2309 -0.1639 -0.7578
 5984TIP3   OH239586   5.662   3.060   8.801 -0.2339 -0.3453 -0.5550
 5984TIP3    H139587   5.610   3.053   8.881 -0.9203  1.9671 -0.7261
 5984TIP3    H239588   5.685   3.153   8.795  0.3663 -0.5734 -2.6995
 5985TIP3   OH239589   4.025   3.340   7.778 -0.2213 -0.2949 -0.1766
 5985TIP3    H139590   3.966   3.405   7.816 -0.8462 -1.3457  0.7111
 5985TIP3    H239591   3.967   3.277   7.734  0.3527 -0.3735 -0.8374
 5986TIP3   OH239592   4.792   3.008   3.583 -0.1203  0.3568  0.1808
 5986TIP3    H139593   4.859   2.994   3.516 -0.0931 -1.9808  0.6368
 5986TIP3    H239594   4.836   3.061   3.650  1.2939 -1.0354  0.4239
 5987TIP3   OH239595   4.606   2.347   2.023  0.5429  0.6241  0.0601
 5987TIP3    H139596   4.520   2.387   2.010  0.2314  0.2534  0.9131
 5987TIP3    H239597   4.592   2.254   2.009  1.4912  0.8271 -3.0030
 5988TIP3   OH239598   6.074   0.928   2.555  0.6378 -0.1721  0.0071
 5988TIP3    H139599   6.127   0.946   2.633 -0.6980  0.5844  0.7667
 5988TIP3    H239600   6.035   0.843   2.572 -1.4104  0.9495  1.2142
 5989TIP3   OH239601   4.328   4.615   1.213 -0.4582 -0.5058  0.0442
 5989TIP3    H139602   4.252   4.585   1.163 -0.4173  0.8139 -0.8923
 5989TIP3    H239603   4.400   4.558   1.185 -0.4593  0.1453 -1.4046
 5990TIP3   OH239604   5.399   3.725   0.487  0.0905  0.0763 -0.7743
 5990TIP3    H139605   5.317   3.774   0.478  0.3438  0.9264  1.0630
 5990TIP3    H239606   5.463   3.790   0.516  0.9262 -0.9566 -0.2345
 5991TIP3   OH239607   6.173   3.454   1.959 -0.4524 -0.1736  0.3817
 5991TIP3    H139608   6.184   3.547   1.979  0.6079 -0.3861  0.8854
 5991TIP3    H239609   6.256   3.414   1.986 -0.5136 -1.1141 -0.7349
 5992TIP3   OH239610   5.237   4.722   2.212  0.4204  0.3120 -0.4034
 5992TIP3    H139611   5.272   4.795   2.263 -0.9146  0.1126  0.8760
 5992TIP3    H239612   5.181   4.763   2.147 -1.3056  0.4636  1.0855
 5993TIP3   OH239613   5.273   1.729   0.818 -0.0951 -0.4009 -0.1091
 5993TIP3    H139614   5.331   1.684   0.880  0.1324  1.7022  1.3150
 5993TIP3    H239615   5.332   1.779   0.762 -0.3194 -2.0796 -1.9654
 5994TIP3   OH239616   5.657   1.189   2.197 -0.2176  0.4413 -0.4882
 5994TIP3    H139617   5.728   1.146   2.245 -1.8521 -1.1305  0.7149
 5994TIP3    H239618   5.659   1.280   2.226  1.6988  0.6043 -1.0293
 5995TIP3   OH239619   0.494   2.575   2.460  0.6802 -0.1653  0.0338
 5995TIP3    H139620   0.399   2.568   2.447  0.8387 -1.4572 -0.5262
 5995TIP3    H239621   0.504   2.584   2.555  0.0426 -1.0372  0.1985
 5996TIP3   OH239622   2.371   1.287   8.578 -0.8679  0.6575  0.7364
 5996TIP3    H139623   2.317   1.210   8.593 -1.3598  1.1445  1.5401
 5996TIP3    H239624   2.313   1.361   8.596 -0.4510  1.2316 -0.1846
 5997TIP3   OH239625   0.132   3.340   2.692  0.0599 -0.2344  0.3407
 5997TIP3    H139626   0.192   3.314   2.623 -1.1823 -0.9305 -0.5047
 5997TIP3    H239627   0.144   3.274   2.760 -0.6717 -1.1165 -0.3755
 5998TIP3   OH239628   0.908   5.960   1.001 -0.0466  0.6809  0.4834
 5998TIP3    H139629   0.850   5.908   0.946 -0.4279 -0.1374  1.6177
 5998TIP3    H239630   0.869   6.047   1.003 -0.5562  0.4623  0.2303
 5999TIP3   OH239631   2.468   0.751   1.234  0.2872 -0.3045 -0.6903
 5999TIP3    H139632   2.540   0.802   1.197  0.3004  0.1878 -0.0142
 5999TIP3    H239633   2.447   0.796   1.316  0.6351 -1.6703  0.1778
 6000TIP3   OH239634   6.406   4.426   2.990 -0.4601 -0.0290  0.0628
 6000TIP3    H139635   6.322   4.467   3.008 -0.9430 -0.5477 -0.9401
 6000TIP3    H239636   6.444   4.479   2.919  0.9867  1.4224  1.8133
 6001TIP3   OH239637   3.390   6.682   1.227  0.1036 -0.5212  0.5670
 6001TIP3    H139638   3.403   6.663   1.320 -0.6930  0.8630  1.0081
 6001TIP3    H239639   3.314   6.629   1.202  0.3141 -0.8881  0.6977
 6002TIP3   OH239640   6.052   4.106   8.131  0.1337  0.0561 -0.0637
 6002TIP3    H139641   5.959   4.084   8.125  0.1128  0.3408 -0.8543
 6002TIP3    H239642   6.057   4.197   8.102  0.8329 -0.3832 -1.3911
 6003TIP3   OH239643   1.089   0.571   2.330 -0.4829  0.2960  0.8735
 6003TIP3    H139644   1.020   0.568   2.396 -0.3044 -1.0447  1.0198
 6003TIP3    H239645   1.156   0.510   2.362  0.2047  0.6345  0.1153
 6004TIP3   OH239646   5.587   0.155   1.002 -0.3367 -0.0921  0.4679
 6004TIP3    H139647   5.592   0.193   1.090  0.0892  0.1613  0.3376
 6004TIP3    H239648   5.667   0.185   0.959 -1.9894  2.4425 -1.0467
 6005TIP3   OH239649   0.494   6.151   0.983  0.0730 -0.6518 -0.1078
 6005TIP3    H139650   0.402   6.162   0.958  0.5899 -2.9843 -3.7723
 6005TIP3    H239651   0.541   6.218   0.934  0.5880 -1.5231 -0.8372
 6006TIP3   OH239652   6.736   6.723   1.365 -0.0705  0.5026 -0.0515
 6006TIP3    H139653   6.729   6.640   1.318  0.2524  0.9683 -0.9454
 6006TIP3    H239654   6.650   6.736   1.405 -0.1974 -0.1315 -0.1116
 6007TIP3   OH239655   5.114   2.945   0.508 -0.2763  0.3534  0.0173
 6007TIP3    H139656   5.153   3.032   0.512 -1.7136  0.9957  1.5789
 6007TIP3    H239657   5.024   2.958   0.539 -0.0586 -1.9318  1.8906
 6008TIP3   OH239658   4.632   3.921   8.165  0.1643 -0.3691  0.4349
 6008TIP3    H139659   4.608   3.847   8.109 -0.6134 -1.0753  1.6693
 6008TIP3    H239660   4.711   3.957   8.124 -0.0901 -1.1737 -0.8190
 6009TIP3   OH239661   0.382   2.301   2.636 -0.6278  0.3459  0.3254
 6009TIP3    H139662   0.305   2.354   2.618 -1.3469 -0.9581 -0.5998
 6009TIP3    H239663   0.363   2.217   2.595  1.3765  0.0545 -0.0932
 6010TIP3   OH239664   0.438   3.619   0.227 -0.0985 -0.1612 -0.1456
 6010TIP3    H139665   0.431   3.661   0.313  0.2436  0.1686 -0.2764
 6010TIP3    H239666   0.351   3.581   0.212 -1.4346  3.0547 -1.3579
 6011TIP3   OH239667   2.639   2.897   2.060 -0.4931  0.4551 -0.4005
 6011TIP3    H139668   2.709   2.892   1.995 -1.5827 -1.1657 -1.5346
 6011TIP3    H239669   2.571   2.948   2.017 -1.4859 -1.1830 -0.8613
 6012TIP3   OH239670   4.151   5.181   0.324  0.3138 -0.0164  0.3466
 6012TIP3    H139671   4.216   5.207   0.389  0.1200 -0.1401  0.5912
 6012TIP3    H239672   4.201   5.166   0.244  0.4353  1.2037  0.1644
 6013TIP3   OH239673   3.999   4.610   8.445 -0.5290  0.4075 -0.4945
 6013TIP3    H139674   4.028   4.539   8.388  2.2564 -0.5903  1.9202
 6013TIP3    H239675   4.044   4.688   8.413 -1.2281  0.4806 -1.3297
 6014TIP3   OH239676   1.671   0.571   0.452 -0.0966 -0.1382  0.4839
 6014TIP3    H139677   1.659   0.490   0.402 -0.5641  0.3501 -0.2051
 6014TIP3    H239678   1.617   0.560   0.530  0.7394 -0.9593  0.9703
 6015TIP3   OH239679   5.844   3.445   3.203 -0.0295 -0.0863  0.0967
 6015TIP3    H139680   5.822   3.528   3.244  0.2891 -0.3201  0.7661
 6015TIP3    H239681   5.794   3.380   3.252  1.2103 -0.4987  0.8875
 6016TIP3   OH239682   6.687   5.821   0.634  0.8631 -0.1245 -0.0025
 6016TIP3    H139683   6.609   5.765   0.639  0.3863  0.5187 -0.0740
 6016TIP3    H239684   6.653   5.909   0.649  1.6370  0.1212  0.3238
 6017TIP3   OH239685   5.437   0.837   8.548 -0.4098 -0.0583 -0.2898
 6017TIP3    H139686   5.451   0.790   8.466  1.3253 -2.1320  1.0946
 6017TIP3    H239687   5.520   0.880   8.566 -0.1543 -1.0885  1.2013
 6018TIP3   OH239688   2.142   3.991   0.998  0.0274  0.2499 -0.2434
 6018TIP3    H139689   2.199   4.056   1.039 -0.4114  1.1702 -1.0606
 6018TIP3    H239690   2.203   3.930   0.956  0.5112 -0.9879  2.0562
 6019TIP3   OH239691   1.372   4.495   0.772 -0.2053 -0.3840 -0.1099
 6019TIP3    H139692   1.422   4.461   0.846 -0.5432 -1.4863 -0.3588
 6019TIP3    H239693   1.285   4.511   0.809 -0.0311  0.2871  0.0199
 6020TIP3   OH239694   3.762   1.127   1.780  0.2455  0.5138  0.3948
 6020TIP3    H139695   3.732   1.043   1.744 -0.3681 -0.2019  2.4402
 6020TIP3    H239696   3.848   1.108   1.816  0.2585  0.8549  0.5396
 6021TIP3   OH239697   1.653   5.545   2.072  0.3469  0.5529  0.1119
 6021TIP3    H139698   1.669   5.453   2.049  0.4065  0.7993 -0.8847
 6021TIP3    H239699   1.740   5.582   2.083  0.3225  0.4971  0.5226
 6022TIP3   OH239700   1.782   0.618   0.916 -0.1662 -0.4300  0.0478
 6022TIP3    H139701   1.845   0.604   0.986 -1.1206 -1.3084  0.7486
 6022TIP3    H239702   1.790   0.540   0.860 -2.9530 -2.2848  1.9931
 6023TIP3   OH239703   4.341   2.217   8.462  0.1700 -0.0087 -0.0484
 6023TIP3    H139704   4.260   2.182   8.424 -0.3264 -0.4185  1.3364
 6023TIP3    H239705   4.406   2.205   8.393 -0.4242 -1.8779 -0.3507
 6024TIP3   OH239706   2.388   1.346   0.429 -0.1022 -0.2108 -0.6447
 6024TIP3    H139707   2.336   1.418   0.465 -2.1935 -1.6375 -0.6646
 6024TIP3    H239708   2.391   1.365   0.335  1.6637  1.2097 -0.3607
 6025TIP3   OH239709   3.956   0.890   1.583  0.7409 -0.0955 -0.1771
 6025TIP3    H139710   3.891   0.938   1.532  0.3719 -0.1886  0.2059
 6025TIP3    H239711   3.910   0.813   1.615  0.5765  0.6333  1.4226
 6026TIP3   OH239712   3.587   1.980   1.239  0.0032 -0.4443  0.5851
 6026TIP3    H139713   3.631   2.032   1.307  1.3192  0.2656 -0.7512
 6026TIP3    H239714   3.626   1.893   1.247 -0.0059 -0.4230  0.8791
 6027TIP3   OH239715   2.274   4.872   2.771  0.0912 -0.2884  0.0072
 6027TIP3    H139716   2.350   4.853   2.825  0.1079 -2.8542 -0.7775
 6027TIP3    H239717   2.217   4.797   2.783 -0.7998  0.0001 -2.0016
 6028TIP3   OH239718   5.679   0.092   0.025  0.2962  0.2872 -0.0240
 6028TIP3    H139719   5.767   0.058   0.009  0.5285  0.5145  0.7181
 6028TIP3    H239720   5.690   0.155   0.096 -0.5757 -0.2369  0.5948
 6029TIP3   OH239721   0.694   6.553   1.509 -0.1557 -0.1841 -0.1774
 6029TIP3    H139722   0.714   6.527   1.599  0.1335 -0.4875 -0.3283
 6029TIP3    H239723   0.625   6.619   1.518  0.1934  0.1271  0.2923
 6030TIP3   OH239724   0.351   3.113   0.845  0.5674 -0.3713 -0.4888
 6030TIP3    H139725   0.369   3.183   0.782  0.5102 -0.2622 -0.3847
 6030TIP3    H239726   0.419   3.123   0.912 -2.2035  2.7683  2.2471
 6031TIP3   OH239727   0.413   0.568   2.034 -0.1865 -0.2917  0.4724
 6031TIP3    H139728   0.350   0.549   2.104  1.0764 -0.2586  1.6732
 6031TIP3    H239729   0.427   0.662   2.039  0.2299 -0.3493  0.4738
 6032TIP3   OH239730   0.692   1.997   7.371  0.1805 -0.1548  0.5808
 6032TIP3    H139731   0.685   1.940   7.448 -1.0739 -1.4812 -0.4527
 6032TIP3    H239732   0.776   1.975   7.332 -0.4755 -1.6779 -0.0493
 6033TIP3   OH239733   2.915   3.225   0.429 -0.1596  0.6445 -0.0262
 6033TIP3    H139734   2.956   3.311   0.439 -0.0201  0.4263  1.5875
 6033TIP3    H239735   2.982   3.170   0.389 -0.2057  1.2401 -0.9510
 6034TIP3   OH239736   2.036   2.922   1.814  0.0242  0.3847 -0.0378
 6034TIP3    H139737   2.023   2.834   1.779 -1.8980  0.9614 -0.9241
 6034TIP3    H239738   2.106   2.913   1.878 -0.7193 -1.9440  0.5223
 6035TIP3   OH239739   5.436   1.952   8.619 -0.2606 -0.0702  0.0175
 6035TIP3    H139740   5.416   1.929   8.710  0.0745 -2.2856 -0.4082
 6035TIP3    H239741   5.383   2.030   8.602 -1.7491 -0.6747  1.5653
 6036TIP3   OH239742   1.671   6.680   1.141  0.3035  0.3697  0.0613
 6036TIP3    H139743   1.730   6.624   1.091  0.2500  1.2562 -1.0372
 6036TIP3    H239744   1.628   6.621   1.202  1.7464 -0.4268  0.3477
 6037TIP3   OH239745   4.702   2.990   7.930 -0.2770  0.3137 -0.1815
 6037TIP3    H139746   4.723   2.908   7.975  0.9891  0.3024 -0.7646
 6037TIP3    H239747   4.637   2.966   7.865  0.0087 -0.2140 -0.2780
 6038TIP3   OH239748   2.721   5.700   2.042  0.3242 -0.2482 -0.0235
 6038TIP3    H139749   2.743   5.785   2.078  0.4239  1.3481 -3.4104
 6038TIP3    H239750   2.636   5.678   2.080  0.3379  1.3088  0.9732
 6039TIP3   OH239751   0.378   3.104   7.853 -0.4621 -0.4047  0.2283
 6039TIP3    H139752   0.291   3.118   7.815 -0.0429 -1.3733 -1.1424
 6039TIP3    H239753   0.394   3.183   7.905 -2.0205 -0.0740  0.2542
 6040TIP3   OH239754   1.163   3.204   8.245  0.0238 -0.1861  0.4863
 6040TIP3    H139755   1.242   3.258   8.242 -1.3923  1.9584  0.3981
 6040TIP3    H239756   1.150   3.175   8.155 -0.0630  0.6359  0.2292
 6041TIP3   OH239757   3.715   3.789   8.076  0.7312 -0.1082 -0.2884
 6041TIP3    H139758   3.725   3.694   8.069 -1.0007 -0.4140  0.7637
 6041TIP3    H239759   3.624   3.805   8.051  1.3380  1.4620 -1.7068
 6042TIP3   OH239760   1.059   4.555   8.070  0.0746 -0.4825 -0.1617
 6042TIP3    H139761   1.022   4.468   8.088  0.2801 -0.4590  0.3922
 6042TIP3    H239762   1.058   4.562   7.974  0.0398 -1.0889 -0.2113
 6043TIP3   OH239763   1.274   6.059   8.821 -0.3246  0.6038 -0.0332
 6043TIP3    H139764   1.361   6.037   8.855 -1.2719  0.9397  2.8988
 6043TIP3    H239765   1.273   6.154   8.819 -0.0529  0.6039 -1.8726
 6044TIP3   OH239766   3.499   2.253   7.337  0.3181 -0.0182  0.3809
 6044TIP3    H139767   3.529   2.216   7.421  2.5635 -0.1438 -0.3991
 6044TIP3    H239768   3.572   2.237   7.277 -1.5650 -0.7380 -1.8685
 6045TIP3   OH239769   0.687   1.237   0.535 -0.6314 -0.3123 -0.0347
 6045TIP3    H139770   0.619   1.173   0.553 -1.3990  0.6677  0.6697
 6045TIP3    H239771   0.640   1.312   0.499  0.1275  0.2393  0.1055
 6046TIP3   OH239772   3.108   4.539   1.068 -0.0640 -0.4003  0.2845
 6046TIP3    H139773   3.125   4.629   1.097  0.4832  0.3624 -2.1710
 6046TIP3    H239774   3.013   4.534   1.061 -0.3249 -0.9878  3.1035
 6047TIP3   OH239775   4.248   0.705   0.600  0.1306  0.5217  0.7098
 6047TIP3    H139776   4.320   0.753   0.559  0.7512 -1.5841 -0.8908
 6047TIP3    H239777   4.170   0.736   0.554  0.5375 -0.0449 -0.4054
 6048TIP3   OH239778   2.979   2.337   2.136  0.0058 -0.2722 -0.6418
 6048TIP3    H139779   2.901   2.293   2.171  0.5155 -1.1428 -0.5757
 6048TIP3    H239780   2.952   2.369   2.051 -0.7780  0.4734 -0.1230
 6049TIP3   OH239781   2.172   2.465   0.136  0.1298 -0.2304  0.5364
 6049TIP3    H139782   2.267   2.461   0.135  0.2713  1.6389  1.5592
 6049TIP3    H239783   2.147   2.416   0.215  0.5576  2.2706  2.3629
 6050TIP3   OH239784   1.025   2.693   1.282  0.4260  0.0799 -0.5208
 6050TIP3    H139785   1.027   2.607   1.240  0.5023  0.2096 -0.7855
 6050TIP3    H239786   1.062   2.753   1.216  0.3938  0.3103 -0.3308
 6051TIP3   OH239787   2.899   2.297   8.768 -0.3118  0.2252 -0.0989
 6051TIP3    H139788   2.950   2.365   8.812 -0.9669 -0.2110  1.3966
 6051TIP3    H239789   2.885   2.331   8.680 -1.6628  2.6158  0.9435
 6052TIP3   OH239790   1.818   6.310   3.005  0.1964 -0.3053 -0.7573
 6052TIP3    H139791   1.747   6.326   3.067 -0.7307 -1.1328 -1.5809
 6052TIP3    H239792   1.786   6.344   2.922  0.3421 -1.6050 -1.3576
 6053TIP3   OH239793   0.762   1.845   8.697 -0.0525 -0.1870 -0.6131
 6053TIP3    H139794   0.672   1.848   8.730  0.0171  1.6371 -0.4756
 6053TIP3    H239795   0.767   1.763   8.649 -1.5387 -0.7264  0.0795
 6054TIP3   OH239796   6.374   2.356   2.553 -0.0248 -0.3136 -0.5407
 6054TIP3    H139797   6.443   2.380   2.615  0.0809 -1.7005 -0.0809
 6054TIP3    H239798   6.360   2.435   2.501  1.1378  0.3327  0.0795
 6055TIP3   OH239799   1.829   4.901   2.515  0.3685  0.9398  0.2643
 6055TIP3    H139800   1.903   4.841   2.519  0.2365  0.5987 -1.4837
 6055TIP3    H239801   1.860   4.980   2.559  0.0322 -0.8204  4.0020
 6056TIP3   OH239802   6.490   3.217   2.109 -0.1858 -0.0519  0.5922
 6056TIP3    H139803   6.557   3.283   2.090  0.4362 -0.9271 -0.3227
 6056TIP3    H239804   6.448   3.248   2.190 -0.3824  1.8222 -0.1808
 6057TIP3   OH239805   1.549   0.005   2.738 -0.2018 -0.0321 -0.3294
 6057TIP3    H139806   1.586  -0.018   2.653 -2.1127 -1.6607 -0.8104
 6057TIP3    H239807   1.557   0.100   2.744 -0.4418  0.1795 -2.5527
 6058TIP3   OH239808   6.692   5.423   0.821  0.3646 -0.0326  0.1900
 6058TIP3    H139809   6.610   5.471   0.829  0.5869  0.8401 -2.1492
 6058TIP3    H239810   6.760   5.487   0.845  0.4978 -0.0266 -0.2012
 6059TIP3   OH239811   5.815   4.360   1.582 -0.0879 -0.3287 -0.5196
 6059TIP3    H139812   5.748   4.292   1.593  0.9773 -1.0901  2.0349
 6059TIP3    H239813   5.865   4.333   1.505  1.0404 -3.2066  1.0790
 6060TIP3   OH239814   1.064   4.775   7.843  0.7071 -0.1667 -0.1097
 6060TIP3    H139815   1.051   4.868   7.825 -0.1068 -0.5437 -1.5782
 6060TIP3    H239816   1.156   4.768   7.869  0.7382  1.0513  0.1648
 6061TIP3   OH239817   3.500   4.854   1.826 -0.2106  0.0169  0.3462
 6061TIP3    H139818   3.490   4.942   1.862  2.7849  1.2959 -1.5411
 6061TIP3    H239819   3.481   4.796   1.899 -2.9420  2.1460  1.4899
 6062TIP3   OH239820   6.281   2.251   1.306  0.5304 -0.3318  0.4146
 6062TIP3    H139821   6.320   2.190   1.368  0.6202 -0.6852  0.0173
 6062TIP3    H239822   6.206   2.205   1.269 -1.6469  1.1264  2.7418
 6063TIP3   OH239823   5.552   4.178   2.370 -0.0775 -0.0307  0.4241
 6063TIP3    H139824   5.645   4.154   2.377  0.5404  1.9149 -0.4390
 6063TIP3    H239825   5.543   4.215   2.282 -1.8897 -0.9383  0.1795
 6064TIP3   OH239826   3.036   0.690   2.786 -0.6455  0.0069 -0.3446
 6064TIP3    H139827   2.987   0.703   2.867  0.9696  1.2321  0.4704
 6064TIP3    H239828   3.127   0.679   2.813 -0.1792 -0.3330 -1.9389
 6065TIP3   OH239829   1.004   5.208   0.051  0.6088  0.2573  0.6294
 6065TIP3    H139830   0.973   5.292   0.086  1.5708  1.0878 -0.4267
 6065TIP3    H239831   0.990   5.215  -0.043 -1.6513 -1.8061  0.7350
 6066TIP3   OH239832   1.806   1.803   2.119  0.6513 -0.4519 -0.5648
 6066TIP3    H139833   1.771   1.741   2.055 -0.0554  0.6017 -1.2332
 6066TIP3    H239834   1.885   1.838   2.078 -0.6622  1.4358 -1.6696
 6067TIP3   OH239835   0.204   5.574   8.788  0.0697 -0.0626  0.1661
 6067TIP3    H139836   0.210   5.640   8.719 -0.9650  0.5604  0.6413
 6067TIP3    H239837   0.262   5.503   8.759  2.4455  1.6674  0.3671
 6068TIP3   OH239838   3.953   3.497   0.715  0.0331  0.3070  0.3901
 6068TIP3    H139839   3.921   3.580   0.679 -1.5538 -0.5200 -0.1826
 6068TIP3    H239840   3.998   3.522   0.796 -0.9824  1.6640  0.5642
 6069TIP3   OH239841   2.600   4.406   2.017  0.1606 -0.0579 -0.2705
 6069TIP3    H139842   2.595   4.358   1.934  0.1604 -1.1579  0.3434
 6069TIP3    H239843   2.680   4.374   2.058 -1.3018 -1.7980  1.4669
 6070TIP3   OH239844   3.470   4.035   7.499  0.4635  0.6676 -0.0158
 6070TIP3    H139845   3.459   4.022   7.405 -1.4302  1.0587  0.1097
 6070TIP3    H239846   3.436   3.954   7.538 -1.5523  1.6402  0.3896
 6071TIP3   OH239847   1.251   4.716   2.449  0.0433  0.3107 -0.0098
 6071TIP3    H139848   1.262   4.726   2.354 -0.6454  2.1057  0.0636
 6071TIP3    H239849   1.286   4.797   2.486  1.8791 -1.0657  1.4502
 6072TIP3   OH239850   0.440   6.140   0.532  0.5011  0.0158 -0.0106
 6072TIP3    H139851   0.365   6.160   0.588  0.9690  1.3694  0.1743
 6072TIP3    H239852   0.509   6.199   0.562  0.7753  0.7675 -1.9902
 6073TIP3   OH239853   4.890   2.267   2.528 -0.2390  0.1313  0.1843
 6073TIP3    H139854   4.840   2.348   2.528 -1.1828 -0.4338  1.4193
 6073TIP3    H239855   4.958   2.280   2.594 -0.5229 -0.1609  0.5353
 6074TIP3   OH239856   2.885   1.835   8.699  0.0818 -1.0823  0.2578
 6074TIP3    H139857   2.846   1.853   8.785  0.8131 -1.8404  0.7730
 6074TIP3    H239858   2.930   1.916   8.675 -1.4758 -0.3215 -0.1778
 6075TIP3   OH239859   0.464   2.723   0.067 -0.3407 -0.5172  0.2569
 6075TIP3    H139860   0.508   2.641   0.089 -0.5183 -0.5783  0.3921
 6075TIP3    H239861   0.427   2.754   0.150  0.2862  0.0418  0.3363
 6076TIP3   OH239862   2.681   1.018   1.606  0.1713 -0.6818 -0.0542
 6076TIP3    H139863   2.696   0.962   1.682  0.8608 -2.9153 -1.7313
 6076TIP3    H239864   2.718   1.103   1.631  0.7735 -1.4705  1.9168
 6077TIP3   OH239865   2.999   2.137   0.735  0.2122 -0.4508 -1.1434
 6077TIP3    H139866   3.087   2.124   0.770 -1.3587 -1.7683  2.8390
 6077TIP3    H239867   2.976   2.226   0.762 -0.4492 -0.9280 -0.0537
 6078TIP3   OH239868   2.354   6.019   2.636  0.1457 -0.4319 -0.4992
 6078TIP3    H139869   2.447   6.000   2.621  0.0347 -1.0482 -0.4533
 6078TIP3    H239870   2.330   5.962   2.709 -0.1469  0.0998 -0.1787
 6079TIP3   OH239871   6.670   4.944   1.827 -0.6036  0.4350 -0.6176
 6079TIP3    H139872   6.680   4.849   1.816 -1.7216  0.3635 -1.2018
 6079TIP3    H239873   6.691   4.959   1.919  1.1771 -0.1295 -0.8920
 6080TIP3   OH239874   2.103   4.071   0.271  0.2357 -0.3914 -0.2277
 6080TIP3    H139875   2.094   3.977   0.254 -1.7464 -0.0466 -1.4899
 6080TIP3    H239876   2.118   4.109   0.184  1.4077  0.4316  0.3210
 6081TIP3   OH239877   0.560   1.153   3.322 -0.3384  0.4369  0.2154
 6081TIP3    H139878   0.569   1.214   3.249 -0.4462 -1.2183 -1.2579
 6081TIP3    H239879   0.649   1.123   3.339 -0.6719 -2.9884 -2.7870
 6082TIP3   OH239880   1.442   5.581   2.539  0.0497  0.2479  0.0349
 6082TIP3    H139881   1.514   5.585   2.476 -0.5205 -0.6860 -0.7167
 6082TIP3    H239882   1.427   5.672   2.564  0.0719  0.7065 -1.4726
 6083TIP3   OH239883   5.282   0.995   0.291  1.0074 -0.1124 -0.1344
 6083TIP3    H139884   5.288   1.053   0.215 -0.5134 -1.3504 -1.2757
 6083TIP3    H239885   5.325   0.914   0.262  2.7300  0.2318  1.2826
 6084TIP3   OH239886   0.228   5.871   1.541  0.4428  0.2135  0.3726
 6084TIP3    H139887   0.164   5.801   1.556  1.6348 -1.1350 -0.5431
 6084TIP3    H239888   0.266   5.886   1.628 -0.2819  0.2164  0.7040
 6085TIP3   OH239889   5.681   2.699   3.247 -0.1709  0.8244 -0.1032
 6085TIP3    H139890   5.702   2.727   3.158 -0.0359  0.4346 -0.2000
 6085TIP3    H239891   5.601   2.648   3.238  1.0188 -1.1272 -0.3708
 6086TIP3   OH239892   5.569   4.480   1.039 -0.1063 -0.0382 -0.0753
 6086TIP3    H139893   5.615   4.482   1.123 -1.7391  0.1835  0.8537
 6086TIP3    H239894   5.485   4.522   1.057 -0.4295  0.1620 -1.8756
 6087TIP3   OH239895   0.955   2.116   7.454  0.0354 -0.1539 -0.4084
 6087TIP3    H139896   1.023   2.049   7.469 -1.3126 -1.5666 -0.3604
 6087TIP3    H239897   0.972   2.146   7.365  0.3864 -0.9121 -0.6125
 6088TIP3   OH239898   1.001   5.758   1.318  0.2839  0.2595 -0.1802
 6088TIP3    H139899   1.034   5.780   1.405  0.3975  0.6716 -0.3249
 6088TIP3    H239900   0.926   5.816   1.306  0.7130  0.7189 -0.6514
 6089TIP3   OH239901   4.092   1.871   1.592  0.6682 -0.0167  0.1648
 6089TIP3    H139902   4.111   1.815   1.517 -0.0414 -0.1113  0.0481
 6089TIP3    H239903   4.106   1.815   1.668  1.4721  0.1045  0.1145
 6090TIP3   OH239904   2.006   0.243   8.722 -0.1206 -1.0148 -0.5275
 6090TIP3    H139905   2.058   0.267   8.645  1.0072 -2.1868 -0.1628
 6090TIP3    H239906   2.063   0.264   8.796 -1.2380  0.2140  0.0353
 6091TIP3   OH239907   5.929   4.937   1.051 -0.3761 -0.1322 -0.5919
 6091TIP3    H139908   5.872   4.863   1.029  1.3559 -0.9649 -2.5486
 6091TIP3    H239909   6.011   4.897   1.078 -0.6826  1.0447  2.4993
 6092TIP3   OH239910   5.796   1.570   1.214 -0.0945  0.1684 -0.0522
 6092TIP3    H139911   5.817   1.548   1.124  0.2424  1.5314 -0.3353
 6092TIP3    H239912   5.864   1.633   1.239 -0.3326 -0.0006  1.0718
 6093TIP3   OH239913   2.707   5.321   1.369 -0.1456  0.0137  0.4280
 6093TIP3    H139914   2.798   5.351   1.370  0.1534 -0.8615  0.1518
 6093TIP3    H239915   2.686   5.307   1.461  0.0075  0.1736  0.4895
 6094TIP3   OH239916   4.789   3.671   2.707 -0.0240  0.7912  0.0505
 6094TIP3    H139917   4.833   3.744   2.664 -1.0726  0.8439 -0.9936
 6094TIP3    H239918   4.785   3.697   2.799 -0.3172  2.0463 -0.2882
 6095TIP3   OH239919   2.244   1.666   8.620  0.4012  0.7553 -0.8870
 6095TIP3    H139920   2.333   1.634   8.606  0.6063  0.1685  1.3194
 6095TIP3    H239921   2.190   1.587   8.619  0.3413  0.7547  0.6535
 6096TIP3   OH239922   1.216   0.229   2.017  0.8743 -0.0348 -0.1745
 6096TIP3    H139923   1.129   0.223   2.057  1.7914  0.5125  2.0413
 6096TIP3    H239924   1.266   0.284   2.077  3.5824 -2.5781  0.0880
 6097TIP3   OH239925   3.968   5.513   3.373  0.3689 -0.1731  0.5245
 6097TIP3    H139926   4.044   5.463   3.342 -0.5332 -0.1322 -1.9693
 6097TIP3    H239927   3.992   5.539   3.462  2.4467 -1.8044  0.5261
 6098TIP3   OH239928   2.221   2.174   0.588 -0.5157 -0.0141 -0.4500
 6098TIP3    H139929   2.258   2.220   0.664 -0.4302  1.1077 -1.1476
 6098TIP3    H239930   2.276   2.096   0.578 -0.0756  0.2041  0.2012
 6099TIP3   OH239931   2.864   2.019   7.824 -0.2479  0.2715 -0.4706
 6099TIP3    H139932   2.870   1.924   7.819  1.4319  0.3902 -1.3784
 6099TIP3    H239933   2.833   2.046   7.738 -1.3133  0.5286 -0.0214
 6100TIP3   OH239934   1.818   2.645   1.021 -0.1306  0.1857 -0.5571
 6100TIP3    H139935   1.871   2.714   1.060  0.3673 -0.6801  0.3423
 6100TIP3    H239936   1.740   2.639   1.077 -0.2365  0.1119 -0.7101
 6101TIP3   OH239937   2.846   2.308   2.723  0.1421  0.0374  0.2514
 6101TIP3    H139938   2.842   2.302   2.819 -1.7546 -0.1884  0.1885
 6101TIP3    H239939   2.913   2.374   2.706 -0.1643  0.7761  1.7649
 6102TIP3   OH239940   4.234   0.669   1.233  0.4548 -0.0255  0.3674
 6102TIP3    H139941   4.169   0.739   1.228  0.7513  0.1870 -0.7694
 6102TIP3    H239942   4.309   0.710   1.276 -0.5097 -0.5734  2.6891
 6103TIP3   OH239943   1.962   3.775   1.866 -0.0577  0.4329 -0.1055
 6103TIP3    H139944   2.037   3.746   1.814  0.0403 -0.8908  0.7353
 6103TIP3    H239945   1.897   3.707   1.854 -0.4316  0.6486  0.6678
 6104TIP3   OH239946   6.546   1.641   7.754  0.4141  0.3415  0.1627
 6104TIP3    H139947   6.505   1.699   7.818 -0.1890 -0.2630  0.3392
 6104TIP3    H239948   6.640   1.650   7.770  0.2538 -0.3682  1.6600
 6105TIP3   OH239949   2.604   3.250   7.782 -0.0509  0.2682 -0.4467
 6105TIP3    H139950   2.609   3.346   7.791  0.6917  0.1426  0.6840
 6105TIP3    H239951   2.512   3.230   7.801 -0.3010  0.7899 -1.0676
 6106TIP3   OH239952   5.424   6.246   8.232  0.2138 -0.2313 -0.5446
 6106TIP3    H139953   5.364   6.245   8.307  1.7528 -0.1089  0.7519
 6106TIP3    H239954   5.423   6.337   8.203 -0.9979 -0.4333 -1.2389
 6107TIP3   OH239955   4.209   2.094   1.534 -0.5982  0.0641 -0.0865
 6107TIP3    H139956   4.129   2.048   1.558  0.0840 -0.1988  1.8326
 6107TIP3    H239957   4.262   2.029   1.489  0.5866 -1.3584  3.0752
 6108TIP3   OH239958   0.187   5.865   2.089  0.0321  0.5753  0.1896
 6108TIP3    H139959   0.138   5.874   2.007 -0.0328 -0.3269  0.1246
 6108TIP3    H239960   0.236   5.784   2.079 -1.3250 -0.5000  1.7382
 6109TIP3   OH239961   6.763   1.447   0.174  0.0033 -0.3722  0.0493
 6109TIP3    H139962   6.719   1.447   0.259  0.4090  0.3668  0.2715
 6109TIP3    H239963   6.803   1.360   0.168  0.6562 -0.1594  0.9862
 6110TIP3   OH239964   5.915   5.610   0.988  0.3834  0.5656  0.0483
 6110TIP3    H139965   5.826   5.579   0.973 -0.3880  2.6617 -0.1401
 6110TIP3    H239966   5.925   5.612   1.083 -0.3303  1.6802  0.1160
 6111TIP3   OH239967   0.576   5.638   1.593  0.1452  0.0828 -0.5050
 6111TIP3    H139968   0.620   5.721   1.573  1.2867 -0.1572  0.8890
 6111TIP3    H239969   0.551   5.604   1.507  2.4845  0.3486 -1.3837
 6112TIP3   OH239970   1.666   1.219   8.102 -0.6205 -0.0178 -0.0555
 6112TIP3    H139971   1.714   1.291   8.060  0.4892  0.6214  2.1571
 6112TIP3    H239972   1.574   1.238   8.083 -0.2083  0.3874 -1.8782
 6113TIP3   OH239973   1.002   1.962   8.807 -0.3093  0.6483  0.1935
 6113TIP3    H139974   0.914   1.926   8.815 -0.5725  1.5886  2.6003
 6113TIP3    H239975   0.991   2.043   8.756 -0.4475 -0.2983 -1.3270
 6114TIP3   OH239976   5.251   6.250   1.905 -0.0360  0.0805  0.4813
 6114TIP3    H139977   5.305   6.295   1.970  1.3095 -1.0404  0.1812
 6114TIP3    H239978   5.282   6.283   1.820  0.3680 -0.7497  0.2964
 6115TIP3   OH239979   6.480   4.261   8.621 -0.1238 -0.2692 -0.1505
 6115TIP3    H139980   6.543   4.244   8.551  0.6480  1.3495  0.0944
 6115TIP3    H239981   6.494   4.191   8.684 -0.4280 -1.4215 -1.3231
 6116TIP3   OH239982   1.073   1.081   2.442  0.1963 -0.6415  0.1466
 6116TIP3    H139983   1.107   1.022   2.375 -0.0700  0.5133 -1.0390
 6116TIP3    H239984   0.986   1.048   2.461  0.4400 -1.2333  0.2427
 6117TIP3   OH239985   2.974   2.613   7.706  0.8794  0.4199 -0.1801
 6117TIP3    H139986   2.955   2.668   7.783 -0.5659 -1.0707  0.5783
 6117TIP3    H239987   3.070   2.614   7.700  0.9904  1.2209  1.1363
 6118TIP3   OH239988   4.252   0.585   0.969  0.1081 -0.3627  0.1335
 6118TIP3    H139989   4.205   0.648   0.915 -0.0256 -0.5282  0.0567
 6118TIP3    H239990   4.229   0.609   1.059  1.2045  0.6096  0.1794
 6119TIP3   OH239991   4.684   0.581   7.726  0.2045  0.3458  0.1077
 6119TIP3    H139992   4.704   0.583   7.632 -0.9821  1.8197 -0.1541
 6119TIP3    H239993   4.760   0.621   7.768  0.5966 -0.0254 -0.2392
 6120TIP3   OH239994   0.136   5.163   0.468 -0.1963  0.0045 -0.0058
 6120TIP3    H139995   0.165   5.239   0.418 -0.1678  0.8709  1.2901
 6120TIP3    H239996   0.045   5.183   0.491  0.1772  0.2265  1.3637
 6121TIP3   OH239997   5.906   4.846   1.911  0.3197 -0.3281  0.4847
 6121TIP3    H139998   5.925   4.765   1.865  0.1912 -0.6013  0.9025
 6121TIP3    H239999   5.858   4.818   1.989  0.6321  0.1125  0.8409
 6122TIP3   OH240000   3.924   1.276   7.961 -0.3651 -0.0681 -0.2792
 6122TIP3    H140001   3.837   1.237   7.968  0.1201 -1.0451  0.6929
 6122TIP3    H240002   3.976   1.210   7.916  0.1554 -0.0067  0.2207
 6123TIP3   OH240003   0.905   4.613   8.576  0.3860 -0.0782 -0.5759
 6123TIP3    H140004   0.827   4.662   8.553 -0.9244 -2.3116 -1.1988
 6123TIP3    H240005   0.964   4.626   8.502  0.1806  0.7535 -0.6000
 6124TIP3   OH240006   1.623   1.576   3.334 -0.1907 -0.2951 -0.6468
 6124TIP3    H140007   1.665   1.657   3.303 -1.7536 -0.0749 -2.3859
 6124TIP3    H240008   1.550   1.606   3.388  0.5456 -0.6304  0.5726
 6125TIP3   OH240009   3.976   3.996   2.404  0.9709 -0.2509 -0.0876
 6125TIP3    H140010   4.062   4.038   2.404  1.0287 -0.0230 -3.8446
 6125TIP3    H240011   3.987   3.919   2.348 -1.1999 -0.3511 -0.4716
 6126TIP3   OH240012   1.105   6.600   1.981  0.0807 -0.4048 -0.2228
 6126TIP3    H140013   1.181   6.593   2.038 -0.3529  2.2034  0.8264
 6126TIP3    H240014   1.129   6.668   1.917 -0.7533 -0.7397 -0.9160
 6127TIP3   OH240015   5.685   4.413   3.053  0.1435 -0.1011  0.3376
 6127TIP3    H140016   5.756   4.439   2.994  0.9361 -0.4101  1.1316
 6127TIP3    H240017   5.614   4.384   2.994  0.5102  0.5968 -0.4733
 6128TIP3   OH240018   5.483   3.822   0.053 -0.0590  0.2102 -0.4070
 6128TIP3    H140019   5.556   3.839   0.112 -0.6330 -0.1186  0.4263
 6128TIP3    H240020   5.409   3.868   0.093 -0.5620 -0.4061 -0.6162
 6129TIP3   OH240021   5.490   3.108   7.891 -0.2399 -0.7375 -0.2908
 6129TIP3    H140022   5.519   3.023   7.858  1.6569  0.0342 -0.7406
 6129TIP3    H240023   5.558   3.170   7.862 -1.2255  0.8327  0.5872
 6130TIP3   OH240024   3.088   0.125   8.365  0.6020  0.8317  0.0374
 6130TIP3    H140025   3.019   0.186   8.341  0.2624  0.0990 -0.9209
 6130TIP3    H240026   3.148   0.126   8.290 -0.7407 -1.8913 -1.2071
 6131TIP3   OH240027   5.942   2.098   8.634 -0.1794  0.2241  0.6045
 6131TIP3    H140028   6.003   2.074   8.564 -1.1762 -5.6444  1.2137
 6131TIP3    H240029   5.998   2.136   8.702  1.5081  1.7522 -1.4957
 6132TIP3   OH240030   2.514   3.032   3.065  0.0016  0.3529  0.4695
 6132TIP3    H140031   2.575   3.032   3.139  0.8250  0.4483 -0.1875
 6132TIP3    H240032   2.466   3.114   3.074  0.9228  0.9380  0.2606
 6133TIP3   OH240033   3.421   1.496   1.281  0.3281  0.5322 -0.0096
 6133TIP3    H140034   3.491   1.456   1.229 -0.1963 -1.2468  0.5720
 6133TIP3    H240035   3.461   1.574   1.319  1.8177 -0.1001 -0.1949
 6134TIP3   OH240036   4.460   3.730   1.886 -0.1337  0.4812 -0.4697
 6134TIP3    H140037   4.447   3.823   1.867  3.6870  1.4390  0.8245
 6134TIP3    H240038   4.514   3.698   1.814 -3.3553 -1.5907 -2.2591
 6135TIP3   OH240039   5.090   3.235   2.435  0.2085  0.0134 -0.7558
 6135TIP3    H140040   5.090   3.234   2.339 -0.6437  0.2705 -0.7592
 6135TIP3    H240041   5.044   3.155   2.460  1.8242 -0.8907 -0.5328
 6136TIP3   OH240042   4.216   3.433   1.277 -0.8343 -0.5177  0.4729
 6136TIP3    H140043   4.277   3.364   1.252  0.3162  1.1882 -1.9077
 6136TIP3    H240044   4.194   3.415   1.368  0.6080 -3.0938  0.3930
 6137TIP3   OH240045   0.392   2.526   1.243  0.4965 -0.1977  0.1947
 6137TIP3    H140046   0.411   2.619   1.258  1.0587 -0.2057 -0.4398
 6137TIP3    H240047   0.330   2.503   1.312  0.9594  0.4481  0.8377
 6138TIP3   OH240048   2.642   1.178   1.289  0.0406  0.1831 -0.4389
 6138TIP3    H140049   2.656   1.181   1.194  1.3281  1.5190 -0.2447
 6138TIP3    H240050   2.591   1.098   1.303  2.0187 -1.4565 -1.9930
 6139TIP3   OH240051   4.327   6.422   7.793  0.1163  0.1951  0.2187
 6139TIP3    H140052   4.415   6.392   7.771  0.0118  0.2601 -0.3230
 6139TIP3    H240053   4.277   6.342   7.807 -0.0424  0.1160 -0.7303
 6140TIP3   OH240054   3.079   1.349   1.591 -0.4181 -0.0519 -0.6257
 6140TIP3    H140055   3.042   1.432   1.560 -1.5530 -0.7100 -1.1036
 6140TIP3    H240056   3.164   1.343   1.547  0.2791  1.4735  0.4557
 6141TIP3   OH240057   1.128   2.913   0.527 -0.4898 -0.5403 -0.0761
 6141TIP3    H140058   1.142   2.964   0.606 -2.2010  0.7507 -0.5418
 6141TIP3    H240059   1.215   2.879   0.504  0.4864  1.1555  0.9388
 6142TIP3   OH240060   1.498   5.877   0.645  0.1439 -0.1703  0.5968
 6142TIP3    H140061   1.575   5.864   0.700  0.5839  1.0839  0.3271
 6142TIP3    H240062   1.427   5.835   0.693  1.2028 -2.5867  0.1824
 6143TIP3   OH240063   4.391   0.884   1.813 -0.9652 -0.3795  0.0828
 6143TIP3    H140064   4.463   0.935   1.776 -1.4309 -0.9283 -1.6750
 6143TIP3    H240065   4.432   0.800   1.836 -0.4468  0.3317  1.8907
 6144TIP3   OH240066   2.436   0.011   8.566  0.1554 -0.2710  0.4841
 6144TIP3    H140067   2.398   0.013   8.654  2.0391  1.3686  1.3411
 6144TIP3    H240068   2.382  -0.051   8.518 -2.9579  1.1618  1.8523
 6145TIP3   OH240069   5.307   4.644   8.193  0.4098 -0.1813  0.3510
 6145TIP3    H140070   5.381   4.614   8.141  0.9907  0.3420  0.8621
 6145TIP3    H240071   5.286   4.730   8.158  0.9873  0.2971  1.1539
 6146TIP3   OH240072   6.407   5.599   2.863  0.3385 -0.1370 -0.0092
 6146TIP3    H140073   6.470   5.598   2.934 -0.5996 -0.6267  0.8397
 6146TIP3    H240074   6.414   5.512   2.823  2.3711  0.8100 -1.9347
 6147TIP3   OH240075   2.811   2.041   0.058  0.1681  0.7920  0.1884
 6147TIP3    H140076   2.883   2.041   0.121  0.6294  2.0052 -0.2957
 6147TIP3    H240077   2.822   2.123   0.010 -1.0899  0.6267 -0.4198
 6148TIP3   OH240078   4.365   2.117   0.971  0.0219 -0.7637  0.2137
 6148TIP3    H140079   4.408   2.047   1.021  1.3511 -0.0067  0.1722
 6148TIP3    H240080   4.280   2.129   1.015 -1.2243 -3.8420 -1.0588
 6149TIP3   OH240081   1.309   0.574   1.113 -0.2308 -0.2713  0.2981
 6149TIP3    H140082   1.243   0.642   1.101  1.3126  1.4283  0.9460
 6149TIP3    H240083   1.282   0.530   1.194 -1.2866 -0.4985 -0.1619
 6150TIP3   OH240084   3.647   3.373   1.984 -0.3866 -0.0990 -0.3180
 6150TIP3    H140085   3.695   3.299   2.021  1.7073  1.7671  0.9880
 6150TIP3    H240086   3.708   3.413   1.922 -1.0967  1.0718 -0.2992
 6151TIP3   OH240087   4.157   5.891   1.297 -0.2750 -0.2875 -0.3534
 6151TIP3    H140088   4.142   5.802   1.265 -1.0472 -0.7954  1.3223
 6151TIP3    H240089   4.158   5.883   1.392 -0.2638  1.4979 -0.1641
 6152TIP3   OH240090   0.098   5.904   7.887 -0.0608 -0.1544  0.9196
 6152TIP3    H140091   0.018   5.912   7.939  1.2816 -2.0492  3.5266
 6152TIP3    H240092   0.092   5.817   7.847  0.6981 -0.3358  1.1909
 6153TIP3   OH240093   1.453   1.914   0.039  0.1715  0.0528 -0.2638
 6153TIP3    H140094   1.485   2.002   0.062 -2.2703  1.1843 -0.8185
 6153TIP3    H240095   1.532   1.863   0.022  1.7544  1.5959  1.8853
 6154TIP3   OH240096   1.882   4.388   0.069 -0.0041  0.0739  0.4906
 6154TIP3    H140097   1.971   4.424   0.071  0.4159 -0.9317  1.9291
 6154TIP3    H240098   1.826   4.461   0.097  0.4783  0.4310  0.5327
 6155TIP3   OH240099   3.219   3.486   2.124 -0.4286  0.3980 -0.1412
 6155TIP3    H140100   3.125   3.495   2.105 -0.6089  0.5978  0.8067
 6155TIP3    H240101   3.225   3.496   2.219  0.3799 -1.0676 -0.0195
 6156TIP3   OH240102   1.640   2.802   8.065  1.0386 -0.0121 -0.2496
 6156TIP3    H140103   1.672   2.713   8.049 -0.1636 -0.1908 -1.9879
 6156TIP3    H240104   1.696   2.858   8.011  2.4057  0.4829  1.5435
 6157TIP3   OH240105   0.422   5.254   0.544 -0.2127  0.0190 -0.8070
 6157TIP3    H140106   0.492   5.201   0.506  1.0865 -0.3962  1.8839
 6157TIP3    H240107   0.374   5.288   0.469  1.3686 -1.6874 -2.7236
 6158TIP3   OH240108   6.823   5.154   3.119  0.0230  0.6242 -0.5520
 6158TIP3    H140109   6.842   5.110   3.036 -0.4999  1.2099 -0.9949
 6158TIP3    H240110   6.909   5.177   3.154  0.2584  0.1471 -0.8049
 6159TIP3   OH240111   4.442   6.049   1.322  0.1763  0.0715  0.1158
 6159TIP3    H140112   4.353   6.047   1.285  0.6054  2.7739 -1.3883
 6159TIP3    H240113   4.490   5.983   1.272 -0.4093  0.3555 -0.8556
 6160TIP3   OH240114   2.358   1.986   7.802  0.4831  0.2582 -0.6953
 6160TIP3    H140115   2.271   1.981   7.763 -0.1951  0.8401  0.6612
 6160TIP3    H240116   2.396   2.067   7.766 -0.0626  0.7001 -0.2991
 6161TIP3   OH240117   0.963   0.198   2.103  0.3964  0.1022 -0.4871
 6161TIP3    H140118   0.942   0.140   2.030  1.0055 -2.0494  0.9465
 6161TIP3    H240119   0.947   0.146   2.181 -1.0538  2.5991  1.0244
 6162TIP3   OH240120   1.858   2.665   0.321 -0.2321 -0.0590  0.0803
 6162TIP3    H140121   1.817   2.594   0.371 -1.8342  1.2476  0.7448
 6162TIP3    H240122   1.939   2.684   0.368 -1.0989  0.2958  1.5057
 6163TIP3   OH240123   4.012   5.695   7.878 -0.0826 -0.3474 -0.2194
 6163TIP3    H140124   4.017   5.602   7.858  0.7347 -0.1025 -1.2364
 6163TIP3    H240125   3.919   5.716   7.871 -0.1266 -0.8332 -1.2217
 6164TIP3   OH240126   6.795   3.413   8.560 -0.1517  0.3356 -0.1558
 6164TIP3    H140127   6.727   3.404   8.492  1.0443  0.2547 -1.3786
 6164TIP3    H240128   6.851   3.484   8.528 -0.4639  1.3991  1.5649
 6165TIP3   OH240129   2.607   2.816   1.118 -0.2618 -0.4104 -0.3878
 6165TIP3    H140130   2.584   2.735   1.073 -1.0659  0.7373 -2.1164
 6165TIP3    H240131   2.532   2.873   1.106  0.2443  0.5925  0.8997
 6166TIP3   OH240132   6.823   1.186   2.769 -0.0289  0.0325  0.6356
 6166TIP3    H140133   6.843   1.173   2.862 -2.6749 -1.5230  1.0672
 6166TIP3    H240134   6.738   1.145   2.756 -0.3483  1.3402 -2.2250
 6167TIP3   OH240135   4.815   5.763   8.310  0.3480 -0.0594  0.0910
 6167TIP3    H140136   4.859   5.848   8.313  0.9623 -0.3236 -0.9988
 6167TIP3    H240137   4.722   5.785   8.310  0.4966  0.6046  0.0523
 6168TIP3   OH240138   0.045   5.005   1.660  0.0378 -0.2930 -0.0376
 6168TIP3    H140139   0.000   4.995   1.744  0.1984  0.9021  0.2031
 6168TIP3    H240140  -0.026   5.007   1.595 -0.0712 -1.5208  0.0198
 6169TIP3   OH240141   6.027   4.182   0.867 -0.2099 -0.1154  0.9179
 6169TIP3    H140142   6.107   4.144   0.902  0.8996  0.3361 -0.9749
 6169TIP3    H240143   6.056   4.258   0.816 -1.2293 -2.1751 -3.2107
 6170TIP3   OH240144   1.963   5.721   1.639 -0.4572 -0.2201  0.2961
 6170TIP3    H140145   1.868   5.729   1.628 -0.3639 -1.2405 -1.7158
 6170TIP3    H240146   1.979   5.749   1.729 -2.5627  0.6987  0.4488
 6171TIP3   OH240147   6.687   0.221   0.408  0.0551 -0.1870 -0.3867
 6171TIP3    H140148   6.733   0.239   0.325 -2.4057 -0.1185 -1.8342
 6171TIP3    H240149   6.627   0.150   0.387 -2.8665  1.8580  0.3648
 6172TIP3   OH240150   1.296   4.756   8.434  0.9302  0.5863 -0.5276
 6172TIP3    H140151   1.267   4.819   8.499 -1.0522 -0.7004 -0.0747
 6172TIP3    H240152   1.385   4.733   8.461  0.4074  0.6094  1.3404
 6173TIP3   OH240153   1.645   5.009   8.323 -0.4887 -0.7035  0.1129
 6173TIP3    H140154   1.620   5.011   8.415 -1.5622 -0.0403 -0.1700
 6173TIP3    H240155   1.576   4.957   8.280 -0.0908 -0.8697 -0.3382
 6174TIP3   OH240156   4.707   0.382   8.523  0.3102 -0.1871 -0.2009
 6174TIP3    H140157   4.761   0.337   8.457  0.1954  1.5162 -1.5401
 6174TIP3    H240158   4.747   0.359   8.607 -0.9777 -4.3981 -0.5436
 6175TIP3   OH240159   6.478   5.329   2.769 -0.4212  0.7498 -0.1494
 6175TIP3    H140160   6.548   5.393   2.757 -0.6515  1.5533  2.2352
 6175TIP3    H240161   6.524   5.249   2.794 -0.2820  1.3761  1.7994
 6176TIP3   OH240162   6.668   0.035   1.779  0.2365  0.3737 -0.5950
 6176TIP3    H140163   6.625   0.039   1.864 -1.6037  0.3833 -1.4795
 6176TIP3    H240164   6.616  -0.027   1.728  1.4686  0.1410 -1.6264
 6177TIP3   OH240165   4.616   4.325   0.742 -0.3100  0.0487  0.8350
 6177TIP3    H140166   4.525   4.325   0.769  0.1467  0.7112  2.5112
 6177TIP3    H240167   4.664   4.292   0.818  0.8084 -0.8497 -0.2097
 6178TIP3   OH240168   3.580   1.350   7.299  0.1931 -0.1194  0.5858
 6178TIP3    H140169   3.548   1.328   7.211  2.4553  0.2542 -0.4196
 6178TIP3    H240170   3.534   1.431   7.321 -0.5495 -0.3161 -0.1546
 6179TIP3   OH240171   6.192   3.145   2.232 -0.5111  0.0235 -1.0980
 6179TIP3    H140172   6.117   3.094   2.265  1.1630 -1.9292 -0.0457
 6179TIP3    H240173   6.178   3.233   2.267 -1.3679 -0.7680  0.7253
 6180TIP3   OH240174   0.664   3.172   2.095  0.2920 -0.1637 -0.8866
 6180TIP3    H140175   0.753   3.141   2.079  1.0542  1.4026  0.0645
 6180TIP3    H240176   0.656   3.251   2.041  0.7047  1.5991  1.4520
 6181TIP3   OH240177   3.908   3.406   1.323  0.7524 -0.1133 -0.2796
 6181TIP3    H140178   3.837   3.343   1.314 -0.7206  1.7207 -2.7457
 6181TIP3    H240179   3.976   3.374   1.263  1.5368 -1.1805  1.1259
 6182TIP3   OH240180   1.630   1.607   1.115 -0.0724 -0.0613 -0.2247
 6182TIP3    H140181   1.713   1.644   1.085  0.0780 -0.2439 -0.0423
 6182TIP3    H240182   1.603   1.548   1.045  0.1124 -0.2374 -0.1521
 6183TIP3   OH240183   5.936   2.542   8.746  0.3470 -0.7516 -0.4239
 6183TIP3    H140184   5.899   2.621   8.707 -0.8549 -1.0119  0.1497
 6183TIP3    H240185   5.879   2.471   8.716  1.3610 -1.4043 -0.8624
 6184TIP3   OH240186   1.170   1.576   2.495 -0.3743  0.5379  0.2955
 6184TIP3    H140187   1.236   1.554   2.561  2.0030  0.7134 -1.8698
 6184TIP3    H240188   1.122   1.650   2.534  0.7138  0.4527  1.9330
 6185TIP3   OH240189   3.196   1.358   1.294 -0.2087 -0.1216  0.0315
 6185TIP3    H140190   3.220   1.268   1.274  0.2219  0.3443 -1.7521
 6185TIP3    H240191   3.279   1.406   1.291 -0.6279  0.5859 -0.5839
 6186TIP3   OH240192   0.612   2.482   0.032  0.4459 -0.2970  0.3196
 6186TIP3    H140193   0.654   2.443   0.108  1.8812  0.7993  0.1314
 6186TIP3    H240194   0.682   2.491  -0.033 -0.3788  0.3112 -0.5194
 6187TIP3   OH240195   5.283   5.464   7.643 -0.2848 -0.0457  0.1855
 6187TIP3    H140196   5.204   5.434   7.598 -0.5520 -0.1163  0.6899
 6187TIP3    H240197   5.315   5.536   7.589 -0.1175 -0.6770 -0.5751
 6188TIP3   OH240198   3.785   5.010   1.957 -0.3225  0.2058 -0.1244
 6188TIP3    H140199   3.869   4.979   1.992  0.6346  1.2951 -1.3258
 6188TIP3    H240200   3.783   4.977   1.867 -0.9898  0.5278 -0.2331
 6189TIP3   OH240201   6.770   6.787   0.228  0.3322  0.0762 -0.3737
 6189TIP3    H140202   6.763   6.713   0.167  1.3303 -0.7702  0.4880
 6189TIP3    H240203   6.864   6.797   0.242  0.1238  0.1105  1.1734
 6190TIP3   OH240204   4.322   0.921   2.420  0.8544 -0.1094  0.1002
 6190TIP3    H140205   4.295   0.869   2.496 -1.0760  1.4315  0.5737
 6190TIP3    H240206   4.250   0.911   2.357  1.7668 -0.2185 -0.9471
 6191TIP3   OH240207   6.757   4.614   0.803  0.8825 -0.9233 -0.3952
 6191TIP3    H140208   6.693   4.660   0.749  1.5613 -1.3413 -1.6093
 6191TIP3    H240209   6.713   4.533   0.828 -0.8412  0.8312  2.9117
 6192TIP3   OH240210   3.222   5.083   8.541  0.2180  0.0038  0.1552
 6192TIP3    H140211   3.154   5.150   8.538 -0.2812 -0.5097 -0.2847
 6192TIP3    H240212   3.294   5.123   8.591 -0.7409  0.2436  1.3960
 6193TIP3   OH240213   3.975   3.396   1.586  0.2065  0.5019  0.4621
 6193TIP3    H140214   3.961   3.409   1.492  0.5109  0.6646  0.4367
 6193TIP3    H240215   3.887   3.394   1.624  0.1020  1.2745  0.2815
 6194TIP3   OH240216   2.519   4.871   8.036  0.0458 -0.6920 -0.3250
 6194TIP3    H140217   2.445   4.927   8.010  0.5486 -0.4375 -1.2677
 6194TIP3    H240218   2.492   4.833   8.119 -0.6310  0.3639 -0.0347
 6195TIP3   OH240219   4.406   3.180   1.364  0.1957 -0.1118 -0.8336
 6195TIP3    H140220   4.446   3.237   1.429  1.1882 -1.1359 -0.5203
 6195TIP3    H240221   4.402   3.094   1.407 -1.4324 -0.2742 -1.2232
 6196TIP3   OH240222   1.256   6.468   2.188 -0.1978  0.3495 -0.1997
 6196TIP3    H140223   1.274   6.385   2.144  0.0380 -0.1960  0.8959
 6196TIP3    H240224   1.313   6.467   2.265 -0.5579  1.3027  0.0866
 6197TIP3   OH240225   0.607   4.751   0.034 -0.4322 -0.1503  0.0974
 6197TIP3    H140226   0.701   4.760   0.049 -0.4060 -0.8392  0.4112
 6197TIP3    H240227   0.577   4.695   0.106 -1.1817  0.5080  0.3146
 6198TIP3   OH240228   2.149   1.323   0.658 -0.0659 -0.4621  0.0677
 6198TIP3    H140229   2.189   1.405   0.628  2.0884 -1.2126  0.7384
 6198TIP3    H240230   2.152   1.329   0.754 -1.4991 -0.6145  0.1429
 6199TIP3   OH240231   2.016   4.717   7.467  0.2768 -0.4173  0.4621
 6199TIP3    H140232   1.930   4.691   7.500 -0.6655  1.5500 -0.2904
 6199TIP3    H240233   2.031   4.803   7.507  0.1899  0.9445 -2.2045
 6200TIP3   OH240234   1.581   4.246   8.756  0.0111  0.0691 -0.2375
 6200TIP3    H140235   1.656   4.301   8.734 -0.4191  0.5190 -0.6057
 6200TIP3    H240236   1.505   4.301   8.738 -0.4066 -0.3279  0.2766
 6201TIP3   OH240237   3.692   0.582   2.310 -0.1530 -0.2688 -0.1560
 6201TIP3    H140238   3.642   0.591   2.391  0.2816  2.5108 -0.1098
 6201TIP3    H240239   3.626   0.591   2.240 -0.3854 -1.6804 -0.1418
 6202TIP3   OH240240   0.054   5.320   1.374  0.4436 -0.3829  0.3332
 6202TIP3    H140241   0.076   5.259   1.304  1.8813  1.1162 -0.6237
 6202TIP3    H240242   0.020   5.397   1.328 -1.1972 -0.3750  1.4857
 6203TIP3   OH240243   0.460   6.691   8.716  0.2605  0.0243 -0.0489
 6203TIP3    H140244   0.412   6.750   8.658  0.5646  0.6026  0.2758
 6203TIP3    H240245   0.456   6.606   8.672  0.1989  0.3795 -0.7457
 6204TIP3   OH240246   4.528   2.691   2.483 -0.0180 -0.3460 -0.5793
 6204TIP3    H140247   4.541   2.711   2.391 -0.6777 -0.2892 -0.6625
 6204TIP3    H240248   4.449   2.638   2.486 -0.6958  0.6549  0.0623
 6205TIP3   OH240249   2.678   1.276   0.789 -0.7686  0.3295  0.2166
 6205TIP3    H140250   2.743   1.344   0.776 -0.6777  0.4901  1.3752
 6205TIP3    H240251   2.691   1.216   0.716 -0.1104  0.9737 -0.2091
 6206TIP3   OH240252   2.206   6.761   8.057 -0.5413 -0.5293  0.0788
 6206TIP3    H140253   2.286   6.745   8.106  0.3862 -0.8857 -1.4877
 6206TIP3    H240254   2.169   6.674   8.041 -1.8387 -0.3200  1.6834
 6207TIP3   OH240255   3.456   5.730   2.658 -0.8248 -0.0037 -0.0543
 6207TIP3    H140256   3.444   5.698   2.747  2.1913  0.3522  0.6027
 6207TIP3    H240257   3.403   5.809   2.653  0.5364  1.1323  2.1813
 6208TIP3   OH240258   0.253   0.695   1.126  0.2209  0.5276  0.1181
 6208TIP3    H140259   0.206   0.621   1.164  0.4924  0.3876  0.1843
 6208TIP3    H240260   0.189   0.739   1.071 -0.3249  1.0157  1.1119
 6209TIP3   OH240261   4.192   5.229   2.068 -0.0600  0.4287 -0.2271
 6209TIP3    H140262   4.148   5.218   2.152  0.4460  1.6148  0.2111
 6209TIP3    H240263   4.125   5.208   2.003 -0.6922  0.2981  0.4553
 6210TIP3   OH240264   0.149   6.555   1.949 -0.5235 -0.1082  0.0175
 6210TIP3    H140265   0.086   6.570   1.879 -1.8782  0.8519  1.3998
 6210TIP3    H240266   0.234   6.574   1.908 -1.1871 -0.3983 -1.5795
 6211TIP3   OH240267   4.911   2.071   8.292  0.6940 -0.1081  0.1191
 6211TIP3    H140268   4.853   2.125   8.346 -0.0153  0.0123 -0.7471
 6211TIP3    H240269   4.880   1.982   8.306  2.1285 -0.3895  1.8766
 6212TIP3   OH240270   1.195   2.880   1.122  0.5932 -0.0204 -0.2928
 6212TIP3    H140271   1.151   2.838   1.048  0.8583 -0.4792 -0.1927
 6212TIP3    H240272   1.127   2.934   1.163  0.0057 -1.0398  0.1025
 6213TIP3   OH240273   3.870   2.943   8.201 -0.4145 -0.0546  0.0314
 6213TIP3    H140274   3.964   2.933   8.212 -0.3793  1.0929  0.9710
 6213TIP3    H240275   3.843   2.864   8.155  1.0688 -0.1916 -0.6637
 6214TIP3   OH240276   4.172   1.286   2.202 -0.5228  0.7999 -0.0555
 6214TIP3    H140277   4.199   1.333   2.281 -1.7528 -0.6603  1.3066
 6214TIP3    H240278   4.098   1.336   2.168 -0.6359  0.8713  0.2981
 6215TIP3   OH240279   3.852   6.257   7.632 -0.3028  0.0730 -0.7187
 6215TIP3    H140280   3.764   6.237   7.602 -0.1400 -1.2375 -0.3651
 6215TIP3    H240281   3.881   6.178   7.677  0.6693  0.8451  0.0771
 6216TIP3   OH240282   0.612   2.004   7.761 -0.7413  0.3687  0.0238
 6216TIP3    H140283   0.521   2.015   7.733 -0.2700 -0.7619 -2.1645
 6216TIP3    H240284   0.658   2.078   7.722 -0.6813  0.9689  1.1738
 6217TIP3   OH240285   0.851   3.485   2.721 -0.0507 -0.1034 -0.4871
 6217TIP3    H140286   0.881   3.574   2.743  2.0807 -0.4663 -1.6665
 6217TIP3    H240287   0.886   3.430   2.791 -0.0336 -0.2159 -0.5844
 6218TIP3   OH240288   2.872   0.731   0.907 -0.2074  0.4579  0.3242
 6218TIP3    H140289   2.849   0.639   0.919 -0.6974  0.4789 -0.3816
 6218TIP3    H240290   2.892   0.738   0.813  1.0897  0.7971  0.6137
 6219TIP3   OH240291   1.000   2.204   7.822 -0.4555 -0.2283  0.0969
 6219TIP3    H140292   1.052   2.271   7.779 -0.9094 -1.2486 -2.2660
 6219TIP3    H240293   1.064   2.146   7.864  0.1752 -0.1128 -0.6775
 6220TIP3   OH240294   6.370   5.047   8.020 -0.5911  0.2158 -0.4491
 6220TIP3    H140295   6.343   4.960   7.993 -1.1513  0.3517 -0.3492
 6220TIP3    H240296   6.308   5.106   7.975 -0.2131  0.5595 -0.5241
 6221TIP3   OH240297   5.313   4.472   7.188  0.2468  0.2417 -0.3386
 6221TIP3    H140298   5.334   4.524   7.265  0.4663  0.7735 -0.7446
 6221TIP3    H240299   5.228   4.504   7.160 -0.0136 -0.2281 -0.0886
 6222TIP3   OH240300   4.019   2.050   8.089 -0.3471  0.1400 -0.5349
 6222TIP3    H140301   3.947   2.113   8.089  1.9172  2.9782 -2.2299
 6222TIP3    H240302   4.053   2.053   7.999  2.6614 -0.0499  0.4809
 6223TIP3   OH240303   3.483   1.426   1.569 -0.5461  0.8553 -1.2205
 6223TIP3    H140304   3.497   1.472   1.486  1.4464  0.2629 -1.2594
 6223TIP3    H240305   3.557   1.452   1.624 -1.2616  0.3985  0.0047
 6224TIP3   OH240306   4.149   4.123   7.231  0.6026  0.0496 -0.1095
 6224TIP3    H140307   4.143   4.036   7.194  0.3760 -0.5483  1.2722
 6224TIP3    H240308   4.219   4.166   7.181  1.4093 -1.2668 -0.1579
 6225TIP3   OH240309   3.645   2.883   1.840  0.0642  0.6857  0.1965
 6225TIP3    H140310   3.706   2.928   1.781 -0.6325  0.3688 -0.7981
 6225TIP3    H240311   3.699   2.820   1.887  0.8455  1.7479  0.7610
 6226TIP3   OH240312   0.467   5.409   2.518 -0.6063 -0.3310  0.6294
 6226TIP3    H140313   0.493   5.411   2.610 -1.9301  0.9886  0.9940
 6226TIP3    H240314   0.472   5.316   2.494  2.5037 -0.4197  1.1674
 6227TIP3   OH240315   2.137   1.498   1.908  0.0149 -0.1651  0.2698
 6227TIP3    H140316   2.195   1.489   1.833 -0.2438 -0.4701  0.1059
 6227TIP3    H240317   2.081   1.573   1.886 -0.6338 -0.7798 -0.2301
 6228TIP3   OH240318   2.952   5.589   1.903  0.7555 -0.3898 -0.3625
 6228TIP3    H140319   2.881   5.634   1.948  1.8347  2.4522 -1.2513
 6228TIP3    H240320   3.007   5.554   1.973  0.8453  1.3598  0.4864
 6229TIP3   OH240321   0.674   3.024   8.059 -0.2176  0.2305 -0.2712
 6229TIP3    H140322   0.735   3.042   8.130  1.1958 -1.8683 -0.8936
 6229TIP3    H240323   0.624   2.948   8.089 -1.7775  1.2053 -0.2707
 6230TIP3   OH240324   5.646   4.150   1.593  0.0159 -0.1071 -0.3516
 6230TIP3    H140325   5.645   4.129   1.499 -0.9839  2.5689 -1.0327
 6230TIP3    H240326   5.555   4.174   1.613  0.0470 -1.3971  1.5414
 6231TIP3   OH240327   1.822   2.543   0.760 -0.1571 -0.3552 -0.7422
 6231TIP3    H140328   1.729   2.547   0.739  0.0305 -0.4803 -1.6288
 6231TIP3    H240329   1.828   2.578   0.849 -0.8386  1.3578 -1.3159
 6232TIP3   OH240330   6.664   5.369   8.453  0.7248 -0.8944 -0.0856
 6232TIP3    H140331   6.587   5.336   8.500  0.4554  1.4502  1.2789
 6232TIP3    H240332   6.634   5.378   8.362  0.0628 -1.9612  0.0063
 6233TIP3   OH240333   4.020   5.706   0.504 -0.0016  0.0254  0.4344
 6233TIP3    H140334   4.026   5.650   0.426  3.9827  1.2582 -0.3664
 6233TIP3    H240335   4.033   5.646   0.577  3.6634 -0.4321 -0.3802
 6234TIP3   OH240336   4.300   6.002   2.237 -0.0817 -0.0602 -0.6169
 6234TIP3    H140337   4.325   6.081   2.189 -0.5821  1.5075  1.5821
 6234TIP3    H240338   4.207   6.013   2.255  0.5057  0.5734  2.6028
 6235TIP3   OH240339   6.159   5.086   8.330  0.6299 -0.2024  0.2172
 6235TIP3    H140340   6.134   5.154   8.393 -0.6821 -1.1878  0.8086
 6235TIP3    H240341   6.251   5.104   8.310  0.9316  0.4469  2.0235
 6236TIP3   OH240342   5.498   5.197   2.057  0.0578 -0.2068  0.7894
 6236TIP3    H140343   5.480   5.209   2.150  1.0803  0.4797  0.9229
 6236TIP3    H240344   5.505   5.103   2.045 -0.4636 -0.3177  1.3230
 6237TIP3   OH240345   0.770   1.119   2.298  0.2079 -0.1997 -0.8444
 6237TIP3    H140346   0.751   1.126   2.392  1.4461  1.2738 -0.6581
 6237TIP3    H240347   0.769   1.025   2.280 -1.4881 -0.4445  0.3102
 6238TIP3   OH240348   2.901   1.757   7.761 -0.0686 -0.3023  0.0243
 6238TIP3    H140349   2.872   1.760   7.669  0.9318 -0.8854 -0.3216
 6238TIP3    H240350   2.934   1.668   7.772 -0.6884 -0.4088  1.1219
 6239TIP3   OH240351   3.920   5.797   3.404 -0.0556 -0.0540 -0.0115
 6239TIP3    H140352   3.915   5.885   3.366  0.0161  0.9023  2.0904
 6239TIP3    H240353   3.901   5.809   3.497  0.5213 -2.1858  0.4407
 6240TIP3   OH240354   1.416   3.013   1.227  0.1762  0.1895 -0.3526
 6240TIP3    H140355   1.348   2.951   1.203  0.3581  0.3535 -1.3278
 6240TIP3    H240356   1.370   3.083   1.273 -0.2624  0.1077 -0.6579
 6241TIP3   OH240357   4.156   4.343   7.858  0.1022 -0.1657  0.0615
 6241TIP3    H140358   4.086   4.288   7.894 -2.9470  3.2901  0.0005
 6241TIP3    H240359   4.135   4.351   7.765  1.8055 -0.6254 -0.4029
 6242TIP3   OH240360   3.194   0.705   7.297  0.3926 -0.4458 -0.2578
 6242TIP3    H140361   3.150   0.706   7.212  0.5566 -0.2643 -0.3418
 6242TIP3    H240362   3.287   0.698   7.275  0.5352  0.7698 -0.1391
 6243TIP3   OH240363   3.816   5.914   0.289  0.2492  0.2476  0.3967
 6243TIP3    H140364   3.774   5.869   0.216 -0.0549  1.3738 -0.1539
 6243TIP3    H240365   3.787   5.866   0.366  0.6417 -1.0072 -0.2210
 6244TIP3   OH240366   3.924   6.054   3.543 -0.4625 -1.1486 -0.4833
 6244TIP3    H140367   3.950   6.057   3.635  1.4227 -2.8904 -0.9008
 6244TIP3    H240368   3.852   6.117   3.537  0.8815  0.7324  1.6701
 6245TIP3   OH240369   2.748   4.701   8.492 -0.1786 -0.3167 -0.0202
 6245TIP3    H140370   2.811   4.771   8.502 -0.2702 -0.4989  2.7200
 6245TIP3    H240371   2.681   4.737   8.434  0.1745  1.5828  0.6723
 6246TIP3   OH240372   1.857   3.650   0.623 -0.0316  0.5434 -0.0533
 6246TIP3    H140373   1.839   3.738   0.655 -2.9364 -0.1560  0.5475
 6246TIP3    H240374   1.791   3.595   0.665 -0.9712 -1.2590 -3.4795
 6247TIP3   OH240375   6.069   0.899   1.014  0.1876  0.1750  0.0119
 6247TIP3    H140376   6.073   0.855   0.929  1.9650 -0.0513  0.1777
 6247TIP3    H240377   6.131   0.971   1.007 -0.0934  0.5271  0.9345
 6248TIP3   OH240378   4.124   1.744   1.847  0.7241 -0.2359 -0.0781
 6248TIP3    H140379   4.179   1.821   1.861  1.0511 -0.6116  0.8549
 6248TIP3    H240380   4.171   1.673   1.892  0.8872 -1.1884 -1.6751
 6249TIP3   OH240381   3.063   4.319   1.660  0.0041  0.3889 -0.5283
 6249TIP3    H140382   3.049   4.225   1.663  0.4095  0.3289 -0.4409
 6249TIP3    H240383   2.976   4.357   1.670 -0.2223  0.0173 -1.0827
 6250TIP3   OH240384   0.072   6.079   7.674  0.0800 -0.6053  0.6026
 6250TIP3    H140385  -0.008   6.046   7.633 -0.2127 -0.9342  1.4096
 6250TIP3    H240386   0.093   6.013   7.741  0.5044 -0.0658  1.0088
 6251TIP3   OH240387   0.503   6.801   1.479 -0.2066 -0.1597  0.3767
 6251TIP3    H140388   0.581   6.857   1.485 -0.8768  0.8019  0.3667
 6251TIP3    H240389   0.444   6.836   1.546 -1.3282  0.2555 -0.7979
 6252TIP3   OH240390   1.572   1.150   3.171 -0.0560 -0.1983 -0.0170
 6252TIP3    H140391   1.541   1.237   3.194  1.0760  0.4925 -1.0074
 6252TIP3    H240392   1.619   1.161   3.089 -2.7460 -2.3240 -2.0439
 6253TIP3   OH240393   5.526   5.257   0.467 -0.7426  0.3089  0.4015
 6253TIP3    H140394   5.447   5.302   0.498 -1.7752 -1.7708  0.9361
 6253TIP3    H240395   5.531   5.178   0.521  0.1168 -1.0038 -1.5079
 6254TIP3   OH240396   5.989   1.655   8.388  0.5143 -0.0396 -0.2234
 6254TIP3    H140397   5.995   1.742   8.348 -0.8923 -1.0649 -2.9507
 6254TIP3    H240398   5.897   1.646   8.412  0.8044 -0.4992  0.7413
 6255TIP3   OH240399   1.824   1.700   8.093  0.5407  0.5788 -0.2544
 6255TIP3    H140400   1.896   1.661   8.143 -0.3696 -1.1520 -0.2160
 6255TIP3    H240401   1.770   1.744   8.159  0.6084  0.3328 -0.0333
 6256TIP3   OH240402   5.748   1.178   0.426  0.8226  0.1447  0.2211
 6256TIP3    H140403   5.809   1.107   0.449  0.7792 -0.8464 -2.3657
 6256TIP3    H240404   5.699   1.144   0.351 -1.2872  1.8380  0.7215
 6257TIP3   OH240405   5.209   4.966   1.604  0.3697 -0.0110 -0.2512
 6257TIP3    H140406   5.231   5.021   1.679 -1.5700 -0.4051  0.6645
 6257TIP3    H240407   5.237   4.878   1.629 -1.8839 -0.4852  0.8523
 6258TIP3   OH240408   2.044   4.737   2.282  0.2116 -0.3058  0.3547
 6258TIP3    H140409   2.064   4.771   2.369 -0.6819  1.8032 -0.2173
 6258TIP3    H240410   1.960   4.692   2.293 -1.6599  2.8214  0.0284
 6259TIP3   OH240411   1.203   0.659   8.517 -0.1861  0.1839 -0.4435
 6259TIP3    H140412   1.298   0.651   8.532 -0.1663  0.4175 -0.4291
 6259TIP3    H240413   1.182   0.747   8.549 -0.7675 -0.5804  1.3884
 6260TIP3   OH240414   5.378   6.798   0.995 -0.3239  0.4655  0.2423
 6260TIP3    H140415   5.309   6.804   0.928 -0.1836 -0.3925  0.0100
 6260TIP3    H240416   5.433   6.875   0.979 -0.0565  0.0641 -0.9237
 6261TIP3   OH240417   5.891   0.365   1.329 -0.0781  0.4404  0.0335
 6261TIP3    H140418   5.824   0.327   1.272  0.0324  2.8644 -1.8767
 6261TIP3    H240419   5.854   0.361   1.417 -1.6019 -0.6102 -0.6262
 6262TIP3   OH240420   4.268   1.042   2.137 -0.1864  0.1590  0.0971
 6262TIP3    H140421   4.218   1.117   2.171 -0.9184 -0.4388  0.3774
 6262TIP3    H240422   4.357   1.056   2.168 -0.4905  0.4996  0.8351
 6263TIP3   OH240423   6.677   4.258   1.174  0.4741 -0.4285  0.2623
 6263TIP3    H140424   6.746   4.192   1.168  1.2923  0.4643 -0.4039
 6263TIP3    H240425   6.655   4.279   1.083  0.2492  0.2401  0.4646
 6264TIP3   OH240426   4.263   0.337   7.767  0.4217 -0.2260 -0.5823
 6264TIP3    H140427   4.198   0.342   7.698  0.8057  0.7047 -0.8898
 6264TIP3    H240428   4.230   0.395   7.835  0.2544 -0.8163 -0.1503
 6265TIP3   OH240429   2.038   2.621   2.601  0.3231  0.2391 -0.3042
 6265TIP3    H140430   1.973   2.603   2.669 -1.0091  0.0416 -1.5553
 6265TIP3    H240431   2.081   2.702   2.629  2.0213 -1.4115  2.2834
 6266TIP3   OH240432   0.021   3.872   7.613  0.2146  0.1194  0.2774
 6266TIP3    H140433   0.113   3.898   7.622 -0.2448  1.6908  0.7249
 6266TIP3    H240434  -0.026   3.955   7.604 -1.0717 -0.6935 -0.8930
 6267TIP3   OH240435   5.883   0.196   8.491  1.3077 -0.1185  0.4227
 6267TIP3    H140436   5.841   0.240   8.564  2.1533  0.5543  0.5084
 6267TIP3    H240437   5.872   0.256   8.417 -0.8811 -1.4234 -0.4450
 6268TIP3   OH240438   5.480   6.253   7.289 -0.4124 -0.2918  0.5810
 6268TIP3    H140439   5.512   6.239   7.200 -0.4440  1.4432  0.2581
 6268TIP3    H240440   5.408   6.190   7.299  0.2956 -1.2547 -0.2185
 6269TIP3   OH240441   1.841   4.310   8.635  0.0571 -0.0577  0.3309
 6269TIP3    H140442   1.917   4.260   8.606  0.2188  0.9551 -1.0626
 6269TIP3    H240443   1.854   4.320   8.730  1.5985  0.0092  0.1265
 6270TIP3   OH240444   3.635   2.924   2.169  0.3281 -0.1563 -0.4691
 6270TIP3    H140445   3.569   2.947   2.234  0.0880  1.4839 -1.2501
 6270TIP3    H240446   3.606   2.840   2.134 -0.5987 -0.1042  0.1529
 6271TIP3   OH240447   0.247   6.265   7.780 -0.3716 -0.4522  0.0563
 6271TIP3    H140448   0.320   6.214   7.815 -0.9220 -1.4625 -0.2296
 6271TIP3    H240449   0.204   6.205   7.718 -0.1838  0.8418 -1.3808
 6272TIP3   OH240450   0.443   2.978   1.663 -0.3397  0.0657 -0.3171
 6272TIP3    H140451   0.504   2.913   1.628 -1.2854 -0.7932 -0.4543
 6272TIP3    H240452   0.357   2.937   1.651 -0.8347  0.6146  1.1999
 6273TIP3   OH240453   5.368   6.364   1.661  0.1827  0.1538  0.2836
 6273TIP3    H140454   5.421   6.428   1.709  0.3384 -0.5545  1.0869
 6273TIP3    H240455   5.429   6.293   1.642  0.1185  0.4160 -0.9811
 6274TIP3   OH240456   2.269   6.666   0.960 -0.2927 -0.0364  0.3521
 6274TIP3    H140457   2.236   6.738   0.907  0.6614 -0.2440 -0.5683
 6274TIP3    H240458   2.329   6.706   1.022  0.7731 -0.0921 -0.6169
 6275TIP3   OH240459   2.904   1.947   8.377  0.5525  0.4991 -0.6052
 6275TIP3    H140460   2.935   1.859   8.398 -1.8516 -0.2449  0.1601
 6275TIP3    H240461   2.922   1.998   8.455  0.3396  0.2059 -0.3609
 6276TIP3   OH240462   0.167   6.492   8.290  0.1932 -0.4622  0.2852
 6276TIP3    H140463   0.147   6.427   8.358 -0.1845 -0.6793 -0.0270
 6276TIP3    H240464   0.169   6.575   8.337 -2.4613 -0.2780  0.2194
 6277TIP3   OH240465   4.125   3.518   0.918 -0.7105  0.7677 -0.5696
 6277TIP3    H140466   4.212   3.536   0.955  0.1492 -0.4393 -1.8952
 6277TIP3    H240467   4.092   3.445   0.971 -0.1462  0.0671 -1.1602
 6278TIP3   OH240468   2.140   6.072   0.201 -0.4019  0.0409  0.0321
 6278TIP3    H140469   2.179   6.080   0.113 -2.1016  3.2521 -0.6198
 6278TIP3    H240470   2.213   6.085   0.261  0.7357 -1.8697 -0.8528
 6279TIP3   OH240471   2.067   4.776   2.561  0.6849 -0.7433 -0.7505
 6279TIP3    H140472   2.086   4.712   2.630 -1.6321  0.1193  0.8496
 6279TIP3    H240473   2.141   4.835   2.562  0.8334 -0.9072  0.8724
 6280TIP3   OH240474   5.397   4.250   1.632 -0.1817  0.4078 -0.2715
 6280TIP3    H140475   5.383   4.297   1.549 -0.5048  1.6087  0.4462
 6280TIP3    H240476   5.314   4.205   1.648 -0.0322 -0.0386 -0.7244
 6281TIP3   OH240477   0.334   4.625   8.443  0.9278 -0.5039 -0.1507
 6281TIP3    H140478   0.344   4.644   8.537 -0.7735 -0.9788  0.1703
 6281TIP3    H240479   0.281   4.545   8.441  2.6372 -1.6553 -1.5281
 6282TIP3   OH240480   4.363   4.544   0.671 -0.2061 -0.4662 -0.6696
 6282TIP3    H140481   4.310   4.543   0.591 -1.9884  0.7546  0.4430
 6282TIP3    H240482   4.338   4.465   0.718  1.6720 -1.7930 -1.7518
 6283TIP3   OH240483   6.326   2.695   1.591  0.7700  0.0360  0.4788
 6283TIP3    H140484   6.399   2.653   1.636  0.7282  0.4283  0.9308
 6283TIP3    H240485   6.362   2.776   1.556  1.0250 -0.7049 -1.0129
 6284TIP3   OH240486   6.517   6.370   1.548  0.1555  0.4319 -0.7754
 6284TIP3    H140487   6.449   6.303   1.549  0.3125  0.2387  1.4388
 6284TIP3    H240488   6.472   6.450   1.574  0.5206  0.5818 -0.5942
 6285TIP3   OH240489   5.982   3.408   2.195 -0.1740 -0.1750 -0.5736
 6285TIP3    H140490   5.933   3.489   2.207 -0.4584 -0.4223 -0.0733
 6285TIP3    H240491   6.000   3.405   2.101 -2.2955 -0.7560 -1.0050
 6286TIP3   OH240492   2.605   5.884   1.813  0.0733  0.1697  0.2686
 6286TIP3    H140493   2.514   5.859   1.830 -0.0369  0.5424  0.2493
 6286TIP3    H240494   2.651   5.801   1.803 -0.6448 -0.0557 -1.7332
 6287TIP3   OH240495   1.541   0.834   8.097  0.7754 -0.2428  0.0909
 6287TIP3    H140496   1.502   0.907   8.146  1.8315  0.0712  0.4787
 6287TIP3    H240497   1.550   0.764   8.161  1.2019 -0.1827  0.0993
 6288TIP3   OH240498   0.599   4.094   0.203  0.1732  0.4107  0.5071
 6288TIP3    H140499   0.557   4.033   0.143  0.0971 -2.1524  2.9403
 6288TIP3    H240500   0.691   4.066   0.206  0.3163  0.9173  1.0648
 6289TIP3   OH240501   4.720   4.587   1.261 -0.6050  0.0843 -0.1568
 6289TIP3    H140502   4.702   4.523   1.192  1.3107 -2.1421  1.2888
 6289TIP3    H240503   4.809   4.617   1.243  0.3915 -1.4142  1.8934
 6290TIP3   OH240504   3.258   5.807   0.602  0.2634  0.1991  0.5622
 6290TIP3    H140505   3.325   5.873   0.584  0.1870  0.3207  0.7309
 6290TIP3    H240506   3.261   5.794   0.697 -0.4508  0.7283  0.6629
 6291TIP3   OH240507   5.977   3.733   8.446  0.5154 -0.0756 -0.1675
 6291TIP3    H140508   5.979   3.829   8.450  1.2201 -0.1110  2.2239
 6291TIP3    H240509   5.895   3.709   8.488 -0.1485 -0.5388 -1.6732
 6292TIP3   OH240510   4.018   2.310   1.356 -0.6586  0.3761 -0.3191
 6292TIP3    H140511   3.998   2.395   1.316 -0.5711  0.8155  0.5502
 6292TIP3    H240512   4.052   2.332   1.442  2.2507 -0.3962 -1.1605
 6293TIP3   OH240513   1.053   2.645   8.512 -0.0291 -0.2249  0.5297
 6293TIP3    H140514   0.998   2.719   8.538 -0.2922 -0.4105  0.5116
 6293TIP3    H240515   1.128   2.648   8.572 -0.3584 -0.3219  0.9553
 6294TIP3   OH240516   6.488   5.901   2.543 -0.1533  0.2823 -0.0293
 6294TIP3    H140517   6.564   5.921   2.488 -0.2618  0.0130 -0.2804
 6294TIP3    H240518   6.423   5.968   2.520 -0.8790 -0.8876 -1.5846
 6295TIP3   OH240519   1.594   3.903   8.251 -0.9654 -0.2152 -0.4423
 6295TIP3    H140520   1.666   3.938   8.304 -1.9727  0.3512  0.5829
 6295TIP3    H240521   1.628   3.904   8.161  1.1982 -2.2857  0.2618
 6296TIP3   OH240522   5.493   4.294   0.565 -0.5830  0.1911  0.3465
 6296TIP3    H140523   5.572   4.255   0.529 -0.8647  0.9463 -1.1777
 6296TIP3    H240524   5.524   4.349   0.637 -0.1278 -2.2600  2.1640
 6297TIP3   OH240525   4.292   4.481   0.114 -0.1944 -0.8044 -0.0604
 6297TIP3    H140526   4.203   4.507   0.134  0.4391  2.3446 -0.8188
 6297TIP3    H240527   4.300   4.492   0.019  1.4711  0.8126  0.2117
 6298TIP3   OH240528   6.495   4.539   1.035  0.4790  0.5377 -0.2950
 6298TIP3    H140529   6.483   4.491   0.953 -2.0867  0.8771 -0.1844
 6298TIP3    H240530   6.586   4.522   1.059  1.1410 -0.0600 -2.8854
 6299TIP3   OH240531   2.152   2.807   8.805  0.1332  0.1568 -0.1465
 6299TIP3    H140532   2.230   2.802   8.861 -0.2390  2.0679  0.6227
 6299TIP3    H240533   2.143   2.719   8.768  1.9259 -0.4363  0.7287
 6300TIP3   OH240534   0.616   0.818   0.081  0.2230 -0.5667  0.0192
 6300TIP3    H140535   0.686   0.752   0.077  0.1949 -0.6953  1.3989
 6300TIP3    H240536   0.582   0.812   0.170 -0.4024  0.6850 -0.1184
 6301TIP3   OH240537   0.505   1.779   7.894 -0.0369  0.3564  0.4504
 6301TIP3    H140538   0.417   1.762   7.860  0.3873  0.4302 -0.7233
 6301TIP3    H240539   0.539   1.848   7.837  0.2165  1.4549  1.8697
 6302TIP3   OH240540   3.108   6.821   0.406  0.5827  0.6314  0.4576
 6302TIP3    H140541   3.125   6.733   0.373 -1.2344 -0.7109  2.7544
 6302TIP3    H240542   3.064   6.866   0.334 -0.1640 -0.9893 -0.1458
 6303TIP3   OH240543   4.207   4.127   3.116  0.2544  0.4380  0.8047
 6303TIP3    H140544   4.251   4.136   3.201  0.4224  2.2722  0.5750
 6303TIP3    H240545   4.135   4.190   3.120 -0.8830 -0.7943  0.2571
 6304TIP3   OH240546   4.785   3.300   1.365  0.0456  0.1314 -0.1780
 6304TIP3    H140547   4.817   3.211   1.354  0.2328  0.1783 -0.0156
 6304TIP3    H240548   4.727   3.296   1.441  1.4853  0.5126  0.9885
 6305TIP3   OH240549   6.002   3.681   0.588  0.0273 -0.2562 -0.4155
 6305TIP3    H140550   6.097   3.675   0.602  0.4803  2.2779 -1.8321
 6305TIP3    H240551   5.964   3.674   0.675  1.3362 -2.8254  0.0513
 6306TIP3   OH240552   4.993   1.213   2.605  0.1601  0.2672 -0.2204
 6306TIP3    H140553   4.967   1.296   2.565  0.6985  0.0369 -1.0629
 6306TIP3    H240554   5.080   1.230   2.640 -0.3599  0.5099  1.0226
 6307TIP3   OH240555   2.313   5.074   7.972 -0.2529 -0.2666  0.0657
 6307TIP3    H140556   2.324   5.111   7.885  2.1793  0.9471  0.8174
 6307TIP3    H240557   2.220   5.087   7.992 -0.5601  0.6689 -1.7701
 6308TIP3   OH240558   4.979   5.011   1.213 -0.1737  0.3952 -0.5475
 6308TIP3    H140559   4.921   4.961   1.156  0.8364 -1.3198 -0.1131
 6308TIP3    H240560   4.921   5.046   1.281 -1.1621  1.3140 -1.8004
 6309TIP3   OH240561   4.484   1.100   2.283  0.2345 -0.5226 -0.2998
 6309TIP3    H140562   4.441   1.044   2.348  1.6307 -2.9282 -1.3146
 6309TIP3    H240563   4.551   1.148   2.333 -0.9787  0.3146  0.5850
 6310TIP3   OH240564   3.139   5.944   1.760 -0.0133 -0.2128 -0.2019
 6310TIP3    H140565   3.057   5.968   1.716 -0.5749 -0.8572  0.4687
 6310TIP3    H240566   3.162   5.859   1.723 -0.6823 -0.9306  0.9787
 6311TIP3   OH240567   3.341   3.772   7.008 -0.4238 -0.3384  0.3717
 6311TIP3    H140568   3.410   3.799   6.947  0.3159 -2.2971  0.2703
 6311TIP3    H240569   3.264   3.757   6.952  0.9089 -4.6136 -0.6682
 6312TIP3   OH240570   6.372   4.692   8.156  0.2720  0.0894 -0.2078
 6312TIP3    H140571   6.388   4.737   8.073  0.6957  0.0608 -0.1471
 6312TIP3    H240572   6.317   4.751   8.206 -1.2173 -0.5071 -1.0608
 6313TIP3   OH240573   2.073   0.418   2.447  0.6144 -0.2743 -0.2233
 6313TIP3    H140574   2.000   0.388   2.392  0.6691 -2.8530  0.9704
 6313TIP3    H240575   2.145   0.433   2.385  0.0238 -0.8708 -1.0794
 6314TIP3   OH240576   3.931   3.959   3.104  0.2052  0.1726 -0.5514
 6314TIP3    H140577   4.018   3.993   3.124  0.6389 -0.8101 -0.7228
 6314TIP3    H240578   3.939   3.865   3.113 -1.0647  0.1101  0.2568
 6315TIP3   OH240579   4.551   3.154   1.805 -0.2515 -0.6655  0.0720
 6315TIP3    H140580   4.469   3.171   1.852  0.7021 -0.7529  1.8290
 6315TIP3    H240581   4.618   3.200   1.856  0.6526  0.5642 -2.0879
 6316TIP3   OH240582   5.466   1.626   3.111 -0.1040 -0.4666 -0.7850
 6316TIP3    H140583   5.484   1.557   3.048  0.8920 -0.1418 -0.8698
 6316TIP3    H240584   5.497   1.592   3.195 -1.8981 -1.1101 -0.3279
 6317TIP3   OH240585   6.040   3.204   3.287 -0.0973 -0.1137  1.0403
 6317TIP3    H140586   6.042   3.112   3.262  0.9600 -0.4197  2.1570
 6317TIP3    H240587   6.074   3.250   3.210 -1.5257 -0.5453  0.1212
 6318TIP3   OH240588   1.357   5.900   2.252 -0.2727  0.1550 -0.0648
 6318TIP3    H140589   1.438   5.851   2.239  0.1976  1.0321 -0.5238
 6318TIP3    H240590   1.370   5.980   2.202 -0.7660  1.0283  1.1616
 6319TIP3   OH240591   3.892   0.632   1.344 -0.5490  0.6159 -0.1747
 6319TIP3    H140592   3.848   0.633   1.430  1.9837 -2.1442  1.3220
 6319TIP3    H240593   3.939   0.715   1.342  3.7804 -1.2836  3.8928
 6320TIP3   OH240594   3.061   6.608   2.354 -0.2921  0.2071 -0.3677
 6320TIP3    H140595   3.147   6.569   2.367  0.9649  2.8876  0.0624
 6320TIP3    H240596   3.002   6.555   2.407  1.0487 -1.6854 -0.6549
 6321TIP3   OH240597   5.225   4.289   8.519  0.1336  0.0333 -0.0900
 6321TIP3    H140598   5.225   4.384   8.509  1.2974 -0.0528 -1.0932
 6321TIP3    H240599   5.282   4.272   8.594  0.2515  0.1037 -0.1638
 6322TIP3   OH240600   6.153   1.499   2.940 -0.2873 -0.0501  0.1021
 6322TIP3    H140601   6.062   1.527   2.926 -0.5773 -0.6680  0.6898
 6322TIP3    H240602   6.205   1.579   2.925 -0.8574  0.1488 -0.9004
 6323TIP3   OH240603   4.766   0.614   1.885 -0.3176  0.0670 -0.0279
 6323TIP3    H140604   4.818   0.676   1.936 -1.6015  1.3099 -0.1524
 6323TIP3    H240605   4.829   0.571   1.827  0.9561 -0.3906  1.6142
 6324TIP3   OH240606   3.097   2.685   2.993 -0.5901 -0.3156 -0.1314
 6324TIP3    H140607   3.128   2.680   3.084 -1.8273  0.3736  0.3602
 6324TIP3    H240608   3.038   2.610   2.983 -0.7120 -0.2045 -0.2548
 6325TIP3   OH240609   2.396   2.964   0.959 -0.2152 -0.8026 -0.1809
 6325TIP3    H140610   2.416   3.054   0.932 -0.2420 -1.3316 -2.0956
 6325TIP3    H240611   2.300   2.960   0.956 -0.1846 -1.3647 -1.9504
 6326TIP3   OH240612   0.207   5.908   0.519  0.2206 -0.8293  0.5148
 6326TIP3    H140613   0.228   5.815   0.528  1.6848 -0.4556  1.3093
 6326TIP3    H240614   0.282   5.946   0.473 -0.1108  0.0566  0.6734
 6327TIP3   OH240615   4.092   5.969   8.289  0.6133 -0.0986  0.4000
 6327TIP3    H140616   4.161   5.983   8.225  0.7673 -0.8039  0.4031
 6327TIP3    H240617   4.107   5.881   8.322 -0.9128 -0.6720 -0.3601
 6328TIP3   OH240618   2.192   2.353   7.987  0.5396 -0.1088 -0.1083
 6328TIP3    H140619   2.261   2.420   7.984 -0.7469  1.2347 -1.4092
 6328TIP3    H240620   2.168   2.339   7.896  0.1100 -1.6749  0.2179
 6329TIP3   OH240621   3.191   1.967   2.048 -0.3432  0.0973  0.3534
 6329TIP3    H140622   3.222   1.955   2.138 -0.1377  0.0252  0.2728
 6329TIP3    H240623   3.250   2.033   2.011  1.0572 -1.5645 -0.4749
 6330TIP3   OH240624   5.248   4.211   2.891  0.2813 -0.1039  0.1047
 6330TIP3    H140625   5.245   4.208   2.987 -1.0012  0.9820  0.1304
 6330TIP3    H240626   5.174   4.267   2.867 -0.0388 -1.1913 -1.5708
 6331TIP3   OH240627   5.186   2.146   2.249 -0.3772  0.1160  0.0398
 6331TIP3    H140628   5.276   2.172   2.267  0.0499 -0.5998 -0.9550
 6331TIP3    H240629   5.168   2.180   2.161 -0.7907 -0.4508 -0.1032
 6332TIP3   OH240630   4.742   0.730   0.534  1.0159  0.5641 -0.1439
 6332TIP3    H140631   4.765   0.744   0.442  0.4471  0.8432 -0.2487
 6332TIP3    H240632   4.826   0.716   0.577  1.2582  0.0300 -0.7697
 6333TIP3   OH240633   2.913   6.418   2.717  0.1413 -0.2614 -0.0535
 6333TIP3    H140634   2.980   6.353   2.694 -1.3090 -0.8283 -3.2715
 6333TIP3    H240635   2.872   6.384   2.796  1.1253 -1.8910 -0.1951
 6334TIP3   OH240636   0.218   0.171   2.714 -0.2781  0.3271  0.7110
 6334TIP3    H140637   0.166   0.095   2.741 -1.2430  1.5041  2.2863
 6334TIP3    H240638   0.153   0.236   2.686  0.5420  0.6001 -0.6827
 6335TIP3   OH240639   5.263   4.038   0.569  0.0308 -0.0122  0.6605
 6335TIP3    H140640   5.254   4.123   0.526  1.3086  0.4971  1.3621
 6335TIP3    H240641   5.215   4.047   0.651  0.1830  0.0261  0.7439
 6336TIP3   OH240642   3.026   0.963   2.426 -0.1324  0.3602  0.3205
 6336TIP3    H140643   2.994   0.957   2.516 -1.3229 -0.1873 -0.1203
 6336TIP3    H240644   2.974   1.032   2.386 -2.3309 -1.8922 -0.9767
 6337TIP3   OH240645   6.037   2.792   8.298  0.4626 -0.0623 -0.1809
 6337TIP3    H140646   6.108   2.761   8.355 -0.0867  1.0492  1.1865
 6337TIP3    H240647   5.964   2.806   8.358 -0.7197 -0.5467 -1.4630
 6338TIP3   OH240648   3.359   6.426   8.527 -0.1295  0.8400  0.2466
 6338TIP3    H140649   3.286   6.393   8.474 -0.3131  1.4649  0.1050
 6338TIP3    H240650   3.423   6.355   8.525 -0.6454  0.3633  0.2048
 6339TIP3   OH240651   0.225   1.301   2.605  0.1951  0.2093  0.0064
 6339TIP3    H140652   0.267   1.385   2.621 -0.4172  0.5096  0.0650
 6339TIP3    H240653   0.155   1.296   2.670 -0.8255  0.3907 -1.0407
 6340TIP3   OH240654   1.003   2.624   0.216  0.1920  0.0020  0.0673
 6340TIP3    H140655   0.946   2.676   0.160  1.4877 -0.1806 -1.4993
 6340TIP3    H240656   1.075   2.597   0.159  0.3717 -2.2170  1.2122
 6341TIP3   OH240657   5.666   2.364   0.516  0.3432  0.1729 -0.1815
 6341TIP3    H140658   5.625   2.406   0.441 -0.9003 -0.5001  0.0842
 6341TIP3    H240659   5.601   2.373   0.586  0.6452 -0.9098  0.2569
 6342TIP3   OH240660   4.586   4.871   1.225 -0.0844  0.1569  0.2335
 6342TIP3    H140661   4.672   4.855   1.184 -0.0652  0.6621  0.0612
 6342TIP3    H240662   4.528   4.806   1.186  0.4085 -0.7466  0.9841
 6343TIP3   OH240663   4.186   3.693   1.884 -0.1176  0.5530  0.1510
 6343TIP3    H140664   4.127   3.765   1.863  0.5658  0.8958 -0.6338
 6343TIP3    H240665   4.272   3.734   1.888  0.3316 -0.2854 -0.7060
 6344TIP3   OH240666   1.527   2.174   7.684 -0.2165  0.6847 -0.0569
 6344TIP3    H140667   1.447   2.143   7.643 -0.6233 -0.4358  1.5170
 6344TIP3    H240668   1.593   2.109   7.661  0.0447  1.1295 -0.5950
 6345TIP3   OH240669   1.127   0.010   0.266 -0.3616  0.2719  0.0043
 6345TIP3    H140670   1.219   0.012   0.242 -0.1807 -0.7803  0.5388
 6345TIP3    H240671   1.080   0.004   0.183  0.1226 -0.6820 -0.2066
 6346TIP3   OH240672   0.732   2.900   0.250 -0.0606 -0.0163 -0.2259
 6346TIP3    H140673   0.784   2.913   0.329 -0.9222 -3.2769  1.0255
 6346TIP3    H240674   0.641   2.896   0.281 -0.5476  0.0421 -1.5873
 6347TIP3   OH240675   6.180   0.086   2.045  0.0405  0.7125  0.9530
 6347TIP3    H140676   6.091   0.103   2.014 -0.7835  0.4854  3.0366
 6347TIP3    H240677   6.168   0.040   2.128  2.1354 -0.3535  0.7234
 6348TIP3   OH240678   5.283   2.770   2.183 -0.0587 -0.1856  0.1904
 6348TIP3    H140679   5.272   2.683   2.222  3.7351 -1.7821 -1.6938
 6348TIP3    H240680   5.354   2.810   2.232  1.4146 -0.2102 -1.7693
 6349TIP3   OH240681   4.167   5.769   8.467 -0.3669 -0.3807 -0.1437
 6349TIP3    H140682   4.243   5.712   8.470  0.6381  0.5782 -3.3150
 6349TIP3    H240683   4.094   5.710   8.444 -0.3200 -1.0575  1.3599
 6350TIP3   OH240684   3.823   6.605   8.687  0.1898  0.5005  0.2290
 6350TIP3    H140685   3.905   6.639   8.650  1.2261 -1.3792  0.6278
 6350TIP3    H240686   3.850   6.563   8.769 -0.9878 -1.0029 -0.1082
 6351TIP3   OH240687   3.744   6.291   8.357 -0.2147  0.2085  0.0441
 6351TIP3    H140688   3.723   6.296   8.263  0.7282 -1.1130 -0.2591
 6351TIP3    H240689   3.783   6.376   8.377 -2.8799  1.5459 -0.0941
 6352TIP3   OH240690   0.842   3.973   0.225 -0.1358  0.7251  0.2913
 6352TIP3    H140691   0.913   3.979   0.160 -0.2580 -0.4748  0.0204
 6352TIP3    H240692   0.875   3.913   0.291 -1.3060 -0.7756 -0.4220
 6353TIP3   OH240693   6.399   0.752   8.576  0.0747  0.3210  0.2390
 6353TIP3    H140694   6.343   0.829   8.578  1.3428  1.2559  0.9565
 6353TIP3    H240695   6.352   0.687   8.629 -1.6930  0.0477 -1.5382
 6354TIP3   OH240696   0.767   3.509   1.012 -0.3297 -0.4378 -0.2430
 6354TIP3    H140697   0.838   3.540   0.956  0.5646 -0.7629  0.6885
 6354TIP3    H240698   0.711   3.586   1.024  0.2049 -0.0081 -0.4761
 6355TIP3   OH240699   1.684   5.202   8.559 -0.1010  0.1575  0.1181
 6355TIP3    H140700   1.711   5.281   8.606  0.1170 -0.7468  1.5601
 6355TIP3    H240701   1.677   5.230   8.468  1.8417  1.3902  0.2887
 6356TIP3   OH240702   4.383   2.414   0.014 -0.4849 -0.2761 -0.2607
 6356TIP3    H140703   4.348   2.479   0.075  1.6546  0.7450 -0.0527
 6356TIP3    H240704   4.475   2.406   0.037 -0.2873 -2.0435 -1.4899
 6357TIP3   OH240705   2.856   4.572   8.721  0.2088 -0.1814  0.2204
 6357TIP3    H140706   2.857   4.640   8.788 -0.2976 -0.7560  0.8281
 6357TIP3    H240707   2.811   4.612   8.647  0.2264  0.2608  0.4443
 6358TIP3   OH240708   0.395   0.092   0.636 -0.3619 -0.3304  0.3437
 6358TIP3    H140709   0.436   0.167   0.592  0.8006 -1.7984 -1.2078
 6358TIP3    H240710   0.466   0.029   0.648 -0.7546 -0.3290  3.8423
 6359TIP3   OH240711   2.488   2.520   7.105  0.1508  0.7990  0.0447
 6359TIP3    H140712   2.493   2.498   7.012  1.1790 -1.4444  0.5593
 6359TIP3    H240713   2.441   2.447   7.144 -1.2200  2.2346  1.1722
 6360TIP3   OH240714   1.912   6.589   0.633  0.0315  0.1634  0.2511
 6360TIP3    H140715   2.002   6.591   0.599  0.3598 -0.0333  1.0793
 6360TIP3    H240716   1.889   6.496   0.637  0.0348  0.1778  0.6507
 6361TIP3   OH240717   1.721   3.036   7.668  0.1372 -0.3879  0.3145
 6361TIP3    H140718   1.645   3.094   7.656  0.6148  0.5180  1.4645
 6361TIP3    H240719   1.749   3.015   7.579 -2.1998 -1.7914 -0.1801
 6362TIP3   OH240720   4.009   4.840   3.374 -0.3391 -0.5006 -0.2656
 6362TIP3    H140721   3.925   4.884   3.363 -0.0106 -0.2159 -1.7787
 6362TIP3    H240722   4.054   4.890   3.442 -0.8550  0.1570 -0.4042
 6363TIP3   OH240723   6.590   4.082   0.295  0.0054 -0.1633 -0.3290
 6363TIP3    H140724   6.585   4.022   0.370  0.5615  0.5048  0.2596
 6363TIP3    H240725   6.538   4.158   0.321 -0.8850 -0.4643 -1.1655
 6364TIP3   OH240726   0.313   0.082   2.468  0.3049  0.0529 -0.1423
 6364TIP3    H140727   0.262   0.160   2.444  1.0635  0.2003 -1.3853
 6364TIP3    H240728   0.297   0.071   2.562 -1.9404  0.1305 -0.4464
 6365TIP3   OH240729   6.787   2.249   0.934  0.4203 -0.0800 -0.0977
 6365TIP3    H140730   6.760   2.309   1.003 -0.3790 -1.1916  0.5913
 6365TIP3    H240731   6.881   2.236   0.948  0.7927  1.6080 -0.7642
 6366TIP3   OH240732   0.418   4.657   8.696 -0.0713  0.1425  0.3552
 6366TIP3    H140733   0.482   4.698   8.755  1.6172 -0.3959 -1.0283
 6366TIP3    H240734   0.366   4.600   8.753  1.2298 -0.0327  1.4079
 6367TIP3   OH240735   6.293   1.041   2.667 -0.5514  0.5274  0.3477
 6367TIP3    H140736   6.244   1.118   2.695 -1.3552 -0.0115  0.4440
 6367TIP3    H240737   6.383   1.059   2.695 -0.4050  2.0914 -0.9602
 6368TIP3   OH240738   2.342   2.960   2.281 -0.1265 -0.6774  0.2539
 6368TIP3    H140739   2.403   2.989   2.214 -0.1397  0.5093  0.7306
 6368TIP3    H240740   2.296   3.039   2.308 -0.1975 -1.1488  1.5926
 6369TIP3   OH240741   0.057   6.075   0.144  0.1649  0.4257  0.0184
 6369TIP3    H140742   0.057   6.044   0.234  0.9662 -1.0344 -0.4604
 6369TIP3    H240743   0.115   6.015   0.097 -0.2477  1.1375 -1.4780
 6370TIP3   OH240744   1.650   1.673   1.589 -0.2824  0.8115  0.7484
 6370TIP3    H140745   1.647   1.630   1.675 -0.6334 -2.3416 -0.7027
 6370TIP3    H240746   1.581   1.631   1.539 -0.1143  2.6056 -1.1183
 6371TIP3   OH240747   6.686   5.872   2.305  0.3214  0.4801 -0.4458
 6371TIP3    H140748   6.627   5.845   2.235 -1.4517  0.7542  0.8599
 6371TIP3    H240749   6.745   5.798   2.317 -1.6505 -1.0935  0.1402
 6372TIP3   OH240750   0.376   5.599   3.286 -0.2660 -0.3658 -0.6518
 6372TIP3    H140751   0.421   5.640   3.212 -0.3737 -0.8983 -1.0145
 6372TIP3    H240752   0.442   5.542   3.325  0.2974  1.0894  0.6458
 6373TIP3   OH240753   1.264   0.593   8.135  0.0333 -0.5743 -0.0236
 6373TIP3    H140754   1.180   0.556   8.164  0.0227 -0.9512 -0.5295
 6373TIP3    H240755   1.240   0.655   8.066  0.0642  0.2844  0.7186
 6374TIP3   OH240756   5.224   6.493   8.664  0.3689 -0.0129  0.4891
 6374TIP3    H140757   5.163   6.567   8.665  1.1646  0.6651 -0.0159
 6374TIP3    H240758   5.179   6.425   8.714 -1.0370  0.2806 -0.3174
 6375TIP3   OH240759   4.068   2.910   8.595  0.3059 -0.4436  0.6536
 6375TIP3    H140760   4.143   2.913   8.536 -0.0052  0.9581  0.3044
 6375TIP3    H240761   4.072   2.993   8.643 -1.4059 -0.0487  0.1499
 6376TIP3   OH240762   5.894   0.008   2.163 -0.5833  0.1521 -0.8320
 6376TIP3    H140763   5.971   0.032   2.214 -1.8268  2.4653  0.0607
 6376TIP3    H240764   5.873   0.086   2.111 -2.3400 -0.4082 -1.0422
 6377TIP3   OH240765   0.314   4.381   1.672 -0.2395 -0.2642  0.2646
 6377TIP3    H140766   0.230   4.343   1.697 -1.4210  1.0631 -1.4077
 6377TIP3    H240767   0.355   4.315   1.616 -1.1001 -0.1331 -0.5384
 6378TIP3   OH240768   1.176   4.600   2.668  0.3797 -0.4462 -0.1274
 6378TIP3    H140769   1.202   4.652   2.592 -0.4480 -0.1730 -0.2328
 6378TIP3    H240770   1.160   4.513   2.632  1.6563 -0.7658  0.0304
 6379TIP3   OH240771   2.740   2.889   2.309  0.4223  0.3728  0.7529
 6379TIP3    H140772   2.699   2.893   2.223  1.3335 -0.5464  0.2534
 6379TIP3    H240773   2.667   2.900   2.371 -0.7680 -2.0742 -0.0765
 6380TIP3   OH240774   4.535   5.003   1.654 -0.0250 -1.1602 -0.4471
 6380TIP3    H140775   4.521   5.059   1.578 -0.2241 -0.1827  0.2867
 6380TIP3    H240776   4.449   4.996   1.696  0.7326  1.6193  1.8771
 6381TIP3   OH240777   5.387   4.484   7.905  0.1183 -0.1011  0.3541
 6381TIP3    H140778   5.333   4.562   7.920 -0.7534 -0.8853  1.5021
 6381TIP3    H240779   5.337   4.432   7.842 -0.4749 -0.7895  1.3552
 6382TIP3   OH240780   2.851   1.157   2.308 -0.0189 -0.8349 -0.2150
 6382TIP3    H140781   2.875   1.248   2.291  1.1321 -0.9842  0.4826
 6382TIP3    H240782   2.757   1.159   2.325  0.0722  0.2816  0.2040
 6383TIP3   OH240783   4.086   1.249   8.390 -0.0806 -0.0580  0.0267
 6383TIP3    H140784   4.163   1.214   8.436  0.4747 -1.5913 -1.9490
 6383TIP3    H240785   4.037   1.171   8.363 -0.5326  0.7749 -1.6777
 6384TIP3   OH240786   3.062   0.450   0.291  0.0615  0.3091  0.3526
 6384TIP3    H140787   3.089   0.522   0.348 -1.2764  1.0370  0.1125
 6384TIP3    H240788   3.070   0.486   0.202 -1.4352  0.4951  0.2649
 6385TIP3   OH240789   4.037   2.233   2.543  0.4100 -0.4225 -0.2182
 6385TIP3    H140790   4.089   2.197   2.615 -0.2528 -0.2598  0.3489
 6385TIP3    H240791   4.018   2.158   2.487  0.7603 -0.5837 -0.1290
 6386TIP3   OH240792   4.075   4.183   1.615  0.1335  0.4639  0.0935
 6386TIP3    H140793   4.113   4.236   1.546 -1.9986 -0.6674 -2.1304
 6386TIP3    H240794   4.118   4.098   1.607 -0.0792  0.3457  0.1815
 6387TIP3   OH240795   1.798   2.935   0.918 -0.1434  0.1796  0.2849
 6387TIP3    H140796   1.793   2.894   0.831  0.1441  3.0226 -1.2041
 6387TIP3    H240797   1.744   2.880   0.974 -0.0198 -1.9957 -1.5759
 6388TIP3   OH240798   4.988   3.787   7.064  0.2556  0.1561 -0.0423
 6388TIP3    H140799   5.063   3.727   7.063 -0.1730 -0.3946  0.1648
 6388TIP3    H240800   4.912   3.731   7.048 -0.3167  0.3958  1.6436
 6389TIP3   OH240801   1.104   6.656   1.017  0.0115  0.3242 -0.6002
 6389TIP3    H140802   1.088   6.750   1.016 -1.5006  0.1514  1.7087
 6389TIP3    H240803   1.193   6.647   0.982  0.6048  2.6950  0.1232
 6390TIP3   OH240804   1.357   4.061   2.585 -0.7686 -0.3914 -0.0918
 6390TIP3    H140805   1.309   4.140   2.562  0.1283  0.3899  0.6395
 6390TIP3    H240806   1.297   3.989   2.565 -1.6223  0.4729 -0.6889
 6391TIP3   OH240807   5.469   2.861   0.811 -0.0888 -0.7925  0.0084
 6391TIP3    H140808   5.496   2.775   0.781 -1.0543 -1.2165  0.3140
 6391TIP3    H240809   5.387   2.878   0.764  1.2816  1.0524 -1.9494
 6392TIP3   OH240810   4.069   6.228   0.073  0.0782 -0.5643  0.4674
 6392TIP3    H140811   4.144   6.285   0.052  1.3094 -0.8677  3.4459
 6392TIP3    H240812   4.015   6.281   0.131 -0.3862 -1.3801  0.7912
 6393TIP3   OH240813   6.158   3.398   1.675  0.2746 -0.6801 -0.1185
 6393TIP3    H140814   6.085   3.456   1.652  1.7466  0.8922 -1.1045
 6393TIP3    H240815   6.178   3.421   1.766  1.5243  1.2862 -0.8007
 6394TIP3   OH240816   1.478   0.115   7.391 -0.5817 -0.2930  0.8263
 6394TIP3    H140817   1.548   0.084   7.449  0.5200  1.9927  0.8556
 6394TIP3    H240818   1.428   0.036   7.370  1.0359 -1.7673  2.1000
 6395TIP3   OH240819   2.584   3.112   1.157 -0.6152  0.5150  0.0989
 6395TIP3    H140820   2.636   3.036   1.129  1.5670  0.9058  2.7269
 6395TIP3    H240821   2.519   3.075   1.217 -0.3395  0.5918  0.4424
 6396TIP3   OH240822   4.946   3.858   2.597  0.1042  0.1373 -0.2272
 6396TIP3    H140823   4.896   3.937   2.619  0.8235  0.6601 -0.4583
 6396TIP3    H240824   5.037   3.881   2.614  0.1916 -1.1948  1.3259
 6397TIP3   OH240825   4.204   1.774   2.970 -0.2118 -0.5031 -0.2321
 6397TIP3    H140826   4.117   1.801   3.000  0.2142  0.2928  0.3270
 6397TIP3    H240827   4.220   1.692   3.017  0.2948  0.5443  1.5020
 6398TIP3   OH240828   2.322   3.421   0.680 -0.1939 -0.1620  0.2521
 6398TIP3    H140829   2.350   3.477   0.753  0.4489  0.1339 -0.2119
 6398TIP3    H240830   2.280   3.346   0.722  0.3742 -0.1069  0.9396
 6399TIP3   OH240831   4.352   2.699   0.973  0.6054 -0.1426  0.1699
 6399TIP3    H140832   4.263   2.663   0.976  1.3685 -2.0569  1.7727
 6399TIP3    H240833   4.339   2.794   0.977 -1.3954 -0.2841 -1.3230
 6400TIP3   OH240834   5.229   3.262   7.742  0.7545  0.0375 -0.4379
 6400TIP3    H140835   5.242   3.229   7.653  1.9286 -0.1721 -0.1970
 6400TIP3    H240836   5.317   3.280   7.775  0.3782 -0.3609  0.8575
 6401TIP3   OH240837   0.159   2.732   8.673  0.5262 -0.7265  0.1403
 6401TIP3    H140838   0.096   2.707   8.606 -0.3726  0.9894  0.2886
 6401TIP3    H240839   0.244   2.713   8.634 -0.0140 -0.8505 -1.0355
 6402TIP3   OH240840   2.341   0.805   7.386 -0.4059 -0.2697 -0.7574
 6402TIP3    H140841   2.283   0.879   7.368  1.6982  1.1612 -2.0216
 6402TIP3    H240842   2.420   0.823   7.335  0.4328 -3.1028 -0.6191
 6403TIP3   OH240843   1.769   5.935   7.428  0.5665 -0.2799  0.4512
 6403TIP3    H140844   1.839   5.961   7.369 -0.7640  3.0945  0.1853
 6403TIP3    H240845   1.795   5.971   7.513 -0.1546 -0.3037  0.6848
 6404TIP3   OH240846   2.985   4.180   1.141  0.1069  0.3501 -0.3772
 6404TIP3    H140847   3.043   4.250   1.111  2.4657 -0.6822  1.4045
 6404TIP3    H240848   2.979   4.192   1.235  2.2396 -2.8322  0.3344
 6405TIP3   OH240849   1.109   6.113   7.756 -0.3634  0.0418 -0.0994
 6405TIP3    H140850   1.045   6.184   7.764  0.6242  1.0775 -1.1192
 6405TIP3    H240851   1.103   6.086   7.664  1.3681  0.8534 -0.4740
 6406TIP3   OH240852   4.554   1.419   7.807  0.5375 -0.1441  0.5833
 6406TIP3    H140853   4.472   1.388   7.845 -0.3247 -2.2911 -2.5891
 6406TIP3    H240854   4.611   1.342   7.806  0.5565 -0.1814 -2.1296
 6407TIP3   OH240855   2.141   0.916   1.270 -0.7339  0.3760  0.3854
 6407TIP3    H140856   2.201   0.842   1.262  2.2146  2.5625  0.3420
 6407TIP3    H240857   2.074   0.900   1.204 -0.6275 -2.5231  0.8353
 6408TIP3   OH240858   2.182   2.368   1.329  0.1142 -0.3519 -0.9026
 6408TIP3    H140859   2.277   2.376   1.340 -0.1070 -0.0233  1.1333
 6408TIP3    H240860   2.156   2.300   1.391 -1.0058 -0.4209 -1.4112
 6409TIP3   OH240861   1.018   4.748   1.291  0.0392  0.4351 -0.2409
 6409TIP3    H140862   0.933   4.749   1.246  0.2015  1.5055 -0.5490
 6409TIP3    H240863   1.042   4.840   1.299  1.0228  0.1557  0.1383
 6410TIP3   OH240864   0.148   5.401   3.205  0.4669 -0.3196  0.3013
 6410TIP3    H140865   0.212   5.472   3.207  0.1217  0.0981 -1.4932
 6410TIP3    H240866   0.063   5.444   3.199  0.2700 -0.8443 -1.1287
 6411TIP3   OH240867   0.788   6.514   1.076  0.4211 -0.1421  0.4296
 6411TIP3    H140868   0.793   6.419   1.085  0.2659 -0.1199  0.7666
 6411TIP3    H240869   0.875   6.545   1.102 -0.2258 -0.0234  2.7142
 6412TIP3   OH240870   4.571   3.667   8.021 -0.4396  0.3460  0.1946
 6412TIP3    H140871   4.508   3.620   8.074 -0.8117  1.2659  0.5943
 6412TIP3    H240872   4.656   3.629   8.044 -0.6855  0.1848  0.8474
 6413TIP3   OH240873   1.702   3.681   0.188 -0.0727 -0.0510  0.5915
 6413TIP3    H140874   1.657   3.624   0.125  0.8602 -0.4102  0.2304
 6413TIP3    H240875   1.761   3.622   0.236  0.2668  0.4593  0.8118
 6414TIP3   OH240876   3.236   5.779   3.132  0.0473 -0.0938 -0.4679
 6414TIP3    H140877   3.267   5.695   3.165 -0.9168 -0.3558 -0.2012
 6414TIP3    H240878   3.294   5.844   3.172  1.4472 -0.6727 -1.4513
 6415TIP3   OH240879   3.661   1.108   3.082  0.7429 -0.1779 -0.2214
 6415TIP3    H140880   3.712   1.189   3.087  1.1577 -0.3756 -1.1715
 6415TIP3    H240881   3.594   1.126   3.016  2.4367 -1.4545 -2.4044
 6416TIP3   OH240882   0.477   1.984   3.248 -0.2260 -0.1018 -0.0119
 6416TIP3    H140883   0.558   1.942   3.277  0.8723 -0.4250 -3.2558
 6416TIP3    H240884   0.492   2.078   3.263 -0.3539 -0.3335  1.7982
 6417TIP3   OH240885   1.944   0.595   0.574  0.4841 -0.0246 -0.4373
 6417TIP3    H140886   1.853   0.608   0.547 -0.7959 -0.7826  2.9516
 6417TIP3    H240887   1.970   0.680   0.609  1.0501  0.1450 -1.2575
 6418TIP3   OH240888   6.005   4.310   0.553 -0.2068 -0.5916  0.0810
 6418TIP3    H140889   6.059   4.234   0.532 -0.9446 -1.8055  2.1857
 6418TIP3    H240890   6.058   4.361   0.615 -1.2362 -1.6199  1.9010
 6419TIP3   OH240891   6.706   0.559   1.326 -0.4994 -0.2313  0.3768
 6419TIP3    H140892   6.707   0.654   1.313 -1.3027 -0.2769 -0.1256
 6419TIP3    H240893   6.703   0.547   1.420  0.0255  0.2353  0.4557
 6420TIP3   OH240894   5.270   4.242   3.168 -1.0515 -0.7538  0.1577
 6420TIP3    H140895   5.305   4.190   3.240  0.0197 -0.6700 -0.2823
 6420TIP3    H240896   5.292   4.333   3.192  0.0587 -0.7874 -0.6469
 6421TIP3   OH240897   1.856   4.300   1.603 -0.5946 -0.4263  0.1074
 6421TIP3    H140898   1.829   4.391   1.590 -0.7458 -0.2352  1.6121
 6421TIP3    H240899   1.951   4.304   1.610 -0.6359 -0.3148  0.6388
 6422TIP3   OH240900   1.178   0.404   8.641  0.4268 -0.0021 -0.6645
 6422TIP3    H140901   1.187   0.497   8.622 -0.3556  0.3518  0.6169
 6422TIP3    H240902   1.180   0.362   8.555 -3.1756  1.5351 -1.6993
 6423TIP3   OH240903   3.022   5.922   0.278  0.0386  0.0387  0.2000
 6423TIP3    H140904   3.020   5.832   0.311  5.1078 -0.4611 -0.0756
 6423TIP3    H240905   3.052   5.974   0.352  1.6375  0.6523 -0.8279
 6424TIP3   OH240906   4.209   3.919   0.019  0.1880 -0.1265  0.0267
 6424TIP3    H140907   4.135   3.860   0.004 -0.5278  0.6741  0.2645
 6424TIP3    H240908   4.179   4.003  -0.014  1.2499  0.0722 -0.4525
 6425TIP3   OH240909   5.456   0.345   2.365 -0.1031 -0.7721 -0.5443
 6425TIP3    H140910   5.445   0.344   2.460 -2.1248 -2.5448 -0.7090
 6425TIP3    H240911   5.387   0.403   2.333  1.6821  1.2462 -0.8944
 6426TIP3   OH240912   4.368   1.238   0.751  0.4451  0.0138  0.0502
 6426TIP3    H140913   4.383   1.191   0.669  0.3551 -0.3680  0.2495
 6426TIP3    H240914   4.409   1.324   0.737  0.5887 -0.1121 -0.3269
 6427TIP3   OH240915   6.244   4.499   2.510 -0.4146 -0.0922  0.2343
 6427TIP3    H140916   6.179   4.434   2.536 -0.4560  0.3942  1.3679
 6427TIP3    H240917   6.205   4.584   2.532 -0.4852  0.3758 -1.4827
 6428TIP3   OH240918   0.746   1.469   8.766  0.0839 -0.0598 -0.6833
 6428TIP3    H140919   0.797   1.521   8.828 -1.7621 -0.2826  1.1214
 6428TIP3    H240920   0.713   1.533   8.703 -0.2146  0.6304  0.1444
 6429TIP3   OH240921   4.457   3.279   1.071  0.8018  0.4520  0.3524
 6429TIP3    H140922   4.483   3.369   1.092  0.0174  0.3761  1.8098
 6429TIP3    H240923   4.477   3.229   1.150 -1.2306 -0.1118  0.5862
 6430TIP3   OH240924   6.526   5.027   0.512 -0.4924 -0.5876 -0.5653
 6430TIP3    H140925   6.462   5.023   0.584 -0.8893  1.2703 -0.7403
 6430TIP3    H240926   6.594   5.086   0.545 -0.9114  0.6619 -1.8414
 6431TIP3   OH240927   6.780   3.724   8.254  0.0947 -0.1203  0.1006
 6431TIP3    H140928   6.853   3.678   8.296 -0.9677 -0.2467  1.9376
 6431TIP3    H240929   6.820   3.769   8.179  1.4504 -2.7636 -0.8904
 6432TIP3   OH240930   5.633   3.361   2.513  0.0772  0.3677  0.5176
 6432TIP3    H140931   5.571   3.429   2.486 -2.0530 -1.3573  0.7283
 6432TIP3    H240932   5.673   3.331   2.431  0.9358  1.7152  0.4129
 6433TIP3   OH240933   1.303   5.813   0.850 -0.9423  0.1765  0.6700
 6433TIP3    H140934   1.242   5.844   0.917 -1.0538 -0.1635  0.7281
 6433TIP3    H240935   1.277   5.723   0.834 -0.1573 -0.1227  1.0420
 6434TIP3   OH240936   3.898   5.707   8.318 -0.3005 -0.3981 -0.0866
 6434TIP3    H140937   3.811   5.687   8.283 -0.2854 -0.5771 -0.0221
 6434TIP3    H240938   3.957   5.697   8.243 -0.1603 -1.5523  0.1553
 6435TIP3   OH240939   1.665   2.451   8.254 -0.4752  0.3665  0.4052
 6435TIP3    H140940   1.674   2.476   8.162 -1.0412 -0.3045  0.1601
 6435TIP3    H240941   1.572   2.428   8.264 -0.4176  0.4277  1.1418
 6436TIP3   OH240942   0.556   5.434   1.390  0.1166 -0.2019 -0.1166
 6436TIP3    H140943   0.484   5.372   1.402  0.9278 -1.3345 -0.8740
 6436TIP3    H240944   0.561   5.446   1.295 -0.3582  1.4714  0.0366
 6437TIP3   OH240945   0.835   6.236   0.999  0.1963  0.0295  0.1981
 6437TIP3    H140946   0.761   6.283   0.959 -0.5773 -1.9707 -0.8561
 6437TIP3    H240947   0.912   6.273   0.957 -0.4237 -0.0147 -1.0297
 6438TIP3   OH240948   3.430   6.801   7.614  0.4004  0.3656  0.2109
 6438TIP3    H140949   3.379   6.882   7.616 -2.6540 -1.4309  1.5725
 6438TIP3    H240950   3.519   6.828   7.637 -0.2813  3.4066 -0.2587
 6439TIP3   OH240951   4.478   6.302   7.385 -0.9287  1.1468  0.0149
 6439TIP3    H140952   4.472   6.213   7.420 -2.4029  0.7975 -1.0307
 6439TIP3    H240953   4.571   6.323   7.389 -0.4888 -0.6294 -0.1751
 6440TIP3   OH240954   5.188   1.748   2.212  0.3041  0.4695 -0.2452
 6440TIP3    H140955   5.097   1.764   2.186 -0.8795 -1.5035  2.2043
 6440TIP3    H240956   5.213   1.670   2.163 -0.8017 -1.3360  1.8943
 6441TIP3   OH240957   1.868   2.075   7.428  0.1486  0.2299 -0.3744
 6441TIP3    H140958   1.961   2.093   7.443 -0.3024  1.3983  1.3595
 6441TIP3    H240959   1.834   2.155   7.389 -0.4570  0.5276  0.6991
 6442TIP3   OH240960   5.283   0.596   8.663  0.1232  0.4736  0.5591
 6442TIP3    H140961   5.330   0.660   8.610  1.7164  0.1371  1.4998
 6442TIP3    H240962   5.235   0.648   8.728  0.9185  0.7556  0.9323
 6443TIP3   OH240963   4.462   5.801   1.599 -0.7435  0.2816 -0.0101
 6443TIP3    H140964   4.455   5.743   1.523 -0.4146  0.0180  0.1609
 6443TIP3    H240965   4.555   5.805   1.618 -0.9464 -1.1917  1.5506
 6444TIP3   OH240966   6.523   6.617   0.571 -0.0166 -0.4479  0.0901
 6444TIP3    H140967   6.542   6.570   0.652  1.5161 -0.3836 -0.2023
 6444TIP3    H240968   6.588   6.585   0.509 -0.7141  0.0278 -0.9200
 6445TIP3   OH240969   5.422   5.144   2.319  0.6764 -0.4183  0.0737
 6445TIP3    H140970   5.329   5.146   2.296  0.6063 -0.5784  0.3442
 6445TIP3    H240971   5.423   5.128   2.413  0.9839 -0.8481  0.0021
 6446TIP3   OH240972   6.820   4.604   2.051 -0.9808 -0.4805  0.3938
 6446TIP3    H140973   6.809   4.633   1.961  0.8834  0.9594  0.5644
 6446TIP3    H240974   6.894   4.543   2.048  0.8576  1.5649  1.2234
 6447TIP3   OH240975   4.285   1.658   2.719 -0.5122  0.0715  0.6201
 6447TIP3    H140976   4.358   1.650   2.780  1.4651 -1.3813 -1.7503
 6447TIP3    H240977   4.207   1.661   2.775  0.8921 -3.7582  3.2245
 6448TIP3   OH240978   0.017   0.558   2.142 -0.1951 -0.1251 -0.4861
 6448TIP3    H140979   0.092   0.498   2.145 -0.6035 -0.6184 -0.0083
 6448TIP3    H240980  -0.045   0.517   2.082 -0.9562 -0.7622  0.7087
 6449TIP3   OH240981   2.440   3.814   8.723  0.1094  0.0681 -0.0265
 6449TIP3    H140982   2.357   3.767   8.729  0.5581 -0.7943 -0.4252
 6449TIP3    H240983   2.440   3.872   8.800 -0.2905 -0.8373  0.6760
 6450TIP3   OH240984   1.207   4.456   1.820  0.0430 -0.1621 -0.3114
 6450TIP3    H140985   1.120   4.484   1.849  0.4824  0.6817  0.1864
 6450TIP3    H240986   1.261   4.458   1.898  0.3962 -1.2044 -0.5116
 6451TIP3   OH240987   3.478   4.124   7.750  0.0291  0.0339  0.5054
 6451TIP3    H140988   3.421   4.062   7.795 -0.9870 -0.0240 -0.7977
 6451TIP3    H240989   3.482   4.092   7.659 -0.1563  1.6032 -0.0854
 6452TIP3   OH240990   1.682   1.781   2.623  0.6490 -0.1240 -0.3955
 6452TIP3    H140991   1.586   1.783   2.625  0.6016  3.0180 -1.0326
 6452TIP3    H240992   1.709   1.805   2.711  0.6735  3.3621 -1.2221
 6453TIP3   OH240993   2.677   0.583   1.838  0.1058 -0.3138  0.0444
 6453TIP3    H140994   2.759   0.549   1.876  0.2237 -0.0431  0.0364
 6453TIP3    H240995   2.613   0.514   1.853  0.7699 -1.3643 -1.6514
 6454TIP3   OH240996   3.429   5.446   0.477  0.0613 -0.5835 -0.1632
 6454TIP3    H140997   3.433   5.542   0.480 -1.5075 -0.5025  0.0715
 6454TIP3    H240998   3.507   5.420   0.428  0.6326  0.7917 -0.0233
 6455TIP3   OH240999   1.742   3.886   1.506 -0.1076 -0.7073 -0.1430
 6455TIP3    H141000   1.834   3.863   1.516 -0.2970 -2.5428 -1.9445
 6455TIP3    H241001   1.695   3.825   1.564 -0.2646 -0.8533 -0.4193
 6456TIP3   OH241002   1.381   4.455   8.498  0.1848 -0.2015  0.3294
 6456TIP3    H141003   1.311   4.481   8.438  0.1210 -0.4630  0.2880
 6456TIP3    H241004   1.341   4.389   8.554  0.5389 -0.7257 -0.0286
 6457TIP3   OH241005   0.511   3.778   3.320 -0.5365 -0.4544  0.7213
 6457TIP3    H141006   0.589   3.751   3.369 -0.6666 -1.8057  0.2409
 6457TIP3    H241007   0.446   3.798   3.388  0.4983  1.7029  1.1513
 6458TIP3   OH241008   6.731   5.237   2.037  0.3167 -0.0423 -0.0859
 6458TIP3    H141009   6.721   5.323   1.998 -1.3297  0.4809  1.3380
 6458TIP3    H241010   6.812   5.242   2.087  0.7048  0.3641 -0.7464
 6459TIP3   OH241011   0.889   4.150   1.597  0.5229  0.1824 -0.1803
 6459TIP3    H141012   0.902   4.057   1.580 -1.3274  0.0225 -1.0476
 6459TIP3    H241013   0.975   4.183   1.622  1.2893 -1.6764 -0.2242
 6460TIP3   OH241014   2.333   3.235   7.865 -0.4560 -0.1641  0.2004
 6460TIP3    H141015   2.348   3.327   7.887  0.8312 -0.6737  1.5796
 6460TIP3    H241016   2.270   3.204   7.930  0.7402 -0.7884  1.0935
 6461TIP3   OH241017   3.277   2.906   2.027  0.2798  0.4739  0.0844
 6461TIP3    H141018   3.297   2.996   2.054 -0.4437  1.1248 -1.4409
 6461TIP3    H241019   3.205   2.879   2.085 -0.2975  1.3179 -0.2221
 6462TIP3   OH241020   5.584   1.246   1.719 -0.1864 -0.2146 -0.1375
 6462TIP3    H141021   5.550   1.317   1.665 -1.5029  0.7946  1.8976
 6462TIP3    H241022   5.552   1.166   1.677 -0.2595  0.4719 -1.4244
 6463TIP3   OH241023   6.777   4.695   2.320 -0.3330 -0.4740 -0.0458
 6463TIP3    H141024   6.685   4.686   2.296 -0.2142 -1.1774 -0.2577
 6463TIP3    H241025   6.825   4.666   2.243  0.0552 -1.3350  0.5084
 6464TIP3   OH241026   5.490   0.578   0.024 -0.2391  0.0594  0.4297
 6464TIP3    H141027   5.428   0.566  -0.047  0.5784  0.8546 -0.4494
 6464TIP3    H241028   5.576   0.567  -0.017  0.2653  0.9536  1.1967
 6465TIP3   OH241029   6.015   5.421   1.986 -0.2128  0.3688  0.5099
 6465TIP3    H141030   6.084   5.372   1.942 -0.7043  0.5448 -0.4911
 6465TIP3    H241031   6.017   5.389   2.076  0.6500 -0.1904  0.3101
 6466TIP3   OH241032   3.197   3.139   0.347  0.5611  0.1125  0.1038
 6466TIP3    H141033   3.279   3.186   0.332  0.3441  0.4088 -0.1808
 6466TIP3    H241034   3.223   3.059   0.393  0.7977  1.1133  1.7757
 6467TIP3   OH241035   5.463   4.624   2.933  0.7515 -0.3333 -0.0161
 6467TIP3    H141036   5.437   4.642   3.023  1.0576 -0.9648  0.2067
 6467TIP3    H241037   5.496   4.534   2.935 -0.0679 -0.6681 -0.9350
 6468TIP3   OH241038   5.023   6.329   8.795 -0.1188  0.2760 -0.5017
 6468TIP3    H141039   4.958   6.302   8.730 -1.3230  0.9169  0.3921
 6468TIP3    H241040   4.986   6.301   8.879 -0.1122  2.2077  0.2002
 6469TIP3   OH241041   4.636   0.906   3.453  0.4867  0.8281 -0.1122
 6469TIP3    H141042   4.675   0.980   3.408 -0.8981  0.8433 -1.3476
 6469TIP3    H241043   4.665   0.829   3.403  0.8529  0.6377  0.3829
 6470TIP3   OH241044   0.154   1.167   1.833 -0.4953 -0.9652  0.1998
 6470TIP3    H141045   0.212   1.114   1.778  0.1045  0.1636 -0.2914
 6470TIP3    H241046   0.206   1.187   1.910 -1.3028 -2.4623  1.1701
 6471TIP3   OH241047   2.742   6.620   2.618  0.1455 -0.7153 -0.3960
 6471TIP3    H141048   2.701   6.646   2.700 -0.6873 -0.6111 -0.8364
 6471TIP3    H241049   2.814   6.562   2.644 -1.9065 -3.0995  0.3021
 6472TIP3   OH241050   1.846   6.178   2.260  0.0184  0.2814  0.0926
 6472TIP3    H141051   1.792   6.170   2.181  0.7270 -0.9841 -0.2796
 6472TIP3    H241052   1.799   6.127   2.326  0.7345 -0.7998 -0.2248
 6473TIP3   OH241053   0.301   1.623   8.393  0.2276  0.2381 -0.0999
 6473TIP3    H141054   0.225   1.609   8.450  1.5559 -2.3577  1.1824
 6473TIP3    H241055   0.267   1.679   8.322 -2.5946  0.0310  0.9487
 6474TIP3   OH241056   1.044   4.829   2.830  0.0351 -0.4894  0.1054
 6474TIP3    H141057   1.069   4.876   2.751  1.0395  0.6082  1.0506
 6474TIP3    H241058   1.072   4.739   2.813 -2.9236 -1.1891 -2.1853
 6475TIP3   OH241059   2.497   2.587   0.987 -0.2272  0.0758 -0.3678
 6475TIP3    H141060   2.412   2.544   0.973  0.0352 -1.1370  1.4110
 6475TIP3    H241061   2.562   2.519   0.969  0.2401  0.0283  1.3141
 6476TIP3   OH241062   5.862   4.032   8.749 -0.3710 -0.3645  0.2825
 6476TIP3    H141063   5.802   4.091   8.794 -0.2618  0.3666 -0.5181
 6476TIP3    H241064   5.948   4.051   8.787 -0.6366 -1.6166  1.6437
 6477TIP3   OH241065   2.811   6.660   2.195  0.3001 -0.2856  0.1379
 6477TIP3    H141066   2.749   6.702   2.256  2.3680  1.1348  1.4085
 6477TIP3    H241067   2.891   6.648   2.247  1.4134 -1.1706 -1.6842
 6478TIP3   OH241068   1.787   3.858   2.163 -0.0071 -0.2901  0.2655
 6478TIP3    H141069   1.803   3.897   2.249 -0.9691 -1.3920  0.9717
 6478TIP3    H241070   1.841   3.779   2.162  1.1356  0.4609 -0.7534
 6479TIP3   OH241071   3.318   4.967   1.420  0.1095 -0.0376 -0.4519
 6479TIP3    H141072   3.322   5.034   1.488 -1.3918 -0.8910  0.5374
 6479TIP3    H241073   3.229   4.974   1.385  0.2382 -0.8925 -0.9774
 6480TIP3   OH241074   2.896   4.410   0.700  0.5131  0.2429  0.0554
 6480TIP3    H141075   2.905   4.502   0.725 -3.0532  0.7117  0.2222
 6480TIP3    H241076   2.855   4.369   0.776  1.3879 -1.3730 -0.2926
 6481TIP3   OH241077   3.524   5.075   2.119 -0.3302 -0.3193  0.1806
 6481TIP3    H141078   3.532   5.005   2.184  0.5318  0.5450  1.0397
 6481TIP3    H241079   3.589   5.052   2.052 -0.7655 -0.8699 -0.0631
 6482TIP3   OH241080   1.551   5.718   8.810 -0.3722  0.6826  0.4816
 6482TIP3    H141081   1.613   5.703   8.739 -1.6057 -0.1507 -0.4732
 6482TIP3    H241082   1.545   5.813   8.818  1.7185  0.7921  1.2630
 6483TIP3   OH241083   4.381   2.821   8.131  0.2268  0.8767  0.4699
 6483TIP3    H141084   4.352   2.837   8.042 -0.1938  2.0180  0.7946
 6483TIP3    H241085   4.465   2.776   8.121 -0.4000 -0.1155 -0.4779
 6484TIP3   OH241086   0.305   4.160   0.640 -0.0310  0.5646 -0.1111
 6484TIP3    H141087   0.373   4.097   0.615  0.3775  0.4751  1.1538
 6484TIP3    H241088   0.349   4.245   0.638 -0.3678  0.7200 -1.0377
 6485TIP3   OH241089   1.232   2.033   1.494 -0.2115  0.1067  0.2351
 6485TIP3    H141090   1.149   2.032   1.445  0.0229 -1.1257 -0.1743
 6485TIP3    H241091   1.225   1.959   1.554  1.5779 -1.6849 -1.5751
 6486TIP3   OH241092   3.410   5.726   2.179 -0.5876  0.0931 -0.1345
 6486TIP3    H141093   3.423   5.820   2.194 -1.9836  0.4005 -0.7289
 6486TIP3    H241094   3.351   5.698   2.249 -0.9644 -0.1286 -0.5378
 6487TIP3   OH241095   1.188   1.885   2.143 -0.5041  0.4922 -0.0820
 6487TIP3    H141096   1.215   1.798   2.173  0.6488  1.7169  2.7599
 6487TIP3    H241097   1.109   1.904   2.194 -0.9701  0.9980 -0.9657
 6488TIP3   OH241098   6.418   1.659   3.054 -0.1122 -0.4766  0.3801
 6488TIP3    H141099   6.332   1.688   3.081  0.1607 -0.8035  1.6797
 6488TIP3    H241100   6.475   1.734   3.070  0.0419 -0.6497  0.6472
 6489TIP3   OH241101   1.749   5.242   1.597  0.1551 -0.5890 -0.1342
 6489TIP3    H141102   1.791   5.320   1.632 -0.7262  0.2705 -0.9166
 6489TIP3    H241103   1.790   5.169   1.644  2.8253  0.1322 -1.1736
 6490TIP3   OH241104   3.177   6.561   0.323  0.0573  0.0840 -0.9125
 6490TIP3    H141105   3.093   6.540   0.282 -1.0581 -2.6161  2.2642
 6490TIP3    H241106   3.239   6.500   0.284 -0.8793 -2.1175  0.8319
 6491TIP3   OH241107   6.438   0.964   2.120 -0.1410  0.1118 -0.0271
 6491TIP3    H141108   6.378   0.910   2.172 -0.3261 -1.0547 -1.3866
 6491TIP3    H241109   6.523   0.951   2.161 -0.4481  0.0916  0.6287
 6492TIP3   OH241110   3.256   1.713   0.336 -0.3833 -0.4753 -0.5316
 6492TIP3    H141111   3.282   1.622   0.319  0.3789 -0.2997 -0.3280
 6492TIP3    H241112   3.240   1.750   0.249 -0.0373 -0.6118 -0.6554
 6493TIP3   OH241113   2.892   4.018   7.337 -0.2217  0.2744  0.4563
 6493TIP3    H141114   2.884   4.095   7.393 -0.1154  1.1438 -0.7096
 6493TIP3    H241115   2.812   4.017   7.285  1.0233  1.2565 -1.5686
 6494TIP3   OH241116   1.972   4.658   7.842 -0.8314  0.0786 -0.2393
 6494TIP3    H141117   1.978   4.568   7.873 -0.8605 -0.2249 -1.1011
 6494TIP3    H241118   1.892   4.661   7.790 -0.9027  0.6373 -0.1076
 6495TIP3   OH241119   6.730   2.775   1.700  0.5031 -0.1718 -0.3426
 6495TIP3    H141120   6.683   2.818   1.628  0.6152 -1.2544 -1.0897
 6495TIP3    H241121   6.719   2.834   1.774 -0.5330  0.4590 -0.9655
 6496TIP3   OH241122   1.094   3.565   2.069  0.5195 -0.8318 -0.1378
 6496TIP3    H141123   1.049   3.565   1.984 -0.6598  0.8366  0.4437
 6496TIP3    H241124   1.148   3.644   2.068  1.2441 -1.3133  0.3052
 6497TIP3   OH241125   0.374   0.453   0.746  0.0137  0.1838  0.4908
 6497TIP3    H141126   0.339   0.427   0.831 -0.1001  0.6116  0.5757
 6497TIP3    H241127   0.370   0.548   0.746 -1.5753  0.1725 -0.6529
 6498TIP3   OH241128   6.144   1.243   2.494 -0.1599  0.1018 -0.5550
 6498TIP3    H141129   6.104   1.156   2.487 -2.2493  1.0262 -0.9217
 6498TIP3    H241130   6.113   1.277   2.578  0.5811  0.5423 -0.4443
 6499TIP3   OH241131   1.430   0.835   2.734  0.3596  0.3904 -0.0727
 6499TIP3    H141132   1.336   0.831   2.712  0.2659  0.1908  0.3592
 6499TIP3    H241133   1.443   0.763   2.795  0.4713  1.3561  1.0726
 6500TIP3   OH241134   5.186   2.509   0.525  0.0176  0.3150 -0.3622
 6500TIP3    H141135   5.125   2.450   0.570 -0.4948 -0.4845 -2.0426
 6500TIP3    H241136   5.208   2.575   0.591 -0.8429 -0.7016  0.9982
 6501TIP3   OH241137   5.033   3.541   3.119  0.6380 -0.3073  0.6618
 6501TIP3    H141138   4.990   3.625   3.132  0.7884 -0.1372  0.1061
 6501TIP3    H241139   5.064   3.516   3.205 -1.2926 -0.8418  1.2592
 6502TIP3   OH241140   3.560   2.658   2.527 -0.0020  0.0856 -0.1821
 6502TIP3    H141141   3.521   2.744   2.510  1.2713  0.4597 -1.3113
 6502TIP3    H241142   3.497   2.614   2.584 -0.7883  1.6766  0.2166
 6503TIP3   OH241143   1.095   6.687   0.557  0.2108 -0.1293  0.2821
 6503TIP3    H141144   1.118   6.736   0.478  0.3562 -0.8212 -0.1130
 6503TIP3    H241145   1.158   6.716   0.623  0.6285 -0.1769 -0.0975
 6504TIP3   OH241146   2.846   5.212   7.892  0.2414  0.5550 -0.2243
 6504TIP3    H141147   2.901   5.291   7.899 -0.6629  1.2697 -0.9459
 6504TIP3    H241148   2.818   5.194   7.981  1.0025  0.6466  0.0421
 6505TIP3   OH241149   2.968   1.352   2.617 -0.5318 -0.1045  0.2287
 6505TIP3    H141150   2.914   1.280   2.648 -0.5354 -0.1742  0.0581
 6505TIP3    H241151   2.945   1.425   2.675  1.2378 -0.8640  2.0244
 6506TIP3   OH241152   2.185   4.130   1.431 -0.4955 -0.4513  0.4433
 6506TIP3    H141153   2.097   4.094   1.446 -1.1349  1.1342  0.6347
 6506TIP3    H241154   2.226   4.131   1.517 -0.0211 -1.7961  0.2580
 6507TIP3   OH241155   0.442   3.031   8.319 -0.4050  0.1841  0.5266
 6507TIP3    H141156   0.387   2.976   8.264 -0.3649 -0.1493  0.8152
 6507TIP3    H241157   0.527   2.986   8.321 -0.5709 -0.1138  1.3133
 6508TIP3   OH241158   6.131   2.375   8.137  0.4473  0.1074 -0.4286
 6508TIP3    H141159   6.091   2.462   8.140  1.2038  0.4916 -0.9340
 6508TIP3    H241160   6.225   2.392   8.138  0.6089 -0.6839 -0.8907
 6509TIP3   OH241161   4.445   4.082   7.979  0.0558  0.1028 -0.0445
 6509TIP3    H141162   4.355   4.052   7.988 -0.1914  0.1869 -1.9152
 6509TIP3    H241163   4.489   4.012   7.930 -0.1295  1.9515 -3.0537
 6510TIP3   OH241164   4.319   2.555   1.258 -0.2067  0.2539  0.2679
 6510TIP3    H141165   4.348   2.572   1.168 -1.7258  1.4503 -0.0350
 6510TIP3    H241166   4.235   2.601   1.265 -1.0308 -1.3580  1.7190
 6511TIP3   OH241167   5.208   0.360   3.079 -0.0215 -0.4795  0.7145
 6511TIP3    H141168   5.122   0.320   3.092 -0.4688  0.3961  0.5524
 6511TIP3    H241169   5.206   0.440   3.131  0.4764 -0.1463  0.2375
 6512TIP3   OH241170   0.025   6.307   0.271  0.3547  0.1993 -0.3800
 6512TIP3    H141171   0.040   6.235   0.210 -0.6034  0.3287 -0.7723
 6512TIP3    H241172   0.070   6.280   0.351  0.3580 -0.6409 -0.6617
 6513TIP3   OH241173   1.279   3.715   8.468 -0.1552 -0.1254  0.2074
 6513TIP3    H141174   1.227   3.776   8.520 -0.7868 -0.8939  0.4931
 6513TIP3    H241175   1.350   3.688   8.527 -0.5713 -0.5956  0.4960
 6514TIP3   OH241176   0.085   0.130   2.008  0.0596 -0.4021 -0.5992
 6514TIP3    H141177   0.019   0.145   2.075 -1.1193 -2.1467 -1.2732
 6514TIP3    H241178   0.145   0.067   2.048  0.8160  0.4827 -0.3145
 6515TIP3   OH241179   4.310   6.322   2.481  0.2835  0.0445  0.5412
 6515TIP3    H141180   4.307   6.417   2.469 -0.8635 -0.0850 -0.4593
 6515TIP3    H241181   4.402   6.298   2.466  0.1608  0.7353 -1.7412
 6516TIP3   OH241182   1.157   4.807   1.748 -0.3141  0.2573 -0.1153
 6516TIP3    H141183   1.234   4.793   1.802 -0.6237 -2.5371 -0.2335
 6516TIP3    H241184   1.107   4.725   1.755 -2.3054  1.2403 -1.5639
 6517TIP3   OH241185   1.474   5.042   0.174  0.0884 -0.1981 -0.5317
 6517TIP3    H141186   1.482   5.078   0.086  0.1158  0.5550 -0.2345
 6517TIP3    H241187   1.492   4.949   0.164  0.5692 -0.0360 -1.2461
 6518TIP3   OH241188   2.970   1.376   8.685 -0.2698  0.3840  0.0367
 6518TIP3    H141189   2.904   1.417   8.629 -1.1078  1.2222  1.5649
 6518TIP3    H241190   3.022   1.449   8.718  0.8048 -0.1837 -0.3828
 6519TIP3   OH241191   1.909   0.818   1.472  1.1564 -0.6501 -0.1582
 6519TIP3    H141192   1.878   0.824   1.382 -0.6366 -2.9473  0.2315
 6519TIP3    H241193   1.966   0.894   1.482  0.6249  0.2281 -2.9010
 6520TIP3   OH241194   1.276   1.212   7.350  0.0158 -0.3329 -0.1656
 6520TIP3    H141195   1.247   1.297   7.317 -1.4355 -1.1835 -1.2219
 6520TIP3    H241196   1.234   1.204   7.435  0.5847  0.2037  0.1798
 6521TIP3   OH241197   6.050   5.381   2.789 -0.9482 -0.4562 -0.1468
 6521TIP3    H141198   6.109   5.341   2.726 -0.5123  0.2408 -0.2007
 6521TIP3    H241199   6.046   5.319   2.862  1.6754  0.4279  0.8883
 6522TIP3   OH241200   0.112   2.106   0.078 -0.3748  0.7581 -0.3718
 6522TIP3    H141201   0.038   2.165   0.096  0.3341  1.6766 -0.3953
 6522TIP3    H241202   0.164   2.152   0.013  0.6329  0.4754  0.2190
 6523TIP3   OH241203   6.494   4.696   3.000  0.2802 -0.5255  0.2647
 6523TIP3    H141204   6.401   4.683   3.018 -0.7231  2.3069 -2.0348
 6523TIP3    H241205   6.507   4.791   3.007  3.0099 -0.8363  0.4881
 6524TIP3   OH241206   4.228   1.674   8.488  0.4219 -0.2043  0.6418
 6524TIP3    H141207   4.307   1.678   8.434  0.7345 -0.6489  1.0547
 6524TIP3    H241208   4.169   1.738   8.449  0.6010 -0.5950 -0.2852
 6525TIP3   OH241209   1.553   0.237   8.626 -0.3014 -0.3500  0.0583
 6525TIP3    H141210   1.636   0.225   8.580  0.1015  2.7848 -0.3113
 6525TIP3    H241211   1.497   0.168   8.592  2.1867 -2.8251  0.5908
 6526TIP3   OH241212   0.267   4.287   8.130 -0.8703 -0.3297  0.1353
 6526TIP3    H141213   0.301   4.274   8.219 -1.6255 -1.5849  0.2553
 6526TIP3    H241214   0.254   4.382   8.124  1.1216  0.0337  0.6258
 6527TIP3   OH241215   1.076   1.051   3.108 -0.4483  0.5274 -0.4993
 6527TIP3    H141216   1.161   1.016   3.080 -0.0104  1.5128 -0.4406
 6527TIP3    H241217   1.085   1.146   3.100 -1.6780  0.6298 -0.8521
 6528TIP3   OH241218   2.543   1.576   7.619  0.2096 -0.3460 -0.3546
 6528TIP3    H141219   2.478   1.507   7.629 -0.8765  0.8569  1.5178
 6528TIP3    H241220   2.613   1.553   7.681 -1.3509  1.4260  2.2651
 6529TIP3   OH241221   1.812   0.638   2.442  0.0144  0.4690  0.4761
 6529TIP3    H141222   1.732   0.596   2.411 -0.3198  0.5405  1.2419
 6529TIP3    H241223   1.782   0.710   2.498  0.6103  0.0332  1.3775
 6530TIP3   OH241224   0.595   4.857   3.634  0.2240 -0.1361 -0.2880
 6530TIP3    H141225   0.554   4.927   3.684 -0.3851 -0.1189 -0.8063
 6530TIP3    H241226   0.557   4.864   3.547  0.6802 -0.6712 -0.5327
 6531TIP3   OH241227   4.826   0.331   1.555  0.0218  0.3887  0.0897
 6531TIP3    H141228   4.863   0.268   1.493  0.1138  0.5891 -0.0609
 6531TIP3    H241229   4.899   0.353   1.613 -0.1850 -0.1506  0.5611
 6532TIP3   OH241230   3.191   6.034   8.505  0.4877 -0.2599 -0.2994
 6532TIP3    H141231   3.113   6.075   8.541 -0.2220 -0.4003 -1.6082
 6532TIP3    H241232   3.264   6.083   8.542 -0.2040 -0.1828  1.0151
 6533TIP3   OH241233   6.084   5.293   0.806  0.1645 -0.1597  0.2886
 6533TIP3    H141234   6.076   5.258   0.717 -1.5285  1.1362 -0.1178
 6533TIP3    H241235   6.016   5.248   0.856 -1.0297  1.3823  0.1192
 6534TIP3   OH241236   2.148   5.443   8.822  0.7694  0.2139  0.2162
 6534TIP3    H141237   2.173   5.392   8.745  1.4239  1.6172 -0.5345
 6534TIP3    H241238   2.092   5.384   8.872 -0.3464 -0.4869 -1.7242
 6535TIP3   OH241239   1.602   4.830   8.559  0.3140  0.6934 -1.3523
 6535TIP3    H141240   1.606   4.753   8.502 -2.4479 -1.0639  0.5626
 6535TIP3    H241241   1.522   4.817   8.611  1.2533  3.4805  1.0558
 6536TIP3   OH241242   6.238   1.468   8.126  0.6258  0.0860  0.2143
 6536TIP3    H141243   6.237   1.441   8.035  0.9689  0.9121 -0.0470
 6536TIP3    H241244   6.233   1.564   8.123  1.7314  0.1905  1.0055
 6537TIP3   OH241245   5.310   5.857   8.738 -0.2131  0.3962 -0.1701
 6537TIP3    H141246   5.361   5.864   8.819  0.4774  2.7963 -0.7395
 6537TIP3    H241247   5.374   5.871   8.668 -1.0756 -0.0439 -1.0726
 6538TIP3   OH241248   2.927   1.826   1.158  0.0410  0.0396 -0.0353
 6538TIP3    H141249   2.970   1.754   1.204  1.7527  0.3225 -1.1083
 6538TIP3    H241250   2.984   1.843   1.083 -1.6684  0.8415 -1.1945
 6539TIP3   OH241251   3.765   4.326   8.341  0.8265 -0.2416 -0.6411
 6539TIP3    H141252   3.765   4.362   8.253  0.5399  1.5635  0.0605
 6539TIP3    H241253   3.689   4.365   8.383  1.3463 -0.5314  0.6137
 6540TIP3   OH241254   2.626   4.792   0.364 -1.0180  0.1740  0.3712
 6540TIP3    H141255   2.568   4.737   0.416 -2.1103 -2.2849 -3.1163
 6540TIP3    H241256   2.570   4.862   0.330 -0.9287  0.2629  0.4054
 6541TIP3   OH241257   1.750   1.430   7.914 -0.1242  0.6878 -0.3754
 6541TIP3    H141258   1.819   1.468   7.859  0.9079 -0.7749 -0.1216
 6541TIP3    H241259   1.697   1.379   7.853  0.1644  0.2459 -0.2601
 6542TIP3   OH241260   6.194   0.148   2.561  0.2456  0.1264  0.4387
 6542TIP3    H141261   6.121   0.202   2.589  0.8149  1.1294  0.0299
 6542TIP3    H241262   6.226   0.107   2.642 -0.3069  0.2369  0.7193
 6543TIP3   OH241263   0.742   5.074   2.395  0.1140  0.4414 -0.1711
 6543TIP3    H141264   0.747   4.980   2.378  0.2471  0.6141 -1.1593
 6543TIP3    H241265   0.709   5.112   2.313 -0.7122  1.1745  0.4820
 6544TIP3   OH241266   5.749   0.380   3.055  0.4282 -0.3219 -0.3082
 6544TIP3    H141267   5.664   0.377   3.099  0.5760 -1.3011 -0.0563
 6544TIP3    H241268   5.803   0.437   3.109 -0.2585  0.8865 -0.8521
 6545TIP3   OH241269   6.270   0.717   1.536  0.0614 -0.6883  0.5000
 6545TIP3    H141270   6.294   0.658   1.607 -0.1050 -0.4911  0.7222
 6545TIP3    H241271   6.254   0.801   1.579 -4.1476 -1.4682  0.8808
 6546TIP3   OH241272   5.100   4.076   0.797  0.6877  0.3479 -0.1787
 6546TIP3    H141273   5.014   4.094   0.759  0.0484 -2.0133  0.0329
 6546TIP3    H241274   5.088   4.097   0.890  0.0503 -0.7932  0.0135
 6547TIP3   OH241275   5.692   4.348   2.112 -0.1666 -0.1031  0.1180
 6547TIP3    H141276   5.743   4.267   2.118 -0.8398 -0.5562 -0.2136
 6547TIP3    H241277   5.651   4.345   2.026 -0.3191  0.5209  0.1617
 6548TIP3   OH241278   3.270   2.697   2.312 -0.4290  0.0622 -0.0177
 6548TIP3    H141279   3.190   2.645   2.307 -0.0786 -0.5193  0.2906
 6548TIP3    H241280   3.340   2.632   2.319 -0.1614  0.5334  3.8904
 6549TIP3   OH241281   2.076   5.987   1.617  0.6825  0.5825 -0.1691
 6549TIP3    H141282   2.063   5.912   1.675  1.1329 -0.3850 -1.2850
 6549TIP3    H241283   1.989   6.012   1.588  0.6560 -0.6943 -1.2362
 6550TIP3   OH241284   0.171   2.409   1.443 -0.1641  0.0096  0.2092
 6550TIP3    H141285   0.151   2.341   1.378  0.1732 -0.4287  0.5552
 6550TIP3    H241286   0.088   2.421   1.491 -0.1742 -0.2972  0.2716
 6551TIP3   OH241287   2.138   2.263   7.720 -0.2010 -0.2626  0.6053
 6551TIP3    H141288   2.060   2.289   7.672  1.1866 -1.7067 -2.7208
 6551TIP3    H241289   2.151   2.171   7.698  3.3524  0.3429 -0.4887
 6552TIP3   OH241290   1.610   0.049   0.572 -0.0496 -0.5453 -0.1753
 6552TIP3    H141291   1.561   0.101   0.636  0.1293 -0.6241  0.0232
 6552TIP3    H241292   1.683   0.106   0.546  0.6723 -1.0450  0.7223
 6553TIP3   OH241293   5.115   3.882   8.375  0.5849 -0.4333 -0.0016
 6553TIP3    H141294   5.189   3.868   8.434  0.7342  0.7778  0.1251
 6553TIP3    H241295   5.142   3.843   8.293  0.9073 -0.9932  0.3643
 6554TIP3   OH241296   3.625   5.142   0.460  0.0497  0.2048 -0.4590
 6554TIP3    H141297   3.658   5.078   0.523  0.2505 -0.7114 -1.4642
 6554TIP3    H241298   3.669   5.120   0.378 -0.2332  1.3527 -0.9321
 6555TIP3   OH241299   3.713   4.143   1.086 -0.2155  0.2547  0.0045
 6555TIP3    H141300   3.784   4.204   1.108  0.0043 -0.4740  1.3799
 6555TIP3    H241301   3.633   4.189   1.111  0.0151 -0.5023  2.3848
 6556TIP3   OH241302   3.581   0.594   0.678 -0.0185  0.5791 -0.2308
 6556TIP3    H141303   3.503   0.598   0.622 -1.9221 -2.6852  1.8508
 6556TIP3    H241304   3.552   0.633   0.760  1.3639  1.4554 -0.1359
 6557TIP3   OH241305   3.074   6.053   2.666  0.5915  0.3123  0.2818
 6557TIP3    H141306   2.991   6.068   2.710  0.1611 -2.1405  0.4126
 6557TIP3    H241307   3.057   5.982   2.604  1.5517  2.5762 -2.8553
 6558TIP3   OH241308   5.670   3.868   8.659 -0.5283  0.2383 -0.1873
 6558TIP3    H141309   5.608   3.845   8.728 -1.8034  0.1427 -1.3387
 6558TIP3    H241310   5.725   3.936   8.698 -0.1936 -0.8886  1.4350
 6559TIP3   OH241311   6.728   1.406   1.766  1.0017 -0.1706  0.6206
 6559TIP3    H141312   6.802   1.462   1.793  0.0481  1.9196 -0.8015
 6559TIP3    H241313   6.718   1.344   1.838  3.1515  0.4654  1.5693
 6560TIP3   OH241314   6.590   1.573   1.584  0.3993 -0.3639  0.4354
 6560TIP3    H141315   6.650   1.531   1.647 -0.2106 -1.8304  0.0789
 6560TIP3    H241316   6.520   1.509   1.571  0.6479 -0.2446 -1.9540
 6561TIP3   OH241317   1.525   2.139   8.174  0.4481 -0.2424 -0.1738
 6561TIP3    H141318   1.608   2.159   8.131  0.4063  0.1080 -0.0900
 6561TIP3    H241319   1.497   2.221   8.213 -0.4269 -0.1116 -1.0308
 6562TIP3   OH241320   2.960   3.366   7.966  0.8315 -0.2918  0.2146
 6562TIP3    H141321   2.969   3.353   8.060  0.6826 -0.0299  0.2671
 6562TIP3    H241322   2.869   3.394   7.954  1.1713  0.8428  0.1324
 6563TIP3   OH241323   3.540   0.512   7.909 -0.0021  0.2036  0.2858
 6563TIP3    H141324   3.515   0.526   8.000 -2.6724 -2.0078  0.0510
 6563TIP3    H241325   3.491   0.578   7.861 -2.1488 -1.3379  0.2034
 6564TIP3   OH241326   5.953   1.720   7.787 -0.0517 -0.2196  0.3641
 6564TIP3    H141327   5.963   1.660   7.713  1.1778  0.0626  0.2912
 6564TIP3    H241328   6.023   1.784   7.777 -2.5676  2.6405 -0.8368
 6565TIP3   OH241329   1.604   1.524   2.473 -0.1152  0.5558  0.2741
 6565TIP3    H141330   1.538   1.550   2.537  1.1160  2.5733  0.8240
 6565TIP3    H241331   1.665   1.598   2.470  1.5140 -0.7538 -1.0226
 6566TIP3   OH241332   3.239   2.729   0.577  0.1737 -0.6689  0.3179
 6566TIP3    H141333   3.152   2.692   0.595  0.0588 -0.1577  0.8233
 6566TIP3    H241334   3.250   2.719   0.483 -1.1142  0.7254 -0.0054
 6567TIP3   OH241335   1.599   0.135   1.989 -0.4625 -0.3222 -0.3423
 6567TIP3    H141336   1.613   0.201   1.921  0.7086 -2.5048 -2.3440
 6567TIP3    H241337   1.657   0.063   1.966 -1.2096 -1.8533  2.1080
 6568TIP3   OH241338   0.403   4.236   0.014 -0.2895  0.2486 -0.2662
 6568TIP3    H141339   0.371   4.209   0.100 -1.3896  1.3658 -0.3119
 6568TIP3    H241340   0.466   4.167  -0.010  0.4240  0.1799  1.6330
 6569TIP3   OH241341   4.528   6.341   1.589 -0.5519  0.1032 -0.4143
 6569TIP3    H141342   4.520   6.430   1.624 -1.4981 -0.0199 -0.2897
 6569TIP3    H241343   4.461   6.336   1.521  0.3217 -0.1287 -1.2744
 6570TIP3   OH241344   0.255   6.107   2.777  0.2881 -0.0044  0.2987
 6570TIP3    H141345   0.240   6.060   2.858  4.0449 -1.4747  0.3097
 6570TIP3    H241346   0.292   6.191   2.804 -0.6061  0.4580  0.1205
 6571TIP3   OH241347   4.290   5.634   2.667  0.0947 -0.1051  0.0880
 6571TIP3    H141348   4.244   5.615   2.586 -0.7285 -0.4518  0.6227
 6571TIP3    H241349   4.264   5.724   2.690 -0.4279 -0.3505  0.4618
 6572TIP3   OH241350   5.583   4.426   0.761 -0.0893 -0.1599 -0.5870
 6572TIP3    H141351   5.641   4.358   0.795 -0.7660 -0.0848  0.7839
 6572TIP3    H241352   5.532   4.455   0.837 -0.7715  0.9249 -1.4192
 6573TIP3   OH241353   0.963   1.249   2.085 -0.7260 -0.8010 -0.1306
 6573TIP3    H141354   0.890   1.229   2.143 -0.4199  0.6833  0.8156
 6573TIP3    H241355   0.922   1.274   2.002 -1.2301 -1.1212  0.0190
 6574TIP3   OH241356   5.498   0.372   3.139  0.0168 -0.8070 -0.4113
 6574TIP3    H141357   5.420   0.321   3.119 -0.0216 -0.5806 -0.8610
 6574TIP3    H241358   5.467   0.443   3.195  0.1467 -1.5225  0.5979
 6575TIP3   OH241359   1.707   5.935   0.851  0.2686  0.0873 -0.7212
 6575TIP3    H141360   1.764   5.958   0.924 -0.5603 -4.0169  1.4932
 6575TIP3    H241361   1.627   5.986   0.865 -0.1791 -1.1668  1.8192
 6576TIP3   OH241362   5.565   5.982   7.965 -0.3785 -0.4220  0.2328
 6576TIP3    H141363   5.614   6.024   8.036 -1.0113 -1.2268  1.1590
 6576TIP3    H241364   5.520   5.908   8.006 -1.2487 -0.5425 -0.8769
 6577TIP3   OH241365   4.057   1.940   2.735 -0.2536 -0.4002  0.0693
 6577TIP3    H141366   4.112   1.882   2.787 -2.3303 -0.2381  2.7045
 6577TIP3    H241367   4.106   2.022   2.732  1.1221 -1.2129 -0.6249
 6578TIP3   OH241368   1.184   4.105   8.059  0.0362  0.2160 -0.7792
 6578TIP3    H141369   1.225   4.033   8.108 -0.4963 -0.8937 -1.8874
 6578TIP3    H241370   1.202   4.084   7.968 -0.2842  1.4319 -1.1367
 6579TIP3   OH241371   5.248   6.271   0.529  0.2870  0.2385  0.1525
 6579TIP3    H141372   5.240   6.256   0.623  1.7481  0.2227  0.2959
 6579TIP3    H241373   5.176   6.221   0.491  0.4806 -0.8724  1.1721
 6580TIP3   OH241374   0.711   3.376   1.901 -0.8043 -0.1025 -0.0378
 6580TIP3    H141375   0.703   3.291   1.857  0.4029 -0.0440 -0.4073
 6580TIP3    H241376   0.761   3.429   1.839  0.2814  0.2200  1.1006
 6581TIP3   OH241377   3.817   5.298   2.469 -0.7703 -0.0441 -0.1788
 6581TIP3    H141378   3.831   5.285   2.563 -1.0272 -0.7681 -0.2382
 6581TIP3    H241379   3.722   5.305   2.460 -0.9180 -2.0598 -0.6272
 6582TIP3   OH241380   1.462   0.287   0.318 -0.0703  0.2585  0.0145
 6582TIP3    H141381   1.407   0.320   0.389  0.5570  0.6074  0.3455
 6582TIP3    H241382   1.550   0.281   0.357  0.6367  2.0412 -1.1742
 6583TIP3   OH241383   3.991   6.381   0.299  0.0362  0.5399 -0.4787
 6583TIP3    H141384   3.939   6.325   0.356  0.0447 -0.7594 -1.6903
 6583TIP3    H241385   3.994   6.466   0.344 -0.9588 -0.0914  0.8330
 6584TIP3   OH241386   4.845   1.799   8.341 -0.5545 -0.2178 -0.1749
 6584TIP3    H141387   4.754   1.779   8.364 -0.5717  0.2359  0.1460
 6584TIP3    H241388   4.896   1.732   8.386 -0.4720  1.4201  2.3155
 6585TIP3   OH241389   1.102   4.890   0.676 -0.1643 -1.0141 -0.5019
 6585TIP3    H141390   1.078   4.821   0.738 -0.1166 -1.1224 -0.6029
 6585TIP3    H241391   1.027   4.950   0.677  0.7979  0.2721  1.4302
 6586TIP3   OH241392   5.075   5.440   7.469 -0.2906  0.3482 -0.2061
 6586TIP3    H141393   5.151   5.479   7.427  0.2207 -0.0610  0.3128
 6586TIP3    H241394   5.003   5.454   7.408  0.1923  0.7788 -0.6830
 6587TIP3   OH241395   1.908   3.366   1.921  0.0552  0.8963  0.6715
 6587TIP3    H141396   1.877   3.398   1.836  0.4331  0.6262  0.4324
 6587TIP3    H241397   1.964   3.435   1.954 -0.1387  1.0270  0.7277
 6588TIP3   OH241398   0.309   1.625   8.781  0.1561 -0.1497 -0.2713
 6588TIP3    H141399   0.353   1.561   8.725  0.9294  0.7675 -0.7498
 6588TIP3    H241400   0.260   1.680   8.720 -2.2020 -1.4841  0.2870
 6589TIP3   OH241401   4.042   1.525   8.610 -0.2943  0.0963 -0.1925
 6589TIP3    H141402   4.120   1.569   8.579  0.1526 -1.6657 -1.7327
 6589TIP3    H241403   3.991   1.506   8.531 -1.0969 -0.9393  0.5365
 6590TIP3   OH241404   4.113   6.563   8.507 -0.4783  0.2171 -0.8579
 6590TIP3    H141405   4.129   6.544   8.414  2.2919  0.6130 -0.5530
 6590TIP3    H241406   4.154   6.490   8.554  0.1295  1.1341  0.0768
 6591TIP3   OH241407   0.557   3.446   2.800 -0.0086  0.1691 -0.5295
 6591TIP3    H141408   0.648   3.432   2.775  1.0311 -0.5701  3.0288
 6591TIP3    H241409   0.552   3.539   2.820  1.3031 -0.3511  3.0911
 6592TIP3   OH241410   0.957   1.921   1.710  0.3920  0.0782  0.1064
 6592TIP3    H141411   1.032   1.921   1.770  0.8081  0.2579 -0.4015
 6592TIP3    H241412   0.912   1.839   1.729  0.1552  0.4210  1.0986
 6593TIP3   OH241413   3.603   1.664   2.068  0.1675  0.0465 -0.1277
 6593TIP3    H141414   3.685   1.659   2.020  0.1050 -2.8745 -0.1057
 6593TIP3    H241415   3.629   1.662   2.160  0.1152  0.7176 -0.0951
 6594TIP3   OH241416   6.463   5.108   2.014 -0.4338  0.2690 -0.0042
 6594TIP3    H141417   6.473   5.042   1.945  0.5226 -0.0901  0.4590
 6594TIP3    H241418   6.548   5.152   2.019 -1.5129  2.6998 -1.4157
 6595TIP3   OH241419   6.241   6.060   0.992  0.1273  0.1787 -0.5527
 6595TIP3    H141420   6.247   6.062   1.087  0.9797 -2.9010 -0.4482
 6595TIP3    H241421   6.196   5.978   0.972 -2.6691  2.0619 -2.7976
 6596TIP3   OH241422   5.250   6.256   0.134  0.1851 -0.4530  0.1547
 6596TIP3    H141423   5.258   6.252   0.038 -0.8627 -1.3547  0.0856
 6596TIP3    H241424   5.276   6.346   0.156  0.9703 -0.3935 -0.9136
 6597TIP3   OH241425   5.934   6.290   0.265 -0.0622 -0.2314 -0.2781
 6597TIP3    H141426   6.019   6.255   0.289 -0.2026 -0.6263 -0.3493
 6597TIP3    H241427   5.906   6.236   0.191 -0.7971 -0.7286  0.3440
 6598TIP3   OH241428   5.890   5.594   2.679  0.3825 -0.4419  0.2189
 6598TIP3    H141429   5.937   5.514   2.701  0.2736 -0.8081 -0.8183
 6598TIP3    H241430   5.957   5.662   2.676  0.5324 -0.5643  0.7275
 6599TIP3   OH241431   5.867   0.890   8.398  0.0807 -0.7664  0.0699
 6599TIP3    H141432   5.793   0.945   8.422  1.4201  0.7499  0.9615
 6599TIP3    H241433   5.859   0.878   8.304 -0.5583  0.5297 -0.0615
 6600TIP3   OH241434   1.729   4.687   8.160  0.6933  0.1203 -0.0421
 6600TIP3    H141435   1.705   4.752   8.094 -1.7047 -1.9285 -1.3685
 6600TIP3    H241436   1.787   4.626   8.115  2.2929  0.8219  0.9669
 6601TIP3   OH241437   2.971   2.662   1.938  0.4339 -0.2055  0.0885
 6601TIP3    H141438   2.925   2.601   1.880 -1.2863 -1.7106  2.8625
 6601TIP3    H241439   3.047   2.613   1.968  1.3880  0.6172 -0.9013
 6602TIP3   OH241440   3.993   3.089   0.197 -0.3458 -0.1626  0.4763
 6602TIP3    H141441   3.898   3.091   0.204 -0.2860  0.8232  1.1842
 6602TIP3    H241442   4.017   3.178   0.170  0.4032 -0.2596  0.7891
 6603TIP3   OH241443   6.024   0.670   1.399 -0.2131 -0.4472  0.4109
 6603TIP3    H141444   6.094   0.703   1.456  0.0093  0.2076 -0.2354
 6603TIP3    H241445   5.982   0.749   1.365  0.1024 -0.8198 -0.8841
 6604TIP3   OH241446   6.499   2.657   7.395 -0.4255  0.7300 -0.3510
 6604TIP3    H141447   6.514   2.725   7.461  2.6024 -0.1513  0.0452
 6604TIP3    H241448   6.520   2.698   7.312  1.4641  0.3881 -0.1056
 6605TIP3   OH241449   4.830   0.069   2.075  0.2330  0.5478  0.3913
 6605TIP3    H141450   4.861   0.003   2.136  2.1196  1.3355  0.3574
 6605TIP3    H241451   4.876   0.051   1.993  0.1056  1.3524  0.1255
 6606TIP3   OH241452   3.342   2.029   8.148 -0.2600 -0.2836  0.2261
 6606TIP3    H141453   3.433   2.026   8.177 -0.5254 -0.5107  1.0762
 6606TIP3    H241454   3.307   1.942   8.168 -0.5191 -0.3727 -0.5892
 6607TIP3   OH241455   2.309   1.332   2.176  0.1604 -0.6286  0.2255
 6607TIP3    H141456   2.221   1.368   2.166  0.4583  0.2942  0.8875
 6607TIP3    H241457   2.367   1.407   2.171  1.0484 -1.3683 -1.6086
 6608TIP3   OH241458   4.297   1.981   8.646  0.4977  0.4702 -0.4648
 6608TIP3    H141459   4.301   1.952   8.555  2.0919 -2.0241  0.2754
 6608TIP3    H241460   4.206   1.965   8.672  0.2528  0.3256 -1.3869
 6609TIP3   OH241461   6.032   5.177   8.104 -0.6373 -0.1023  0.4641
 6609TIP3    H141462   6.090   5.139   8.169 -0.9626 -1.8926 -0.2368
 6609TIP3    H241463   6.091   5.216   8.039 -0.2277 -0.8867  0.3492
 6610TIP3   OH241464   2.901   2.753   7.929 -0.5576  0.4884 -0.5397
 6610TIP3    H141465   2.827   2.747   7.990 -0.6912 -1.9513 -0.8441
 6610TIP3    H241466   2.912   2.846   7.914 -1.2392  1.1264  2.3554
 6611TIP3   OH241467   5.086   6.717   0.782 -0.5676  0.0418  0.6524
 6611TIP3    H141468   5.025   6.662   0.733 -0.0897 -0.8905  1.0663
 6611TIP3    H241469   5.095   6.672   0.866 -1.0617  1.3815  1.4565
 6612TIP3   OH241470   5.806   0.916   0.732 -0.0640 -0.3593 -0.2446
 6612TIP3    H141471   5.727   0.967   0.714  0.1493  0.8235  1.8546
 6612TIP3    H241472   5.796   0.887   0.823  0.9589 -2.0276 -0.6181
 6613TIP3   OH241473   0.664   5.356   2.221  0.0588  0.0887 -1.0497
 6613TIP3    H141474   0.750   5.356   2.179  0.4680  1.1287 -0.2370
 6613TIP3    H241475   0.672   5.418   2.293 -0.8123 -1.2328  0.2283
 6614TIP3   OH241476   1.555   1.006   7.630  0.2683  0.1045 -0.3990
 6614TIP3    H141477   1.602   1.003   7.546 -0.0868 -1.1172 -0.5821
 6614TIP3    H241478   1.582   0.925   7.675  2.0250  1.6630  1.5646
 6615TIP3   OH241479   3.650   0.396   2.966  0.1183  0.4285  0.4584
 6615TIP3    H141480   3.625   0.307   2.940  1.4469  0.0800  0.2783
 6615TIP3    H241481   3.586   0.453   2.923 -1.6945 -0.4799  1.7874
 6616TIP3   OH241482   4.270   3.240   2.291 -0.3513 -0.2585  0.3953
 6616TIP3    H141483   4.334   3.173   2.314  0.9718  0.0561 -2.0720
 6616TIP3    H241484   4.296   3.316   2.342  1.1461 -0.2159 -0.3727
 6617TIP3   OH241485   3.876   5.476   1.127  0.4857  0.1102  0.2361
 6617TIP3    H141486   3.891   5.452   1.035  0.1678  0.2872  0.1345
 6617TIP3    H241487   3.800   5.534   1.124 -0.3772 -0.9712  0.7570
 6618TIP3   OH241488   3.583   3.914   1.051  0.0519  0.3644  0.2203
 6618TIP3    H141489   3.629   3.835   1.080 -0.7143  0.4692  1.8720
 6618TIP3    H241490   3.648   3.984   1.062  0.1026  0.2464  0.7014
 6619TIP3   OH241491   6.151   5.847   1.768 -0.4005 -0.1324 -0.3707
 6619TIP3    H141492   6.220   5.785   1.747  0.4306  0.5865  0.1552
 6619TIP3    H241493   6.186   5.932   1.741 -1.0835  0.2386 -0.1148
 6620TIP3   OH241494   6.146   1.013   2.032  0.1324  0.1810  0.4800
 6620TIP3    H141495   6.237   0.981   2.024 -0.3034 -0.9054 -0.4574
 6620TIP3    H241496   6.110   0.962   2.105  0.0320 -0.0157  0.2949
 6621TIP3   OH241497   5.764   2.261   7.420 -0.2244  0.8367  0.1506
 6621TIP3    H141498   5.786   2.169   7.430 -1.2534  0.7331  1.7932
 6621TIP3    H241499   5.840   2.308   7.455 -1.6667  0.5009  4.2325
 6622TIP3   OH241500   2.057   0.777   8.294  0.1962 -0.6076  0.6389
 6622TIP3    H141501   2.133   0.821   8.256 -0.3800 -0.7230 -0.6915
 6622TIP3    H241502   2.025   0.719   8.225 -0.9931 -0.6985  1.2360
 6623TIP3   OH241503   0.090   2.970   0.439  0.4058  0.1146 -0.2316
 6623TIP3    H141504   0.008   2.941   0.479  0.4761  2.1606  1.5864
 6623TIP3    H241505   0.063   3.018   0.361 -0.3586  2.1986  1.2155
 6624TIP3   OH241506   4.336   5.741   2.361 -0.2184  0.3096 -0.4819
 6624TIP3    H141507   4.364   5.779   2.444  0.1836 -0.3041 -0.3253
 6624TIP3    H241508   4.306   5.815   2.309 -0.2727  0.7264  0.1299
 6625TIP3   OH241509   0.828   1.529   8.263 -0.1201 -0.1197 -0.7605
 6625TIP3    H141510   0.826   1.434   8.268 -1.2638 -0.0984 -0.4426
 6625TIP3    H241511   0.768   1.550   8.191  0.1195  0.3566 -0.8222
 6626TIP3   OH241512   1.053   1.170   1.298  0.4014 -0.2348 -0.5698
 6626TIP3    H141513   0.965   1.156   1.262  0.0447 -0.0332  0.2049
 6626TIP3    H241514   1.106   1.099   1.260 -0.2984 -0.8851 -0.3573
 6627TIP3   OH241515   1.107   2.432   1.265  0.5561  0.5897  0.3735
 6627TIP3    H141516   1.193   2.407   1.229  0.5434  1.0666  0.0020
 6627TIP3    H241517   1.075   2.352   1.307  0.4796 -0.0649 -0.8709
 6628TIP3   OH241518   2.767   5.904   8.304 -0.3027  0.1676 -0.1265
 6628TIP3    H141519   2.829   5.937   8.239 -1.7672  0.6649 -1.3505
 6628TIP3    H241520   2.785   5.955   8.383  2.4956 -1.4547  0.4218
 6629TIP3   OH241521   6.760   2.504   2.317 -0.7871 -0.1094  0.0333
 6629TIP3    H141522   6.811   2.500   2.236  0.0244  1.6016  0.4106
 6629TIP3    H241523   6.757   2.597   2.339 -1.4286 -0.4839  1.7129
 6630TIP3   OH241524   1.729   4.159   3.643 -0.4265  0.5353 -0.5512
 6630TIP3    H141525   1.710   4.066   3.657 -1.0258  0.6473 -0.5747
 6630TIP3    H241526   1.727   4.170   3.548  4.2168 -0.3425 -0.9879
 6631TIP3   OH241527   6.277   0.036   0.785  0.3777 -0.9393  0.4585
 6631TIP3    H141528   6.218   0.054   0.712  1.1312 -2.2593 -0.4973
 6631TIP3    H241529   6.252  -0.051   0.816  0.7597 -0.8282  1.1144
 6632TIP3   OH241530   0.503   5.477   0.752 -0.2845 -0.0761  0.0129
 6632TIP3    H141531   0.508   5.488   0.847  0.6738  1.0657 -0.1647
 6632TIP3    H241532   0.410   5.458   0.736 -0.8488  1.6787  0.9779
 6633TIP3   OH241533   0.583   1.157   2.071  0.4252  0.5545  0.6021
 6633TIP3    H141534   0.588   1.225   2.138  1.4169  0.0574  1.0584
 6633TIP3    H241535   0.657   1.098   2.091  0.5056  0.1854 -0.6884
 6634TIP3   OH241536   5.407   5.766   8.078  0.2168  0.4540 -0.4864
 6634TIP3    H141537   5.316   5.761   8.047  0.3134 -0.0683 -0.7069
 6634TIP3    H241538   5.456   5.717   8.012  0.7907  1.5399 -0.8751
 6635TIP3   OH241539   1.816   1.240   3.056  0.0945  0.0426  0.1578
 6635TIP3    H141540   1.898   1.257   3.010  0.3740 -0.8584  0.2965
 6635TIP3    H241541   1.769   1.178   3.000  0.7706 -1.6553  1.3977
 6636TIP3   OH241542   1.213   4.317   1.147  0.2882 -0.7129  0.4908
 6636TIP3    H141543   1.170   4.293   1.066  1.2280 -0.7117 -0.0269
 6636TIP3    H241544   1.153   4.289   1.216  0.1684 -2.1134 -0.1571
 6637TIP3   OH241545   5.969   2.811   2.505 -0.6722 -0.0938  0.5103
 6637TIP3    H141546   5.915   2.812   2.585 -1.6198 -0.6227 -0.0942
 6637TIP3    H241547   5.949   2.895   2.462 -1.3192 -0.4379  0.1119
 6638TIP3   OH241548   5.585   3.157   1.450  0.2161  0.3268 -0.3028
 6638TIP3    H141549   5.680   3.147   1.445  0.2998  0.9955 -0.2026
 6638TIP3    H241550   5.554   3.136   1.362  0.5232  0.7185 -0.5067
 6639TIP3   OH241551   3.670   3.561   7.711  0.3743 -0.1787 -0.1136
 6639TIP3    H141552   3.742   3.564   7.774  0.0409 -0.7301  0.3094
 6639TIP3    H241553   3.712   3.561   7.625  0.8176  1.5868  0.0625
 6640TIP3   OH241554   0.844   2.707   8.824 -0.9936  0.4173  0.2459
 6640TIP3    H141555   0.760   2.741   8.855 -0.4268  1.7764  0.3657
 6640TIP3    H241556   0.873   2.770   8.757  0.5033  0.7030  1.0952
 6641TIP3   OH241557   2.394   3.243   1.822  0.1894 -0.1000 -0.1526
 6641TIP3    H141558   2.463   3.183   1.794  1.5135  0.5018  1.6605
 6641TIP3    H241559   2.385   3.304   1.749  0.8777 -0.7512 -0.8109
 6642TIP3   OH241560   1.067   5.253   2.739  0.0001  0.3561 -0.3860
 6642TIP3    H141561   1.162   5.254   2.756  0.0726 -2.9569  0.1665
 6642TIP3    H241562   1.056   5.185   2.673 -2.1753 -1.0918  1.3316
 6643TIP3   OH241563   5.909   2.068   1.401 -0.1936  0.1965  0.1842
 6643TIP3    H141564   5.886   2.160   1.385  1.0037  0.4325 -0.2996
 6643TIP3    H241565   5.910   2.060   1.496  1.1856  1.1144  0.2796
 6644TIP3   OH241566   2.313   2.310   0.799 -0.4598 -0.0194  0.3646
 6644TIP3    H141567   2.291   2.356   0.880 -0.6766  0.6312 -0.0495
 6644TIP3    H241568   2.338   2.380   0.738  0.7319 -0.5827  0.1782
 6645TIP3   OH241569   2.818   5.520   8.681  0.0494  0.3029  0.1794
 6645TIP3    H141570   2.737   5.566   8.702 -1.8737 -0.4994 -4.1895
 6645TIP3    H241571   2.851   5.564   8.602  0.9233 -2.5773 -1.2134
 6646TIP3   OH241572   1.562   2.281   3.297 -0.1077 -0.1195  0.0345
 6646TIP3    H141573   1.627   2.310   3.233 -0.9292 -0.5939 -1.0540
 6646TIP3    H241574   1.479   2.319   3.265 -0.8123 -1.7276 -0.1383
 6647TIP3   OH241575   2.983   0.057   0.834  0.4068 -0.4037 -0.3871
 6647TIP3    H141576   3.065   0.106   0.842  0.0737  0.1240 -0.1231
 6647TIP3    H241577   2.993   0.007   0.753  1.2158 -0.7918 -0.0608
 6648TIP3   OH241578   2.666   3.340   8.122 -0.3087 -0.1839 -0.0494
 6648TIP3    H141579   2.579   3.311   8.148  0.2943 -1.5135  0.5375
 6648TIP3    H241580   2.691   3.281   8.051  0.6044 -0.6055  0.6058
 6649TIP3   OH241581   4.059   6.648   0.029 -0.1134  0.3512  0.7012
 6649TIP3    H141582   4.092   6.624  -0.058 -1.5348 -1.2838  0.5409
 6649TIP3    H241583   4.137   6.655   0.084  0.7579  0.7181 -0.5416
 6650TIP3   OH241584   2.990   4.563   8.065 -0.6484 -0.4510 -0.3961
 6650TIP3    H141585   3.083   4.577   8.080 -0.3457 -2.9158  0.5456
 6650TIP3    H241586   2.977   4.583   7.972  0.8947 -0.4080 -0.6214
 6651TIP3   OH241587   3.040   2.049   0.200 -0.7534  0.0456 -0.3534
 6651TIP3    H141588   3.082   1.973   0.240 -1.4108  1.5321  3.7029
 6651TIP3    H241589   3.108   2.116   0.197 -0.8900  0.1511 -1.1315
 6652TIP3   OH241590   2.696   0.236   8.759  0.1390  0.0129  0.2404
 6652TIP3    H141591   2.637   0.289   8.813  1.6559  0.6215  1.3497
 6652TIP3    H241592   2.750   0.300   8.713  1.8402 -0.5080  1.4195
 6653TIP3   OH241593   0.778   1.323   7.942  0.0627 -0.5626  0.1420
 6653TIP3    H141594   0.800   1.270   7.865  1.3730  1.0923 -0.7027
 6653TIP3    H241595   0.856   1.317   7.998 -0.1230 -0.2178  0.4455
 6654TIP3   OH241596   3.075   2.555   8.503 -0.4862  0.3019  0.4302
 6654TIP3    H141597   3.080   2.501   8.424 -2.8072  0.4315  0.1163
 6654TIP3    H241598   3.081   2.493   8.575  0.8641  0.0968  0.1669
 6655TIP3   OH241599   4.986   0.214   7.510 -0.6396 -0.0600  0.3133
 6655TIP3    H141600   4.985   0.125   7.546  0.8425 -0.0515  0.4682
 6655TIP3    H241601   4.979   0.201   7.415 -0.4249 -0.3571  0.3342
 6656TIP3   OH241602   4.925   0.280   8.711  0.0912 -0.5612 -0.1290
 6656TIP3    H141603   4.871   0.246   8.782  2.2333 -0.4062  1.7130
 6656TIP3    H241604   4.950   0.203   8.660  0.4036 -1.0177  0.6955
 6657TIP3   OH241605   6.731   1.662   1.102  0.1699  0.4220  0.4611
 6657TIP3    H141606   6.774   1.747   1.100 -0.9573  1.0072  0.4550
 6657TIP3    H241607   6.714   1.642   1.010  0.3442  0.2295  0.4696
 6658TIP3   OH241608   0.931   0.935   0.035 -0.6054 -0.6748  0.5253
 6658TIP3    H141609   0.920   0.961   0.127  1.2974  3.4295 -0.1773
 6658TIP3    H241610   0.994   0.863   0.038 -1.1916 -1.1952  2.4114
 6659TIP3   OH241611   3.858   4.681   1.091  0.4433  0.0490 -0.4489
 6659TIP3    H141612   3.837   4.613   1.027 -0.2489  0.1947 -0.3846
 6659TIP3    H241613   3.789   4.675   1.156 -0.5392  1.8303 -1.2509
 6660TIP3   OH241614   5.793   6.361   7.925 -0.6490  0.6503 -0.1666
 6660TIP3    H141615   5.874   6.408   7.940 -0.0904 -0.2686 -0.2425
 6660TIP3    H241616   5.800   6.327   7.835 -2.0803  2.4191 -1.0094
 6661TIP3   OH241617   1.493   5.844   1.759  0.4904  0.0764  0.1255
 6661TIP3    H141618   1.449   5.775   1.811  1.0003 -0.3911 -0.0538
 6661TIP3    H241619   1.568   5.799   1.720 -0.3593  0.2050 -1.7253
 6662TIP3   OH241620   1.302   3.916   3.035 -0.1443  0.3652  0.3827
 6662TIP3    H141621   1.325   3.891   2.946  1.9278  0.1476  0.9240
 6662TIP3    H241622   1.333   4.006   3.044 -1.2891  0.7638  0.5914
 6663TIP3   OH241623   2.571   2.443   2.331 -0.4461 -0.2108 -0.1481
 6663TIP3    H141624   2.613   2.440   2.418  0.8950  0.0468 -0.7514
 6663TIP3    H241625   2.543   2.534   2.322 -0.5341 -0.2235 -0.0139
 6664TIP3   OH241626   2.912   1.186   1.342  0.2519 -0.2401  0.0546
 6664TIP3    H141627   2.820   1.161   1.332  0.5732 -1.2459 -0.5456
 6664TIP3    H241628   2.911   1.254   1.410 -0.5751 -2.6608  2.6752
 6665TIP3   OH241629   3.693   4.414   1.677 -0.2170 -0.4862  0.0548
 6665TIP3    H141630   3.708   4.473   1.604  1.8128 -1.9527 -0.8238
 6665TIP3    H241631   3.705   4.326   1.640 -1.3985 -1.3987  1.6671
 6666TIP3   OH241632   5.282   6.314   7.904 -0.1940  0.0713 -0.1426
 6666TIP3    H141633   5.367   6.299   7.863 -0.8462  0.6504 -1.7830
 6666TIP3    H241634   5.289   6.402   7.943 -0.3328  0.5181 -1.1017
 6667TIP3   OH241635   3.294   5.045   0.128  0.0950 -0.6738  0.1402
 6667TIP3    H141636   3.317   5.028   0.219 -0.2688 -0.8017  0.2092
 6667TIP3    H241637   3.353   5.115   0.101  0.3975 -0.8308  0.3884
 6668TIP3   OH241638   4.892   2.152   8.039  0.0724 -0.6392 -0.3608
 6668TIP3    H141639   4.799   2.175   8.040 -0.0194 -0.9471  1.0265
 6668TIP3    H241640   4.909   2.120   8.128  1.3768 -1.1102 -0.7611
 6669TIP3   OH241641   1.516   2.998   0.173 -0.6806  0.0280  0.3685
 6669TIP3    H141642   1.505   3.007   0.078 -2.5915 -0.0393  0.5349
 6669TIP3    H241643   1.590   2.938   0.183  0.6351  1.3228 -1.0282
 6670TIP3   OH241644   5.595   1.857   1.463  0.1302 -0.1842  0.7962
 6670TIP3    H141645   5.660   1.787   1.468  0.4163  0.1025  1.1353
 6670TIP3    H241646   5.511   1.812   1.464  0.2531 -0.8466 -3.1167
 6671TIP3   OH241647   4.942   1.805   0.665  0.4956  0.7910 -0.7011
 6671TIP3    H141648   4.905   1.861   0.733  0.3142  2.2062 -1.9159
 6671TIP3    H241649   5.014   1.856   0.628  2.9786 -1.3767  0.7545
 6672TIP3   OH241650   1.045   6.346   8.571  0.5066 -0.2433  0.1945
 6672TIP3    H141651   1.026   6.354   8.478  0.2536  0.9422  0.3277
 6672TIP3    H241652   0.979   6.401   8.613  1.9613  1.0137  0.9260
 6673TIP3   OH241653   6.202   1.695   8.598  0.1193  0.0757 -0.4907
 6673TIP3    H141654   6.119   1.654   8.574 -0.0100 -0.3094  0.5964
 6673TIP3    H241655   6.234   1.732   8.515 -1.5520  1.0177 -0.7726
 6674TIP3   OH241656   0.455   4.256   7.772  0.6251  0.7366  0.1971
 6674TIP3    H141657   0.495   4.265   7.685  1.3337 -1.9748  0.1405
 6674TIP3    H241658   0.521   4.292   7.831  0.9761  0.8652 -0.2603
 6675TIP3   OH241659   1.105   0.121   0.968  0.1221  0.0347 -0.0497
 6675TIP3    H141660   1.146   0.161   0.891  1.0557 -0.7203  0.0362
 6675TIP3    H241661   1.115   0.186   1.038 -0.6398  0.6820 -0.5296
 6676TIP3   OH241662   1.476   6.077   8.563  0.0211 -0.1347  0.2958
 6676TIP3    H141663   1.534   6.070   8.487 -0.5324  2.5515 -0.4829
 6676TIP3    H241664   1.403   6.018   8.542  0.7681 -0.8586 -0.3488
 6677TIP3   OH241665   0.798   2.144   0.134 -0.4133 -0.4803 -0.2539
 6677TIP3    H141666   0.851   2.210   0.179 -0.7182 -0.0693 -0.4872
 6677TIP3    H241667   0.793   2.175   0.043 -1.3514 -0.3158 -0.1557
 6678TIP3   OH241668   5.585   2.772   2.997 -0.7890 -0.4126  0.2585
 6678TIP3    H141669   5.585   2.854   2.946  0.8934  0.1462  1.0745
 6678TIP3    H241670   5.664   2.726   2.968 -0.8280 -0.9619  0.9981
 6679TIP3   OH241671   3.157   1.053   1.497  0.4243 -0.2287 -0.3223
 6679TIP3    H141672   3.140   1.108   1.574  1.0568 -1.5685  0.8218
 6679TIP3    H241673   3.160   0.964   1.532  0.0305 -0.9441 -2.0309
 6680TIP3   OH241674   3.304   4.447   1.360 -0.2336  0.2936 -0.3276
 6680TIP3    H141675   3.328   4.513   1.424 -0.4717  1.0138 -0.9684
 6680TIP3    H241676   3.324   4.487   1.275 -0.2202 -0.5186 -0.7160
 6681TIP3   OH241677   2.996   2.397   2.466 -0.0361 -0.4617  0.3257
 6681TIP3    H141678   2.946   2.454   2.408 -0.2862  0.0987  1.0863
 6681TIP3    H241679   3.002   2.444   2.549  4.2011  0.8950 -0.4753
 6682TIP3   OH241680   1.392   6.121   7.821 -0.5618  0.0481 -0.8253
 6682TIP3    H141681   1.305   6.147   7.790 -0.2847  0.9779 -0.8549
 6682TIP3    H241682   1.443   6.106   7.742 -0.7779 -0.7958 -0.8077
 6683TIP3   OH241683   4.613   5.924   2.338 -0.6581  0.5077  0.0660
 6683TIP3    H141684   4.554   5.963   2.402 -1.6274 -1.8925  0.7557
 6683TIP3    H241685   4.610   5.983   2.263  1.0458  3.7961  2.3483
 6684TIP3   OH241686   4.345   4.281   3.296  0.0122 -0.0292 -0.1752
 6684TIP3    H141687   4.300   4.297   3.379 -0.7721  0.3686 -0.6679
 6684TIP3    H241688   4.433   4.252   3.322 -0.3242 -0.2296  0.7950
 6685TIP3   OH241689   4.327   5.512   8.440  0.1406 -0.1637  0.1332
 6685TIP3    H141690   4.372   5.527   8.357  1.9722 -1.9008  0.7290
 6685TIP3    H241691   4.258   5.449   8.420  1.0198 -1.1036  0.0413
 6686TIP3   OH241692   6.743   4.880   8.653 -0.6747  0.1296  0.1024
 6686TIP3    H141693   6.722   4.942   8.583  0.2194  0.2890 -0.0312
 6686TIP3    H241694   6.835   4.859   8.640 -0.3669  0.5108  1.5055
 6687TIP3   OH241695   5.853   5.898   0.475 -0.2126 -0.7530 -0.3937
 6687TIP3    H141696   5.796   5.975   0.477 -1.4959 -1.5918 -2.0297
 6687TIP3    H241697   5.840   5.861   0.388  0.0726 -3.0384  0.4709
 6688TIP3   OH241698   4.801   6.545   8.466  0.0833  0.2835  0.4976
 6688TIP3    H141699   4.758   6.578   8.387 -1.1172 -0.1088  0.9645
 6688TIP3    H241700   4.836   6.459   8.440 -0.3478  0.1344  0.3971
 6689TIP3   OH241701   6.392   2.931   2.663  0.4155 -1.3608  0.3954
 6689TIP3    H141702   6.333   3.006   2.665 -0.0469 -1.7238  0.3971
 6689TIP3    H241703   6.341   2.859   2.699  1.0516 -1.5461  0.9579
 6690TIP3   OH241704   5.277   5.623   8.322 -0.3971 -0.2139  0.0029
 6690TIP3    H141705   5.229   5.563   8.264 -0.2767 -0.0529 -0.2634
 6690TIP3    H241706   5.353   5.650   8.271 -1.3686  1.5787 -0.5832
 6691TIP3   OH241707   2.590   3.791   0.748  0.3091 -0.0446 -0.2225
 6691TIP3    H141708   2.554   3.730   0.684 -0.1392 -0.0285  0.0158
 6691TIP3    H241709   2.663   3.833   0.703  0.5990 -0.7272 -0.4056
 6692TIP3   OH241710   2.537   2.958   7.655  0.0733  0.2726 -0.4258
 6692TIP3    H141711   2.632   2.953   7.655  0.0999  0.5162  1.1018
 6692TIP3    H241712   2.513   2.975   7.746 -1.3675  1.3871 -0.9660
 6693TIP3   OH241713   4.535   2.966   2.730  0.3546  0.3621 -0.3891
 6693TIP3    H141714   4.475   2.990   2.659 -1.1820 -0.3509  0.5980
 6693TIP3    H241715   4.494   2.889   2.771  2.6655 -1.0316 -0.5070
 6694TIP3   OH241716   6.660   1.516   2.959 -0.0762  0.0308 -0.6056
 6694TIP3    H141717   6.589   1.561   3.006  1.0391  1.0417  0.1517
 6694TIP3    H241718   6.641   1.533   2.867 -1.6867 -1.0604 -0.5201
 6695TIP3   OH241719   4.830   4.307   2.669 -0.3885  0.3043  0.5032
 6695TIP3    H141720   4.754   4.349   2.709  0.6250  2.7542  0.0096
 6695TIP3    H241721   4.847   4.358   2.590  0.7543 -1.2642 -0.3163
 6696TIP3   OH241722   0.779   4.633   2.193  0.0833  0.2930 -0.0220
 6696TIP3    H141723   0.728   4.671   2.121 -0.8741 -1.4631 -0.3310
 6696TIP3    H241724   0.713   4.597   2.253  0.8956 -1.3786 -0.0668
 6697TIP3   OH241725   3.764   0.789   0.404 -0.0827  0.2155 -0.3204
 6697TIP3    H141726   3.753   0.840   0.484  1.8921 -0.9142  0.7430
 6697TIP3    H241727   3.827   0.839   0.352  0.0605  0.0465 -0.3141
 6698TIP3   OH241728   0.200   0.998   0.377 -0.2159  0.3496 -0.4710
 6698TIP3    H141729   0.199   0.951   0.294 -0.3723  0.1885 -0.3767
 6698TIP3    H241730   0.161   1.084   0.356  1.8813  1.2086 -1.0993
 6699TIP3   OH241731   2.748   0.578   2.903 -0.0785 -0.1714  0.3119
 6699TIP3    H141732   2.795   0.501   2.935  1.7806  0.3488 -0.9919
 6699TIP3    H241733   2.747   0.568   2.808 -0.0751  1.2502  0.1392
 6700TIP3   OH241734   6.090   3.457   7.111  0.1674 -0.0643 -0.2303
 6700TIP3    H141735   6.031   3.382   7.114 -0.4805  0.4370  1.7389
 6700TIP3    H241736   6.132   3.458   7.197  0.3404  1.6676 -0.2937
 6701TIP3   OH241737   0.952   4.419   2.288  0.1845 -0.3089  0.6058
 6701TIP3    H141738   0.867   4.444   2.252 -1.4202  0.5321  4.4206
 6701TIP3    H241739   0.998   4.501   2.301  2.1149 -0.8098 -2.2554
 6702TIP3   OH241740   1.367   2.120   0.417 -0.3360  0.2338 -0.0554
 6702TIP3    H141741   1.303   2.148   0.352 -1.1716 -1.1689  0.1125
 6702TIP3    H241742   1.411   2.045   0.376 -0.3747 -0.2102  0.6945
 6703TIP3   OH241743   5.761   0.264   0.202 -0.2872  0.1335 -0.1746
 6703TIP3    H141744   5.846   0.299   0.228 -0.0474  1.3602 -2.3865
 6703TIP3    H241745   5.711   0.259   0.284  1.3399  0.9737  0.9186
 6704TIP3   OH241746   2.640   3.222   8.527  0.0376 -0.1117  0.6605
 6704TIP3    H141747   2.715   3.197   8.473  0.4327 -0.4254  1.3379
 6704TIP3    H241748   2.602   3.139   8.555  0.5109  0.0239  1.7702
 6705TIP3   OH241749   1.488   0.191   0.771 -0.5893  0.3539  0.2992
 6705TIP3    H141750   1.478   0.165   0.862  0.0775  2.7076  1.1073
 6705TIP3    H241751   1.488   0.287   0.773 -0.7353  0.4728 -2.1999
 6706TIP3   OH241752   4.965   1.160   1.391  0.2148 -0.3421 -0.3337
 6706TIP3    H141753   4.994   1.212   1.316  2.1899 -0.8107  0.0570
 6706TIP3    H241754   4.916   1.087   1.353  0.6867 -0.2508 -1.1207
 6707TIP3   OH241755   2.002   1.372   2.102  0.5011 -0.5741 -0.1677
 6707TIP3    H141756   2.036   1.427   2.031  0.4919 -0.9140 -0.4421
 6707TIP3    H241757   1.939   1.314   2.059 -1.9759  1.3450  0.6353
 6708TIP3   OH241758   3.723   2.692   1.441 -0.1335 -0.2451 -0.1741
 6708TIP3    H141759   3.644   2.721   1.486  0.1307  3.2104 -1.6326
 6708TIP3    H241760   3.693   2.657   1.357 -0.2093 -1.3106  0.2713
 6709TIP3   OH241761   4.783   5.708   1.991  0.4097  0.4301 -0.3351
 6709TIP3    H141762   4.726   5.703   2.068 -0.0693  0.6034 -0.6752
 6709TIP3    H241763   4.778   5.799   1.962 -1.6362 -0.2006 -2.2217
 6710TIP3   OH241764   6.821   3.027   7.137 -0.3346  0.0153  0.2085
 6710TIP3    H141765   6.906   2.984   7.138  0.1956  1.0360  1.2546
 6710TIP3    H241766   6.760   2.959   7.167  0.4143 -0.1876  1.3458
 6711TIP3   OH241767   1.558   4.746   0.819 -0.2090 -0.0150  0.7102
 6711TIP3    H141768   1.514   4.809   0.875 -1.0723 -0.0886  0.1450
 6711TIP3    H241769   1.489   4.684   0.794 -0.1439  0.6284 -1.2964
 6712TIP3   OH241770   2.843   0.166   1.784 -0.6013  0.0457 -0.4891
 6712TIP3    H141771   2.909   0.114   1.830 -2.1977 -0.1259  1.7714
 6712TIP3    H241772   2.771   0.105   1.769 -0.1929  0.1025 -3.3298
 6713TIP3   OH241773   5.213   3.278   2.875 -0.6278  0.8472 -0.0648
 6713TIP3    H141774   5.274   3.221   2.922 -0.2812  1.5158  0.3090
 6713TIP3    H241775   5.133   3.277   2.929 -0.3817  1.2675  0.3078
 6714TIP3   OH241776   2.360   5.608   0.635 -0.3497  0.1262  0.5968
 6714TIP3    H141777   2.340   5.697   0.664 -1.5816 -0.2670  1.0090
 6714TIP3    H241778   2.376   5.617   0.541  2.3973  1.2050  1.0402
 6715TIP3   OH241779   1.979   4.428   0.542  0.3076 -0.1412  0.0785
 6715TIP3    H141780   1.890   4.429   0.507  0.6786  0.5136 -0.8814
 6715TIP3    H241781   1.979   4.355   0.605 -0.5634 -0.9072 -0.7816
 6716TIP3   OH241782   6.235   1.770   1.415 -0.4807  0.5697  0.0039
 6716TIP3    H141783   6.261   1.819   1.493  1.6077  1.6714 -1.2710
 6716TIP3    H241784   6.277   1.684   1.426 -1.3226  0.2395  0.6953
 6717TIP3   OH241785   6.744   5.830   0.002 -0.4827 -0.1757 -0.2428
 6717TIP3    H141786   6.747   5.737   0.022 -1.5504 -0.1300  0.1669
 6717TIP3    H241787   6.765   5.873   0.085  1.0786 -0.0371 -0.6698
 6718TIP3   OH241788   4.253   6.339   2.776  0.1558 -0.0919 -0.2620
 6718TIP3    H141789   4.252   6.309   2.685  0.5918 -1.5599  0.1916
 6718TIP3    H241790   4.208   6.269   2.824  1.7026 -0.3130  0.9267
 6719TIP3   OH241791   0.216   4.458   0.666 -0.8728 -0.5528 -0.1173
 6719TIP3    H141792   0.171   4.481   0.747 -0.7585 -1.9098  0.3466
 6719TIP3    H241793   0.172   4.379   0.635  0.5130 -1.3124 -0.2022
 6720TIP3   OH241794   2.645   2.086   1.123  0.4142 -0.7301  0.5168
 6720TIP3    H141795   2.590   2.115   1.050  0.5847 -1.8895 -0.0818
 6720TIP3    H241796   2.689   2.166   1.152  0.5061 -0.2850 -0.7769
 6721TIP3   OH241797   5.683   0.865   0.431 -0.8636  0.4071  0.0377
 6721TIP3    H141798   5.653   0.784   0.391 -0.1336  0.1768 -0.0529
 6721TIP3    H241799   5.737   0.837   0.505 -1.0288  0.8156  0.3162
 6722TIP3   OH241800   3.992   6.444   0.637 -1.1632 -0.0029 -0.2782
 6722TIP3    H141801   4.051   6.378   0.602 -0.9540  0.0852 -0.0984
 6722TIP3    H241802   3.905   6.404   0.634 -0.7749 -1.1257  1.8505
 6723TIP3   OH241803   5.436   3.800   2.779  0.4089  0.3024  0.6732
 6723TIP3    H141804   5.382   3.823   2.855 -0.1774  0.2092  0.2950
 6723TIP3    H241805   5.468   3.884   2.745 -0.4847  0.4666  0.1960
 6724TIP3   OH241806   6.642   0.308   8.210 -0.0690  0.0231 -0.4757
 6724TIP3    H141807   6.595   0.390   8.221  0.9384  0.6649 -0.9087
 6724TIP3    H241808   6.598   0.265   8.136 -1.7058 -0.6598  0.8071
 6725TIP3   OH241809   2.722   2.704   8.770  0.0342 -0.1537 -0.4891
 6725TIP3    H141810   2.737   2.623   8.721  0.8509 -1.1692  1.3153
 6725TIP3    H241811   2.653   2.749   8.722  0.6002 -1.1921 -2.3867
 6726TIP3   OH241812   5.221   2.919   7.975 -0.1754 -0.0838 -0.1595
 6726TIP3    H141813   5.263   2.905   7.890 -0.4045 -1.6032 -0.0457
 6726TIP3    H241814   5.290   2.958   8.029  0.2599  0.0112 -0.7712
 6727TIP3   OH241815   1.821   1.785   1.409  0.0165 -0.0414 -0.3223
 6727TIP3    H141816   1.888   1.733   1.363  0.6026  0.5717 -0.1765
 6727TIP3    H241817   1.790   1.727   1.479  0.3215 -0.3692 -0.4539
 6728TIP3   OH241818   2.059   0.066   8.439 -0.4566 -0.0929 -0.0700
 6728TIP3    H141819   2.133   0.006   8.439 -0.7453 -0.4541  0.3073
 6728TIP3    H241820   2.099   0.154   8.438  0.0051 -0.2508  1.7388
 6729TIP3   OH241821   1.426   1.106   2.749  0.0138 -0.7520  0.3915
 6729TIP3    H141822   1.353   1.136   2.694  0.3584 -0.3119  0.1629
 6729TIP3    H241823   1.433   1.012   2.731  0.2986 -0.5680 -0.5520
 6730TIP3   OH241824   2.272   2.702   8.495 -0.0318 -0.0963 -0.2266
 6730TIP3    H141825   2.223   2.743   8.566  0.0355 -0.9973  0.3505
 6730TIP3    H241826   2.210   2.641   8.455 -0.2389  0.7774 -1.3028
 6731TIP3   OH241827   0.421   3.209   2.782  0.3522  0.1516  0.3422
 6731TIP3    H141828   0.463   3.293   2.803  1.1974 -0.7008  2.3910
 6731TIP3    H241829   0.481   3.167   2.720  0.4537  0.6277  0.1107
 6732TIP3   OH241830   4.327   4.635   7.362  0.3068 -0.4737  0.3459
 6732TIP3    H141831   4.401   4.597   7.409  0.2984  0.8231  1.4862
 6732TIP3    H241832   4.331   4.597   7.274  3.2219  0.6396 -0.1161
 6733TIP3   OH241833   6.278   0.483   0.402  0.3746 -0.6867  0.0804
 6733TIP3    H141834   6.324   0.444   0.476  1.3603  0.3176  0.0210
 6733TIP3    H241835   6.195   0.435   0.397  1.4315 -2.6205  0.1223
 6734TIP3   OH241836   4.576   6.344   8.529  0.4913  0.6817  0.0896
 6734TIP3    H141837   4.488   6.359   8.561  1.3788  1.0693  2.5651
 6734TIP3    H241838   4.629   6.412   8.570  1.8038  1.1623 -2.2342
 6735TIP3   OH241839   0.193   4.748   0.758 -0.3723  0.1844 -0.2250
 6735TIP3    H141840   0.100   4.736   0.776 -0.1846  1.6254  2.0592
 6735TIP3    H241841   0.195   4.793   0.674 -1.8361  1.4396  0.3654
 6736TIP3   OH241842   0.547   5.188   7.939 -0.1967 -0.1096 -0.5299
 6736TIP3    H141843   0.459   5.176   7.976 -0.6642 -0.0356 -1.5776
 6736TIP3    H241844   0.579   5.100   7.923  0.5116 -0.1933  1.1351
 6737TIP3   OH241845   3.678   4.040   3.098 -0.7375  0.1837  0.1093
 6737TIP3    H141846   3.656   4.132   3.109 -1.0352  0.1041  0.2095
 6737TIP3    H241847   3.773   4.036   3.108 -0.5264  0.6904 -1.4149
 6738TIP3   OH241848   2.625   0.312   0.693  0.5359  0.9073 -0.1505
 6738TIP3    H141849   2.598   0.377   0.628 -0.0569  0.2926 -0.5223
 6738TIP3    H241850   2.616   0.358   0.777  1.6676  1.8300 -0.5069
 6739TIP3   OH241851   6.710   4.252   2.441 -0.1209 -0.1229  0.2361
 6739TIP3    H141852   6.640   4.302   2.398  0.1088 -0.2621 -0.3149
 6739TIP3    H241853   6.675   4.164   2.451 -1.8326  0.8057  4.2421
 6740TIP3   OH241854   4.680   0.897   2.486  0.4567  0.4643  0.0689
 6740TIP3    H141855   4.628   0.934   2.558 -0.2273 -0.1013 -0.1218
 6740TIP3    H241856   4.632   0.818   2.460  0.1532  1.1748 -1.6591
 6741TIP3   OH241857   4.496   3.733   0.774 -0.7585  0.1424  0.6621
 6741TIP3    H141858   4.425   3.787   0.740  1.0933  1.2082 -1.8832
 6741TIP3    H241859   4.516   3.672   0.704  1.7421  0.8604  0.6254
 6742TIP3   OH241860   4.928   3.452   8.827 -0.3714 -0.1074 -0.4370
 6742TIP3    H141861   4.844   3.433   8.786 -0.1419  0.0336 -0.9940
 6742TIP3    H241862   4.924   3.410   8.913 -1.8624  1.7129  0.4586
 6743TIP3   OH241863   1.587   5.066   1.168  0.2887 -0.1379 -0.0558
 6743TIP3    H141864   1.499   5.096   1.190  0.4865 -0.4831  1.3447
 6743TIP3    H241865   1.639   5.146   1.160 -0.0135  0.0411 -0.2001
 6744TIP3   OH241866   6.670   0.193   8.467  0.0825 -0.1468  0.3221
 6744TIP3    H141867   6.587   0.211   8.510  0.9584 -0.8734  2.4174
 6744TIP3    H241868   6.660   0.230   8.379 -1.6065  1.8116  1.2613
 6745TIP3   OH241869   5.625   3.284   0.947 -0.1214  0.1801  0.8901
 6745TIP3    H141870   5.721   3.281   0.938 -0.1662  0.0101  0.4109
 6745TIP3    H241871   5.594   3.290   0.857 -0.5940 -0.6900  0.9829
 6746TIP3   OH241872   6.433   6.224   7.701 -0.5155  0.3873 -0.1074
 6746TIP3    H141873   6.339   6.241   7.699 -0.5596  0.2804  0.8680
 6746TIP3    H241874   6.445   6.161   7.772  0.1940 -0.2665 -0.7816
 6747TIP3   OH241875   1.558   5.783   2.845  0.2229  0.5668 -0.0628
 6747TIP3    H141876   1.484   5.771   2.784  0.1969 -0.5760  0.1731
 6747TIP3    H241877   1.635   5.782   2.788  0.1997 -0.5026 -0.1088
 6748TIP3   OH241878   6.585   2.151   2.780  0.4353 -0.5162 -0.4197
 6748TIP3    H141879   6.663   2.168   2.834 -0.3725  0.4637  0.4720
 6748TIP3    H241880   6.528   2.226   2.796  0.1781 -0.1442 -2.6998
 6749TIP3   OH241881   2.531   5.917   8.163  0.1934 -0.4678 -0.0376
 6749TIP3    H141882   2.616   5.902   8.205 -0.0242 -0.3391  0.4574
 6749TIP3    H241883   2.505   6.004   8.192 -0.6829 -0.9939  0.8523
 6750TIP3   OH241884   6.611   4.017   0.724  0.0501 -0.2887 -0.0976
 6750TIP3    H141885   6.568   4.093   0.684  0.6263 -0.4134 -0.9944
 6750TIP3    H241886   6.602   3.948   0.658  0.5624 -0.6558  0.2097
 6751TIP3   OH241887   1.850   5.054   0.051  0.1002  0.1679 -0.0631
 6751TIP3    H141888   1.757   5.054   0.028  0.1042  2.2503 -0.2658
 6751TIP3    H241889   1.862   4.973   0.102 -1.5751 -0.6377 -0.8607
 6752TIP3   OH241890   0.631   6.785   8.285 -0.2180  0.5677  0.1560
 6752TIP3    H141891   0.598   6.695   8.295  0.2204  0.1681 -1.6223
 6752TIP3    H241892   0.553   6.839   8.277 -0.4805  0.1623 -0.0718
 6753TIP3   OH241893   6.028   1.594   1.543  0.0858  0.0570 -0.2688
 6753TIP3    H141894   6.101   1.534   1.529  0.1367  0.2786 -0.9908
 6753TIP3    H241895   6.060   1.679   1.512  1.3883  1.4505  4.0609
 6754TIP3   OH241896   0.296   2.560   7.482 -0.2720  0.1655  0.3906
 6754TIP3    H141897   0.323   2.494   7.418  2.8935 -0.0945  1.8042
 6754TIP3    H241898   0.300   2.643   7.433 -0.4933 -0.2819 -0.4099
 6755TIP3   OH241899   6.196   1.340   8.369 -0.6295 -0.2212 -0.5446
 6755TIP3    H141900   6.234   1.394   8.439 -1.1342 -0.4790 -0.0640
 6755TIP3    H241901   6.201   1.395   8.291 -1.4507  0.6727  0.0060
 6756TIP3   OH241902   3.078   6.584   2.014 -0.1530 -0.2072 -0.1639
 6756TIP3    H141903   3.026   6.509   2.042  0.4209 -0.8443 -0.7703
 6756TIP3    H241904   3.158   6.578   2.067 -0.9436  1.1620  1.2718
 6757TIP3   OH241905   5.258   4.700   1.685 -0.5582  0.2975 -0.0375
 6757TIP3    H141906   5.256   4.630   1.620  1.7290  1.3921 -1.4015
 6757TIP3    H241907   5.330   4.678   1.743 -0.8313  0.7232  0.4770
 6758TIP3   OH241908   5.131   0.971   0.529  0.3593  0.4912  0.3087
 6758TIP3    H141909   5.193   0.964   0.456  0.4917 -0.2280  0.4834
 6758TIP3    H241910   5.183   0.953   0.607 -0.4196 -2.1570  0.3128
 6759TIP3   OH241911   5.079   1.661   8.374 -0.3423  0.7108 -0.3817
 6759TIP3    H141912   5.049   1.666   8.465 -0.8851  3.0632 -0.6341
 6759TIP3    H241913   5.173   1.680   8.378  0.1776 -1.5691 -0.1335
 6760TIP3   OH241914   2.651   3.929   2.716  0.1370 -0.0772 -0.4435
 6760TIP3    H141915   2.614   3.849   2.751  0.7774  0.3309  1.2755
 6760TIP3    H241916   2.601   3.999   2.757  0.1625  0.4316 -1.2510
 6761TIP3   OH241917   1.845   6.175   1.549  0.1541  0.3394 -0.1418
 6761TIP3    H141918   1.774   6.196   1.610  0.1820 -1.1722  0.4583
 6761TIP3    H241919   1.801   6.162   1.465 -0.0211  1.3357 -0.2201
 6762TIP3   OH241920   5.754   6.317   8.490  0.1052 -0.3371  0.0351
 6762TIP3    H141921   5.690   6.387   8.473  0.4816  0.2866  1.1280
 6762TIP3    H241922   5.759   6.311   8.585  0.6753 -1.3220 -0.0436
 6763TIP3   OH241923   4.997   2.792   0.296 -0.5268  0.3898 -0.5476
 6763TIP3    H141924   5.039   2.852   0.357  0.1510 -0.1105 -0.5169
 6763TIP3    H241925   4.921   2.841   0.263 -0.2707  1.0714 -0.1457
 6764TIP3   OH241926   0.353   3.904   0.148 -0.0055  0.0199  0.2175
 6764TIP3    H141927   0.387   3.899   0.058  0.7989  1.2074  0.4233
 6764TIP3    H241928   0.398   3.833   0.194  0.8537  0.4385  0.0530
 6765TIP3   OH241929   1.080   1.880   8.368 -0.3396  0.1811  0.3706
 6765TIP3    H141930   1.123   1.961   8.396  0.9725 -0.1046 -0.7179
 6765TIP3    H241931   1.091   1.879   8.273 -0.8982 -0.9660  0.3068
 6766TIP3   OH241932   4.604   0.883   2.171 -0.3574 -0.9171 -0.5488
 6766TIP3    H141933   4.568   0.955   2.223  0.7813  1.3267 -2.6796
 6766TIP3    H241934   4.549   0.808   2.193 -1.1179  0.3564  2.3647
 6767TIP3   OH241935   5.992   2.656   8.051 -0.0000  0.3097  0.6368
 6767TIP3    H141936   6.039   2.707   7.985  0.7104  1.1098  1.7251
 6767TIP3    H241937   6.017   2.696   8.135 -1.9227  0.1882  1.3240
 6768TIP3   OH241938   1.361   5.194   0.388 -0.5449  0.7130 -0.0098
 6768TIP3    H141939   1.320   5.262   0.334  0.5312  1.9591  0.6753
 6768TIP3    H241940   1.406   5.138   0.326  0.7866  2.2017 -0.4397
 6769TIP3   OH241941   1.133   1.330   2.300  0.0210  0.4306 -0.3637
 6769TIP3    H141942   1.104   1.264   2.363  0.7282 -0.5326 -1.0197
 6769TIP3    H241943   1.098   1.299   2.216  0.8173  0.5968 -0.7649
 6770TIP3   OH241944   0.416   0.130   8.238 -0.5507 -0.3375  0.6612
 6770TIP3    H141945   0.323   0.138   8.214 -0.7274 -0.1267  1.3813
 6770TIP3    H241946   0.421   0.170   8.325  0.3636  0.3427  0.3077
 6771TIP3   OH241947   4.435   6.714   2.249  0.1540 -0.0617 -0.0087
 6771TIP3    H141948   4.510   6.656   2.234 -0.1454 -0.0427 -1.7904
 6771TIP3    H241949   4.401   6.688   2.334  3.5162  1.4174  2.0243
 6772TIP3   OH241950   1.419   2.630   1.412 -0.3113  0.6415 -0.3093
 6772TIP3    H141951   1.392   2.583   1.333 -2.1198  2.1030 -0.6197
 6772TIP3    H241952   1.395   2.572   1.484  0.5495 -0.3178 -0.7611
 6773TIP3   OH241953   6.497   1.236   8.582  0.8119 -0.8269  0.1933
 6773TIP3    H141954   6.561   1.295   8.543  1.4123 -1.8331 -0.3920
 6773TIP3    H241955   6.489   1.164   8.519 -1.7782 -0.1842 -0.3258
 6774TIP3   OH241956   6.706   6.374   2.690  0.0408  0.3486  0.0076
 6774TIP3    H141957   6.646   6.423   2.632  0.0268  0.7132  0.3244
 6774TIP3    H241958   6.793   6.393   2.655  0.0392  0.6495  0.1598
 6775TIP3   OH241959   0.735   4.459   1.913 -0.0499 -0.6627  0.6690
 6775TIP3    H141960   0.710   4.408   1.990 -0.7678 -0.3743  0.6353
 6775TIP3    H241961   0.652   4.477   1.868  0.5063 -2.5255 -1.2771
 6776TIP3   OH241962   4.208   4.126   2.443  0.0766  0.4023 -0.1855
 6776TIP3    H141963   4.255   4.203   2.475 -2.2267  2.1105 -0.5808
 6776TIP3    H241964   4.276   4.065   2.415  2.0114  2.3514  0.0274
 6777TIP3   OH241965   5.459   2.908   2.331  0.0017  0.1017 -1.0631
 6777TIP3    H141966   5.465   2.926   2.425 -1.7943 -0.9044 -0.7022
 6777TIP3    H241967   5.444   2.993   2.291 -2.1327  0.2601 -0.0857
 6778TIP3   OH241968   4.947   0.500   3.374 -0.2513  0.2360  0.5550
 6778TIP3    H141969   5.035   0.538   3.366 -0.4452  0.3634 -1.6034
 6778TIP3    H241970   4.888   0.571   3.348 -0.7534 -0.7839 -1.2795
 6779TIP3   OH241971   6.257   5.805   2.889  0.5136  0.2995 -1.2405
 6779TIP3    H141972   6.271   5.808   2.984 -0.0195  1.8587 -1.1853
 6779TIP3    H241973   6.311   5.732   2.859 -0.6772 -1.4054  0.4823
 6780TIP3   OH241974   2.515   1.508   0.699  0.6380 -0.1985  0.2602
 6780TIP3    H141975   2.501   1.586   0.753 -0.0469 -0.3261  0.2729
 6780TIP3    H241976   2.463   1.440   0.741  0.0385 -0.2867 -0.5939
 6781TIP3   OH241977   4.088   3.328   2.603  0.3085  0.4103  0.3372
 6781TIP3    H141978   4.019   3.302   2.665  0.3854  0.8872  0.6332
 6781TIP3    H241979   4.044   3.387   2.541 -0.1414 -1.3277 -1.0520
 6782TIP3   OH241980   2.631   4.273   1.144  0.0879 -0.3277 -0.4792
 6782TIP3    H141981   2.680   4.291   1.224 -1.1507  1.5473 -0.0913
 6782TIP3    H241982   2.541   4.297   1.165 -0.3419 -0.1727 -2.3142
 6783TIP3   OH241983   1.878   1.628   8.711  0.4041  0.0351 -0.5794
 6783TIP3    H141984   1.929   1.614   8.631  0.1481 -1.5872 -0.4954
 6783TIP3    H241985   1.823   1.703   8.691  1.1334  0.3418 -1.5269
 6784TIP3   OH241986   0.692   1.871   2.478 -0.3410  0.1448  0.1798
 6784TIP3    H141987   0.617   1.917   2.439 -1.2354  0.0039  1.6529
 6784TIP3    H241988   0.746   1.845   2.403 -1.1329  1.3210 -0.8444
 6785TIP3   OH241989   2.047   1.547   2.988 -0.2991 -0.0409 -0.7752
 6785TIP3    H141990   2.049   1.456   3.016  0.1750  0.2264  0.0758
 6785TIP3    H241991   1.992   1.546   2.910 -0.3539 -1.0424 -0.7410
 6786TIP3   OH241992   1.872   1.991   0.997  0.4525 -0.4038  0.8026
 6786TIP3    H141993   1.936   2.058   0.975 -1.4020  0.9871 -0.6533
 6786TIP3    H241994   1.924   1.921   1.038  2.6715  1.1961  0.9085
 6787TIP3   OH241995   6.464   4.399   2.349 -0.2495  0.2123  0.4441
 6787TIP3    H141996   6.372   4.414   2.370  0.3385  2.6599  1.6689
 6787TIP3    H241997   6.483   4.458   2.276  0.2201 -0.7213 -0.2083
 6788TIP3   OH241998   6.579   3.246   2.801  0.2697  0.3491 -0.5693
 6788TIP3    H141999   6.488   3.225   2.823 -0.3744  1.2989 -2.1211
 6788TIP3    H242000   6.595   3.201   2.718  1.3531 -0.1161 -0.1269
 6789TIP3   OH242001   6.770   4.586   2.644  0.0151 -0.2358  0.4186
 6789TIP3    H142002   6.820   4.570   2.724  0.3499  2.3045  0.8139
 6789TIP3    H242003   6.812   4.530   2.578  1.9213  0.0741  1.2852
 6790TIP3   OH242004   1.078   0.452   7.954 -0.1901  0.3434 -0.7057
 6790TIP3    H142005   1.019   0.506   8.006 -0.6237 -0.3151 -0.5068
 6790TIP3    H242006   1.124   0.514   7.898 -0.6251  0.9251 -0.4282
 6791TIP3   OH242007   0.094   5.619   8.421 -0.3947  0.2580 -0.1965
 6791TIP3    H142008   0.012   5.580   8.450 -1.3652  0.9514 -1.8354
 6791TIP3    H242009   0.117   5.571   8.341  2.3877 -1.8719  1.6956
 6792TIP3   OH242010   2.396   4.632   8.494  0.0362 -0.3087 -0.5094
 6792TIP3    H142011   2.436   4.626   8.580  0.8547 -0.8733 -0.9091
 6792TIP3    H242012   2.425   4.552   8.448  2.1292  1.3308 -2.3040
 6793TIP3   OH242013   3.620   0.784   8.551  0.7174  0.3574 -0.3209
 6793TIP3    H142014   3.580   0.698   8.565 -0.0958  0.6489 -0.7809
 6793TIP3    H242015   3.714   0.766   8.548  0.5102 -0.7138 -1.6045
 6794TIP3   OH242016   0.917   5.412   3.217  0.3240 -0.1602 -0.4285
 6794TIP3    H142017   0.849   5.364   3.170  1.1108 -2.2411  0.4127
 6794TIP3    H242018   0.979   5.438   3.149  0.2422 -1.0186 -0.8469
 6795TIP3   OH242019   3.590   2.292   1.302  0.4765 -0.2633 -0.1262
 6795TIP3    H142020   3.652   2.254   1.364 -1.5663 -2.4473  0.7524
 6795TIP3    H242021   3.528   2.340   1.358 -0.2526 -0.5473 -0.6764
 6796TIP3   OH242022   4.678   2.935   3.287 -0.1427 -0.1286 -0.3665
 6796TIP3    H142023   4.595   2.888   3.290 -0.3974  0.2140 -1.4607
 6796TIP3    H242024   4.744   2.870   3.309 -0.8391  0.0925  2.8623
 6797TIP3   OH242025   3.110   2.598   8.140  0.4124  0.2601  0.4146
 6797TIP3    H142026   3.025   2.603   8.098  0.6439 -0.0203 -0.0984
 6797TIP3    H242027   3.105   2.522   8.198  0.4600 -0.0344  0.0377
 6798TIP3   OH242028   0.184   1.746   8.185  0.2031  0.0977 -0.1118
 6798TIP3    H142029   0.121   1.693   8.137 -0.9299  0.8337  0.5101
 6798TIP3    H242030   0.237   1.787   8.117 -0.1457 -0.3426 -0.6601
 6799TIP3   OH242031   5.714   3.804   7.503  0.2610 -0.0514 -0.4851
 6799TIP3    H142032   5.746   3.811   7.413 -0.0749 -1.2532 -0.7197
 6799TIP3    H242033   5.642   3.866   7.508  1.8610  1.8863 -0.2684
 6800TIP3   OH242034   4.516   0.935   2.698 -0.3817 -0.0552  0.6893
 6800TIP3    H142035   4.497   0.842   2.706 -2.4096  0.2237 -0.4153
 6800TIP3    H242036   4.437   0.973   2.660  2.0540  1.3668 -3.5872
 6801TIP3   OH242037   6.033   2.171   0.380  0.2655  0.1458 -0.0497
 6801TIP3    H142038   6.008   2.260   0.405 -1.0074 -0.2459  0.1624
 6801TIP3    H242039   5.972   2.148   0.309 -0.3891 -1.0592  0.8552
 6802TIP3   OH242040   4.382   6.609   2.494 -0.3193 -0.4279  0.1461
 6802TIP3    H142041   4.315   6.639   2.556  0.2314 -0.3282  0.7051
 6802TIP3    H242042   4.451   6.574   2.550 -0.3613 -1.5104 -0.4505
 6803TIP3   OH242043   1.850   5.246   1.320 -0.2360  0.2852  0.6353
 6803TIP3    H142044   1.886   5.243   1.408  0.3484  0.8361  0.4257
 6803TIP3    H242045   1.926   5.237   1.263 -0.2160  2.6090  0.1621
 6804TIP3   OH242046   3.334   0.422   2.082 -0.1444  0.0426  0.0402
 6804TIP3    H142047   3.321   0.404   1.989  0.8852 -2.7826  0.3377
 6804TIP3    H242048   3.260   0.478   2.106 -1.1873 -0.2522 -2.1900
 6805TIP3   OH242049   2.011   6.012   2.599 -0.0159 -0.3181 -0.2864
 6805TIP3    H142050   2.083   6.037   2.542 -0.5263  1.5250 -0.1712
 6805TIP3    H242051   1.937   6.000   2.540 -0.5710  1.6921 -0.0757
 6806TIP3   OH242052   2.352   0.112   1.065 -0.1359  0.1663  0.1843
 6806TIP3    H142053   2.308   0.089   1.147 -0.4950  0.9393  0.2091
 6806TIP3    H242054   2.444   0.121   1.090 -0.3465  1.1134  0.6587
 6807TIP3   OH242055   5.042   4.776   1.411 -0.0513  0.0103 -0.2925
 6807TIP3    H142056   4.953   4.811   1.423  0.2402  0.8129 -0.4256
 6807TIP3    H242057   5.087   4.799   1.492  0.4271  0.8219 -0.7792
 6808TIP3   OH242058   2.495   2.977   7.942 -0.2596 -0.6918 -0.3948
 6808TIP3    H142059   2.438   3.048   7.912  0.0869  0.2907  1.2228
 6808TIP3    H242060   2.434   2.909   7.972 -0.6002  0.0307  0.5777
 6809TIP3   OH242061   2.662   6.710   2.872 -0.8204 -0.7044  0.7010
 6809TIP3    H142062   2.650   6.798   2.907 -0.2308 -0.7470  1.0243
 6809TIP3    H242063   2.747   6.681   2.907 -0.8122 -1.2376  0.2617
 6810TIP3   OH242064   5.520   5.680   2.410  0.6672 -1.2956 -0.2043
 6810TIP3    H142065   5.568   5.685   2.492 -0.1030  2.2231  0.1713
 6810TIP3    H242066   5.587   5.662   2.344  2.4154  1.8243  0.5182
 6811TIP3   OH242067   5.340   1.988   0.334 -0.2131  0.1649 -0.5697
 6811TIP3    H142068   5.306   2.066   0.377  1.6181  0.0521  1.1799
 6811TIP3    H242069   5.435   1.991   0.347  0.0920 -1.4967 -1.9268
 6812TIP3   OH242070   0.625   4.925   7.841 -0.5146  0.1564 -0.4265
 6812TIP3    H142071   0.554   4.861   7.832  0.2664 -0.8993  0.6375
 6812TIP3    H242072   0.656   4.938   7.751 -1.4335 -0.0881 -0.7960
 6813TIP3   OH242073   1.475   3.489   0.145 -1.1097  0.0502  0.4134
 6813TIP3    H142074   1.518   3.444   0.217 -0.8142  1.8454  1.4031
 6813TIP3    H242075   1.411   3.425   0.113  2.0712 -2.7041 -1.0873
 6814TIP3   OH242076   1.440   5.281   1.842  0.6191 -0.3054 -0.4617
 6814TIP3    H142077   1.394   5.261   1.924  0.3664 -0.0953 -0.5491
 6814TIP3    H242078   1.414   5.210   1.783 -1.4391  0.9915 -1.2241
 6815TIP3   OH242079   0.817   4.934   8.587 -0.0053  0.2166 -0.4435
 6815TIP3    H142080   0.745   4.878   8.556 -0.5552  0.5556  0.2153
 6815TIP3    H242081   0.832   4.905   8.677  1.8474 -1.0272 -1.0862
 6816TIP3   OH242082   5.796   2.865   1.817  0.3048  0.0007 -0.2908
 6816TIP3    H142083   5.848   2.822   1.885  2.1757  0.8833 -1.0880
 6816TIP3    H242084   5.710   2.823   1.823  1.2362 -1.9149  0.7342
 6817TIP3   OH242085   5.712   5.244   1.894  0.1046  0.1720  0.3046
 6817TIP3    H142086   5.779   5.223   1.959  0.2736 -1.3217 -0.3106
 6817TIP3    H242087   5.630   5.245   1.945  0.2357 -0.9564  0.5723
 6818TIP3   OH242088   5.658   1.885   3.158 -0.0915  0.3993 -0.4679
 6818TIP3    H142089   5.575   1.910   3.199  0.7240 -0.9919  2.2468
 6818TIP3    H242090   5.710   1.965   3.158 -0.2411  0.5241  0.9906
 6819TIP3   OH242091   0.242   6.312   2.133  0.2938  1.1343 -0.5237
 6819TIP3    H142092   0.297   6.240   2.162 -1.4492  0.2439  0.7748
 6819TIP3    H242093   0.295   6.358   2.068  1.2876 -1.6021 -1.8185
 6820TIP3   OH242094   5.294   3.990   0.155 -0.2003  0.6514  0.0493
 6820TIP3    H142095   5.235   4.066   0.149 -0.8069  0.4601  2.3922
 6820TIP3    H242096   5.326   3.992   0.245  1.0185 -0.9955 -0.3001
 6821TIP3   OH242097   2.385   6.796   0.014 -0.3684 -0.1812  0.2418
 6821TIP3    H142098   2.453   6.823   0.076 -1.2836 -0.5477  1.4483
 6821TIP3    H242099   2.390   6.700   0.013  0.4189 -0.1444 -1.1804
 6822TIP3   OH242100   1.188   6.820   8.705  0.8406  0.0631  0.2886
 6822TIP3    H142101   1.138   6.842   8.627 -0.3999  1.1050  1.3255
 6822TIP3    H242102   1.153   6.735   8.734 -0.2612  0.7031  0.9080
 6823TIP3   OH242103   4.429   2.532   7.935  0.1158  0.3249 -0.1637
 6823TIP3    H142104   4.375   2.466   7.979  0.9941  0.0203  0.4939
 6823TIP3    H242105   4.370   2.575   7.874 -0.5765 -0.8023 -0.3091
 6824TIP3   OH242106   3.889   0.782   2.313  0.0606  0.0912  0.4813
 6824TIP3    H142107   3.822   0.714   2.318  0.2108 -0.0913  0.1182
 6824TIP3    H242108   3.852   0.849   2.256  0.0088  0.2009  0.6437
 6825TIP3   OH242109   0.371   4.456   1.070 -0.3917  0.8481  0.2638
 6825TIP3    H142110   0.363   4.549   1.052  0.1973  1.1199  1.3131
 6825TIP3    H242111   0.456   4.431   1.034  0.9587  1.4729  2.7568
 6826TIP3   OH242112   4.554   1.610   0.078 -0.4862 -0.2118 -0.1480
 6826TIP3    H142113   4.506   1.598  -0.004  0.6871 -0.2356 -0.8550
 6826TIP3    H242114   4.510   1.684   0.121 -0.8387  0.0895 -1.0080
 6827TIP3   OH242115   0.562   6.252   2.698  0.1584  0.0706  0.3730
 6827TIP3    H142116   0.600   6.185   2.754  1.3314  0.1841 -0.2371
 6827TIP3    H242117   0.491   6.290   2.749 -1.4076 -2.5027  0.2507
 6828TIP3   OH242118   2.779   3.394   0.660  0.6630 -0.1397 -0.0987
 6828TIP3    H142119   2.768   3.433   0.573  0.0980 -0.5136 -0.2072
 6828TIP3    H242120   2.800   3.302   0.642  2.0682  0.1261  0.1513
 6829TIP3   OH242121   1.847   0.193   0.564  0.0633 -0.1980  0.5954
 6829TIP3    H142122   1.864   0.243   0.644  1.3676  1.8069 -0.8399
 6829TIP3    H242123   1.914   0.125   0.563  0.8053  0.5221  0.6300
 6830TIP3   OH242124   0.443   1.098   1.445 -0.5893 -0.3449 -0.3365
 6830TIP3    H142125   0.399   1.078   1.363 -0.5695 -1.3392 -0.1128
 6830TIP3    H242126   0.525   1.049   1.442 -0.1509  0.3589 -0.1286
 6831TIP3   OH242127   3.209   3.884   1.655 -0.3007 -0.3753 -0.7748
 6831TIP3    H142128   3.209   3.790   1.634  2.1054 -0.6393  0.1391
 6831TIP3    H242129   3.192   3.927   1.571  0.1237 -1.6012 -1.5169
 6832TIP3   OH242130   4.747   5.736   0.636 -0.3764 -0.2054 -0.6230
 6832TIP3    H142131   4.687   5.804   0.606  0.3000  0.9412  0.5200
 6832TIP3    H242132   4.741   5.738   0.731  1.6433  0.1524 -0.4525
 6833TIP3   OH242133   0.542   3.961   8.770 -0.4989  0.1129  0.1958
 6833TIP3    H142134   0.580   3.987   8.686 -0.5119  0.2004  0.2169
 6833TIP3    H242135   0.588   3.880   8.794 -1.1680 -0.4379 -0.3557
 6834TIP3   OH242136   1.706   0.936   3.250 -0.1514  0.4084 -0.1423
 6834TIP3    H142137   1.652   1.005   3.211 -1.1200 -0.6948 -0.8282
 6834TIP3    H242138   1.645   0.863   3.262  1.3195 -1.1103 -1.5270
 6835TIP3   OH242139   3.908   4.695   8.130  0.1257  0.2078  0.2458
 6835TIP3    H142140   3.918   4.790   8.127 -0.3589  0.2484 -0.4097
 6835TIP3    H242141   3.998   4.662   8.140  0.2232  0.7496  1.1851
 6836TIP3   OH242142   5.672   6.125   7.428  0.4659  0.8355 -0.4214
 6836TIP3    H142143   5.591   6.163   7.392 -0.3160 -0.4699 -0.1024
 6836TIP3    H242144   5.729   6.201   7.443 -0.5505  1.7502 -1.0102
 6837TIP3   OH242145   5.127   0.518   8.385  0.1921  0.2821 -0.0247
 6837TIP3    H142146   5.041   0.516   8.344  0.3906  2.6874 -0.6705
 6837TIP3    H242147   5.109   0.524   8.479 -0.4871  3.4672 -0.2557
 6838TIP3   OH242148   3.432   4.272   1.786 -0.0971 -0.0460  0.1684
 6838TIP3    H142149   3.378   4.223   1.848  0.3417 -0.9071 -0.1076
 6838TIP3    H242150   3.519   4.272   1.825 -0.3508  1.6675  0.7991
 6839TIP3   OH242151   1.566   1.259   7.759  0.1218 -0.0564  0.0130
 6839TIP3    H142152   1.517   1.275   7.678  0.5958 -1.9035 -0.6731
 6839TIP3    H242153   1.584   1.165   7.758 -0.2051 -0.2072  2.4700
 6840TIP3   OH242154   4.686   3.716   3.495 -0.5681 -0.3894  0.5810
 6840TIP3    H142155   4.665   3.786   3.433  0.6910  0.2984  0.9070
 6840TIP3    H242156   4.602   3.693   3.534 -1.3616 -0.6830 -1.1918
 6841TIP3   OH242157   6.000   0.822   8.825  0.3898  0.3773 -0.0182
 6841TIP3    H142158   5.954   0.854   8.902  1.5017 -0.7743  1.1667
 6841TIP3    H242159   6.012   0.901   8.771  0.3120  1.3737  1.3527
 6842TIP3   OH242160   5.165   6.109   2.502 -0.4651  0.4373 -0.0413
 6842TIP3    H142161   5.137   6.136   2.590  1.9975  1.1323  0.6113
 6842TIP3    H242162   5.088   6.068   2.464 -1.2458 -1.2479  3.0045
 6843TIP3   OH242163   3.721   4.808   8.806  0.2288  0.2569 -0.1282
 6843TIP3    H142164   3.705   4.875   8.872  0.2384 -0.1714  0.3105
 6843TIP3    H242165   3.698   4.851   8.723  0.9254  1.0307  0.0681
 6844TIP3   OH242166   1.305   4.662   2.917 -0.4273  0.5493  0.3083
 6844TIP3    H142167   1.280   4.603   2.846 -1.3164 -0.0666  1.1070
 6844TIP3    H242168   1.248   4.638   2.990 -0.3926  1.9974  0.8495
 6845TIP3   OH242169   2.380   5.163   7.728 -0.4736  0.2090  0.0162
 6845TIP3    H142170   2.474   5.150   7.711 -0.3193  1.6016 -0.2970
 6845TIP3    H242171   2.347   5.203   7.648 -1.9582 -2.7812 -1.0143
 6846TIP3   OH242172   0.117   0.628   0.859  0.6276 -0.4151  0.1828
 6846TIP3    H142173   0.030   0.666   0.874  0.6471 -0.2117 -0.2202
 6846TIP3    H242174   0.128   0.630   0.764  1.6274  0.8007  0.2995
 6847TIP3   OH242175   4.252   1.463   0.118  0.0598 -0.5125  1.3132
 6847TIP3    H142176   4.292   1.496   0.038  0.9911 -1.3561  1.4108
 6847TIP3    H242177   4.201   1.536   0.151  0.1546  0.0407  0.2718
 6848TIP3   OH242178   2.238   3.449   7.530 -0.1329 -0.2219  0.6678
 6848TIP3    H142179   2.168   3.487   7.477  2.7890  0.0014 -3.5671
 6848TIP3    H242180   2.267   3.522   7.586  2.1894  2.8252 -3.8462
 6849TIP3   OH242181   0.289   4.913   0.513  0.4039  0.0008  0.1946
 6849TIP3    H142182   0.273   5.006   0.494  0.1665 -0.2794 -1.0674
 6849TIP3    H242183   0.330   4.879   0.434 -1.5682 -1.4733 -0.2794
 6850TIP3   OH242184   6.599   0.506   1.616 -1.1416 -0.1962 -0.1599
 6850TIP3    H142185   6.510   0.512   1.651 -0.6665 -0.1250  1.0844
 6850TIP3    H242186   6.616   0.412   1.610 -0.7504 -0.2307  1.1251
 6851TIP3   OH242187   3.544   1.403   2.392  0.3663  0.4345 -0.1343
 6851TIP3    H142188   3.527   1.451   2.311  1.8838  0.9212 -0.1959
 6851TIP3    H242189   3.639   1.391   2.393  0.1024 -2.2319  0.0730
 6852TIP3   OH242190   6.253   5.277   2.638  0.0733 -0.0608 -0.3744
 6852TIP3    H142191   6.226   5.187   2.660 -0.7914  0.8584  2.8586
 6852TIP3    H242192   6.342   5.283   2.671 -0.1088  0.4416  0.0309
 6853TIP3   OH242193   1.069   4.049   2.191  0.3443 -0.3954 -0.0341
 6853TIP3    H142194   0.976   4.059   2.169 -0.1361 -1.2213  1.4682
 6853TIP3    H242195   1.091   3.961   2.162  0.8237 -0.0225 -0.8477
 6854TIP3   OH242196   6.242   0.236   8.304 -0.7912 -0.0488 -0.7226
 6854TIP3    H142197   6.299   0.180   8.251 -1.0570 -1.5363  0.4748
 6854TIP3    H242198   6.206   0.299   8.242  1.1612  0.1527 -1.7390
 6855TIP3   OH242199   5.888   2.444   7.918 -0.2915 -0.2021 -0.1571
 6855TIP3    H142200   5.903   2.515   7.981  0.8994  0.3124 -1.0014
 6855TIP3    H242201   5.905   2.483   7.833  0.3155 -1.4856 -0.6443
 6856TIP3   OH242202   3.293   2.370   7.652 -0.3065 -0.0111 -0.1352
 6856TIP3    H142203   3.235   2.304   7.689 -1.9180  2.2332  1.6204
 6856TIP3    H242204   3.381   2.342   7.678 -0.9917 -1.0963  1.1316
 6857TIP3   OH242205   6.486   3.894   0.462 -0.5798  0.2510 -0.4247
 6857TIP3    H142206   6.462   3.806   0.432 -0.7361 -0.0004  0.4063
 6857TIP3    H242207   6.424   3.912   0.533  0.5412  0.3285  0.5579
 6858TIP3   OH242208   5.627   0.346   1.241  0.1587 -0.4012 -0.0135
 6858TIP3    H142209   5.595   0.304   1.321  0.2933 -1.2402 -0.3911
 6858TIP3    H242210   5.549   0.383   1.199  0.0482 -0.2198  0.3481
 6859TIP3   OH242211   2.250   1.160   2.370 -0.2148 -0.0033 -0.1070
 6859TIP3    H142212   2.157   1.155   2.393 -0.1681  1.6672  0.6207
 6859TIP3    H242213   2.251   1.195   2.281 -0.2762 -0.6658 -0.3767
 6860TIP3   OH242214   3.786   5.275   7.981  0.1307  0.0348 -0.2300
 6860TIP3    H142215   3.715   5.339   7.992 -0.4052 -0.7050  0.8621
 6860TIP3    H242216   3.742   5.191   7.972  0.8539 -0.4032  0.1825
 6861TIP3   OH242217   1.583   3.196   8.559 -0.8215 -0.1006  0.2398
 6861TIP3    H142218   1.567   3.226   8.648  0.9341 -1.1395  0.9600
 6861TIP3    H242219   1.630   3.268   8.517  0.0603 -0.3339  0.7921
 6862TIP3   OH242220   4.691   3.559   1.392  0.0179 -0.1105 -0.4684
 6862TIP3    H142221   4.722   3.630   1.336  0.1780 -0.8341 -1.3209
 6862TIP3    H242222   4.737   3.482   1.360 -0.7421 -0.7434 -0.0666
 6863TIP3   OH242223   4.593   1.824   3.124 -0.1841 -0.3461 -0.3568
 6863TIP3    H142224   4.552   1.900   3.165  0.8777  0.4229 -0.6541
 6863TIP3    H242225   4.551   1.749   3.164 -0.5677  0.3990  0.6808
 6864TIP3   OH242226   1.420   0.137   2.285  0.0107 -0.1085 -0.2033
 6864TIP3    H142227   1.407   0.221   2.242 -0.3405 -1.1246 -2.1982
 6864TIP3    H242228   1.373   0.074   2.230  1.2732 -1.7864  0.5387
 6865TIP3   OH242229   0.271   1.982   2.043 -0.0219 -0.2198  0.6246
 6865TIP3    H142230   0.227   1.897   2.045 -0.2171 -0.1158  0.7661
 6865TIP3    H242231   0.364   1.961   2.040 -0.0037 -0.4327  2.0027
 6866TIP3   OH242232   5.467   4.952   2.540 -0.7261  0.3051 -0.1574
 6866TIP3    H142233   5.432   4.873   2.580 -0.0708 -0.9650 -1.9688
 6866TIP3    H242234   5.497   4.924   2.453 -0.5324  2.5508 -0.8821
 6867TIP3   OH242235   1.154   5.855   1.080  0.4885 -0.1286  0.1020
 6867TIP3    H142236   1.131   5.780   1.135 -0.7712 -0.1581 -0.4175
 6867TIP3    H242237   1.071   5.902   1.069  1.3232  1.5871  0.7492
 6868TIP3   OH242238   5.679   1.125   8.048 -0.1337 -0.0579 -0.2569
 6868TIP3    H142239   5.722   1.043   8.073  0.8220  0.8915  1.4296
 6868TIP3    H242240   5.599   1.097   8.004 -0.2570 -1.9220  1.0074
 6869TIP3   OH242241   2.123   3.487   2.373 -0.2025  0.1967  0.8930
 6869TIP3    H142242   2.159   3.405   2.340  0.2986 -0.2663  2.4753
 6869TIP3    H242243   2.030   3.470   2.385 -0.6771  0.8057 -1.4586
 6870TIP3   OH242244   0.513   0.127   2.248  0.0487  0.6306  1.3658
 6870TIP3    H142245   0.476   0.068   2.313 -0.5782  0.5812  0.9798
 6870TIP3    H242246   0.442   0.140   2.185  1.2505 -1.0614 -0.5000
 6871TIP3   OH242247   4.113   6.172   1.553  0.1075  0.4242 -0.2318
 6871TIP3    H142248   4.206   6.156   1.571 -0.0392 -1.2701 -0.8500
 6871TIP3    H242249   4.106   6.168   1.457 -0.8333 -0.9454 -0.1281
 6872TIP3   OH242250   4.441   5.581   1.394 -0.2491 -0.0133  0.0925
 6872TIP3    H142251   4.511   5.550   1.452 -0.4529  1.1163  0.9777
 6872TIP3    H242252   4.406   5.501   1.354  0.5006 -0.7351  0.8416
 6873TIP3   OH242253   6.792   5.444   0.237  0.3733 -0.3461  0.0205
 6873TIP3    H142254   6.770   5.504   0.308  1.1936  1.0961 -0.8830
 6873TIP3    H242255   6.745   5.363   0.258 -0.3957  0.4471  1.5311
 6874TIP3   OH242256   5.825   4.687   0.922 -0.2404 -0.6268 -0.9435
 6874TIP3    H142257   5.900   4.682   0.863 -0.3667 -0.4428 -1.1216
 6874TIP3    H242258   5.831   4.608   0.976 -0.7079 -1.3407 -1.8965
 6875TIP3   OH242259   2.878   0.223   1.034  0.2217  0.3020 -0.3561
 6875TIP3    H142260   2.892   0.194   1.125  0.8510 -0.3424 -0.6517
 6875TIP3    H242261   2.904   0.148   0.981 -1.1077  0.3042 -1.0562
 6876TIP3   OH242262   6.336   4.371   1.463  0.0689  0.0951 -0.1005
 6876TIP3    H142263   6.410   4.432   1.462  0.0410  0.1438  0.4935
 6876TIP3    H242264   6.329   4.341   1.372  0.5227  0.4436 -0.2575
 6877TIP3   OH242265   2.647   0.507   0.199 -0.3313  0.3975  0.3101
 6877TIP3    H142266   2.701   0.535   0.126 -1.4363  2.4440  0.2096
 6877TIP3    H242267   2.592   0.437   0.163  0.6982 -0.2023 -0.1542
 6878TIP3   OH242268   5.522   2.032   1.699 -0.0216  0.3070 -0.0020
 6878TIP3    H142269   5.570   1.998   1.624  0.4740 -0.7149  0.7610
 6878TIP3    H242270   5.584   2.025   1.772 -0.4092  1.5047  0.4739
 6879TIP3   OH242271   4.010   1.936   7.440 -0.1830 -0.3289  0.1068
 6879TIP3    H142272   4.099   1.962   7.463 -0.5684  0.2990  0.9444
 6879TIP3    H242273   3.973   1.901   7.522 -0.7924 -0.3298 -0.1599
 6880TIP3   OH242274   3.394   3.755   2.112 -0.0812 -0.1855  0.8812
 6880TIP3    H142275   3.307   3.733   2.145  0.1884 -2.3744  0.3429
 6880TIP3    H242276   3.378   3.815   2.040 -1.1875 -0.7001  0.6758
 6881TIP3   OH242277   3.451   3.965   3.316 -0.4341  0.7199  0.2636
 6881TIP3    H142278   3.433   4.020   3.239 -0.2602 -0.3252 -0.5397
 6881TIP3    H242279   3.377   3.905   3.321  0.2323 -0.1342  0.0786
 6882TIP3   OH242280   5.845   4.949   0.046 -0.2176  0.0623  0.2245
 6882TIP3    H142281   5.836   4.995   0.129  0.0065 -1.5455  1.1779
 6882TIP3    H242282   5.935   4.964   0.019 -0.7380  1.9320 -0.5824
 6883TIP3   OH242283   5.364   3.311   1.485  0.1530  0.2648 -0.2695
 6883TIP3    H142284   5.450   3.270   1.495  0.0234  0.0209 -0.1233
 6883TIP3    H242285   5.324   3.304   1.572  0.0078  0.4288 -0.3211
 6884TIP3   OH242286   5.679   2.726   7.865  0.9230 -0.2771  0.3874
 6884TIP3    H142287   5.723   2.810   7.876 -1.1820  0.8282  1.0544
 6884TIP3    H242288   5.683   2.685   7.952  1.0517 -0.4021  0.3235
 6885TIP3   OH242289   1.243   2.983   1.825  0.4889  0.2749  0.0085
 6885TIP3    H142290   1.221   2.992   1.917 -0.6895  1.3898 -0.3581
 6885TIP3    H242291   1.331   3.019   1.817  1.3104 -1.4205  0.9719
 6886TIP3   OH242292   2.389   6.780   2.646  0.2517  0.0591  0.4236
 6886TIP3    H142293   2.428   6.837   2.712 -0.4705  1.4251 -0.2807
 6886TIP3    H242294   2.297   6.774   2.670 -0.0140  0.5498 -0.4265
 6887TIP3   OH242295   2.558   4.148   8.436 -0.4048  0.0317 -0.5775
 6887TIP3    H142296   2.613   4.109   8.368  0.3746  0.6254 -0.3065
 6887TIP3    H242297   2.565   4.242   8.422  1.5509  0.3083  1.6199
 6888TIP3   OH242298   2.673   4.707   2.008 -0.4771 -0.2048  0.3795
 6888TIP3    H142299   2.652   4.614   2.021 -0.3521 -0.6407 -2.0079
 6888TIP3    H242300   2.599   4.741   1.958  1.0912 -0.0048 -1.9874
 6889TIP3   OH242301   1.132   1.349   3.088  0.9149  0.0151 -0.6055
 6889TIP3    H142302   1.042   1.367   3.115  0.9593 -1.1715  0.4460
 6889TIP3    H242303   1.184   1.412   3.137  0.8584 -1.1305  1.0192
 6890TIP3   OH242304   5.967   4.034   8.402  0.0245  0.1474 -0.2571
 6890TIP3    H142305   6.028   4.021   8.475 -1.3152  0.5343  0.9869
 6890TIP3    H242306   6.018   4.081   8.336  0.8973  1.0877  1.0358
 6891TIP3   OH242307   4.903   0.538   1.405 -0.4603 -0.3938  0.3349
 6891TIP3    H142308   4.870   0.485   1.477  0.0461 -1.3892 -0.1453
 6891TIP3    H242309   4.849   0.513   1.330 -0.5396  0.1328  0.2099
 6892TIP3   OH242310   4.618   5.300   1.729 -0.1432 -0.4747  0.0270
 6892TIP3    H142311   4.589   5.211   1.708 -2.2584 -0.0959  1.0113
 6892TIP3    H242312   4.602   5.308   1.823 -0.4091  1.0741 -0.1250
 6893TIP3   OH242313   2.994   3.952   7.045 -0.2799 -0.1663  0.5409
 6893TIP3    H142314   2.971   4.044   7.054  0.2957 -0.0691  1.0657
 6893TIP3    H242315   3.072   3.941   7.098  0.6844 -0.5741 -0.8819
 6894TIP3   OH242316   4.631   5.297   7.868 -0.2908  0.4030  0.2606
 6894TIP3    H142317   4.542   5.286   7.834 -0.4197  2.6996 -0.2896
 6894TIP3    H242318   4.643   5.391   7.874  2.3980  0.1791 -0.4160
 6895TIP3   OH242319   5.985   1.127   8.145 -0.1082  0.4689 -0.0950
 6895TIP3    H142320   5.999   1.080   8.228 -0.4665  1.2062  0.3916
 6895TIP3    H242321   6.067   1.116   8.097 -0.1293 -0.5183  0.0767
 6896TIP3   OH242322   2.565   1.769   1.973 -0.4441 -0.2049 -0.4263
 6896TIP3    H142323   2.571   1.737   2.063  1.5052 -0.4308 -0.5878
 6896TIP3    H242324   2.614   1.704   1.921 -1.5499 -0.0988 -1.6631
 6897TIP3   OH242325   2.341   2.637   2.111  0.7020  0.2575  0.6888
 6897TIP3    H142326   2.402   2.568   2.086 -0.1282 -0.5569  0.8731
 6897TIP3    H242327   2.372   2.667   2.197  0.5256 -0.5256  1.0273
 6898TIP3   OH242328   6.051   4.749   3.320 -0.0025  0.9281  0.0948
 6898TIP3    H142329   6.009   4.666   3.297  0.2494  0.2403  1.9307
 6898TIP3    H242330   6.144   4.733   3.309  0.0487  0.9619  0.4804
 6899TIP3   OH242331   1.909   6.299   2.536  0.4659 -0.2338  0.4202
 6899TIP3    H142332   1.866   6.268   2.616 -1.3391 -0.8996 -0.7320
 6899TIP3    H242333   1.940   6.219   2.493  1.3801  0.1144  0.4278
 6900TIP3   OH242334   5.879   5.617   1.513  0.1380 -0.0562 -0.0116
 6900TIP3    H142335   5.799   5.653   1.475  0.0802 -2.2326 -2.1869
 6900TIP3    H242336   5.859   5.607   1.606 -1.7315  0.4324 -0.3293
 6901TIP3   OH242337   0.702   2.364   1.686 -0.3970 -0.6014  0.0387
 6901TIP3    H142338   0.759   2.333   1.756  1.6458  2.6357  0.0639
 6901TIP3    H242339   0.703   2.294   1.621 -0.0884 -2.5295  2.0214
 6902TIP3   OH242340   3.746   3.462   8.675 -0.0591  0.1086  0.4023
 6902TIP3    H142341   3.666   3.508   8.703  0.0145 -0.1332  1.0462
 6902TIP3    H242342   3.760   3.490   8.585 -0.0400  1.3027  0.7627
 6903TIP3   OH242343   4.324   2.379   1.682  0.5760  0.1523 -0.0645
 6903TIP3    H142344   4.321   2.286   1.659  0.4528 -0.3257  1.7416
 6903TIP3    H242345   4.410   2.390   1.723  0.8148  0.9889 -0.7499
 6904TIP3   OH242346   6.731   1.419   0.703 -0.1775 -0.3500  0.4784
 6904TIP3    H142347   6.704   1.483   0.768  1.3642  2.3178 -1.3362
 6904TIP3    H242348   6.811   1.380   0.738 -0.3906 -0.3150  1.0005
 6905TIP3   OH242349   3.512   0.817   7.586  0.1340 -0.5515  0.4659
 6905TIP3    H142350   3.484   0.871   7.511 -0.2898  0.7034  1.4883
 6905TIP3    H242351   3.594   0.777   7.558 -0.7930 -1.3556 -1.2429
 6906TIP3   OH242352   1.046   3.292   1.018 -0.3349 -0.1549 -0.3417
 6906TIP3    H142353   1.135   3.265   0.995 -0.2652  0.1848 -0.4670
 6906TIP3    H242354   1.026   3.363   0.958 -0.2990  0.4710  0.3839
 6907TIP3   OH242355   5.153   1.325   8.435  0.1671 -0.6962 -0.4055
 6907TIP3    H142356   5.069   1.279   8.428 -0.3557  0.3277 -1.0812
 6907TIP3    H242357   5.145   1.399   8.374  0.5265  0.9708  1.4813
 6908TIP3   OH242358   4.443   1.941   2.347  0.0916  0.4012 -0.5402
 6908TIP3    H142359   4.411   1.855   2.322 -1.8120  0.5952  0.9968
 6908TIP3    H242360   4.408   1.955   2.435  0.5276  2.6638 -0.6677
 6909TIP3   OH242361   1.706   3.453   2.258 -0.1609  0.8918 -0.5172
 6909TIP3    H142362   1.724   3.369   2.215 -0.7870  0.9065 -0.8178
 6909TIP3    H242363   1.752   3.447   2.342 -1.1477 -0.2231 -0.0385
 6910TIP3   OH242364   0.241   1.140   7.552 -0.0345  0.1812 -0.2441
 6910TIP3    H142365   0.146   1.127   7.556  0.3240 -2.7311  1.0243
 6910TIP3    H242366   0.275   1.093   7.628  2.5258  0.1802 -1.2890
 6911TIP3   OH242367   3.153   2.652   0.839  0.0650  0.0665 -0.3319
 6911TIP3    H142368   3.210   2.667   0.914 -0.5157 -0.8692  0.3285
 6911TIP3    H242369   3.206   2.601   0.777  0.2263 -0.0229 -0.1193
 6912TIP3   OH242370   4.643   4.606   0.896  0.6106 -0.0438 -0.0296
 6912TIP3    H142371   4.721   4.554   0.916 -0.3936 -2.3064 -1.5665
 6912TIP3    H242372   4.570   4.554   0.929 -0.3339  1.7277  0.8087
 6913TIP3   OH242373   3.243   5.495   8.528  0.0574 -0.1020 -0.0359
 6913TIP3    H142374   3.242   5.490   8.432  2.2703 -0.9501 -0.0721
 6913TIP3    H242375   3.271   5.585   8.547  0.3561 -0.1561 -0.2109
 6914TIP3   OH242376   5.898   6.400   1.501  0.6536 -0.0646 -0.0495
 6914TIP3    H142377   5.813   6.373   1.465  1.4274  0.2338 -2.2878
 6914TIP3    H242378   5.887   6.493   1.518  1.2186  0.6268 -2.8790
 6915TIP3   OH242379   4.714   4.413   8.426  0.6512 -0.0730  0.3635
 6915TIP3    H142380   4.680   4.362   8.500  0.7975 -0.7297 -0.0166
 6915TIP3    H242381   4.686   4.364   8.349  1.8767 -0.2601  0.0268
 6916TIP3   OH242382   6.290   1.306   1.885 -0.3654  0.2814  0.0248
 6916TIP3    H142383   6.336   1.353   1.954  0.6909  0.5300 -0.8137
 6916TIP3    H242384   6.322   1.216   1.892 -0.7485  0.1620  0.2622
 6917TIP3   OH242385   0.360   0.568   8.644 -0.3421  0.0961 -0.2090
 6917TIP3    H142386   0.371   0.633   8.575  0.5017 -0.2145 -0.3843
 6917TIP3    H242387   0.324   0.491   8.600  2.9847 -1.1811 -0.9782
 6918TIP3   OH242388   1.047   4.178   0.570 -0.2711  0.0272  0.3490
 6918TIP3    H142389   0.965   4.128   0.573 -0.1830 -0.1715 -0.4636
 6918TIP3    H242390   1.041   4.229   0.489  0.5154 -0.1695  0.1616
 6919TIP3   OH242391   2.108   1.222   1.720  0.1051 -0.0640 -0.0654
 6919TIP3    H142392   2.042   1.159   1.747  1.0483 -0.8577  0.4503
 6919TIP3    H242393   2.191   1.186   1.751  0.6537  1.5505  0.4571
 6920TIP3   OH242394   4.597   1.492   0.931  0.1813  0.1333 -0.1141
 6920TIP3    H142395   4.519   1.536   0.897 -0.1471 -0.3612 -0.0171
 6920TIP3    H242396   4.580   1.398   0.917  0.2230 -0.0624  0.9944
 6921TIP3   OH242397   0.583   0.400   1.090  0.0401 -0.5780  0.2542
 6921TIP3    H142398   0.602   0.492   1.072  0.6942 -0.6304  0.6678
 6921TIP3    H242399   0.592   0.356   1.005 -1.7820 -0.0410 -0.2793
 6922TIP3   OH242400   1.399   5.362   8.787 -0.4765  0.7873 -0.6421
 6922TIP3    H142401   1.339   5.300   8.746  0.5651 -1.5272  1.1113
 6922TIP3    H242402   1.456   5.391   8.716 -1.7810  0.7580 -1.7450
 6923TIP3   OH242403   5.349   5.196   7.754 -0.3385  0.5391  0.1494
 6923TIP3    H142404   5.326   5.276   7.706 -1.6040 -1.3913 -2.7700
 6923TIP3    H242405   5.265   5.151   7.766  0.2732 -0.1263  2.2615
 6924TIP3   OH242406   2.706   6.160   0.184 -0.1282  0.1921  0.0411
 6924TIP3    H142407   2.653   6.206   0.249  0.6060  0.0072  0.7847
 6924TIP3    H242408   2.742   6.085   0.231  0.6769  0.2353 -0.4895
 6925TIP3   OH242409   1.919   2.981   2.080 -0.0036 -0.5465  0.5008
 6925TIP3    H142410   2.009   3.011   2.093 -0.1820 -0.0859  0.6915
 6925TIP3    H242411   1.916   2.953   1.989  0.5995 -1.5030  0.7643
 6926TIP3   OH242412   1.135   6.754   8.400  0.6052  0.0626  0.2741
 6926TIP3    H142413   1.176   6.758   8.313  1.8822  1.3858  0.8854
 6926TIP3    H242414   1.048   6.792   8.387 -0.4423 -2.5395 -0.9954
 6927TIP3   OH242415   4.550   2.515   1.451  0.0934  0.1879  0.2510
 6927TIP3    H142416   4.521   2.426   1.469 -0.6912  0.9083  3.0790
 6927TIP3    H242417   4.493   2.545   1.380  0.2802 -1.4494 -0.6533
 6928TIP3   OH242418   1.500   4.344   1.556  0.4536  0.4370  0.2320
 6928TIP3    H142419   1.470   4.435   1.554 -0.9788 -0.0083 -0.0999
 6928TIP3    H242420   1.476   4.309   1.470  1.0800 -0.2345  0.3214
 6929TIP3   OH242421   4.143   2.131   0.345  0.2092 -0.1863 -0.3790
 6929TIP3    H142422   4.162   2.211   0.394  0.7495 -0.0528 -0.7941
 6929TIP3    H242423   4.137   2.063   0.412  1.3415 -0.0810 -0.1527
 6930TIP3   OH242424   6.485   6.285   1.882  0.1026 -0.5164  0.0329
 6930TIP3    H142425   6.575   6.297   1.912 -0.4972 -1.3497  2.3109
 6930TIP3    H242426   6.451   6.375   1.874  0.6967 -0.2396  0.5380
 6931TIP3   OH242427   1.617   6.217   8.043  0.2789 -0.0677 -0.3716
 6931TIP3    H142428   1.565   6.228   7.964 -1.9128 -0.8256  0.8914
 6931TIP3    H242429   1.560   6.170   8.103  1.2065  1.9266  2.2816
 6932TIP3   OH242430   1.300   2.284   8.694 -0.5585 -0.0447 -0.3294
 6932TIP3    H142431   1.204   2.281   8.697 -0.6125  0.0743 -1.5367
 6932TIP3    H242432   1.323   2.243   8.611  0.6016 -2.4844  1.0695
 6933TIP3   OH242433   2.507   5.226   8.091  0.3046 -0.3312 -0.4259
 6933TIP3    H142434   2.430   5.182   8.054 -0.5378  1.1486 -0.5048
 6933TIP3    H242435   2.471   5.291   8.151  1.5606 -0.5834  0.6425
 6934TIP3   OH242436   5.368   0.383   1.151  0.0473  0.3008  0.5040
 6934TIP3    H142437   5.305   0.450   1.179 -0.2667 -0.1909  0.9936
 6934TIP3    H242438   5.316   0.303   1.141  0.2503  0.3224 -0.9821
 6935TIP3   OH242439   0.610   2.565   1.985 -0.0721  0.3720 -0.1713
 6935TIP3    H142440   0.694   2.528   2.013  0.5067  1.1393 -0.8400
 6935TIP3    H242441   0.591   2.632   2.051 -0.6661 -0.4746  0.5328
 6936TIP3   OH242442   0.574   0.691   2.327  0.2359 -0.2288 -0.0456
 6936TIP3    H142443   0.487   0.728   2.346  1.2746  0.5123  4.2810
 6936TIP3    H242444   0.557   0.598   2.313 -1.2740 -0.1665  1.0453
 6937TIP3   OH242445   0.850   4.035   7.297 -0.1518 -0.0853  0.3651
 6937TIP3    H142446   0.825   4.097   7.228  0.1513  0.1891  0.4961
 6937TIP3    H242447   0.833   4.082   7.379 -0.0118 -0.2121  0.4683
 6938TIP3   OH242448   4.217   1.906   8.362  0.0544 -0.1136 -0.4774
 6938TIP3    H142449   4.161   1.977   8.331  0.4008 -0.0950 -1.0873
 6938TIP3    H242450   4.300   1.919   8.315 -0.0550 -1.2357 -1.0026
 6939TIP3   OH242451   1.681   1.953   7.622  0.0548  0.2963  0.1037
 6939TIP3    H142452   1.731   1.997   7.553  2.0519  1.2156  2.0208
 6939TIP3    H242453   1.730   1.872   7.639 -0.6959 -0.1573  0.1619
 6940TIP3   OH242454   5.767   0.663   3.265 -0.7301 -0.1692  0.2729
 6940TIP3    H142455   5.837   0.656   3.330  0.5829  3.5190 -0.5410
 6940TIP3    H242456   5.694   0.704   3.312 -0.6125  0.3952 -0.0390
 6941TIP3   OH242457   6.794   2.982   0.192  0.3402 -0.0763  0.1837
 6941TIP3    H142458   6.711   2.969   0.147  1.2689  1.0560 -2.0577
 6941TIP3    H242459   6.846   2.906   0.169 -0.2297 -1.1052  2.1178
 6942TIP3   OH242460   6.291   4.145   3.394 -0.5490  0.5475  0.6721
 6942TIP3    H142461   6.274   4.091   3.317  0.2475 -0.3706  1.1162
 6942TIP3    H242462   6.269   4.234   3.366 -1.1378  0.1143 -0.3201
 6943TIP3   OH242463   5.054   2.498   8.398 -0.5445 -0.2698  0.0570
 6943TIP3    H142464   4.992   2.462   8.334 -0.9891  1.5257 -0.5984
 6943TIP3    H242465   5.045   2.442   8.474 -2.6428 -0.3766 -0.2042
 6944TIP3   OH242466   2.016   3.886   1.452 -0.4158 -0.1874 -0.4793
 6944TIP3    H142467   2.099   3.855   1.488 -0.1693  1.0877  0.1144
 6944TIP3    H242468   2.030   3.891   1.358  0.7496  1.5689 -0.2475
 6945TIP3   OH242469   0.498   5.057   7.611 -0.5514  0.4767 -0.0289
 6945TIP3    H142470   0.422   5.035   7.557 -0.6457 -0.5303  0.4756
 6945TIP3    H242471   0.463   5.061   7.700 -0.6866  3.5463 -0.1311
 6946TIP3   OH242472   3.908   1.393   7.477 -0.0507 -0.0718  0.8458
 6946TIP3    H142473   3.887   1.486   7.475 -0.2016 -0.0229  2.5378
 6946TIP3    H242474   3.989   1.388   7.529 -1.0117 -0.9927  2.3475
 6947TIP3   OH242475   0.780   5.453   1.555  0.4323  0.0172  0.2651
 6947TIP3    H142476   0.690   5.429   1.535  0.1707  0.8915  0.3316
 6947TIP3    H242477   0.781   5.549   1.548  0.9611  0.1591  1.7953
 6948TIP3   OH242478   3.821   5.802   8.577  0.0458 -0.1067 -0.2187
 6948TIP3    H142479   3.875   5.766   8.648  0.9632  3.0092  0.8333
 6948TIP3    H242480   3.874   5.788   8.498  1.4705  1.0003  0.4932
 6949TIP3   OH242481   1.148   3.641   2.416  0.1668 -0.1451  0.3536
 6949TIP3    H142482   1.111   3.669   2.499 -0.3631  2.4651 -0.6540
 6949TIP3    H242483   1.093   3.569   2.388 -0.4415 -0.2129  1.6556
 6950TIP3   OH242484   2.369   3.085   2.620 -0.6483 -0.1400 -0.0130
 6950TIP3    H142485   2.375   3.128   2.706 -1.5759 -0.6360  0.3100
 6950TIP3    H242486   2.379   3.156   2.557 -0.7621  0.3463  0.5067
 6951TIP3   OH242487   0.859   3.051   0.780 -0.1764 -0.2612  0.1613
 6951TIP3    H142488   0.783   2.994   0.772  0.0510 -0.3668 -1.6980
 6951TIP3    H242489   0.934   2.994   0.761  0.2625  0.1462  0.6264
 6952TIP3   OH242490   6.772   6.246   0.776 -0.2969 -0.0384  0.7308
 6952TIP3    H142491   6.802   6.302   0.705  1.5869 -1.0245  0.6940
 6952TIP3    H242492   6.784   6.299   0.855  0.0908  0.1334  0.5592
 6953TIP3   OH242493   6.259   2.369   0.856 -0.0720 -0.1262  0.1305
 6953TIP3    H142494   6.229   2.441   0.800 -2.2360 -0.1216  1.1989
 6953TIP3    H242495   6.292   2.412   0.934 -0.9608 -0.2451  0.5853
 6954TIP3   OH242496   2.641   1.691   2.235 -0.1916 -0.4458  0.2010
 6954TIP3    H142497   2.695   1.745   2.294 -0.9982  0.2465  0.3206
 6954TIP3    H242498   2.699   1.619   2.210  0.5820 -0.0698  0.8382
 6955TIP3   OH242499   2.356   0.262   2.178 -0.1015  0.0632  0.2696
 6955TIP3    H142500   2.293   0.314   2.228 -2.2260 -2.3381  0.3237
 6955TIP3    H242501   2.394   0.202   2.242 -1.4087 -1.7215 -0.5363
 6956TIP3   OH242502   6.102   1.857   0.727  0.2468 -0.3394 -0.4434
 6956TIP3    H142503   6.132   1.824   0.811 -2.0213  0.6066  0.8405
 6956TIP3    H242504   6.155   1.935   0.711  0.4814 -0.3454  0.2913
 6957TIP3   OH242505   2.294   4.951   2.452  0.5607 -0.6013 -0.2574
 6957TIP3    H142506   2.321   4.976   2.364  1.5872 -2.9238 -0.6808
 6957TIP3    H242507   2.375   4.949   2.502  0.2671 -1.1920  0.2086
 6958TIP3   OH242508   5.837   3.233   1.594  0.0325  0.1503 -0.2397
 6958TIP3    H142509   5.895   3.158   1.608 -0.0013  0.1504 -0.1008
 6958TIP3    H242510   5.753   3.206   1.633 -0.6481 -0.6242 -2.1233
 6959TIP3   OH242511   1.085   0.865   2.255 -0.1069 -0.3436 -0.0704
 6959TIP3    H142512   1.012   0.821   2.211  0.8602 -1.2939 -0.7728
 6959TIP3    H242513   1.145   0.794   2.279  0.5993  0.4234  0.4993
 6960TIP3   OH242514   5.509   1.573   8.342 -0.5426 -0.3921 -0.5187
 6960TIP3    H142515   5.458   1.652   8.322 -1.1888 -0.7538 -0.3234
 6960TIP3    H242516   5.503   1.520   8.262 -0.3420 -0.3717 -0.5487
 6961TIP3   OH242517   0.825   2.470   2.094  0.0193  0.2739  0.1439
 6961TIP3    H142518   0.848   2.542   2.152 -0.1121 -0.8519  1.6313
 6961TIP3    H242519   0.905   2.452   2.045  1.3179 -1.1902  2.6539
 6962TIP3   OH242520   4.712   5.022   8.767  0.1282 -0.8800  0.4070
 6962TIP3    H142521   4.769   4.953   8.733  1.5381  0.7197 -0.6351
 6962TIP3    H242522   4.654   4.977   8.828  1.8349 -2.7717  0.7532
 6963TIP3   OH242523   4.423   6.085   1.898 -0.1207  0.1478  0.4634
 6963TIP3    H142524   4.426   6.073   1.804  1.0944 -0.4478  0.5497
 6963TIP3    H242525   4.427   5.996   1.934  2.1569  0.4199  1.0667
 6964TIP3   OH242526   6.695   6.235   8.515 -0.0237 -0.5990  0.3048
 6964TIP3    H142527   6.781   6.253   8.477 -0.6094  2.5621  0.1651
 6964TIP3    H242528   6.690   6.140   8.519  3.7022 -0.9319  0.8884
 6965TIP3   OH242529   0.126   2.489   0.404 -0.4101  0.5432  0.6460
 6965TIP3    H142530   0.165   2.552   0.465  0.4239  1.1657 -0.4878
 6965TIP3    H242531   0.187   2.486   0.330 -1.0659 -0.6797  0.1211
 6966TIP3   OH242532   1.449   4.550   8.117 -0.0073 -0.0519 -0.1563
 6966TIP3    H142533   1.521   4.605   8.086  0.2481 -1.1771 -1.6968
 6966TIP3    H242534   1.422   4.500   8.039 -0.8521 -1.3896  0.9478
 6967TIP3   OH242535   2.798   1.499   2.457  0.1347  0.0050  0.1962
 6967TIP3    H142536   2.706   1.480   2.479  0.2709 -0.1265  0.6585
 6967TIP3    H242537   2.848   1.437   2.510  0.4936  0.1212 -0.0090
 6968TIP3   OH242538   0.916   1.905   7.756 -0.1841  0.1511  0.4581
 6968TIP3    H142539   1.007   1.924   7.779 -0.1252 -0.9993  1.2412
 6968TIP3    H242540   0.890   1.979   7.701  1.6427 -0.1534 -0.9587
 6969TIP3   OH242541   6.652   4.517   0.131 -1.0320 -0.2125 -0.3547
 6969TIP3    H142542   6.584   4.481   0.074 -0.9754 -0.1881 -0.4370
 6969TIP3    H242543   6.679   4.598   0.089 -0.6712 -0.4190 -0.5295
 6970TIP3   OH242544   1.611   4.589   1.767 -0.2059 -0.3801 -0.0148
 6970TIP3    H142545   1.630   4.587   1.673  1.5427  1.8480  0.1919
 6970TIP3    H242546   1.529   4.639   1.774  0.0522  0.0871 -0.3229
 6971TIP3   OH242547   0.308   4.980   7.819  0.2653  0.0393 -0.1676
 6971TIP3    H142548   0.260   5.038   7.878  2.2457  0.6951  0.8640
 6971TIP3    H242549   0.280   4.892   7.843 -1.1061  0.4321 -0.2503
 6972TIP3   OH242550   3.771   0.949   2.879  0.1544 -0.1571  1.2265
 6972TIP3    H142551   3.867   0.946   2.879  0.6038  3.4611 -3.3388
 6972TIP3    H242552   3.749   1.023   2.935  0.0214 -0.5701  1.7312
 6973TIP3   OH242553   4.438   0.361   0.019  0.5507 -0.2397  0.2438
 6973TIP3    H142554   4.367   0.339  -0.041  1.5006 -0.6546 -0.7531
 6973TIP3    H242555   4.428   0.300   0.092  0.3793 -0.8473 -0.2809
 6974TIP3   OH242556   2.659   6.603   7.968 -0.2047  0.2183  0.1083
 6974TIP3    H142557   2.630   6.582   7.879  0.8334  0.7656 -0.3717
 6974TIP3    H242558   2.631   6.528   8.021 -0.4023 -0.3338 -0.7624
 6975TIP3   OH242559   5.795   1.095   3.102  0.0187 -0.0051  0.0906
 6975TIP3    H142560   5.767   1.182   3.072 -0.2202 -0.0490  0.1834
 6975TIP3    H242561   5.837   1.111   3.187 -0.9043 -0.0939  0.5780
 6976TIP3   OH242562   3.320   3.244   0.969  0.0240  0.2870  0.4820
 6976TIP3    H142563   3.266   3.278   1.040 -0.4275 -0.8320  0.6937
 6976TIP3    H242564   3.257   3.205   0.908  0.3346  1.8469 -0.9083
 6977TIP3   OH242565   3.099   5.849   1.100 -0.2682 -0.6609 -0.4345
 6977TIP3    H142566   3.033   5.858   1.032  0.1166 -0.1120 -0.7440
 6977TIP3    H242567   3.049   5.845   1.182 -0.6497  1.0552 -0.5416
 6978TIP3   OH242568   0.136   4.535   2.838 -0.1639 -0.0400 -0.3224
 6978TIP3    H142569   0.161   4.449   2.872 -1.4709  0.6471  2.6224
 6978TIP3    H242570   0.111   4.585   2.915 -1.2033  2.4140 -2.1451
 6979TIP3   OH242571   0.510   0.508   2.678  0.1844  0.0341  0.4155
 6979TIP3    H142572   0.592   0.460   2.667 -0.0967 -0.2365 -0.6370
 6979TIP3    H242573   0.506   0.527   2.771  0.5307 -1.5960  0.8019
 6980TIP3   OH242574   0.895   1.088   3.365  0.0226  0.5681  0.1301
 6980TIP3    H142575   0.946   1.080   3.284 -1.4729  2.0345 -1.0169
 6980TIP3    H242576   0.907   1.003   3.409 -0.3510 -0.8858 -2.3776
 6981TIP3   OH242577   1.351   4.861   8.691  0.1004 -0.0083  0.2798
 6981TIP3    H142578   1.418   4.860   8.759  0.5099  1.0894 -0.0773
 6981TIP3    H242579   1.275   4.902   8.733  0.0149 -0.2550  0.3672
 6982TIP3   OH242580   6.024   3.031   0.508  0.4359 -0.9081  0.5351
 6982TIP3    H142581   6.095   3.081   0.548  0.3415  0.3240 -0.7317
 6982TIP3    H242582   6.031   3.051   0.414  0.4570 -3.4126 -0.0648
 6983TIP3   OH242583   4.334   6.592   8.101 -0.1670  0.1863 -0.1616
 6983TIP3    H142584   4.311   6.660   8.037 -1.7492 -2.4509 -2.6853
 6983TIP3    H242585   4.392   6.533   8.053  1.3196 -0.1938  1.9937
 6984TIP3   OH242586   4.484   0.615   1.930  0.3116  0.2628  0.2699
 6984TIP3    H142587   4.559   0.563   1.961 -0.1218  0.1829  1.2067
 6984TIP3    H242588   4.444   0.561   1.861  0.2671 -0.3428  0.7602
 6985TIP3   OH242589   3.718   2.490   1.625  0.4585 -0.4416  0.1265
 6985TIP3    H142590   3.720   2.552   1.552  0.9981  0.2334  0.6927
 6985TIP3    H242591   3.657   2.530   1.688  1.3263 -0.1166  0.7896
 6986TIP3   OH242592   1.268   2.142   7.581 -0.3069 -0.2155 -0.3712
 6986TIP3    H142593   1.199   2.202   7.610 -0.1450  0.7102 -1.7943
 6986TIP3    H242594   1.222   2.061   7.561 -0.7618 -0.0736  0.0675
 6987TIP3   OH242595   4.086   6.335   3.564  0.1652  0.1862  0.1264
 6987TIP3    H142596   4.066   6.360   3.474 -0.2885  0.1226  0.2056
 6987TIP3    H242597   4.147   6.402   3.594 -1.3676  1.5072  0.4846
 6988TIP3   OH242598   1.674   2.331   7.377 -0.9682  0.3601 -0.1884
 6988TIP3    H142599   1.743   2.395   7.359  0.1545 -0.7499  0.0180
 6988TIP3    H242600   1.610   2.345   7.308  0.3711  0.1909 -1.5188
 6989TIP3   OH242601   3.677   2.406   0.047  0.2476  0.1782 -0.5949
 6989TIP3    H142602   3.583   2.390   0.047  0.2101  0.3288  0.1624
 6989TIP3    H242603   3.690   2.476  -0.016 -0.2600  0.6947 -0.1423
 6990TIP3   OH242604   3.023   3.495   1.822  0.5704  0.5006  0.3251
 6990TIP3    H142605   2.987   3.505   1.911  0.5691 -1.3575  0.5641
 6990TIP3    H242606   2.951   3.456   1.772  0.8748  0.6939 -0.2645
 6991TIP3   OH242607   3.294   4.194   2.006  0.7605  0.3810 -0.2708
 6991TIP3    H142608   3.294   4.262   2.073 -2.6167  1.2222 -0.9311
 6991TIP3    H242609   3.207   4.154   2.012 -0.0314  0.9842 -4.5039
 6992TIP3   OH242610   5.036   1.686   7.808  0.1593  0.7457 -0.2836
 6992TIP3    H142611   5.002   1.613   7.861 -0.8583  3.2426  2.8081
 6992TIP3    H242612   4.958   1.722   7.765  0.2716  1.4031  0.0613
 6993TIP3   OH242613   0.981   6.327   1.920 -0.3060 -0.0156  0.0457
 6993TIP3    H142614   1.017   6.300   1.835  0.6827 -0.5948  0.6266
 6993TIP3    H242615   1.032   6.404   1.945 -1.7924  1.2653 -0.6820
 6994TIP3   OH242616   4.200   5.467   0.450 -0.1186  0.2776 -0.1810
 6994TIP3    H142617   4.162   5.433   0.531  1.0782 -1.5544 -0.3515
 6994TIP3    H242618   4.265   5.531   0.478  1.5720 -1.6388  0.4468
 6995TIP3   OH242619   4.864   2.142   1.597 -0.2061 -0.3702 -0.1946
 6995TIP3    H142620   4.779   2.132   1.555 -0.4204 -0.1606  0.1786
 6995TIP3    H242621   4.895   2.228   1.569  1.0425 -1.4653 -2.3551
 6996TIP3   OH242622   4.976   5.883   1.323  0.2617 -0.0865  0.1619
 6996TIP3    H142623   4.938   5.964   1.357  0.8282 -0.0413  0.7050
 6996TIP3    H242624   4.909   5.817   1.339 -0.0237  0.1920  0.1294
 6997TIP3   OH242625   3.609   2.858   0.619  0.1137  0.0312 -0.5762
 6997TIP3    H142626   3.608   2.920   0.547  1.3730  0.9079  0.1212
 6997TIP3    H242627   3.617   2.772   0.577 -2.6263  0.1844 -1.6029
 6998TIP3   OH242628   5.866   3.479   2.581 -0.6913  0.5905  0.5766
 6998TIP3    H142629   5.771   3.466   2.573 -0.6485 -1.1965  2.1840
 6998TIP3    H242630   5.882   3.563   2.539 -3.2502  1.7852  1.7277
 6999TIP3   OH242631   6.819   4.928   2.440  0.7104  0.4150  0.0421
 6999TIP3    H142632   6.796   4.841   2.408 -0.6420  0.5347  0.6154
 6999TIP3    H242633   6.746   4.983   2.413 -0.1469  0.6628  2.5860
 7000TIP3   OH242634   1.931   2.395   7.565 -0.3750  0.1283 -0.0393
 7000TIP3    H142635   2.001   2.440   7.517  0.9770 -2.3416 -0.5437
 7000TIP3    H242636   1.855   2.403   7.507 -0.0388  1.2849 -0.3499
 7001TIP3   OH242637   5.191   2.677   8.115  0.1419 -0.0643  0.6826
 7001TIP3    H142638   5.225   2.765   8.098  0.4831 -0.4676 -0.8858
 7001TIP3    H242639   5.259   2.619   8.083 -0.7418 -0.8959  0.2713
 7002TIP3   OH242640   4.427   1.812   8.069  0.2296 -0.4537 -0.0877
 7002TIP3    H142641   4.512   1.852   8.088  1.2751 -2.4770 -0.2564
 7002TIP3    H242642   4.428   1.797   7.974 -0.7102  0.2950 -0.2382
 7003TIP3   OH242643   3.830   6.792   8.088 -0.6810 -0.1565 -0.2993
 7003TIP3    H142644   3.790   6.842   8.018 -0.1086  0.1479 -0.4205
 7003TIP3    H242645   3.922   6.821   8.089 -0.9809  0.9144  1.4980
 7004TIP3   OH242646   1.867   0.715   2.176 -0.1507 -0.2172  0.1755
 7004TIP3    H142647   1.866   0.663   2.257  2.6028  0.2390  0.6275
 7004TIP3    H242648   1.889   0.652   2.108  0.6946 -0.0955  0.3236
 7005TIP3   OH242649   0.567   0.700   0.683 -0.0507 -0.2265 -0.3529
 7005TIP3    H142650   0.659   0.676   0.675 -0.4370 -1.9583 -0.1622
 7005TIP3    H242651   0.524   0.655   0.610 -1.1290 -1.9764  1.2495
 7006TIP3   OH242652   0.251   2.658   0.594  0.0832  0.2855  0.1569
 7006TIP3    H142653   0.239   2.751   0.610  0.4951 -0.0005  2.4538
 7006TIP3    H242654   0.346   2.647   0.586  0.1241 -0.0880  1.0809
 7007TIP3   OH242655   2.069   5.132   1.570 -0.6435 -0.6990  0.1699
 7007TIP3    H142656   1.996   5.110   1.628 -0.5882 -3.1048 -0.5558
 7007TIP3    H242657   2.146   5.097   1.615 -0.2745 -0.4433 -0.2536
 7008TIP3   OH242658   6.446   1.651   1.114 -0.0395 -0.0808 -0.4875
 7008TIP3    H142659   6.540   1.672   1.117  0.0368 -0.3005  3.1229
 7008TIP3    H242660   6.402   1.736   1.124 -0.1387 -0.1708 -0.1304
 7009TIP3   OH242661   5.275   0.084   0.023  0.4869  0.2320  0.6714
 7009TIP3    H142662   5.242   0.173   0.031 -0.4207 -0.1813  1.7604
 7009TIP3    H242663   5.327   0.071   0.102  1.5650  0.1647 -0.0310
 7010TIP3   OH242664   0.008   2.760   2.511  0.2301 -0.2278 -0.0002
 7010TIP3    H142665   0.009   2.853   2.533  1.5776 -0.1412 -0.3308
 7010TIP3    H242666  -0.071   2.749   2.459  0.3081  0.8479 -0.3750
 7011TIP3   OH242667   2.410   5.336   7.511 -0.5654  0.0410  0.5704
 7011TIP3    H142668   2.503   5.347   7.533  0.2469 -0.7710 -2.1511
 7011TIP3    H242669   2.396   5.393   7.436 -2.6348  1.0207  1.6078
 7012TIP3   OH242670   3.109   2.722   6.576 -0.1821  0.3706  0.1462
 7012TIP3    H142671   3.092   2.641   6.623 -1.1848  0.8081  0.5704
 7012TIP3    H242672   3.066   2.710   6.491 -0.9368  0.7178  0.4728
 7013TIP3   OH242673   4.802   2.741   0.019 -0.1343 -0.5485 -0.1943
 7013TIP3    H142674   4.806   2.835   0.036  1.0202 -0.8872  1.7420
 7013TIP3    H242675   4.825   2.732  -0.073 -1.0386  1.0982 -0.6208
 7014TIP3   OH242676   0.146   3.585   8.445  0.0706 -0.8500 -0.0794
 7014TIP3    H142677   0.157   3.665   8.497  0.9634 -2.2268  1.9699
 7014TIP3    H242678   0.224   3.581   8.390 -0.4958  0.2093 -1.0039
 7015TIP3   OH242679   0.437   4.797   1.455 -0.7488 -0.3230 -0.4003
 7015TIP3    H142680   0.422   4.878   1.505 -0.5917  0.9754 -2.3386
 7015TIP3    H242681   0.368   4.798   1.388  1.9215  0.7669 -3.4320
 7016TIP3   OH242682   2.349   6.517   8.747 -0.1244  0.1027  0.0249
 7016TIP3    H142683   2.410   6.462   8.698  1.1825 -0.4932  2.1961
 7016TIP3    H242684   2.274   6.460   8.764 -0.4443  0.2128 -0.9463
 7017TIP3   OH242685   1.421   6.581   1.842 -0.0566 -0.1556  0.0620
 7017TIP3    H142686   1.441   6.496   1.802 -2.6227 -0.2492 -1.2286
 7017TIP3    H242687   1.472   6.582   1.923  0.3615 -2.7614 -0.0856
 7018TIP3   OH242688   4.282   0.281   7.192 -0.3273 -0.5792  0.2681
 7018TIP3    H142689   4.310   0.192   7.167  1.6404 -0.1474  0.7937
 7018TIP3    H242690   4.192   0.270   7.222 -0.6213 -2.1501 -1.0237
 7019TIP3   OH242691   2.505   1.549   8.555 -0.0700 -0.6819 -0.3352
 7019TIP3    H142692   2.514   1.453   8.552  0.0869 -0.7435  1.1324
 7019TIP3    H242693   2.496   1.575   8.464  0.8814 -2.0009 -0.8417
 7020TIP3   OH242694   3.488   5.420   2.741 -0.3444 -0.2762 -0.2026
 7020TIP3    H142695   3.530   5.478   2.805  1.0127 -0.1389 -1.1652
 7020TIP3    H242696   3.399   5.453   2.734 -0.1545  0.4853  0.6843
 7021TIP3   OH242697   3.880   1.962   8.407  0.2025  1.0798  0.5277
 7021TIP3    H142698   3.791   1.954   8.440  0.6041  3.4916  2.5496
 7021TIP3    H242699   3.878   1.918   8.322 -2.2653 -0.9647  1.4944
 7022TIP3   OH242700   4.061   2.158   1.797  0.8246 -0.1968 -0.9501
 7022TIP3    H142701   4.144   2.116   1.777 -0.0481 -1.4407 -2.1537
 7022TIP3    H242702   4.039   2.207   1.718  0.8085  0.8222 -0.3276
 7023TIP3   OH242703   2.088   2.456   2.869  0.0802  0.1789 -0.0408
 7023TIP3    H142704   2.113   2.487   2.956  3.0269  2.5093 -1.5365
 7023TIP3    H242705   1.992   2.464   2.867  0.1642  4.2950  1.6380
 7024TIP3   OH242706   2.794   4.509   2.893 -0.2850  0.0293 -0.5777
 7024TIP3    H142707   2.768   4.464   2.973  2.5067 -0.4547  0.1676
 7024TIP3    H242708   2.810   4.439   2.830  1.4740  0.0401 -0.2234
 7025TIP3   OH242709   0.328   1.455   2.069 -0.4377 -0.2964 -0.2725
 7025TIP3    H142710   0.422   1.466   2.085 -0.6627 -0.5015  1.2881
 7025TIP3    H242711   0.318   1.361   2.055 -0.6095 -0.4871  1.0525
 7026TIP3   OH242712   4.303   3.167   2.605 -0.1111 -0.2347 -0.3999
 7026TIP3    H142713   4.229   3.223   2.627 -0.4506 -0.9519  0.3397
 7026TIP3    H242714   4.264   3.083   2.583  0.5095 -0.8958  0.9053
 7027TIP3   OH242715   4.639   6.150   2.712 -0.2366  0.1179  0.2327
 7027TIP3    H142716   4.730   6.177   2.722 -0.1991  0.6492 -1.3467
 7027TIP3    H242717   4.589   6.215   2.762  0.0964  1.2530 -0.8519
 7028TIP3   OH242718   2.307   1.506   7.227  0.4119  1.0557  0.0287
 7028TIP3    H142719   2.316   1.454   7.306 -0.3962  0.2105 -0.4177
 7028TIP3    H242720   2.225   1.554   7.238 -0.1783  0.2424 -0.6636
 7029TIP3   OH242721   3.369   1.776   7.971 -0.1065 -0.1841  0.2995
 7029TIP3    H142722   3.290   1.829   7.960 -0.6820 -1.1125 -0.1538
 7029TIP3    H242723   3.342   1.687   7.947  0.3877 -1.0328  2.6350
 7030TIP3   OH242724   5.133   4.224   7.321  0.0456  0.3460  0.2492
 7030TIP3    H142725   5.218   4.190   7.293  0.3669  1.1627  0.1922
 7030TIP3    H242726   5.089   4.249   7.240 -1.0345 -1.7802  0.1178
 7031TIP3   OH242727   2.582   3.889   0.327  0.8445  0.2052 -0.7394
 7031TIP3    H142728   2.563   3.935   0.408  1.6849 -0.5863 -0.0787
 7031TIP3    H242729   2.676   3.900   0.314  0.5772  1.1088 -2.1133
 7032TIP3   OH242730   0.902   0.810   8.353  0.2881 -0.2402  0.7071
 7032TIP3    H142731   0.864   0.722   8.351 -1.1184  0.3559 -0.5185
 7032TIP3    H242732   0.957   0.811   8.432 -1.1284 -1.6233  1.7655
 7033TIP3   OH242733   3.371   0.896   0.703  0.3941  0.3093 -0.3492
 7033TIP3    H142734   3.401   0.872   0.616 -1.0418  2.0726 -1.3976
 7033TIP3    H242735   3.436   0.959   0.735  0.2465  0.6347 -0.6882
 7034TIP3   OH242736   5.833   2.873   8.443 -0.2707  0.5369  0.0813
 7034TIP3    H142737   5.815   2.815   8.517 -1.8425  0.4008 -0.3732
 7034TIP3    H242738   5.854   2.957   8.483  0.1810  0.1332  0.7039
 7035TIP3   OH242739   1.580   4.607   8.380 -0.5482  0.4588 -0.2298
 7035TIP3    H142740   1.514   4.539   8.397  0.6306 -0.5444  0.4918
 7035TIP3    H242741   1.621   4.580   8.297 -1.1658  1.1935 -0.7848
 7036TIP3   OH242742   0.880   4.357   1.374  0.6219  0.4887  0.3551
 7036TIP3    H142743   0.971   4.372   1.349  0.8696  0.1409  1.0324
 7036TIP3    H242744   0.880   4.269   1.412 -0.1371  0.1923 -0.2953
 7037TIP3   OH242745   6.036   6.463   7.962 -0.1331 -0.0136 -1.1424
 7037TIP3    H142746   6.114   6.490   7.913  0.0353  0.1555 -0.7859
 7037TIP3    H242747   6.023   6.533   8.026 -0.2550 -0.3143 -0.8381
 7038TIP3   OH242748   0.234   4.398   1.333 -0.3688  0.1363  0.1438
 7038TIP3    H142749   0.288   4.319   1.338 -0.6013 -0.1664 -1.5110
 7038TIP3    H242750   0.255   4.435   1.247  0.3646  2.3518  1.2117
 7039TIP3   OH242751   0.137   3.990   2.162 -0.2239  0.0439  0.3719
 7039TIP3    H142752   0.059   3.959   2.208  0.0669 -0.3247  0.6220
 7039TIP3    H242753   0.141   3.935   2.083 -1.3066  1.3683 -0.6455
 7040TIP3   OH242754   5.735   1.924   1.108 -0.2581  0.1062  0.6964
 7040TIP3    H142755   5.730   1.871   1.188  1.5177  0.1414  0.8650
 7040TIP3    H242756   5.686   2.003   1.129 -0.4166 -0.1886  1.4838
 7041TIP3   OH242757   6.370   5.519   0.528 -0.0826  0.2181  0.1158
 7041TIP3    H142758   6.284   5.560   0.522 -0.8444 -1.3280 -0.0372
 7041TIP3    H242759   6.427   5.575   0.476 -1.2204  0.6954 -0.6589
 7042TIP3   OH242760   3.874   2.537   3.218 -0.1094 -0.4581 -0.1095
 7042TIP3    H142761   3.928   2.471   3.174  0.0192 -0.6746  0.3704
 7042TIP3    H242762   3.937   2.603   3.247 -0.1286 -0.5933  0.2423
 7043TIP3   OH242763   2.061   4.761   1.025  0.7488  0.5652  0.3027
 7043TIP3    H142764   2.057   4.733   0.933 -2.6957 -0.1045  0.5050
 7043TIP3    H242765   2.074   4.856   1.020 -0.6282  0.7351 -0.9869
 7044TIP3   OH242766   5.644   4.390   7.490  0.0044 -0.1807 -0.1774
 7044TIP3    H142767   5.592   4.310   7.487 -0.2247 -0.0177 -0.6045
 7044TIP3    H242768   5.688   4.394   7.406 -0.2701  0.3271 -0.3067
 7045TIP3   OH242769   3.284   1.303   8.116 -0.0021 -0.0613 -0.6777
 7045TIP3    H142770   3.299   1.210   8.135 -0.3298 -0.0414 -0.3022
 7045TIP3    H242771   3.345   1.323   8.046  0.3600 -0.4584 -0.4812
 7046TIP3   OH242772   3.014   3.660   8.191 -0.4194 -0.4571  0.2385
 7046TIP3    H142773   2.927   3.699   8.203 -0.4657 -1.0802  2.3953
 7046TIP3    H242774   3.005   3.571   8.226  0.4216 -1.4848 -1.9966
 7047TIP3   OH242775   2.882   2.501   7.434 -0.3367 -0.3915  0.1820
 7047TIP3    H142776   2.852   2.588   7.407 -3.2489 -1.3479 -0.0424
 7047TIP3    H242777   2.865   2.498   7.528 -2.1499 -1.3179 -0.1270
 7048TIP3   OH242778   1.176   4.311   2.169 -0.3516  0.1938 -0.7068
 7048TIP3    H142779   1.088   4.321   2.206  1.4395  1.7047  3.9966
 7048TIP3    H242780   1.196   4.218   2.179  0.3600  0.6013  3.8024
 7049TIP3   OH242781   4.095   1.938   0.544 -1.0909  0.3011  0.3055
 7049TIP3    H142782   4.066   2.002   0.609 -0.8796 -0.8801  1.6090
 7049TIP3    H242783   4.061   1.854   0.575 -0.3010 -0.4116 -0.6767
 7050TIP3   OH242784   0.856   0.362   1.285  0.0353  0.2463 -0.0594
 7050TIP3    H142785   0.866   0.424   1.358 -0.9244 -0.2731  0.5422
 7050TIP3    H242786   0.807   0.412   1.219 -0.2348  0.3175  0.1907
 7051TIP3   OH242787   4.592   2.020   0.609  0.1628  0.2776 -0.2300
 7051TIP3    H142788   4.578   2.106   0.649 -0.2047 -0.6981  1.8688
 7051TIP3    H242789   4.505   1.983   0.601  0.3627 -0.0949 -0.6869
 7052TIP3   OH242790   6.085   4.296   2.059 -0.1746  0.3097 -0.0674
 7052TIP3    H142791   6.088   4.234   2.132 -1.8127 -0.2524 -0.4511
 7052TIP3    H242792   6.094   4.382   2.100  1.3798 -0.1017  0.5376
 7053TIP3   OH242793   1.723   1.305   0.792  0.0482  0.0692  0.1428
 7053TIP3    H142794   1.735   1.338   0.881  0.2389  1.6073 -0.4241
 7053TIP3    H242795   1.668   1.227   0.803 -0.6758  0.7343  1.5308
 7054TIP3   OH242796   3.747   6.006   2.262  0.1490  0.4721  0.4219
 7054TIP3    H142797   3.706   5.963   2.186  0.6389  1.0422 -0.1808
 7054TIP3    H242798   3.691   5.983   2.336  0.7382 -1.7550  0.2443
 7055TIP3   OH242799   5.939   6.122   7.949 -0.2543  0.0884  0.3180
 7055TIP3    H142800   5.875   6.184   7.985 -0.6107 -1.5084  2.6654
 7055TIP3    H242801   6.017   6.134   8.003 -0.2382 -1.2762  0.6403
 7056TIP3   OH242802   6.337   4.279   8.323 -0.3527 -0.0572 -0.3081
 7056TIP3    H142803   6.348   4.265   8.417 -0.0898 -0.3162 -0.3765
 7056TIP3    H242804   6.344   4.192   8.284  0.5388  0.1582 -0.6594
 7057TIP3   OH242805   1.761   5.712   8.618  0.2351  0.2786  0.6289
 7057TIP3    H142806   1.794   5.723   8.530 -0.3413  1.1709  0.5155
 7057TIP3    H242807   1.838   5.690   8.671  0.2293 -3.2254 -0.5543
 7058TIP3   OH242808   0.163   3.132   2.880  0.3193  0.2571  0.2139
 7058TIP3    H142809   0.255   3.139   2.854  1.0276 -1.4635  1.9994
 7058TIP3    H242810   0.156   3.045   2.920 -2.6186 -0.5848 -1.8041
 7059TIP3   OH242811   1.338   5.109   7.440  0.0586 -0.1698  0.3983
 7059TIP3    H142812   1.432   5.119   7.427 -0.2228  2.2904 -0.1773
 7059TIP3    H242813   1.328   5.109   7.536  0.6111 -0.3876  0.4641
 7060TIP3   OH242814   6.135   5.568   0.733 -0.0283 -0.1509  0.2898
 7060TIP3    H142815   6.093   5.589   0.817  1.1174  2.9970  0.1727
 7060TIP3    H242816   6.119   5.474   0.722 -2.0270 -0.2467  2.9901
 7061TIP3   OH242817   6.376   3.555   0.139  0.6156  0.5087  0.0657
 7061TIP3    H142818   6.416   3.481   0.094 -4.2040 -2.4209 -0.0553
 7061TIP3    H242819   6.392   3.629   0.081  3.7997 -0.7675 -0.8977
 7062TIP3   OH242820   2.732   0.207   2.895 -0.1468 -0.2351 -0.4941
 7062TIP3    H142821   2.818   0.244   2.918 -0.3284  0.0234 -0.2248
 7062TIP3    H242822   2.734   0.200   2.800  1.0622 -2.4057 -0.3900
 7063TIP3   OH242823   5.555   2.177   8.150  0.0862  0.4110  0.2624
 7063TIP3    H142824   5.560   2.083   8.161  0.4978  0.4449  0.3777
 7063TIP3    H242825   5.637   2.201   8.105  0.7753  0.9166  1.6994
 7064TIP3   OH242826   5.248   3.234   0.550 -0.6963 -0.5176 -0.1158
 7064TIP3    H142827   5.204   3.307   0.593  0.1718  0.6117 -1.0727
 7064TIP3    H242828   5.335   3.231   0.592 -0.5465 -0.6585 -0.4349
 7065TIP3   OH242829   2.574   2.830   7.284  0.1219  0.0821  0.1023
 7065TIP3    H142830   2.603   2.777   7.210  0.4529 -0.6170  0.7188
 7065TIP3    H242831   2.615   2.915   7.270  1.3504 -0.4671  0.2130
 7066TIP3   OH242832   0.351   4.172   1.944  0.1962 -0.8337  0.2751
 7066TIP3    H142833   0.260   4.143   1.946 -0.2931  0.5735 -0.3072
 7066TIP3    H242834   0.381   4.155   1.854 -0.3945  1.2411 -0.3517
 7067TIP3   OH242835   4.410   6.313   0.951 -0.5779  0.2252 -0.1451
 7067TIP3    H142836   4.455   6.338   0.870 -1.2517 -1.3533 -1.0513
 7067TIP3    H242837   4.412   6.218   0.951 -0.2298  0.1844  1.9389
 7068TIP3   OH242838   0.794   1.610   7.265 -0.0799  0.3912  0.4721
 7068TIP3    H142839   0.700   1.622   7.264  0.0779  1.8371  1.4921
 7068TIP3    H242840   0.831   1.698   7.261  1.2040 -0.0171  2.0704
 7069TIP3   OH242841   0.471   4.985   0.018  0.1484  0.9696  0.1277
 7069TIP3    H142842   0.519   5.056  -0.024 -0.5153  0.3064 -1.9107
 7069TIP3    H242843   0.528   4.908   0.007 -0.5714  0.5351 -0.7553
 7070TIP3   OH242844   1.689   4.134   2.536 -0.4623  0.1318  1.0070
 7070TIP3    H142845   1.621   4.105   2.474  0.2476  1.3724 -0.4284
 7070TIP3    H242846   1.640   4.177   2.606 -1.2130  0.6041  0.2188
 7071TIP3   OH242847   6.140   4.768   2.458  0.2115  0.5466  0.5334
 7071TIP3    H142848   6.206   4.793   2.523  0.8431 -1.7820  0.8684
 7071TIP3    H242849   6.166   4.815   2.379  1.4327  0.7888  1.0491
 7072TIP3   OH242850   2.100   5.536   2.367 -0.1726 -0.1554  0.2414
 7072TIP3    H142851   2.013   5.547   2.404 -0.4016  1.4318 -0.6560
 7072TIP3    H242852   2.084   5.506   2.277  0.1632  0.6232 -0.0899
 7073TIP3   OH242853   3.198   0.475   7.097 -0.1097  0.0248 -0.5827
 7073TIP3    H142854   3.152   0.396   7.126  1.5283 -0.0494  2.1837
 7073TIP3    H242855   3.128   0.540   7.086 -1.2903 -1.2668 -1.0921
 7074TIP3   OH242856   2.851   4.975   0.921 -0.0659 -0.1000 -0.5875
 7074TIP3    H142857   2.824   5.007   0.835  0.1033  0.0761 -0.5746
 7074TIP3    H242858   2.769   4.964   0.969 -0.0953  0.7338 -0.4417
 7075TIP3   OH242859   6.290   1.808   2.139  0.0816  0.4730 -0.6286
 7075TIP3    H142860   6.381   1.785   2.159 -0.1918 -0.0224  0.1016
 7075TIP3    H242861   6.296   1.884   2.081  0.9520  0.8727 -0.0376
 7076TIP3   OH242862   5.427   4.311   8.313 -0.1893  0.1405  0.1825
 7076TIP3    H142863   5.373   4.314   8.392  1.6438 -0.1668  1.5129
 7076TIP3    H242864   5.508   4.356   8.337  0.6530 -0.4924 -1.3239
 7077TIP3   OH242865   3.349   4.156   8.827 -0.0333  0.1113  0.3240
 7077TIP3    H142866   3.262   4.123   8.804 -0.3494  0.6549  0.7195
 7077TIP3    H242867   3.352   4.244   8.790 -0.0973  0.5444  1.3267
 7078TIP3   OH242868   3.711   6.385   1.383 -0.1747  0.3874 -0.3477
 7078TIP3    H142869   3.646   6.322   1.356  0.7931 -0.7052 -0.2088
 7078TIP3    H242870   3.708   6.454   1.317 -1.1003  0.1043 -0.6081
 7079TIP3   OH242871   5.146   1.894   0.985  0.3724  0.0819 -0.0551
 7079TIP3    H142872   5.172   1.819   0.932 -2.5988 -0.8169 -0.4686
 7079TIP3    H242873   5.162   1.866   1.075  1.5654 -0.0498 -0.2966
 7080TIP3   OH242874   2.688   2.350   0.974  0.0447  0.0414  0.0247
 7080TIP3    H142875   2.744   2.296   0.918  0.9009  2.5102 -1.6629
 7080TIP3    H242876   2.745   2.374   1.048  0.5504  0.8140 -0.6061
 7081TIP3   OH242877   1.248   1.782   1.600 -0.6229 -0.1434  0.0638
 7081TIP3    H142878   1.321   1.809   1.655 -1.4456 -0.7085  1.4916
 7081TIP3    H242879   1.236   1.689   1.619 -1.4331 -0.1583 -0.4571
 7082TIP3   OH242880   4.441   3.370   7.941  0.7602 -0.6881 -0.3089
 7082TIP3    H142881   4.407   3.304   7.881  0.4016  0.2175 -1.1485
 7082TIP3    H242882   4.527   3.392   7.906  1.0041 -0.9298  0.1405
 7083TIP3   OH242883   4.795   6.287   0.746 -0.5258  0.7211  0.1608
 7083TIP3    H142884   4.813   6.256   0.834 -1.3778 -0.4134 -0.0476
 7083TIP3    H242885   4.858   6.241   0.691  0.5810  2.0547  0.2276
 7084TIP3   OH242886   2.673   3.582   1.141  0.3389 -0.4876  0.2464
 7084TIP3    H142887   2.714   3.501   1.170  1.3756 -0.7733 -1.8316
 7084TIP3    H242888   2.599   3.554   1.087  0.6286 -0.0511 -0.3838
 7085TIP3   OH242889   5.002   1.985   7.178  0.2649 -0.1768 -0.2070
 7085TIP3    H142890   4.949   1.946   7.247  1.1682 -0.8579  0.1341
 7085TIP3    H242891   5.035   1.910   7.128 -0.2300  0.2959 -1.2820
 7086TIP3   OH242892   0.605   3.661   7.572 -0.2458 -0.2376  0.2315
 7086TIP3    H142893   0.564   3.748   7.566  2.1223  0.8800 -1.0914
 7086TIP3    H242894   0.675   3.673   7.636  1.5238 -0.5010 -1.5752
 7087TIP3   OH242895   4.440   5.410   0.656  0.1230 -0.5914  0.0728
 7087TIP3    H142896   4.431   5.398   0.561  0.4199 -2.7276  0.2773
 7087TIP3    H242897   4.394   5.336   0.694 -0.8895  0.7924  1.6785
 7088TIP3   OH242898   1.103   3.559   3.482 -0.4742 -0.3835 -0.0579
 7088TIP3    H142899   1.153   3.478   3.490 -2.3082 -1.8962 -2.6367
 7088TIP3    H242900   1.110   3.584   3.390 -2.1027  0.9366  0.1117
 7089TIP3   OH242901   5.596   3.147   7.251  0.3487  0.8785  0.0233
 7089TIP3    H142902   5.525   3.138   7.187 -0.1095  0.7921  0.5371
 7089TIP3    H242903   5.599   3.241   7.270  0.5709  0.9215 -0.2188
 7090TIP3   OH242904   5.423   3.168   2.324  0.2621 -0.4697 -0.0551
 7090TIP3    H142905   5.511   3.194   2.297  0.1149  0.5843  0.4254
 7090TIP3    H242906   5.365   3.224   2.272 -0.1485 -1.3652 -0.5925
 7091TIP3   OH242907   0.173   0.300   3.001 -0.7641 -0.3616 -0.1118
 7091TIP3    H142908   0.209   0.261   2.921  1.4900  0.2790  0.5121
 7091TIP3    H242909   0.186   0.232   3.067 -0.4891 -0.0409  0.1656
 7092TIP3   OH242910   6.617   0.431   2.020  0.2756 -0.4085  0.0648
 7092TIP3    H142911   6.664   0.382   1.953 -1.0434 -0.9903 -0.4854
 7092TIP3    H242912   6.532   0.387   2.026 -0.4155  0.9411  0.5831
 7093TIP3   OH242913   2.539   2.327   0.589 -0.5777 -0.4782 -0.4550
 7093TIP3    H142914   2.568   2.403   0.639 -0.2002 -1.3733  0.7591
 7093TIP3    H242915   2.538   2.356   0.498  1.4855  0.3964 -0.2512
 7094TIP3   OH242916   6.785   1.085   2.139 -0.0902  0.0132 -0.4695
 7094TIP3    H142917   6.870   1.109   2.103 -0.6246  1.3002 -0.9285
 7094TIP3    H242918   6.759   1.007   2.090  1.3523 -1.1558  0.5327
 7095TIP3   OH242919   4.320   0.585   7.970 -0.3335 -0.0676  0.3997
 7095TIP3    H142920   4.397   0.571   8.025 -0.0879  1.0930  0.3660
 7095TIP3    H242921   4.351   0.637   7.896 -0.3313 -2.7933 -1.6977
 7096TIP3   OH242922   2.537   1.079   0.318 -0.2951 -0.0995 -0.0783
 7096TIP3    H142923   2.534   1.159   0.371  0.3731 -0.6261  0.7985
 7096TIP3    H242924   2.569   1.108   0.233 -1.6275  0.8094 -0.2928
 7097TIP3   OH242925   3.089   5.187   1.535 -0.1983  0.1184  0.1450
 7097TIP3    H142926   3.173   5.156   1.571 -0.3923 -0.4656  0.0988
 7097TIP3    H242927   3.086   5.280   1.560  0.7952  0.3324 -0.4890
 7098TIP3   OH242928   6.258   0.917   0.770  0.4646 -0.1791 -0.1800
 7098TIP3    H142929   6.299   0.831   0.777  0.5822 -0.0033  2.0716
 7098TIP3    H242930   6.331   0.978   0.760  0.3788 -0.3139 -1.8251
 7099TIP3   OH242931   1.529   5.182   2.152 -0.6687  0.3321  0.4765
 7099TIP3    H142932   1.474   5.258   2.133  0.9163  1.0345 -1.7860
 7099TIP3    H242933   1.597   5.215   2.211 -0.1065  0.6743 -0.3347
 7100TIP3   OH242934   3.729   2.224   1.710 -0.2313  0.6577 -0.0981
 7100TIP3    H142935   3.762   2.163   1.644  0.5407 -1.0543  1.7511
 7100TIP3    H242936   3.709   2.304   1.661  1.2795 -0.1521 -2.2047
 7101TIP3   OH242937   5.420   6.707   2.099 -0.2032  0.0140  0.9462
 7101TIP3    H142938   5.501   6.682   2.145 -0.0345  0.8157  1.0999
 7101TIP3    H242939   5.386   6.781   2.149 -0.1553  0.7449 -0.0675
 7102TIP3   OH242940   0.962   5.404   2.925  0.4608 -0.2075  0.3315
 7102TIP3    H142941   1.028   5.446   2.981  1.8606 -0.8455 -0.7572
 7102TIP3    H242942   1.009   5.332   2.883 -0.8447 -0.4543 -0.7871
 7103TIP3   OH242943   3.668   4.458   1.128 -0.4809 -0.8583 -0.3564
 7103TIP3    H142944   3.608   4.487   1.197  0.1837 -1.0764  0.3251
 7103TIP3    H242945   3.721   4.390   1.169  1.0946  0.2023 -0.5287
 7104TIP3   OH242946   0.484   5.578   2.763 -0.2728  0.3081  0.2609
 7104TIP3    H142947   0.521   5.608   2.846  1.4420 -1.9566  0.4024
 7104TIP3    H242948   0.558   5.572   2.703 -1.5713  2.7047 -1.8261
 7105TIP3   OH242949   2.630   2.525   1.997  0.4559  0.1936  0.3519
 7105TIP3    H142950   2.625   2.444   2.047  1.5723  0.1123  0.3483
 7105TIP3    H242951   2.723   2.543   1.989  0.2590  0.8570 -0.6555
 7106TIP3   OH242952   3.877   1.956   0.075  0.2150  0.4529  0.2546
 7106TIP3    H142953   3.796   1.937   0.122 -2.0676  1.8891 -2.7201
 7106TIP3    H242954   3.911   2.035   0.118 -1.7583  1.6859 -0.2785
 7107TIP3   OH242955   3.240   4.263   8.147 -0.1056  0.4848 -0.8196
 7107TIP3    H142956   3.314   4.273   8.207 -0.8185  1.1226 -0.0291
 7107TIP3    H242957   3.281   4.245   8.062  0.8988 -2.1304  0.1165
 7108TIP3   OH242958   2.115   4.356   2.210 -0.4889  0.3543  0.5870
 7108TIP3    H142959   2.028   4.316   2.196  0.4387 -1.2304 -1.2387
 7108TIP3    H242960   2.101   4.449   2.194 -1.6535 -0.0347 -0.9899
 7109TIP3   OH242961   2.737   4.104   8.238  0.0310  0.0946  0.6540
 7109TIP3    H142962   2.825   4.119   8.203 -0.9083  0.8801 -1.5724
 7109TIP3    H242963   2.680   4.154   8.179 -1.9305 -0.6258  1.8804
 7110TIP3   OH242964   2.737   3.865   1.527 -0.4616 -0.1055  0.0948
 7110TIP3    H142965   2.773   3.836   1.611 -1.9311  2.1112  1.6172
 7110TIP3    H242966   2.780   3.810   1.462  1.1639 -1.5480  2.2398
 7111TIP3   OH242967   6.222   3.858   2.248  0.2790  0.3340 -0.5373
 7111TIP3    H142968   6.304   3.808   2.248  0.3484  0.4019 -1.9546
 7111TIP3    H242969   6.167   3.814   2.314  1.5146  0.4300  0.5949
 7112TIP3   OH242970   4.143   6.205   7.741  1.0462  0.4385 -0.3090
 7112TIP3    H142971   4.161   6.128   7.794 -2.5597 -0.8089 -0.5916
 7112TIP3    H242972   4.178   6.183   7.654 -0.1106 -1.0861 -0.4413
 7113TIP3   OH242973   1.583   0.548   2.658 -0.0803 -0.2269  0.0484
 7113TIP3    H142974   1.563   0.562   2.566 -0.8154 -1.1546  0.0532
 7113TIP3    H242975   1.617   0.632   2.688 -1.7015  0.6995 -0.5867
 7114TIP3   OH242976   4.219   0.235   2.181  0.5794 -0.7556 -0.6080
 7114TIP3    H142977   4.142   0.292   2.175  1.3826  0.6330  1.3045
 7114TIP3    H242978   4.293   0.296   2.185  1.5190 -1.9383  0.8753
 7115TIP3   OH242979   5.625   6.561   0.060  0.0662 -0.0205  0.2909
 7115TIP3    H142980   5.689   6.502   0.019 -0.3534 -0.6485  0.5239
 7115TIP3    H242981   5.641   6.549   0.154 -1.0264 -0.9110  0.3818
 7116TIP3   OH242982   3.654   5.780   0.715  1.0830 -0.2007  0.0447
 7116TIP3    H142983   3.614   5.747   0.634  3.7423 -0.8779 -1.0989
 7116TIP3    H242984   3.634   5.712   0.779  1.7886 -1.3651 -0.9166
 7117TIP3   OH242985   5.674   4.618   8.612 -0.0726  0.5841 -0.1102
 7117TIP3    H142986   5.599   4.610   8.671  0.4138 -0.3171  0.4170
 7117TIP3    H242987   5.648   4.683   8.547 -1.2098  0.4566  0.2083
 7118TIP3   OH242988   3.297   5.643   8.082 -0.0424 -0.5590 -0.3433
 7118TIP3    H142989   3.206   5.655   8.109 -0.3113  0.6607 -1.6748
 7118TIP3    H242990   3.333   5.731   8.079  0.8229 -0.9234 -0.9968
 7119TIP3   OH242991   6.744   2.971   1.976 -0.2198 -0.1783  0.3371
 7119TIP3    H142992   6.812   3.011   2.030  0.8430 -1.6811  0.1837
 7119TIP3    H242993   6.678   2.941   2.038  0.0825 -0.2363  0.6293
 7120TIP3   OH242994   3.242   1.418   3.299  0.2991  0.1929 -0.1690
 7120TIP3    H142995   3.231   1.354   3.369  0.6096  0.3504  0.0299
 7120TIP3    H242996   3.300   1.375   3.236 -0.7029 -0.2934 -0.7776
 7121TIP3   OH242997   0.705   1.972   1.044  0.6552 -0.4435  0.3802
 7121TIP3    H142998   0.774   1.909   1.026  2.7864  1.5670  1.1119
 7121TIP3    H242999   0.721   2.002   1.133 -1.7986 -0.6197  0.9665
 7122TIP3   OH243000   2.994   1.787   0.695 -0.1637 -0.3593  0.1544
 7122TIP3    H143001   3.019   1.825   0.611 -2.2581  4.6204  1.4259
 7122TIP3    H243002   2.898   1.788   0.694 -0.2554 -1.8649  1.9861
 7123TIP3   OH243003   6.282   0.423   1.433  0.6099 -0.0941 -0.0498
 7123TIP3    H143004   6.359   0.453   1.481  1.2095 -2.3753  0.5161
 7123TIP3    H243005   6.230   0.375   1.498 -0.7682  0.4825 -0.6841
 7124TIP3   OH243006   2.439   3.308   0.435 -0.7319 -0.2277 -0.3234
 7124TIP3    H143007   2.418   3.353   0.517 -1.5024  0.4547 -0.8817
 7124TIP3    H243008   2.368   3.332   0.375  0.2596  0.0035 -1.4601
 7125TIP3   OH243009   2.037   0.514   0.264 -0.2430 -0.2602 -0.0763
 7125TIP3    H143010   1.986   0.433   0.262  0.3348 -0.6244 -0.1932
 7125TIP3    H243011   2.044   0.541   0.172 -2.3944  1.1881  0.1043
 7126TIP3   OH243012   0.861   5.945   2.810 -0.5029 -0.2381 -0.0547
 7126TIP3    H143013   0.837   5.972   2.721 -1.4486  1.4385  0.6572
 7126TIP3    H243014   0.789   5.978   2.864  1.1285  0.7342  1.5926
 7127TIP3   OH243015   3.084   4.856   0.934 -0.2116 -0.0331  0.2640
 7127TIP3    H143016   3.088   4.815   1.020 -0.0789  1.4733  0.9947
 7127TIP3    H243017   3.013   4.920   0.940 -0.7808 -0.4987 -1.0276
 7128TIP3   OH243018   5.622   6.046   8.809  0.0875 -0.3864 -0.4103
 7128TIP3    H143019   5.597   6.023   8.719 -0.5484 -2.3876  0.2164
 7128TIP3    H243020   5.555   6.004   8.863  0.5600  0.6376  1.0146
 7129TIP3   OH243021   1.859   0.007   7.604 -0.1935 -0.5111 -0.2926
 7129TIP3    H143022   1.767  -0.020   7.601 -0.1395 -0.6401 -0.9005
 7129TIP3    H243023   1.865   0.062   7.682 -0.6244 -1.0839  0.1546
 7130TIP3   OH243024   4.587   6.702   0.843  0.1896 -0.6687 -0.0912
 7130TIP3    H143025   4.595   6.607   0.827  0.1133 -1.1509  2.3373
 7130TIP3    H243026   4.493   6.719   0.836  0.3956 -0.2643 -2.7478
 7131TIP3   OH243027   5.673   2.917   3.779  0.2297  0.2367  0.2840
 7131TIP3    H143028   5.680   3.004   3.740 -1.4462  0.4762  0.4617
 7131TIP3    H243029   5.679   2.857   3.704  1.1117  0.4927  0.1336
 7132TIP3   OH243030   2.355   6.256   0.092 -0.6300 -0.1510 -0.4344
 7132TIP3    H143031   2.323   6.298   0.172  0.4267 -0.8667  0.4027
 7132TIP3    H243032   2.444   6.288   0.082 -0.1568 -1.3655 -0.3494
 7133TIP3   OH243033   6.407   0.322   0.084 -0.1044  0.0944  0.1486
 7133TIP3    H143034   6.462   0.400   0.095 -2.2982  1.8597 -0.5891
 7133TIP3    H243035   6.324   0.346   0.126 -1.0073 -1.6740 -0.5576
 7134TIP3   OH243036   1.426   3.145   1.728  0.1235 -0.1144 -0.3690
 7134TIP3    H143037   1.477   3.213   1.684 -0.4443  0.2156 -0.5250
 7134TIP3    H243038   1.351   3.130   1.670  0.6522 -1.4532 -0.7449
 7135TIP3   OH243039   4.696   2.405   7.990 -0.2346  0.5403 -0.0024
 7135TIP3    H143040   4.601   2.417   7.992 -0.2342  0.4798  0.6950
 7135TIP3    H243041   4.711   2.341   7.921 -0.7238  0.3908  0.0282
 7136TIP3   OH243042   4.079   4.810   1.203 -0.7953  0.1199  0.6686
 7136TIP3    H143043   4.113   4.739   1.259 -0.7378  0.7724  1.4782
 7136TIP3    H243044   3.996   4.775   1.169  0.7191 -1.6202 -1.5785
 7137TIP3   OH243045   5.986   0.566   3.076  0.4680 -0.0354 -0.1817
 7137TIP3    H143046   5.914   0.598   3.129 -0.2044  0.4127 -1.3265
 7137TIP3    H243047   6.006   0.479   3.112  0.7216  0.6564  1.4225
 7138TIP3   OH243048   2.246   1.877   7.418 -0.1670  0.3776  0.5792
 7138TIP3    H143049   2.192   1.806   7.383 -0.8624  0.6482  1.0871
 7138TIP3    H243050   2.260   1.936   7.343 -2.4241  1.4343  0.9000
 7139TIP3   OH243051   1.387   2.210   2.927  0.0455  0.3573  0.3477
 7139TIP3    H143052   1.312   2.268   2.941  0.2772  1.1429 -1.3633
 7139TIP3    H243053   1.462   2.268   2.927  0.2078  0.2877 -2.2835
 7140TIP3   OH243054   0.325   0.864   8.218 -0.4086 -0.3577 -0.0077
 7140TIP3    H143055   0.409   0.837   8.182 -0.3888  0.4713 -0.5962
 7140TIP3    H243056   0.263   0.799   8.183  0.3239 -2.6691  2.6344
 7141TIP3   OH243057   3.783   4.599   0.128 -0.5288  0.8619  0.0456
 7141TIP3    H143058   3.754   4.683   0.093 -0.3112  1.3138  0.9218
 7141TIP3    H243059   3.708   4.541   0.117 -0.1482  0.6895 -2.0715
 7142TIP3   OH243060   5.138   5.696   8.551  0.2085  0.0682 -0.3214
 7142TIP3    H143061   5.187   5.668   8.474  1.4453 -2.1446  1.1491
 7142TIP3    H243062   5.199   5.753   8.598  0.2523 -0.2472  0.0124
 7143TIP3   OH243063   4.606   4.255   8.220  0.1469  0.3396  0.0052
 7143TIP3    H143064   4.567   4.273   8.134 -1.1429 -0.3838  0.4142
 7143TIP3    H243065   4.672   4.188   8.203 -0.1711  0.1254 -0.4230
 7144TIP3   OH243066   0.379   2.144   0.406  0.4968 -0.0672 -0.1197
 7144TIP3    H143067   0.423   2.157   0.321 -0.0890 -2.7280 -0.9308
 7144TIP3    H243068   0.319   2.071   0.390 -1.2437  0.8010  2.0486
 7145TIP3   OH243069   2.194   1.881   2.068 -0.2466  0.5662  0.0216
 7145TIP3    H143070   2.171   1.840   2.152 -1.3512 -0.9089 -0.9383
 7145TIP3    H243071   2.251   1.954   2.091  0.2432 -0.3744  1.9827
 7146TIP3   OH243072   2.596   4.021   2.457 -0.0193  0.1436  0.1084
 7146TIP3    H143073   2.608   3.994   2.548 -1.5306  1.8238  0.8746
 7146TIP3    H243074   2.599   3.940   2.407  0.5514 -0.8558  1.6759
 7147TIP3   OH243075   5.099   0.144   1.764 -0.7413  0.3221  0.0802
 7147TIP3    H143076   5.077   0.236   1.777 -0.1767  0.6838 -1.3419
 7147TIP3    H243077   5.156   0.143   1.687  1.0759 -0.9840  1.3417
 7148TIP3   OH243078   4.972   4.560   1.948  0.2973  0.2728 -0.3492
 7148TIP3    H143079   4.890   4.600   1.978 -0.1726 -0.8364 -0.1095
 7148TIP3    H243080   5.031   4.567   2.022 -0.4697 -1.3572  0.4746
 7149TIP3   OH243081   4.357   3.031   1.612  0.2234  0.3016  0.3198
 7149TIP3    H143082   4.407   3.065   1.686 -0.8268  0.1826  1.1073
 7149TIP3    H243083   4.296   2.968   1.651  1.2530 -1.6046 -0.9334
 7150TIP3   OH243084   0.739   0.107   1.477 -0.5393  0.4576 -0.2407
 7150TIP3    H143085   0.812   0.065   1.432 -0.9513 -1.0796  0.4741
 7150TIP3    H243086   0.778   0.181   1.522  0.1933  0.9233 -1.5817
 7151TIP3   OH243087   6.421   0.657   0.808 -0.0792  0.5025  0.0438
 7151TIP3    H143088   6.488   0.612   0.757 -1.7664 -0.6602 -1.2719
 7151TIP3    H243089   6.441   0.635   0.899  1.9245  1.1099 -0.2047
 7152TIP3   OH243090   0.754   0.588   0.209  0.3172 -0.5611  0.0110
 7152TIP3    H143091   0.766   0.531   0.133  2.4336  0.9170 -0.8564
 7152TIP3    H243092   0.843   0.613   0.235 -0.4429  0.5017  1.8119
 7153TIP3   OH243093   1.732   3.516   8.110  0.7252 -0.1490 -0.2799
 7153TIP3    H143094   1.691   3.551   8.031  0.9336 -0.6089 -0.5974
 7153TIP3    H243095   1.764   3.429   8.084  1.7224  0.1139  0.0106
 7154TIP3   OH243096   6.785   6.156   1.814  0.1389  0.3643  0.1561
 7154TIP3    H143097   6.752   6.167   1.725 -1.0500 -1.3919  0.3313
 7154TIP3    H243098   6.758   6.236   1.859 -0.8724  0.4751 -0.5985
 7155TIP3   OH243099   6.469   2.212   8.349 -0.2365 -0.5126 -0.0283
 7155TIP3    H143100   6.431   2.190   8.434  1.1818 -1.5165  0.3854
 7155TIP3    H243101   6.504   2.129   8.317 -1.3119 -0.2913 -1.9242
 7156TIP3   OH243102   1.193   3.419   7.688 -0.3433 -0.5542 -0.8048
 7156TIP3    H143103   1.147   3.336   7.681 -0.4460 -0.3640 -3.0616
 7156TIP3    H243104   1.130   3.484   7.657 -1.2273  0.8817  3.2763
 7157TIP3   OH243105   1.882   4.366   8.338 -0.0996 -0.0628 -0.3028
 7157TIP3    H143106   1.932   4.426   8.393 -1.4685  0.5899  0.2744
 7157TIP3    H243107   1.889   4.403   8.250  0.9435 -0.3500 -0.3647
 7158TIP3   OH243108   1.256   0.408   2.472 -0.0260 -0.7440 -0.4143
 7158TIP3    H143109   1.344   0.427   2.505  0.6100 -0.5640 -2.0955
 7158TIP3    H243110   1.215   0.355   2.540 -0.0613  2.3858  2.2447
 7159TIP3   OH243111   6.563   1.861   0.740 -0.9092 -0.5400  0.0437
 7159TIP3    H143112   6.584   1.848   0.648  1.3766  0.5678  0.3504
 7159TIP3    H243113   6.567   1.956   0.752  1.7094 -0.7949  1.8539
 7160TIP3   OH243114   1.696   2.596   3.454 -0.5155  0.1261  0.7501
 7160TIP3    H143115   1.621   2.536   3.453 -1.4110  1.2058 -1.3006
 7160TIP3    H243116   1.759   2.556   3.394  0.8478 -1.0246  2.8212
 7161TIP3   OH243117   6.270   0.970   1.650  0.0620  0.3009  0.2511
 7161TIP3    H143118   6.315   0.974   1.734  1.2199  2.7675 -0.3913
 7161TIP3    H243119   6.219   1.051   1.646 -0.7567 -0.2437 -1.0109
 7162TIP3   OH243120   4.210   0.823   1.985  0.0002  0.3160 -0.1539
 7162TIP3    H143121   4.274   0.852   1.921 -1.7792  2.8387 -0.9239
 7162TIP3    H243122   4.228   0.875   2.063 -0.7335  0.6406 -0.1918
 7163TIP3   OH243123   6.137   2.497   1.850 -0.2409  0.0580  0.1923
 7163TIP3    H143124   6.120   2.590   1.831  0.5700  0.3230  0.7482
 7163TIP3    H243125   6.087   2.450   1.782 -0.6838  0.8902 -0.0786
 7164TIP3   OH243126   5.952   4.668   2.278  0.3914 -0.2012  0.3233
 7164TIP3    H143127   5.999   4.730   2.334  1.2196 -0.4072 -0.1278
 7164TIP3    H243128   6.017   4.639   2.214 -1.1461  1.9983 -2.4633
 7165LIG      O43129   0.534   3.661   1.064 -0.1809  0.1110  0.1493
 7165LIG      N43130   0.313   3.590   0.911  0.2423 -0.4312  0.0743
 7165LIG     C143131   0.615   3.888   1.080  0.2170 -0.8177  0.2736
 7165LIG     C243132   0.489   3.800   1.079  0.3440  0.9512  0.5060
 7165LIG     C343133   0.711   3.850   1.194  0.1249  0.1863 -1.1166
 7165LIG     C443134   0.690   3.870   0.948 -0.0888 -0.2786  0.6890
 7165LIG     C543135   0.386   3.816   0.968  0.6509  0.1226 -0.5677
 7165LIG     C643136   0.839   3.924   1.190 -0.1584  0.5316 -0.2814
 7165LIG     C743137   0.815   3.951   0.951  0.0408  0.0114  0.7591
 7165LIG     C843138   0.915   3.907   1.060  0.1519  0.2991  0.4732
 7165LIG     C943139   0.263   3.717   0.968 -0.4315 -0.5661 -0.0229
 7165LIG    C1043140   0.410   3.829   1.211 -0.0675 -0.5609 -0.1277
 7165LIG    C1143141   0.262   3.472   0.989  0.0242  0.4886  0.6015
 7165LIG    C1243142   0.299   3.579   0.766  0.1004 -0.3200  0.4434
 7165LIG    C1343143   0.121   3.448   0.941 -0.2412  0.4920  0.2782
 7165LIG    C1443144   0.152   3.565   0.722 -0.4025 -0.1686 -0.5819
 7165LIG    C1543145   0.099   3.434   0.788  0.0355 -1.0369  0.3656
 7165LIG    C1643146   0.325   3.944   1.224 -0.5776 -0.3740  0.3919
 7165LIG    C1743147   0.419   3.740   1.321  1.1937 -0.4481 -0.4188
 7165LIG    C1843148   0.263   3.966   1.343  0.0048 -0.2563 -0.1039
 7165LIG    C1943149   0.353   3.765   1.439  0.2818 -0.6570 -0.4143
 7165LIG    C2043150   0.272   3.876   1.455 -0.2829 -0.5099 -0.8661
 7165LIG     H143151   0.577   3.992   1.085 -0.5097 -1.0816  0.3663
 7165LIG     H243152   0.722   3.740   1.195  1.3271  0.2625  1.2288
 7165LIG     H343153   0.662   3.877   1.290 -1.3440 -0.6126 -1.6134
 7165LIG     H443154   0.626   3.909   0.866 -1.5760 -0.8934  1.5247
 7165LIG     H543155   0.709   3.763   0.924  1.3088  0.1240 -0.0940
 7165LIG     H643156   0.451   3.811   0.878  3.5942  0.8624  1.4101
 7165LIG     H743157   0.356   3.922   0.977 -0.4100 -0.2401  0.4856
 7165LIG     H843158   0.902   3.893   1.276 -0.0041  0.8754 -0.2698
 7165LIG     H943159   0.828   4.033   1.208  2.7396  0.6211  1.6481
 7165LIG    H1043160   0.784   4.054   0.977 -2.7854 -1.2199  2.7786
 7165LIG    H1143161   0.868   3.951   0.853  0.0170  0.7337  0.7404
 7165LIG    H1243162   0.938   3.801   1.037  1.4709  1.0282 -1.9074
 7165LIG    H1343163   1.013   3.959   1.062  0.3456 -0.0871  1.2379
 7165LIG    H1443164   0.221   3.714   1.071 -3.4803  0.7560 -1.0863
 7165LIG    H1543165   0.187   3.758   0.898  0.0921  1.7786  0.6597
 7165LIG    H1643166   0.255   3.506   1.094  1.7516 -0.9467  1.2358
 7165LIG    H1743167   0.325   3.381   0.981 -1.8954 -0.9458  1.0351
 7165LIG    H1843168   0.355   3.488   0.736  0.6460  0.3507 -0.5996
 7165LIG    H1943169   0.346   3.665   0.715 -2.1732  0.7693  0.0711
 7165LIG    H2043170   0.458   3.618   1.025  0.6119  0.1636 -1.5155
 7165LIG    H2143171   0.050   3.531   0.961 -0.2553  0.2011  1.4776
 7165LIG    H2243172   0.067   3.364   0.990 -0.0920  1.3749  2.0098
 7165LIG    H2343173   0.145   3.558   0.611 -0.4397 -1.6035 -0.5057
 7165LIG    H2443174   0.089   3.652   0.751  3.0013  2.0880  0.5716
 7165LIG    H2543175  -0.010   3.422   0.773 -0.2062  1.5042 -0.4255
 7165LIG    H2643176   0.159   3.343   0.769  1.1705 -0.3242  0.4045
 7165LIG    H2743177   0.318   4.017   1.145  1.2590  1.3752  1.7326
 7165LIG    H2843178   0.484   3.654   1.305  0.3052 -0.5828 -4.2791
 7165LIG    H2943179   0.209   4.059   1.352  0.3009 -0.0632 -0.3141
 7165LIG    H3043180   0.362   3.697   1.522 -2.4191 -0.5030  0.0783
 7165LIG    H3143181   0.228   3.898   1.551 -0.1626  1.8838 -1.2997
   6.82475   6.82475   8.82842
